CNT in water
33518
    1C        C    1   2.837   2.761   4.742  0.0352  0.0259  0.2554
    1C        C    2   2.892   2.708   4.861  0.3890 -0.5815 -0.1763
    1C        C    3   2.839   2.761   4.979  0.0381 -0.6518 -0.3009
    1C        C    4   2.847   2.768   4.254  0.5098  0.0422  0.0634
    1C        C    5   2.900   2.725   4.378  0.0239 -0.5850  0.0628
    1C        C    6   2.847   2.773   4.500  0.4199  0.2769 -0.0918
    1C        C    7   3.012   2.638   4.620 -0.3339 -0.0858  0.1061
    1C        C    8   2.897   2.721   4.621 -0.0694  0.2856  0.1164
    1C        C    9   3.076   2.602   4.740  0.0782 -0.3936 -0.2018
    1C        C   10   3.008   2.628   4.862  0.2976 -0.7126 -0.0127
    1C        C   11   3.176   2.482   4.968 -0.1697 -0.4494  0.0038
    1C        C   12   3.052   2.547   4.968 -0.0295 -0.1779  0.5347
    1C        C   13   2.846   2.771   3.766  0.0053 -0.0490 -0.1157
    1C        C   14   2.897   2.720   3.887 -0.0178  0.1163 -0.0381
    1C        C   15   2.847   2.772   4.009  0.2667  0.1091  0.0831
    1C        C   16   3.023   2.654   4.132 -0.1720 -0.7781 -0.0071
    1C        C   17   2.904   2.730   4.130 -0.0385 -0.5692 -0.0044
    1C        C   18   3.082   2.619   4.255 -0.2296 -0.7807  0.0191
    1C        C   19   3.020   2.651   4.378  0.1515 -0.3806  0.1107
    1C        C   20   3.207   2.547   4.501 -0.1941 -0.4416 -0.0317
    1C        C   21   3.080   2.610   4.499 -0.1900 -0.4234  0.2669
    1C        C   22   3.277   2.521   4.621 -0.2451 -0.1054  0.0718
    1C        C   23   3.207   2.548   4.741  0.2410 -0.0008  0.3319
    1C        C   24   3.409   2.473   4.860  0.1830 -0.1556 -0.1228
    1C        C   25   3.269   2.504   4.861  0.0900 -0.5732  0.2056
    1C        C   26   3.486   2.472   4.977  0.1803  0.4880 -0.1140
    1C        C   27   2.845   2.766   3.277 -0.0751 -0.7854 -0.1130
    1C        C   28   2.903   2.726   3.400 -0.1839 -0.5034  0.0329
    1C        C   29   2.853   2.774   3.523  0.0359 -0.1953  0.0010
    1C        C   30   3.013   2.636   3.645 -0.3039 -0.6531 -0.2857
    1C        C   31   2.901   2.723   3.646 -0.0838 -0.3713 -0.0276
    1C        C   32   3.073   2.602   3.768 -0.5282 -0.5053 -0.1352
    1C        C   33   3.013   2.640   3.890 -0.5819 -0.7096 -0.1003
    1C        C   34   3.209   2.550   4.012 -0.0536  0.0404 -0.3441
    1C        C   35   3.082   2.612   4.010 -0.1356 -0.1284 -0.2156
    1C        C   36   3.277   2.536   4.135 -0.4855 -0.6922 -0.1825
    1C        C   37   3.211   2.563   4.257 -0.3676 -1.0985 -0.0305
    1C        C   38   3.415   2.509   4.373 -0.2074 -0.4699 -0.2554
    1C        C   39   3.276   2.535   4.379 -0.2929 -0.9540 -0.0388
    1C        C   40   3.484   2.495   4.496 -0.2628 -0.2444 -0.1989
    1C        C   41   3.415   2.494   4.619 -0.2350 -0.0253 -0.1837
    1C        C   42   3.627   2.469   4.739 -0.0738  0.2122 -0.0590
    1C        C   43   3.484   2.474   4.740 -0.0874 -0.1683 -0.2933
    1C        C   44   3.704   2.470   4.857  0.2893  0.0750 -0.2931
    1C        C   45   3.625   2.463   4.973  0.1192 -0.3932 -0.4356
    1C        C   46   2.832   2.748   2.789  0.1813 -0.3329 -0.1303
    1C        C   47   2.889   2.711   2.913 -0.5264 -0.5736  0.1326
    1C        C   48   2.835   2.755   3.035 -0.6018 -0.1287 -0.0553
    1C        C   49   3.011   2.635   3.157 -0.2803 -0.3909 -0.4390
    1C        C   50   2.890   2.709   3.157 -0.4345 -0.6383 -0.3202
    1C        C   51   3.078   2.610   3.279  0.0858  0.1438 -0.5299
    1C        C   52   3.018   2.645   3.402  0.2604  0.1094 -0.4362
    1C        C   53   3.206   2.548   3.526 -0.2710 -0.4681  0.3821
    1C        C   54   3.077   2.604   3.524 -0.0806 -0.0526 -0.3271
    1C        C   55   3.275   2.527   3.648  0.0047 -0.0117  0.3041
    1C        C   56   3.205   2.549   3.768 -0.4729 -0.3616  0.0894
    1C        C   57   3.414   2.507   3.888  0.1838  0.5231 -0.0546
    1C        C   58   3.274   2.526   3.889  0.0709 -0.2972 -0.2094
    1C        C   59   3.484   2.503   4.010  0.0049  0.9566  0.0641
    1C        C   60   3.414   2.502   4.132  0.0078  1.1940  0.0651
    1C        C   61   3.628   2.493   4.254  0.2113  0.8423 -0.0563
    1C        C   62   3.487   2.497   4.253  0.1918  0.1917 -0.0826
    1C        C   63   3.700   2.498   4.376 -0.2543  0.3870  0.2347
    1C        C   64   3.625   2.493   4.496 -0.2521  0.4938  0.2382
    1C        C   65   3.831   2.529   4.616 -0.0278  0.5323 -0.1083
    1C        C   66   3.697   2.485   4.617  0.0732  0.2332  0.0294
    1C        C   67   3.900   2.552   4.736  0.2955 -0.6123 -0.0693
    1C        C   68   3.838   2.513   4.857  0.3472 -0.0974  0.1232
    1C        C   69   4.050   2.574   4.975  0.1125  0.1649  0.3460
    1C        C   70   3.920   2.520   4.970  0.0665  0.2809  0.3053
    1C        C   71   2.821   2.726   2.307 -0.5917 -0.3517 -0.0680
    1C        C   72   2.881   2.686   2.428 -0.1891 -0.0153 -0.1499
    1C        C   73   2.833   2.746   2.547 -0.5548 -0.1210 -0.2379
    1C        C   74   3.008   2.628   2.671 -0.1420  0.0304 -0.0093
    1C        C   75   2.886   2.698   2.668 -0.2993 -0.2427 -0.3893
    1C        C   76   3.072   2.598   2.793  0.1120  0.0331 -0.1351
    1C        C   77   3.010   2.638   2.914 -0.2830 -0.1834 -0.2568
    1C        C   78   3.206   2.554   3.036 -0.2035 -0.6572 -0.1465
    1C        C   79   3.074   2.604   3.035  0.0351 -0.0145 -0.3728
    1C        C   80   3.273   2.534   3.158 -0.5362 -0.8961 -0.0002
    1C        C   81   3.206   2.550   3.281 -0.0327 -0.0858  0.1756
    1C        C   82   3.410   2.498   3.397 -0.2479 -0.4871 -0.0362
    1C        C   83   3.270   2.521   3.403 -0.1112  0.2726  0.3027
    1C        C   84   3.481   2.497   3.518 -0.0783 -0.2791 -0.1343
    1C        C   85   3.414   2.505   3.643  0.0617  0.4429 -0.1059
    1C        C   86   3.625   2.493   3.764  0.0940 -0.2072 -0.0150
    1C        C   87   3.484   2.497   3.765  0.1171  0.8196 -0.1147
    1C        C   88   3.696   2.502   3.885 -0.0542  0.2107  0.0389
    1C        C   89   3.625   2.500   4.008 -0.0051  0.1872  0.0637
    1C        C   90   3.832   2.537   4.127  0.2101  0.9438 -0.2851
    1C        C   91   3.696   2.502   4.130  0.1808  1.0868 -0.0532
    1C        C   92   3.901   2.554   4.250 -0.1044  0.6392 -0.0686
    1C        C   93   3.838   2.527   4.373 -0.3045  0.5777 -0.1879
    1C        C   94   4.027   2.619   4.492  0.0102  0.0721 -0.1073
    1C        C   95   3.901   2.556   4.496 -0.2201  0.5226 -0.2215
    1C        C   96   4.088   2.657   4.613 -0.0109  0.0025 -0.0779
    1C        C   97   4.029   2.612   4.733  0.1727 -0.3541 -0.1240
    1C        C   98   4.179   2.757   4.855 -0.7615  0.2329 -0.2304
    1C        C   99   4.089   2.645   4.857 -0.0419 -0.3480 -0.0226
    1C        C  100   4.202   2.835   4.969  0.2179 -0.0375 -0.2384
    1C        C  101   2.818   2.720   2.068 -0.6193 -0.2894 -0.2830
    1C        C  102   2.984   2.581   2.183 -0.6543  0.0114  0.2150
    1C        C  103   2.869   2.666   2.187 -1.0588 -0.5040 -0.1868
    1C        C  104   3.056   2.569   2.305 -0.4648  0.4277  0.1508
    1C        C  105   3.001   2.612   2.427 -0.1910 -0.0388  0.4458
    1C        C  106   3.198   2.533   2.547  0.5663  0.5500 -0.2091
    1C        C  107   3.067   2.587   2.550  0.5171  0.4277  0.1685
    1C        C  108   3.269   2.520   2.668  0.5573  0.2647 -0.2264
    1C        C  109   3.204   2.549   2.790  0.1984  0.2721 -0.4130
    1C        C  110   3.409   2.498   2.909 -0.1339  0.0382  0.2763
    1C        C  111   3.272   2.534   2.913 -0.1986 -0.1322 -0.2339
    1C        C  112   3.480   2.490   3.030 -0.4219  0.6807  0.4979
    1C        C  113   3.411   2.502   3.152 -0.2924 -0.0162  0.6428
    1C        C  114   3.621   2.497   3.272  0.2637  0.5765 -0.1677
    1C        C  115   3.480   2.491   3.275  0.3051 -0.3888  0.2759
    1C        C  116   3.692   2.501   3.394 -0.1954  0.4523  0.1010
    1C        C  117   3.622   2.497   3.517 -0.0766  0.3854  0.1635
    1C        C  118   3.826   2.545   3.639  0.1282  0.0927 -0.2318
    1C        C  119   3.692   2.502   3.640  0.1650 -0.0084  0.0413
    1C        C  120   3.895   2.566   3.761 -0.2374  0.3839 -0.0790
    1C        C  121   3.832   2.540   3.885 -0.1108  0.4020 -0.0154
    1C        C  122   4.027   2.625   4.005  0.5364  0.0278  0.0122
    1C        C  123   3.901   2.562   4.006  0.4564  0.1906 -0.2995
    1C        C  124   4.086   2.662   4.128  0.7361 -0.2968  0.0107
    1C        C  125   4.025   2.621   4.249  0.2639 -0.0445 -0.1425
    1C        C  126   4.192   2.754   4.369  0.0984  0.0109  0.0326
    1C        C  127   4.083   2.664   4.371 -0.0035  0.1383 -0.0852
    1C        C  128   4.235   2.809   4.491 -0.2900  0.1303  0.1123
    1C        C  129   4.186   2.759   4.614 -0.1676  0.1501  0.1661
    1C        C  130   4.316   2.927   4.734  0.1303  0.2380  0.1356
    1C        C  131   4.234   2.811   4.736 -0.5521  0.7133  0.0815
    1C        C  132   4.346   2.993   4.855  0.0590 -0.0668  0.3210
    1C        C  133   4.277   2.952   4.970 -0.3533  0.3298  0.2160
    1C        C  134   3.174   2.469   2.076  0.2519  0.6735  0.0029
    1C        C  135   3.037   2.500   2.077  0.0452 -0.2375  0.7493
    1C        C  136   3.256   2.474   2.189  0.4766  0.3623 -0.1450
    1C        C  137   3.189   2.520   2.304 -0.4295  0.5030 -0.7122
    1C        C  138   3.402   2.480   2.423 -0.3711  0.3296 -0.0185
    1C        C  139   3.263   2.507   2.424 -0.2652  0.9748 -0.7550
    1C        C  140   3.477   2.482   2.542 -0.1042  0.6396 -0.1864
    1C        C  141   3.408   2.496   2.665  0.6262  0.5709  0.2407
    1C        C  142   3.620   2.493   2.786  0.2380  0.4166 -0.1807
    1C        C  143   3.479   2.488   2.787  0.2382  0.3517  0.4583
    1C        C  144   3.692   2.501   2.907 -0.0610  0.3795  0.0036
    1C        C  145   3.622   2.491   3.029 -0.4194  0.3468 -0.2030
    1C        C  146   3.830   2.530   3.149 -0.0680  0.0577 -0.1094
    1C        C  147   3.693   2.497   3.150 -0.0949  0.1513 -0.3820
    1C        C  148   3.891   2.560   3.272 -0.3551  0.1472  0.0102
    1C        C  149   3.828   2.537   3.396 -0.1134  0.1288  0.1273
    1C        C  150   4.023   2.623   3.517  0.1888  0.3182 -0.2955
    1C        C  151   3.896   2.560   3.518  0.3546 -0.0088 -0.1102
    1C        C  152   4.084   2.660   3.638  0.1809 -0.2492 -0.1162
    1C        C  153   4.020   2.631   3.760 -0.2985  0.4914 -0.1886
    1C        C  154   4.186   2.762   3.882  0.2745 -0.2508 -0.1440
    1C        C  155   4.080   2.669   3.882 -0.0082  0.0735 -0.2027
    1C        C  156   4.239   2.810   4.004  0.4354 -0.1091 -0.2743
    1C        C  157   4.189   2.757   4.125  0.5565 -0.1162 -0.2297
    1C        C  158   4.332   2.913   4.247  0.2288 -0.2530  0.0402
    1C        C  159   4.245   2.802   4.247  0.1465 -0.1848 -0.0210
    1C        C  160   4.358   2.980   4.368 -0.3823  0.0289  0.0158
    1C        C  161   4.314   2.926   4.491 -0.2827  0.1234  0.0915
    1C        C  162   4.417   3.113   4.611  0.2060 -0.0708  0.3307
    1C        C  163   4.354   2.987   4.612  0.3661 -0.1547  0.0168
    1C        C  164   4.446   3.180   4.732  0.6748  0.0857  0.1342
    1C        C  165   4.410   3.119   4.854 -0.1378  0.0299 -0.1265
    1C        C  166   4.510   3.316   4.963 -0.3150 -0.2371  0.0657
    1C        C  167   4.469   3.183   4.964  0.1937 -0.3960 -0.0561
    1C        C  168   3.468   2.427   2.070  0.0438 -0.5893 -0.0308
    1C        C  169   3.396   2.453   2.187  0.4779  0.3465  0.0334
    1C        C  170   3.617   2.464   2.300  0.0660 -0.1827 -0.1161
    1C        C  171   3.475   2.459   2.304  0.0756 -0.1515  0.3345
    1C        C  172   3.690   2.482   2.419 -0.0930 -0.1443 -0.0234
    1C        C  173   3.618   2.487   2.541 -0.0558 -0.4160  0.0127
    1C        C  174   3.825   2.533   2.659  0.2302  0.2644 -0.5887
    1C        C  175   3.689   2.494   2.663  0.2343  0.2783 -0.1875
    1C        C  176   3.891   2.552   2.782 -0.7716 -0.0777  0.0225
    1C        C  177   3.831   2.527   2.907 -0.0585  0.3906  0.4696
    1C        C  178   4.027   2.613   3.026  0.5299 -0.1919 -0.1975
    1C        C  179   3.900   2.550   3.028  0.6708 -0.4686  0.2247
    1C        C  180   4.080   2.653   3.150 -0.0965  0.1962 -0.0473
    1C        C  181   4.021   2.616   3.273 -0.3642  0.1662 -0.1852
    1C        C  182   4.193   2.744   3.393  0.2598 -0.0743  0.0326
    1C        C  183   4.084   2.654   3.393  0.0254  0.2092 -0.4009
    1C        C  184   4.242   2.796   3.514  0.1105 -0.1049  0.1045
    1C        C  185   4.196   2.746   3.638  0.0866 -0.1310  0.0826
    1C        C  186   4.330   2.913   3.757 -0.2050  0.3322 -0.2580
    1C        C  187   4.242   2.803   3.759  0.5405 -0.2671 -0.0250
    1C        C  188   4.371   2.973   3.879  0.5794 -0.2002 -0.2550
    1C        C  189   4.328   2.920   4.002  0.1269  0.1389 -0.2644
    1C        C  190   4.434   3.101   4.124 -0.1415 -0.1724  0.3188
    1C        C  191   4.367   2.977   4.126 -0.2322 -0.1282 -0.0279
    1C        C  192   4.454   3.168   4.246 -0.4830 -0.2024  0.3917
    1C        C  193   4.425   3.105   4.369 -0.6124  0.1508  0.5473
    1C        C  194   4.489   3.311   4.486  0.6146 -0.0607 -0.2488
    1C        C  195   4.450   3.175   4.489  0.4364 -0.0055  0.4244
    1C        C  196   4.507   3.384   4.606 -0.0878 -0.0120 -0.1656
    1C        C  197   4.495   3.313   4.727  0.5568  0.1264 -0.0124
    1C        C  198   4.550   3.530   4.842 -0.8863  0.1822  0.1939
    1C        C  199   4.520   3.390   4.844 -0.6369  0.1254  0.2601
    1C        C  200   4.583   3.616   4.952  0.3994  0.0051 -0.0314
    1C        C  201   3.608   2.417   2.064  0.1072  0.3243 -0.2019
    1C        C  202   3.822   2.505   2.174  0.0618  0.2208 -0.1205
    1C        C  203   3.685   2.462   2.175  0.0569  0.2345 -0.1300
    1C        C  204   3.894   2.535   2.293 -0.0086  0.6896 -0.1945
    1C        C  205   3.827   2.513   2.416 -0.1694  0.1725 -0.3693
    1C        C  206   4.016   2.615   2.536  0.0820  0.4747 -0.0226
    1C        C  207   3.894   2.544   2.536  0.2420  0.1819 -0.5936
    1C        C  208   4.073   2.659   2.658 -0.2074  0.0511  0.2745
    1C        C  209   4.012   2.625   2.781 -0.7775 -0.0627 -0.0309
    1C        C  210   4.188   2.743   2.901  0.1392 -0.3551 -0.2382
    1C        C  211   4.080   2.652   2.901 -0.0008 -0.1942 -0.4315
    1C        C  212   4.237   2.794   3.023 -0.1024 -0.0497 -0.2658
    1C        C  213   4.183   2.750   3.146  0.5802 -0.5146 -0.1276
    1C        C  214   4.324   2.906   3.267 -0.1596  0.0350 -0.4137
    1C        C  215   4.232   2.799   3.269  0.0631 -0.1491 -0.0627
    1C        C  216   4.363   2.966   3.388  0.2394 -0.1481 -0.4513
    1C        C  217   4.331   2.906   3.512  0.2409 -0.2204 -0.4875
    1C        C  218   4.427   3.097   3.632 -0.1913 -0.1204  0.1120
    1C        C  219   4.369   2.968   3.633  0.0787 -0.2461 -0.4235
    1C        C  220   4.460   3.162   3.753 -0.0714 -0.2594  0.1539
    1C        C  221   4.439   3.096   3.877  0.3230 -0.0484  0.3306
    1C        C  222   4.490   3.300   3.997 -0.1783 -0.0855  0.0357
    1C        C  223   4.465   3.161   4.000  0.1822 -0.1461  0.4110
    1C        C  224   4.499   3.373   4.118 -0.7609  0.1156 -0.0371
    1C        C  225   4.486   3.306   4.242 -0.7006 -0.1669 -0.1797
    1C        C  226   4.513   3.519   4.359  0.2081 -0.0849 -0.1737
    1C        C  227   4.497   3.378   4.362  0.8600 -0.1696 -0.2977
    1C        C  228   4.513   3.594   4.478 -0.5320 -0.2363 -0.0676
    1C        C  229   4.514   3.525   4.602  0.0431 -0.0080  0.0622
    1C        C  230   4.497   3.739   4.718  0.1251  0.1807 -0.1451
    1C        C  231   4.530   3.600   4.720 -0.1773  0.1072  0.0242
    1C        C  232   4.488   3.813   4.838 -0.1295 -0.1079  0.0163
    1C        C  233   4.535   3.747   4.952  0.2763 -0.0377 -0.1101
    1C        C  234   4.008   2.608   2.054  0.1163 -0.0964 -0.3414
    1C        C  235   3.887   2.540   2.055 -0.1357  0.3476 -0.1927
    1C        C  236   4.081   2.639   2.170 -0.0231 -0.2184 -0.2176
    1C        C  237   4.021   2.599   2.291  0.2406  0.2146  0.0621
    1C        C  238   4.192   2.728   2.413  0.5881 -0.1364  0.3216
    1C        C  239   4.076   2.646   2.412  0.6896 -0.2904  0.0622
    1C        C  240   4.246   2.781   2.532  0.8156 -0.5989  0.4337
    1C        C  241   4.188   2.740   2.655  0.1070 -0.3857  0.1847
    1C        C  242   4.329   2.897   2.779  0.1603  0.1249 -0.3253
    1C        C  243   4.235   2.792   2.777  0.8713 -0.5264 -0.0378
    1C        C  244   4.372   2.957   2.899 -0.1391 -0.0703 -0.1150
    1C        C  245   4.329   2.901   3.022 -0.1454 -0.0056 -0.0834
    1C        C  246   4.422   3.090   3.141  0.1920  0.1847 -0.0571
    1C        C  247   4.368   2.960   3.144  0.0205  0.2489 -0.2568
    1C        C  248   4.444   3.159   3.263  0.7684 -0.1843  0.0516
    1C        C  249   4.414   3.098   3.387 -0.4807  0.1382 -0.0790
    1C        C  250   4.485   3.297   3.508 -0.2452 -0.1657  0.2913
    1C        C  251   4.448   3.161   3.508 -0.6502 -0.0553  0.0695
    1C        C  252   4.500   3.367   3.630 -0.6330  0.0058  0.2406
    1C        C  253   4.492   3.299   3.754 -0.5177 -0.1545  0.1603
    1C        C  254   4.514   3.511   3.870 -0.1354 -0.0512 -0.2397
    1C        C  255   4.506   3.370   3.875 -0.2237 -0.0360  0.0581
    1C        C  256   4.510   3.583   3.992 -1.0563 -0.0802 -0.2494
    1C        C  257   4.507   3.514   4.115 -0.4712  0.0992 -0.1326
    1C        C  258   4.478   3.726   4.235 -0.3706  0.0079  0.0540
    1C        C  259   4.499   3.586   4.236  0.0163  0.0641 -0.0746
    1C        C  260   4.464   3.798   4.355 -0.5146  0.0738  0.0009
    1C        C  261   4.491   3.733   4.478 -0.5396 -0.2341 -0.1537
    1C        C  262   4.427   3.940   4.596  0.6577  0.2418  0.2408
    1C        C  263   4.474   3.807   4.597  0.0929  0.0350 -0.2239
    1C        C  264   4.395   4.008   4.716 -0.0685  0.4176 -0.0471
    1C        C  265   4.431   3.942   4.835  0.4824  0.1547 -0.3550
    1C        C  266   4.325   4.126   4.951  0.0539 -0.3312 -0.1755
    1C        C  267   4.383   4.000   4.953  0.0099 -0.3531 -0.2934
    1C        C  268   4.259   2.769   2.055 -0.0764 -0.2482  0.0415
    1C        C  269   4.194   2.724   2.171 -0.1634 -0.0272  0.0833
    1C        C  270   4.338   2.885   2.291  0.3479 -0.3881 -0.1379
    1C        C  271   4.246   2.776   2.291 -0.0895 -0.0265  0.0573
    1C        C  272   4.371   2.950   2.412 -0.0977 -0.0823 -0.1693
    1C        C  273   4.334   2.891   2.535  0.2221 -0.0968 -0.0697
    1C        C  274   4.435   3.079   2.656  0.2871  0.2226 -0.0100
    1C        C  275   4.368   2.955   2.656  0.4195  0.1432 -0.2420
    1C        C  276   4.456   3.148   2.777  1.0322 -0.4483  0.2559
    1C        C  277   4.438   3.081   2.900  0.0173 -0.1470  0.2836
    1C        C  278   4.496   3.288   3.016 -0.2998  0.4211 -0.0376
    1C        C  279   4.462   3.151   3.020  0.1990  0.2934 -0.0021
    1C        C  280   4.506   3.359   3.138 -0.6121  0.2032  0.1185
    1C        C  281   4.484   3.294   3.261 -0.0716  0.0727  0.1511
    1C        C  282   4.505   3.503   3.382 -0.0472 -0.2910 -0.1052
    1C        C  283   4.499   3.362   3.383  0.5053 -0.3100  0.2971
    1C        C  284   4.505   3.576   3.503  0.2475 -0.2224 -0.1481
    1C        C  285   4.503   3.508   3.626 -0.6704 -0.0008 -0.0376
    1C        C  286   4.478   3.719   3.747 -0.6178  0.0913 -0.2031
    1C        C  287   4.500   3.579   3.748 -0.2184  0.1539 -0.1159
    1C        C  288   4.467   3.790   3.868 -0.0216  0.2633 -0.2508
    1C        C  289   4.487   3.722   3.990 -0.9648 -0.0648 -0.2685
    1C        C  290   4.424   3.927   4.109 -0.0226 -0.1009  0.1223
    1C        C  291   4.465   3.792   4.111 -0.4157 -0.2252 -0.0674
    1C        C  292   4.394   3.995   4.229 -0.8641 -0.2187 -0.0112
    1C        C  293   4.421   3.932   4.353 -0.8588 -0.0330  0.0841
    1C        C  294   4.321   4.123   4.470 -0.1329 -0.1075  0.1340
    1C        C  295   4.388   3.998   4.474 -0.2428 -0.1629  0.3287
    1C        C  296   4.280   4.184   4.590 -0.4693 -0.1861  0.0629
    1C        C  297   4.323   4.131   4.714 -0.1811  0.3559  0.2031
    1C        C  298   4.194   4.304   4.834 -0.7599 -0.2473  0.0202
    1C        C  299   4.289   4.196   4.835 -0.1560  0.2772  0.2522
    1C        C  300   4.160   4.390   4.944 -0.2230 -0.1283  0.0958
    1C        C  301   4.346   2.878   2.057  0.0852 -0.3711 -0.1120
    1C        C  302   4.464   3.065   2.172 -0.3177  0.3245 -0.0149
    1C        C  303   4.394   2.939   2.173 -0.7112  0.5340 -0.2396
    1C        C  304   4.470   3.138   2.294 -0.5701 -0.0035  0.2039
    1C        C  305   4.437   3.075   2.415  0.7126 -0.5080  0.3068
    1C        C  306   4.501   3.281   2.529  0.0837  0.1917 -0.1859
    1C        C  307   4.469   3.144   2.535  0.7062  0.0420  0.0018
    1C        C  308   4.503   3.354   2.649 -0.2126  0.0884 -0.1129
    1C        C  309   4.486   3.286   2.772 -0.4594 -0.1260 -0.2595
    1C        C  310   4.514   3.498   2.891  0.3990 -0.0529 -0.1221
    1C        C  311   4.505   3.357   2.893 -0.6395  0.0024 -0.3016
    1C        C  312   4.510   3.569   3.013 -0.5789  0.0754 -0.2211
    1C        C  313   4.511   3.500   3.136 -0.4551  0.1968 -0.1547
    1C        C  314   4.483   3.711   3.258  0.4568  0.0394  0.0040
    1C        C  315   4.502   3.571   3.258 -0.5063 -0.0935  0.0120
    1C        C  316   4.470   3.783   3.379  0.5849 -0.1705  0.1436
    1C        C  317   4.484   3.716   3.502 -0.0931 -0.2699  0.1710
    1C        C  318   4.424   3.921   3.622 -0.1304  0.3107  0.0390
    1C        C  319   4.465   3.785   3.623 -0.5358  0.1870 -0.1593
    1C        C  320   4.397   3.990   3.742  0.2408  0.4223  0.0592
    1C        C  321   4.420   3.923   3.865 -0.1650  0.2199  0.0247
    1C        C  322   4.314   4.105   3.983  0.8741  0.6001 -0.2093
    1C        C  323   4.396   3.991   3.986  0.1223  0.0593  0.1712
    1C        C  324   4.273   4.166   4.104 -0.2704  0.0312 -0.2905
    1C        C  325   4.320   4.115   4.227 -0.5068 -0.0005 -0.2108
    1C        C  326   4.186   4.285   4.349 -0.3618 -0.4860  0.0867
    1C        C  327   4.279   4.178   4.347  0.0689 -0.1193  0.0570
    1C        C  328   4.133   4.339   4.468 -0.3530 -0.2379 -0.0190
    1C        C  329   4.188   4.291   4.589  0.0833  0.2937 -0.0015
    1C        C  330   4.015   4.416   4.710 -0.4003  0.0736  0.3140
    1C        C  331   4.137   4.343   4.710 -0.5662 -0.2073 -0.0574
    1C        C  332   3.961   4.475   4.826 -0.0745  0.1305  0.4397
    1C        C  333   4.045   4.469   4.938  0.0412  0.2769  0.3595
    1C        C  334   4.543   3.261   2.054 -0.1322 -0.0619  0.2543
    1C        C  335   4.532   3.122   2.060 -0.4609 -0.0646 -0.3074
    1C        C  336   4.528   3.346   2.165  0.0638  0.4640 -0.1151
    1C        C  337   4.501   3.277   2.285 -0.0292 -0.1562 -0.4852
    1C        C  338   4.522   3.490   2.405  0.7728 -0.2164 -0.2574
    1C        C  339   4.514   3.349   2.406 -0.3257 -0.1711 -0.4386
    1C        C  340   4.519   3.563   2.526 -0.2660 -0.3692 -0.1814
    1C        C  341   4.523   3.494   2.649 -0.3297  0.1089  0.0914
    1C        C  342   4.496   3.709   2.770 -0.8224  0.1341 -0.2184
    1C        C  343   4.514   3.569   2.769  0.0270  0.2357  0.0407
    1C        C  344   4.482   3.779   2.892  0.0859  0.1007 -0.0881
    1C        C  345   4.497   3.709   3.014  0.2017  0.1490 -0.0760
    1C        C  346   4.418   3.909   3.132  0.4478  0.0759  0.1316
    1C        C  347   4.472   3.778   3.134  0.4070  0.0572  0.0190
    1C        C  348   4.385   3.974   3.252 -0.1978  0.0100 -0.0068
    1C        C  349   4.416   3.914   3.376  0.6676 -0.1439 -0.2924
    1C        C  350   4.314   4.097   3.492  0.0663 -0.2363 -0.0001
    1C        C  351   4.393   3.981   3.498 -0.1323 -0.3871 -0.3029
    1C        C  352   4.271   4.155   3.614 -0.2430  0.0239 -0.2295
    1C        C  353   4.314   4.104   3.738 -0.1531  0.1261 -0.2197
    1C        C  354   4.174   4.262   3.860 -0.3028 -0.2361 -0.0228
    1C        C  355   4.269   4.158   3.860  0.2097  0.2311 -0.1346
    1C        C  356   4.119   4.309   3.982 -0.3557 -0.1539 -0.0778
    1C        C  357   4.174   4.267   4.105 -0.2153  0.0881 -0.0564
    1C        C  358   4.001   4.386   4.227  0.1655  0.5306  0.4659
    1C        C  359   4.125   4.320   4.226 -0.2629 -0.2868  0.0919
    1C        C  360   3.944   4.436   4.346 -0.4992 -0.0553  0.3981
    1C        C  361   4.013   4.412   4.467  0.1067  0.5365  0.1753
    1C        C  362   3.823   4.509   4.584 -0.0800  0.2490 -0.0613
    1C        C  363   3.953   4.452   4.588 -0.1483  0.1105  0.1928
    1C        C  364   3.756   4.537   4.705  0.1937  0.4065  0.0570
    1C        C  365   3.829   4.526   4.825 -0.0674  0.1430  0.1944
    1C        C  366   3.625   4.585   4.945 -0.0870 -0.1435 -0.3970
    1C        C  367   3.761   4.556   4.943  0.0409  0.3953  0.1930
    1C        C  368   4.505   3.562   2.047 -0.3086  0.3247 -0.4158
    1C        C  369   4.520   3.487   2.164 -0.1591  0.4532 -0.3513
    1C        C  370   4.488   3.700   2.282 -0.1186  0.0467 -0.0942
    1C        C  371   4.518   3.562   2.284 -0.1631  0.0367 -0.0851
    1C        C  372   4.475   3.771   2.403 -0.0089 -0.0429 -0.0302
    1C        C  373   4.498   3.703   2.524 -0.0210 -0.3321 -0.1898
    1C        C  374   4.418   3.901   2.644 -0.5112 -0.1830  0.1276
    1C        C  375   4.477   3.772   2.645 -0.0044  0.0376 -0.3977
    1C        C  376   4.386   3.967   2.764  0.0345  0.1581  0.0882
    1C        C  377   4.417   3.904   2.886 -0.1519 -0.0175  0.0446
    1C        C  378   4.315   4.089   3.005 -0.2491 -0.0509 -0.0715
    1C        C  379   4.396   3.973   3.008 -0.6044 -0.2933  0.1199
    1C        C  380   4.268   4.146   3.125 -0.2991 -0.3768  0.0625
    1C        C  381   4.309   4.094   3.250 -0.1595  0.0373  0.1898
    1C        C  382   4.172   4.257   3.371 -0.1589  0.1473  0.2332
    1C        C  383   4.269   4.155   3.371 -0.7102 -0.3755  0.2164
    1C        C  384   4.121   4.305   3.494 -0.2205  0.3474  0.1275
    1C        C  385   4.172   4.255   3.616  0.0826  0.3400 -0.0040
    1C        C  386   4.002   4.383   3.737 -0.1513  0.0291  0.0699
    1C        C  387   4.119   4.304   3.737 -0.0761  0.1430  0.0042
    1C        C  388   3.938   4.419   3.858 -0.2774 -0.0030  0.0120
    1C        C  389   4.002   4.387   3.980 -0.1408  0.1723 -0.0143
    1C        C  390   3.809   4.469   4.102 -0.0533 -0.8149 -0.0849
    1C        C  391   3.942   4.421   4.103  0.1507 -0.2498  0.2467
    1C        C  392   3.741   4.496   4.222 -0.3203 -0.1843 -0.3713
    1C        C  393   3.813   4.490   4.343 -0.4893 -0.0512 -0.2645
    1C        C  394   3.611   4.546   4.467 -0.0120 -0.5223  0.2754
    1C        C  395   3.751   4.527   4.464  0.1452  0.6364 -0.1410
    1C        C  396   3.541   4.559   4.589 -0.1801  0.4678  0.0822
    1C        C  397   3.616   4.555   4.709  0.2195  0.6664 -0.1581
    1C        C  398   3.406   4.544   4.832 -0.1187 -0.1930 -0.1025
    1C        C  399   3.545   4.569   4.830 -0.2234  0.3792 -0.3791
    1C        C  400   3.335   4.513   4.949  0.0392  0.5227  0.1897
    1C        C  401   4.503   3.701   2.044  0.1350  0.3381 -0.1952
    1C        C  402   4.447   3.910   2.160 -0.3550  0.0110  0.3366
    1C        C  403   4.490   3.775   2.162 -0.0783  0.0941 -0.0637
    1C        C  404   4.408   3.971   2.281 -0.1437  0.3625  0.2254
    1C        C  405   4.431   3.905   2.403  0.4395  0.1051 -0.0215
    1C        C  406   4.321   4.091   2.520  0.6361  0.1689  0.3581
    1C        C  407   4.391   3.968   2.523  0.0034 -0.2038 -0.0010
    1C        C  408   4.275   4.149   2.640 -0.4742 -0.0063  0.0228
    1C        C  409   4.313   4.088   2.762 -0.2826 -0.0381 -0.0557
    1C        C  410   4.172   4.246   2.883 -0.3146 -0.0732  0.0706
    1C        C  411   4.269   4.144   2.884 -0.3394 -0.0930 -0.0538
    1C        C  412   4.118   4.292   3.005 -0.2975 -0.1298  0.0966
    1C        C  413   4.167   4.245   3.129 -0.9352 -1.0173  0.0194
    1C        C  414   3.993   4.369   3.247  0.1310  0.0722 -0.0872
    1C        C  415   4.114   4.296   3.249  0.0179 -0.1100  0.0687
    1C        C  416   3.938   4.410   3.371 -0.2110  0.2581 -0.3022
    1C        C  417   4.001   4.379   3.493 -0.2366  0.3168 -0.2756
    1C        C  418   3.808   4.470   3.615 -0.0620 -0.2481  0.3107
    1C        C  419   3.937   4.411   3.615  0.2132  0.3520 -0.0484
    1C        C  420   3.743   4.501   3.736 -0.1098  0.3637  0.1270
    1C        C  421   3.810   4.478   3.858 -0.1267  0.3208  0.1260
    1C        C  422   3.605   4.524   3.980 -0.0051  0.2599  0.1199
    1C        C  423   3.744   4.500   3.981  0.0293  0.4700  0.1818
    1C        C  424   3.534   4.525   4.102 -0.2017 -0.2430  0.0097
    1C        C  425   3.602   4.518   4.225 -0.3780 -0.6034  0.0829
    1C        C  426   3.394   4.540   4.349 -0.0013  0.0570  0.0086
    1C        C  427   3.535   4.540   4.348  0.0028 -0.4728  0.2650
    1C        C  428   3.326   4.535   4.473  0.1915 -0.1639  0.1061
    1C        C  429   3.400   4.547   4.592 -0.1654  0.3369  0.2810
    1C        C  430   3.190   4.511   4.713 -0.6260  1.1237 -0.0190
    1C        C  431   3.330   4.538   4.714 -0.4901  0.4404  0.1022
    1C        C  432   3.121   4.483   4.834 -0.3570  0.6947  0.0396
    1C        C  433   3.198   4.486   4.951  0.1066  0.1337 -0.2495
    1C        C  434   4.373   4.114   2.044 -0.0637 -0.0855  0.3130
    1C        C  435   4.442   3.992   2.047  0.5652  0.2742  0.4812
    1C        C  436   4.296   4.156   2.157 -0.2221  0.0504  0.1543
    1C        C  437   4.327   4.089   2.278 -0.1387  0.3663  0.3084
    1C        C  438   4.169   4.237   2.393  0.0008 -0.0683  0.0687
    1C        C  439   4.275   4.143   2.397  0.3210  0.3093  0.5382
    1C        C  440   4.116   4.285   2.515 -0.5398  0.0470 -0.2097
    1C        C  441   4.176   4.249   2.638 -0.1139  0.3421 -0.3282
    1C        C  442   4.002   4.372   2.762  0.0397 -0.1225 -0.0390
    1C        C  443   4.118   4.291   2.760  0.0071 -0.1622 -0.0999
    1C        C  444   3.938   4.410   2.881 -0.1618 -0.9185  0.1081
    1C        C  445   4.002   4.372   3.001 -0.1966  0.0297  0.4282
    1C        C  446   3.805   4.455   3.125 -0.3678  0.4010 -0.1810
    1C        C  447   3.936   4.401   3.123 -0.2031  0.7803  0.2459
    1C        C  448   3.740   4.482   3.247  0.1184  0.5508  0.0473
    1C        C  449   3.807   4.462   3.370 -0.2364  0.2057  0.1832
    1C        C  450   3.604   4.522   3.491  0.0595  0.3471 -0.0741
    1C        C  451   3.741   4.486   3.492 -0.0121  0.0831  0.3273
    1C        C  452   3.536   4.539   3.614  0.0755 -0.0541 -0.0104
    1C        C  453   3.606   4.535   3.737 -0.1154  0.3347  0.1088
    1C        C  454   3.393   4.543   3.858 -0.0249  1.0020 -0.0613
    1C        C  455   3.534   4.539   3.859 -0.0416  0.3197  0.1506
    1C        C  456   3.324   4.535   3.981 -0.1835  0.4249 -0.1866
    1C        C  457   3.393   4.535   4.105 -0.1804  0.0847 -0.1888
    1C        C  458   3.186   4.499   4.229  0.2590 -0.2578 -0.0735
    1C        C  459   3.323   4.532   4.227  0.0334  0.6956 -0.0511
    1C        C  460   3.120   4.485   4.353  0.6152  0.0636  0.1533
    1C        C  461   3.186   4.514   4.474  0.1488  0.1366  0.3933
    1C        C  462   2.989   4.428   4.595 -0.2182 -0.3503 -0.2311
    1C        C  463   3.118   4.487   4.595 -0.4914  0.2644  0.0640
    1C        C  464   2.925   4.396   4.717 -0.5372  0.3815 -0.1972
    1C        C  465   2.985   4.438   4.839 -0.1447  0.0063 -0.2554
    1C        C  466   2.801   4.326   4.955  0.7188  0.0490 -0.1488
    1C        C  467   2.905   4.419   4.956  0.3793  0.4272  0.1761
    1C        C  468   4.113   4.279   2.036 -0.1587 -0.5653 -0.4666
    1C        C  469   4.181   4.241   2.152 -0.1592  0.1144 -0.2426
    1C        C  470   4.003   4.369   2.273  0.3608  0.2726 -0.1720
    1C        C  471   4.122   4.291   2.272  0.0601 -0.1856 -0.0065
    1C        C  472   3.936   4.395   2.394  0.0744  0.4460 -0.3648
    1C        C  473   3.997   4.361   2.517 -0.4755  0.1451 -0.1714
    1C        C  474   3.808   4.453   2.639 -0.1140 -0.0681  0.2057
    1C        C  475   3.940   4.402   2.639 -0.0872  0.0043  0.0591
    1C        C  476   3.737   4.475   2.759 -0.3594 -0.3617  0.1142
    1C        C  477   3.806   4.460   2.881 -0.1674 -0.9384 -0.0650
    1C        C  478   3.599   4.507   3.002 -0.3017  0.1252  0.2223
    1C        C  479   3.737   4.478   3.003 -0.3256 -0.0115 -0.2810
    1C        C  480   3.532   4.518   3.125  0.0114  0.3630  0.3707
    1C        C  481   3.602   4.514   3.248 -0.0410 -0.1497  0.3817
    1C        C  482   3.391   4.534   3.369 -0.3091 -0.0827  0.6004
    1C        C  483   3.532   4.530   3.370 -0.2897  0.5502  0.1463
    1C        C  484   3.323   4.526   3.493 -0.5586  0.0006  0.4659
    1C        C  485   3.395   4.535   3.614  0.0837 -0.2925  0.1070
    1C        C  486   3.186   4.498   3.737 -0.2414  0.8738  0.0096
    1C        C  487   3.324   4.529   3.736 -0.0344 -0.0105  0.0491
    1C        C  488   3.120   4.480   3.860 -0.2630  1.0229  0.0176
    1C        C  489   3.186   4.504   3.983 -0.2190  0.6057  0.0726
    1C        C  490   3.003   4.400   4.108  0.1344 -0.1092  0.0454
    1C        C  491   3.121   4.478   4.106 -0.1669  0.3434  0.0428
    1C        C  492   2.944   4.367   4.232  0.4792 -0.4134  0.1309
    1C        C  493   2.995   4.418   4.353  0.6553 -0.0117 -0.1117
    1C        C  494   2.826   4.289   4.475 -0.0937  0.0176  0.1211
    1C        C  495   2.933   4.382   4.475  0.1264 -0.2274 -0.4430
    1C        C  496   2.771   4.248   4.598 -0.0223  0.0476  0.1663
    1C        C  497   2.814   4.307   4.719 -0.0501 -0.2317  0.3180
    1C        C  498   2.656   4.161   4.835 -0.4287  0.1302  0.0012
    1C        C  499   2.752   4.265   4.838 -0.1794 -0.1031  0.2992
    1C        C  500   2.586   4.115   4.947  0.1969  0.3208  0.4776
    1C        C  501   3.993   4.348   2.034 -0.0845 -0.4036  0.3663
    1C        C  502   3.809   4.458   2.152 -0.2415 -0.1619  0.0397
    1C        C  503   3.939   4.403   2.151 -0.0173  0.3623  0.0500
    1C        C  504   3.741   4.480   2.274 -0.0062 -0.1818  0.1756
    1C        C  505   3.806   4.450   2.395 -0.1088  0.0091  0.2780
    1C        C  506   3.602   4.506   2.516  0.0198  0.7928 -0.0258
    1C        C  507   3.740   4.477   2.517 -0.1199  0.1232  0.2468
    1C        C  508   3.528   4.518   2.636 -0.0558  0.2359 -0.0125
    1C        C  509   3.599   4.506   2.757 -0.3244 -0.2121  0.0979
    1C        C  510   3.388   4.519   2.881 -0.1122  0.8337  0.0438
    1C        C  511   3.529   4.516   2.879 -0.1199  0.5532  0.1512
    1C        C  512   3.320   4.519   3.005  0.0106  0.2706  0.1078
    1C        C  513   3.391   4.525   3.127 -0.0339 -0.5007  0.1739
    1C        C  514   3.183   4.486   3.247 -0.0129  0.4575 -0.0620
    1C        C  515   3.320   4.522   3.248  0.2203 -0.4416  0.3217
    1C        C  516   3.119   4.462   3.370 -0.2619  0.2687 -0.2301
    1C        C  517   3.188   4.484   3.491 -0.5174 -0.1143 -0.0134
    1C        C  518   2.994   4.406   3.618 -0.2340  0.2395 -0.0521
    1C        C  519   3.122   4.465   3.615 -0.4248  0.6640  0.1621
    1C        C  520   2.935   4.374   3.742  0.0290  0.5445  0.1538
    1C        C  521   2.997   4.412   3.863  0.2201  0.1435  0.1835
    1C        C  522   2.832   4.279   3.990 -0.0620  0.1367  0.2959
    1C        C  523   2.942   4.368   3.985  0.1362 -0.1227  0.0502
    1C        C  524   2.777   4.234   4.112  0.0027 -0.1936  0.2009
    1C        C  525   2.827   4.287   4.232  0.1303  0.0950  0.0199
    1C        C  526   2.692   4.125   4.354 -0.5546  0.2210 -0.2475
    1C        C  527   2.773   4.241   4.354  0.7130 -0.6341  0.0106
    1C        C  528   2.652   4.070   4.478 -0.6856  0.5626 -0.1363
    1C        C  529   2.683   4.137   4.598 -0.4949  0.4160 -0.1007
    1C        C  530   2.579   3.953   4.723 -0.0117  0.0919  0.4315
    1C        C  531   2.634   4.084   4.719 -0.0336  0.0905 -0.0519
    1C        C  532   2.542   3.894   4.846  0.0458 -0.1357  0.3406
    1C        C  533   2.525   3.989   4.952  0.0977  0.3463 -0.0853
    1C        C  534   3.612   4.548   2.036  0.0057 -0.3940 -0.3253
    1C        C  535   3.747   4.512   2.039  0.2398  0.5027  0.0912
    1C        C  536   3.532   4.529   2.153  0.1548  0.4253 -0.0833
    1C        C  537   3.602   4.509   2.275 -0.0381 -0.3271 -0.0901
    1C        C  538   3.388   4.505   2.395 -0.0054  0.5596  0.2547
    1C        C  539   3.529   4.517   2.395  0.0253  0.2017 -0.0852
    1C        C  540   3.316   4.507   2.516 -0.1193  0.6512  0.1819
    1C        C  541   3.387   4.520   2.637 -0.0464  0.7638  0.1228
    1C        C  542   3.180   4.474   2.760  0.1120 -0.2268  0.3050
    1C        C  543   3.317   4.510   2.759 -0.1210  0.6556  0.0669
    1C        C  544   3.117   4.455   2.885  0.0877 -0.1550  0.2977
    1C        C  545   3.182   4.491   3.005  0.0418  0.1415  0.2278
    1C        C  546   2.994   4.387   3.130 -0.1795  0.0591  0.2960
    1C        C  547   3.115   4.460   3.126 -0.0383 -0.1905  0.0943
    1C        C  548   2.937   4.349   3.253 -0.3095 -0.3647  0.1042
    1C        C  549   2.994   4.396   3.374 -0.1283  0.0272 -0.1361
    1C        C  550   2.822   4.279   3.501 -0.0517 -0.0259  0.4861
    1C        C  551   2.932   4.369   3.497  0.0917 -0.2218 -0.0801
    1C        C  552   2.771   4.235   3.625 -0.0516  0.0059  0.4953
    1C        C  553   2.827   4.282   3.745 -0.0542  0.6475  0.2448
    1C        C  554   2.693   4.119   3.869  0.2374  0.2077 -0.5089
    1C        C  555   2.782   4.229   3.868  0.0057  0.4032  0.1596
    1C        C  556   2.647   4.064   3.991 -0.0870  0.2388 -0.6211
    1C        C  557   2.690   4.123   4.112  0.0478 -0.2331 -0.4409
    1C        C  558   2.598   3.932   4.239  0.1425  0.0602  0.0121
    1C        C  559   2.653   4.062   4.234 -0.4660  0.3075 -0.3220
    1C        C  560   2.572   3.869   4.362 -0.1109  0.4957  0.1804
    1C        C  561   2.595   3.941   4.481 -0.4288  0.4583  0.2679
    1C        C  562   2.531   3.742   4.610  0.0317  0.2950 -0.1429
    1C        C  563   2.560   3.880   4.604 -0.1767  0.3593  0.2934
    1C        C  564   2.521   3.673   4.732 -0.0291  0.4830 -0.0402
    1C        C  565   2.522   3.752   4.850 -0.1359 -0.1092  0.3653
    1C        C  566   2.531   3.543   4.973  0.0671  0.1729 -0.4146
    1C        C  567   2.516   3.682   4.971  0.2687  0.2144  0.5751
    1C        C  568   3.323   4.466   2.038 -0.2590  0.2903  0.3510
    1C        C  569   3.394   4.496   2.155  0.1572  0.4295  0.0647
    1C        C  570   3.178   4.464   2.274  0.2972  0.4464 -0.4299
    1C        C  571   3.316   4.499   2.274  0.2336  0.6983  0.1059
    1C        C  572   3.106   4.450   2.395  0.1848  0.4985 -0.4940
    1C        C  573   3.178   4.473   2.514 -0.0993  0.6072 -0.3468
    1C        C  574   2.986   4.392   2.644  0.4529  0.6157  0.4179
    1C        C  575   3.113   4.454   2.638  0.5826  0.2890 -0.0370
    1C        C  576   2.927   4.352   2.766  0.1752  0.2818  0.1686
    1C        C  577   2.989   4.396   2.886 -0.0889  0.2434  0.3115
    1C        C  578   2.816   4.274   3.010 -0.1346  0.0263  0.1758
    1C        C  579   2.929   4.358   3.008  0.1051 -0.2995  0.2326
    1C        C  580   2.767   4.223   3.132 -0.4102  0.1193  0.1010
    1C        C  581   2.826   4.262   3.254 -0.4978 -0.1210  0.2169
    1C        C  582   2.693   4.108   3.379 -0.2116  0.0859 -0.0366
    1C        C  583   2.775   4.223   3.380  0.1828 -0.1948  0.4736
    1C        C  584   2.656   4.055   3.505 -0.0176 -0.3329 -0.1529
    1C        C  585   2.687   4.121   3.626  0.0059 -0.0501 -0.3138
    1C        C  586   2.593   3.932   3.752  0.0454  0.0192 -0.1186
    1C        C  587   2.651   4.061   3.748 -0.2980  0.1654 -0.3000
    1C        C  588   2.571   3.864   3.874  0.5165 -0.1019 -0.0992
    1C        C  589   2.596   3.933   3.994  0.0425  0.2024 -0.1715
    1C        C  590   2.544   3.727   4.120 -0.8755  0.5443 -0.2085
    1C        C  591   2.582   3.863   4.116 -0.1278  0.3439 -0.1119
    1C        C  592   2.528   3.663   4.245 -0.2028  0.4403 -0.1672
    1C        C  593   2.538   3.732   4.368  0.2114  0.3988 -0.1765
    1C        C  594   2.507   3.526   4.491  0.3647  0.3730  0.3623
    1C        C  595   2.516   3.667   4.491  0.0236  0.3978 -0.2079
    1C        C  596   2.511   3.457   4.614  0.8436 -0.0086  0.1433
    1C        C  597   2.516   3.531   4.735  0.3528  0.4645 -0.1172
    1C        C  598   2.532   3.322   4.855 -0.4386 -0.0187  0.1020
    1C        C  599   2.523   3.462   4.858  0.2288  0.0440 -0.3375
    1C        C  600   2.532   3.245   4.972  0.2092  0.0323  0.1442
    1C        C  601   3.188   4.437   2.036 -0.2343  0.2010 -0.1814
    1C        C  602   2.977   4.385   2.154  0.1569 -0.4831 -0.1847
    1C        C  603   3.109   4.439   2.152 -0.1732  0.3413 -0.1435
    1C        C  604   2.920   4.350   2.279  0.1505  0.4667  0.0792
    1C        C  605   2.981   4.385   2.402  0.3429  0.2576  0.0406
    1C        C  606   2.816   4.259   2.526  1.2574  0.1977  0.3336
    1C        C  607   2.920   4.355   2.526  0.4312  1.0945  0.2863
    1C        C  608   2.769   4.206   2.648  0.8080 -0.3102 -0.0597
    1C        C  609   2.824   4.256   2.768  0.8332 -0.4364 -0.0246
    1C        C  610   2.684   4.101   2.893  0.0501  0.3107 -0.1286
    1C        C  611   2.766   4.216   2.891  0.4070  0.0553 -0.0636
    1C        C  612   2.647   4.045   3.017 -0.3254  0.2817 -0.2549
    1C        C  613   2.682   4.111   3.137 -0.2145 -0.0379 -0.1110
    1C        C  614   2.590   3.920   3.262  0.1244 -0.0481  0.1673
    1C        C  615   2.648   4.049   3.259 -0.2267  0.1086 -0.0407
    1C        C  616   2.574   3.857   3.387 -0.1932 -0.5183 -0.1060
    1C        C  617   2.602   3.925   3.508 -0.3114 -0.2137 -0.2502
    1C        C  618   2.539   3.724   3.631  0.3400 -0.1558  0.0688
    1C        C  619   2.582   3.859   3.631 -0.3108  0.0555 -0.1072
    1C        C  620   2.516   3.659   3.754  0.2153 -0.1893  0.0257
    1C        C  621   2.533   3.728   3.876  0.2579 -0.0287 -0.0737
    1C        C  622   2.515   3.517   4.003  0.8171 -0.0279  0.5487
    1C        C  623   2.526   3.658   3.998  0.0544  0.0179 -0.0614
    1C        C  624   2.509   3.449   4.126  0.1118  0.1336  0.6110
    1C        C  625   2.512   3.523   4.247  0.1700  0.4041  0.4448
    1C        C  626   2.537   3.315   4.372  0.4888  0.2576 -0.0953
    1C        C  627   2.510   3.454   4.370  0.7025  0.3107  0.4043
    1C        C  628   2.549   3.246   4.494  0.5854  0.4546  0.0106
    1C        C  629   2.532   3.318   4.614  1.2825  0.0523  0.3611
    1C        C  630   2.596   3.114   4.741  0.5616 -0.2226  0.0270
    1C        C  631   2.547   3.248   4.736  0.6473 -0.1760  0.3177
    1C        C  632   2.618   3.043   4.863  0.6380  0.1185  0.2172
    1C        C  633   2.562   3.108   4.977  0.4202  0.0762  0.1381
    1C        C  634   2.775   4.298   2.053  0.4678 -0.5074  0.3164
    1C        C  635   2.886   4.382   2.043  0.0525 -0.0038 -0.1132
    1C        C  636   2.740   4.223   2.166  0.1978  0.0611  0.6137
    1C        C  637   2.805   4.267   2.283  0.2811  0.3074  0.4730
    1C        C  638   2.670   4.103   2.405  1.3049 -0.3137  0.1105
    1C        C  639   2.759   4.212   2.405  0.8683  0.0468  0.5788
    1C        C  640   2.631   4.042   2.527  0.8212 -0.1756  0.0267
    1C        C  641   2.681   4.096   2.648  0.8118 -0.3096  0.0874
    1C        C  642   2.582   3.914   2.773  0.6972 -0.2355  0.0351
    1C        C  643   2.642   4.042   2.772 -0.0415  0.1128  0.0020
    1C        C  644   2.558   3.851   2.897  0.2102  0.0111  0.0699
    1C        C  645   2.589   3.916   3.018  0.2184  0.0347  0.0555
    1C        C  646   2.524   3.717   3.143  0.1608 -0.0102 -0.2663
    1C        C  647   2.558   3.854   3.141  0.5758 -0.1045  0.0776
    1C        C  648   2.512   3.652   3.267  0.0488 -0.0526 -0.2972
    1C        C  649   2.528   3.723   3.388 -0.8883 -0.2836 -0.0217
    1C        C  650   2.517   3.512   3.513  0.2684 -0.1116  0.4061
    1C        C  651   2.519   3.654   3.510 -0.2351 -0.1046  0.1320
    1C        C  652   2.514   3.445   3.637  0.7436 -0.1430  0.3997
    1C        C  653   2.503   3.518   3.757  0.1895 -0.1766  0.3679
    1C        C  654   2.527   3.308   3.884  0.2657 -0.0060 -0.6100
    1C        C  655   2.511   3.448   3.880  0.7309  0.0905  0.4852
    1C        C  656   2.544   3.240   4.006  0.5986  0.7377 -0.2319
    1C        C  657   2.532   3.310   4.128  0.4368  0.1777  0.0825
    1C        C  658   2.599   3.111   4.255  0.6507  0.1755 -0.0560
    1C        C  659   2.549   3.243   4.251  0.2112  0.0115  0.0231
    1C        C  660   2.630   3.048   4.377 -0.1003 -0.2815 -0.0928
    1C        C  661   2.599   3.114   4.498  0.3350  0.3467 -0.3134
    1C        C  662   2.706   2.932   4.621  0.6684  0.5719 -0.1263
    1C        C  663   2.628   3.049   4.620  0.1420  0.2235 -0.3297
    1C        C  664   2.740   2.865   4.741  0.3182  0.2870 -0.1818
    1C        C  665   2.695   2.923   4.863  0.6402  0.1179  0.0187
    1C        C  666   2.746   2.864   4.979  0.3870 -0.3318 -0.0979
    1C        C  667   2.673   4.015   2.049  0.0656 -0.1598  0.2785
    1C        C  668   2.684   4.093   2.165  0.7166 -0.1611  0.2174
    1C        C  669   2.592   3.900   2.292  0.5682 -0.1098  0.6215
    1C        C  670   2.642   4.033   2.286  0.5402 -0.1204  0.1736
    1C        C  671   2.556   3.837   2.413  0.1809 -0.2254  0.4452
    1C        C  672   2.574   3.913   2.531  0.6180 -0.0778  0.2830
    1C        C  673   2.511   3.711   2.656  0.5730 -0.3124  0.1592
    1C        C  674   2.549   3.847   2.653  0.3894 -0.2619  0.1356
    1C        C  675   2.496   3.642   2.779 -0.5855 -0.0730  0.1638
    1C        C  676   2.518   3.715   2.898  0.3413 -0.0294 -0.0289
    1C        C  677   2.504   3.506   3.024 -0.4384 -0.1709 -0.1694
    1C        C  678   2.511   3.647   3.021 -0.1607 -0.1812 -0.1376
    1C        C  679   2.505   3.436   3.147  0.1037  0.3347  0.1205
    1C        C  680   2.501   3.511   3.267  0.0815 -0.0638  0.3746
    1C        C  681   2.526   3.303   3.394 -0.1609 -0.2377 -0.1293
    1C        C  682   2.508   3.443   3.390  0.9703 -0.0691  0.3294
    1C        C  683   2.540   3.233   3.516  0.1470 -0.4902 -0.3067
    1C        C  684   2.529   3.305   3.637  0.2803 -0.1979 -0.4649
    1C        C  685   2.592   3.107   3.765  0.1052 -0.2372  0.1319
    1C        C  686   2.544   3.240   3.762 -0.1664 -0.3454 -0.4847
    1C        C  687   2.624   3.045   3.887  0.5929  0.0297  0.1430
    1C        C  688   2.598   3.109   4.010  0.1719  0.5574 -0.2181
    1C        C  689   2.705   2.928   4.133  0.3980  0.5213  0.0820
    1C        C  690   2.633   3.049   4.133  0.1477  0.3739 -0.2999
    1C        C  691   2.752   2.871   4.254  0.6465  0.1703 -0.1733
    1C        C  692   2.711   2.932   4.375  0.0958 -0.1450 -0.1944
    1C        C  693   2.755   2.880   4.499 -0.0316 -0.1048 -0.1312
    1C        C  694   2.633   3.880   2.053 -0.0069 -0.1317  0.5124
    1C        C  695   2.529   3.696   2.173 -0.1161  0.0633 -0.1080
    1C        C  696   2.583   3.826   2.172 -0.0560  0.0458  0.5714
    1C        C  697   2.504   3.629   2.295 -0.6178  0.2112 -0.1281
    1C        C  698   2.512   3.703   2.415 -0.0219 -0.1645  0.0671
    1C        C  699   2.475   3.497   2.542  0.1488 -0.1025  0.0983
    1C        C  700   2.491   3.637   2.538 -0.0348 -0.0800  0.1110
    1C        C  701   2.486   3.426   2.664 -0.3463 -0.0485  0.1788
    1C        C  702   2.498   3.501   2.783 -0.2834 -0.0707  0.1893
    1C        C  703   2.518   3.289   2.905  0.4084 -0.3427 -0.0008
    1C        C  704   2.503   3.429   2.905 -0.5975 -0.4342 -0.0053
    1C        C  705   2.538   3.223   3.029  0.5319  0.0943  0.2182
    1C        C  706   2.530   3.297   3.149 -0.6907  0.1803  0.1082
    1C        C  707   2.594   3.100   3.276 -0.5822 -0.3308  0.0127
    1C        C  708   2.546   3.232   3.274 -0.4626 -0.2854 -0.1550
    1C        C  709   2.620   3.035   3.399 -0.1418 -0.7440 -0.2937
    1C        C  710   2.588   3.100   3.520  0.1161 -0.5043 -0.3517
    1C        C  711   2.702   2.926   3.644  0.1803  0.1598  0.0285
    1C        C  712   2.618   3.039   3.643  0.0548  0.0665 -0.0510
    1C        C  713   2.748   2.873   3.767  0.1023  0.0418  0.0071
    1C        C  714   2.702   2.927   3.889 -0.1718 -0.4778  0.1330
    1C        C  715   2.747   2.872   4.010  0.1994  0.0388  0.2329
    1C        C  716   2.447   3.491   2.061  0.2042 -0.2285 -0.0075
    1C        C  717   2.496   3.622   2.059  0.5226 -0.3474 -0.0290
    1C        C  718   2.459   3.412   2.180 -0.4596 -0.0869  0.1532
    1C        C  719   2.477   3.489   2.298 -0.1182  0.1147 -0.0269
    1C        C  720   2.503   3.283   2.423  0.3605  0.1637  0.2212
    1C        C  721   2.476   3.421   2.422  0.0069  0.0989 -0.0325
    1C        C  722   2.527   3.214   2.544 -0.2072 -0.0291  0.2334
    1C        C  723   2.507   3.287   2.664 -0.3837 -0.0580  0.2267
    1C        C  724   2.574   3.084   2.788 -0.0066 -0.3984 -0.1665
    1C        C  725   2.519   3.215   2.785  0.0357 -0.3715  0.0055
    1C        C  726   2.605   3.020   2.910 -0.0088  0.0386  0.0731
    1C        C  727   2.578   3.088   3.031 -0.0931 -0.1006  0.1390
    1C        C  728   2.697   2.916   3.155 -0.5296 -0.5740  0.1607
    1C        C  729   2.616   3.032   3.155 -0.1523 -0.3037  0.0704
    1C        C  730   2.744   2.865   3.279  0.6566 -0.0270 -0.0503
    1C        C  731   2.698   2.917   3.402 -0.1581 -0.7521 -0.0462
    1C        C  732   2.747   2.867   3.524  0.1981 -0.0097  0.1176
    1C        C  733   2.491   3.190   2.068 -0.2814 -0.0072 -0.0928
    1C        C  734   2.485   3.272   2.182 -0.7402 -0.1420 -0.0161
    1C        C  735   2.571   3.076   2.302 -1.2673 -0.1714  0.0959
    1C        C  736   2.519   3.208   2.304  0.1385  0.4061  0.0350
    1C        C  737   2.612   3.017   2.423 -0.1854 -0.2307 -0.2811
    1C        C  738   2.579   3.083   2.544 -0.0354  0.0347 -0.3791
    1C        C  739   2.692   2.907   2.666  0.2689  0.1834  0.3012
    1C        C  740   2.611   3.022   2.667  0.0787  0.0646 -0.3867
    1C        C  741   2.734   2.850   2.789 -0.2950 -0.7809  0.0619
    1C        C  742   2.692   2.909   2.910 -0.5239 -0.3725 -0.2079
    1C        C  743   2.741   2.861   3.033 -0.2630  0.1766 -0.0919
    1C        C  744   2.546   3.062   2.066 -0.2132  0.0166  0.2299
    1C        C  745   2.681   2.890   2.183 -0.0824  0.0553 -0.0681
    1C        C  746   2.597   3.003   2.183 -0.0934  0.0515  0.1982
    1C        C  747   2.730   2.835   2.303 -0.1800  0.0009 -0.0478
    1C        C  748   2.685   2.896   2.422 -0.8930 -0.6746  0.0438
    1C        C  749   2.738   2.851   2.545 -0.4283  0.0091  0.1096
    1C        C  750   2.736   2.833   2.067  0.2128  0.3328 -0.0699
    1C        C  751   3.633   2.284   2.003  0.0182  0.2345 -0.0428
    1C        O  752   3.694   2.196   2.069 -0.8131 -0.0576  0.3516
    1C        O  753   3.639   2.269   1.864 -0.8160 -0.3266 -0.0251
    1C        C  754   4.605   3.042   1.959 -0.5239 -0.3577 -0.1269
    1C        O  755   4.574   3.040   1.837 -0.7864  0.0227 -0.0693
    1C        O  756   4.721   2.969   1.984 -0.3748  0.1481  0.6870
    1C        C  757   4.442   4.215   1.961 -0.2752 -0.1178  0.0965
    1C        O  758   4.524   4.289   2.023  0.0392 -0.3925  0.0109
    1C        O  759   4.382   4.288   1.858 -0.0515 -0.4064 -0.2386
    1C        C  760   3.589   4.645   1.926 -0.2682  0.2435  0.2868
    1C        O  761   3.637   4.760   1.943  0.6789 -0.1270  0.1893
    1C        O  762   3.555   4.595   1.800 -0.5495  0.4700  0.2746
    1C        C  763   2.854   4.508   1.972 -0.0994 -0.1502 -0.3049
    1C        O  764   2.928   4.553   1.881  0.3565 -0.5741 -0.1461
    1C        O  765   2.761   4.601   2.020  0.3420 -0.0270  0.3138
    1C        C  766   2.326   3.479   1.977  0.2230  0.0383 -0.0696
    1C        O  767   2.324   3.429   1.861  0.0051  0.0370 -0.0649
    1C        O  768   2.196   3.501   2.024  0.3608 -0.3079  0.4818
    1C        C  769   4.681   3.599   5.062 -0.1645  0.0081  0.4813
    1C        O  770   4.663   3.636   5.181  0.2414 -0.4044  0.6730
    1C        O  771   4.809   3.544   5.048  0.0112  0.2996  0.8922
    1C        C  772   4.247   4.436   5.054 -0.2690  0.2707 -0.0350
    1C        O  773   4.248   4.375   5.165 -0.7006 -0.2226 -0.2985
    1C        O  774   4.379   4.470   5.020  0.1641 -1.0162  0.2760
    1C        C  775   4.150   2.494   5.048  0.4127  0.2465  0.0242
    1C        O  776   4.211   2.399   4.991 -0.1447  0.0720 -0.2841
    1C        O  777   4.120   2.442   5.175 -0.0551  0.4459 -0.0039
    1C        C  778   2.907   4.507   5.076 -0.1003  0.4476  0.1738
    1C        O  779   2.839   4.612   5.085 -0.6811  0.0690  0.2760
    1C        O  780   2.939   4.445   5.197  0.0280  0.3068  0.0695
    1C        C  781   2.472   3.027   5.062 -0.0066  0.3920 -0.0064
    1C        O  782   2.348   3.014   5.046  0.0466 -0.0205 -0.0895
    1C        O  783   2.517   3.004   5.192 -0.4246 -0.1392  0.0500
    1C        C  784   2.407   3.980   5.040 -0.0218 -0.0611 -0.2865
    1C        O  785   2.291   3.964   4.993 -0.5706  0.9902  0.6590
    1C        O  786   2.414   3.976   5.179  0.0786 -0.4651 -0.3031
    1C        C  787   2.954   2.406   1.998  0.3564  0.1059  0.0024
    1C        O  788   2.991   2.387   1.879  0.2450 -0.0832 -0.0021
    1C        O  789   2.910   2.285   2.051 -0.1220  0.1433 -0.3122
    1C        C  790   3.177   2.362   5.055 -0.8317 -0.1715  0.4009
    1C        O  791   3.163   2.242   5.019  0.0432 -0.0533 -0.3807
    1C        O  792   3.209   2.391   5.188  0.2114  0.7389 -0.0297
    1C        H  793   4.232   3.020   5.039 -0.5068  0.7210 -0.2594
    1C        H  794   4.178   2.800   5.068 -0.5975 -1.2243 -0.8385
    1C        H  795   4.489   3.128   5.053  1.0177 -0.5770 -0.3445
    1C        H  796   4.500   3.369   5.055  0.0560  0.8221 -0.4865
    1C        H  797   4.557   3.807   5.039  1.1669  1.4584 -1.3062
    1C        H  798   4.342   3.932   5.025 -0.1205 -0.4790 -0.4864
    1C        H  799   4.349   4.192   5.032 -2.0042  0.1743  0.0855
    1C        H  800   4.016   4.523   5.026  0.7485  0.2221  0.6296
    1C        H  801   3.803   4.533   5.039 -0.3672  2.2276  0.8614
    1C        H  802   3.591   4.648   5.024  1.2006  1.5982 -1.1539
    1C        H  803   3.383   4.508   5.044  0.2064  1.1725  0.1444
    1C        H  804   3.163   4.426   5.033  1.6456 -1.7504 -0.8891
    1C        H  805   3.869   2.518   5.065  0.0875  0.3972  0.3203
    1C        H  806   3.670   2.450   5.070 -0.8055 -0.8517 -0.0532
    1C        H  807   2.974   2.488   5.011 -1.3408  2.7895  2.5428
    1C        H  808   3.443   2.523   5.060 -2.1251 -1.0599 -0.2762
    1C        H  809   2.896   2.752   5.069  1.6966  3.0675 -0.8226
    1C        H  810   2.707   2.891   5.075  0.6005 -1.0893  0.2112
    1C        H  811   2.527   3.294   5.067 -3.0928  0.4397 -0.1185
    1C        H  812   2.491   3.502   5.063  1.1382  0.0052  0.0011
    1C        H  813   2.454   3.728   5.044 -0.4384  0.3877 -0.1189
    1C        H  814   2.568   4.185   5.026 -1.4724  0.3187  0.1353
    1C        H  815   2.731   4.328   5.035 -0.0531  0.7606 -0.8193
    1C        H  816   2.723   2.881   1.973  0.3233 -0.0286 -0.2713
    1C        H  817   2.808   2.660   1.980 -1.4101  0.9388 -1.0631
    1C        H  818   3.217   2.470   1.978 -0.0666  0.9481 -0.1373
    1C        H  819   3.411   2.408   1.981 -0.5899 -0.4333  0.3334
    1C        H  820   3.837   2.515   1.964 -1.6872  0.5410  0.5682
    1C        H  821   4.028   2.661   1.963 -1.4201  0.9638 -0.1022
    1C        H  822   4.210   2.755   1.961  0.7571  0.4107 -0.5140
    1C        H  823   4.372   2.921   1.963  1.8149  0.4528  0.7178
    1C        H  824   4.535   3.309   1.959  0.7005  2.5932  1.4028
    1C        H  825   4.482   3.509   1.957  0.0741  1.1595 -1.0196
    1C        H  826   4.548   3.746   1.958  0.4868 -1.9502 -1.2920
    1C        H  827   3.798   4.515   1.945 -1.1775 -0.1492 -0.7277
    1C        H  828   3.933   4.338   1.946  0.0662  1.4647 -0.0002
    1C        H  829   4.158   4.251   1.942 -0.1082 -1.6107 -0.1429
    1C        H  830   4.507   3.967   1.966  0.0235 -1.3596  0.5091
    1C        H  831   2.673   3.811   1.982  1.8581 -1.2245  2.5149
    1C        H  832   2.683   4.060   1.953 -0.7115  0.1395  0.3327
    1C        H  833   2.687   4.328   2.001  0.1432 -0.7491  0.7150
    1C        H  834   3.358   4.503   1.944 -0.2241  0.4266  0.4188
    1C        H  835   3.145   4.398   1.945  0.5265 -0.5335 -0.2345
    1C        H  836   2.510   3.000   1.987 -3.1447  0.8574  0.7743
    1C        H  837   2.418   3.216   1.994 -0.0414  1.3298  0.1197
    1C        H  838   2.505   3.665   1.962  1.0922 -1.8786 -0.6966
    2V3OU   H29  839   2.796   3.541   2.417 -0.0304 -1.9382 -1.0190
    2V3OU   C27  840   2.785   3.497   2.520  0.4573  0.1416 -0.0255
    2V3OU   H27  841   2.737   3.564   2.596  0.7193 -1.2226  1.3850
    2V3OU   H28  842   2.735   3.398   2.509 -1.9732  0.7955  3.4756
    2V3OU   O11  843   2.915   3.468   2.572  0.3293  0.3982  0.4471
    2V3OU   C15  844   2.925   3.395   2.688 -0.0772 -0.4482 -0.0374
    2V3OU   C13  845   3.055   3.364   2.734  0.1109 -0.2486 -0.4314
    2V3OU   C14  846   3.080   3.259   2.823  0.0945 -0.0263 -0.1653
    2V3OU   C16  847   2.979   3.177   2.872  0.0457  0.4449  0.5419
    2V3OU    H6  848   2.991   3.089   2.938 -0.1838 -0.6994 -0.8880
    2V3OU   C12  849   3.213   3.221   2.877  0.1066  0.2165 -0.0248
    2V3OU    O2  850   3.230   3.124   2.954 -0.3011  0.1142 -0.0610
    2V3OU   C10  851   3.321   3.300   2.817  0.1157 -0.2584 -0.6433
    2V3OU    C8  852   3.454   3.265   2.840  0.0440 -0.0382  0.1136
    2V3OU   O10  853   3.483   3.144   2.895 -0.0773 -0.3206 -0.4407
    2V3OU   H26  854   3.398   3.111   2.930 -0.3310 -1.5700 -2.1199
    2V3OU    C6  855   3.563   3.339   2.785 -0.0933 -0.2332 -0.4197
    2V3OU    C5  856   3.535   3.456   2.716 -0.2117 -0.1602 -0.2428
    2V3OU    C4  857   3.702   3.284   2.784 -0.0909 -0.2286 -0.0843
    2V3OU    H4  858   3.718   3.220   2.876  2.3456 -0.1955 -0.4167
    2V3OU    H5  859   3.701   3.225   2.688 -0.3597  1.6183 -1.2676
    2V3OU    C2  860   3.815   3.387   2.784  0.1050 -0.4451  0.2390
    2V3OU    O6  861   3.803   3.470   2.900  0.3303 -0.3046  0.1634
    2V3OU   H21  862   3.755   3.546   2.864  2.3903 -0.3397 -3.0573
    2V3OU    C3  863   3.782   3.485   2.671  0.1290  0.3431  0.9090
    2V3OU    H2  864   3.854   3.570   2.663 -1.2842  1.4769 -0.3070
    2V3OU    H3  865   3.785   3.430   2.574  1.6875 -2.2385  2.3189
    2V3OU   C25  866   3.948   3.315   2.761  0.1614 -0.2459 -0.0582
    2V3OU    O7  867   3.999   3.300   2.650  0.1826  0.3569 -0.1312
    2V3OU   C26  868   4.021   3.282   2.891 -0.5992  0.1304  0.4722
    2V3OU   H22  869   4.051   3.378   2.940 -0.7092 -0.4413  1.6854
    2V3OU   H23  870   4.117   3.230   2.866  0.1676  1.5244  0.3885
    2V3OU    O8  871   3.940   3.205   2.977  0.1560 -0.8445  0.3372
    2V3OU   H24  872   3.927   3.264   3.053 -0.2285 -0.6446  0.1204
    2V3OU    C1  873   3.646   3.552   2.683 -0.1731 -0.1114  0.0331
    2V3OU    H1  874   3.624   3.605   2.585  0.1690  0.0879  0.0646
    2V3OU    O3  875   3.656   3.650   2.786 -0.1450 -0.1762  0.0903
    2V3OU   C19  876   3.611   3.785   2.776 -0.3185 -0.2308  0.1425
    2V3OU    H9  877   3.513   3.799   2.721  0.9123  2.6565 -1.5382
    2V3OU    O4  878   3.705   3.852   2.695  0.0246 -0.2764  0.4992
    2V3OU   C20  879   3.838   3.870   2.743  0.1418  0.3015 -0.0314
    2V3OU   H10  880   3.887   3.770   2.758 -0.7105 -0.2614 -0.8870
    2V3OU   C24  881   3.603   3.852   2.913  0.0963 -0.1030  0.1043
    2V3OU   H16  882   3.539   3.787   2.978  0.2717 -0.3361  0.0447
    2V3OU   H17  883   3.558   3.953   2.899 -0.8710 -0.5273  0.1085
    2V3OU   C23  884   3.744   3.870   2.971  0.2949 -0.7654 -0.1681
    2V3OU   H15  885   3.786   3.767   2.995  2.1775  0.3595  1.6579
    2V3OU    N1  886   3.735   3.952   3.090  0.1967 -0.6713 -0.2407
    2V3OU   H19  887   3.803   3.926   3.158 -1.7549  1.8023  2.9300
    2V3OU   H20  888   3.646   3.926   3.128  0.3009  0.8296  1.1264
    2V3OU   C21  889   3.848   3.940   2.879 -0.1308  0.1704  0.0575
    2V3OU   H11  890   3.950   3.913   2.920 -0.5729  0.5829  1.5047
    2V3OU    O5  891   3.832   4.081   2.888  0.2109  0.1482  1.0937
    2V3OU   H18  892   3.781   4.093   2.970  0.6377 -0.8332  1.5202
    2V3OU   C22  893   3.907   3.943   2.629  0.6274  0.2164  0.2044
    2V3OU   H12  894   3.866   4.047   2.617  0.5812  0.0262 -1.6062
    2V3OU   H13  895   3.893   3.885   2.534  0.4309 -0.9431  0.9202
    2V3OU   H14  896   4.014   3.960   2.656 -0.0012  0.9959  2.4850
    2V3OU   C11  897   3.158   3.467   2.715 -0.2092  0.2338  0.3793
    2V3OU    O1  898   3.130   3.582   2.676 -0.1306 -0.0161 -0.4382
    2V3OU    C9  899   3.294   3.413   2.736 -0.1702  0.2507  0.1528
    2V3OU    C7  900   3.399   3.491   2.688 -0.1978  0.4932  0.4936
    2V3OU    O9  901   3.375   3.604   2.612 -0.0177  0.4866  0.4293
    2V3OU   H25  902   3.282   3.629   2.619 -0.6457 -1.9164  1.8111
    2V3OU   C17  903   2.823   3.316   2.746 -0.2302 -0.3651 -0.1935
    2V3OU    H7  904   2.724   3.357   2.760  0.0436 -0.0693  0.9161
    2V3OU   C18  905   2.850   3.210   2.832  0.0658 -0.1986 -0.0808
    2V3OU    H8  906   2.779   3.183   2.912  0.5159  1.0435  0.7726
    3SOL     OW  907   3.802   1.842   6.344  0.2840  0.1229  0.0634
    3SOL    HW1  908   3.821   1.748   6.371 -1.3169 -0.7593 -1.6760
    3SOL    HW2  909   3.768   1.893   6.423  0.4136 -0.9682  0.8457
    4SOL     OW  910   0.054   5.912   3.894  0.3528 -0.2987  0.5858
    4SOL    HW1  911   0.141   5.959   3.883  0.1941  0.5523  2.5514
    4SOL    HW2  912  -0.021   5.978   3.883  0.0710 -0.4548  1.4428
    5SOL     OW  913   4.784   0.906   1.754 -0.2638  0.4979  0.0988
    5SOL    HW1  914   4.847   0.926   1.679 -1.1693 -0.5346 -0.9875
    5SOL    HW2  915   4.757   0.991   1.800 -0.3156  1.2467 -1.2714
    6SOL     OW  916   6.387   5.232   2.685 -0.0596  0.1599  0.2735
    6SOL    HW1  917   6.427   5.297   2.620 -0.6123 -0.9133 -1.1895
    6SOL    HW2  918   6.320   5.175   2.638 -1.4969  0.2486  2.1105
    7SOL     OW  919   0.609   3.453   2.217 -0.3631  0.1965 -0.1497
    7SOL    HW1  920   0.556   3.383   2.169  0.3437  1.1456 -2.4183
    7SOL    HW2  921   0.695   3.414   2.250 -1.5971 -0.9011  2.0087
    8SOL     OW  922   3.572   0.489   0.826 -0.2240  0.0171 -0.6801
    8SOL    HW1  923   3.518   0.505   0.909 -1.7825 -0.8090 -1.5027
    8SOL    HW2  924   3.614   0.398   0.831  1.1088  0.6210 -0.0825
    9SOL     OW  925   6.730   1.956   5.214  0.1256 -0.4993  0.2088
    9SOL    HW1  926   6.764   2.019   5.284 -0.0274 -0.9783  0.7128
    9SOL    HW2  927   6.746   1.862   5.242 -0.5368 -0.7075 -0.0979
   10SOL     OW  928   2.679   5.323   6.469 -0.0290  0.2445 -0.0492
   10SOL    HW1  929   2.686   5.223   6.476 -0.9073  0.2590  1.4379
   10SOL    HW2  930   2.718   5.365   6.551 -1.0030  1.0444  0.0264
   11SOL     OW  931   1.608   1.270   5.787 -0.7700  0.2386 -0.1024
   11SOL    HW1  932   1.562   1.318   5.712 -0.3951  0.3581 -0.2594
   11SOL    HW2  933   1.675   1.331   5.829  0.2100 -0.3618 -0.7553
   12SOL     OW  934   2.422   4.828   1.248  0.0123 -0.1946 -0.0288
   12SOL    HW1  935   2.371   4.779   1.177 -0.3524 -2.3455  1.6102
   12SOL    HW2  936   2.440   4.921   1.217 -1.2285 -0.6448 -2.3942
   13SOL     OW  937   3.430   6.180   3.724  0.3871  0.3544  0.4103
   13SOL    HW1  938   3.475   6.094   3.748  2.4404  1.3593  0.3524
   13SOL    HW2  939   3.445   6.198   3.626 -1.1780  0.1516  0.1118
   14SOL     OW  940   4.611   5.377   5.228 -0.7933 -1.0178 -0.0852
   14SOL    HW1  941   4.706   5.373   5.199 -0.9086 -0.5861 -0.5300
   14SOL    HW2  942   4.606   5.395   5.326 -0.4235 -0.7892 -0.1106
   15SOL     OW  943   2.830   0.359   3.548 -0.1961  0.3948  0.3735
   15SOL    HW1  944   2.892   0.284   3.526  0.8029  1.5838 -1.0426
   15SOL    HW2  945   2.867   0.411   3.624 -0.4559 -0.0198  0.7916
   16SOL     OW  946   4.742   2.226   4.762  0.8762  0.0956  0.5964
   16SOL    HW1  947   4.779   2.189   4.847  2.8133 -0.4251 -0.3981
   16SOL    HW2  948   4.818   2.245   4.699 -0.4962  0.3679 -1.0449
   17SOL     OW  949   5.760   4.826   4.690  0.5888  0.3964 -0.0995
   17SOL    HW1  950   5.749   4.918   4.651 -2.0687  0.6059  0.9279
   17SOL    HW2  951   5.807   4.833   4.778 -1.4807  1.1415  1.0230
   18SOL     OW  952   2.289   0.890   6.615 -0.2224 -0.3698  0.0705
   18SOL    HW1  953   2.333   0.934   6.537  0.1846  0.0629  0.5332
   18SOL    HW2  954   2.319   0.935   6.699 -2.2092  0.5176  0.3545
   19SOL     OW  955   2.667   0.602   4.219 -0.6354  0.2018  0.5637
   19SOL    HW1  956   2.690   0.610   4.122 -0.7664  2.2792  0.6547
   19SOL    HW2  957   2.590   0.539   4.230 -0.0720 -0.7290 -0.5578
   20SOL     OW  958   4.543   6.723   4.158 -1.0010 -0.2357  0.2677
   20SOL    HW1  959   4.598   6.648   4.123 -0.1261  0.3650  0.3220
   20SOL    HW2  960   4.588   6.763   4.238 -0.4309  1.5840 -0.9002
   21SOL     OW  961   3.764   1.551   3.192 -0.6261  0.0008  0.4142
   21SOL    HW1  962   3.665   1.539   3.190 -0.6607  0.2232 -2.1122
   21SOL    HW2  963   3.785   1.648   3.209 -1.0917  0.9880 -3.5753
   22SOL     OW  964   1.672   0.282   0.841 -0.6746  0.0885 -0.4179
   22SOL    HW1  965   1.582   0.301   0.882  0.0254 -0.4680  1.4844
   22SOL    HW2  966   1.712   0.202   0.885  0.9281  0.5631 -0.9564
   23SOL     OW  967   6.911   0.136   4.228 -0.5577 -0.4103  0.9536
   23SOL    HW1  968   6.938   0.047   4.190  2.6582  1.1810 -0.9502
   23SOL    HW2  969   6.848   0.181   4.164  2.6785  1.0930 -1.4904
   24SOL     OW  970   4.032   6.101   2.254  0.2448  0.2458  0.2936
   24SOL    HW1  971   4.068   6.188   2.221  0.0428  0.7916  1.4508
   24SOL    HW2  972   3.955   6.118   2.315  0.7042 -0.6905  1.1641
   25SOL     OW  973   4.989   6.723   3.699 -0.6543 -0.0780 -0.0724
   25SOL    HW1  974   5.084   6.733   3.730  0.5392 -0.7854 -3.1268
   25SOL    HW2  975   4.939   6.807   3.718  0.7542  0.5323  1.0942
   26SOL     OW  976   0.961   0.906   0.377  0.0336  0.4847  0.6497
   26SOL    HW1  977   0.881   0.854   0.348 -0.5979  1.3959  0.7096
   26SOL    HW2  978   0.999   0.866   0.461  0.3336 -0.6242  0.0050
   27SOL     OW  979   0.730   2.829   1.959  0.2122  0.0589 -0.3673
   27SOL    HW1  980   0.756   2.904   1.899  0.7148 -0.4741 -0.8175
   27SOL    HW2  981   0.631   2.815   1.954  0.1134  0.6945 -0.2690
   28SOL     OW  982   2.767   2.440   5.276  0.1432  0.6572 -0.4757
   28SOL    HW1  983   2.773   2.538   5.296 -1.0474  0.5235  0.6849
   28SOL    HW2  984   2.855   2.397   5.297  0.3946  1.3371 -0.0955
   29SOL     OW  985   0.933   0.975   2.900  0.3655 -0.3671  0.4211
   29SOL    HW1  986   1.033   0.974   2.890  0.4819 -1.3392  1.4659
   29SOL    HW2  987   0.906   1.052   2.958  0.5409 -0.3307  0.4566
   30SOL     OW  988   3.161   0.678   2.932  0.4824  0.0911  0.0170
   30SOL    HW1  989   3.142   0.594   2.881 -0.4452 -0.4557  1.1998
   30SOL    HW2  990   3.173   0.754   2.869 -0.9493 -0.4960 -1.0008
   31SOL     OW  991   1.829   0.980   6.307  0.5592  0.6098 -1.0139
   31SOL    HW1  992   1.842   1.077   6.329 -0.8616  0.3645  1.2424
   31SOL    HW2  993   1.815   0.928   6.391  0.3345 -1.4233 -2.2385
   32SOL     OW  994   6.094   2.411   1.174  0.4456 -0.0767 -0.6082
   32SOL    HW1  995   6.149   2.461   1.107 -0.3420 -1.4592 -2.3718
   32SOL    HW2  996   6.143   2.328   1.202  0.2549 -0.1183 -0.3913
   33SOL     OW  997   1.052   3.969   0.902  0.4794  0.3838  0.3204
   33SOL    HW1  998   1.089   3.887   0.947 -0.6929 -0.5798 -0.4066
   33SOL    HW2  999   1.101   3.984   0.816  0.3518  0.1216  0.1988
   34SOL     OW 1000   2.335   0.962   2.578  0.2553 -0.1758  0.1838
   34SOL    HW1 1001   2.332   0.954   2.678  1.7161  1.9976  0.4703
   34SOL    HW2 1002   2.413   1.018   2.552 -1.7587  1.8337 -1.9979
   35SOL     OW 1003   3.397   1.827   6.472 -0.9954  0.4737  0.3429
   35SOL    HW1 1004   3.400   1.860   6.567 -0.7693 -0.0106  0.5095
   35SOL    HW2 1005   3.354   1.895   6.414 -0.7990  0.9351  0.7322
   36SOL     OW 1006   6.875   6.453   3.298  0.6316  0.0400  0.0090
   36SOL    HW1 1007   6.838   6.383   3.359  2.6335 -0.6564  0.5066
   36SOL    HW2 1008   6.870   6.422   3.203 -1.2895  0.5717 -0.1041
   37SOL     OW 1009   6.173   0.802   6.234  0.2311 -0.0163 -0.5878
   37SOL    HW1 1010   6.272   0.813   6.221  0.4264  0.3403  0.9631
   37SOL    HW2 1011   6.151   0.705   6.243  0.2179 -0.1997 -2.3983
   38SOL     OW 1012   6.894   6.337   0.794  0.0166  0.1144  0.5116
   38SOL    HW1 1013   6.811   6.364   0.744  0.6318  0.1571 -0.5102
   38SOL    HW2 1014   6.898   6.238   0.801  0.2336  0.0819 -0.0587
   39SOL     OW 1015   6.892   4.684   4.696  0.2291 -0.1811  0.1385
   39SOL    HW1 1016   6.958   4.704   4.769 -0.9847 -0.5134  1.3793
   39SOL    HW2 1017   6.933   4.621   4.630  1.4631  0.3706  0.3620
   40SOL     OW 1018   5.578   2.558   0.635 -0.2668  0.7962 -0.0057
   40SOL    HW1 1019   5.519   2.485   0.599 -0.0379  1.4833 -1.8928
   40SOL    HW2 1020   5.625   2.525   0.717  2.6129 -2.6301 -2.6384
   41SOL     OW 1021   0.126   5.875   3.318  0.1589 -0.2639 -0.0639
   41SOL    HW1 1022   0.124   5.873   3.218 -0.2112 -0.5900 -0.0516
   41SOL    HW2 1023   0.114   5.969   3.349 -1.4697 -0.3535 -0.3013
   42SOL     OW 1024   3.041   5.842   4.943 -0.3436 -0.0201 -0.3844
   42SOL    HW1 1025   3.126   5.894   4.939 -0.0713 -0.4012  0.2532
   42SOL    HW2 1026   2.978   5.885   5.007 -0.6891  0.3411 -0.9645
   43SOL     OW 1027   5.720   6.445   4.782  0.2116 -0.2426  0.1656
   43SOL    HW1 1028   5.811   6.471   4.751 -0.6736 -0.9143 -3.5306
   43SOL    HW2 1029   5.670   6.526   4.813  0.1179  1.3184 -3.6099
   44SOL     OW 1030   3.953   6.640   6.532 -0.0260  0.3168 -0.2504
   44SOL    HW1 1031   4.048   6.672   6.539 -0.1792  0.8171 -0.4664
   44SOL    HW2 1032   3.895   6.713   6.496 -0.9226  0.7498  1.9361
   45SOL     OW 1033   3.576   6.857   2.967  0.7333 -0.0228  0.3268
   45SOL    HW1 1034   3.622   6.848   2.879 -0.6791  0.9064 -0.5523
   45SOL    HW2 1035   3.480   6.881   2.952  0.3125 -0.4551  2.1207
   46SOL     OW 1036   6.280   3.509   2.343  0.7022 -0.0238  0.8955
   46SOL    HW1 1037   6.325   3.448   2.278  0.7740  3.1833 -2.3579
   46SOL    HW2 1038   6.184   3.482   2.352 -0.0070  0.8058 -2.6795
   47SOL     OW 1039   4.023   4.505   0.577 -0.1414  0.5658  0.5815
   47SOL    HW1 1040   4.115   4.519   0.539 -0.3294  0.6413  0.1489
   47SOL    HW2 1041   3.982   4.423   0.536 -0.4772  0.8389  0.3715
   48SOL     OW 1042   6.501   4.871   4.147  0.3095  0.0718  0.5845
   48SOL    HW1 1043   6.533   4.811   4.074 -2.5990 -1.1015  0.1354
   48SOL    HW2 1044   6.565   4.867   4.224  0.0681 -4.0443  0.7852
   49SOL     OW 1045   5.310   3.132   1.875  0.0442  0.4031  0.4871
   49SOL    HW1 1046   5.274   3.219   1.907  0.0845  0.4224  0.4804
   49SOL    HW2 1047   5.408   3.141   1.855  0.1889  0.1921  1.0790
   50SOL     OW 1048   6.492   0.952   5.961 -0.2515  0.3007 -0.1234
   50SOL    HW1 1049   6.523   1.019   5.893 -1.6202  0.3586 -0.7306
   50SOL    HW2 1050   6.531   0.863   5.938  0.6157  0.6393 -0.0142
   51SOL     OW 1051   0.680   0.699   3.498 -0.2939  0.2588 -0.3800
   51SOL    HW1 1052   0.747   0.628   3.518 -0.3878 -0.8642 -3.5425
   51SOL    HW2 1053   0.588   0.663   3.514 -0.2942  0.9121  1.3541
   52SOL     OW 1054   4.793   4.097   2.657  0.0487 -0.2289  0.2173
   52SOL    HW1 1055   4.784   4.043   2.573 -0.2532  0.7939 -0.4165
   52SOL    HW2 1056   4.828   4.038   2.730 -1.1396 -1.5336 -0.2125
   53SOL     OW 1057   4.437   6.110   2.670 -0.1866  0.5197  0.4841
   53SOL    HW1 1058   4.343   6.137   2.692 -0.0928  1.2320  0.0414
   53SOL    HW2 1059   4.461   6.027   2.721 -0.4332  1.3354  1.9868
   54SOL     OW 1060   4.377   5.784   0.661  0.2578  0.1946  0.4407
   54SOL    HW1 1061   4.382   5.847   0.739 -2.6756  0.7873  0.2893
   54SOL    HW2 1062   4.380   5.837   0.576  0.6592 -0.1635  0.2341
   55SOL     OW 1063   2.104   2.598   0.615  0.0191  0.1735  0.0777
   55SOL    HW1 1064   2.010   2.579   0.584 -0.0180 -0.7689  0.7282
   55SOL    HW2 1065   2.104   2.679   0.673 -0.4779 -0.0710  0.4327
   56SOL     OW 1066   0.523   0.274   6.952  0.1189  0.0262 -0.2190
   56SOL    HW1 1067   0.497   0.225   6.868  1.1447  1.0843 -1.1942
   56SOL    HW2 1068   0.524   0.372   6.934 -1.9695  0.4931  1.7172
   57SOL     OW 1069   6.789   1.084   0.966  0.1440 -0.8829  0.4655
   57SOL    HW1 1070   6.859   1.012   0.969 -0.1144 -1.0971  2.5334
   57SOL    HW2 1071   6.716   1.056   0.903  1.6996 -0.7900 -1.5029
   58SOL     OW 1072   6.903   2.255   6.312  0.5327 -0.1448 -0.9695
   58SOL    HW1 1073   6.809   2.269   6.343  0.7096  2.2394 -1.2779
   58SOL    HW2 1074   6.964   2.318   6.359  1.7655 -0.6767 -1.7786
   59SOL     OW 1075   0.588   2.602   6.680  0.3533 -0.2985  0.2644
   59SOL    HW1 1076   0.667   2.632   6.733  2.1880 -0.7408 -2.0526
   59SOL    HW2 1077   0.555   2.514   6.716  1.4722 -0.5416  0.7264
   60SOL     OW 1078   5.960   2.971   4.207  0.2435 -0.0154  0.3969
   60SOL    HW1 1079   5.884   2.952   4.270 -0.0960  0.3625  0.1059
   60SOL    HW2 1080   5.957   3.067   4.180  0.0401 -0.3073 -0.6517
   61SOL     OW 1081   5.670   2.931   4.899  0.1967 -0.6806  0.1770
   61SOL    HW1 1082   5.626   2.880   4.826 -0.3388  1.2752 -0.9358
   61SOL    HW2 1083   5.707   3.017   4.863 -0.3505  0.5002  2.2408
   62SOL     OW 1084   0.666   1.974   2.279 -0.9013 -0.4013  0.3518
   62SOL    HW1 1085   0.756   1.996   2.316 -0.0487 -0.2447 -1.6644
   62SOL    HW2 1086   0.667   1.881   2.241 -1.8847 -0.7522  1.1506
   63SOL     OW 1087   4.484   0.148   3.936  0.1740 -0.3007 -0.6282
   63SOL    HW1 1088   4.529   0.221   3.884 -1.1185  1.9314  1.1722
   63SOL    HW2 1089   4.419   0.100   3.878  1.2972 -0.2911 -1.9470
   64SOL     OW 1090   0.591   4.275   4.699  0.0349 -0.4916 -0.6293
   64SOL    HW1 1091   0.642   4.327   4.768  1.4780 -0.7213 -1.4919
   64SOL    HW2 1092   0.649   4.203   4.661 -0.3349  0.3035 -2.8471
   65SOL     OW 1093   0.556   5.494   0.712 -0.0543 -0.4022 -0.6701
   65SOL    HW1 1094   0.611   5.442   0.778  1.3265  1.0513 -0.6252
   65SOL    HW2 1095   0.551   5.589   0.740 -0.3516  0.0357 -2.1126
   66SOL     OW 1096   4.419   6.679   6.744 -0.3827  0.7327  0.1650
   66SOL    HW1 1097   4.434   6.763   6.795 -0.2318  0.6735  0.2187
   66SOL    HW2 1098   4.451   6.601   6.797 -1.1313  0.5748  0.4008
   67SOL     OW 1099   4.782   5.156   5.414  0.2407  0.4102 -0.5154
   67SOL    HW1 1100   4.867   5.118   5.378 -0.8403 -2.5615 -0.1950
   67SOL    HW2 1101   4.708   5.136   5.350 -0.6770  0.5493  0.4945
   68SOL     OW 1102   6.655   1.009   6.395  0.3257 -0.1308 -0.5241
   68SOL    HW1 1103   6.749   1.018   6.361  0.8895 -1.0991  0.7041
   68SOL    HW2 1104   6.656   0.991   6.493 -1.0112 -2.7112 -0.8894
   69SOL     OW 1105   0.442   5.220   6.248  0.1945 -0.0708 -0.4594
   69SOL    HW1 1106   0.531   5.206   6.206  0.5126  2.2751 -0.7315
   69SOL    HW2 1107   0.405   5.308   6.219 -0.1916  1.0951  3.0072
   70SOL     OW 1108   3.470   5.185   4.396  0.4039 -0.1163 -0.0732
   70SOL    HW1 1109   3.536   5.233   4.454 -0.4367 -0.4072  1.1465
   70SOL    HW2 1110   3.408   5.251   4.354  0.3066  0.0096  0.2634
   71SOL     OW 1111   6.561   3.175   3.939 -0.2333 -0.5551 -0.7309
   71SOL    HW1 1112   6.567   3.082   3.975  0.6790  0.1199  0.9766
   71SOL    HW2 1113   6.509   3.232   4.002  1.1420  0.6038 -0.5951
   72SOL     OW 1114   1.072   0.902   4.142 -0.3798 -0.1185  0.0111
   72SOL    HW1 1115   1.118   0.832   4.196 -0.5723 -1.1239 -1.0935
   72SOL    HW2 1116   1.013   0.957   4.202  2.0246  1.0698  1.4204
   73SOL     OW 1117   5.148   6.786   1.681  0.2087  0.8208  0.3196
   73SOL    HW1 1118   5.107   6.747   1.599 -0.5807  1.4145  0.4205
   73SOL    HW2 1119   5.248   6.778   1.675  0.1291  0.0747 -0.2900
   74SOL     OW 1120   3.672   0.076   0.358 -0.3994  0.2513  0.2347
   74SOL    HW1 1121   3.705   0.149   0.298 -0.8833  0.2651 -0.0113
   74SOL    HW2 1122   3.747   0.048   0.419  0.2869 -0.1983 -0.7813
   75SOL     OW 1123   6.655   0.466   0.557 -0.6062 -0.1333  0.1444
   75SOL    HW1 1124   6.745   0.462   0.600 -1.1461  0.5943  1.3808
   75SOL    HW2 1125   6.658   0.417   0.470  0.9169 -0.3184  0.2725
   76SOL     OW 1126   2.341   2.962   0.390  0.4339 -1.0532 -0.3025
   76SOL    HW1 1127   2.386   2.990   0.475 -0.8761 -1.1962  0.4684
   76SOL    HW2 1128   2.374   3.019   0.315  0.6801 -0.0507  0.5341
   77SOL     OW 1129   0.664   6.913   4.815  0.2377 -0.2702 -0.3028
   77SOL    HW1 1130   0.617   6.997   4.790  2.6575  0.7638 -1.8317
   77SOL    HW2 1131   0.624   6.836   4.765  1.4914  0.9392 -3.4738
   78SOL     OW 1132   6.910   0.743   6.702 -0.1741 -0.2026 -0.0264
   78SOL    HW1 1133   6.853   0.676   6.654 -0.1078  0.7420 -1.5143
   78SOL    HW2 1134   6.852   0.813   6.744 -0.1815  0.3531 -0.9180
   79SOL     OW 1135   0.795   5.722   6.332  0.1409  0.7781  0.0067
   79SOL    HW1 1136   0.884   5.678   6.321 -0.1371 -0.2589  1.5819
   79SOL    HW2 1137   0.734   5.692   6.259 -0.2813 -2.1765  1.4176
   80SOL     OW 1138   3.683   0.559   5.485  0.2196  0.5273  0.1626
   80SOL    HW1 1139   3.609   0.581   5.422  0.1445  1.0601  0.4261
   80SOL    HW2 1140   3.649   0.565   5.579  0.5578  0.6501  0.2806
   81SOL     OW 1141   1.455   1.137   4.292  0.3211  0.1613  0.7913
   81SOL    HW1 1142   1.472   1.229   4.256  1.5834  0.2481  1.5527
   81SOL    HW2 1143   1.443   1.073   4.215  0.1877  0.8275  0.2509
   82SOL     OW 1144   5.090   3.784   0.791  0.0042  0.0805  0.5749
   82SOL    HW1 1145   5.048   3.814   0.876 -1.9185 -0.1165 -0.2641
   82SOL    HW2 1146   5.130   3.693   0.803 -1.4469 -0.5311  0.9414
   83SOL     OW 1147   0.882   0.792   1.100 -0.3041 -0.5866  0.2461
   83SOL    HW1 1148   0.944   0.842   1.039 -2.2843 -0.2639 -1.6101
   83SOL    HW2 1149   0.816   0.740   1.046 -0.4890 -2.5068  2.1448
   84SOL     OW 1150   0.884   3.649   2.476  0.3996  0.2216  0.4768
   84SOL    HW1 1151   0.913   3.587   2.403 -0.7209  0.5087 -0.2433
   84SOL    HW2 1152   0.892   3.603   2.564  3.1991  0.3630  0.3832
   85SOL     OW 1153   6.137   2.079   4.162  0.0430 -0.5911 -0.3867
   85SOL    HW1 1154   6.219   2.120   4.123 -0.3810  0.7769  0.1069
   85SOL    HW2 1155   6.148   2.068   4.261 -0.0842 -1.1220 -0.4277
   86SOL     OW 1156   1.228   3.243   5.837  0.2400  0.2885 -0.5544
   86SOL    HW1 1157   1.282   3.184   5.778  0.1530  0.2564 -0.6026
   86SOL    HW2 1158   1.287   3.313   5.877  0.3977  0.0044 -0.2819
   87SOL     OW 1159   3.844   4.802   1.205 -0.3537  0.1321 -0.4074
   87SOL    HW1 1160   3.867   4.785   1.109  0.0233  0.6481 -0.4130
   87SOL    HW2 1161   3.821   4.715   1.249 -1.7435  0.0213 -1.2642
   88SOL     OW 1162   4.004   1.051   5.214 -0.2368  0.6012 -0.2504
   88SOL    HW1 1163   4.082   1.010   5.261 -0.0153 -0.6806 -1.6413
   88SOL    HW2 1164   3.923   0.994   5.228 -0.1183  0.0746 -1.5333
   89SOL     OW 1165   2.973   1.958   4.457  0.2278  0.4981  0.9763
   89SOL    HW1 1166   2.874   1.956   4.442  0.0438 -0.4623  2.1472
   89SOL    HW2 1167   2.991   1.950   4.555  1.5124 -1.4813  0.6202
   90SOL     OW 1168   4.494   5.880   2.775  0.0935  0.2501  0.6696
   90SOL    HW1 1169   4.447   5.864   2.688 -0.9856  0.2172  1.2393
   90SOL    HW2 1170   4.570   5.815   2.784 -0.1328 -0.1164 -0.0014
   91SOL     OW 1171   5.076   3.779   6.717  0.1517  0.7427 -0.0121
   91SOL    HW1 1172   4.990   3.729   6.717 -0.1766  1.1522  2.6618
   91SOL    HW2 1173   5.061   3.871   6.679 -0.9167  1.2014  1.4132
   92SOL     OW 1174   3.944   3.979   6.112  0.3948  0.1825 -0.3799
   92SOL    HW1 1175   4.012   4.040   6.155 -0.3867  0.5942  0.2976
   92SOL    HW2 1176   3.890   3.935   6.183 -0.1790  0.0022 -0.9254
   93SOL     OW 1177   3.462   0.974   6.829  0.2548 -0.5628 -0.3170
   93SOL    HW1 1178   3.537   1.027   6.869 -0.0561 -0.7691  0.5577
   93SOL    HW2 1179   3.379   0.988   6.884  0.1587 -1.9135 -0.1014
   94SOL     OW 1180   0.735   6.163   6.149 -0.1542  0.7492  0.4722
   94SOL    HW1 1181   0.749   6.223   6.228  0.5938  2.5973 -0.9833
   94SOL    HW2 1182   0.824   6.142   6.107 -0.5419 -0.1523  0.0968
   95SOL     OW 1183   0.953   0.187   3.225  0.2946 -0.1224  0.7720
   95SOL    HW1 1184   0.910   0.143   3.146 -0.5019 -1.4751  1.9100
   95SOL    HW2 1185   1.016   0.258   3.193  1.0527 -1.5539 -1.1345
   96SOL     OW 1186   4.379   6.877   5.612  0.1440 -0.8306 -0.4275
   96SOL    HW1 1187   4.402   6.950   5.546 -0.2167  0.0213  0.3674
   96SOL    HW2 1188   4.280   6.867   5.616  0.1361 -0.4521  0.4309
   97SOL     OW 1189   1.356   3.113   5.238 -0.3431  0.1917  0.6197
   97SOL    HW1 1190   1.340   3.058   5.156 -0.3438  1.4996 -0.2945
   97SOL    HW2 1191   1.279   3.175   5.252 -0.1532  0.2698  1.3853
   98SOL     OW 1192   0.999   3.661   1.103 -0.2616 -0.2794  0.5701
   98SOL    HW1 1193   1.076   3.715   1.069 -0.9274 -0.1485 -0.7826
   98SOL    HW2 1194   0.941   3.719   1.160 -1.6614  0.8778 -1.8941
   99SOL     OW 1195   2.853   0.937   1.359 -0.1542 -0.1408  0.5504
   99SOL    HW1 1196   2.809   0.853   1.392 -0.8467 -1.5506 -3.4059
   99SOL    HW2 1197   2.789   0.987   1.301  1.1927  1.6356  0.5301
  100SOL     OW 1198   0.252   0.575   5.718  0.3803 -0.5031  0.3545
  100SOL    HW1 1199   0.272   0.486   5.678  0.1286  0.9286 -3.2601
  100SOL    HW2 1200   0.333   0.607   5.768  1.2744 -1.7751 -0.2090
  101SOL     OW 1201   6.498   5.775   1.962  0.2844 -0.8930  1.1722
  101SOL    HW1 1202   6.429   5.703   1.967 -1.1047  0.3684  0.6603
  101SOL    HW2 1203   6.460   5.861   1.994  0.2168  0.8106 -2.8924
  102SOL     OW 1204   4.292   6.462   2.820 -0.2674  0.3817 -0.3062
  102SOL    HW1 1205   4.236   6.524   2.874 -0.5733 -0.6988  0.6676
  102SOL    HW2 1206   4.246   6.373   2.813  0.8430 -0.2110 -0.3390
  103SOL     OW 1207   4.349   1.380   3.566 -0.2497 -0.4367 -0.6528
  103SOL    HW1 1208   4.333   1.281   3.572  0.8133 -0.6296 -0.8086
  103SOL    HW2 1209   4.429   1.404   3.621 -1.4388  0.5922  0.6927
  104SOL     OW 1210   0.569   3.108   3.407  0.5079  0.7512 -0.1001
  104SOL    HW1 1211   0.509   3.080   3.333  2.3655 -3.5768 -0.2629
  104SOL    HW2 1212   0.635   3.175   3.373  0.2562  0.1285 -1.9107
  105SOL     OW 1213   4.917   0.670   6.053 -0.4136  0.0929 -0.1704
  105SOL    HW1 1214   4.964   0.756   6.069  1.1595 -0.5577 -1.0631
  105SOL    HW2 1215   4.976   0.609   6.000 -1.3041 -1.7095  0.8317
  106SOL     OW 1216   2.795   0.243   4.544  0.2414 -0.4404 -0.3262
  106SOL    HW1 1217   2.820   0.159   4.593  1.5503 -0.4296 -0.9538
  106SOL    HW2 1218   2.758   0.219   4.455  2.5119 -0.3309 -1.3519
  107SOL     OW 1219   0.963   5.902   1.130 -0.1401  0.1643 -0.2254
  107SOL    HW1 1220   0.928   5.995   1.118 -0.8692 -0.0834 -0.0415
  107SOL    HW2 1221   1.060   5.906   1.157 -0.5065  0.9070  1.0428
  108SOL     OW 1222   3.439   5.711   5.887 -0.4522  0.1921 -0.3238
  108SOL    HW1 1223   3.390   5.755   5.962  0.0725 -0.4875  0.4394
  108SOL    HW2 1224   3.461   5.617   5.912  0.9108  0.3594 -0.7757
  109SOL     OW 1225   0.402   1.382   1.935 -0.1893 -0.3047  0.3138
  109SOL    HW1 1226   0.333   1.314   1.961  1.0724 -1.2057  1.4513
  109SOL    HW2 1227   0.379   1.470   1.975 -1.5122 -0.1654 -0.6577
  110SOL     OW 1228   2.643   4.661   2.779 -0.0350  0.0513 -0.0568
  110SOL    HW1 1229   2.646   4.637   2.682  1.5367 -0.0476 -0.0094
  110SOL    HW2 1230   2.548   4.677   2.807 -0.2935  3.8844 -2.5309
  111SOL     OW 1231   2.161   1.033   4.236  0.0907  0.9303 -0.3275
  111SOL    HW1 1232   2.100   1.074   4.168 -0.0754 -1.4480 -1.7266
  111SOL    HW2 1233   2.244   1.000   4.190  0.1619 -0.3671  0.6687
  112SOL     OW 1234   2.078   0.190   5.864 -0.2505 -0.3410 -0.0926
  112SOL    HW1 1235   2.169   0.156   5.841 -0.9640 -1.9665 -0.6166
  112SOL    HW2 1236   2.025   0.118   5.907 -1.1339  0.7462  0.6969
  113SOL     OW 1237   0.141   5.542   1.673 -0.6518 -0.7001 -1.2654
  113SOL    HW1 1238   0.116   5.502   1.761 -1.9087  0.1941 -1.1799
  113SOL    HW2 1239   0.174   5.470   1.612 -1.3836 -1.6171 -0.6187
  114SOL     OW 1240   1.399   2.010   3.147 -0.3441 -0.0558 -0.2772
  114SOL    HW1 1241   1.328   1.982   3.211  0.1507 -0.7065 -0.0023
  114SOL    HW2 1242   1.400   1.948   3.068  0.3460 -0.4568  0.0375
  115SOL     OW 1243   4.966   1.219   1.871  0.5437 -0.5227 -0.4542
  115SOL    HW1 1244   4.884   1.163   1.873  1.5811 -2.1413  1.7119
  115SOL    HW2 1245   4.942   1.315   1.889 -0.8631 -0.9580  0.1106
  116SOL     OW 1246   0.904   5.931   2.857 -0.0537  0.2661  0.3898
  116SOL    HW1 1247   0.947   5.981   2.933  0.2976  1.2367 -0.4243
  116SOL    HW2 1248   0.960   5.941   2.775 -1.7097  1.3947 -0.6557
  117SOL     OW 1249   3.036   2.997   1.136  0.2055  0.4785 -0.3397
  117SOL    HW1 1250   2.992   2.914   1.102 -0.1460  0.8285 -0.7590
  117SOL    HW2 1251   2.980   3.076   1.111 -0.9473  0.6550  2.4588
  118SOL     OW 1252   2.460   1.566   2.380 -0.1559  0.2373 -0.2650
  118SOL    HW1 1253   2.394   1.608   2.443  0.6296  1.9402 -0.5087
  118SOL    HW2 1254   2.415   1.493   2.329 -0.9889 -0.7574  1.7775
  119SOL     OW 1255   2.831   4.556   0.743 -0.1026 -0.4909  0.0180
  119SOL    HW1 1256   2.881   4.641   0.725 -1.2394  0.5206  1.3850
  119SOL    HW2 1257   2.803   4.515   0.657 -0.4318  1.0796 -0.6610
  120SOL     OW 1258   6.354   0.488   6.098 -0.4603  0.8718  0.0501
  120SOL    HW1 1259   6.283   0.490   6.168  0.7649  2.4742  1.3096
  120SOL    HW2 1260   6.368   0.393   6.067 -1.8373  0.3004  1.0940
  121SOL     OW 1261   2.174   4.213   4.912 -0.0656 -0.0257 -0.0516
  121SOL    HW1 1262   2.215   4.133   4.955 -0.0262 -0.1878 -0.3843
  121SOL    HW2 1263   2.173   4.200   4.812  1.0056  0.8887 -0.1980
  122SOL     OW 1264   5.642   2.089   0.521  0.1733 -0.0792  0.0161
  122SOL    HW1 1265   5.609   2.018   0.582 -0.0341  0.5469  0.6558
  122SOL    HW2 1266   5.720   2.136   0.564 -0.7070  1.1382  0.3470
  123SOL     OW 1267   2.400   1.503   3.249 -0.2657 -0.3791 -0.5448
  123SOL    HW1 1268   2.474   1.466   3.305 -0.1173  0.3256 -0.2666
  123SOL    HW2 1269   2.402   1.460   3.159 -0.3171 -1.2985 -0.1183
  124SOL     OW 1270   3.460   1.249   1.428 -0.3000 -0.2556 -0.1498
  124SOL    HW1 1271   3.457   1.226   1.525 -0.2575 -0.8057 -0.2751
  124SOL    HW2 1272   3.554   1.241   1.395  0.1486  2.3155  0.3121
  125SOL     OW 1273   3.353   1.308   0.657 -0.4079 -0.2907  0.2007
  125SOL    HW1 1274   3.406   1.393   0.653  0.1776 -0.6380  0.3839
  125SOL    HW2 1275   3.390   1.243   0.590  0.9703 -1.4075  1.9589
  126SOL     OW 1276   1.885   3.862   5.708 -0.5373  0.1457  0.1872
  126SOL    HW1 1277   1.948   3.786   5.693 -0.5819  0.0073  0.7029
  126SOL    HW2 1278   1.880   3.918   5.625 -1.8395 -1.4063 -0.8525
  127SOL     OW 1279   6.429   5.103   6.381 -0.5373  0.1853 -0.0931
  127SOL    HW1 1280   6.391   5.173   6.442  2.6674  1.6835  0.4140
  127SOL    HW2 1281   6.468   5.029   6.435  0.1871  0.3274 -0.4076
  128SOL     OW 1282   4.125   0.956   2.358 -0.1578  0.4886 -0.2351
  128SOL    HW1 1283   4.139   1.055   2.361  0.2331  0.4174  0.5543
  128SOL    HW2 1284   4.045   0.932   2.412 -0.3785  0.3883 -0.6003
  129SOL     OW 1285   3.605   1.808   5.835  0.0421  0.3429 -0.1566
  129SOL    HW1 1286   3.679   1.861   5.793 -0.1280  0.1594 -0.6974
  129SOL    HW2 1287   3.619   1.711   5.816  0.6270  0.1382  1.2657
  130SOL     OW 1288   1.398   1.572   4.210  0.0155 -0.5281  0.0124
  130SOL    HW1 1289   1.475   1.636   4.213  0.1236 -0.6107 -0.8219
  130SOL    HW2 1290   1.431   1.482   4.182 -0.0873 -1.0475  1.4558
  131SOL     OW 1291   4.946   0.489   3.010 -0.0444 -0.2490  0.1120
  131SOL    HW1 1292   4.974   0.579   2.978 -0.2226  0.0886  0.8911
  131SOL    HW2 1293   4.846   0.482   3.006 -0.0516 -0.2871  0.3810
  132SOL     OW 1294   2.756   2.489   1.648 -0.3216  0.8107 -0.0065
  132SOL    HW1 1295   2.801   2.517   1.564  1.0895 -0.9774  0.0747
  132SOL    HW2 1296   2.822   2.440   1.706 -1.5434  1.0371  1.6468
  133SOL     OW 1297   4.974   0.817   3.519 -0.4072 -0.8156  0.3212
  133SOL    HW1 1298   4.958   0.902   3.570  3.2758  0.5003 -0.4144
  133SOL    HW2 1299   5.014   0.839   3.430  0.3491 -3.3178 -0.0182
  134SOL     OW 1300   6.827   0.273   1.330  0.2409  0.0437  0.3249
  134SOL    HW1 1301   6.788   0.183   1.312 -0.4967  0.2331  0.9013
  134SOL    HW2 1302   6.896   0.295   1.261  0.1120 -0.7758 -0.0662
  135SOL     OW 1303   4.777   5.130   3.171 -0.2427  0.1168 -0.2291
  135SOL    HW1 1304   4.722   5.169   3.098 -0.8537  0.7583  0.5521
  135SOL    HW2 1305   4.757   5.033   3.181 -0.4249  0.1100 -0.6775
  136SOL     OW 1306   1.425   5.204   5.358 -0.2441 -0.1339  0.1499
  136SOL    HW1 1307   1.370   5.201   5.274  1.0957  1.4750 -0.8520
  136SOL    HW2 1308   1.446   5.111   5.387 -2.3920 -0.7605 -0.1514
  137SOL     OW 1309   3.993   6.660   4.186  0.1480  0.2798  0.0147
  137SOL    HW1 1310   4.071   6.638   4.244  0.7199 -1.1306 -1.2313
  137SOL    HW2 1311   4.002   6.614   4.098 -0.8731  2.0574 -1.0988
  138SOL     OW 1312   6.985   4.615   3.409  0.5236  0.0215  0.4344
  138SOL    HW1 1313   7.066   4.591   3.462  2.0359  1.8635 -0.8885
  138SOL    HW2 1314   6.940   4.531   3.377  1.1517 -1.0526  2.2373
  139SOL     OW 1315   1.171   6.349   4.666  0.1452  0.7040  0.1390
  139SOL    HW1 1316   1.189   6.437   4.622 -1.9213  0.7302 -0.7577
  139SOL    HW2 1317   1.216   6.276   4.615  0.9859  1.1152  0.2742
  140SOL     OW 1318   0.871   1.220   3.736 -0.4469 -0.2000 -0.2159
  140SOL    HW1 1319   0.967   1.199   3.751 -0.7747 -0.7344  1.3173
  140SOL    HW2 1320   0.820   1.135   3.720 -0.9814 -0.1429  1.0669
  141SOL     OW 1321   5.526   3.110   4.056 -0.1486 -0.1398 -0.1343
  141SOL    HW1 1322   5.566   3.195   4.090 -1.1917  0.3331 -0.0305
  141SOL    HW2 1323   5.590   3.035   4.069  1.0039  0.7191 -0.7179
  142SOL     OW 1324   1.685   1.859   1.700 -0.2179  0.0366  0.1472
  142SOL    HW1 1325   1.597   1.853   1.655  0.0084  1.2180 -0.4902
  142SOL    HW2 1326   1.676   1.833   1.796 -1.0895 -0.6282 -0.1150
  143SOL     OW 1327   5.472   4.222   0.069  0.2162 -0.7597 -0.3175
  143SOL    HW1 1328   5.420   4.249   0.150  1.1931  0.4907 -0.0765
  143SOL    HW2 1329   5.570   4.231   0.088  0.5331 -2.5758 -0.9237
  144SOL     OW 1330   1.149   4.378   0.639 -0.0646 -0.0179  0.0050
  144SOL    HW1 1331   1.161   4.356   0.542 -0.4240  1.0460 -0.2925
  144SOL    HW2 1332   1.223   4.439   0.668 -1.2266  1.5692 -0.2335
  145SOL     OW 1333   0.828   4.639   0.365 -0.4077 -0.5656 -0.1928
  145SOL    HW1 1334   0.769   4.572   0.410 -1.3016  1.1158  1.2958
  145SOL    HW2 1335   0.787   4.666   0.277 -1.0786 -0.5326  0.1228
  146SOL     OW 1336   5.669   0.404   0.981 -0.2440  0.7828 -0.2157
  146SOL    HW1 1337   5.767   0.418   0.974 -0.1158 -0.5709 -1.9258
  146SOL    HW2 1338   5.639   0.417   1.075  1.4256  1.9415  0.1957
  147SOL     OW 1339   5.136   2.545   6.244  0.1705  0.6306 -0.2854
  147SOL    HW1 1340   5.076   2.617   6.280  0.7582 -0.1054  2.4612
  147SOL    HW2 1341   5.223   2.547   6.294  0.2052 -1.9517 -0.1075
  148SOL     OW 1342   6.702   4.176   1.660  0.1337 -0.1925  0.0976
  148SOL    HW1 1343   6.798   4.184   1.634 -0.1945 -0.0411 -1.1049
  148SOL    HW2 1344   6.678   4.252   1.721  1.4511 -1.7147  2.7254
  149SOL     OW 1345   4.874   0.683   2.778  0.1354 -0.3018  0.5473
  149SOL    HW1 1346   4.805   0.755   2.776  1.6349  1.2313  1.2071
  149SOL    HW2 1347   4.831   0.594   2.760 -1.8220  0.6960  0.0594
  150SOL     OW 1348   6.986   1.202   6.961  0.0808  0.1198  0.4361
  150SOL    HW1 1349   6.959   1.144   6.884 -1.1076  1.4519 -0.1975
  150SOL    HW2 1350   7.086   1.202   6.969  0.1147 -2.6506  1.0098
  151SOL     OW 1351   0.833   1.860   1.634  0.4116 -0.0380 -1.0469
  151SOL    HW1 1352   0.857   1.955   1.613 -0.2325  0.2346 -0.5798
  151SOL    HW2 1353   0.887   1.798   1.576  1.4817  0.5776 -0.7424
  152SOL     OW 1354   1.143   0.110   2.826  0.1754  0.6510  0.7367
  152SOL    HW1 1355   1.128   0.013   2.804 -0.0753  0.8697 -0.1006
  152SOL    HW2 1356   1.235   0.122   2.862  0.4787  0.2034  0.1336
  153SOL     OW 1357   3.649   1.790   2.970 -0.3417 -0.5021 -0.0328
  153SOL    HW1 1358   3.677   1.876   2.926  3.5326 -0.4974  1.9735
  153SOL    HW2 1359   3.653   1.716   2.903  1.6438  0.0828 -0.6374
  154SOL     OW 1360   0.117   3.463   2.976 -0.1187  0.6847  0.2891
  154SOL    HW1 1361   0.061   3.546   2.979 -1.2143 -0.0536  1.9233
  154SOL    HW2 1362   0.178   3.461   3.056 -0.4778 -0.2997  0.5605
  155SOL     OW 1363   0.994   2.450   4.525  0.2568  0.3821  0.8149
  155SOL    HW1 1364   1.004   2.384   4.451  2.3303  1.6284 -0.0927
  155SOL    HW2 1365   0.918   2.422   4.584 -1.8139 -0.4118 -1.9930
  156SOL     OW 1366   0.172   1.257   0.737 -0.0288  0.1702  0.4344
  156SOL    HW1 1367   0.217   1.345   0.718 -0.5536  0.6202  1.2145
  156SOL    HW2 1368   0.086   1.274   0.786 -0.7827 -0.7102 -0.5490
  157SOL     OW 1369   5.411   0.740   1.336  0.2757  0.0956  0.2338
  157SOL    HW1 1370   5.472   0.727   1.414  0.0092 -1.3810  0.2151
  157SOL    HW2 1371   5.332   0.679   1.344 -1.0261  1.6695  0.0512
  158SOL     OW 1372   0.918   3.302   1.979  0.1342 -0.2594 -0.2193
  158SOL    HW1 1373   0.900   3.373   1.911 -0.3545  0.0378  0.2099
  158SOL    HW2 1374   0.873   3.327   2.065 -2.2097 -2.2860 -0.7574
  159SOL     OW 1375   6.278   5.464   3.575  0.0571  0.2614 -0.4535
  159SOL    HW1 1376   6.374   5.446   3.596 -0.0563 -0.7175 -0.7148
  159SOL    HW2 1377   6.265   5.463   3.476  0.1606  2.5299 -0.5269
  160SOL     OW 1378   4.813   5.863   0.298  0.7528 -0.0411 -0.5532
  160SOL    HW1 1379   4.796   5.777   0.249  1.6387  0.4786 -1.8165
  160SOL    HW2 1380   4.734   5.884   0.355  0.8656 -2.1306  0.4790
  161SOL     OW 1381   1.129   1.599   1.269 -1.0343 -0.0233 -0.5000
  161SOL    HW1 1382   1.112   1.523   1.206 -3.0172 -0.9596  1.0568
  161SOL    HW2 1383   1.191   1.665   1.225 -1.8272 -0.9056 -3.1601
  162SOL     OW 1384   0.829   6.717   0.936 -0.1562 -0.0622 -0.3991
  162SOL    HW1 1385   0.903   6.784   0.934  0.3516 -0.5265  1.3601
  162SOL    HW2 1386   0.865   6.626   0.917 -0.0136 -0.4554  1.5139
  163SOL     OW 1387   6.622   5.107   2.782 -0.3501 -0.0606  0.2617
  163SOL    HW1 1388   6.534   5.138   2.746  0.1953  1.2563 -0.0214
  163SOL    HW2 1389   6.696   5.148   2.728  0.4473 -0.8755  0.7058
  164SOL     OW 1390   0.199   4.271   1.504  0.3994  0.4877 -0.0459
  164SOL    HW1 1391   0.137   4.291   1.580  0.0644 -1.2372  0.1868
  164SOL    HW2 1392   0.204   4.172   1.491 -0.1999  0.7566 -2.8105
  165SOL     OW 1393   5.103   1.273   0.735  0.0059  0.5324  0.1738
  165SOL    HW1 1394   5.058   1.212   0.800  0.9407  0.9574  1.2601
  165SOL    HW2 1395   5.191   1.232   0.707  0.5342  1.2616  0.7404
  166SOL     OW 1396   6.736   4.543   0.541 -0.3526  0.5157  0.3952
  166SOL    HW1 1397   6.691   4.594   0.468 -2.2128  0.3400  1.3624
  166SOL    HW2 1398   6.723   4.590   0.628  3.0426  1.4853  0.5262
  167SOL     OW 1399   5.524   1.647   6.441 -0.8476 -0.3202  0.0623
  167SOL    HW1 1400   5.449   1.713   6.428  0.7016  1.4513 -0.3088
  167SOL    HW2 1401   5.590   1.685   6.505  0.0128 -1.6381 -0.0132
  168SOL     OW 1402   1.950   2.417   2.422 -0.8860 -0.2401 -0.4181
  168SOL    HW1 1403   1.957   2.394   2.325  1.0311  0.8445 -0.5893
  168SOL    HW2 1404   1.855   2.436   2.445 -1.3957 -0.6747 -2.0421
  169SOL     OW 1405   5.189   2.483   3.632 -1.2383  0.0318  0.4542
  169SOL    HW1 1406   5.237   2.401   3.603  0.7928  1.8390 -1.7906
  169SOL    HW2 1407   5.176   2.481   3.731 -1.4564 -3.0136  0.4546
  170SOL     OW 1408   1.509   1.448   2.699  0.2490 -0.2677  0.1107
  170SOL    HW1 1409   1.493   1.363   2.748 -0.0112 -0.7422 -0.7786
  170SOL    HW2 1410   1.555   1.513   2.759 -1.0135 -0.4450  1.3256
  171SOL     OW 1411   0.827   3.772   5.949 -0.3035 -0.2332  0.2554
  171SOL    HW1 1412   0.740   3.729   5.972 -0.7153  0.4652  0.0286
  171SOL    HW2 1413   0.863   3.821   6.029  0.3194 -1.2225  0.6073
  172SOL     OW 1414   0.741   5.889   4.122 -0.2000  0.1334 -0.1677
  172SOL    HW1 1415   0.746   5.965   4.186  0.4563 -0.7281  0.8476
  172SOL    HW2 1416   0.708   5.808   4.170 -0.1168 -0.4232 -1.0298
  173SOL     OW 1417   6.875   2.134   4.477  0.6262 -0.1228  0.5913
  173SOL    HW1 1418   6.782   2.159   4.450  0.2854 -0.0510  1.7429
  173SOL    HW2 1419   6.877   2.037   4.502  0.7276 -0.0064  1.0566
  174SOL     OW 1420   3.249   6.914   4.085 -0.4464  0.2717  0.1286
  174SOL    HW1 1421   3.294   6.983   4.028 -2.2527 -0.6304 -2.6009
  174SOL    HW2 1422   3.264   6.823   4.044 -0.6873 -0.6099  1.9099
  175SOL     OW 1423   3.155   0.041   2.447 -0.3263  0.0483  0.0920
  175SOL    HW1 1424   3.156   0.035   2.546 -0.4139  0.1395  0.0981
  175SOL    HW2 1425   3.249   0.048   2.413 -0.2167 -1.1722  0.0975
  176SOL     OW 1426   0.596   4.556   5.328  0.7911  0.6392 -0.4573
  176SOL    HW1 1427   0.611   4.541   5.426  0.4691  0.7309 -0.3933
  176SOL    HW2 1428   0.507   4.600   5.314  0.1329 -0.7939 -0.9126
  177SOL     OW 1429   5.314   3.523   3.757 -0.1382 -0.2298 -0.1896
  177SOL    HW1 1430   5.250   3.447   3.764  1.4927 -1.6639 -0.4294
  177SOL    HW2 1431   5.295   3.589   3.831 -1.6141 -0.8006 -0.0245
  178SOL     OW 1432   4.728   2.759   6.467  0.7206  0.2849 -0.3376
  178SOL    HW1 1433   4.727   2.668   6.508  0.9672  0.8285  0.9065
  178SOL    HW2 1434   4.793   2.760   6.391  0.0049 -0.8273 -0.9959
  179SOL     OW 1435   4.896   6.360   4.769 -0.2257 -0.3371  0.4893
  179SOL    HW1 1436   4.827   6.422   4.807  1.6931  1.6328  0.9005
  179SOL    HW2 1437   4.983   6.408   4.759  1.2322 -2.8426  0.3338
  180SOL     OW 1438   2.624   6.021   0.292  0.1534 -0.1998 -0.2147
  180SOL    HW1 1439   2.692   5.948   0.297  1.8296  1.0635 -2.7624
  180SOL    HW2 1440   2.638   6.085   0.368  0.6117 -0.8960  0.3023
  181SOL     OW 1441   3.710   1.794   1.414  0.5511 -0.5075 -1.0648
  181SOL    HW1 1442   3.809   1.793   1.427  0.6623  0.3932 -1.7614
  181SOL    HW2 1443   3.670   1.713   1.456  1.2497  0.5466  1.9059
  182SOL     OW 1444   2.693   1.068   6.852  0.3099  0.0090  0.3184
  182SOL    HW1 1445   2.711   1.006   6.776 -1.9337 -1.5704  0.9751
  182SOL    HW2 1446   2.694   1.017   6.938  0.2320  1.2730  1.1016
  183SOL     OW 1447   2.217   2.591   3.749  0.1134  0.3350  0.1463
  183SOL    HW1 1448   2.255   2.639   3.828 -0.4648 -0.9402  1.2307
  183SOL    HW2 1449   2.167   2.510   3.780 -2.3234  1.1739 -1.3241
  184SOL     OW 1450   5.949   6.775   3.892  0.3298  0.2639  0.1321
  184SOL    HW1 1451   6.008   6.785   3.972  1.1387 -1.1021 -0.2551
  184SOL    HW2 1452   5.982   6.699   3.836  0.0868  1.4907 -1.7650
  185SOL     OW 1453   0.264   1.354   6.346 -0.4272  0.3625 -0.0740
  185SOL    HW1 1454   0.254   1.360   6.445  0.5775 -1.8726  0.2359
  185SOL    HW2 1455   0.226   1.436   6.303 -0.7061  1.4737  2.1481
  186SOL     OW 1456   5.735   5.591   4.429 -0.4958  0.6162  0.7247
  186SOL    HW1 1457   5.657   5.610   4.370 -0.6194 -2.6453 -0.3816
  186SOL    HW2 1458   5.757   5.493   4.425  2.0814  0.9693  2.9757
  187SOL     OW 1459   4.523   0.833   3.659  0.0780 -0.2180 -0.2915
  187SOL    HW1 1460   4.591   0.793   3.598  1.5446  0.4792  0.8263
  187SOL    HW2 1461   4.432   0.824   3.618  0.9779  0.1226 -2.5312
  188SOL     OW 1462   0.972   3.426   0.986 -0.3286 -0.0364 -0.4002
  188SOL    HW1 1463   1.029   3.375   1.050  2.3769  1.0357 -1.8139
  188SOL    HW2 1464   0.961   3.520   1.018  0.9704  0.4835 -1.4019
  189SOL     OW 1465   3.858   4.019   1.913 -0.0127 -0.5891 -0.3621
  189SOL    HW1 1466   3.953   4.003   1.887  0.4187 -2.2672  1.9371
  189SOL    HW2 1467   3.839   3.973   2.000 -2.2465  1.7875  0.5397
  190SOL     OW 1468   0.234   3.635   4.242  0.0127  0.3963  0.0345
  190SOL    HW1 1469   0.227   3.609   4.145  0.0283 -0.3367  0.2310
  190SOL    HW2 1470   0.321   3.682   4.257  0.7718 -0.9646  0.0281
  191SOL     OW 1471   6.933   1.040   5.459 -0.2001 -0.8579 -0.4774
  191SOL    HW1 1472   6.930   1.045   5.359 -0.0019 -1.6848 -0.5310
  191SOL    HW2 1473   6.948   0.945   5.488 -1.9691 -0.9314  0.3690
  192SOL     OW 1474   1.531   6.017   1.273  0.4253  0.5183 -0.3117
  192SOL    HW1 1475   1.625   6.037   1.301  0.6095 -0.6827 -0.0478
  192SOL    HW2 1476   1.469   6.037   1.348  0.6439 -0.2411  0.0699
  193SOL     OW 1477   3.124   3.008   4.659  0.1951 -0.2083  0.0552
  193SOL    HW1 1478   3.168   3.015   4.749  0.3095 -0.5446  0.0267
  193SOL    HW2 1479   3.073   2.923   4.654 -0.5097  0.2015  0.1067
  194SOL     OW 1480   5.584   1.221   2.135  0.0079 -0.4966 -0.8496
  194SOL    HW1 1481   5.500   1.274   2.124  0.3684  0.2779 -0.0723
  194SOL    HW2 1482   5.601   1.205   2.232 -0.3832 -2.5694 -1.0862
  195SOL     OW 1483   1.950   5.591   3.262 -0.0332  0.0320 -0.0569
  195SOL    HW1 1484   1.971   5.599   3.359  0.2234 -1.2193 -0.0019
  195SOL    HW2 1485   2.025   5.629   3.208  0.2381 -0.1156  0.2168
  196SOL     OW 1486   0.775   6.255   1.461 -0.0338  0.0096  0.3334
  196SOL    HW1 1487   0.710   6.191   1.421 -1.2778  1.0201  0.6567
  196SOL    HW2 1488   0.734   6.346   1.464  1.7745  0.8805 -0.3231
  197SOL     OW 1489   3.941   1.136   6.808  0.1024  0.0459  0.1084
  197SOL    HW1 1490   4.031   1.171   6.834 -0.3645 -0.2145  2.2737
  197SOL    HW2 1491   3.951   1.048   6.762  1.0791  1.3896 -2.5066
  198SOL     OW 1492   6.275   6.690   3.213 -0.0245  0.5344  0.1115
  198SOL    HW1 1493   6.263   6.773   3.160  1.0008  2.0321  2.0856
  198SOL    HW2 1494   6.359   6.644   3.185 -0.6212  0.0826 -1.0196
  199SOL     OW 1495   0.966   2.222   4.012  0.2348  0.0582  0.1770
  199SOL    HW1 1496   0.901   2.188   4.081  0.3613 -2.4329 -0.8439
  199SOL    HW2 1497   0.920   2.289   3.954 -0.4782  0.6398  1.3650
  200SOL     OW 1498   0.182   3.516   3.706 -0.0252 -0.2106  0.2948
  200SOL    HW1 1499   0.264   3.465   3.682  0.1105  0.6595 -1.1916
  200SOL    HW2 1500   0.199   3.614   3.695 -1.4876 -0.0479 -0.8522
  201SOL     OW 1501   6.845   1.154   0.177 -0.7810  0.1919 -0.4776
  201SOL    HW1 1502   6.808   1.062   0.184  1.6604 -0.8376  0.0274
  201SOL    HW2 1503   6.900   1.162   0.094 -0.3622  0.9449 -0.1413
  202SOL     OW 1504   5.136   1.582   6.277 -0.1143 -0.0654 -0.5294
  202SOL    HW1 1505   5.113   1.611   6.370  1.8285 -0.5522  0.1411
  202SOL    HW2 1506   5.057   1.597   6.218 -1.6008 -0.2543  1.2920
  203SOL     OW 1507   4.849   3.078   4.656 -0.0982 -0.4899 -0.3076
  203SOL    HW1 1508   4.923   3.097   4.590  0.4838  1.2926  0.8009
  203SOL    HW2 1509   4.855   3.141   4.733 -0.8039 -2.4701  1.4817
  204SOL     OW 1510   0.417   3.320   6.078  0.6357 -0.0960  0.2375
  204SOL    HW1 1511   0.389   3.385   6.148  0.7899 -0.5502  0.7322
  204SOL    HW2 1512   0.514   3.333   6.058  1.1470 -1.3420  1.6663
  205SOL     OW 1513   1.246   6.884   4.358  0.3916 -0.1105  0.2045
  205SOL    HW1 1514   1.332   6.880   4.307  0.5809  0.7500  0.4424
  205SOL    HW2 1515   1.262   6.924   4.448 -0.1731 -0.3890  0.4331
  206SOL     OW 1516   5.440   0.378   1.739  0.5299  0.0213 -0.4725
  206SOL    HW1 1517   5.372   0.366   1.666  1.1985  0.3221 -1.1613
  206SOL    HW2 1518   5.397   0.420   1.818  0.2892  2.1097 -1.6167
  207SOL     OW 1519   0.102   1.482   3.318 -0.3721 -0.1478  0.1328
  207SOL    HW1 1520   0.147   1.457   3.232 -0.8531 -0.1070 -0.1331
  207SOL    HW2 1521   0.163   1.461   3.395  0.4374  0.6817 -0.2610
  208SOL     OW 1522   5.674   5.173   3.741 -0.3289 -0.0626 -0.0831
  208SOL    HW1 1523   5.660   5.187   3.839 -0.4953 -0.8372  0.0115
  208SOL    HW2 1524   5.657   5.077   3.718 -0.0301  0.0531 -0.8265
  209SOL     OW 1525   5.832   4.073   3.537 -0.5434 -0.8124 -0.1400
  209SOL    HW1 1526   5.751   4.124   3.508 -0.1382 -0.6136 -0.9540
  209SOL    HW2 1527   5.825   4.052   3.635 -1.2733 -0.2381 -0.0595
  210SOL     OW 1528   3.604   1.518   2.379 -0.4717  0.0370 -0.1193
  210SOL    HW1 1529   3.577   1.560   2.292  1.7499  0.2240 -0.7851
  210SOL    HW2 1530   3.561   1.568   2.454 -2.5837 -0.2335 -1.0672
  211SOL     OW 1531   4.123   0.145   2.245 -0.1971  0.3571 -0.5827
  211SOL    HW1 1532   4.038   0.197   2.238 -0.8188  0.0261  2.6853
  211SOL    HW2 1533   4.108   0.067   2.306  2.4479  0.3103  0.0964
  212SOL     OW 1534   0.714   4.824   1.620  1.1643 -0.7113 -0.1370
  212SOL    HW1 1535   0.677   4.738   1.656  1.1223  0.3055  2.4439
  212SOL    HW2 1536   0.813   4.826   1.633  1.0183  0.1219  1.0822
  213SOL     OW 1537   2.895   0.290   0.053 -0.0548 -0.0404  0.1831
  213SOL    HW1 1538   2.828   0.230   0.097 -1.1066  1.5381  0.8365
  213SOL    HW2 1539   2.875   0.295  -0.045 -0.2597 -0.3835  0.2045
  214SOL     OW 1540   2.623   5.099   6.923 -0.2642 -0.4795 -0.0167
  214SOL    HW1 1541   2.593   5.128   6.833  0.0681  0.7364  0.2369
  214SOL    HW2 1542   2.637   5.180   6.981 -0.6393 -1.2419  1.1749
  215SOL     OW 1543   2.489   3.342   0.989  0.1780 -0.1670  0.3124
  215SOL    HW1 1544   2.492   3.289   1.074 -1.1188 -0.9384 -0.0904
  215SOL    HW2 1545   2.506   3.438   1.009  1.2570 -0.5255  1.2451
  216SOL     OW 1546   1.015   6.589   2.622 -0.4822  0.1223  0.3074
  216SOL    HW1 1547   0.965   6.514   2.666 -0.2879 -0.8520 -1.0421
  216SOL    HW2 1548   0.958   6.629   2.550  0.9880 -1.8541 -2.1428
  217SOL     OW 1549   2.538   2.415   2.090  0.3053  0.0228 -0.0445
  217SOL    HW1 1550   2.466   2.371   2.143 -0.6474  1.7525  0.1670
  217SOL    HW2 1551   2.612   2.350   2.073  0.3327 -0.7812  2.7943
  218SOL     OW 1552   0.897   4.176   3.476 -0.4469 -0.6342 -0.4918
  218SOL    HW1 1553   0.897   4.158   3.378 -0.2873  1.6098 -0.9620
  218SOL    HW2 1554   0.968   4.120   3.521  1.5554  0.4635 -2.1259
  219SOL     OW 1555   3.621   6.506   0.942 -0.0042 -0.1735 -0.0236
  219SOL    HW1 1556   3.706   6.454   0.936  0.5166  0.6742 -0.1191
  219SOL    HW2 1557   3.544   6.447   0.916  0.7997 -0.2702 -2.3686
  220SOL     OW 1558   2.845   5.254   0.800 -0.4535  0.3714  0.0506
  220SOL    HW1 1559   2.930   5.291   0.763  0.5258 -0.3401  1.5202
  220SOL    HW2 1560   2.822   5.170   0.751  1.3573 -1.0983  1.5786
  221SOL     OW 1561   6.294   2.167   0.719  0.7056 -0.3307  0.0414
  221SOL    HW1 1562   6.271   2.260   0.691 -1.6040 -0.5595  0.9410
  221SOL    HW2 1563   6.322   2.167   0.815 -0.6066 -0.7010  0.4391
  222SOL     OW 1564   1.444   4.293   3.656 -0.1643  0.2757  0.1534
  222SOL    HW1 1565   1.521   4.252   3.608 -0.6180  2.0734 -2.3776
  222SOL    HW2 1566   1.473   4.377   3.701 -0.3860  0.2920  0.2676
  223SOL     OW 1567   6.136   2.753   1.146  0.3399  0.0757  0.0100
  223SOL    HW1 1568   6.123   2.774   1.243  0.6026  1.4822 -0.2307
  223SOL    HW2 1569   6.049   2.723   1.107 -0.1982  1.1462  0.3215
  224SOL     OW 1570   1.561   3.215   4.613  0.1635 -0.1666 -0.6153
  224SOL    HW1 1571   1.471   3.255   4.592  0.0113 -0.4979 -0.6001
  224SOL    HW2 1572   1.592   3.161   4.534  0.9287  0.9649 -1.1242
  225SOL     OW 1573   5.860   3.782   6.268  0.2874  0.4469 -0.1829
  225SOL    HW1 1574   5.917   3.853   6.225 -0.2040  1.0799  0.1908
  225SOL    HW2 1575   5.780   3.825   6.309  0.3714 -0.2369  0.7159
  226SOL     OW 1576   3.412   0.389   6.499 -0.0120 -0.2519 -0.3772
  226SOL    HW1 1577   3.445   0.309   6.449  0.1363  0.6921 -1.8568
  226SOL    HW2 1578   3.478   0.414   6.569 -0.3479 -1.7686  0.5205
  227SOL     OW 1579   1.118   4.431   1.640  0.7052  0.3213 -0.2611
  227SOL    HW1 1580   1.144   4.341   1.675 -0.3347  0.2516  0.3986
  227SOL    HW2 1581   1.018   4.436   1.635  0.7938  0.5357 -2.7214
  228SOL     OW 1582   3.867   6.312   3.698 -0.3470  0.0344 -0.0628
  228SOL    HW1 1583   3.880   6.389   3.760 -1.3636  1.4854 -1.5565
  228SOL    HW2 1584   3.906   6.229   3.738  1.1985  1.4037  1.3995
  229SOL     OW 1585   5.224   0.766   0.211  0.6552 -0.3847 -0.6158
  229SOL    HW1 1586   5.213   0.704   0.288  2.4544 -0.7763 -0.6180
  229SOL    HW2 1587   5.168   0.848   0.225 -2.5045 -2.3278 -1.0612
  230SOL     OW 1588   3.418   5.733   4.912 -0.4038  0.5247  0.8414
  230SOL    HW1 1589   3.367   5.647   4.918 -0.9092  0.6940 -0.5570
  230SOL    HW2 1590   3.442   5.764   5.003  0.9370 -1.7784  1.3648
  231SOL     OW 1591   5.735   2.740   6.430 -0.4631 -0.4154  0.2406
  231SOL    HW1 1592   5.682   2.804   6.375 -2.4901 -1.8691  0.3967
  231SOL    HW2 1593   5.728   2.764   6.526 -1.1672 -0.7847  0.2923
  232SOL     OW 1594   0.526   4.824   0.632  0.1465  0.0572 -0.5713
  232SOL    HW1 1595   0.470   4.907   0.630 -1.6503 -0.8692  3.0870
  232SOL    HW2 1596   0.466   4.744   0.632  1.5849 -1.0785  0.7327
  233SOL     OW 1597   1.977   2.014   4.208 -0.4440  0.8525  0.0593
  233SOL    HW1 1598   1.963   1.916   4.225  0.1657  0.5737 -0.9135
  233SOL    HW2 1599   2.075   2.034   4.209 -0.5667  1.4575  0.2488
  234SOL     OW 1600   4.163   0.485   2.759  0.1685 -0.1813 -0.0740
  234SOL    HW1 1601   4.103   0.405   2.764  0.4484 -0.3551  0.5553
  234SOL    HW2 1602   4.143   0.536   2.676 -0.2957 -0.6818 -0.2751
  235SOL     OW 1603   3.605   2.942   2.540  0.2971 -0.4105  0.7601
  235SOL    HW1 1604   3.617   2.917   2.444 -0.0445  1.8344  0.0670
  235SOL    HW2 1605   3.507   2.949   2.560  0.3223  1.8623  0.4047
  236SOL     OW 1606   2.999   2.292   5.324 -0.1790  0.1295  0.7328
  236SOL    HW1 1607   3.075   2.321   5.265 -1.9304  0.7891 -1.3847
  236SOL    HW2 1608   2.995   2.193   5.327  0.3508  0.0850  0.2391
  237SOL     OW 1609   0.025   5.079   2.391  0.3323 -0.5080  0.3460
  237SOL    HW1 1610   0.079   5.159   2.366  1.8796 -1.7900 -0.5829
  237SOL    HW2 1611  -0.072   5.105   2.396  0.6939  1.2257 -0.7602
  238SOL     OW 1612   3.899   2.291   5.643 -0.0937  0.2216  0.7287
  238SOL    HW1 1613   3.840   2.214   5.665 -0.6984 -0.4720 -2.6408
  238SOL    HW2 1614   3.843   2.370   5.619  0.2654 -0.0883 -1.3520
  239SOL     OW 1615   6.051   0.500   5.739 -0.3268 -0.2701  0.1136
  239SOL    HW1 1616   6.116   0.561   5.784 -0.1642 -0.1043 -0.3396
  239SOL    HW2 1617   5.963   0.505   5.786  0.2371 -1.2454  1.3552
  240SOL     OW 1618   0.260   2.904   3.548 -0.0906  0.3110  0.3937
  240SOL    HW1 1619   0.336   2.867   3.493  0.2415 -0.0799  1.1028
  240SOL    HW2 1620   0.297   2.963   3.619 -0.6322  2.2090 -0.8398
  241SOL     OW 1621   2.486   1.126   4.831 -0.3818 -0.3327 -0.1726
  241SOL    HW1 1622   2.567   1.145   4.886 -1.2146 -0.1862  1.0354
  241SOL    HW2 1623   2.452   1.034   4.853  1.4111 -1.8656 -3.1901
  242SOL     OW 1624   4.161   3.597   4.741  0.5415 -0.3424 -0.3083
  242SOL    HW1 1625   4.070   3.637   4.745 -0.3370 -2.2644  2.2075
  242SOL    HW2 1626   4.160   3.516   4.682  0.2823 -0.9693  0.5253
  243SOL     OW 1627   2.374   0.404   5.639 -0.0824  0.1821 -0.5899
  243SOL    HW1 1628   2.378   0.499   5.668 -1.0673  0.2847 -0.7654
  243SOL    HW2 1629   2.416   0.346   5.709 -0.6010  0.6249  0.1006
  244SOL     OW 1630   6.384   1.897   4.955  0.5598  0.0264 -0.2791
  244SOL    HW1 1631   6.434   1.975   4.992 -0.0997  0.9677 -1.2962
  244SOL    HW2 1632   6.297   1.928   4.917  0.6243 -1.0737 -1.4068
  245SOL     OW 1633   5.357   2.677   4.339 -0.6935  0.0275 -0.0343
  245SOL    HW1 1634   5.395   2.737   4.411  2.0899 -3.1747  1.4858
  245SOL    HW2 1635   5.284   2.622   4.378  0.5175 -1.3929  0.3354
  246SOL     OW 1636   5.707   3.254   4.854  0.3786 -0.5733 -0.0911
  246SOL    HW1 1637   5.699   3.250   4.755 -1.3147  0.2731 -0.0294
  246SOL    HW2 1638   5.803   3.241   4.881  1.4606  2.3132 -2.0336
  247SOL     OW 1639   2.660   2.614   0.187 -0.2453 -0.3007  0.4917
  247SOL    HW1 1640   2.654   2.711   0.209  0.1402 -0.1369 -0.1225
  247SOL    HW2 1641   2.569   2.578   0.169 -0.5375 -0.3385  1.8815
  248SOL     OW 1642   4.423   1.408   1.421  0.6243  0.8834  0.5156
  248SOL    HW1 1643   4.398   1.468   1.345  0.9554 -0.1253 -0.3989
  248SOL    HW2 1644   4.522   1.392   1.420  0.5885  0.6121  0.9837
  249SOL     OW 1645   4.671   5.435   5.914  0.0679 -0.2710 -0.5463
  249SOL    HW1 1646   4.636   5.381   5.990  0.0804  2.7664  1.7890
  249SOL    HW2 1647   4.770   5.429   5.911  0.1645  0.5603  0.5177
  250SOL     OW 1648   3.490   0.962   0.789  0.0958  0.6437 -0.5187
  250SOL    HW1 1649   3.500   0.956   0.888 -0.9390  4.8052  0.0075
  250SOL    HW2 1650   3.554   1.029   0.752  0.7745 -1.1145 -2.8505
  251SOL     OW 1651   5.543   5.099   5.579 -0.1077 -0.5208 -0.6748
  251SOL    HW1 1652   5.489   5.031   5.530 -2.6082  0.9701 -0.1176
  251SOL    HW2 1653   5.555   5.072   5.674 -0.9386 -0.2727 -0.4996
  252SOL     OW 1654   5.751   0.122   0.935 -0.2720 -0.0223  0.1210
  252SOL    HW1 1655   5.712   0.214   0.945  1.0477  0.4838  0.9332
  252SOL    HW2 1656   5.706   0.059   0.998  0.8554  0.7954  1.8365
  253SOL     OW 1657   2.547   3.631   0.950  0.5781 -0.4807  0.2548
  253SOL    HW1 1658   2.630   3.679   0.921 -0.1885 -0.3781 -1.9986
  253SOL    HW2 1659   2.506   3.586   0.871  0.8442 -4.3259  2.0970
  254SOL     OW 1660   5.312   3.299   2.818 -0.4491  0.1826 -0.6458
  254SOL    HW1 1661   5.408   3.313   2.793 -0.3909 -0.3692 -0.7331
  254SOL    HW2 1662   5.254   3.314   2.738 -0.4204  0.3131 -0.6426
  255SOL     OW 1663   1.927   3.036   4.381  0.1554  0.9423 -0.2112
  255SOL    HW1 1664   1.949   3.097   4.458 -2.6649 -0.5578  1.9682
  255SOL    HW2 1665   1.964   2.945   4.399 -0.5119  0.5799 -0.6131
  256SOL     OW 1666   6.225   6.286   5.817 -0.2288 -0.2702  0.1093
  256SOL    HW1 1667   6.215   6.295   5.718 -1.2761  0.2919  0.2510
  256SOL    HW2 1668   6.141   6.318   5.862  0.9708  1.4402  1.2656
  257SOL     OW 1669   5.701   5.711   3.496  0.9470  0.2238  0.1051
  257SOL    HW1 1670   5.625   5.762   3.535  0.7780  0.5693 -0.6560
  257SOL    HW2 1671   5.787   5.752   3.524  0.9625 -1.1185  2.3314
  258SOL     OW 1672   1.682   5.014   5.231  0.3253  0.2612  0.6827
  258SOL    HW1 1673   1.736   4.992   5.313 -0.2344  0.4158  1.1041
  258SOL    HW2 1674   1.601   4.955   5.229  0.4519  0.1021  0.1124
  259SOL     OW 1675   2.651   0.958   1.721 -0.2761 -0.0387 -0.1231
  259SOL    HW1 1676   2.680   0.865   1.745 -0.3666 -0.6695 -2.2745
  259SOL    HW2 1677   2.551   0.964   1.723 -0.2715  0.0089 -0.0251
  260SOL     OW 1678   5.784   1.256   1.553 -0.4719 -0.2106  0.4627
  260SOL    HW1 1679   5.722   1.255   1.475 -0.5437 -0.3028  0.5194
  260SOL    HW2 1680   5.830   1.344   1.559 -1.1209  0.1122  0.8313
  261SOL     OW 1681   6.085   4.474   0.493  1.2495 -0.0664 -0.2676
  261SOL    HW1 1682   6.038   4.502   0.577 -1.7059 -2.5149 -0.9489
  261SOL    HW2 1683   6.128   4.385   0.507 -0.5554 -1.2257 -1.6613
  262SOL     OW 1684   5.621   5.391   6.501  0.2514  0.4426  0.1454
  262SOL    HW1 1685   5.639   5.310   6.446  0.2471  0.3203  0.3241
  262SOL    HW2 1686   5.578   5.365   6.587 -2.1302  0.8324 -0.8592
  263SOL     OW 1687   1.260   0.963   4.689  0.6380 -0.6132  0.0715
  263SOL    HW1 1688   1.194   0.894   4.720  0.5468 -0.6182 -0.1330
  263SOL    HW2 1689   1.292   1.015   4.768 -0.8179  0.4475  0.0135
  264SOL     OW 1690   4.184   1.201   6.882 -0.0804 -0.2052 -0.1569
  264SOL    HW1 1691   4.214   1.160   6.968  0.2882  0.5561  0.0859
  264SOL    HW2 1692   4.222   1.293   6.874  3.3400 -1.6469 -3.0195
  265SOL     OW 1693   3.454   5.280   3.176  0.7822  0.1594 -0.2310
  265SOL    HW1 1694   3.447   5.186   3.143 -0.4168  1.1182 -3.0541
  265SOL    HW2 1695   3.512   5.333   3.114 -1.4489  2.0579 -0.8530
  266SOL     OW 1696   3.485   1.710   6.063 -1.0348 -0.3967  0.2276
  266SOL    HW1 1697   3.510   1.765   6.143 -1.7525 -0.5105  0.5412
  266SOL    HW2 1698   3.540   1.738   5.984 -0.2654 -0.3358  0.7762
  267SOL     OW 1699   5.877   3.874   6.723  0.4753  0.3088 -0.0458
  267SOL    HW1 1700   5.784   3.907   6.711 -1.4698 -3.1183  3.4320
  267SOL    HW2 1701   5.890   3.789   6.672  1.8793  0.9440 -0.8025
  268SOL     OW 1702   3.827   5.862   3.929  0.0340  0.5230 -0.3917
  268SOL    HW1 1703   3.822   5.903   4.020 -1.7119  0.9703 -0.6539
  268SOL    HW2 1704   3.743   5.882   3.879  0.3680 -0.9155 -1.5980
  269SOL     OW 1705   0.548   4.393   3.597 -0.2129  0.0219 -0.2384
  269SOL    HW1 1706   0.637   4.438   3.610  0.1506 -0.3732 -1.2451
  269SOL    HW2 1707   0.561   4.294   3.592 -0.9747 -0.2125  1.6519
  270SOL     OW 1708   6.949   6.808   1.596 -0.1357 -0.4513  0.3723
  270SOL    HW1 1709   6.966   6.794   1.498 -1.4238  0.2753  0.0213
  270SOL    HW2 1710   6.871   6.753   1.625  0.0722 -0.4581  0.9315
  271SOL     OW 1711   2.715   1.304   6.084 -0.2658  0.8663 -0.5248
  271SOL    HW1 1712   2.797   1.256   6.053 -0.7083 -0.3579  0.1151
  271SOL    HW2 1713   2.694   1.278   6.178 -1.3534  1.1995 -0.6538
  272SOL     OW 1714   2.891   5.990   5.125  0.6668 -0.1165  0.3915
  272SOL    HW1 1715   2.933   6.047   5.195  0.5245 -0.2096  0.5532
  272SOL    HW2 1716   2.801   5.959   5.157  0.5260 -0.0155  0.0977
  273SOL     OW 1717   1.058   3.747   6.135 -0.0506  0.3047 -0.5512
  273SOL    HW1 1718   1.098   3.837   6.115  1.9544 -0.6024 -0.9166
  273SOL    HW2 1719   1.105   3.677   6.081 -0.0382 -1.2406  1.3504
  274SOL     OW 1720   4.582   2.176   2.409 -0.2357 -0.1813 -0.5208
  274SOL    HW1 1721   4.526   2.256   2.387 -0.9557 -0.8020 -0.9573
  274SOL    HW2 1722   4.572   2.155   2.507 -0.4730 -0.0686 -0.5198
  275SOL     OW 1723   6.594   5.574   5.870 -0.0899  0.0799 -0.2655
  275SOL    HW1 1724   6.621   5.600   5.962  0.7637 -2.7774  0.3837
  275SOL    HW2 1725   6.665   5.516   5.829 -0.7044  0.8053 -2.5428
  276SOL     OW 1726   1.340   6.898   2.808  0.1008 -0.2398 -0.1088
  276SOL    HW1 1727   1.398   6.937   2.736 -0.1472 -0.4550 -0.4317
  276SOL    HW2 1728   1.259   6.855   2.766 -0.5730  0.5368  0.3730
  277SOL     OW 1729   2.023   2.316   1.134 -0.0618  0.3891  0.1367
  277SOL    HW1 1730   1.948   2.338   1.071  0.3154  0.8594 -0.1610
  277SOL    HW2 1731   2.053   2.400   1.180  0.3561  0.2223  0.1728
  278SOL     OW 1732   6.297   4.973   4.356  0.3479  0.4250 -0.1290
  278SOL    HW1 1733   6.249   4.921   4.285 -1.1075 -0.1055  1.1739
  278SOL    HW2 1734   6.370   5.027   4.315 -0.4281  0.1117 -2.0111
  279SOL     OW 1735   6.600   2.886   4.901 -0.0554 -0.1434 -0.2401
  279SOL    HW1 1736   6.552   2.799   4.894  1.2091 -1.1410  2.2836
  279SOL    HW2 1737   6.534   2.961   4.896 -1.5308 -1.3419  0.4575
  280SOL     OW 1738   4.234   0.153   3.174 -0.4044  0.4088  0.1567
  280SOL    HW1 1739   4.164   0.096   3.218 -2.7340  3.2349  0.3846
  280SOL    HW2 1740   4.289   0.096   3.113 -2.1068 -2.1742  0.8566
  281SOL     OW 1741   3.174   6.555   3.258  0.2473 -0.2173  0.0875
  281SOL    HW1 1742   3.156   6.626   3.326  0.2254 -1.3358  1.2840
  281SOL    HW2 1743   3.089   6.508   3.236  0.3731 -0.2968 -0.2323
  282SOL     OW 1744   5.395   0.115   0.901 -0.3590 -0.0156  0.4336
  282SOL    HW1 1745   5.437   0.100   0.812  1.3688  0.8328  1.0608
  282SOL    HW2 1746   5.360   0.208   0.907 -0.4676 -0.0691  0.6354
  283SOL     OW 1747   5.254   0.109   6.159 -0.2316 -1.1135 -0.2322
  283SOL    HW1 1748   5.198   0.027   6.173 -1.8276 -0.4412 -2.1884
  283SOL    HW2 1749   5.259   0.160   6.244 -1.3894 -1.9484  0.3793
  284SOL     OW 1750   0.186   5.510   5.877  0.5374  0.2486 -0.3027
  284SOL    HW1 1751   0.244   5.573   5.826  0.1374  2.6644  2.0567
  284SOL    HW2 1752   0.241   5.463   5.946  0.1834  0.5415  0.1762
  285SOL     OW 1753   5.426   3.171   5.651  0.9016  0.1184  0.6730
  285SOL    HW1 1754   5.363   3.094   5.661  1.4846 -0.2416  1.8042
  285SOL    HW2 1755   5.461   3.197   5.741  2.0044  0.6187  0.1174
  286SOL     OW 1756   2.911   6.243   4.569 -0.1699  0.3518  0.3353
  286SOL    HW1 1757   2.866   6.242   4.658  0.5114  1.9446  0.7539
  286SOL    HW2 1758   2.956   6.332   4.556  2.4056 -0.9195 -0.2421
  287SOL     OW 1759   1.031   4.745   6.759 -0.5559 -0.3550 -0.3705
  287SOL    HW1 1760   1.113   4.765   6.705 -0.4099 -0.3269 -0.1425
  287SOL    HW2 1761   1.037   4.793   6.847 -1.4581  0.7471 -0.8919
  288SOL     OW 1762   4.709   1.530   4.732  0.2727  0.5141  0.1436
  288SOL    HW1 1763   4.650   1.555   4.809  0.7093  0.5595  0.4646
  288SOL    HW2 1764   4.684   1.584   4.652 -0.4839  0.1489  0.1232
  289SOL     OW 1765   1.218   3.153   3.962 -0.1002  0.3709  0.0866
  289SOL    HW1 1766   1.300   3.096   3.962 -1.4780 -1.7560 -1.8185
  289SOL    HW2 1767   1.193   3.175   4.057  1.1579 -1.1919  0.8198
  290SOL     OW 1768   4.609   0.072   4.370  0.2676  0.0848 -0.1840
  290SOL    HW1 1769   4.537   0.084   4.303  3.2527 -1.6500 -4.0948
  290SOL    HW2 1770   4.634   0.161   4.409 -2.1306  1.0374 -0.6706
  291SOL     OW 1771   1.515   3.303   5.071  0.0072 -0.1496 -0.1494
  291SOL    HW1 1772   1.506   3.336   5.165 -0.5152  0.4079 -0.3858
  291SOL    HW2 1773   1.586   3.234   5.067 -0.2370 -0.4696  0.7320
  292SOL     OW 1774   0.416   1.525   2.806 -0.7610  0.8861 -0.4960
  292SOL    HW1 1775   0.330   1.477   2.790 -0.4736 -0.0718  0.6986
  292SOL    HW2 1776   0.492   1.466   2.778 -0.4423  1.2148 -0.3232
  293SOL     OW 1777   5.456   4.645   2.049 -0.2080 -0.2117  0.3810
  293SOL    HW1 1778   5.456   4.556   2.005  2.1066 -0.7738  1.4029
  293SOL    HW2 1779   5.423   4.714   1.985 -1.3839 -1.6646 -0.6463
  294SOL     OW 1780   5.328   3.947   6.316  0.3009 -0.6107  0.5630
  294SOL    HW1 1781   5.337   4.035   6.270  2.5091 -0.1201  1.7976
  294SOL    HW2 1782   5.250   3.897   6.278 -1.0090  1.8393 -0.1844
  295SOL     OW 1783   3.601   2.041   3.506 -0.3188  0.2648  0.2326
  295SOL    HW1 1784   3.648   1.959   3.542 -1.3515 -0.9239 -1.0274
  295SOL    HW2 1785   3.513   2.051   3.551  1.2609  2.9360  3.1569
  296SOL     OW 1786   5.424   1.331   1.061 -0.2749  0.3426  0.2957
  296SOL    HW1 1787   5.347   1.281   1.100 -0.8649  1.4217  0.5548
  296SOL    HW2 1788   5.508   1.280   1.078 -0.8805 -0.6777  0.3240
  297SOL     OW 1789   2.268   5.198   2.728 -0.3810 -0.0973  0.7867
  297SOL    HW1 1790   2.296   5.122   2.671  0.1150  0.9837 -0.4536
  297SOL    HW2 1791   2.251   5.165   2.821  2.1783 -1.3107  0.9063
  298SOL     OW 1792   3.273   5.956   2.764 -0.1793 -0.1629  0.2982
  298SOL    HW1 1793   3.226   5.895   2.700  1.1301 -0.4796 -0.3981
  298SOL    HW2 1794   3.235   5.944   2.855 -1.4241 -0.4149 -0.2365
  299SOL     OW 1795   0.811   2.495   6.251  0.5384 -0.4240 -0.0430
  299SOL    HW1 1796   0.901   2.464   6.280  0.2051 -1.0201  0.3916
  299SOL    HW2 1797   0.778   2.565   6.315  1.1988  0.7029 -0.9003
  300SOL     OW 1798   6.159   3.042   0.783  0.8106 -0.0443  0.0459
  300SOL    HW1 1799   6.210   3.096   0.716  2.4719 -1.4125  0.1418
  300SOL    HW2 1800   6.223   2.994   0.843 -0.5949 -1.7212  0.2900
  301SOL     OW 1801   5.860   2.897   1.900  0.4234  0.0739  0.5177
  301SOL    HW1 1802   5.775   2.868   1.943  0.7310 -0.9827  0.4444
  301SOL    HW2 1803   5.930   2.911   1.970 -0.0077  1.7410  0.6587
  302SOL     OW 1804   0.997   6.402   3.521 -0.2145 -0.7244 -0.0771
  302SOL    HW1 1805   1.077   6.457   3.498 -0.1901 -0.4802  0.5831
  302SOL    HW2 1806   1.012   6.307   3.493  0.7548 -0.9138  1.0085
  303SOL     OW 1807   6.656   4.995   0.929  0.6151  0.2518 -0.4926
  303SOL    HW1 1808   6.622   5.071   0.985  3.1887  1.8620 -0.9200
  303SOL    HW2 1809   6.592   4.918   0.934 -1.2044  1.7649  1.4235
  304SOL     OW 1810   2.263   6.532   4.098  0.1136 -0.0032 -0.2802
  304SOL    HW1 1811   2.227   6.621   4.125 -0.1031 -0.9040  2.7006
  304SOL    HW2 1812   2.312   6.490   4.175  1.6120 -1.8167 -2.0729
  305SOL     OW 1813   1.001   3.626   1.593  0.5534 -0.0476  0.6274
  305SOL    HW1 1814   0.977   3.720   1.570 -1.3781 -0.2303  1.6917
  305SOL    HW2 1815   1.002   3.570   1.510  0.8546  0.7093  0.1114
  306SOL     OW 1816   2.639   2.414   3.638 -0.1600 -0.1826 -0.3925
  306SOL    HW1 1817   2.692   2.335   3.667 -1.6695 -1.7029 -1.5916
  306SOL    HW2 1818   2.653   2.431   3.541 -1.8474 -0.6530 -0.7485
  307SOL     OW 1819   4.391   6.900   1.447  0.8485 -0.2781  0.0257
  307SOL    HW1 1820   4.335   6.920   1.527  1.3865 -0.7498  0.5306
  307SOL    HW2 1821   4.488   6.904   1.473  1.0616  0.5735 -0.8368
  308SOL     OW 1822   5.259   4.323   5.850  0.0284  0.0918 -0.1864
  308SOL    HW1 1823   5.210   4.254   5.797 -1.2871  1.9008 -1.4340
  308SOL    HW2 1824   5.274   4.290   5.943 -0.4235 -1.8938 -0.7751
  309SOL     OW 1825   3.562   4.916   5.684  0.3136  0.2843 -0.0203
  309SOL    HW1 1826   3.614   4.852   5.627 -0.7136 -0.6621  0.0667
  309SOL    HW2 1827   3.488   4.956   5.631  0.6455  1.0357  0.0707
  310SOL     OW 1828   0.267   6.653   6.345 -0.0030  0.2798  0.1049
  310SOL    HW1 1829   0.216   6.738   6.353  1.5773  1.1314  1.7434
  310SOL    HW2 1830   0.220   6.592   6.282 -0.6815  2.6958 -1.8562
  311SOL     OW 1831   4.129   5.649   4.400  0.2808  0.4631 -0.0905
  311SOL    HW1 1832   4.157   5.675   4.492 -1.4303  0.0768  0.5688
  311SOL    HW2 1833   4.106   5.552   4.398 -1.0030  0.7601 -0.5779
  312SOL     OW 1834   3.285   0.606   5.847 -0.3292  0.4623 -0.1263
  312SOL    HW1 1835   3.274   0.530   5.783 -1.6421  0.2019  0.3809
  312SOL    HW2 1836   3.196   0.646   5.867  0.0313  0.5007  1.5800
  313SOL     OW 1837   3.481   4.158   2.408 -0.3267 -0.2295 -0.4207
  313SOL    HW1 1838   3.522   4.157   2.499 -0.6460 -0.6445 -0.2782
  313SOL    HW2 1839   3.383   4.176   2.415 -0.2179  0.5396 -0.7450
  314SOL     OW 1840   2.580   5.827   6.112  0.1887 -0.0343  0.0946
  314SOL    HW1 1841   2.545   5.904   6.165 -0.1722 -0.4432  0.4726
  314SOL    HW2 1842   2.671   5.802   6.145 -0.1802 -0.5169  0.7955
  315SOL     OW 1843   1.336   4.029   3.638  0.1804  0.2460  0.0684
  315SOL    HW1 1844   1.375   4.122   3.631 -0.5219  0.4204 -2.8411
  315SOL    HW2 1845   1.394   3.966   3.587  0.5820 -0.9585  1.9336
  316SOL     OW 1846   2.923   1.764   2.722  0.6768  0.1084 -0.5693
  316SOL    HW1 1847   2.930   1.811   2.811 -0.2176  0.3526 -0.6148
  316SOL    HW2 1848   2.980   1.811   2.655 -0.5166  1.4076 -0.7123
  317SOL     OW 1849   0.614   0.679   1.127 -0.1765 -0.1664 -0.6172
  317SOL    HW1 1850   0.545   0.672   1.199  2.3190 -1.6980  1.8367
  317SOL    HW2 1851   0.623   0.592   1.079 -0.3537  0.2108 -1.3560
  318SOL     OW 1852   0.614   5.795   0.359 -0.5029 -0.0538  0.0287
  318SOL    HW1 1853   0.626   5.733   0.281  2.0512  0.7639 -0.3080
  318SOL    HW2 1854   0.684   5.777   0.428 -0.7235  1.3696  0.6742
  319SOL     OW 1855   6.942   5.760   3.691  0.5670 -0.2763 -0.0402
  319SOL    HW1 1856   7.018   5.740   3.630  0.3005 -1.7038  0.0526
  319SOL    HW2 1857   6.973   5.819   3.765  1.2922  0.0919 -0.6186
  320SOL     OW 1858   6.342   2.923   0.993  0.5845  0.7899 -0.5003
  320SOL    HW1 1859   6.253   2.889   1.025  0.0679  1.8776 -0.7257
  320SOL    HW2 1860   6.415   2.879   1.044 -0.0748 -0.2832 -0.4505
  321SOL     OW 1861   4.635   0.691   2.428  0.3909  0.3876  0.3777
  321SOL    HW1 1862   4.569   0.678   2.501 -1.3886  2.7634 -0.6582
  321SOL    HW2 1863   4.626   0.618   2.360 -0.8128  0.3893  0.5269
  322SOL     OW 1864   2.266   3.637   6.042  0.5873  0.9207 -0.5213
  322SOL    HW1 1865   2.271   3.698   5.963  2.9942  1.1129 -0.3196
  322SOL    HW2 1866   2.174   3.640   6.081 -0.9790  0.0857 -3.8218
  323SOL     OW 1867   6.429   3.572   5.660  0.1213  0.1952 -0.3878
  323SOL    HW1 1868   6.454   3.479   5.632 -1.8929 -0.6459  0.4053
  323SOL    HW2 1869   6.451   3.636   5.587  1.6971 -0.8562 -0.8872
  324SOL     OW 1870   0.792   1.469   6.206  0.3816  0.1621  0.1506
  324SOL    HW1 1871   0.831   1.450   6.116 -0.2383 -0.6279  0.0430
  324SOL    HW2 1872   0.796   1.386   6.263 -1.7425 -0.1481 -0.0933
  325SOL     OW 1873   1.070   2.575   0.966  0.2764 -0.5929 -0.5721
  325SOL    HW1 1874   1.143   2.569   0.898  1.6427  1.8586  0.5457
  325SOL    HW2 1875   0.986   2.606   0.922  0.8883  0.0281 -1.3370
  326SOL     OW 1876   5.849   3.543   0.514  0.0580 -0.2358 -0.1838
  326SOL    HW1 1877   5.825   3.453   0.549  2.0631 -0.2864  1.1812
  326SOL    HW2 1878   5.890   3.534   0.423  0.9311 -0.7751  0.2618
  327SOL     OW 1879   1.029   6.040   5.517 -0.1976 -0.5705 -0.0588
  327SOL    HW1 1880   0.940   6.048   5.562  0.1521  0.3464  0.4875
  327SOL    HW2 1881   1.029   6.097   5.434  0.3858  0.6788  0.7751
  328SOL     OW 1882   1.578   5.090   0.131  0.4964  0.2451 -0.1494
  328SOL    HW1 1883   1.507   5.157   0.153 -0.9315 -0.9486 -0.9070
  328SOL    HW2 1884   1.596   5.091   0.032  2.1887  1.1140  0.1293
  329SOL     OW 1885   3.507   4.160   3.442  0.1970 -0.7097 -0.6443
  329SOL    HW1 1886   3.422   4.175   3.491  0.6286  0.2299 -0.1631
  329SOL    HW2 1887   3.583   4.154   3.507  0.6474 -0.4186 -1.1387
  330SOL     OW 1888   4.770   6.532   0.311  0.5086  0.0077 -0.6531
  330SOL    HW1 1889   4.792   6.549   0.407 -0.3744 -0.6337 -0.3193
  330SOL    HW2 1890   4.808   6.605   0.255 -0.8915  1.6842  0.4412
  331SOL     OW 1891   4.368   6.310   0.152 -0.2631 -0.2605 -0.5254
  331SOL    HW1 1892   4.362   6.348   0.059 -1.4273 -2.1935 -1.3031
  331SOL    HW2 1893   4.462   6.278   0.169  0.5276  2.0502 -0.1563
  332SOL     OW 1894   4.476   0.276   4.547  0.2913  0.0517 -0.0665
  332SOL    HW1 1895   4.524   0.358   4.578 -0.8375  0.0032  1.9794
  332SOL    HW2 1896   4.520   0.195   4.586 -0.0967 -0.1396 -0.0205
  333SOL     OW 1897   3.991   0.568   5.852  0.4798 -0.1444  0.3137
  333SOL    HW1 1898   4.033   0.647   5.806  0.5683  0.7486  1.8711
  333SOL    HW2 1899   4.036   0.485   5.821  1.0151  0.4835 -0.6743
  334SOL     OW 1900   1.802   1.183   1.807 -0.6202  0.3879 -0.5798
  334SOL    HW1 1901   1.717   1.233   1.791  1.2051  3.5152 -1.2682
  334SOL    HW2 1902   1.855   1.228   1.879  1.1001 -0.6042 -1.1528
  335SOL     OW 1903   4.087   0.857   6.449 -0.1033  0.3635  0.0092
  335SOL    HW1 1904   4.064   0.830   6.356  1.7558  0.8531 -0.6437
  335SOL    HW2 1905   4.096   0.957   6.453 -0.5264  0.3709  0.7971
  336SOL     OW 1906   4.230   2.256   4.757  0.1285  0.1736  0.0186
  336SOL    HW1 1907   4.324   2.244   4.727  0.1768  0.5577  0.0154
  336SOL    HW2 1908   4.225   2.330   4.825 -0.3640  1.0937 -0.9761
  337SOL     OW 1909   6.499   3.554   0.529  0.2212 -0.9363 -0.3363
  337SOL    HW1 1910   6.410   3.540   0.487 -0.4788 -1.5941  1.3004
  337SOL    HW2 1911   6.562   3.591   0.461 -1.6623  0.9199 -1.1882
  338SOL     OW 1912   2.194   3.337   0.602 -0.0347 -0.6918  0.3202
  338SOL    HW1 1913   2.227   3.424   0.563 -0.6618  0.1023  1.5108
  338SOL    HW2 1914   2.265   3.299   0.661  0.1412 -0.8613  0.0022
  339SOL     OW 1915   3.759   0.486   3.103  0.0409 -0.1074 -0.0919
  339SOL    HW1 1916   3.842   0.510   3.154  0.4628  2.0743 -1.6613
  339SOL    HW2 1917   3.685   0.469   3.167  1.3358 -0.7156  1.3113
  340SOL     OW 1918   0.040   3.159   0.470 -0.3517  0.1581  0.1360
  340SOL    HW1 1919   0.028   3.216   0.551 -1.5139  1.1522 -0.7121
  340SOL    HW2 1920  -0.047   3.152   0.421  0.9405  2.0352 -2.6431
  341SOL     OW 1921   6.698   0.898   4.977 -0.2189 -0.2148 -0.0876
  341SOL    HW1 1922   6.750   0.966   4.927 -0.2618 -0.0853  0.0411
  341SOL    HW2 1923   6.625   0.943   5.029 -0.0807 -0.3274  0.2088
  342SOL     OW 1924   0.159   4.519   6.661 -0.7130  0.4795  0.0025
  342SOL    HW1 1925   0.224   4.579   6.708  0.1238 -0.5960  0.2536
  342SOL    HW2 1926   0.168   4.531   6.562 -0.5111  0.7315  0.0510
  343SOL     OW 1927   3.186   0.526   2.171  0.2353 -0.2298 -0.2011
  343SOL    HW1 1928   3.242   0.530   2.089  0.0680 -1.4771 -0.3902
  343SOL    HW2 1929   3.103   0.474   2.152  1.2536 -2.5940  1.3422
  344SOL     OW 1930   6.699   5.206   1.358  0.3695  0.1998  0.2967
  344SOL    HW1 1931   6.762   5.248   1.423  2.6186 -2.2945 -0.0618
  344SOL    HW2 1932   6.658   5.125   1.399 -0.8697  0.5056 -0.2900
  345SOL     OW 1933   6.889   1.312   3.499 -0.3338 -0.2929 -0.2070
  345SOL    HW1 1934   6.803   1.276   3.462 -0.6677  1.7398 -1.5842
  345SOL    HW2 1935   6.960   1.304   3.429 -0.2905  1.1398 -0.3463
  346SOL     OW 1936   0.762   2.143   1.396 -0.5714  0.1479  0.2702
  346SOL    HW1 1937   0.814   2.064   1.363  0.2461  0.5223  0.6418
  346SOL    HW2 1938   0.665   2.125   1.385 -0.3815  0.4950 -2.9706
  347SOL     OW 1939   2.794   4.409   0.500  0.2968  0.2251  0.2370
  347SOL    HW1 1940   2.824   4.446   0.412  2.2832 -3.2659 -0.7618
  347SOL    HW2 1941   2.710   4.356   0.487  0.5493 -0.2276  0.4317
  348SOL     OW 1942   0.009   3.651   0.491 -0.3632 -0.0941  0.4226
  348SOL    HW1 1943   0.065   3.574   0.520 -0.2388 -0.2470 -0.2050
  348SOL    HW2 1944   0.016   3.662   0.392 -1.1609  0.1074  0.3803
  349SOL     OW 1945   5.665   4.027   0.983  0.4077  0.4456  0.2716
  349SOL    HW1 1946   5.713   4.007   1.068  1.3796 -0.7253 -0.5302
  349SOL    HW2 1947   5.686   4.121   0.954  0.6950  0.5815  0.8988
  350SOL     OW 1948   4.689   2.518   0.001  0.6618 -0.0129  0.4939
  350SOL    HW1 1949   4.659   2.486  -0.089  2.7508 -1.2060  0.1432
  350SOL    HW2 1950   4.682   2.443   0.067  2.6147 -0.3345  0.4082
  351SOL     OW 1951   0.785   3.494   4.260 -0.5485  0.2834  0.2976
  351SOL    HW1 1952   0.726   3.556   4.208 -0.8757  0.6630  1.1081
  351SOL    HW2 1953   0.864   3.543   4.295 -0.5054  0.1119  0.4449
  352SOL     OW 1954   2.065   0.130   4.262 -1.2869 -0.0264  0.3830
  352SOL    HW1 1955   2.108   0.208   4.309  0.7167 -1.7846  1.6449
  352SOL    HW2 1956   2.064   0.147   4.163  1.6780  0.4720  0.3623
  353SOL     OW 1957   2.737   5.383   6.760 -0.6870  0.1108 -0.3240
  353SOL    HW1 1958   2.770   5.473   6.731 -1.8517 -0.6872 -5.0428
  353SOL    HW2 1959   2.811   5.316   6.750 -0.5596  0.1049  0.5988
  354SOL     OW 1960   2.797   3.721   0.892 -0.0037 -0.2672 -0.0349
  354SOL    HW1 1961   2.823   3.749   0.800 -0.7345 -1.5251 -0.6378
  354SOL    HW2 1962   2.873   3.672   0.935  0.5221  0.7617  0.2472
  355SOL     OW 1963   0.828   4.612   3.062 -0.6970  0.1120 -0.2538
  355SOL    HW1 1964   0.808   4.559   3.145  2.6131 -2.4084 -0.8900
  355SOL    HW2 1965   0.907   4.671   3.078  1.0852 -1.6670 -1.9690
  356SOL     OW 1966   3.640   1.487   5.815  0.7944 -0.9758 -0.4525
  356SOL    HW1 1967   3.556   1.474   5.868  1.0139 -2.6696 -0.4744
  356SOL    HW2 1968   3.718   1.453   5.868  1.1080 -1.9957 -1.5334
  357SOL     OW 1969   5.189   6.703   5.416  0.3556  0.0633 -0.0289
  357SOL    HW1 1970   5.164   6.636   5.347  0.8847  0.9068 -1.0780
  357SOL    HW2 1971   5.272   6.751   5.387  0.0107  1.1369  0.7072
  358SOL     OW 1972   5.101   6.903   1.376 -0.6363  0.7789 -0.1810
  358SOL    HW1 1973   5.016   6.953   1.395 -0.8284 -0.3548  2.4110
  358SOL    HW2 1974   5.083   6.804   1.380  0.8658  0.5098  0.9820
  359SOL     OW 1975   1.294   3.517   1.280  0.2992 -0.2988  0.2425
  359SOL    HW1 1976   1.388   3.541   1.257  0.3012 -0.1381  0.4267
  359SOL    HW2 1977   1.235   3.597   1.268  0.1295 -0.4845 -0.1991
  360SOL     OW 1978   1.116   6.802   4.987 -0.0666  0.2774 -0.6167
  360SOL    HW1 1979   1.112   6.800   5.087  1.6865  2.9740 -0.3943
  360SOL    HW2 1980   1.031   6.765   4.949 -0.4736 -1.5035  1.7961
  361SOL     OW 1981   6.705   6.187   2.378 -0.1595 -0.3341 -0.4591
  361SOL    HW1 1982   6.668   6.140   2.298 -0.9561  0.1119 -0.3579
  361SOL    HW2 1983   6.638   6.185   2.452  0.1646  0.1609 -0.1462
  362SOL     OW 1984   4.035   3.201   0.553 -0.0660  0.6800  0.6743
  362SOL    HW1 1985   4.027   3.231   0.648  2.4709  1.6074  0.6577
  362SOL    HW2 1986   4.056   3.279   0.494  2.3526 -0.4025 -0.0191
  363SOL     OW 1987   6.511   5.073   1.819  0.1409  0.1896 -0.0928
  363SOL    HW1 1988   6.428   5.039   1.774  0.2724  0.4976 -0.5796
  363SOL    HW2 1989   6.516   5.037   1.912 -0.4086 -0.0370 -0.1476
  364SOL     OW 1990   5.358   5.290   0.099 -0.2254  0.0420 -0.5432
  364SOL    HW1 1991   5.386   5.227   0.171 -0.3380  0.5969 -0.0010
  364SOL    HW2 1992   5.266   5.266   0.068 -0.1050 -0.3098 -0.6229
  365SOL     OW 1993   0.593   5.241   3.509  0.4943 -0.1249  0.4985
  365SOL    HW1 1994   0.660   5.187   3.560  0.3736 -0.5591  0.2065
  365SOL    HW2 1995   0.640   5.315   3.461  0.6853 -0.0676  0.7766
  366SOL     OW 1996   6.619   0.613   0.140  0.0535 -0.7515  0.3329
  366SOL    HW1 1997   6.527   0.640   0.170 -0.0641  0.6411 -1.1098
  366SOL    HW2 1998   6.618   0.595   0.042  1.1904 -1.3700  0.4223
  367SOL     OW 1999   4.712   5.605   0.184  0.2757  0.9975 -0.5035
  367SOL    HW1 2000   4.795   5.596   0.129  0.1253  1.4669 -0.8134
  367SOL    HW2 2001   4.715   5.540   0.260  1.2833  1.5450 -0.0630
  368SOL     OW 2002   6.485   2.482   3.913  0.1976  0.5637 -0.4949
  368SOL    HW1 2003   6.559   2.549   3.906  0.1823  0.4312 -3.2555
  368SOL    HW2 2004   6.407   2.512   3.858 -0.8147 -0.5147  0.2978
  369SOL     OW 2005   0.306   5.654   0.580 -0.0251  0.2928  0.1978
  369SOL    HW1 2006   0.285   5.751   0.565  0.6587  0.2506 -1.2046
  369SOL    HW2 2007   0.266   5.600   0.506 -0.1610 -0.4679  0.8202
  370SOL     OW 2008   2.790   1.538   6.470  0.2003  0.3839  0.3583
  370SOL    HW1 2009   2.841   1.463   6.428  0.1971  0.3978  0.3291
  370SOL    HW2 2010   2.764   1.603   6.399 -0.0569  0.2600  0.3374
  371SOL     OW 2011   3.631   2.166   0.377 -0.1047 -0.2509  0.0617
  371SOL    HW1 2012   3.686   2.100   0.428 -1.5670 -2.9405 -1.5758
  371SOL    HW2 2013   3.554   2.196   0.432  0.3933 -0.1895  0.7263
  372SOL     OW 2014   1.500   0.785   6.256  0.0474 -0.1234  0.1850
  372SOL    HW1 2015   1.466   0.879   6.252 -1.3167 -0.6066  0.0946
  372SOL    HW2 2016   1.485   0.747   6.347 -0.1129 -0.5178 -0.0051
  373SOL     OW 2017   6.227   5.934   5.113 -0.4069  0.2239 -0.1287
  373SOL    HW1 2018   6.180   5.994   5.177  1.8610  2.1816 -0.1588
  373SOL    HW2 2019   6.325   5.939   5.129 -0.0095 -2.0006 -1.4803
  374SOL     OW 2020   2.141   1.722   2.814 -0.8219  0.0612 -0.0316
  374SOL    HW1 2021   2.085   1.771   2.880 -0.5592  0.4953 -0.1289
  374SOL    HW2 2022   2.116   1.625   2.814 -0.2696 -0.0930  1.2812
  375SOL     OW 2023   5.433   4.523   2.971 -0.0409  0.5220  0.1960
  375SOL    HW1 2024   5.491   4.597   2.936 -0.5237  0.0367 -1.6891
  375SOL    HW2 2025   5.488   4.440   2.980 -0.0906  0.4628 -0.0688
  376SOL     OW 2026   2.630   0.862   4.012 -0.0024  0.1583 -1.0118
  376SOL    HW1 2027   2.698   0.915   3.961  0.5838 -0.7018 -1.1639
  376SOL    HW2 2028   2.654   0.764   4.006  0.3453  0.0445  1.2787
  377SOL     OW 2029   6.981   3.504   1.615 -0.1401 -0.1834  0.1521
  377SOL    HW1 2030   7.049   3.571   1.643  0.3850  0.3103 -2.0978
  377SOL    HW2 2031   6.940   3.532   1.528 -1.2727 -1.8508  0.0932
  378SOL     OW 2032   1.918   2.477   5.970 -0.0621  0.2270 -0.3201
  378SOL    HW1 2033   2.017   2.487   5.959  0.2654 -0.3006  1.8035
  378SOL    HW2 2034   1.872   2.531   5.900  1.7066  0.4363 -1.4027
  379SOL     OW 2035   5.516   3.177   6.735  0.9088  0.1945  0.2858
  379SOL    HW1 2036   5.429   3.142   6.702  1.1989 -1.0008  0.7516
  379SOL    HW2 2037   5.548   3.122   6.812  1.9666  0.7546  0.2739
  380SOL     OW 2038   2.636   1.032   1.153 -0.5692 -0.0829  0.4886
  380SOL    HW1 2039   2.650   1.067   1.060  0.7980 -0.7424  0.4301
  380SOL    HW2 2040   2.543   0.996   1.161 -0.7515  0.1251 -0.5796
  381SOL     OW 2041   0.131   3.228   3.741 -0.5278  0.1910 -0.2255
  381SOL    HW1 2042   0.109   3.323   3.718  0.7116  0.5796  0.1128
  381SOL    HW2 2043   0.064   3.167   3.697  0.3077  1.0237 -2.8584
  382SOL     OW 2044   5.351   6.955   6.506  0.3411 -0.1158 -0.2549
  382SOL    HW1 2045   5.269   6.901   6.491 -0.8739  1.5926 -0.0643
  382SOL    HW2 2046   5.413   6.906   6.567 -0.8255 -1.1528  0.1310
  383SOL     OW 2047   2.447   3.082   5.862  0.3074 -0.2953  0.0768
  383SOL    HW1 2048   2.540   3.104   5.893  1.7099 -2.6035 -2.0696
  383SOL    HW2 2049   2.436   3.112   5.767 -1.0099 -0.4238  0.1740
  384SOL     OW 2050   0.011   4.304   4.336  0.0860 -0.2788  0.0088
  384SOL    HW1 2051   0.005   4.394   4.380 -1.6551 -0.2936 -0.1354
  384SOL    HW2 2052   0.072   4.310   4.257  1.3443  0.3322  0.9804
  385SOL     OW 2053   4.570   5.453   5.644  0.4442 -0.2675  0.1921
  385SOL    HW1 2054   4.605   5.472   5.735 -0.1388  0.8385  0.1964
  385SOL    HW2 2055   4.647   5.440   5.581  0.8888  1.3265  0.3603
  386SOL     OW 2056   3.772   5.690   6.095 -0.1996 -0.4408  0.0332
  386SOL    HW1 2057   3.698   5.702   6.161  0.4701  1.7951  0.4435
  386SOL    HW2 2058   3.859   5.718   6.135  0.2770  0.6911 -1.6634
  387SOL     OW 2059   2.759   1.044   3.430  0.8149 -0.4532 -0.1642
  387SOL    HW1 2060   2.851   1.071   3.456  0.2128  0.8582  0.6878
  387SOL    HW2 2061   2.736   1.084   3.341  1.1797 -1.0693 -0.5428
  388SOL     OW 2062   2.348   2.231   3.521 -0.5311 -0.1363 -0.5700
  388SOL    HW1 2063   2.351   2.330   3.539 -1.9487 -0.3928  1.4043
  388SOL    HW2 2064   2.432   2.203   3.476  0.7087  1.6652  0.4911
  389SOL     OW 2065   4.228   4.744   1.950 -0.4047 -0.4894 -0.1868
  389SOL    HW1 2066   4.150   4.759   2.010  0.5676 -0.1899  1.0468
  389SOL    HW2 2067   4.200   4.757   1.854 -1.5387  0.9121  0.3048
  390SOL     OW 2068   3.292   0.736   6.511  0.4775 -0.3321 -0.0585
  390SOL    HW1 2069   3.330   0.681   6.437  1.7837 -1.4229  1.3350
  390SOL    HW2 2070   3.359   0.806   6.537  0.2758 -0.3261  0.4535
  391SOL     OW 2071   1.017   5.177   4.686 -0.9496  0.1897  0.1698
  391SOL    HW1 2072   0.997   5.221   4.773  1.4315 -2.9059  2.5339
  391SOL    HW2 2073   1.104   5.212   4.650 -0.0233 -1.0915  1.0696
  392SOL     OW 2074   0.834   3.385   0.615 -0.4675 -0.1953 -0.5540
  392SOL    HW1 2075   0.921   3.357   0.574 -0.5542  0.9364 -1.5388
  392SOL    HW2 2076   0.791   3.305   0.658  1.9167 -0.4419  1.6713
  393SOL     OW 2077   1.312   5.474   0.491  0.4389  1.0949  0.0836
  393SOL    HW1 2078   1.403   5.438   0.469 -0.9715 -3.0982  0.3658
  393SOL    HW2 2079   1.261   5.488   0.406  0.2246  0.1024  0.0414
  394SOL     OW 2080   1.109   2.345   0.081  0.1612 -0.2654 -0.1437
  394SOL    HW1 2081   1.146   2.308   0.167 -1.1142 -0.8757  0.1608
  394SOL    HW2 2082   1.179   2.402   0.037  0.0146  2.3215  2.6261
  395SOL     OW 2083   3.339   5.153   2.902 -0.3105  0.1884 -0.2126
  395SOL    HW1 2084   3.282   5.234   2.917  0.2722  1.1577 -2.6924
  395SOL    HW2 2085   3.424   5.181   2.856  0.8574 -1.6020  0.7332
  396SOL     OW 2086   3.479   2.536   1.510 -0.0414 -0.7521 -0.2117
  396SOL    HW1 2087   3.553   2.511   1.573 -0.6792 -0.8368  0.5278
  396SOL    HW2 2088   3.471   2.635   1.506  0.3546 -0.7369 -0.5788
  397SOL     OW 2089   5.066   1.997   6.391 -0.0471 -0.2510  0.3264
  397SOL    HW1 2090   5.062   1.982   6.292 -0.5029  1.4769  0.0570
  397SOL    HW2 2091   4.989   1.950   6.435 -1.2662  0.9915 -0.4343
  398SOL     OW 2092   2.665   0.264   5.123  0.0517 -0.0316  0.3170
  398SOL    HW1 2093   2.609   0.245   5.042  0.5940  0.9596 -0.3112
  398SOL    HW2 2094   2.617   0.327   5.183 -0.6613 -1.3325  1.1450
  399SOL     OW 2095   3.294   0.197   5.923  0.4501  0.2426 -0.2368
  399SOL    HW1 2096   3.267   0.106   5.891 -1.9640  0.7907  0.0566
  399SOL    HW2 2097   3.339   0.247   5.848  1.6345 -1.0864 -0.4496
  400SOL     OW 2098   6.410   4.518   5.123  0.4120 -0.4002 -0.2828
  400SOL    HW1 2099   6.494   4.469   5.100  1.0048  0.2709  0.3890
  400SOL    HW2 2100   6.412   4.547   5.218 -0.8016 -0.7761 -0.1210
  401SOL     OW 2101   6.276   5.993   5.867  0.0878  0.3931 -0.6613
  401SOL    HW1 2102   6.268   6.093   5.870  0.0639  0.3829 -0.3000
  401SOL    HW2 2103   6.363   5.965   5.907 -0.5128  0.1973  0.5680
  402SOL     OW 2104   0.536   1.705   3.323  0.6023  0.0804  0.1359
  402SOL    HW1 2105   0.589   1.620   3.334  1.8583  0.8094 -0.0510
  402SOL    HW2 2106   0.526   1.725   3.226 -0.7238 -0.4544  0.1444
  403SOL     OW 2107   3.998   5.809   5.885 -0.1294 -0.0119 -0.1157
  403SOL    HW1 2108   3.978   5.907   5.893  0.2270  0.1710 -1.2654
  403SOL    HW2 2109   4.057   5.781   5.962 -0.9015  0.4767  0.6772
  404SOL     OW 2110   6.976   5.388   6.742 -0.0053  1.0386  0.3365
  404SOL    HW1 2111   6.915   5.311   6.723 -2.0650  2.4504  0.9248
  404SOL    HW2 2112   7.057   5.381   6.684 -0.6459 -0.9642 -0.4051
  405SOL     OW 2113   0.177   3.066   1.565 -0.1468 -0.0383 -0.0408
  405SOL    HW1 2114   0.204   3.061   1.661  0.2000 -0.8829 -0.1691
  405SOL    HW2 2115   0.208   3.153   1.526 -0.7002  0.5097  0.7241
  406SOL     OW 2116   6.668   3.248   4.500 -0.1911  0.2576  0.0162
  406SOL    HW1 2117   6.697   3.256   4.404  0.4463 -0.2100  0.1596
  406SOL    HW2 2118   6.625   3.159   4.513  2.3153 -0.9233  0.7887
  407SOL     OW 2119   1.725   1.897   4.918 -0.5761 -0.1192  0.7163
  407SOL    HW1 2120   1.787   1.894   4.996 -1.8300 -2.3359  1.7062
  407SOL    HW2 2121   1.706   1.993   4.895  2.4336  0.6215  0.9227
  408SOL     OW 2122   4.737   0.915   3.815  0.0755 -0.8248  0.1990
  408SOL    HW1 2123   4.799   0.971   3.761  1.3163 -0.6007  1.7780
  408SOL    HW2 2124   4.656   0.892   3.761  0.9558 -0.0757 -1.4864
  409SOL     OW 2125   6.320   3.641   1.266  0.1194  0.0392  0.2474
  409SOL    HW1 2126   6.395   3.622   1.329 -0.3737  0.8271  1.1052
  409SOL    HW2 2127   6.248   3.693   1.314 -2.1879 -2.8828  0.2301
  410SOL     OW 2128   6.957   2.966   1.807 -0.5707 -0.2549  0.2228
  410SOL    HW1 2129   6.956   3.017   1.721  0.7157  2.6243  1.7754
  410SOL    HW2 2130   6.886   3.002   1.867 -0.4071 -1.1261  0.9481
  411SOL     OW 2131   0.950   2.057   2.365  0.2273  0.3398  0.2233
  411SOL    HW1 2132   0.974   2.087   2.458  1.9770 -0.1156 -0.0339
  411SOL    HW2 2133   1.017   1.990   2.334  0.8212  1.8498 -2.0604
  412SOL     OW 2134   3.829   4.927   3.484  0.2706 -0.9817  0.3257
  412SOL    HW1 2135   3.899   4.866   3.445  0.9130  0.6261 -1.1773
  412SOL    HW2 2136   3.873   5.011   3.516 -0.8248 -0.5391  0.6821
  413SOL     OW 2137   5.361   4.718   1.522 -0.2044 -0.1476 -0.2107
  413SOL    HW1 2138   5.435   4.783   1.503 -0.4900  0.7846  1.6316
  413SOL    HW2 2139   5.336   4.670   1.438  1.9849  0.0352 -1.0224
  414SOL     OW 2140   3.772   0.312   1.981  0.1560 -0.1787  0.1399
  414SOL    HW1 2141   3.676   0.287   1.979  0.0149  0.3039  0.6479
  414SOL    HW2 2142   3.824   0.249   1.923 -0.3743 -0.8332  0.3558
  415SOL     OW 2143   1.008   0.446   6.168 -0.3792  0.2969 -0.4724
  415SOL    HW1 2144   1.022   0.480   6.261  0.2989  3.0381 -1.4833
  415SOL    HW2 2145   1.072   0.373   6.149  0.2376  0.4705  0.8530
  416SOL     OW 2146   2.264   6.155   6.445  0.7673 -0.7995  0.1981
  416SOL    HW1 2147   2.245   6.126   6.539 -0.0486 -0.2294  0.2246
  416SOL    HW2 2148   2.298   6.077   6.392  0.3602 -1.3490  0.7295
  417SOL     OW 2149   0.946   1.489   4.830  0.0434  0.5944  0.1022
  417SOL    HW1 2150   0.958   1.585   4.803 -0.3556  0.5647 -0.1858
  417SOL    HW2 2151   1.029   1.438   4.807  0.6154  1.0555  1.0944
  418SOL     OW 2152   1.800   5.951   6.531 -0.5327  0.2231 -0.4599
  418SOL    HW1 2153   1.848   5.874   6.489 -0.6072 -0.1921  0.1950
  418SOL    HW2 2154   1.750   5.919   6.612  0.8333  1.2638  0.8623
  419SOL     OW 2155   3.560   1.235   3.411  0.1687  0.2165  0.2684
  419SOL    HW1 2156   3.526   1.197   3.325  1.8748 -0.3181 -0.2065
  419SOL    HW2 2157   3.577   1.161   3.476  0.9890  0.4087  0.2793
  420SOL     OW 2158   5.411   4.141   6.823  0.0562  0.5940  0.0292
  420SOL    HW1 2159   5.444   4.179   6.910  0.0586 -0.1227  0.3485
  420SOL    HW2 2160   5.312   4.155   6.816 -0.2907 -1.0957  1.0747
  421SOL     OW 2161   0.598   3.625   4.716 -0.1458 -0.0194  0.1879
  421SOL    HW1 2162   0.672   3.666   4.771 -0.9714  0.3525  1.0488
  421SOL    HW2 2163   0.637   3.558   4.653  1.2834  2.0647 -1.2929
  422SOL     OW 2164   4.200   1.729   6.926  0.3357 -0.0829 -0.2274
  422SOL    HW1 2165   4.282   1.774   6.963  1.0225 -0.5489 -1.1540
  422SOL    HW2 2166   4.151   1.794   6.869  0.4607 -0.0274 -0.2734
  423SOL     OW 2167   2.454   2.376   0.053  0.1067 -0.2127  0.6925
  423SOL    HW1 2168   2.541   2.331   0.075  0.8420  0.4978 -0.5964
  423SOL    HW2 2169   2.383   2.308   0.039  0.9853 -0.9370 -0.3758
  424SOL     OW 2170   6.071   4.630   2.579 -0.9082 -0.0375 -0.0981
  424SOL    HW1 2171   6.168   4.615   2.596 -0.6306  1.7190  0.1291
  424SOL    HW2 2172   6.016   4.569   2.637  0.0563 -0.7254  0.0984
  425SOL     OW 2173   6.128   6.761   4.108  0.4165  0.1174  0.5318
  425SOL    HW1 2174   6.219   6.792   4.079  0.0774  0.1622 -0.5506
  425SOL    HW2 2175   6.136   6.708   4.192  1.5303 -0.4146  0.1133
  426SOL     OW 2176   2.116   2.659   5.614 -0.4233 -0.0035  0.2334
  426SOL    HW1 2177   2.186   2.596   5.646 -0.1876 -0.0745 -0.4022
  426SOL    HW2 2178   2.145   2.754   5.628 -0.6002 -0.0362  0.8135
  427SOL     OW 2179   4.147   2.250   4.318  0.1008  0.0491  0.5260
  427SOL    HW1 2180   4.153   2.244   4.219  1.8091 -0.3415  0.6301
  427SOL    HW2 2181   4.211   2.318   4.352 -0.5584  0.2777  1.3702
  428SOL     OW 2182   4.897   2.026   2.811  0.1846 -0.0979  0.9578
  428SOL    HW1 2183   4.856   1.975   2.887 -1.6348  0.4264  0.3933
  428SOL    HW2 2184   4.973   1.974   2.773  0.1584 -1.0726  2.1611
  429SOL     OW 2185   1.517   6.079   3.621  0.4583 -0.2842  0.0168
  429SOL    HW1 2186   1.507   5.990   3.577 -1.1250 -0.7110  1.1369
  429SOL    HW2 2187   1.426   6.118   3.637  1.1301  1.7464 -0.8392
  430SOL     OW 2188   2.010   5.373   4.740 -0.2216 -0.5755  0.2112
  430SOL    HW1 2189   1.911   5.382   4.726  0.0199  1.6063 -0.3964
  430SOL    HW2 2190   2.027   5.332   4.829 -1.6749  0.7195  1.1403
  431SOL     OW 2191   3.788   2.115   1.699 -0.2567 -0.0966  0.2692
  431SOL    HW1 2192   3.764   2.170   1.778 -0.3567  2.5015 -1.4476
  431SOL    HW2 2193   3.709   2.107   1.638  0.5163  0.2363 -0.8132
  432SOL     OW 2194   4.611   1.967   0.693  0.5586 -0.3127 -0.1304
  432SOL    HW1 2195   4.564   1.993   0.777 -3.7461  0.4490 -2.4534
  432SOL    HW2 2196   4.676   2.038   0.668 -1.1887  1.6329  0.5075
  433SOL     OW 2197   3.097   6.364   0.089  0.3289  0.2000 -0.8618
  433SOL    HW1 2198   3.021   6.307   0.059 -0.9859  1.2654  0.2895
  433SOL    HW2 2199   3.140   6.322   0.169  0.1338  0.2119 -0.7491
  434SOL     OW 2200   5.415   5.595   4.081 -0.2529 -0.3467  0.6686
  434SOL    HW1 2201   5.377   5.679   4.042  0.5668  0.0919  0.7949
  434SOL    HW2 2202   5.464   5.617   4.165  0.4719 -0.8591  0.3910
  435SOL     OW 2203   3.251   2.886   5.703 -0.5280 -0.0937  0.5493
  435SOL    HW1 2204   3.347   2.870   5.730 -0.7984 -0.1954  1.5013
  435SOL    HW2 2205   3.238   2.855   5.609  0.4373  0.1571  0.3178
  436SOL     OW 2206   2.461   4.761   1.503 -0.1223  0.1772  0.6626
  436SOL    HW1 2207   2.491   4.671   1.471 -0.4163  0.0012  0.8737
  436SOL    HW2 2208   2.451   4.823   1.425 -0.2806 -0.0836  0.4735
  437SOL     OW 2209   5.588   1.703   0.433 -0.3383 -0.2669  0.3205
  437SOL    HW1 2210   5.565   1.682   0.528 -1.5994 -1.0658 -0.1334
  437SOL    HW2 2211   5.664   1.644   0.404 -0.5506 -0.6733  0.5728
  438SOL     OW 2212   1.522   3.847   3.360 -0.4429  0.4585 -0.5761
  438SOL    HW1 2213   1.579   3.843   3.442 -1.3685  0.6358  0.0913
  438SOL    HW2 2214   1.563   3.791   3.289 -0.4538 -1.0019  0.5254
  439SOL     OW 2215   4.011   4.779   2.122  0.2276 -0.2996  0.5953
  439SOL    HW1 2216   3.965   4.789   2.034 -0.4698  0.5777  1.0491
  439SOL    HW2 2217   3.945   4.786   2.196  0.9848  0.2451  1.2382
  440SOL     OW 2218   2.656   1.720   0.468  0.5861  0.3615  0.1519
  440SOL    HW1 2219   2.605   1.683   0.391  0.4962 -1.6651  1.1117
  440SOL    HW2 2220   2.670   1.818   0.455  0.2042  0.1605 -2.1948
  441SOL     OW 2221   6.224   5.125   3.625  0.1845  0.3398  0.2292
  441SOL    HW1 2222   6.308   5.128   3.570  0.3318 -0.5427  0.3899
  441SOL    HW2 2223   6.145   5.116   3.564  0.1550  1.5341  0.0550
  442SOL     OW 2224   4.504   0.131   0.208 -0.0945 -0.1723 -0.3126
  442SOL    HW1 2225   4.427   0.177   0.254 -0.2180 -0.2855 -0.4051
  442SOL    HW2 2226   4.472   0.045   0.169  0.2508 -0.5951  0.3140
  443SOL     OW 2227   4.981   5.129   4.734 -0.3641 -0.2870 -0.2331
  443SOL    HW1 2228   4.998   5.227   4.741 -0.0699 -0.3567  0.0568
  443SOL    HW2 2229   4.908   5.112   4.667 -1.7862  0.2485  1.1323
  444SOL     OW 2230   3.977   6.168   6.112 -0.3054  0.1173 -0.1314
  444SOL    HW1 2231   4.033   6.090   6.139  0.4267 -0.0131 -1.8837
  444SOL    HW2 2232   3.887   6.136   6.084 -0.1400 -0.0604 -0.4664
  445SOL     OW 2233   1.193   0.411   2.696 -0.5796  0.3143  0.3171
  445SOL    HW1 2234   1.097   0.391   2.716 -0.4779 -1.5970 -0.8592
  445SOL    HW2 2235   1.236   0.330   2.656  1.4021  1.3018  0.3454
  446SOL     OW 2236   3.125   6.306   2.423  1.0211  0.0536  0.0227
  446SOL    HW1 2237   3.190   6.231   2.425  4.0659  2.5091  1.9312
  446SOL    HW2 2238   3.098   6.330   2.517 -0.9992  0.4925 -0.6192
  447SOL     OW 2239   5.341   4.689   4.277 -0.5712  0.2066 -0.6494
  447SOL    HW1 2240   5.321   4.754   4.350  1.3396 -0.5235  0.5942
  447SOL    HW2 2241   5.348   4.737   4.189  1.7012  1.8915  0.3686
  448SOL     OW 2242   4.503   0.659   3.251 -0.2016 -0.0256 -0.3033
  448SOL    HW1 2243   4.446   0.695   3.177 -2.1652 -2.4098 -0.0715
  448SOL    HW2 2244   4.447   0.602   3.311  2.5348 -3.1184 -0.4357
  449SOL     OW 2245   1.000   1.824   3.856  0.5854  0.3318  0.3268
  449SOL    HW1 2246   1.027   1.915   3.886  0.1665 -0.3100  2.8880
  449SOL    HW2 2247   0.908   1.803   3.890  0.3200 -0.7451 -0.9523
  450SOL     OW 2248   0.347   5.870   4.730  0.6747 -0.1973  0.0103
  450SOL    HW1 2249   0.410   5.934   4.688 -1.3656  0.4180 -2.3349
  450SOL    HW2 2250   0.263   5.918   4.756 -0.2262 -1.6046 -0.2097
  451SOL     OW 2251   1.946   4.759   5.300  0.1405  0.2699 -0.4045
  451SOL    HW1 2252   1.889   4.757   5.383 -0.0487  1.5077 -0.4908
  451SOL    HW2 2253   1.936   4.673   5.251 -0.9672  0.1290  0.0453
  452SOL     OW 2254   5.468   6.126   1.775  0.3468  0.0893 -0.3827
  452SOL    HW1 2255   5.491   6.044   1.722 -0.6458  0.4177 -1.3440
  452SOL    HW2 2256   5.547   6.152   1.831  1.3365 -0.4097 -1.5025
  453SOL     OW 2257   3.829   6.703   0.332  0.0347 -0.1750 -0.5236
  453SOL    HW1 2258   3.733   6.674   0.337 -0.2559  0.8961  2.5176
  453SOL    HW2 2259   3.837   6.796   0.367  2.2972 -0.6078  0.2609
  454SOL     OW 2260   0.147   5.100   6.851  0.6392  0.1625 -0.3564
  454SOL    HW1 2261   0.142   5.200   6.858 -1.4689  0.0985 -0.3021
  454SOL    HW2 2262   0.139   5.059   6.942  0.7437 -0.0802 -0.4542
  455SOL     OW 2263   4.840   3.096   3.700  0.1004  0.1754 -0.0712
  455SOL    HW1 2264   4.829   3.172   3.636  1.5861  0.5493  0.0751
  455SOL    HW2 2265   4.937   3.083   3.719 -0.1795 -1.3551  0.4109
  456SOL     OW 2266   0.076   0.133   4.423  0.1341  0.2952  0.0065
  456SOL    HW1 2267   0.173   0.139   4.399 -0.0292 -0.2462 -0.8245
  456SOL    HW2 2268   0.020   0.139   4.340 -0.5021 -0.5118  0.3641
  457SOL     OW 2269   2.078   4.388   2.731 -0.3266 -0.3412 -0.0802
  457SOL    HW1 2270   2.013   4.324   2.691 -0.0096 -0.1934 -0.8722
  457SOL    HW2 2271   2.169   4.345   2.734 -0.0247  0.2010 -1.0118
  458SOL     OW 2272   4.660   0.283   2.484 -0.1251 -0.7465 -0.2403
  458SOL    HW1 2273   4.736   0.218   2.485  0.0086 -0.6354 -1.3091
  458SOL    HW2 2274   4.575   0.235   2.505 -0.1811 -1.5261 -2.0449
  459SOL     OW 2275   2.107   0.424   6.392 -0.4187  0.1847  0.1391
  459SOL    HW1 2276   2.205   0.419   6.373 -0.4055 -0.4761  0.3679
  459SOL    HW2 2277   2.085   0.516   6.423  0.6379 -0.3369  2.6937
  460SOL     OW 2278   3.488   1.669   2.603 -0.4776  0.0297 -0.2409
  460SOL    HW1 2279   3.510   1.767   2.604  0.1448 -0.1098  0.4483
  460SOL    HW2 2280   3.390   1.657   2.617 -0.7120  0.5892 -1.3457
  461SOL     OW 2281   6.129   3.571   5.964  1.0491 -0.3078 -0.4700
  461SOL    HW1 2282   6.190   3.493   5.974 -0.0904 -0.9938  1.6876
  461SOL    HW2 2283   6.034   3.541   5.972  0.5261  1.1308 -0.8647
  462SOL     OW 2284   3.567   5.517   5.488 -1.0029 -0.2841 -0.0021
  462SOL    HW1 2285   3.558   5.425   5.527 -1.0042  0.5393  2.0577
  462SOL    HW2 2286   3.527   5.517   5.396 -3.7469 -1.6745  1.0495
  463SOL     OW 2287   0.970   6.720   4.496  0.2522 -0.3710  0.2871
  463SOL    HW1 2288   0.930   6.687   4.410 -0.5603  2.3208 -0.4681
  463SOL    HW2 2289   0.942   6.660   4.571  0.2958 -2.3138 -1.1720
  464SOL     OW 2290   3.022   1.112   3.908  0.5238 -0.1764 -0.5772
  464SOL    HW1 2291   3.096   1.161   3.953  0.7796 -0.1076 -1.0620
  464SOL    HW2 2292   3.026   1.015   3.934  1.5836 -0.4383 -1.5714
  465SOL     OW 2293   5.127   1.874   0.230  0.7301 -0.0892 -0.5131
  465SOL    HW1 2294   5.153   1.845   0.138  2.5841  3.0169 -1.1278
  465SOL    HW2 2295   5.190   1.834   0.296 -0.0408 -1.5953 -0.6531
  466SOL     OW 2296   3.053   5.338   4.067 -0.0008  0.5320 -0.4962
  466SOL    HW1 2297   3.090   5.429   4.048 -0.0296  0.6537 -0.0031
  466SOL    HW2 2298   2.953   5.341   4.065  0.0061  0.2519 -1.6147
  467SOL     OW 2299   0.583   1.938   2.564 -0.0552 -0.1294 -0.2953
  467SOL    HW1 2300   0.585   1.956   2.466  0.5411  0.3553 -0.1970
  467SOL    HW2 2301   0.519   1.863   2.583  0.2744 -0.6190 -1.1112
  468SOL     OW 2302   5.004   6.330   6.315  0.1611 -0.2165 -0.1784
  468SOL    HW1 2303   4.983   6.416   6.269  2.0913 -0.4402 -1.6359
  468SOL    HW2 2304   4.983   6.338   6.412 -1.5345  1.2020 -0.6196
  469SOL     OW 2305   2.593   4.619   4.915 -0.1311 -0.4498  0.2133
  469SOL    HW1 2306   2.618   4.580   4.826  1.3743  0.8699  0.0112
  469SOL    HW2 2307   2.668   4.606   4.980 -0.3302  0.4676  0.6502
  470SOL     OW 2308   6.266   6.579   2.010  0.0684 -0.9820  0.0159
  470SOL    HW1 2309   6.281   6.533   2.097 -1.0892  2.0943  2.0471
  470SOL    HW2 2310   6.171   6.566   1.982 -0.7373  1.1298  1.4235
  471SOL     OW 2311   2.640   1.809   2.668  0.2776  0.1130  0.0360
  471SOL    HW1 2312   2.674   1.831   2.576  0.3761  1.8806  0.4558
  471SOL    HW2 2313   2.708   1.838   2.736 -0.2245 -0.2824  0.7212
  472SOL     OW 2314   5.974   3.118   0.989  0.4211 -0.6020  0.1644
  472SOL    HW1 2315   6.058   3.083   0.948  1.4851 -0.7730  2.3806
  472SOL    HW2 2316   5.899   3.109   0.923  1.6221 -2.6724 -1.0164
  473SOL     OW 2317   6.145   2.077   1.855  0.4281 -0.7096  0.7255
  473SOL    HW1 2318   6.185   2.142   1.919  3.1437 -1.6749  0.1254
  473SOL    HW2 2319   6.045   2.087   1.856  0.6369  2.3097  1.8010
  474SOL     OW 2320   5.349   5.109   6.323 -0.2278 -0.1074  0.3622
  474SOL    HW1 2321   5.320   5.094   6.418  1.1668  0.5439  0.9127
  474SOL    HW2 2322   5.449   5.107   6.318 -0.2632  0.5594 -0.9844
  475SOL     OW 2323   5.500   3.477   6.032 -0.2779 -0.4337  0.1303
  475SOL    HW1 2324   5.560   3.557   6.044 -1.1837 -0.0098  2.2657
  475SOL    HW2 2325   5.523   3.431   5.946  1.4682  1.0837 -0.2837
  476SOL     OW 2326   6.085   3.429   0.608 -0.0143 -0.3028  0.7304
  476SOL    HW1 2327   6.009   3.365   0.613  0.0955 -0.5112 -0.1497
  476SOL    HW2 2328   6.169   3.383   0.636  0.0093 -0.4408  0.4267
  477SOL     OW 2329   0.783   5.678   1.778  0.2704 -0.2522  0.3829
  477SOL    HW1 2330   0.707   5.738   1.749  0.1427 -0.5782  0.0432
  477SOL    HW2 2331   0.747   5.587   1.798  0.8904 -1.1140 -2.0960
  478SOL     OW 2332   4.473   6.239   4.201 -0.0251  0.4971 -0.2884
  478SOL    HW1 2333   4.452   6.238   4.104 -1.8913 -1.8450  0.0352
  478SOL    HW2 2334   4.493   6.146   4.232 -1.3514  0.8517  1.8910
  479SOL     OW 2335   2.644   5.196   5.937  0.1846  0.9680 -0.9114
  479SOL    HW1 2336   2.718   5.264   5.946  1.2441 -0.2518 -0.1135
  479SOL    HW2 2337   2.672   5.126   5.872 -0.1461  0.3409 -0.3807
  480SOL     OW 2338   2.944   6.607   2.488 -0.1765  0.2988  0.5775
  480SOL    HW1 2339   2.911   6.602   2.394  0.5744  1.2616  0.2404
  480SOL    HW2 2340   2.881   6.559   2.549 -0.1545 -1.2041 -0.5287
  481SOL     OW 2341   0.498   1.839   1.860 -0.0578  0.4867  0.1019
  481SOL    HW1 2342   0.513   1.768   1.929  0.1230 -0.1880 -0.6151
  481SOL    HW2 2343   0.407   1.829   1.820  0.9953 -1.2705 -2.1081
  482SOL     OW 2344   4.099   5.130   2.586 -0.1931 -0.1609 -0.2497
  482SOL    HW1 2345   4.019   5.174   2.625  0.0640 -0.9223  1.2153
  482SOL    HW2 2346   4.180   5.157   2.637  0.0739 -1.6365  0.1661
  483SOL     OW 2347   5.917   2.411   3.630  0.3587  0.0242 -0.4924
  483SOL    HW1 2348   5.875   2.399   3.540  0.2873 -1.1893 -0.3121
  483SOL    HW2 2349   5.847   2.404   3.701  0.0590  2.9356 -0.3751
  484SOL     OW 2350   2.237   4.734   6.497 -0.1091  0.1541 -0.5955
  484SOL    HW1 2351   2.156   4.774   6.454  0.0300  0.2117 -0.8082
  484SOL    HW2 2352   2.215   4.705   6.590 -0.1183  1.0444 -0.3102
  485SOL     OW 2353   4.250   5.073   3.919 -0.3110 -0.3183 -0.0490
  485SOL    HW1 2354   4.333   5.029   3.885 -0.5414 -0.8235  0.0405
  485SOL    HW2 2355   4.243   5.164   3.879 -0.5855 -0.9033 -1.3878
  486SOL     OW 2356   0.017   3.672   1.007  0.0204 -0.0199 -0.4558
  486SOL    HW1 2357   0.103   3.661   1.056 -0.5771  0.6435  0.7809
  486SOL    HW2 2358  -0.042   3.736   1.056 -0.9088  0.0814 -1.6515
  487SOL     OW 2359   6.637   1.438   3.124  0.0094 -0.5307  0.4075
  487SOL    HW1 2360   6.634   1.507   3.196  2.2856 -0.7470  0.7834
  487SOL    HW2 2361   6.544   1.418   3.093 -0.8403  1.2999  1.6013
  488SOL     OW 2362   1.063   5.982   1.516 -0.3958  0.1985  0.0612
  488SOL    HW1 2363   1.027   6.036   1.440  1.1653 -0.2527 -1.0447
  488SOL    HW2 2364   1.042   5.885   1.501  1.6911 -0.1577 -0.9336
  489SOL     OW 2365   1.089   5.578   4.820 -0.5573 -0.1322 -0.2576
  489SOL    HW1 2366   1.162   5.600   4.756 -1.0792 -0.4513 -0.9800
  489SOL    HW2 2367   1.071   5.658   4.878  0.0428  0.1009 -0.3832
  490SOL     OW 2368   2.077   6.823   3.560  0.1429 -0.7288  0.3652
  490SOL    HW1 2369   1.997   6.762   3.552 -0.5941 -0.0739  2.2074
  490SOL    HW2 2370   2.062   6.904   3.504 -0.4888 -0.6314  0.6607
  491SOL     OW 2371   6.716   3.940   1.178  0.2618 -0.0038 -0.2131
  491SOL    HW1 2372   6.722   3.869   1.107  0.2453  0.2900 -0.5126
  491SOL    HW2 2373   6.721   4.030   1.135 -0.2820  0.1861  0.1056
  492SOL     OW 2374   2.791   0.766   3.745 -0.1816 -0.0835 -0.5290
  492SOL    HW1 2375   2.768   0.742   3.650 -0.0199  1.1051 -0.8848
  492SOL    HW2 2376   2.778   0.864   3.759  1.2199  0.0183  0.2532
  493SOL     OW 2377   0.995   5.940   3.180  0.8864 -0.1696  0.2880
  493SOL    HW1 2378   1.017   5.898   3.267  1.2912  1.3538  0.9621
  493SOL    HW2 2379   1.079   5.972   3.135  0.4753  2.1118  0.9951
  494SOL     OW 2380   3.260   1.552   6.760  0.1115 -0.5179  0.3089
  494SOL    HW1 2381   3.173   1.504   6.750  0.5379 -1.3264  0.3947
  494SOL    HW2 2382   3.303   1.526   6.846  0.7485 -0.6467 -0.0411
  495SOL     OW 2383   2.670   6.522   5.142  0.1979  0.0871 -0.1265
  495SOL    HW1 2384   2.709   6.430   5.141 -0.9633 -0.4392  0.6435
  495SOL    HW2 2385   2.650   6.551   5.048  1.0537 -0.2157 -0.4144
  496SOL     OW 2386   6.597   1.502   1.883  0.3173 -0.3822  0.4118
  496SOL    HW1 2387   6.583   1.450   1.798  2.8570 -1.6276  0.6636
  496SOL    HW2 2388   6.601   1.439   1.960 -2.4722  0.7788  1.6227
  497SOL     OW 2389   4.941   0.226   3.918 -0.4271 -0.1900 -0.1160
  497SOL    HW1 2390   4.850   0.255   3.947 -0.1515  0.0664  0.5211
  497SOL    HW2 2391   5.002   0.225   3.997 -0.3275 -2.2017 -0.1659
  498SOL     OW 2392   0.966   6.540   1.585 -0.2444  0.0573  0.2665
  498SOL    HW1 2393   1.017   6.464   1.626 -0.6789  0.2540  1.1969
  498SOL    HW2 2394   1.030   6.603   1.541  0.1622 -0.5598 -0.0452
  499SOL     OW 2395   2.389   3.167   5.610  0.3525  0.8082  0.5360
  499SOL    HW1 2396   2.399   3.162   5.511 -0.2099 -0.0892  0.5129
  499SOL    HW2 2397   2.326   3.241   5.633 -0.9232 -0.1039  0.0996
  500SOL     OW 2398   5.445   2.730   6.776 -0.1354 -0.0376 -0.1381
  500SOL    HW1 2399   5.458   2.776   6.864 -0.4337  0.8897 -0.5696
  500SOL    HW2 2400   5.350   2.697   6.770  0.3166 -1.5995  0.5618
  501SOL     OW 2401   3.613   6.701   2.206  0.2080 -0.5592 -0.0984
  501SOL    HW1 2402   3.557   6.781   2.226  1.5935  0.2259  0.7786
  501SOL    HW2 2403   3.567   6.645   2.136 -1.1395  0.5823 -0.1764
  502SOL     OW 2404   0.660   5.138   1.392  0.7462 -0.3831 -0.1024
  502SOL    HW1 2405   0.728   5.158   1.321  1.5420 -1.7270  0.2382
  502SOL    HW2 2406   0.648   5.039   1.399 -1.6476 -0.1957 -0.4932
  503SOL     OW 2407   3.138   3.826   5.147  0.8312  0.3122 -0.5652
  503SOL    HW1 2408   3.145   3.726   5.148 -1.4051  0.0596 -1.7808
  503SOL    HW2 2409   3.207   3.865   5.207  0.5463 -2.0367  1.4774
  504SOL     OW 2410   6.720   0.032   1.266  0.2840 -0.1910 -0.0697
  504SOL    HW1 2411   6.763  -0.036   1.207 -0.8757 -0.4940 -0.5854
  504SOL    HW2 2412   6.677  -0.014   1.344  1.5762  0.1832  0.9120
  505SOL     OW 2413   5.678   6.138   3.759 -0.4294  0.5789 -0.3484
  505SOL    HW1 2414   5.620   6.068   3.718  1.1671 -0.3076 -1.1879
  505SOL    HW2 2415   5.634   6.227   3.750 -1.1350  0.0977 -1.9822
  506SOL     OW 2416   3.963   6.404   1.734  0.0784  0.5290 -0.2279
  506SOL    HW1 2417   3.931   6.349   1.657  0.3439 -1.2051  0.8186
  506SOL    HW2 2418   4.008   6.344   1.800  0.6926  2.1025  0.8386
  507SOL     OW 2419   3.500   6.201   3.458 -0.1713  0.1216  0.7578
  507SOL    HW1 2420   3.589   6.159   3.479 -0.0021  0.5987  1.0135
  507SOL    HW2 2421   3.515   6.280   3.399 -0.6405 -1.2369 -1.2879
  508SOL     OW 2422   0.795   3.016   3.176  0.1618  0.4124  0.2160
  508SOL    HW1 2423   0.718   2.955   3.158 -0.2938  1.5804 -2.2131
  508SOL    HW2 2424   0.767   3.089   3.239 -0.7611  0.8772 -0.7182
  509SOL     OW 2425   5.664   1.280   6.315  0.5709  0.2176  0.0213
  509SOL    HW1 2426   5.681   1.357   6.255 -0.3938  0.3297 -0.1277
  509SOL    HW2 2427   5.713   1.293   6.402 -0.6391  1.6611  0.5283
  510SOL     OW 2428   0.226   6.160   4.244  0.3218  0.0681  0.1520
  510SOL    HW1 2429   0.184   6.211   4.170 -1.8103  0.1832  1.3593
  510SOL    HW2 2430   0.292   6.095   4.207  0.6198  1.3522 -1.6682
  511SOL     OW 2431   1.594   1.286   6.962  0.6621 -0.3432  0.1909
  511SOL    HW1 2432   1.612   1.193   6.928  0.5167  0.3931 -2.0717
  511SOL    HW2 2433   1.498   1.309   6.946  1.3345  1.2174 -2.1159
  512SOL     OW 2434   5.727   3.672   0.078 -0.3538 -0.2614  0.0971
  512SOL    HW1 2435   5.792   3.617   0.130 -0.8484 -1.7150 -0.7575
  512SOL    HW2 2436   5.729   3.766   0.111 -0.2762 -0.9913  2.3764
  513SOL     OW 2437   6.491   6.946   3.104 -0.0861 -0.3960 -0.1658
  513SOL    HW1 2438   6.575   6.967   3.053 -0.7777  0.5305 -0.9579
  513SOL    HW2 2439   6.431   6.890   3.047 -0.6373  0.1947 -0.1658
  514SOL     OW 2440   1.557   1.682   6.592 -0.4367  0.1272 -0.0598
  514SOL    HW1 2441   1.653   1.670   6.618 -0.6637 -1.2064  0.1969
  514SOL    HW2 2442   1.501   1.690   6.674 -0.7939 -1.1566 -0.1700
  515SOL     OW 2443   0.777   0.367   6.779  0.0418 -1.2537 -0.4945
  515SOL    HW1 2444   0.775   0.275   6.818  0.7657 -1.5318 -1.0788
  515SOL    HW2 2445   0.872   0.393   6.761 -0.1897 -0.5842 -0.7678
  516SOL     OW 2446   2.319   4.204   2.281 -0.3803 -0.2246  0.2284
  516SOL    HW1 2447   2.295   4.273   2.213  1.7442  0.7596  0.4075
  516SOL    HW2 2448   2.320   4.113   2.239  0.6813  0.3397 -1.0013
  517SOL     OW 2449   2.766   5.004   0.696  0.3632  0.3565 -0.1713
  517SOL    HW1 2450   2.768   4.918   0.748  0.6907  0.7237  0.4425
  517SOL    HW2 2451   2.675   5.044   0.701 -0.0508 -0.4279 -1.2625
  518SOL     OW 2452   3.334   2.132   4.815  0.1715 -0.6083  0.1954
  518SOL    HW1 2453   3.304   2.220   4.852 -0.6945 -1.2841  1.1870
  518SOL    HW2 2454   3.344   2.066   4.890  2.5677 -0.8991 -0.3028
  519SOL     OW 2455   4.770   4.198   3.533  0.0213  0.3480 -0.6370
  519SOL    HW1 2456   4.744   4.116   3.584 -1.0998  2.2494  2.0689
  519SOL    HW2 2457   4.866   4.220   3.552 -0.0749  0.4229 -0.2224
  520SOL     OW 2458   5.584   0.644   3.929 -0.4544 -0.0261 -0.4754
  520SOL    HW1 2459   5.510   0.618   3.867 -0.7527  0.2494 -0.2345
  520SOL    HW2 2460   5.592   0.576   4.002 -0.3558 -0.1444 -0.5945
  521SOL     OW 2461   2.748   5.966   5.546  0.5448  0.7582 -0.8909
  521SOL    HW1 2462   2.668   5.910   5.524  0.9351  0.0641 -0.5813
  521SOL    HW2 2463   2.721   6.062   5.552 -0.8124  0.3057  1.6987
  522SOL     OW 2464   3.738   3.005   2.089  0.2928 -0.9140 -0.1112
  522SOL    HW1 2465   3.710   2.940   2.160  1.6629  0.3094  1.6352
  522SOL    HW2 2466   3.837   3.021   2.096 -0.0173  1.3643 -0.4711
  523SOL     OW 2467   6.039   5.497   1.827 -0.2195  0.7936 -0.3907
  523SOL    HW1 2468   6.100   5.517   1.750 -0.2877 -0.4679 -0.7823
  523SOL    HW2 2469   6.067   5.412   1.871 -2.2656 -0.3300 -1.1726
  524SOL     OW 2470   2.069   2.674   4.251 -0.6129 -0.3839  0.5766
  524SOL    HW1 2471   2.050   2.722   4.337 -0.2508  1.1249 -0.1442
  524SOL    HW2 2472   1.991   2.686   4.189  0.4220  1.3160 -0.4608
  525SOL     OW 2473   0.769   3.358   5.870  0.4448 -0.3213 -0.1802
  525SOL    HW1 2474   0.673   3.373   5.847  0.8351 -0.1631 -1.8512
  525SOL    HW2 2475   0.817   3.446   5.871  0.7061 -0.4661 -0.0125
  526SOL     OW 2476   2.266   1.869   2.326  0.6427  0.5224  0.0160
  526SOL    HW1 2477   2.270   1.799   2.397 -0.1208  0.9621  0.5057
  526SOL    HW2 2478   2.253   1.825   2.237  0.7059  0.0208  0.2510
  527SOL     OW 2479   1.727   3.006   0.196  0.1943 -0.6545  0.0535
  527SOL    HW1 2480   1.806   3.030   0.140 -0.0038 -1.2933 -0.5177
  527SOL    HW2 2481   1.695   2.915   0.171 -1.6446  0.1759 -0.7726
  528SOL     OW 2482   1.432   2.399   3.181 -0.2024 -0.0650 -0.4618
  528SOL    HW1 2483   1.496   2.356   3.118 -0.0714  2.9237 -2.5585
  528SOL    HW2 2484   1.463   2.492   3.203 -1.1642 -0.3529  2.7158
  529SOL     OW 2485   3.187   6.324   5.809 -0.4287  0.1221  0.0406
  529SOL    HW1 2486   3.267   6.282   5.765  0.8062  0.1750  2.1073
  529SOL    HW2 2487   3.199   6.424   5.811  0.2683  0.0353  1.7528
  530SOL     OW 2488   2.948   3.736   2.279 -0.2759  0.0178  0.3555
  530SOL    HW1 2489   2.938   3.830   2.246 -0.3402 -0.2102 -0.2823
  530SOL    HW2 2490   2.915   3.672   2.210  2.6104 -0.6240 -0.5894
  531SOL     OW 2491   2.244   2.088   4.228  0.2793  0.2538  0.2514
  531SOL    HW1 2492   2.311   2.138   4.174  2.8805 -2.3866  0.7947
  531SOL    HW2 2493   2.237   2.129   4.319 -0.8397  2.0639 -0.5944
  532SOL     OW 2494   2.276   1.652   1.646 -0.2067  0.5114 -0.3526
  532SOL    HW1 2495   2.210   1.690   1.581  1.1753  2.9969 -0.4368
  532SOL    HW2 2496   2.337   1.589   1.599 -1.4544 -0.5527 -0.6142
  533SOL     OW 2497   4.734   5.711   2.819 -0.0591 -0.1498 -0.2135
  533SOL    HW1 2498   4.757   5.721   2.916 -1.4474  0.3657  0.1037
  533SOL    HW2 2499   4.679   5.629   2.806  0.8227 -0.6660 -0.7131
  534SOL     OW 2500   0.039   5.349   2.579  0.0059 -0.2481  0.3474
  534SOL    HW1 2501   0.105   5.325   2.508  0.0769 -2.6688  1.1355
  534SOL    HW2 2502   0.059   5.440   2.613  0.6006  0.5661 -1.9840
  535SOL     OW 2503   5.773   3.156   2.984  0.1435 -0.2608 -0.1522
  535SOL    HW1 2504   5.832   3.076   2.999 -0.6782 -0.9993 -0.7831
  535SOL    HW2 2505   5.770   3.211   3.068 -1.1146 -2.1347  1.1117
  536SOL     OW 2506   0.676   4.140   3.614  0.2273 -0.3830 -0.6286
  536SOL    HW1 2507   0.648   4.044   3.618 -0.9995 -0.0132  0.4329
  536SOL    HW2 2508   0.747   4.151   3.545 -2.5552 -1.3679 -3.9734
  537SOL     OW 2509   3.723   1.028   4.826  0.6146 -0.2520 -0.2573
  537SOL    HW1 2510   3.820   1.017   4.848  0.6916 -0.0986 -0.5150
  537SOL    HW2 2511   3.687   0.942   4.789  0.7934 -0.1406 -0.6919
  538SOL     OW 2512   2.326   5.170   5.769  0.4428  0.4537  0.4149
  538SOL    HW1 2513   2.307   5.097   5.834 -2.7838 -1.0303 -1.9335
  538SOL    HW2 2514   2.401   5.144   5.709  1.2204  0.3994  1.3868
  539SOL     OW 2515   1.657   5.772   1.249  0.5559 -0.1121  0.2168
  539SOL    HW1 2516   1.716   5.801   1.174  0.6551  0.6930  0.6021
  539SOL    HW2 2517   1.588   5.842   1.267 -0.4025 -0.9456 -0.0873
  540SOL     OW 2518   2.340   2.192   2.545 -0.2329  0.4517  0.0561
  540SOL    HW1 2519   2.373   2.107   2.587 -1.7244 -0.7342 -1.0296
  540SOL    HW2 2520   2.254   2.219   2.589 -0.9026  0.1611 -1.0510
  541SOL     OW 2521   1.591   6.553   4.566  0.0145 -0.0634 -0.3080
  541SOL    HW1 2522   1.580   6.459   4.597  0.3467 -0.5701 -1.6708
  541SOL    HW2 2523   1.561   6.616   4.638  1.1647 -1.1629  1.1659
  542SOL     OW 2524   5.991   0.142   0.096 -0.0989  0.1901 -0.4785
  542SOL    HW1 2525   6.074   0.181   0.055 -0.1887  1.6215  0.6128
  542SOL    HW2 2526   6.016   0.062   0.150  0.0646 -1.4976 -2.9263
  543SOL     OW 2527   5.767   4.004   4.830 -0.5373  0.1948 -0.7862
  543SOL    HW1 2528   5.816   4.060   4.763 -0.9113 -0.3825 -1.5540
  543SOL    HW2 2529   5.788   4.037   4.922 -0.4383  1.3462 -1.2010
  544SOL     OW 2530   2.457   4.092   6.796 -0.5471 -0.2022 -0.7939
  544SOL    HW1 2531   2.374   4.127   6.753 -0.8557  1.1853  0.8241
  544SOL    HW2 2532   2.453   3.992   6.801 -1.4350 -0.2574 -2.0184
  545SOL     OW 2533   5.435   1.365   1.641 -0.0404 -0.0628  0.2753
  545SOL    HW1 2534   5.411   1.268   1.642  0.7606 -0.3011  2.4789
  545SOL    HW2 2535   5.474   1.389   1.553 -0.2420 -1.7499 -0.3058
  546SOL     OW 2536   2.510   4.602   2.115  0.2682  0.5276  0.3445
  546SOL    HW1 2537   2.609   4.588   2.116  0.3766  1.1282 -0.5944
  546SOL    HW2 2538   2.468   4.553   2.192  1.3149  0.4875  0.8980
  547SOL     OW 2539   3.653   0.438   2.274 -0.7086 -0.1345 -0.1304
  547SOL    HW1 2540   3.627   0.521   2.224 -0.5853  0.6718  1.1152
  547SOL    HW2 2541   3.750   0.442   2.298 -0.9345 -0.1731  0.8120
  548SOL     OW 2542   2.544   3.552   1.221  0.0407 -0.3056  0.4068
  548SOL    HW1 2543   2.555   3.625   1.288  0.1266 -0.6260  0.7383
  548SOL    HW2 2544   2.520   3.593   1.132 -0.3666  0.0974  0.6953
  549SOL     OW 2545   6.299   3.229   0.632 -0.1627  0.4452 -0.2547
  549SOL    HW1 2546   6.316   3.184   0.545 -1.9943 -0.9635  0.0621
  549SOL    HW2 2547   6.385   3.269   0.667  0.5951  1.1186 -2.6857
  550SOL     OW 2548   1.921   5.798   3.751  0.5754  0.6402  0.4014
  550SOL    HW1 2549   1.845   5.822   3.812 -0.0048  1.0646 -0.4646
  550SOL    HW2 2550   1.926   5.698   3.743  0.4442  0.5901  0.8701
  551SOL     OW 2551   5.670   6.617   2.142  0.1870  0.9030  0.2323
  551SOL    HW1 2552   5.669   6.675   2.223  1.9118  0.0866  0.8826
  551SOL    HW2 2553   5.755   6.565   2.138  0.4912  1.4185 -2.4688
  552SOL     OW 2554   5.533   4.984   4.495  0.0171  0.6104 -0.3000
  552SOL    HW1 2555   5.476   4.985   4.578 -2.2087 -0.5960 -1.7123
  552SOL    HW2 2556   5.475   4.965   4.416  2.2667  0.5816 -2.0151
  553SOL     OW 2557   3.425   0.849   2.303 -0.3029  0.0470  0.5660
  553SOL    HW1 2558   3.390   0.918   2.239  1.2805  2.7422  2.4252
  553SOL    HW2 2559   3.348   0.807   2.351 -1.3747 -0.4401 -1.4667
  554SOL     OW 2560   6.106   5.697   0.020  0.4553  0.1794  0.6340
  554SOL    HW1 2561   6.173   5.650   0.077 -1.6071 -1.2927  1.9743
  554SOL    HW2 2562   6.061   5.769   0.073 -0.4171 -0.1758  0.3872
  555SOL     OW 2563   4.103   6.169   3.833  0.0386  0.0581  0.0664
  555SOL    HW1 2564   4.104   6.070   3.825  1.3505 -0.0021  0.7365
  555SOL    HW2 2565   4.178   6.208   3.780 -0.1258  0.6491  0.2590
  556SOL     OW 2566   2.521   1.754   3.698 -0.1206  0.1331 -0.1719
  556SOL    HW1 2567   2.529   1.706   3.611  1.1888 -0.7945  0.4254
  556SOL    HW2 2568   2.533   1.689   3.773 -1.1331  0.9291  0.7171
  557SOL     OW 2569   0.945   3.591   5.795 -0.5504 -0.0161  0.3998
  557SOL    HW1 2570   1.006   3.550   5.863 -1.2571 -1.7586  0.0235
  557SOL    HW2 2571   0.892   3.664   5.838  0.7117  0.5296  1.0932
  558SOL     OW 2572   3.277   3.920   4.668 -0.2734  0.8419  0.3225
  558SOL    HW1 2573   3.178   3.938   4.665 -0.6134 -0.9240 -0.1028
  558SOL    HW2 2574   3.303   3.892   4.760 -0.5982 -0.7212 -0.0255
  559SOL     OW 2575   5.711   4.173   2.351 -0.1076 -0.0248 -0.6240
  559SOL    HW1 2576   5.777   4.120   2.297  0.1343 -1.0370  0.6047
  559SOL    HW2 2577   5.754   4.202   2.437 -1.2033 -0.6285  0.1598
  560SOL     OW 2578   5.998   4.179   4.078 -0.4547 -0.5474  0.3252
  560SOL    HW1 2579   5.898   4.180   4.087 -0.5558  1.5046 -0.4100
  560SOL    HW2 2580   6.038   4.233   4.152  0.1675 -1.7192  0.8701
  561SOL     OW 2581   5.885   3.998   6.982 -0.3802 -0.1941 -0.2692
  561SOL    HW1 2582   5.912   3.926   7.046 -2.1334 -0.1527  0.5738
  561SOL    HW2 2583   5.878   3.959   6.890  5.2761  0.3746 -1.3248
  562SOL     OW 2584   2.881   6.708   6.420  0.3274 -0.0199 -0.3507
  562SOL    HW1 2585   2.872   6.790   6.364 -0.7005 -0.1674 -0.4235
  562SOL    HW2 2586   2.895   6.734   6.515  1.5453  0.2308 -0.5794
  563SOL     OW 2587   2.652   1.094   3.131  0.5142  0.2602  0.7227
  563SOL    HW1 2588   2.743   1.074   3.095  0.6291  0.3887  0.9396
  563SOL    HW2 2589   2.585   1.031   3.091  0.5736  0.6634 -0.0249
  564SOL     OW 2590   6.123   4.782   6.382  0.5016 -0.2735 -0.5836
  564SOL    HW1 2591   6.141   4.844   6.459 -2.7484 -0.6188  0.6297
  564SOL    HW2 2592   6.072   4.831   6.311  1.2005 -0.6253 -1.3347
  565SOL     OW 2593   3.229   3.614   4.009 -0.4689 -0.0580 -0.2708
  565SOL    HW1 2594   3.195   3.704   4.037 -1.0517 -0.3231 -0.0989
  565SOL    HW2 2595   3.251   3.561   4.090 -0.8481 -0.3362 -0.3468
  566SOL     OW 2596   6.776   3.502   1.915  0.4258 -0.2510 -0.0528
  566SOL    HW1 2597   6.793   3.423   1.855  0.3156 -0.2615 -0.0713
  566SOL    HW2 2598   6.780   3.586   1.861  1.7944 -0.1418  0.2003
  567SOL     OW 2599   2.077   2.258   2.190 -0.1533  0.2806  0.0870
  567SOL    HW1 2600   2.176   2.261   2.201  0.0012 -2.0027 -0.0613
  567SOL    HW2 2601   2.037   2.199   2.261 -1.4275  1.2354  0.2036
  568SOL     OW 2602   4.340   6.041   1.721 -0.1922  0.1746  0.1795
  568SOL    HW1 2603   4.321   6.107   1.648 -0.4929 -0.7754 -0.6289
  568SOL    HW2 2604   4.425   6.066   1.768 -0.7077  1.5652  0.4159
  569SOL     OW 2605   1.386   4.070   0.327 -0.2064 -0.0134 -0.2901
  569SOL    HW1 2606   1.462   4.022   0.370 -1.3179  0.1891  2.0365
  569SOL    HW2 2607   1.384   4.048   0.229  1.1588 -2.2203  0.1119
  570SOL     OW 2608   1.719   0.248   0.321  0.0556  0.4304 -0.5737
  570SOL    HW1 2609   1.754   0.169   0.270  1.7819 -1.0810  2.6259
  570SOL    HW2 2610   1.735   0.331   0.269 -0.0194 -1.1138 -3.2420
  571SOL     OW 2611   2.471   5.651   3.813  0.0747  0.3092 -0.0836
  571SOL    HW1 2612   2.491   5.736   3.763  0.4319 -0.1191 -0.6866
  571SOL    HW2 2613   2.536   5.640   3.888  1.8552 -0.8041 -1.7028
  572SOL     OW 2614   2.452   5.302   6.724  0.2776  0.2036  0.2354
  572SOL    HW1 2615   2.545   5.320   6.692 -0.2250  0.7468 -0.9932
  572SOL    HW2 2616   2.399   5.261   6.650 -0.4515 -0.1641  0.9428
  573SOL     OW 2617   5.205   0.993   5.476 -0.4420  0.2562  0.1200
  573SOL    HW1 2618   5.172   1.046   5.398 -0.3360  1.6156  0.9726
  573SOL    HW2 2619   5.168   0.900   5.471  0.1617  0.0830 -1.9338
  574SOL     OW 2620   5.690   6.962   2.723 -0.2186  0.5955 -0.4537
  574SOL    HW1 2621   5.717   6.873   2.686  2.6759  1.8182 -1.5358
  574SOL    HW2 2622   5.621   7.003   2.663 -1.3641 -0.7045 -0.1061
  575SOL     OW 2623   3.191   4.527   0.309  0.1674 -0.7332 -0.2447
  575SOL    HW1 2624   3.191   4.524   0.409  1.1219 -0.3222 -0.2281
  575SOL    HW2 2625   3.183   4.434   0.273  1.5270 -1.0579  0.2294
  576SOL     OW 2626   6.444   2.094   1.826 -0.1137 -0.0028  0.0536
  576SOL    HW1 2627   6.537   2.099   1.862  0.7103 -0.0947 -1.9269
  576SOL    HW2 2628   6.383   2.147   1.884  1.2135  0.3167  1.2198
  577SOL     OW 2629   0.900   1.423   5.311  0.0976  0.4594  0.1002
  577SOL    HW1 2630   0.942   1.480   5.381  2.2688  0.4193 -1.1010
  577SOL    HW2 2631   0.801   1.437   5.312  0.3256  2.3323  1.5027
  578SOL     OW 2632   1.297   3.312   3.016  0.2578 -0.0151 -0.2424
  578SOL    HW1 2633   1.253   3.324   3.104 -0.3521  0.6118 -0.6262
  578SOL    HW2 2634   1.232   3.276   2.949  1.0924 -1.9747 -0.0828
  579SOL     OW 2635   6.670   5.290   3.163  0.0915  0.3968 -0.1263
  579SOL    HW1 2636   6.592   5.244   3.206 -0.3290  1.0461 -0.1832
  579SOL    HW2 2637   6.745   5.225   3.154 -0.8905 -0.6314 -1.3290
  580SOL     OW 2638   5.607   4.238   6.096  0.0799  0.1109  0.4643
  580SOL    HW1 2639   5.705   4.243   6.113  0.4131 -2.6232 -0.2266
  580SOL    HW2 2640   5.570   4.331   6.088  2.3511  1.2314  1.8745
  581SOL     OW 2641   0.317   2.192   1.028  0.5057  0.0291  0.2841
  581SOL    HW1 2642   0.280   2.102   1.050  0.2252 -0.0619 -0.5229
  581SOL    HW2 2643   0.379   2.222   1.100  1.8862 -1.5159 -0.2126
  582SOL     OW 2644   5.019   3.857   1.027  0.1798 -0.5145 -0.9654
  582SOL    HW1 2645   5.076   3.863   1.109  0.9268 -2.0237 -1.3452
  582SOL    HW2 2646   4.926   3.887   1.049  0.5464 -0.2003  0.2378
  583SOL     OW 2647   2.286   5.038   5.372  0.2554  0.2206 -0.1250
  583SOL    HW1 2648   2.344   5.087   5.307  0.1559  0.6034  0.0724
  583SOL    HW2 2649   2.343   4.974   5.425  0.4864  0.5337  0.0087
  584SOL     OW 2650   3.240   5.834   6.080 -0.0661 -0.3038 -0.0878
  584SOL    HW1 2651   3.159   5.824   6.022 -1.0956 -0.6367  1.3531
  584SOL    HW2 2652   3.227   5.783   6.164  0.8357  1.2073  1.0228
  585SOL     OW 2653   2.805   1.181   0.307 -0.2719  0.7945 -0.4643
  585SOL    HW1 2654   2.860   1.211   0.229  0.6825 -2.3747 -1.1763
  585SOL    HW2 2655   2.708   1.182   0.281  0.0752 -0.9658 -2.1015
  586SOL     OW 2656   1.044   1.319   4.425  0.1097  0.0914 -0.3784
  586SOL    HW1 2657   1.142   1.307   4.442  0.1696  0.3901 -0.5092
  586SOL    HW2 2658   1.000   1.353   4.508  0.2162  0.5050 -0.4876
  587SOL     OW 2659   4.702   4.498   4.448 -0.5092  0.1341  0.1508
  587SOL    HW1 2660   4.634   4.513   4.377 -1.3374 -2.5378  0.2954
  587SOL    HW2 2661   4.658   4.504   4.538 -0.6289 -1.7122  0.2404
  588SOL     OW 2662   0.568   4.575   1.668 -0.1484 -0.0391  0.3414
  588SOL    HW1 2663   0.531   4.528   1.748 -0.1904 -1.1514 -0.3145
  588SOL    HW2 2664   0.500   4.575   1.595  0.1610  0.3119  0.0477
  589SOL     OW 2665   0.757   4.443   2.157  0.4862 -0.3151  0.0340
  589SOL    HW1 2666   0.778   4.523   2.100 -0.1641  0.1501  0.4420
  589SOL    HW2 2667   0.771   4.467   2.253 -1.0094 -0.2686  0.2555
  590SOL     OW 2668   6.266   1.653   2.530  0.0397 -0.2739  0.6551
  590SOL    HW1 2669   6.211   1.633   2.611 -0.9446  0.5623  0.2146
  590SOL    HW2 2670   6.247   1.584   2.460 -1.7527  0.9207 -0.0998
  591SOL     OW 2671   3.566   5.833   4.443 -0.2757 -0.0424 -0.1247
  591SOL    HW1 2672   3.555   5.863   4.538  0.4203  0.6353 -0.2520
  591SOL    HW2 2673   3.535   5.738   4.435 -0.9382  0.0909  0.6415
  592SOL     OW 2674   4.092   0.041   0.384 -0.1557 -0.1312 -0.2608
  592SOL    HW1 2675   4.106   0.124   0.329 -1.1906 -0.1860 -0.6263
  592SOL    HW2 2676   4.064  -0.034   0.325  1.8865 -1.0887 -0.0967
  593SOL     OW 2677   5.995   3.542   4.196 -0.3438 -0.2461  0.2135
  593SOL    HW1 2678   6.062   3.595   4.248 -0.8628 -0.7544  1.4302
  593SOL    HW2 2679   6.042   3.483   4.131  0.3432 -0.0112  0.4869
  594SOL     OW 2680   5.454   5.659   0.158  0.1382 -0.2003 -0.0457
  594SOL    HW1 2681   5.532   5.603   0.187  0.4418 -0.5834 -1.4983
  594SOL    HW2 2682   5.485   5.726   0.090 -0.7860 -0.3589 -0.6373
  595SOL     OW 2683   4.686   5.711   5.500 -0.0487  0.1555  0.4473
  595SOL    HW1 2684   4.668   5.725   5.403  0.9962  0.0976  0.2354
  595SOL    HW2 2685   4.748   5.634   5.512 -0.3612  0.0105  1.1784
  596SOL     OW 2686   0.404   5.860   3.728 -0.2778  0.2006  0.3895
  596SOL    HW1 2687   0.499   5.836   3.744  0.0642  0.4378 -1.1439
  596SOL    HW2 2688   0.350   5.777   3.715  0.0852  0.1028 -0.5849
  597SOL     OW 2689   2.270   2.140   0.018  0.3070 -0.1780 -0.8265
  597SOL    HW1 2690   2.270   2.133   0.117  0.3027  1.5379 -0.6761
  597SOL    HW2 2691   2.273   2.048  -0.022  1.5190 -0.8745  0.7434
  598SOL     OW 2692   3.687   3.331   3.842  0.2705  0.6154  0.4762
  598SOL    HW1 2693   3.631   3.254   3.872 -1.1766  1.8459  1.0218
  598SOL    HW2 2694   3.685   3.403   3.911  2.7377  0.6365  0.6289
  599SOL     OW 2695   4.265   6.898   2.633  0.4422 -0.4164  0.1003
  599SOL    HW1 2696   4.343   6.883   2.694 -1.0878 -0.3634  2.1775
  599SOL    HW2 2697   4.203   6.965   2.675 -1.1723 -1.1385 -1.0619
  600SOL     OW 2698   6.970   2.082   6.086  0.0952  0.1407  0.6955
  600SOL    HW1 2699   6.952   2.149   6.158  3.3618  1.7377  0.1715
  600SOL    HW2 2700   7.029   2.010   6.122 -1.7850 -1.4703  0.7004
  601SOL     OW 2701   0.602   2.307   3.400 -0.2046 -0.0835  0.3667
  601SOL    HW1 2702   0.622   2.360   3.482 -0.2192  1.9347 -0.8531
  601SOL    HW2 2703   0.677   2.243   3.382 -0.1162 -0.4138  1.8052
  602SOL     OW 2704   2.223   1.069   7.011  0.5492 -0.0138 -0.6887
  602SOL    HW1 2705   2.263   1.159   7.028  0.8949  0.1889 -2.3783
  602SOL    HW2 2706   2.282   1.018   6.948 -0.2365 -0.9776 -0.6632
  603SOL     OW 2707   3.154   1.018   5.831  0.0302 -0.2566  0.1253
  603SOL    HW1 2708   3.228   1.011   5.898 -1.7021 -0.5453  2.1219
  603SOL    HW2 2709   3.157   0.941   5.768  0.9919 -0.6345  0.6277
  604SOL     OW 2710   6.034   1.776   2.408 -0.0992  0.3462 -0.0911
  604SOL    HW1 2711   6.099   1.803   2.336  0.3870  0.8522  0.5287
  604SOL    HW2 2712   6.084   1.746   2.489 -0.6471 -0.5047 -0.0566
  605SOL     OW 2713   5.603   5.458   0.797  0.2879  0.2283 -0.3211
  605SOL    HW1 2714   5.513   5.464   0.754  0.4543  0.0582 -0.6944
  605SOL    HW2 2715   5.601   5.391   0.870 -0.1585  0.9515  0.3450
  606SOL     OW 2716   5.705   5.989   5.544  0.0145  0.3522 -0.1393
  606SOL    HW1 2717   5.749   5.962   5.458  0.8899 -1.9394  0.9265
  606SOL    HW2 2718   5.774   5.992   5.616 -0.9411  0.7311  0.7714
  607SOL     OW 2719   6.671   4.924   2.372  0.7281  0.6337  0.3369
  607SOL    HW1 2720   6.597   4.988   2.350  0.9875  1.2390  1.1505
  607SOL    HW2 2721   6.666   4.901   2.470  0.1958 -1.1790 -0.0709
  608SOL     OW 2722   1.982   3.664   0.906  0.3313 -0.0183 -0.1207
  608SOL    HW1 2723   1.909   3.688   0.843 -0.7096 -0.3929  0.9105
  608SOL    HW2 2724   2.028   3.581   0.873  2.3865  1.8250 -2.4075
  609SOL     OW 2725   3.819   2.974   3.044 -0.4432  0.5613  0.0011
  609SOL    HW1 2726   3.868   3.061   3.036  0.5578 -0.0319 -0.4940
  609SOL    HW2 2727   3.791   2.943   2.953 -0.4216  0.1595  0.1299
  610SOL     OW 2728   6.430   3.519   1.508 -0.4606 -1.0243  0.1257
  610SOL    HW1 2729   6.503   3.462   1.544 -0.3187 -1.3459 -0.6464
  610SOL    HW2 2730   6.372   3.550   1.583  0.6735 -0.4559  0.7892
  611SOL     OW 2731   6.645   5.667   1.518 -0.5291 -0.5295  0.2898
  611SOL    HW1 2732   6.672   5.657   1.614 -0.5172 -0.0228  0.3419
  611SOL    HW2 2733   6.661   5.761   1.489  0.1620 -0.8618 -0.4316
  612SOL     OW 2734   5.952   6.498   2.199  0.2645 -0.1201  0.4199
  612SOL    HW1 2735   5.964   6.571   2.132  1.4556  0.8180  1.5802
  612SOL    HW2 2736   6.036   6.444   2.206  0.2326 -0.0808  1.2743
  613SOL     OW 2737   2.878   4.398   6.051  0.2143  0.6089 -0.2059
  613SOL    HW1 2738   2.963   4.439   6.081  1.1430 -1.2237 -0.1676
  613SOL    HW2 2739   2.816   4.388   6.129  1.0209 -0.4179  0.3346
  614SOL     OW 2740   6.826   4.940   6.430 -0.4662  0.4712  0.0827
  614SOL    HW1 2741   6.829   4.967   6.334  0.2717  1.0043  0.2540
  614SOL    HW2 2742   6.891   4.866   6.446 -0.2607  0.6937  0.2722
  615SOL     OW 2743   5.285   2.222   2.050 -0.4355 -0.2237 -0.3115
  615SOL    HW1 2744   5.256   2.316   2.034 -0.1718 -0.4229 -2.1358
  615SOL    HW2 2745   5.296   2.207   2.149 -1.5911  1.2987  0.0895
  616SOL     OW 2746   6.913   2.966   0.318 -0.0537  0.4452 -0.3702
  616SOL    HW1 2747   7.005   2.970   0.280  0.5726 -3.5169  0.3358
  616SOL    HW2 2748   6.897   2.876   0.359 -4.1861  1.0212 -0.2702
  617SOL     OW 2749   6.718   5.163   5.197  0.3444  0.7747  0.2197
  617SOL    HW1 2750   6.685   5.118   5.115  0.5630  0.8318  0.1018
  617SOL    HW2 2751   6.753   5.254   5.174  1.1307  0.4890  0.2528
  618SOL     OW 2752   1.424   2.308   1.559  0.5685 -0.4352  0.2395
  618SOL    HW1 2753   1.376   2.390   1.526  0.8562  1.3446  3.7701
  618SOL    HW2 2754   1.358   2.234   1.573 -0.0098 -0.2273 -1.1552
  619SOL     OW 2755   4.878   1.430   0.697  0.0258  0.1031  0.8798
  619SOL    HW1 2756   4.948   1.359   0.706 -0.0595 -0.3892 -1.6149
  619SOL    HW2 2757   4.921   1.518   0.681  0.0985  0.0369  0.7088
  620SOL     OW 2758   2.431   2.999   1.678  0.4596  0.2571  0.7443
  620SOL    HW1 2759   2.348   3.011   1.732  0.5092 -1.3740  1.2463
  620SOL    HW2 2760   2.419   2.920   1.617  1.3823  0.4365  0.3185
  621SOL     OW 2761   1.320   4.976   6.889  0.3377 -0.0482  0.2297
  621SOL    HW1 2762   1.338   4.909   6.961 -0.1885  2.0556  2.4548
  621SOL    HW2 2763   1.306   4.929   6.802 -0.2324 -2.8146  1.7140
  622SOL     OW 2764   1.456   0.021   6.435 -0.0965 -0.1793 -0.1892
  622SOL    HW1 2765   1.510   0.101   6.459  0.6100 -0.8452  0.4802
  622SOL    HW2 2766   1.490  -0.059   6.484 -0.8160 -0.8895 -0.8101
  623SOL     OW 2767   1.163   6.676   6.836  0.3918 -0.1622 -0.9944
  623SOL    HW1 2768   1.239   6.635   6.785  0.7118 -1.7849  0.6478
  623SOL    HW2 2769   1.082   6.618   6.827  0.6650 -0.9158  0.8487
  624SOL     OW 2770   6.501   0.325   1.507  0.1230 -0.0327  0.6365
  624SOL    HW1 2771   6.464   0.371   1.588 -2.1398  1.3162 -1.0395
  624SOL    HW2 2772   6.583   0.373   1.477  0.0735  0.4425  1.2342
  625SOL     OW 2773   3.774   0.912   1.393 -0.2891  0.3498 -0.5099
  625SOL    HW1 2774   3.774   0.978   1.468  0.2112  1.1946 -1.2267
  625SOL    HW2 2775   3.868   0.899   1.360 -0.5322  0.1998 -1.1617
  626SOL     OW 2776   1.960   6.578   3.781  0.9002  0.0552 -0.4614
  626SOL    HW1 2777   1.988   6.674   3.778 -0.9719  0.6233 -1.3042
  626SOL    HW2 2778   2.002   6.529   3.704  0.2962  0.6751 -1.2006
  627SOL     OW 2779   5.455   5.159   1.522  0.3353 -0.1525  0.0942
  627SOL    HW1 2780   5.510   5.239   1.547  1.4916 -0.2641 -1.8777
  627SOL    HW2 2781   5.374   5.188   1.471 -0.1943 -0.1490  0.9173
  628SOL     OW 2782   6.062   4.651   5.178 -0.7133  0.0579 -1.0997
  628SOL    HW1 2783   6.102   4.575   5.229  1.8680  0.8052 -1.8795
  628SOL    HW2 2784   6.067   4.734   5.233 -0.0026  0.4065 -1.6734
  629SOL     OW 2785   1.420   1.520   0.356  0.1017  0.6731  0.2852
  629SOL    HW1 2786   1.424   1.449   0.286  1.0876  0.8397  0.1549
  629SOL    HW2 2787   1.478   1.494   0.433  0.6241  1.3985  0.1558
  630SOL     OW 2788   0.745   2.091   1.983  0.5488 -0.2225 -0.4299
  630SOL    HW1 2789   0.695   2.080   2.069 -0.1412 -1.4963 -0.9659
  630SOL    HW2 2790   0.790   2.005   1.959  0.3768 -0.0148 -1.5527
  631SOL     OW 2791   3.655   5.995   4.940 -0.1059  0.0053 -0.0702
  631SOL    HW1 2792   3.592   6.066   4.971 -1.6766 -1.3222 -0.0821
  631SOL    HW2 2793   3.688   5.943   5.019  0.4490  0.2641 -0.1280
  632SOL     OW 2794   0.228   2.623   1.098  0.3758  0.2108  0.5192
  632SOL    HW1 2795   0.315   2.607   1.051 -0.5550  0.0135 -1.2369
  632SOL    HW2 2796   0.233   2.587   1.191  1.7759 -0.8852  0.0635
  633SOL     OW 2797   4.029   4.743   0.405  0.0669 -0.3218  0.9817
  633SOL    HW1 2798   4.002   4.801   0.482 -0.3531  0.2873  0.3883
  633SOL    HW2 2799   4.013   4.647   0.429 -0.7954 -0.0910  1.3756
  634SOL     OW 2800   4.429   3.697   6.669 -0.5280  0.5410 -0.8827
  634SOL    HW1 2801   4.393   3.642   6.594  2.3355  0.1166 -2.0433
  634SOL    HW2 2802   4.421   3.647   6.755 -1.2164 -0.1569 -1.3449
  635SOL     OW 2803   6.134   5.314   0.303  0.4229  0.0557 -0.0107
  635SOL    HW1 2804   6.139   5.247   0.229 -0.3852 -0.7747  0.6615
  635SOL    HW2 2805   6.182   5.278   0.383 -0.8260 -0.1774  0.6672
  636SOL     OW 2806   3.849   6.612   1.135  1.0198  0.4666  0.2398
  636SOL    HW1 2807   3.755   6.625   1.102  1.3684 -0.0764 -1.0232
  636SOL    HW2 2808   3.846   6.574   1.228 -0.0034  0.8744  0.3898
  637SOL     OW 2809   5.009   3.143   0.467 -0.1800  0.0975 -0.2992
  637SOL    HW1 2810   4.919   3.101   0.456  0.0289 -0.6666  0.7169
  637SOL    HW2 2811   4.998   3.239   0.495 -0.6808 -0.0493  0.0239
  638SOL     OW 2812   5.949   3.239   2.275  0.0312  0.1510  0.0278
  638SOL    HW1 2813   6.038   3.198   2.295 -0.2428  0.2227  1.5658
  638SOL    HW2 2814   5.877   3.172   2.292 -0.2445  0.2503 -0.7151
  639SOL     OW 2815   5.526   3.114   3.680  0.5911 -0.3812  0.2536
  639SOL    HW1 2816   5.476   3.032   3.708  0.0736  0.1795  1.0411
  639SOL    HW2 2817   5.536   3.175   3.759 -0.3748  0.9921 -0.6308
  640SOL     OW 2818   1.967   4.463   6.263 -0.4571  0.0790 -0.2130
  640SOL    HW1 2819   2.046   4.499   6.312  0.1021 -0.5929 -0.6045
  640SOL    HW2 2820   1.980   4.476   6.165 -0.0289 -1.5378 -0.4093
  641SOL     OW 2821   6.726   5.577   6.561 -0.3984 -0.6205 -0.1026
  641SOL    HW1 2822   6.670   5.651   6.523  0.0359 -0.7326 -0.9912
  641SOL    HW2 2823   6.784   5.613   6.634 -0.0537 -0.0255 -0.6544
  642SOL     OW 2824   6.870   3.526   5.180  0.3586 -0.5031 -0.2442
  642SOL    HW1 2825   6.914   3.521   5.270  0.1052 -0.8982 -0.1405
  642SOL    HW2 2826   6.822   3.441   5.162 -0.1912 -0.1537 -0.4525
  643SOL     OW 2827   5.659   0.335   4.521  0.2012 -0.1424  0.2231
  643SOL    HW1 2828   5.653   0.245   4.479 -0.1109  0.0135 -0.0716
  643SOL    HW2 2829   5.711   0.396   4.462 -1.1979  0.3931 -0.5164
  644SOL     OW 2830   1.686   0.049   3.119  0.3051  0.0166  0.8657
  644SOL    HW1 2831   1.665   0.126   3.058  0.6014 -0.2358  0.4389
  644SOL    HW2 2832   1.614  -0.020   3.113  0.2466  0.0709  0.9371
  645SOL     OW 2833   5.337   1.051   3.774  0.4179 -0.4335 -0.3776
  645SOL    HW1 2834   5.249   1.094   3.756  0.1453 -0.7260  0.2121
  645SOL    HW2 2835   5.403   1.121   3.804 -0.6174 -0.6216  2.7344
  646SOL     OW 2836   2.150   0.307   3.711 -0.3686 -0.6457  0.6516
  646SOL    HW1 2837   2.092   0.251   3.651  0.8121  0.1498 -1.3216
  646SOL    HW2 2838   2.118   0.401   3.710  1.4333  0.0185 -1.2533
  647SOL     OW 2839   5.644   1.489   5.384  0.1788  0.3160 -0.6120
  647SOL    HW1 2840   5.727   1.491   5.438  0.9962  0.4796 -1.8325
  647SOL    HW2 2841   5.599   1.401   5.394 -0.4397  0.8128  1.3870
  648SOL     OW 2842   0.088   3.890   3.373  0.1841 -0.1979  0.3809
  648SOL    HW1 2843   0.017   3.828   3.406 -0.1572 -0.5845 -1.0107
  648SOL    HW2 2844   0.052   3.983   3.367  0.1536 -0.1836  0.7832
  649SOL     OW 2845   3.887   4.666   6.485  0.4723 -0.2635 -0.6123
  649SOL    HW1 2846   3.969   4.615   6.460 -1.6327 -3.0030 -2.7073
  649SOL    HW2 2847   3.877   4.745   6.425  2.6040  1.4654  1.1513
  650SOL     OW 2848   5.924   3.200   1.832 -0.6490 -0.3437  0.5315
  650SOL    HW1 2849   5.872   3.233   1.752 -0.6996 -0.6239  0.4472
  650SOL    HW2 2850   5.979   3.122   1.805  0.4994  0.4832  0.4085
  651SOL     OW 2851   0.032   6.184   5.859  0.4846 -0.2592 -0.4065
  651SOL    HW1 2852   0.064   6.198   5.766 -0.5593  0.0503 -0.7335
  651SOL    HW2 2853   0.013   6.087   5.873  0.0754 -0.2257 -0.7115
  652SOL     OW 2854   4.742   5.945   3.332  0.1164  0.8082  0.4214
  652SOL    HW1 2855   4.791   6.022   3.374  0.9242  0.4165  0.2256
  652SOL    HW2 2856   4.645   5.968   3.323 -0.0304  1.0338  2.2003
  653SOL     OW 2857   4.397   6.208   3.002  0.0771 -0.0637 -0.2013
  653SOL    HW1 2858   4.324   6.201   2.933 -0.2487  0.8894  0.0322
  653SOL    HW2 2859   4.480   6.244   2.959 -0.7163  2.4924  0.2692
  654SOL     OW 2860   1.440   2.741   5.329  0.2697 -0.1821 -0.0449
  654SOL    HW1 2861   1.402   2.654   5.297  0.2208 -0.3043  0.3469
  654SOL    HW2 2862   1.536   2.747   5.301  0.0983 -0.0767 -0.6315
  655SOL     OW 2863   1.788   0.154   2.220  0.0776  0.2724  0.5467
  655SOL    HW1 2864   1.764   0.124   2.127  2.4844 -2.8140  0.7326
  655SOL    HW2 2865   1.723   0.116   2.285 -0.6411  1.0086  0.2651
  656SOL     OW 2866   1.793   5.158   0.442 -0.6438  0.2462 -0.0036
  656SOL    HW1 2867   1.784   5.071   0.393  1.2502 -0.6926  1.1966
  656SOL    HW2 2868   1.719   5.166   0.509  0.4707 -1.6902  1.5878
  657SOL     OW 2869   1.269   2.095   2.827 -0.2841  0.3296  0.2848
  657SOL    HW1 2870   1.356   2.134   2.797  0.2699  0.0407  1.4301
  657SOL    HW2 2871   1.286   2.027   2.899 -1.1530 -2.6633 -2.1253
  658SOL     OW 2872   2.728   4.448   5.609 -0.4220  0.3469  0.0156
  658SOL    HW1 2873   2.709   4.448   5.707 -2.1346 -0.9576 -0.2586
  658SOL    HW2 2874   2.705   4.358   5.571 -2.6470  1.6717 -2.0603
  659SOL     OW 2875   1.683   0.739   5.000 -0.2029  0.1536  0.2236
  659SOL    HW1 2876   1.742   0.784   5.068  0.6608  0.2633 -0.5788
  659SOL    HW2 2877   1.660   0.804   4.928 -0.0233 -0.3313 -0.2723
  660SOL     OW 2878   5.580   2.825   2.777 -0.4529  0.6325 -0.4232
  660SOL    HW1 2879   5.550   2.731   2.761  0.0559  0.6732 -1.7037
  660SOL    HW2 2880   5.587   2.841   2.876 -1.4614 -0.3663 -0.1680
  661SOL     OW 2881   4.996   6.306   3.208 -0.6249 -0.1236 -0.5478
  661SOL    HW1 2882   4.989   6.402   3.179  0.3140  0.3997  0.8291
  661SOL    HW2 2883   5.089   6.288   3.240 -1.4848 -0.6633  1.8867
  662SOL     OW 2884   3.696   0.513   3.676 -0.0685 -0.2735 -0.1762
  662SOL    HW1 2885   3.725   0.486   3.767  3.3499 -0.6746 -1.2374
  662SOL    HW2 2886   3.691   0.613   3.671 -3.0689 -0.2447  1.0800
  663SOL     OW 2887   3.728   6.065   6.099 -0.5714 -0.2042 -0.7783
  663SOL    HW1 2888   3.738   6.003   6.177  0.3042 -2.7604 -2.7719
  663SOL    HW2 2889   3.676   6.020   6.027  0.4853  1.1947 -2.5144
  664SOL     OW 2890   6.462   4.954   0.372  0.4726 -0.5452 -0.1472
  664SOL    HW1 2891   6.410   4.884   0.322  1.7517 -1.5578 -0.1227
  664SOL    HW2 2892   6.499   5.020   0.306 -0.3373 -0.1573 -0.2218
  665SOL     OW 2893   5.457   4.264   0.828 -0.4491 -0.1946  0.3262
  665SOL    HW1 2894   5.399   4.240   0.750 -0.0086 -0.8487  0.1947
  665SOL    HW2 2895   5.423   4.216   0.910 -2.8377  2.8229  1.3101
  666SOL     OW 2896   4.867   1.680   2.304 -0.0484 -0.6393  0.2146
  666SOL    HW1 2897   4.769   1.698   2.292 -0.0276 -0.1833  0.6839
  666SOL    HW2 2898   4.879   1.610   2.375  0.0384  1.3751  2.3028
  667SOL     OW 2899   6.698   4.683   2.075  0.4812 -0.9134 -0.1667
  667SOL    HW1 2900   6.637   4.610   2.041 -0.4788 -0.0629 -0.3252
  667SOL    HW2 2901   6.717   4.667   2.172 -0.7169 -0.7488  0.1209
  668SOL     OW 2902   4.378   5.911   6.788  0.3672  0.3860 -0.4333
  668SOL    HW1 2903   4.410   5.816   6.785 -1.0613 -0.2121  1.2883
  668SOL    HW2 2904   4.415   5.956   6.869 -1.2117  0.3801  0.3365
  669SOL     OW 2905   5.649   5.076   0.559 -0.2437  0.2194 -0.2119
  669SOL    HW1 2906   5.684   5.106   0.470  0.7178  0.7069  0.3109
  669SOL    HW2 2907   5.723   5.033   0.611 -0.7907 -0.0486  0.3543
  670SOL     OW 2908   3.558   3.867   2.366  0.7003 -0.2044 -0.1550
  670SOL    HW1 2909   3.633   3.880   2.430  0.2739  0.2328  0.2697
  670SOL    HW2 2910   3.509   3.954   2.354  1.2182 -0.0779 -1.6477
  671SOL     OW 2911   4.042   5.945   0.097 -0.3004 -0.2306  0.0329
  671SOL    HW1 2912   4.047   5.867   0.160  0.0559 -0.1147  0.1502
  671SOL    HW2 2913   3.947   5.975   0.089 -0.1244  1.1518  2.2444
  672SOL     OW 2914   1.805   5.034   2.941  0.3627 -0.0599 -0.0708
  672SOL    HW1 2915   1.865   5.108   2.911 -0.7381  0.9539  0.1447
  672SOL    HW2 2916   1.757   5.061   3.025 -1.5274 -0.1996 -1.0525
  673SOL     OW 2917   5.578   0.062   1.501 -0.1579  0.3564  0.2455
  673SOL    HW1 2918   5.489   0.090   1.465 -0.9458  0.7348  2.3507
  673SOL    HW2 2919   5.574  -0.034   1.529 -0.4835  0.8291  1.9226
  674SOL     OW 2920   2.490   2.072   4.686  0.5373  0.3696  0.2200
  674SOL    HW1 2921   2.455   2.011   4.615 -2.7386  1.1879  0.9996
  674SOL    HW2 2922   2.498   2.165   4.649 -0.9718  0.7534  0.7809
  675SOL     OW 2923   1.891   1.491   4.105 -0.5562 -0.0879 -0.4040
  675SOL    HW1 2924   1.910   1.439   4.188  0.2255  2.1616  0.9445
  675SOL    HW2 2925   1.938   1.450   4.028  0.7260 -0.8961  0.7611
  676SOL     OW 2926   2.488   5.497   3.248 -0.2939  0.2586 -0.6114
  676SOL    HW1 2927   2.479   5.403   3.214  1.0624 -0.3418  0.5770
  676SOL    HW2 2928   2.564   5.502   3.313 -0.7352  2.0591 -0.1693
  677SOL     OW 2929   6.607   1.644   1.135  0.9844  0.1972 -0.3927
  677SOL    HW1 2930   6.576   1.646   1.230  1.2202 -0.1014 -0.3057
  677SOL    HW2 2931   6.623   1.737   1.102 -2.3498  0.6167 -1.2285
  678SOL     OW 2932   2.881   1.398   4.423  0.4753  0.4739 -0.3468
  678SOL    HW1 2933   2.847   1.475   4.478 -0.0313  0.9398 -1.2774
  678SOL    HW2 2934   2.909   1.324   4.483  0.3277  1.1257  0.5515
  679SOL     OW 2935   5.135   1.087   5.237  0.1945  0.6896 -0.5674
  679SOL    HW1 2936   5.048   1.122   5.270  0.3407  0.2181  0.3690
  679SOL    HW2 2937   5.197   1.164   5.219  0.1297  0.9655  0.3421
  680SOL     OW 2938   5.493   6.596   4.662  0.0498  0.5140  0.3762
  680SOL    HW1 2939   5.486   6.551   4.573 -2.5789  0.0312  0.7350
  680SOL    HW2 2940   5.535   6.686   4.650  2.1251 -0.5461 -0.9015
  681SOL     OW 2941   3.801   3.428   0.322 -0.3411  0.2554 -0.2211
  681SOL    HW1 2942   3.899   3.424   0.340 -0.2832 -1.4218 -0.7441
  681SOL    HW2 2943   3.781   3.507   0.264  0.7518  0.3771 -0.4522
  682SOL     OW 2944   0.903   6.497   1.215  0.3404 -0.1953  0.0022
  682SOL    HW1 2945   0.949   6.513   1.303 -0.3368  0.5212  0.2350
  682SOL    HW2 2946   0.971   6.493   1.142  0.7697  1.1374  0.3056
  683SOL     OW 2947   4.669   2.427   0.660 -0.0503  0.1886  0.5209
  683SOL    HW1 2948   4.701   2.337   0.631 -0.4774  0.2536 -0.1758
  683SOL    HW2 2949   4.748   2.487   0.675  0.2138 -0.1400  0.4692
  684SOL     OW 2950   1.265   0.427   0.689 -0.3933  0.6210  0.1267
  684SOL    HW1 2951   1.193   0.358   0.690  0.4700 -0.3340 -0.8590
  684SOL    HW2 2952   1.253   0.485   0.609  1.0477 -0.8286 -1.2150
  685SOL     OW 2953   4.599   1.886   4.823  0.8105  0.6217 -0.0878
  685SOL    HW1 2954   4.551   1.932   4.748  0.9499  0.5801 -0.2043
  685SOL    HW2 2955   4.670   1.946   4.859  0.8697  0.5705 -0.1170
  686SOL     OW 2956   5.787   2.429   4.633 -0.4968  0.7125  0.1222
  686SOL    HW1 2957   5.784   2.417   4.534 -2.7726 -0.5945  0.2715
  686SOL    HW2 2958   5.856   2.368   4.672  0.0775  0.8883 -0.6012
  687SOL     OW 2959   1.042   3.156   3.083  0.0050  0.0671  0.1883
  687SOL    HW1 2960   0.945   3.143   3.066  0.0652 -0.0110 -0.1055
  687SOL    HW2 2961   1.067   3.118   3.172 -0.2108 -0.0096  0.2143
  688SOL     OW 2962   6.931   2.223   1.294 -0.1455  0.0204 -0.3572
  688SOL    HW1 2963   6.891   2.138   1.262  0.9244 -0.0870 -1.5016
  688SOL    HW2 2964   6.958   2.279   1.215 -0.3732  1.2033  0.3687
  689SOL     OW 2965   0.360   4.565   5.901 -0.0853 -0.3961  0.1099
  689SOL    HW1 2966   0.402   4.654   5.887 -0.4963 -0.5339 -2.3708
  689SOL    HW2 2967   0.268   4.578   5.939 -0.3114  0.2795 -0.6344
  690SOL     OW 2968   1.892   2.586   3.168  0.2065 -0.4894  0.0957
  690SOL    HW1 2969   1.833   2.510   3.195 -1.3613  1.2570  1.8679
  690SOL    HW2 2970   1.959   2.603   3.240 -0.4606  0.7289  0.4662
  691SOL     OW 2971   0.199   1.844   6.392 -0.3154 -0.4497 -0.1421
  691SOL    HW1 2972   0.150   1.768   6.434 -1.2630  0.0378 -0.3536
  691SOL    HW2 2973   0.204   1.920   6.457 -0.6126 -0.1771 -0.4397
  692SOL     OW 2974   3.517   6.716   4.051 -0.4413 -0.2090 -0.3181
  692SOL    HW1 2975   3.499   6.671   4.139 -1.9588  1.9673  0.5995
  692SOL    HW2 2976   3.439   6.703   3.990 -0.5025  0.3420 -0.3689
  693SOL     OW 2977   6.320   2.137   3.764  0.0866 -0.3414  0.1754
  693SOL    HW1 2978   6.412   2.103   3.743  0.3330 -1.9670  3.3444
  693SOL    HW2 2979   6.318   2.173   3.857 -2.4615 -0.2657  0.1645
  694SOL     OW 2980   3.414   6.185   5.670  0.2572  0.0667 -0.1851
  694SOL    HW1 2981   3.444   6.091   5.685  1.2580  0.1202 -1.6553
  694SOL    HW2 2982   3.332   6.184   5.613  0.6041  0.0974 -0.6883
  695SOL     OW 2983   0.853   6.114   3.627  0.6469 -0.2155  0.0789
  695SOL    HW1 2984   0.855   6.068   3.716  1.2377  0.1128  0.2416
  695SOL    HW2 2985   0.829   6.211   3.641  0.8339 -0.1411 -0.1119
  696SOL     OW 2986   5.477   3.683   1.877 -0.2893 -0.1740  0.8391
  696SOL    HW1 2987   5.496   3.610   1.811 -2.4263 -0.2425  0.2358
  696SOL    HW2 2988   5.408   3.653   1.942 -2.1710  1.6629 -0.1889
  697SOL     OW 2989   0.815   4.414   3.314  0.3914 -0.1520  0.3296
  697SOL    HW1 2990   0.856   4.334   3.271 -2.3833 -2.0844  1.0136
  697SOL    HW2 2991   0.871   4.444   3.391  1.6266 -1.2329 -0.1220
  698SOL     OW 2992   5.630   5.944   0.450  0.5301  0.0599  0.3338
  698SOL    HW1 2993   5.533   5.924   0.436  0.4967 -0.2205  0.9298
  698SOL    HW2 2994   5.679   5.930   0.364 -0.0504  0.8294 -0.1362
  699SOL     OW 2995   1.888   4.596   0.757 -0.1173  0.5004 -0.2106
  699SOL    HW1 2996   1.891   4.595   0.657  0.9594  1.2818 -0.2010
  699SOL    HW2 2997   1.809   4.543   0.788 -1.2585  1.3751 -1.5039
  700SOL     OW 2998   3.837   0.567   2.673 -0.3901  0.1879  0.3879
  700SOL    HW1 2999   3.810   0.506   2.598 -0.2592 -1.4325  1.5913
  700SOL    HW2 3000   3.924   0.610   2.652 -1.1767  1.0895 -1.1138
  701SOL     OW 3001   4.438   3.253   6.427 -0.4108 -0.3127  0.1740
  701SOL    HW1 3002   4.344   3.220   6.420 -0.5607  0.4813 -2.2984
  701SOL    HW2 3003   4.500   3.186   6.385  0.0500 -0.4112  0.9846
  702SOL     OW 3004   5.354   6.850   6.991 -0.1849 -0.0906 -0.4012
  702SOL    HW1 3005   5.401   6.897   6.917 -3.2642  0.3599 -2.2549
  702SOL    HW2 3006   5.288   6.913   7.034  0.3253 -0.8481  1.6231
  703SOL     OW 3007   2.592   1.440   1.093  0.0889  0.2166 -0.0597
  703SOL    HW1 3008   2.603   1.509   1.021 -1.5993 -1.4409 -2.0098
  703SOL    HW2 3009   2.670   1.378   1.092 -0.2088 -0.1540 -0.8834
  704SOL     OW 3010   2.078   1.516   0.123  0.6486 -0.5128  0.1989
  704SOL    HW1 3011   2.057   1.612   0.142  2.2783 -0.6384  3.1473
  704SOL    HW2 3012   2.050   1.494   0.029  0.5783  2.9218 -0.7190
  705SOL     OW 3013   5.944   4.709   1.314  0.5557 -0.2325 -0.4548
  705SOL    HW1 3014   5.993   4.700   1.226  0.4952 -0.3794 -0.4747
  705SOL    HW2 3015   5.952   4.803   1.347  0.6690 -0.2018 -0.5656
  706SOL     OW 3016   3.043   6.868   0.605  0.5543 -0.7795 -0.5551
  706SOL    HW1 3017   3.110   6.827   0.667 -0.7282 -0.9343  0.7566
  706SOL    HW2 3018   3.090   6.932   0.544  1.7376  0.0493  1.1495
  707SOL     OW 3019   4.450   4.548   3.683 -0.0387  0.4021 -0.3141
  707SOL    HW1 3020   4.539   4.539   3.728 -0.3935 -0.7952  0.1962
  707SOL    HW2 3021   4.378   4.561   3.751 -0.7040 -2.4219 -0.3552
  708SOL     OW 3022   4.078   6.877   0.770 -0.3668  0.6094 -0.2936
  708SOL    HW1 3023   4.042   6.831   0.688 -1.2495  0.1783  0.3170
  708SOL    HW2 3024   4.006   6.880   0.840  0.7475 -0.1296  0.9238
  709SOL     OW 3025   1.202   5.935   1.246  0.3895 -0.3778  0.5922
  709SOL    HW1 3026   1.189   6.028   1.281  0.7671  0.5001 -1.3993
  709SOL    HW2 3027   1.299   5.912   1.249  0.2477 -0.8774  1.4551
  710SOL     OW 3028   2.610   1.791   0.161 -0.1983 -0.3697  0.4745
  710SOL    HW1 3029   2.628   1.836   0.073 -1.5657  0.0843  0.4101
  710SOL    HW2 3030   2.545   1.716   0.147 -0.2491 -0.4352  1.0664
  711SOL     OW 3031   1.477   2.660   5.942 -0.3732  0.0679  0.5271
  711SOL    HW1 3032   1.511   2.688   6.032  1.0752  1.1433 -0.3140
  711SOL    HW2 3033   1.382   2.691   5.931  0.0442  1.5904  0.9914
  712SOL     OW 3034   2.655   1.945   1.300 -0.5677 -0.2594 -0.0469
  712SOL    HW1 3035   2.606   1.912   1.219 -2.1291 -0.6439  0.9862
  712SOL    HW2 3036   2.747   1.906   1.301 -0.9345 -1.2384 -1.0117
  713SOL     OW 3037   3.489   3.205   4.974  0.4943 -0.1122  0.1813
  713SOL    HW1 3038   3.508   3.303   4.980 -0.3915  0.0694  0.1943
  713SOL    HW2 3039   3.443   3.185   4.887 -2.4632  0.0712  1.5785
  714SOL     OW 3040   6.282   5.050   3.892 -0.3504  0.5170  0.4937
  714SOL    HW1 3041   6.260   5.056   3.795 -3.3774 -2.5233  0.8004
  714SOL    HW2 3042   6.216   5.104   3.945 -0.5668 -0.1971  0.9685
  715SOL     OW 3043   0.059   5.596   6.255 -0.6110  0.0308 -0.1613
  715SOL    HW1 3044   0.156   5.616   6.272 -0.6381  0.8482 -0.8371
  715SOL    HW2 3045   0.047   5.498   6.240  0.3934  0.0918 -1.6348
  716SOL     OW 3046   0.500   6.560   3.736 -0.3183 -0.4900 -0.1782
  716SOL    HW1 3047   0.492   6.575   3.834 -0.2603  0.9351 -0.3701
  716SOL    HW2 3048   0.468   6.641   3.687 -0.0121 -1.0435 -1.3276
  717SOL     OW 3049   5.573   4.971   1.784 -0.5306  0.3641  0.1836
  717SOL    HW1 3050   5.474   4.962   1.796 -0.5598  0.2253 -0.1334
  717SOL    HW2 3051   5.611   4.883   1.755 -0.2190  0.2491  0.9170
  718SOL     OW 3052   4.902   3.022   5.879 -0.4560  0.1158  0.1010
  718SOL    HW1 3053   4.974   3.089   5.893  1.6793 -2.1984  0.8425
  718SOL    HW2 3054   4.837   3.058   5.812  0.2790  3.0656  0.8114
  719SOL     OW 3055   6.941   0.408   4.305 -0.4561 -0.2182  0.0358
  719SOL    HW1 3056   6.842   0.422   4.311 -0.3356  0.9613 -0.3228
  719SOL    HW2 3057   6.960   0.313   4.283 -1.5586 -0.2860 -0.7253
  720SOL     OW 3058   2.545   5.370   5.030 -0.2999  0.0172  0.9299
  720SOL    HW1 3059   2.624   5.431   5.034  2.8443 -3.4101 -1.9128
  720SOL    HW2 3060   2.494   5.389   4.946 -0.2496 -0.2388  0.8426
  721SOL     OW 3061   1.388   0.068   3.177  0.7552 -0.2380 -0.0369
  721SOL    HW1 3062   1.299   0.080   3.221  1.1153  0.7697  0.4426
  721SOL    HW2 3063   1.389   0.116   3.089  0.8339 -0.2267 -0.0302
  722SOL     OW 3064   3.147   1.265   5.597  0.2042 -0.3935  0.3178
  722SOL    HW1 3065   3.235   1.248   5.642 -0.4112 -1.4031  1.1960
  722SOL    HW2 3066   3.076   1.274   5.667 -0.3219  0.9035 -0.3647
  723SOL     OW 3067   1.258   5.943   3.054  0.1972 -0.7994  0.0112
  723SOL    HW1 3068   1.252   5.949   2.955 -4.1522  0.1460  0.1283
  723SOL    HW2 3069   1.299   6.026   3.090  0.7963 -0.6698 -0.9574
  724SOL     OW 3070   0.707   0.369   3.956 -0.0691  0.0957  0.4005
  724SOL    HW1 3071   0.803   0.381   3.981  0.0340  0.1840 -0.0354
  724SOL    HW2 3072   0.681   0.274   3.971  0.3324 -0.1322 -0.3062
  725SOL     OW 3073   2.303   6.709   0.618  0.2407 -0.3030  0.0184
  725SOL    HW1 3074   2.370   6.664   0.677 -4.3226 -5.5769  2.1275
  725SOL    HW2 3075   2.254   6.778   0.670  0.0946 -0.7534  0.4854
  726SOL     OW 3076   3.427   3.362   1.295 -0.2209  0.4329 -0.2733
  726SOL    HW1 3077   3.451   3.459   1.303  2.2822 -0.2557  2.4788
  726SOL    HW2 3078   3.502   3.313   1.251 -0.1709 -0.6183  0.9251
  727SOL     OW 3079   6.936   4.449   5.043  0.3023 -0.3217 -0.7746
  727SOL    HW1 3080   6.879   4.518   5.089  1.3950  0.3726 -0.4116
  727SOL    HW2 3081   6.895   4.359   5.056 -0.4096  0.0849 -0.0273
  728SOL     OW 3082   6.190   3.141   2.885 -0.1650  0.3200 -0.1106
  728SOL    HW1 3083   6.290   3.137   2.880 -0.1310  1.3567 -0.3524
  728SOL    HW2 3084   6.157   3.228   2.849 -1.1913 -0.1777 -0.4270
  729SOL     OW 3085   0.514   2.914   0.454 -0.2309  0.1020 -0.4796
  729SOL    HW1 3086   0.425   2.889   0.415 -0.0660 -1.6696  0.1699
  729SOL    HW2 3087   0.560   2.831   0.485  0.8134  1.1851  0.9675
  730SOL     OW 3088   6.752   6.276   3.436 -0.6253  0.3151  0.5604
  730SOL    HW1 3089   6.778   6.300   3.529  2.5950 -0.0319 -0.1055
  730SOL    HW2 3090   6.771   6.179   3.420 -1.2129  0.3516 -0.4162
  731SOL     OW 3091   3.109   6.979   5.224  0.2690 -0.5199  0.2578
  731SOL    HW1 3092   3.012   6.999   5.215  0.0171 -1.3332  1.0479
  731SOL    HW2 3093   3.125   6.927   5.308  1.5618  0.7377  0.8263
  732SOL     OW 3094   6.249   3.380   1.156 -0.1457 -0.3266 -0.5936
  732SOL    HW1 3095   6.159   3.379   1.113 -1.0976  0.4807  1.2452
  732SOL    HW2 3096   6.270   3.474   1.186  0.9692 -0.6508 -0.3310
  733SOL     OW 3097   6.129   0.231   5.800 -0.0713  0.3264 -0.0432
  733SOL    HW1 3098   6.181   0.205   5.719 -0.8571  0.6649 -0.6781
  733SOL    HW2 3099   6.086   0.320   5.784 -2.1065 -0.6326 -0.1577
  734SOL     OW 3100   0.271   5.623   3.701 -0.4482 -0.5534 -0.4868
  734SOL    HW1 3101   0.314   5.533   3.702  0.6011 -0.0722  0.3573
  734SOL    HW2 3102   0.213   5.632   3.620 -0.1678 -1.7922 -0.8437
  735SOL     OW 3103   4.257   6.509   1.649  0.0943  0.2443 -0.3123
  735SOL    HW1 3104   4.333   6.488   1.712 -0.8983  1.3399  1.3068
  735SOL    HW2 3105   4.173   6.522   1.702 -1.5129 -1.9558 -2.1263
  736SOL     OW 3106   0.304   0.885   3.660  0.2705 -0.2505 -0.0421
  736SOL    HW1 3107   0.281   0.946   3.584  0.9910  0.4540  0.2922
  736SOL    HW2 3108   0.310   0.791   3.627 -2.0767 -0.3575 -0.3399
  737SOL     OW 3109   6.672   1.482   4.721 -0.0653  0.5289 -0.0432
  737SOL    HW1 3110   6.601   1.454   4.656  1.4566  0.1725 -1.6372
  737SOL    HW2 3111   6.760   1.489   4.673  0.9164  1.3578  1.7741
  738SOL     OW 3112   1.698   4.123   1.560 -0.0077  0.3304 -0.0059
  738SOL    HW1 3113   1.769   4.086   1.619  0.2894  0.5785 -0.2107
  738SOL    HW2 3114   1.729   4.208   1.518 -0.7358  0.8925  0.5637
  739SOL     OW 3115   4.591   6.959   5.154  0.5028  0.2949 -0.3721
  739SOL    HW1 3116   4.501   6.995   5.130  0.4340  0.5701  0.2783
  739SOL    HW2 3117   4.581   6.866   5.188  0.4698  0.3229 -0.3065
  740SOL     OW 3118   5.692   1.457   1.746 -0.4240  0.3107 -0.2322
  740SOL    HW1 3119   5.608   1.411   1.716 -0.3163  0.3503 -0.5965
  740SOL    HW2 3120   5.701   1.545   1.699 -0.5987  0.6806  0.4214
  741SOL     OW 3121   2.124   2.206   1.743  0.6222 -0.0743 -0.3127
  741SOL    HW1 3122   2.149   2.291   1.791 -0.1966  0.8304 -1.4246
  741SOL    HW2 3123   2.046   2.224   1.684  2.5650 -0.6548 -3.2758
  742SOL     OW 3124   1.981   6.516   1.744  0.1740  0.0970  0.0193
  742SOL    HW1 3125   2.049   6.474   1.685 -1.6760 -2.9420 -0.1516
  742SOL    HW2 3126   1.896   6.531   1.693 -0.6947 -0.3416  1.2897
  743SOL     OW 3127   0.834   4.971   2.838 -0.8697  0.2008 -0.0740
  743SOL    HW1 3128   0.795   5.000   2.925 -1.9009  1.6640 -0.9632
  743SOL    HW2 3129   0.933   4.963   2.847 -1.0671 -0.8284  1.5148
  744SOL     OW 3130   7.001   0.887   0.611  0.3522  0.4832  0.0723
  744SOL    HW1 3131   6.960   0.852   0.695 -0.2126  0.5774 -0.1599
  744SOL    HW2 3132   7.095   0.915   0.630  0.3845  0.0713  0.5627
  745SOL     OW 3133   3.774   4.899   4.145 -0.3893  0.7393  0.1170
  745SOL    HW1 3134   3.680   4.899   4.179  0.0527  1.9136  1.4396
  745SOL    HW2 3135   3.773   4.902   4.045 -1.7284 -0.7152  0.0453
  746SOL     OW 3136   4.153   3.552   5.008  0.4945  0.3637 -0.1130
  746SOL    HW1 3137   4.155   3.642   5.052 -0.5738  0.0410  0.6478
  746SOL    HW2 3138   4.160   3.563   4.909 -0.7520  1.3767 -0.1224
  747SOL     OW 3139   4.407   5.220   5.547  0.3080 -0.3589  0.0835
  747SOL    HW1 3140   4.502   5.250   5.539  0.9642 -2.2168  0.5122
  747SOL    HW2 3141   4.350   5.275   5.486  1.7593  0.3224 -0.7138
  748SOL     OW 3142   5.443   5.933   4.249  0.3918  0.1285 -0.2322
  748SOL    HW1 3143   5.401   6.003   4.191  0.6078  0.6574  0.2315
  748SOL    HW2 3144   5.481   5.977   4.331 -0.2207 -0.6460  0.4829
  749SOL     OW 3145   6.729   6.689   4.778  0.3929 -0.2257 -0.2117
  749SOL    HW1 3146   6.770   6.779   4.794  1.3990 -0.3466 -1.8918
  749SOL    HW2 3147   6.630   6.699   4.769  0.5950  0.9288 -1.5500
  750SOL     OW 3148   3.062   1.139   1.794  0.1858 -0.2380  0.1626
  750SOL    HW1 3149   2.987   1.141   1.729 -0.4242  1.9650  0.8624
  750SOL    HW2 3150   3.122   1.217   1.780  1.0871 -0.7282  1.0723
  751SOL     OW 3151   4.558   2.427   6.798  0.5721 -0.3841 -0.2610
  751SOL    HW1 3152   4.558   2.370   6.716 -0.1440 -0.9338  0.1102
  751SOL    HW2 3153   4.490   2.393   6.863  1.5887 -0.3794  0.8496
  752SOL     OW 3154   1.630   1.793   1.963 -0.3574  0.3314 -0.1272
  752SOL    HW1 3155   1.719   1.789   2.007 -0.6471 -0.0639  0.4347
  752SOL    HW2 3156   1.564   1.836   2.024 -0.3155  1.6337 -0.9673
  753SOL     OW 3157   1.432   3.470   5.837 -0.2364 -0.2218 -0.0440
  753SOL    HW1 3158   1.454   3.421   5.752  4.6675  2.2254 -0.5393
  753SOL    HW2 3159   1.480   3.428   5.913  1.0107  1.4872  0.1727
  754SOL     OW 3160   5.338   1.483   4.823  0.3584 -0.0520  0.5876
  754SOL    HW1 3161   5.425   1.487   4.872  1.1663 -0.1826 -0.7810
  754SOL    HW2 3162   5.352   1.440   4.734 -1.4085 -1.4659  0.9384
  755SOL     OW 3163   1.679   5.651   5.244  0.3174  0.2079 -0.3232
  755SOL    HW1 3164   1.726   5.645   5.156 -1.0875  1.8993 -1.2519
  755SOL    HW2 3165   1.712   5.731   5.294 -0.4045  0.4960 -0.2912
  756SOL     OW 3166   1.822   5.833   1.060  0.3133  0.1626  0.4325
  756SOL    HW1 3167   1.900   5.773   1.045  0.2412  0.3936 -0.9465
  756SOL    HW2 3168   1.755   5.820   0.987 -1.9247 -1.4995  2.5724
  757SOL     OW 3169   6.314   6.726   3.802 -0.1101 -0.5537 -0.5055
  757SOL    HW1 3170   6.346   6.642   3.847  0.9837  0.5832  0.9684
  757SOL    HW2 3171   6.363   6.804   3.840 -1.7875  0.8738 -1.1471
  758SOL     OW 3172   4.008   6.815   3.967 -0.0930  0.1749 -0.3005
  758SOL    HW1 3173   3.972   6.907   3.952  2.9148  1.8045  1.4325
  758SOL    HW2 3174   3.988   6.787   4.061  0.4690 -0.2117 -0.2923
  759SOL     OW 3175   6.692   5.421   2.301  0.0092  0.0822  0.2297
  759SOL    HW1 3176   6.739   5.475   2.232 -0.2678  0.8971  0.6629
  759SOL    HW2 3177   6.755   5.355   2.341  0.4456  0.3125 -0.0787
  760SOL     OW 3178   0.886   0.507   3.532 -0.6037  0.2446  0.0864
  760SOL    HW1 3179   0.958   0.547   3.475  1.2545 -0.9012  1.4976
  760SOL    HW2 3180   0.912   0.515   3.629 -2.7407  0.3959  0.7009
  761SOL     OW 3181   4.135   2.964   0.435  0.6690 -0.0013 -0.0163
  761SOL    HW1 3182   4.144   2.971   0.336 -0.4353 -1.4856 -0.2603
  761SOL    HW2 3183   4.115   3.054   0.474  0.1158  0.4336 -1.2627
  762SOL     OW 3184   2.356   6.527   6.846 -0.0712 -0.2271 -0.4403
  762SOL    HW1 3185   2.428   6.480   6.796 -1.0535 -0.7739 -1.3884
  762SOL    HW2 3186   2.390   6.557   6.935  0.7082 -2.3142 -0.0032
  763SOL     OW 3187   2.403   3.824   6.769  0.1546  0.1483 -0.1856
  763SOL    HW1 3188   2.305   3.838   6.756  0.5768  2.7384 -1.1399
  763SOL    HW2 3189   2.451   3.842   6.684  1.5419 -0.5753  0.4039
  764SOL     OW 3190   5.811   0.853   5.529  0.2278  0.1908 -0.1107
  764SOL    HW1 3191   5.843   0.845   5.623 -1.4908 -0.1226  0.4971
  764SOL    HW2 3192   5.880   0.819   5.466  0.6577 -1.4294  1.1775
  765SOL     OW 3193   0.628   4.905   2.012 -0.0922 -0.2262  0.4122
  765SOL    HW1 3194   0.620   4.948   1.922 -0.1667 -1.4786 -0.1915
  765SOL    HW2 3195   0.695   4.955   2.066  0.4448  0.1521 -0.5711
  766SOL     OW 3196   3.676   1.905   4.075  0.4852 -0.1942 -0.3672
  766SOL    HW1 3197   3.748   1.837   4.058  0.7204 -0.0031 -0.1497
  766SOL    HW2 3198   3.645   1.897   4.170  1.2611  0.6972 -0.0196
  767SOL     OW 3199   0.059   0.611   1.849  0.1053 -0.1583  0.3258
  767SOL    HW1 3200   0.031   0.524   1.890  1.5576 -0.4010  0.8533
  767SOL    HW2 3201   0.072   0.679   1.921  0.0554  0.1854  0.0126
  768SOL     OW 3202   1.195   3.513   2.282 -0.2715  0.2860  0.0903
  768SOL    HW1 3203   1.283   3.469   2.297  0.6080  1.2211 -1.9039
  768SOL    HW2 3204   1.207   3.612   2.277 -1.4592  0.4432 -0.0826
  769SOL     OW 3205   1.685   2.065   5.268 -0.8535  0.6544  0.4987
  769SOL    HW1 3206   1.773   2.107   5.291  1.0121 -2.8112  0.2828
  769SOL    HW2 3207   1.629   2.132   5.218  2.2105  2.5978 -0.6817
  770SOL     OW 3208   1.901   4.269   4.996  0.6516 -0.4291 -0.1733
  770SOL    HW1 3209   1.886   4.194   5.060 -0.2366 -0.8946 -0.9004
  770SOL    HW2 3210   1.984   4.251   4.943  0.9403 -0.4372  0.2717
  771SOL     OW 3211   2.630   5.257   3.094 -0.3463 -0.3483 -0.3584
  771SOL    HW1 3212   2.683   5.181   3.131 -0.4636 -1.8798 -3.0593
  771SOL    HW2 3213   2.535   5.249   3.123  0.0359 -0.0435  1.0171
  772SOL     OW 3214   5.827   5.459   5.727  0.1918  0.0230  0.5170
  772SOL    HW1 3215   5.887   5.483   5.651 -0.9854 -2.4426 -1.3589
  772SOL    HW2 3216   5.752   5.524   5.733  0.3048  0.2516 -0.4396
  773SOL     OW 3217   6.566   3.676   3.760  0.2338  0.7976  0.3118
  773SOL    HW1 3218   6.501   3.721   3.822 -1.6976 -1.3921  0.0167
  773SOL    HW2 3219   6.515   3.630   3.687  2.0996 -1.2417  0.2081
  774SOL     OW 3220   2.233   1.812   0.234  0.4134  0.1915  0.2680
  774SOL    HW1 3221   2.160   1.825   0.168  0.1896 -0.2004  0.4372
  774SOL    HW2 3222   2.293   1.892   0.234  1.3059 -0.4242 -1.5068
  775SOL     OW 3223   0.660   2.172   6.015  0.0319 -0.0367 -0.4612
  775SOL    HW1 3224   0.586   2.140   6.075  0.5682  1.3203  0.9970
  775SOL    HW2 3225   0.668   2.271   6.022  0.9411  0.0208 -1.8699
  776SOL     OW 3226   0.723   7.002   1.128 -0.8620  0.3577  0.5969
  776SOL    HW1 3227   0.658   7.076   1.144 -2.0914 -0.5965  0.1121
  776SOL    HW2 3228   0.734   6.948   1.211 -0.0360  0.9961  0.9225
  777SOL     OW 3229   1.888   3.643   6.632 -0.1553  0.0866 -0.2127
  777SOL    HW1 3230   1.940   3.563   6.602  0.2884  0.1250  0.4231
  777SOL    HW2 3231   1.937   3.726   6.606  0.0506  0.1241  0.2663
  778SOL     OW 3232   1.642   1.383   3.637  0.3619 -0.0296  0.0880
  778SOL    HW1 3233   1.613   1.472   3.603  1.7754  0.2052 -0.6018
  778SOL    HW2 3234   1.678   1.393   3.730 -0.8546 -0.1642  0.5890
  779SOL     OW 3235   5.951   3.775   2.254 -0.1658 -0.0701  0.4481
  779SOL    HW1 3236   5.906   3.713   2.190 -0.7013  0.2350  0.5258
  779SOL    HW2 3237   5.933   3.869   2.227  1.0385  0.0686  0.0533
  780SOL     OW 3238   0.344   5.430   5.566 -0.2214 -0.2541  0.4346
  780SOL    HW1 3239   0.328   5.525   5.538 -0.5347 -0.8586 -1.5757
  780SOL    HW2 3240   0.273   5.371   5.527 -0.3474 -1.2831  2.0961
  781SOL     OW 3241   4.738   1.256   1.132  0.1577  0.1663 -0.1601
  781SOL    HW1 3242   4.713   1.295   1.043 -2.6971  0.8041  0.8085
  781SOL    HW2 3243   4.754   1.330   1.197 -0.2342 -0.2706  0.4398
  782SOL     OW 3244   6.892   2.035   5.821  0.2803  0.0477  0.6121
  782SOL    HW1 3245   6.934   2.092   5.752 -0.8919  0.2785  0.0630
  782SOL    HW2 3246   6.918   2.067   5.912  0.4740  0.7917  0.2985
  783SOL     OW 3247   5.010   3.206   1.169  0.3501  0.2553 -0.5443
  783SOL    HW1 3248   4.927   3.197   1.225  0.0257 -0.8222 -1.1785
  783SOL    HW2 3249   5.082   3.150   1.208  0.2770 -0.1001 -0.9173
  784SOL     OW 3250   5.662   4.500   5.215 -0.8641  0.6739  0.2347
  784SOL    HW1 3251   5.723   4.579   5.200  0.6234 -0.2550  1.1482
  784SOL    HW2 3252   5.568   4.528   5.197 -0.5099  2.9340  1.4251
  785SOL     OW 3253   0.290   1.849   1.601 -0.1307  0.4203 -0.8607
  785SOL    HW1 3254   0.232   1.918   1.644 -2.2449 -0.9272 -1.3523
  785SOL    HW2 3255   0.234   1.793   1.538  0.5329 -3.8609  1.9063
  786SOL     OW 3256   0.719   5.909   2.075 -0.7720 -0.4710 -0.0517
  786SOL    HW1 3257   0.646   5.977   2.079 -0.1366  0.1810  0.9142
  786SOL    HW2 3258   0.795   5.946   2.022  0.0627  0.1063  1.4677
  787SOL     OW 3259   6.724   0.925   6.821 -0.5720  0.6994  0.3581
  787SOL    HW1 3260   6.638   0.881   6.795 -0.4357  1.1965 -1.0223
  787SOL    HW2 3261   6.732   1.013   6.774  0.9645  0.3779 -0.0246
  788SOL     OW 3262   4.832   1.959   1.976 -0.1953  0.3526 -1.1277
  788SOL    HW1 3263   4.783   2.020   2.038  2.7241  0.9839  0.7413
  788SOL    HW2 3264   4.895   2.013   1.919  0.7652 -0.6990 -1.0937
  789SOL     OW 3265   4.508   4.540   3.017  0.0815 -0.4520 -0.2076
  789SOL    HW1 3266   4.449   4.519   3.095  1.8744  0.0887  1.3620
  789SOL    HW2 3267   4.586   4.595   3.048 -0.0687  1.3413 -2.6946
  790SOL     OW 3268   1.424   2.323   2.635  0.2921  0.7615 -0.0526
  790SOL    HW1 3269   1.448   2.392   2.567  0.2166 -1.3191 -2.2936
  790SOL    HW2 3270   1.506   2.272   2.662  0.5741  2.3722  2.5031
  791SOL     OW 3271   6.602   5.732   6.170 -0.2549  0.9483 -0.2477
  791SOL    HW1 3272   6.519   5.676   6.167 -0.0969  0.6319  0.7818
  791SOL    HW2 3273   6.613   5.769   6.263  2.9215 -2.3224  0.8889
  792SOL     OW 3274   1.658   1.694   4.279 -0.5567 -0.5713 -0.3673
  792SOL    HW1 3275   1.704   1.693   4.191 -3.8200 -1.5078 -2.2409
  792SOL    HW2 3276   1.690   1.617   4.335  0.3829 -0.9658 -1.4177
  793SOL     OW 3277   5.685   6.824   4.014 -0.7775  0.0486  0.1618
  793SOL    HW1 3278   5.763   6.817   3.952 -0.5972  0.5317  0.3307
  793SOL    HW2 3279   5.640   6.735   4.021 -0.2513 -0.2314  0.0506
  794SOL     OW 3280   4.035   5.048   5.284 -0.1186 -0.0828  0.6931
  794SOL    HW1 3281   4.050   4.997   5.369  1.7156 -1.2188 -0.2580
  794SOL    HW2 3282   4.123   5.080   5.249 -0.9445  1.1194 -0.3514
  795SOL     OW 3283   2.748   1.217   4.859  0.4086  0.2630  0.5431
  795SOL    HW1 3284   2.743   1.309   4.899 -0.8137  0.4343  0.0364
  795SOL    HW2 3285   2.749   1.224   4.760 -0.1712 -0.2915  0.4932
  796SOL     OW 3286   6.178   1.942   0.059 -0.1332 -0.0282  0.3410
  796SOL    HW1 3287   6.273   1.958   0.032  0.4582 -1.4039  1.4471
  796SOL    HW2 3288   6.151   2.009   0.128  0.5533 -0.5201  1.1093
  797SOL     OW 3289   6.082   0.280   6.676  0.4856 -0.3242 -0.3171
  797SOL    HW1 3290   6.005   0.263   6.738  1.4237 -2.2006  0.4017
  797SOL    HW2 3291   6.060   0.357   6.616 -2.4377 -1.5003 -0.9125
  798SOL     OW 3292   2.376   0.527   2.650  0.0791 -0.0885 -0.0700
  798SOL    HW1 3293   2.474   0.540   2.664 -0.0389  0.4837  0.2569
  798SOL    HW2 3294   2.355   0.429   2.647  0.8439 -0.2347 -1.4676
  799SOL     OW 3295   0.344   5.916   1.166  0.3002 -0.9685  0.1732
  799SOL    HW1 3296   0.272   5.892   1.100  3.5771  0.1574 -4.2535
  799SOL    HW2 3297   0.322   6.003   1.209 -1.3700 -1.1315 -0.2842
  800SOL     OW 3298   6.788   1.351   2.732  0.1477 -0.4800 -0.1985
  800SOL    HW1 3299   6.690   1.353   2.752  0.1160  2.4678 -0.2773
  800SOL    HW2 3300   6.802   1.369   2.635  0.7816  1.8571  0.2649
  801SOL     OW 3301   2.353   4.276   3.910  0.3758  0.0324 -0.6397
  801SOL    HW1 3302   2.431   4.320   3.865  0.7279 -2.2461 -2.4624
  801SOL    HW2 3303   2.277   4.269   3.846 -0.0204 -1.0621 -0.0788
  802SOL     OW 3304   1.579   2.180   0.347  0.1026 -0.3340  0.1219
  802SOL    HW1 3305   1.500   2.155   0.403  0.7254 -2.0899  0.2764
  802SOL    HW2 3306   1.663   2.160   0.397  0.7488  3.0596  0.6495
  803SOL     OW 3307   1.480   1.058   4.882  0.3359  0.4657 -0.9105
  803SOL    HW1 3308   1.578   1.056   4.902  0.0514 -2.0789  0.8694
  803SOL    HW2 3309   1.457   0.980   4.823 -0.6350  0.9548 -1.1883
  804SOL     OW 3310   4.319   4.549   0.445  0.4266  0.2197 -0.4550
  804SOL    HW1 3311   4.378   4.606   0.389  0.0809  2.7292  1.5657
  804SOL    HW2 3312   4.369   4.516   0.525 -0.1990  0.2037 -0.0618
  805SOL     OW 3313   2.660   1.133   4.128  0.3461 -0.6188  0.0435
  805SOL    HW1 3314   2.748   1.171   4.154  0.6179 -2.1049  1.4476
  805SOL    HW2 3315   2.673   1.042   4.089 -0.4256 -0.0490 -1.6556
  806SOL     OW 3316   5.969   0.965   4.915  0.1784 -0.2959 -0.6172
  806SOL    HW1 3317   6.035   0.939   4.846 -0.4402  0.2677 -1.4337
  806SOL    HW2 3318   5.885   0.911   4.903 -0.2248  0.3687 -0.8085
  807SOL     OW 3319   1.839   0.676   5.559  0.2114  0.3942  0.0287
  807SOL    HW1 3320   1.757   0.694   5.505 -0.6590 -0.3096  1.0804
  807SOL    HW2 3321   1.901   0.617   5.508 -1.3842 -1.7260  0.4361
  808SOL     OW 3322   2.963   4.304   5.815  1.0936  0.0917  0.0958
  808SOL    HW1 3323   2.985   4.380   5.753  0.3710  0.8290  0.7288
  808SOL    HW2 3324   2.954   4.338   5.908  1.0053 -0.8229  0.4295
  809SOL     OW 3325   1.652   5.061   1.630  0.0341 -0.6430 -0.1281
  809SOL    HW1 3326   1.745   5.060   1.594 -0.2348  2.3017 -1.2479
  809SOL    HW2 3327   1.594   5.115   1.568 -1.6123  0.4815  2.2508
  810SOL     OW 3328   3.377   2.506   0.498 -0.4724  0.0356 -0.1331
  810SOL    HW1 3329   3.331   2.431   0.545  0.2675 -0.7264 -0.5844
  810SOL    HW2 3330   3.462   2.529   0.545 -1.5101  1.7792  0.9877
  811SOL     OW 3331   3.425   5.727   5.612  0.1956  0.1234 -0.0805
  811SOL    HW1 3332   3.429   5.727   5.712 -1.2221 -3.5166  0.1342
  811SOL    HW2 3333   3.473   5.647   5.577 -0.3136  0.7119 -2.2539
  812SOL     OW 3334   0.227   1.085   3.478 -0.2186 -0.6782 -0.2726
  812SOL    HW1 3335   0.302   1.144   3.445 -0.8900  1.4426  1.6891
  812SOL    HW2 3336   0.142   1.112   3.434 -0.0279 -2.5784 -1.9257
  813SOL     OW 3337   4.558   6.221   3.456  0.0882 -0.1023 -0.8038
  813SOL    HW1 3338   4.642   6.242   3.406  0.4814  0.2436 -0.0098
  813SOL    HW2 3339   4.532   6.126   3.438  1.5985 -0.7572  0.2665
  814SOL     OW 3340   0.490   5.467   3.951  0.0060  0.1640 -0.1028
  814SOL    HW1 3341   0.427   5.390   3.963  1.8309 -1.1581  1.8092
  814SOL    HW2 3342   0.508   5.481   3.854 -2.0348 -0.3759 -0.6042
  815SOL     OW 3343   6.948   3.575   3.827  0.0734  0.5842  0.8797
  815SOL    HW1 3344   7.027   3.582   3.766 -0.4433  1.2393  0.2801
  815SOL    HW2 3345   6.977   3.532   3.913  1.2976  1.6328  1.0314
  816SOL     OW 3346   6.228   3.727   0.639 -0.6353  0.7716  0.2177
  816SOL    HW1 3347   6.136   3.763   0.623 -0.9403 -0.0084  0.1673
  816SOL    HW2 3348   6.260   3.680   0.557  0.5836  2.6111 -0.4321
  817SOL     OW 3349   0.754   4.194   1.469  0.1867  0.8638 -0.0889
  817SOL    HW1 3350   0.754   4.223   1.373  0.1984  1.3587  0.0579
  817SOL    HW2 3351   0.845   4.211   1.508  0.2722  0.3832 -0.0690
  818SOL     OW 3352   0.304   2.461   2.833  0.0797  0.2661  0.2471
  818SOL    HW1 3353   0.280   2.371   2.869  1.8185  0.2917  1.6133
  818SOL    HW2 3354   0.389   2.455   2.780  1.1016  1.3206  1.6860
  819SOL     OW 3355   6.547   3.160   1.897 -0.0489 -0.0420  0.0542
  819SOL    HW1 3356   6.555   3.258   1.914  0.1887  0.1522 -1.1353
  819SOL    HW2 3357   6.458   3.128   1.929 -0.0001  0.4881  0.7492
  820SOL     OW 3358   2.486   0.910   5.764 -0.0066 -0.3238  0.6670
  820SOL    HW1 3359   2.544   0.991   5.753  0.6787 -0.9036 -0.0689
  820SOL    HW2 3360   2.390   0.938   5.760  0.2225  0.5363  1.0640
  821SOL     OW 3361   0.093   6.480   0.824  0.1903 -0.0199 -0.4303
  821SOL    HW1 3362   0.102   6.529   0.738 -1.6706 -0.7434 -1.0983
  821SOL    HW2 3363   0.011   6.423   0.821  0.0296 -0.0004  1.8688
  822SOL     OW 3364   0.140   3.708   1.713 -0.1759  0.1370 -0.3071
  822SOL    HW1 3365   0.078   3.785   1.727 -0.4003 -0.4101  2.1319
  822SOL    HW2 3366   0.235   3.740   1.716 -0.2758  0.5992 -1.5033
  823SOL     OW 3367   6.787   5.206   6.569 -0.2071 -0.3696  0.0747
  823SOL    HW1 3368   6.785   5.115   6.529 -0.5043  0.4236 -1.8525
  823SOL    HW2 3369   6.751   5.272   6.503 -1.9452  0.8966  2.1501
  824SOL     OW 3370   4.782   0.859   6.925  0.1718  0.6896 -0.4035
  824SOL    HW1 3371   4.716   0.932   6.946 -2.7352 -1.4303 -1.5860
  824SOL    HW2 3372   4.793   0.852   6.826 -0.0753 -0.8516 -0.3383
  825SOL     OW 3373   5.486   3.260   3.304  0.3699 -0.0409  0.0441
  825SOL    HW1 3374   5.459   3.189   3.239 -0.2181  0.8904 -0.7428
  825SOL    HW2 3375   5.465   3.229   3.397  1.8916 -1.6967 -0.0920
  826SOL     OW 3376   3.649   3.837   5.020 -0.2050 -0.0771 -0.2514
  826SOL    HW1 3377   3.710   3.892   4.962  0.7687 -1.2297 -0.3602
  826SOL    HW2 3378   3.679   3.845   5.115 -0.1750 -0.2778 -0.2449
  827SOL     OW 3379   1.854   4.186   4.668  0.6126  0.0262  0.8860
  827SOL    HW1 3380   1.866   4.134   4.753 -0.0077  0.9906  1.5778
  827SOL    HW2 3381   1.846   4.283   4.689 -1.1964  0.1295 -0.1381
  828SOL     OW 3382   3.843   6.421   5.637 -0.3782 -0.2702  0.3711
  828SOL    HW1 3383   3.791   6.351   5.687 -3.2294 -0.6099 -2.7482
  828SOL    HW2 3384   3.865   6.388   5.546  4.3708  0.4607  0.9707
  829SOL     OW 3385   3.155   3.501   0.986  0.9175 -0.2837  0.1669
  829SOL    HW1 3386   3.198   3.426   1.037 -0.8501 -1.9144 -0.6160
  829SOL    HW2 3387   3.062   3.475   0.962  0.3734  2.0591 -0.4763
  830SOL     OW 3388   4.125   4.753   6.332 -0.2381 -0.0111 -0.4846
  830SOL    HW1 3389   4.145   4.815   6.257 -1.4438  0.2144 -0.6389
  830SOL    HW2 3390   4.202   4.690   6.345 -0.1685 -0.3177 -2.1739
  831SOL     OW 3391   5.572   4.527   1.752  0.0707  0.0034 -0.4060
  831SOL    HW1 3392   5.488   4.543   1.700  0.5639  1.5457 -0.7791
  831SOL    HW2 3393   5.554   4.463   1.827 -1.3869  0.1995 -0.5664
  832SOL     OW 3394   4.650   1.182   1.418  0.4262 -0.1963  0.0848
  832SOL    HW1 3395   4.662   1.192   1.319  0.0014 -2.5202 -0.2561
  832SOL    HW2 3396   4.583   1.111   1.436  0.1171  0.5293  2.0790
  833SOL     OW 3397   1.301   3.772   4.810 -0.0767 -0.2103  0.0601
  833SOL    HW1 3398   1.327   3.794   4.716 -0.9801 -0.7555 -0.3321
  833SOL    HW2 3399   1.383   3.763   4.866  0.4629  0.3196 -0.6278
  834SOL     OW 3400   4.824   3.953   1.319  0.8691 -0.1256  0.0111
  834SOL    HW1 3401   4.818   4.010   1.400  2.6645  2.0661 -1.2690
  834SOL    HW2 3402   4.873   3.869   1.341  0.9632  0.2459  1.2754
  835SOL     OW 3403   3.638   6.524   4.714  0.5333  0.3382 -0.3286
  835SOL    HW1 3404   3.716   6.581   4.737  0.8733 -0.0363 -0.5417
  835SOL    HW2 3405   3.576   6.519   4.792  0.9175  0.3168 -0.0223
  836SOL     OW 3406   3.427   1.212   5.192  0.2191 -0.5220  0.2358
  836SOL    HW1 3407   3.508   1.190   5.138  0.8739  3.4666 -0.7458
  836SOL    HW2 3408   3.453   1.272   5.268 -1.8290  2.0500 -0.9421
  837SOL     OW 3409   6.907   0.182   0.620  0.5443 -0.1901  0.0826
  837SOL    HW1 3410   6.902   0.196   0.521  1.9259  0.0564  0.0329
  837SOL    HW2 3411   6.997   0.146   0.644 -0.3082 -1.7541  1.0971
  838SOL     OW 3412   2.860   6.917   2.474 -0.0773 -0.3498 -0.4711
  838SOL    HW1 3413   2.939   6.978   2.467  0.0952 -0.5579 -0.3518
  838SOL    HW2 3414   2.889   6.823   2.455  0.0817 -0.7001  1.3457
  839SOL     OW 3415   3.096   1.676   1.064  0.0710 -0.6404 -0.6164
  839SOL    HW1 3416   3.162   1.713   0.999  1.1467 -2.8942 -0.9094
  839SOL    HW2 3417   3.049   1.598   1.023 -0.9358 -0.6674  0.5175
  840SOL     OW 3418   5.581   6.177   6.726  0.2960  0.3255  0.4028
  840SOL    HW1 3419   5.553   6.182   6.630 -0.1189 -1.8404  0.3552
  840SOL    HW2 3420   5.500   6.184   6.785  0.4684  0.9038  0.5814
  841SOL     OW 3421   3.286   5.296   6.130 -0.5580 -0.2707  0.0234
  841SOL    HW1 3422   3.243   5.384   6.107 -0.2134  0.0424  0.5527
  841SOL    HW2 3423   3.216   5.224   6.129 -0.6825 -0.1572 -1.2896
  842SOL     OW 3424   4.751   6.063   4.990 -0.0881  0.1179 -0.2563
  842SOL    HW1 3425   4.726   6.160   4.995  0.8866  0.3326  0.9059
  842SOL    HW2 3426   4.669   6.008   4.973 -0.6990  1.1200 -0.6284
  843SOL     OW 3427   6.892   2.998   3.731  0.1407 -0.5596 -0.2849
  843SOL    HW1 3428   6.808   2.949   3.753  1.4434 -2.1085  1.6328
  843SOL    HW2 3429   6.882   3.094   3.756 -1.3343 -0.5367 -0.9098
  844SOL     OW 3430   5.698   0.802   6.904 -0.2041  0.1686 -0.5463
  844SOL    HW1 3431   5.696   0.840   6.996  2.8362 -0.6564 -0.0251
  844SOL    HW2 3432   5.678   0.704   6.907 -0.8428  0.2798 -0.8961
  845SOL     OW 3433   6.072   2.088   3.344 -0.5428 -0.1453  0.8004
  845SOL    HW1 3434   6.123   2.090   3.258 -1.8139 -1.0501 -0.0070
  845SOL    HW2 3435   6.124   2.035   3.412  0.2297  0.1443  0.4563
  846SOL     OW 3436   3.725   0.970   5.262  0.5290  0.3651 -0.0876
  846SOL    HW1 3437   3.642   0.937   5.308  1.0320 -1.3812 -0.3423
  846SOL    HW2 3438   3.700   1.017   5.178 -0.2433  0.6634  0.2963
  847SOL     OW 3439   1.093   4.786   0.916  0.2430  0.3361 -0.4538
  847SOL    HW1 3440   1.124   4.780   0.821  1.4303 -0.9827 -0.0148
  847SOL    HW2 3441   1.136   4.713   0.970 -2.9704 -1.0856  0.4013
  848SOL     OW 3442   6.354   6.320   6.738  0.1129  0.1197  0.4660
  848SOL    HW1 3443   6.291   6.243   6.740  1.1021 -0.7267 -0.1968
  848SOL    HW2 3444   6.338   6.374   6.655  0.9421 -0.6994 -0.2447
  849SOL     OW 3445   6.236   3.983   6.293  0.4301  0.1387  0.1303
  849SOL    HW1 3446   6.207   3.975   6.198 -0.5082  2.9618  0.0967
  849SOL    HW2 3447   6.200   3.906   6.346  0.3037 -1.0360 -1.6038
  850SOL     OW 3448   5.751   2.328   3.403  0.6793  0.2736  0.1042
  850SOL    HW1 3449   5.794   2.302   3.317  0.2148  0.0733 -0.0708
  850SOL    HW2 3450   5.707   2.417   3.393  0.0137 -0.0681 -0.0849
  851SOL     OW 3451   6.318   3.521   6.249 -0.3460 -0.3402 -0.2744
  851SOL    HW1 3452   6.271   3.606   6.270  0.2168  0.0031 -0.3918
  851SOL    HW2 3453   6.320   3.507   6.150 -2.1275 -1.4641 -0.1998
  852SOL     OW 3454   1.255   5.512   0.197  0.5054 -1.0293 -0.2706
  852SOL    HW1 3455   1.273   5.506   0.099 -0.9486  2.1000 -0.8722
  852SOL    HW2 3456   1.156   5.504   0.213  0.6119 -0.4115  0.7968
  853SOL     OW 3457   4.273   5.276   1.408 -0.0658  0.3631 -0.0722
  853SOL    HW1 3458   4.237   5.369   1.396 -1.5444 -0.0186  1.2131
  853SOL    HW2 3459   4.251   5.221   1.327 -0.8271  0.6313 -0.0524
  854SOL     OW 3460   5.723   6.477   0.307 -0.1956 -0.1787  0.2386
  854SOL    HW1 3461   5.767   6.470   0.218 -2.6041 -1.6345 -0.9405
  854SOL    HW2 3462   5.746   6.396   0.361  1.0434  0.5748  0.8915
  855SOL     OW 3463   6.276   6.828   1.365  0.4190  0.6172  0.2309
  855SOL    HW1 3464   6.335   6.748   1.371 -0.0344  0.3334  1.1055
  855SOL    HW2 3465   6.324   6.908   1.402  0.7714  0.7029 -0.3924
  856SOL     OW 3466   0.977   1.170   6.414  0.1060  0.6598  0.2118
  856SOL    HW1 3467   0.905   1.118   6.458  1.4460 -1.6514 -0.1815
  856SOL    HW2 3468   0.995   1.254   6.467 -2.3444  0.9610  0.6565
  857SOL     OW 3469   5.581   4.281   1.187 -0.7681 -0.1619 -0.1917
  857SOL    HW1 3470   5.633   4.366   1.178 -1.0955 -0.1160 -1.8057
  857SOL    HW2 3471   5.645   4.205   1.199 -0.4206  0.1305 -0.1739
  858SOL     OW 3472   1.942   3.141   1.661  0.1104 -0.3383 -0.4344
  858SOL    HW1 3473   2.036   3.138   1.693  0.4319 -0.2828 -1.3687
  858SOL    HW2 3474   1.880   3.139   1.740  0.8848 -0.4023  0.1783
  859SOL     OW 3475   6.508   0.728   4.735  0.4942 -0.0489  0.4753
  859SOL    HW1 3476   6.452   0.784   4.797 -0.7958 -1.4423  0.6345
  859SOL    HW2 3477   6.603   0.759   4.738  0.1808  0.8686  2.0200
  860SOL     OW 3478   1.652   4.080   6.356  0.0464 -0.0179  0.0280
  860SOL    HW1 3479   1.599   4.006   6.398  0.5864 -0.4507 -0.0497
  860SOL    HW2 3480   1.607   4.167   6.374 -0.8899 -0.4134 -0.3491
  861SOL     OW 3481   2.461   5.089   4.404 -0.1748  0.4571  0.0183
  861SOL    HW1 3482   2.519   5.010   4.388 -0.9507 -0.1719  0.2506
  861SOL    HW2 3483   2.471   5.119   4.499 -0.1165  0.4376  0.0185
  862SOL     OW 3484   0.865   4.914   3.228 -0.4236  0.3155 -0.1160
  862SOL    HW1 3485   0.955   4.956   3.212 -0.4167  0.3252 -0.0521
  862SOL    HW2 3486   0.803   4.939   3.153 -1.2509  2.7299  1.2679
  863SOL     OW 3487   5.556   0.689   2.429  0.3737  0.1142  0.1850
  863SOL    HW1 3488   5.642   0.718   2.470  0.9077  0.0557 -0.8643
  863SOL    HW2 3489   5.501   0.769   2.406 -1.1107  0.1549  3.3199
  864SOL     OW 3490   3.406   5.172   3.552 -0.3341  0.1934  0.6215
  864SOL    HW1 3491   3.325   5.137   3.598 -0.7395 -1.4324 -1.2325
  864SOL    HW2 3492   3.379   5.218   3.467  0.6603 -0.0444  0.1660
  865SOL     OW 3493   0.453   1.223   0.139 -0.1775  0.1474 -0.2689
  865SOL    HW1 3494   0.521   1.217   0.212 -1.6647  1.5422  1.3520
  865SOL    HW2 3495   0.362   1.207   0.177 -1.1746  2.4798 -1.4252
  866SOL     OW 3496   1.748   1.609   2.596  0.2662 -0.1778 -0.1353
  866SOL    HW1 3497   1.762   1.514   2.623 -1.5468 -0.5529 -0.3499
  866SOL    HW2 3498   1.779   1.669   2.670  0.4619 -0.9731  0.4468
  867SOL     OW 3499   4.731   3.493   0.555  0.0021  0.3228 -0.2713
  867SOL    HW1 3500   4.727   3.543   0.468 -0.5943 -4.1369 -3.1130
  867SOL    HW2 3501   4.825   3.461   0.570 -0.4184 -1.2804 -0.8702
  868SOL     OW 3502   6.422   0.810   0.726  0.1064  0.1528  0.4080
  868SOL    HW1 3503   6.364   0.803   0.808 -0.4215 -0.7238 -0.0272
  868SOL    HW2 3504   6.396   0.739   0.661  1.0638  0.3402 -0.1899
  869SOL     OW 3505   6.351   3.379   3.028  0.6571  0.2142 -0.5015
  869SOL    HW1 3506   6.360   3.280   3.018 -1.4865 -0.0823 -0.1084
  869SOL    HW2 3507   6.316   3.418   2.943 -1.9509  0.0384  0.3808
  870SOL     OW 3508   3.277   4.876   6.896  0.3459  0.1596  0.3932
  870SOL    HW1 3509   3.344   4.871   6.970 -0.0040 -1.3501  0.6338
  870SOL    HW2 3510   3.314   4.931   6.821  1.1412  0.7848  1.2287
  871SOL     OW 3511   5.134   1.990   3.680  0.3046  0.0639  0.2283
  871SOL    HW1 3512   5.216   2.032   3.719 -0.6811  1.2101  1.1461
  871SOL    HW2 3513   5.070   1.967   3.753 -1.1387  1.2834 -0.5776
  872SOL     OW 3514   5.736   1.524   3.294  0.2508  0.1667  0.7001
  872SOL    HW1 3515   5.715   1.442   3.348  0.6312 -0.8950 -0.7074
  872SOL    HW2 3516   5.762   1.598   3.355  2.6593 -1.5560  1.9315
  873SOL     OW 3517   4.168   5.987   6.172 -0.1170 -0.3272  0.0716
  873SOL    HW1 3518   4.197   6.041   6.251  0.3575 -1.5756  0.7785
  873SOL    HW2 3519   4.222   6.014   6.092 -1.1867  1.5448 -0.0702
  874SOL     OW 3520   5.614   4.591   6.507 -0.1067  0.3208  0.5448
  874SOL    HW1 3521   5.705   4.625   6.482 -0.1149 -0.5530 -0.8052
  874SOL    HW2 3522   5.603   4.498   6.473 -1.8345  0.7422 -0.1604
  875SOL     OW 3523   4.729   5.210   0.684 -0.2225 -0.3144 -0.5078
  875SOL    HW1 3524   4.726   5.138   0.615  0.8504 -2.0731  1.1812
  875SOL    HW2 3525   4.637   5.227   0.718 -0.2838 -2.6154  0.6957
  876SOL     OW 3526   6.253   5.065   2.382  0.4200  0.0016 -0.0454
  876SOL    HW1 3527   6.270   4.973   2.416  0.6215  0.4929  1.2456
  876SOL    HW2 3528   6.170   5.102   2.424 -1.0834 -0.4657 -2.4067
  877SOL     OW 3529   2.956   3.666   6.189 -0.3242  0.2295  0.2308
  877SOL    HW1 3530   2.902   3.700   6.112 -0.3626 -1.0429 -0.3249
  877SOL    HW2 3531   2.957   3.566   6.188 -1.0538  0.1466  2.3906
  878SOL     OW 3532   3.320   6.521   6.107  0.4698  0.3281 -0.6508
  878SOL    HW1 3533   3.248   6.532   6.175  0.6097  0.5032 -0.5294
  878SOL    HW2 3534   3.386   6.453   6.139 -0.2332 -0.6727 -1.2642
  879SOL     OW 3535   7.001   7.002   0.863  0.0341 -0.2728 -0.8875
  879SOL    HW1 3536   7.083   7.040   0.819  0.7936 -2.3462 -1.3482
  879SOL    HW2 3537   6.942   6.959   0.795 -1.0555  0.4722 -0.4423
  880SOL     OW 3538   2.003   4.266   5.422  0.6421 -0.0308  0.4804
  880SOL    HW1 3539   1.958   4.184   5.458  0.8931 -0.8755 -1.0543
  880SOL    HW2 3540   1.944   4.310   5.354  3.1123 -2.8943 -3.9263
  881SOL     OW 3541   5.078   4.948   3.107  0.4363 -0.2038 -0.0894
  881SOL    HW1 3542   5.091   4.915   3.201 -0.3724  1.3293  0.5902
  881SOL    HW2 3543   5.117   5.039   3.098 -0.0510 -0.0787 -1.0722
  882SOL     OW 3544   2.644   1.367   3.205 -0.0084 -0.7956  0.1300
  882SOL    HW1 3545   2.618   1.273   3.184  0.5921 -0.7203 -1.0230
  882SOL    HW2 3546   2.620   1.426   3.128 -1.1986  0.1627  1.2069
  883SOL     OW 3547   3.498   6.262   0.487 -0.0481 -0.6803  0.1029
  883SOL    HW1 3548   3.598   6.260   0.489 -0.0524 -0.7952  0.1976
  883SOL    HW2 3549   3.465   6.198   0.417 -0.0022  0.7116 -1.2420
  884SOL     OW 3550   1.797   4.598   5.581  0.5395 -0.1153  0.2829
  884SOL    HW1 3551   1.730   4.660   5.540  1.9307  0.5882 -1.0433
  884SOL    HW2 3552   1.780   4.505   5.551  0.9169  0.2448 -1.0904
  885SOL     OW 3553   3.315   1.097   4.832 -0.3767 -0.2383  0.5419
  885SOL    HW1 3554   3.358   1.182   4.863 -0.7065  0.6608 -1.3713
  885SOL    HW2 3555   3.362   1.064   4.751 -1.0238 -1.2440  0.5626
  886SOL     OW 3556   3.408   0.459   1.416  0.1414 -0.4235  0.1747
  886SOL    HW1 3557   3.453   0.446   1.504  0.5901  3.0729  0.6013
  886SOL    HW2 3558   3.322   0.408   1.414  0.8866 -1.8522  1.9490
  887SOL     OW 3559   3.343   6.421   3.834  0.0167  0.1551 -0.6986
  887SOL    HW1 3560   3.379   6.330   3.814  1.3804  0.6614 -0.6163
  887SOL    HW2 3561   3.330   6.471   3.748 -0.4232  0.0156 -0.7197
  888SOL     OW 3562   1.135   6.876   2.453 -0.5424  0.1166 -0.5157
  888SOL    HW1 3563   1.039   6.884   2.424 -0.1717  0.6839 -1.6511
  888SOL    HW2 3564   1.190   6.842   2.377  0.3573  0.9744 -0.2701
  889SOL     OW 3565   6.014   1.995   0.443 -0.1527  0.4445  0.4412
  889SOL    HW1 3566   5.951   1.982   0.519  0.3462 -1.6565  0.5526
  889SOL    HW2 3567   6.011   1.915   0.383  1.8330  0.6435  0.0209
  890SOL     OW 3568   2.198   2.970   2.614  0.7615  0.4848  0.4020
  890SOL    HW1 3569   2.164   3.064   2.620  0.7020  0.5329 -0.4581
  890SOL    HW2 3570   2.204   2.943   2.517  1.1394 -0.2647  0.6236
  891SOL     OW 3571   4.757   3.992   6.285 -0.3876 -0.6419 -0.2181
  891SOL    HW1 3572   4.788   3.900   6.264  0.2477 -0.6689  0.8031
  891SOL    HW2 3573   4.833   4.056   6.277 -0.2981 -0.5461  1.2129
  892SOL     OW 3574   3.645   3.660   5.476  0.1507 -0.4950 -0.4566
  892SOL    HW1 3575   3.680   3.570   5.451 -0.6504 -0.9662  0.0879
  892SOL    HW2 3576   3.645   3.719   5.396  3.8999  0.1404 -0.1962
  893SOL     OW 3577   2.943   0.765   3.073  0.0368  0.1146 -0.5657
  893SOL    HW1 3578   3.024   0.730   3.026 -0.5293 -0.1484 -1.3600
  893SOL    HW2 3579   2.913   0.850   3.028 -2.7073 -2.0103 -3.2101
  894SOL     OW 3580   2.883   2.183   2.296  0.4049  0.2664 -0.5087
  894SOL    HW1 3581   2.904   2.234   2.213  0.3905  0.2984 -0.4929
  894SOL    HW2 3582   2.787   2.199   2.321  0.4029  0.2378 -0.4993
  895SOL     OW 3583   3.171   5.710   3.250 -0.1110  0.0799 -0.2715
  895SOL    HW1 3584   3.175   5.806   3.279  1.0311 -0.5322  1.7362
  895SOL    HW2 3585   3.248   5.660   3.289 -0.0247 -1.4527 -2.2275
  896SOL     OW 3586   4.198   6.355   0.432 -0.0691 -0.5116  0.0626
  896SOL    HW1 3587   4.217   6.300   0.350 -1.4509 -2.2934  0.8728
  896SOL    HW2 3588   4.214   6.300   0.513 -0.6289  0.5917  0.9458
  897SOL     OW 3589   4.789   5.702   6.031 -0.3401 -0.1713  0.1507
  897SOL    HW1 3590   4.706   5.647   6.022 -0.6735  0.2714  0.4453
  897SOL    HW2 3591   4.868   5.642   6.042 -0.6598 -0.5947  0.1788
  898SOL     OW 3592   6.580   6.750   0.807 -0.2605 -0.3541  0.6794
  898SOL    HW1 3593   6.592   6.712   0.899 -1.5981 -3.1080 -0.1999
  898SOL    HW2 3594   6.514   6.825   0.810 -0.0571 -0.1988  1.9717
  899SOL     OW 3595   6.704   0.194   6.829 -0.1196 -0.0847 -0.0621
  899SOL    HW1 3596   6.642   0.192   6.751 -0.3669 -0.3722  0.1438
  899SOL    HW2 3597   6.789   0.146   6.806 -0.7922 -1.5303  0.3560
  900SOL     OW 3598   5.492   0.214   1.176  0.0668  0.3581 -0.0535
  900SOL    HW1 3599   5.494   0.170   1.086 -1.3962  0.9926 -0.4209
  900SOL    HW2 3600   5.473   0.145   1.246 -1.2064  0.2180 -0.5132
  901SOL     OW 3601   0.190   6.224   3.602  0.1010  0.3713 -0.1933
  901SOL    HW1 3602   0.280   6.266   3.608  0.7782 -1.1866  4.4883
  901SOL    HW2 3603   0.193   6.132   3.642 -3.6671  0.4626  0.6664
  902SOL     OW 3604   6.504   3.489   0.067 -0.3725  0.6919 -0.1519
  902SOL    HW1 3605   6.591   3.460   0.107 -2.4604 -3.8387  1.8563
  902SOL    HW2 3606   6.511   3.489  -0.032  0.9994 -3.9287 -0.2791
  903SOL     OW 3607   6.899   3.747   0.076  0.0200  0.7425  0.1527
  903SOL    HW1 3608   6.843   3.805   0.135  1.7769  2.6224  0.0842
  903SOL    HW2 3609   6.949   3.681   0.131 -0.7174  0.3958  0.4159
  904SOL     OW 3610   2.064   3.242   2.697 -0.0781  0.4754 -0.4658
  904SOL    HW1 3611   2.087   3.233   2.601  0.0068  0.8750 -0.4857
  904SOL    HW2 3612   2.058   3.339   2.721  0.2613  0.3804  0.0141
  905SOL     OW 3613   4.345   3.044   1.009 -0.2040  0.1070  0.5683
  905SOL    HW1 3614   4.324   3.005   1.099 -0.3649  1.1543  1.0031
  905SOL    HW2 3615   4.374   2.971   0.947  1.5529 -0.4393  1.9463
  906SOL     OW 3616   1.463   0.191   2.552 -0.7759 -0.1206 -0.4167
  906SOL    HW1 3617   1.364   0.186   2.569 -0.8607 -0.9390 -1.0953
  906SOL    HW2 3618   1.487   0.284   2.525 -1.3803  0.0557 -0.3737
  907SOL     OW 3619   3.800   2.166   0.183 -0.2594  0.0243  0.0196
  907SOL    HW1 3620   3.881   2.124   0.224 -0.4039  0.4492  0.7634
  907SOL    HW2 3621   3.732   2.183   0.255 -0.6696  0.4400 -0.4632
  908SOL     OW 3622   1.471   5.285   3.325  0.4899  0.2698 -0.2351
  908SOL    HW1 3623   1.407   5.246   3.392  0.9058  0.0206  0.0194
  908SOL    HW2 3624   1.497   5.377   3.355  1.3254 -0.1571  0.3968
  909SOL     OW 3625   4.561   4.896   0.833  0.1687 -0.2437 -0.7300
  909SOL    HW1 3626   4.525   4.809   0.801  0.6214 -0.2315 -1.2814
  909SOL    HW2 3627   4.591   4.951   0.755  0.3571  0.1973 -0.3519
  910SOL     OW 3628   4.081   6.821   1.335  0.0733 -0.5263  0.4314
  910SOL    HW1 3629   4.075   6.727   1.370 -2.1343  0.1287  2.0966
  910SOL    HW2 3630   4.096   6.884   1.411 -2.4332  0.7555 -0.0146
  911SOL     OW 3631   2.290   0.080   0.120  0.1678 -0.0724  0.1807
  911SOL    HW1 3632   2.380   0.085   0.077 -0.1724  0.7633 -0.4588
  911SOL    HW2 3633   2.239   0.164   0.101  0.4765  0.9767  3.2632
  912SOL     OW 3634   5.278   0.113   2.222 -0.0867 -0.6903  0.0375
  912SOL    HW1 3635   5.292   0.022   2.182 -0.7095 -1.2528  1.0566
  912SOL    HW2 3636   5.193   0.113   2.275 -2.6999  1.7616 -3.6363
  913SOL     OW 3637   1.656   0.934   5.520 -0.8517 -0.5013  0.0933
  913SOL    HW1 3638   1.708   1.006   5.475  1.3934 -1.7044  0.6072
  913SOL    HW2 3639   1.659   0.851   5.464 -0.0558 -1.3110  1.2855
  914SOL     OW 3640   3.123   6.231   4.791 -0.0125  0.2517 -0.1339
  914SOL    HW1 3641   3.136   6.229   4.692  0.1970  1.2909 -0.1314
  914SOL    HW2 3642   3.026   6.236   4.813 -0.0767 -0.3408 -0.2773
  915SOL     OW 3643   6.472   4.226   0.290 -0.2408  0.4921 -0.2211
  915SOL    HW1 3644   6.500   4.130   0.300 -0.2627  0.5224  0.1649
  915SOL    HW2 3645   6.551   4.281   0.262 -0.3615  0.2706 -1.0072
  916SOL     OW 3646   0.831   4.079   0.771 -0.3888 -0.4021 -0.3079
  916SOL    HW1 3647   0.836   4.179   0.762 -2.2025 -0.4107 -1.8862
  916SOL    HW2 3648   0.922   4.044   0.795  0.1749  1.6461  0.8412
  917SOL     OW 3649   1.328   0.476   2.918  0.0417  0.5063 -0.3663
  917SOL    HW1 3650   1.273   0.457   2.836  0.9208  2.6801 -1.5436
  917SOL    HW2 3651   1.277   0.536   2.979 -0.3169 -0.5126  0.3659
  918SOL     OW 3652   4.966   0.501   1.214 -0.0764  0.4044  0.5549
  918SOL    HW1 3653   5.011   0.441   1.147 -0.8481  1.7315 -1.2484
  918SOL    HW2 3654   4.867   0.497   1.201 -0.1629  1.7974  0.5789
  919SOL     OW 3655   1.375   6.849   3.907 -0.5213 -0.1326  0.6567
  919SOL    HW1 3656   1.367   6.886   3.999 -2.3043 -2.0519  1.3501
  919SOL    HW2 3657   1.300   6.785   3.890  0.1101 -0.3134 -1.9228
  920SOL     OW 3658   1.954   4.175   2.628 -0.0218  0.3811 -0.2742
  920SOL    HW1 3659   2.050   4.148   2.626 -0.0760 -0.2746  2.1858
  920SOL    HW2 3660   1.896   4.098   2.604  0.0236  0.5069 -0.8027
  921SOL     OW 3661   2.919   5.594   2.760  0.1339  0.0692 -0.5366
  921SOL    HW1 3662   2.905   5.613   2.857  1.5946 -0.0704 -0.2851
  921SOL    HW2 3663   2.833   5.563   2.720 -0.4622  0.0188  0.7349
  922SOL     OW 3664   1.256   4.510   6.753  0.1639  0.1758  0.4347
  922SOL    HW1 3665   1.275   4.438   6.685 -0.4417  0.4334 -0.0229
  922SOL    HW2 3666   1.194   4.474   6.822 -1.3188  0.6487 -0.5920
  923SOL     OW 3667   1.271   4.320   6.560 -0.3889  0.6906 -0.0233
  923SOL    HW1 3668   1.194   4.379   6.535 -0.7310  0.8138  1.2271
  923SOL    HW2 3669   1.279   4.246   6.493 -1.9709  0.3410  0.1147
  924SOL     OW 3670   5.719   4.754   1.684  0.1849  0.1267  0.4729
  924SOL    HW1 3671   5.699   4.667   1.729  1.3094 -0.9879 -1.0553
  924SOL    HW2 3672   5.807   4.788   1.716 -0.3987  0.8883  1.3011
  925SOL     OW 3673   5.873   2.712   5.743 -0.0650 -0.1210  0.4590
  925SOL    HW1 3674   5.861   2.652   5.664 -0.8953  0.0973  0.4079
  925SOL    HW2 3675   5.873   2.658   5.827 -0.6199 -0.2099  0.4013
  926SOL     OW 3676   6.757   0.748   1.091  0.4925  0.3752 -0.1349
  926SOL    HW1 3677   6.725   0.826   1.145 -0.2057  1.0317 -1.4479
  926SOL    HW2 3678   6.708   0.666   1.118  0.2459  0.6668  0.3129
  927SOL     OW 3679   5.440   4.837   2.704 -0.2076 -0.6658  0.2826
  927SOL    HW1 3680   5.489   4.772   2.762  1.2910  0.8834  0.8737
  927SOL    HW2 3681   5.399   4.908   2.761 -0.2575 -0.0996 -0.4447
  928SOL     OW 3682   0.559   6.805   0.065  0.1510  0.1172  0.4651
  928SOL    HW1 3683   0.508   6.756  -0.006  1.9452 -2.0337  0.5544
  928SOL    HW2 3684   0.653   6.771   0.067  0.5980  1.3421  2.7650
  929SOL     OW 3685   2.540   1.634   5.460  0.2579  0.5971 -0.0778
  929SOL    HW1 3686   2.456   1.675   5.423 -0.7194 -0.4965  0.8481
  929SOL    HW2 3687   2.575   1.692   5.534 -1.2412 -0.2638  1.3774
  930SOL     OW 3688   5.238   6.208   4.406  0.1962  0.5173 -0.2538
  930SOL    HW1 3689   5.274   6.271   4.337  2.6378 -0.5304 -0.0308
  930SOL    HW2 3690   5.270   6.236   4.497 -0.8760  0.4249  0.1691
  931SOL     OW 3691   5.477   0.251   3.894  0.2873 -0.7633  0.2659
  931SOL    HW1 3692   5.445   0.162   3.924 -4.1010  0.0261 -1.4030
  931SOL    HW2 3693   5.463   0.318   3.967 -1.5419 -0.5363 -0.2525
  932SOL     OW 3694   4.273   1.897   3.881  0.0515  0.1416  0.1500
  932SOL    HW1 3695   4.199   1.893   3.948 -0.1162  0.0803 -0.0375
  932SOL    HW2 3696   4.290   1.806   3.843 -1.2704  0.5068 -1.4079
  933SOL     OW 3697   1.628   0.373   5.405 -0.1075 -0.1240 -0.6220
  933SOL    HW1 3698   1.696   0.301   5.387  1.0606  0.5269  0.9809
  933SOL    HW2 3699   1.664   0.436   5.473 -2.2408  0.4005  0.0816
  934SOL     OW 3700   0.017   5.325   6.270 -0.2997 -0.1229  0.1480
  934SOL    HW1 3701  -0.072   5.346   6.310 -0.0484  0.2695  0.5098
  934SOL    HW2 3702   0.076   5.284   6.339 -0.7164 -1.8985 -0.4950
  935SOL     OW 3703   6.001   5.429   3.547  0.2919  0.2470  0.1318
  935SOL    HW1 3704   6.015   5.337   3.510  0.7983  0.0910  0.6984
  935SOL    HW2 3705   6.089   5.466   3.577 -0.0676  0.4895  0.8994
  936SOL     OW 3706   0.004   2.647   6.958  0.4750  0.0773 -0.2379
  936SOL    HW1 3707  -0.059   2.697   7.018  0.6118  0.5730 -0.5005
  936SOL    HW2 3708  -0.047   2.588   6.897  0.2524  0.5941 -0.5555
  937SOL     OW 3709   4.580   0.285   5.729 -0.1835  0.4163  0.2009
  937SOL    HW1 3710   4.667   0.256   5.689 -0.8668 -0.2610 -0.8386
  937SOL    HW2 3711   4.593   0.305   5.826  0.9706 -0.4079  0.2378
  938SOL     OW 3712   5.831   3.185   6.588 -0.1841  0.1303 -0.7519
  938SOL    HW1 3713   5.747   3.233   6.614  0.8597  1.0477  1.1343
  938SOL    HW2 3714   5.878   3.153   6.670  2.7655  2.1929 -1.4431
  939SOL     OW 3715   2.649   6.222   3.717 -0.5874  0.2464 -0.2795
  939SOL    HW1 3716   2.575   6.264   3.664  0.5416  1.5456 -0.8884
  939SOL    HW2 3717   2.730   6.280   3.713  0.8450 -1.6835 -0.5256
  940SOL     OW 3718   6.937   4.643   6.790 -0.2901  0.0810 -0.0284
  940SOL    HW1 3719   6.972   4.735   6.774 -0.0382 -0.1274 -0.7157
  940SOL    HW2 3720   6.990   4.577   6.737 -1.2291 -0.3273 -0.4915
  941SOL     OW 3721   0.391   3.011   0.741 -0.5716  0.0741 -0.3980
  941SOL    HW1 3722   0.334   2.943   0.695 -1.1469 -0.1843  0.6605
  941SOL    HW2 3723   0.334   3.066   0.801  0.2310  0.0608  0.3947
  942SOL     OW 3724   6.449   6.591   4.266 -0.1420 -0.0745  0.0307
  942SOL    HW1 3725   6.476   6.527   4.194 -0.5401  0.6507 -0.7748
  942SOL    HW2 3726   6.514   6.667   4.270  1.2099 -1.2382  2.0025
  943SOL     OW 3727   1.290   4.484   3.026  0.3848 -0.1764  0.5469
  943SOL    HW1 3728   1.254   4.442   2.942 -0.8958  0.8570  0.5601
  943SOL    HW2 3729   1.317   4.412   3.090  0.9447 -0.9771 -0.5517
  944SOL     OW 3730   0.542   1.949   5.387 -0.4864 -0.4367 -0.1584
  944SOL    HW1 3731   0.578   1.864   5.347  0.5985 -0.1101  0.0929
  944SOL    HW2 3732   0.532   1.937   5.486 -0.4093 -0.2962 -0.1344
  945SOL     OW 3733   0.529   4.641   3.266  0.1893  0.2658  0.0465
  945SOL    HW1 3734   0.621   4.659   3.300  0.2139  0.1107  0.0631
  945SOL    HW2 3735   0.463   4.651   3.341  0.3792 -1.3588  0.4734
  946SOL     OW 3736   5.959   4.107   6.369  0.0327 -0.2417 -0.1619
  946SOL    HW1 3737   5.974   4.056   6.284  0.3442  1.0509 -0.9122
  946SOL    HW2 3738   6.018   4.070   6.440  0.7444 -0.5117 -0.8734
  947SOL     OW 3739   3.897   3.031   3.939  0.1261 -0.1489  0.2337
  947SOL    HW1 3740   3.919   3.090   3.861 -0.4719  0.8347  0.7843
  947SOL    HW2 3741   3.887   2.937   3.908  0.2893  0.1638 -0.8083
  948SOL     OW 3742   5.744   6.389   2.745  0.4849  0.1721 -0.3785
  948SOL    HW1 3743   5.663   6.341   2.779  0.9588  0.6100  1.4659
  948SOL    HW2 3744   5.767   6.355   2.654  0.0825 -2.2033  0.3350
  949SOL     OW 3745   3.285   3.305   0.677 -0.2756 -0.9590 -0.2081
  949SOL    HW1 3746   3.277   3.364   0.757  0.6442 -2.6832  1.2437
  949SOL    HW2 3747   3.227   3.225   0.689  1.9151 -2.6064  0.1039
  950SOL     OW 3748   6.879   0.417   0.126 -0.5191  0.0120 -0.0515
  950SOL    HW1 3749   6.898   0.489   0.059 -1.2712 -0.7756 -1.1408
  950SOL    HW2 3750   6.953   0.414   0.194 -0.0257  1.1992 -0.5140
  951SOL     OW 3751   2.979   1.319   2.953  0.3359  0.0890 -0.2251
  951SOL    HW1 3752   3.051   1.360   3.008  1.3448 -1.5220 -0.2837
  951SOL    HW2 3753   2.927   1.392   2.907  0.8822  1.3460  1.0747
  952SOL     OW 3754   5.101   1.235   3.700  0.0185  0.8295 -0.5110
  952SOL    HW1 3755   5.110   1.260   3.604  0.2627  0.9464 -0.4589
  952SOL    HW2 3756   5.101   1.317   3.757  1.2181  0.7171 -0.3110
  953SOL     OW 3757   2.968   0.530   6.122  0.2321 -0.2578  0.2654
  953SOL    HW1 3758   2.983   0.588   6.041  1.1188 -2.4780 -1.2596
  953SOL    HW2 3759   3.055   0.490   6.151 -0.2333 -0.2285  1.7674
  954SOL     OW 3760   5.455   6.321   1.067  0.4075 -0.8254 -0.0052
  954SOL    HW1 3761   5.396   6.367   1.001  2.5283  1.1933 -0.6205
  954SOL    HW2 3762   5.519   6.260   1.020  0.7298 -0.7761  0.3571
  955SOL     OW 3763   5.693   4.550   0.083 -0.5954 -0.1646  0.3459
  955SOL    HW1 3764   5.745   4.466   0.064  0.5427  0.5224  0.3447
  955SOL    HW2 3765   5.629   4.533   0.158 -1.2539 -1.3687 -0.4575
  956SOL     OW 3766   5.313   1.395   0.043  0.1245 -0.0098 -0.1587
  956SOL    HW1 3767   5.358   1.360   0.125  0.4806  1.5607  0.3315
  956SOL    HW2 3768   5.350   1.349  -0.037  0.1890 -1.1383  0.4876
  957SOL     OW 3769   6.225   4.326   3.676  0.5722 -0.2501  0.6573
  957SOL    HW1 3770   6.298   4.283   3.729 -1.4424 -1.6813  2.5181
  957SOL    HW2 3771   6.179   4.256   3.620  0.6536  0.6239 -0.5296
  958SOL     OW 3772   4.428   1.582   3.125 -0.5744 -0.4384 -0.7722
  958SOL    HW1 3773   4.451   1.486   3.114 -1.5861 -0.6426 -1.2164
  958SOL    HW2 3774   4.440   1.608   3.221  1.5493 -0.4799 -0.9938
  959SOL     OW 3775   2.448   5.461   4.784  0.1160  0.0003  0.2711
  959SOL    HW1 3776   2.537   5.429   4.752  0.6437  1.7240 -0.1245
  959SOL    HW2 3777   2.379   5.445   4.714  0.4066 -0.0641 -0.0001
  960SOL     OW 3778   6.306   1.008   4.234 -0.1666 -0.0950 -0.1426
  960SOL    HW1 3779   6.366   0.947   4.286  2.6882  2.7302  0.1840
  960SOL    HW2 3780   6.285   0.966   4.146  0.9294 -1.9164  0.3947
  961SOL     OW 3781   4.751   5.589   2.543 -0.1544 -0.0032 -0.4759
  961SOL    HW1 3782   4.717   5.681   2.522 -0.1799  0.3600  1.0333
  961SOL    HW2 3783   4.678   5.522   2.527 -0.4829  0.3643 -0.5391
  962SOL     OW 3784   0.166   0.773   5.018  0.1244  0.2349 -0.8521
  962SOL    HW1 3785   0.077   0.809   5.045 -0.3306 -1.6697  0.4134
  962SOL    HW2 3786   0.179   0.786   4.920 -1.1633  1.3196 -0.9076
  963SOL     OW 3787   3.728   0.206   5.993 -0.2618 -0.2469  0.1454
  963SOL    HW1 3788   3.654   0.267   5.966  1.4753  1.2916 -1.3657
  963SOL    HW2 3789   3.737   0.133   5.925 -1.2641 -1.3109  1.0949
  964SOL     OW 3790   4.350   5.089   1.214 -0.2766 -0.2731  0.0763
  964SOL    HW1 3791   4.412   5.022   1.255 -0.2800  0.1557  0.8035
  964SOL    HW2 3792   4.382   5.113   1.123 -0.9455 -2.1720 -0.7099
  965SOL     OW 3793   4.353   3.125   1.723 -0.1882  0.0486 -0.3966
  965SOL    HW1 3794   4.442   3.104   1.765 -0.1390  0.0846 -0.4817
  965SOL    HW2 3795   4.296   3.043   1.723 -0.0476 -0.0511 -0.6042
  966SOL     OW 3796   6.301   2.402   2.969 -0.3077  0.1951  0.6430
  966SOL    HW1 3797   6.228   2.373   2.906  0.0745  0.4366  0.0782
  966SOL    HW2 3798   6.266   2.471   3.032 -0.1492  1.5779 -0.7277
  967SOL     OW 3799   2.475   4.253   1.880 -0.5806  0.4021  0.1297
  967SOL    HW1 3800   2.405   4.280   1.946 -1.5247 -1.8741  0.1396
  967SOL    HW2 3801   2.436   4.189   1.814  1.3661 -0.5397 -0.1697
  968SOL     OW 3802   3.693   0.738   2.483 -0.2550 -0.1513  0.0679
  968SOL    HW1 3803   3.741   0.783   2.409 -0.3019  0.0648  0.1659
  968SOL    HW2 3804   3.758   0.694   2.544  0.0556  2.2136  1.5770
  969SOL     OW 3805   1.325   5.160   6.335  0.4992  0.0788  0.3925
  969SOL    HW1 3806   1.326   5.195   6.428  1.1286 -0.0394  0.4357
  969SOL    HW2 3807   1.241   5.108   6.319  0.9623 -1.0046  1.3234
  970SOL     OW 3808   5.196   0.470   0.326 -0.0536 -0.7305  0.0967
  970SOL    HW1 3809   5.099   0.490   0.309  0.1370 -0.2576 -0.4670
  970SOL    HW2 3810   5.238   0.436   0.242  0.2515 -1.0056  0.3609
  971SOL     OW 3811   1.116   3.348   0.571 -0.4063 -0.0466 -0.3389
  971SOL    HW1 3812   1.172   3.360   0.489 -0.5518 -1.1481 -0.6229
  971SOL    HW2 3813   1.125   3.254   0.603  0.3739  0.6117  1.4765
  972SOL     OW 3814   6.414   2.411   2.637  0.4109 -0.5889  0.1281
  972SOL    HW1 3815   6.363   2.452   2.712 -1.1194 -1.1565 -0.5604
  972SOL    HW2 3816   6.459   2.328   2.670  0.2907 -0.4862  0.5677
  973SOL     OW 3817   6.182   6.279   6.335  0.2044  0.7750  0.1627
  973SOL    HW1 3818   6.111   6.254   6.401 -0.0426  1.2266  0.0706
  973SOL    HW2 3819   6.205   6.199   6.280 -1.5863  1.0511 -1.0856
  974SOL     OW 3820   0.555   0.142   1.847  0.2601 -0.5580  0.1523
  974SOL    HW1 3821   0.570   0.065   1.910  2.2076 -0.2312  0.1642
  974SOL    HW2 3822   0.616   0.217   1.873  0.7748 -0.2389 -1.8436
  975SOL     OW 3823   1.588   5.466   1.589 -0.3596  0.5473 -0.2262
  975SOL    HW1 3824   1.516   5.419   1.639 -1.1551  0.7787 -1.1284
  975SOL    HW2 3825   1.597   5.560   1.623 -0.1581  0.3817  0.1925
  976SOL     OW 3826   0.121   6.125   2.974  1.1188  0.0076  0.2865
  976SOL    HW1 3827   0.166   6.180   3.044  0.3870  0.9343  0.0497
  976SOL    HW2 3828   0.023   6.123   2.992  0.9718 -0.0500 -0.5022
  977SOL     OW 3829   0.904   0.211   2.392  0.0334 -0.2906 -0.2181
  977SOL    HW1 3830   0.871   0.148   2.462 -1.7014  1.6448  0.8352
  977SOL    HW2 3831   0.897   0.305   2.427  2.2206  0.5333 -1.8222
  978SOL     OW 3832   5.723   3.048   6.358 -0.3147 -0.3423 -0.4212
  978SOL    HW1 3833   5.777   3.079   6.436 -2.6470 -2.2203  2.1194
  978SOL    HW2 3834   5.783   3.001   6.293  1.3695 -0.7664  1.3560
  979SOL     OW 3835   6.090   3.966   6.564 -0.5358 -0.3771  0.6388
  979SOL    HW1 3836   6.022   3.960   6.637 -1.7293  0.5963 -0.3411
  979SOL    HW2 3837   6.180   3.985   6.603 -1.2129  0.4563  1.8488
  980SOL     OW 3838   5.342   1.247   5.182  0.2056 -0.5556 -0.0956
  980SOL    HW1 3839   5.297   1.334   5.159  0.0299 -0.6191  0.0103
  980SOL    HW2 3840   5.380   1.207   5.098 -0.6645 -0.9187 -0.3274
  981SOL     OW 3841   6.857   1.675   6.478 -0.4740 -0.4539  0.3542
  981SOL    HW1 3842   6.831   1.660   6.574  1.9752  0.0393  1.1618
  981SOL    HW2 3843   6.880   1.771   6.464  1.1943 -0.8899 -0.1533
  982SOL     OW 3844   2.327   0.254   6.134  0.5772  0.7628 -0.1113
  982SOL    HW1 3845   2.324   0.253   6.234 -0.1974  0.2851 -0.1408
  982SOL    HW2 3846   2.268   0.327   6.100  0.3102  0.4880 -0.2398
  983SOL     OW 3847   0.423   3.246   2.513  0.0748  0.4228 -0.9082
  983SOL    HW1 3848   0.458   3.152   2.512  0.8240  0.6962 -0.7172
  983SOL    HW2 3849   0.338   3.250   2.460 -0.2147 -0.4573 -0.5387
  984SOL     OW 3850   2.344   2.335   4.817  0.8038  0.0117  0.0408
  984SOL    HW1 3851   2.391   2.378   4.894 -0.6718  1.7570  0.0265
  984SOL    HW2 3852   2.400   2.345   4.734  1.1658  0.5405  0.3450
  985SOL     OW 3853   5.354   2.622   6.017 -0.2846  0.0471  0.0369
  985SOL    HW1 3854   5.381   2.622   5.921 -0.9804 -2.8992 -0.2446
  985SOL    HW2 3855   5.264   2.666   6.026 -1.2455 -1.5765 -1.0626
  986SOL     OW 3856   4.948   0.041   0.932 -0.4807  0.0229 -0.1523
  986SOL    HW1 3857   5.041   0.012   0.953 -0.5717  0.6357  1.1749
  986SOL    HW2 3858   4.934   0.038   0.833  0.6038 -1.0709 -0.2964
  987SOL     OW 3859   6.669   6.055   2.113  0.2294 -0.7398  0.1840
  987SOL    HW1 3860   6.680   6.129   2.046 -0.8355 -1.5425 -0.9109
  987SOL    HW2 3861   6.750   5.997   2.112  1.1302  0.4225  1.1318
  988SOL     OW 3862   2.796   2.378   0.628 -0.3945  0.5899  0.1879
  988SOL    HW1 3863   2.830   2.441   0.558 -0.0254 -1.8096 -1.9224
  988SOL    HW2 3864   2.873   2.327   0.667 -0.9828 -1.4332 -1.1403
  989SOL     OW 3865   6.212   1.717   6.372 -0.3162 -0.7230  0.4396
  989SOL    HW1 3866   6.277   1.690   6.301 -1.5941 -2.2137 -0.2242
  989SOL    HW2 3867   6.252   1.699   6.462 -0.1337 -2.5812  0.0394
  990SOL     OW 3868   6.378   0.591   2.792 -0.1708 -0.3517 -0.5051
  990SOL    HW1 3869   6.434   0.517   2.829 -1.2483 -0.6831  0.5415
  990SOL    HW2 3870   6.284   0.581   2.826 -1.1453 -0.4506 -3.0570
  991SOL     OW 3871   0.765   3.522   5.367  0.1348 -0.0775  0.0782
  991SOL    HW1 3872   0.827   3.532   5.445  0.5486 -0.0285 -0.2516
  991SOL    HW2 3873   0.741   3.425   5.356  0.8324 -0.2112 -0.3069
  992SOL     OW 3874   4.871   5.321   6.948  0.5241 -0.3058 -0.3498
  992SOL    HW1 3875   4.855   5.284   6.856 -3.5371  0.4721 -0.1450
  992SOL    HW2 3876   4.799   5.290   7.009  2.0979  0.7091  2.1680
  993SOL     OW 3877   6.517   3.373   0.749 -0.3151  0.1558 -0.3201
  993SOL    HW1 3878   6.523   3.439   0.674 -1.2087  0.2383 -0.3217
  993SOL    HW2 3879   6.524   3.422   0.836 -0.8507  0.2459 -0.3240
  994SOL     OW 3880   4.578   4.537   1.904  0.3490  0.5081 -0.0963
  994SOL    HW1 3881   4.531   4.450   1.887 -0.5597  1.1292 -0.7980
  994SOL    HW2 3882   4.634   4.561   1.825 -1.1604  1.6677 -0.8360
  995SOL     OW 3883   3.995   3.683   5.384  0.0390 -0.5711 -0.6082
  995SOL    HW1 3884   3.924   3.652   5.321  0.5349 -0.6970 -1.1050
  995SOL    HW2 3885   4.075   3.714   5.333  0.2940 -0.2996 -0.0569
  996SOL     OW 3886   4.302   6.928   5.165 -0.5102 -0.1917  0.2571
  996SOL    HW1 3887   4.327   6.844   5.213  2.0253  1.0814  1.2990
  996SOL    HW2 3888   4.282   6.907   5.069 -1.4286 -2.1442  0.8283
  997SOL     OW 3889   1.825   0.362   3.473 -0.2151  0.3120  0.0783
  997SOL    HW1 3890   1.787   0.424   3.543  0.2727  1.1144 -0.3450
  997SOL    HW2 3891   1.772   0.372   3.388 -0.0391  0.2664 -0.0366
  998SOL     OW 3892   5.270   0.462   4.941  0.4507 -0.4771 -0.1738
  998SOL    HW1 3893   5.191   0.506   4.984  0.4829  0.1280 -0.7200
  998SOL    HW2 3894   5.353   0.514   4.963  0.6653 -0.9518  0.1653
  999SOL     OW 3895   0.560   5.650   3.309 -0.2876 -0.2171 -0.4809
  999SOL    HW1 3896   0.606   5.710   3.244 -0.4497  0.4380 -0.0053
  999SOL    HW2 3897   0.496   5.704   3.364  0.2420 -0.6635  0.5871
 1000SOL     OW 3898   6.440   2.070   2.959 -0.1611 -0.1478 -0.0494
 1000SOL    HW1 3899   6.497   2.130   2.904  0.1583 -1.2256 -0.9267
 1000SOL    HW2 3900   6.493   2.034   3.036  0.1922 -0.7317 -0.5622
 1001SOL     OW 3901   3.729   3.787   0.618  0.1699  0.1097 -0.1985
 1001SOL    HW1 3902   3.727   3.721   0.543  0.0361 -0.7795  0.5694
 1001SOL    HW2 3903   3.768   3.744   0.699 -1.2857  0.4986  0.7433
 1002SOL     OW 3904   5.391   0.205   3.304  0.5678  0.0562 -0.5981
 1002SOL    HW1 3905   5.329   0.229   3.229 -0.4799 -2.3062 -0.5909
 1002SOL    HW2 3906   5.380   0.270   3.379  0.1003  1.2423 -1.6629
 1003SOL     OW 3907   1.646   0.043   0.552 -0.1303 -0.5914 -0.5468
 1003SOL    HW1 3908   1.716  -0.024   0.579  0.1541  0.5162  1.6548
 1003SOL    HW2 3909   1.679   0.094   0.472  1.0322 -0.9329 -0.3063
 1004SOL     OW 3910   0.778   6.853   0.691  0.2087  0.2923 -0.6813
 1004SOL    HW1 3911   0.778   6.788   0.767 -0.6073  0.7397 -0.2909
 1004SOL    HW2 3912   0.817   6.940   0.721  1.3477 -0.0119 -1.2161
 1005SOL     OW 3913   1.730   2.363   3.239  0.3006  0.1425 -0.2051
 1005SOL    HW1 3914   1.767   2.296   3.302  0.7554  1.1121  0.5941
 1005SOL    HW2 3915   1.682   2.317   3.165 -0.3630 -1.0207  0.9187
 1006SOL     OW 3916   1.187   4.510   1.014 -0.3603  0.0089 -0.2381
 1006SOL    HW1 3917   1.120   4.448   0.973 -2.6450  2.3367 -0.3021
 1006SOL    HW2 3918   1.271   4.460   1.035 -1.7734 -2.8710 -0.9686
 1007SOL     OW 3919   6.622   5.816   6.435  0.1581 -0.0524 -0.2133
 1007SOL    HW1 3920   6.543   5.872   6.458  0.6460  0.4649  0.2483
 1007SOL    HW2 3921   6.704   5.856   6.475  0.6720 -0.5259 -0.7634
 1008SOL     OW 3922   1.175   3.453   6.810 -0.6251  0.3456 -0.8479
 1008SOL    HW1 3923   1.141   3.360   6.813  0.9056 -0.2177  1.5681
 1008SOL    HW2 3924   1.143   3.503   6.890  1.0101  0.9415 -0.5241
 1009SOL     OW 3925   5.863   5.991   5.328 -0.0930 -0.8208  0.4257
 1009SOL    HW1 3926   5.816   5.951   5.250  0.5734  1.1643 -1.0817
 1009SOL    HW2 3927   5.867   6.090   5.317 -0.7631 -0.3475  3.4441
 1010SOL     OW 3928   1.889   2.546   0.959  0.2831  0.3715 -0.0588
 1010SOL    HW1 3929   1.986   2.543   0.934  0.5514  2.8887  0.4412
 1010SOL    HW2 3930   1.833   2.544   0.876  0.7036 -1.2249 -0.3438
 1011SOL     OW 3931   1.550   6.698   1.610  0.5917  0.2405 -0.1433
 1011SOL    HW1 3932   1.551   6.666   1.704  1.1994  0.7559  0.0358
 1011SOL    HW2 3933   1.473   6.761   1.596  1.6416  1.7597  0.5849
 1012SOL     OW 3934   6.381   0.424   1.754 -0.2264  0.0229  0.1223
 1012SOL    HW1 3935   6.358   0.330   1.779  0.7096  0.2164  1.9496
 1012SOL    HW2 3936   6.310   0.486   1.787  0.1571  0.1172  0.8048
 1013SOL     OW 3937   0.873   1.160   6.895  0.5593 -0.1967  0.7878
 1013SOL    HW1 3938   0.829   1.112   6.971 -0.0041  1.1716  1.3619
 1013SOL    HW2 3939   0.891   1.255   6.921 -1.5048  0.9122 -1.4099
 1014SOL     OW 3940   6.556   3.089   6.418 -0.7619  0.0723  0.1602
 1014SOL    HW1 3941   6.536   3.138   6.503 -1.1058  1.4850 -0.7101
 1014SOL    HW2 3942   6.654   3.076   6.409 -0.6372  0.9440  0.2280
 1015SOL     OW 3943   1.825   1.568   6.145  0.2243  0.0169 -0.5291
 1015SOL    HW1 3944   1.863   1.658   6.167 -0.3714 -0.2364  1.7617
 1015SOL    HW2 3945   1.752   1.546   6.209 -2.2964 -0.5237 -3.3506
 1016SOL     OW 3946   3.122   3.048   6.770  0.0513  0.3125 -0.3050
 1016SOL    HW1 3947   3.158   3.057   6.863  3.4884 -0.0400 -1.4424
 1016SOL    HW2 3948   3.091   3.137   6.738  0.5461  0.8182  0.5694
 1017SOL     OW 3949   3.978   3.298   1.175 -0.5555  0.6648 -0.0022
 1017SOL    HW1 3950   3.906   3.279   1.108  0.4507 -0.0578 -0.9316
 1017SOL    HW2 3951   3.938   3.306   1.266 -1.9854  1.8105 -0.6957
 1018SOL     OW 3952   1.124   4.193   4.408 -0.5389  0.1003 -0.0197
 1018SOL    HW1 3953   1.173   4.128   4.467 -1.2018  0.0004  0.4364
 1018SOL    HW2 3954   1.151   4.178   4.313  1.1415  0.7842  0.3178
 1019SOL     OW 3955   3.485   6.490   1.398 -0.7859 -0.4020  0.1998
 1019SOL    HW1 3956   3.526   6.421   1.338  0.4618  0.8213 -0.4037
 1019SOL    HW2 3957   3.535   6.493   1.484  0.5019  1.1163 -0.5511
 1020SOL     OW 3958   6.081   2.640   0.086  0.1432 -0.0653  0.1029
 1020SOL    HW1 3959   6.070   2.647  -0.013 -0.9384  1.0417  0.2641
 1020SOL    HW2 3960   6.044   2.722   0.129  2.4571  0.4308  1.3211
 1021SOL     OW 3961   6.515   2.431   1.234 -0.4454 -0.7573 -0.0243
 1021SOL    HW1 3962   6.466   2.516   1.210  0.6960 -0.0957 -0.0790
 1021SOL    HW2 3963   6.573   2.448   1.313 -0.8344 -1.7374  0.4850
 1022SOL     OW 3964   2.252   3.383   5.731  0.6470  0.4443  0.4806
 1022SOL    HW1 3965   2.252   3.320   5.808  1.3671 -0.3726 -0.1650
 1022SOL    HW2 3966   2.276   3.475   5.763 -0.2006  0.3715  1.3954
 1023SOL     OW 3967   1.818   1.755   4.012  0.1934  0.4985 -0.3021
 1023SOL    HW1 3968   1.847   1.666   4.048 -2.0392  0.2456  1.1090
 1023SOL    HW2 3969   1.857   1.769   3.922  1.9842 -1.1355  0.1449
 1024SOL     OW 3970   2.103   3.816   3.522 -0.1374 -0.6895 -0.3888
 1024SOL    HW1 3971   2.202   3.821   3.512 -0.1747  1.0996 -0.1056
 1024SOL    HW2 3972   2.080   3.757   3.599  0.7849  0.4341  0.7741
 1025SOL     OW 3973   2.797   3.708   0.195  0.4032 -0.1090  0.5102
 1025SOL    HW1 3974   2.720   3.647   0.213  0.0860  0.3833  0.8324
 1025SOL    HW2 3975   2.765   3.793   0.155  0.8235 -0.0623  0.2608
 1026SOL     OW 3976   3.007   3.220   1.826  0.0052 -0.5586 -0.2520
 1026SOL    HW1 3977   2.960   3.284   1.886 -0.6162 -2.1069  0.9707
 1026SOL    HW2 3978   3.006   3.255   1.732 -1.7545  0.4283  0.0968
 1027SOL     OW 3979   3.013   6.723   0.385  0.0140  0.5502 -0.0275
 1027SOL    HW1 3980   2.977   6.632   0.406  1.6828 -0.0325  0.4259
 1027SOL    HW2 3981   3.007   6.781   0.466 -0.4246  0.6478 -0.1250
 1028SOL     OW 3982   3.316   0.597   3.156 -0.0082 -0.2453 -0.0881
 1028SOL    HW1 3983   3.281   0.662   3.089 -0.3216  0.1771  0.4700
 1028SOL    HW2 3984   3.239   0.556   3.206  0.2314 -0.2958  0.2437
 1029SOL     OW 3985   1.221   1.251   5.989 -0.2868 -0.1621  0.7965
 1029SOL    HW1 3986   1.248   1.155   5.989  0.3453  0.0084  0.3927
 1029SOL    HW2 3987   1.209   1.283   5.895  2.7810  1.0245  0.6819
 1030SOL     OW 3988   3.652   2.955   2.818  0.0828 -0.1817 -0.1258
 1030SOL    HW1 3989   3.580   3.021   2.841 -0.0707  0.3140 -1.8703
 1030SOL    HW2 3990   3.672   2.960   2.720  0.7351 -2.0773 -0.1397
 1031SOL     OW 3991   5.508   4.811   1.222  0.0856  0.4532  0.0524
 1031SOL    HW1 3992   5.454   4.729   1.241 -0.4360  0.8552  0.3387
 1031SOL    HW2 3993   5.538   4.852   1.308  0.1524  0.6838 -0.0810
 1032SOL     OW 3994   0.500   2.230   0.278 -0.4535  0.4765  0.0380
 1032SOL    HW1 3995   0.475   2.193   0.367  1.4503 -1.0179  0.0159
 1032SOL    HW2 3996   0.457   2.175   0.206 -0.5179  0.5438  0.0250
 1033SOL     OW 3997   6.821   5.757   0.268  0.1647  0.2577 -0.4732
 1033SOL    HW1 3998   6.726   5.782   0.288 -0.4013 -1.2228 -1.1337
 1033SOL    HW2 3999   6.828   5.729   0.172  1.2644  0.2920 -0.4105
 1034SOL     OW 4000   6.951   6.434   5.063  0.0588 -0.8082  0.3169
 1034SOL    HW1 4001   6.852   6.446   5.055  0.2002  1.8044  1.3207
 1034SOL    HW2 4002   6.993   6.442   4.972 -0.6290 -1.9230 -0.1112
 1035SOL     OW 4003   5.114   0.591   3.503  0.3307  0.6196  0.0857
 1035SOL    HW1 4004   5.089   0.548   3.416 -1.4312 -1.1833  1.3724
 1035SOL    HW2 4005   5.052   0.668   3.520 -0.1978  0.1439  0.3391
 1036SOL     OW 4006   3.345   0.975   2.055  0.1681 -0.0518  0.1872
 1036SOL    HW1 4007   3.359   1.070   2.025  0.3331 -0.5601 -1.4213
 1036SOL    HW2 4008   3.309   0.921   1.979 -0.2667 -1.2099  1.1930
 1037SOL     OW 4009   1.042   1.944   1.028  0.2878  0.2925  0.4832
 1037SOL    HW1 4010   1.035   1.941   0.928  0.6485 -0.3108  0.4701
 1037SOL    HW2 4011   1.117   1.885   1.058 -1.3474 -1.5026  1.2668
 1038SOL     OW 4012   1.806   6.584   5.574  0.0492 -0.2433 -0.1776
 1038SOL    HW1 4013   1.784   6.565   5.479 -0.5654  0.4789 -0.1889
 1038SOL    HW2 4014   1.814   6.683   5.588  1.6715 -0.3967  0.1979
 1039SOL     OW 4015   3.099   3.939   3.095  0.1435  0.0611  0.0999
 1039SOL    HW1 4016   3.168   3.893   3.151  2.0366  0.9937 -1.3310
 1039SOL    HW2 4017   3.053   4.009   3.150  2.2205  1.2240  0.4674
 1040SOL     OW 4018   3.738   7.007   1.287 -0.9172  0.1682  0.3100
 1040SOL    HW1 4019   3.707   6.961   1.203  0.1862  0.2910 -0.1813
 1040SOL    HW2 4020   3.679   7.086   1.305 -0.6340  0.6592 -0.8434
 1041SOL     OW 4021   1.930   6.876   3.186  0.1481 -0.5602  0.4999
 1041SOL    HW1 4022   1.892   6.812   3.253  0.2011 -1.8657 -0.6663
 1041SOL    HW2 4023   1.857   6.907   3.124  0.5423 -1.4391 -0.4454
 1042SOL     OW 4024   3.669   5.307   3.364 -0.8844 -0.1663 -0.2740
 1042SOL    HW1 4025   3.635   5.217   3.390 -3.3152  1.0973  1.3145
 1042SOL    HW2 4026   3.653   5.322   3.267 -2.6147 -0.6182 -0.0909
 1043SOL     OW 4027   5.073   1.705   4.292  0.1948 -0.2317  0.4787
 1043SOL    HW1 4028   5.006   1.774   4.319  1.8952  1.4611  0.6100
 1043SOL    HW2 4029   5.038   1.614   4.313 -1.9734  0.5906  0.6470
 1044SOL     OW 4030   5.057   4.641   1.917  0.1538  0.3502  0.5340
 1044SOL    HW1 4031   5.129   4.630   1.848  1.9315 -0.0031  2.3568
 1044SOL    HW2 4032   5.035   4.552   1.957 -0.1378  0.6771  1.1186
 1045SOL     OW 4033   4.128   6.959   1.595 -0.0670 -0.2316 -0.5276
 1045SOL    HW1 4034   4.151   6.926   1.686  1.6217  0.9417 -0.4842
 1045SOL    HW2 4035   4.102   7.056   1.599  1.8007  0.3611 -1.4649
 1046SOL     OW 4036   2.079   2.082   0.464  0.0399 -0.3373 -0.2526
 1046SOL    HW1 4037   2.128   2.090   0.551 -1.3995 -0.9260  0.6349
 1046SOL    HW2 4038   2.051   2.173   0.434  0.9471 -0.0790 -0.3611
 1047SOL     OW 4039   2.827   2.271   3.442 -0.4016  0.0165  0.0491
 1047SOL    HW1 4040   2.849   2.233   3.532 -1.0272 -0.5503 -0.0370
 1047SOL    HW2 4041   2.899   2.245   3.377  1.7980  3.0283  1.0139
 1048SOL     OW 4042   4.736   5.671   2.200  0.3371  0.2594  0.1740
 1048SOL    HW1 4043   4.648   5.623   2.205 -0.9602  2.0898 -2.4419
 1048SOL    HW2 4044   4.739   5.742   2.270  0.0571 -0.2598  0.7253
 1049SOL     OW 4045   0.092   6.443   3.742  0.0365  0.4497 -0.1228
 1049SOL    HW1 4046   0.125   6.396   3.660 -1.5838 -0.7321 -0.1452
 1049SOL    HW2 4047   0.130   6.536   3.745  1.6807 -0.1352 -1.1587
 1050SOL     OW 4048   6.064   5.740   3.118 -0.4076  0.2729  0.7614
 1050SOL    HW1 4049   6.130   5.798   3.166  0.4616 -1.7968  2.1663
 1050SOL    HW2 4050   6.098   5.720   3.026  0.3824  0.1258  1.0818
 1051SOL     OW 4051   1.379   6.363   0.041  0.3382  0.5527 -0.5466
 1051SOL    HW1 4052   1.319   6.320  -0.026 -0.2318 -0.8057  0.7577
 1051SOL    HW2 4053   1.334   6.442   0.081 -1.1899 -1.1016  1.2408
 1052SOL     OW 4054   6.708   5.906   3.170 -0.2471  0.1720  0.5788
 1052SOL    HW1 4055   6.778   5.872   3.106 -2.7131 -0.9105 -1.7247
 1052SOL    HW2 4056   6.667   5.829   3.219  0.6978  0.8831  2.6249
 1053SOL     OW 4057   4.896   5.293   2.593 -0.1852  0.6143 -0.0251
 1053SOL    HW1 4058   4.900   5.345   2.508  1.0767  1.8883  0.7700
 1053SOL    HW2 4059   4.950   5.339   2.663  0.4637 -1.4305  0.9209
 1054SOL     OW 4060   2.547   3.486   6.466 -0.1865 -0.1347  0.1280
 1054SOL    HW1 4061   2.603   3.518   6.390  1.3981 -0.2016  1.2111
 1054SOL    HW2 4062   2.530   3.388   6.456  0.8398 -0.3466  0.3243
 1055SOL     OW 4063   5.377   0.039   4.746  0.8517  0.2091  0.3630
 1055SOL    HW1 4064   5.319  -0.030   4.790 -0.0962 -0.9342 -2.4290
 1055SOL    HW2 4065   5.335   0.129   4.756 -0.6597 -0.3837 -0.2455
 1056SOL     OW 4066   2.496   2.392   1.582  0.2882  0.3032  0.4461
 1056SOL    HW1 4067   2.475   2.349   1.670 -1.0605 -0.1756 -0.0839
 1056SOL    HW2 4068   2.590   2.427   1.583  0.1797  0.6111  2.1819
 1057SOL     OW 4069   3.147   1.811   2.232 -0.4082  0.2454 -0.4730
 1057SOL    HW1 4070   3.151   1.871   2.312 -0.8446  2.1795 -1.8344
 1057SOL    HW2 4071   3.113   1.721   2.260  0.5519  0.4944  1.6898
 1058SOL     OW 4072   6.793   2.142   2.964 -0.0995 -0.4529  0.6047
 1058SOL    HW1 4073   6.757   2.167   3.054 -0.2247  1.4090  0.0951
 1058SOL    HW2 4074   6.837   2.053   2.969 -0.8606 -0.7763  2.3025
 1059SOL     OW 4075   3.204   1.632   2.617 -0.3678  0.2694 -0.4438
 1059SOL    HW1 4076   3.146   1.600   2.691 -0.0260 -0.7463 -0.5987
 1059SOL    HW2 4077   3.152   1.635   2.532 -0.4160  0.1785 -0.4170
 1060SOL     OW 4078   1.151   5.394   3.592 -0.1372  0.2459 -0.1169
 1060SOL    HW1 4079   1.102   5.476   3.562 -2.1565 -0.7114  0.3498
 1060SOL    HW2 4080   1.139   5.321   3.525  1.6360  0.2951 -0.5243
 1061SOL     OW 4081   4.609   4.152   6.739 -0.5033  0.2782 -0.1725
 1061SOL    HW1 4082   4.615   4.193   6.830  1.8014  1.6117 -0.8518
 1061SOL    HW2 4083   4.541   4.202   6.685 -1.4974 -0.1798  0.6248
 1062SOL     OW 4084   3.222   4.939   0.277  0.2011  0.1563  0.2301
 1062SOL    HW1 4085   3.241   5.020   0.333  0.8062  0.0601  0.1756
 1062SOL    HW2 4086   3.142   4.892   0.314 -2.4787  2.6950 -1.8291
 1063SOL     OW 4087   2.440   6.311   2.017 -0.5105 -0.7781  0.3888
 1063SOL    HW1 4088   2.369   6.288   1.951  0.3948 -0.5511 -0.7038
 1063SOL    HW2 4089   2.507   6.372   1.974 -0.4243  0.1938  1.8309
 1064SOL     OW 4090   0.212   5.508   4.258  0.3277  0.2572  0.0765
 1064SOL    HW1 4091   0.161   5.437   4.209  0.3916 -0.1957  0.6521
 1064SOL    HW2 4092   0.310   5.490   4.250  0.5171  1.9044 -2.2152
 1065SOL     OW 4093   6.161   1.195   1.712 -0.1478 -0.0649 -0.1566
 1065SOL    HW1 4094   6.066   1.194   1.745  0.2998 -2.0067  1.2416
 1065SOL    HW2 4095   6.164   1.159   1.619 -0.8956  1.1444 -0.6734
 1066SOL     OW 4096   5.841   0.399   3.008  0.0901 -0.7783 -0.0613
 1066SOL    HW1 4097   5.795   0.413   3.095 -0.0939 -0.6867 -0.1706
 1066SOL    HW2 4098   5.795   0.325   2.958 -0.9818  0.3948 -0.8792
 1067SOL     OW 4099   1.451   3.536   0.493 -0.7281 -0.0723  0.2239
 1067SOL    HW1 4100   1.421   3.460   0.551  0.6101 -0.7363  0.0865
 1067SOL    HW2 4101   1.382   3.555   0.424 -0.9252 -1.4278  0.0245
 1068SOL     OW 4102   6.794   4.157   4.375  0.1345  0.6784  0.2303
 1068SOL    HW1 4103   6.871   4.217   4.351 -0.3033  1.0226 -0.3565
 1068SOL    HW2 4104   6.785   4.085   4.306  1.9216 -1.3394  1.9952
 1069SOL     OW 4105   4.239   5.633   0.264 -0.6463 -0.0209 -0.2486
 1069SOL    HW1 4106   4.229   5.622   0.166 -1.0142  1.3802 -0.3879
 1069SOL    HW2 4107   4.155   5.672   0.302 -0.6823 -0.9805  0.7000
 1070SOL     OW 4108   2.432   0.978   1.976  0.4234 -0.8949  0.3493
 1070SOL    HW1 4109   2.388   1.056   1.933  1.8868 -0.1527  0.1147
 1070SOL    HW2 4110   2.368   0.902   1.982 -0.9063  0.1793  0.1970
 1071SOL     OW 4111   0.264   1.635   4.336  0.2728  0.3400 -0.1450
 1071SOL    HW1 4112   0.225   1.554   4.380 -1.3780  0.7235 -0.8546
 1071SOL    HW2 4113   0.362   1.640   4.359  0.7562 -2.5475 -1.1099
 1072SOL     OW 4114   3.262   1.742   1.999 -0.0997 -0.5748 -0.2140
 1072SOL    HW1 4115   3.233   1.766   2.092 -2.2994  0.1672 -1.0150
 1072SOL    HW2 4116   3.275   1.825   1.946  0.1612 -1.0170 -0.8564
 1073SOL     OW 4117   4.917   6.145   2.749 -0.2606  0.0498 -0.0468
 1073SOL    HW1 4118   4.886   6.145   2.844  1.1995  3.1191  0.5509
 1073SOL    HW2 4119   4.839   6.162   2.689 -0.7669  1.2194  0.8899
 1074SOL     OW 4120   0.605   5.931   0.649 -0.5495  0.0333 -0.5995
 1074SOL    HW1 4121   0.534   5.931   0.578 -0.9375  0.1796 -0.2180
 1074SOL    HW2 4122   0.654   5.844   0.647 -1.9076 -0.7965  0.2612
 1075SOL     OW 4123   6.279   5.708   4.834 -0.0092 -0.3064 -0.4620
 1075SOL    HW1 4124   6.204   5.760   4.876  1.3097  0.5611  0.9383
 1075SOL    HW2 4125   6.304   5.751   4.747 -0.5905 -0.1059 -0.5342
 1076SOL     OW 4126   2.105   2.768   6.054  0.2556  0.0065 -0.3126
 1076SOL    HW1 4127   2.037   2.775   5.982 -2.4587 -0.7946  1.9949
 1076SOL    HW2 4128   2.115   2.856   6.101  0.7034  0.0750 -0.5269
 1077SOL     OW 4129   6.771   0.732   0.435 -1.1492 -0.1473 -0.4129
 1077SOL    HW1 4130   6.834   0.692   0.501 -0.1634  1.0320 -0.6137
 1077SOL    HW2 4131   6.744   0.662   0.369  1.7376 -0.2103 -1.6705
 1078SOL     OW 4132   0.045   6.914   3.501  0.2967 -0.1728 -0.1764
 1078SOL    HW1 4133  -0.030   6.940   3.563  0.0917 -1.9036  0.3361
 1078SOL    HW2 4134   0.043   6.816   3.485  1.6077 -0.0426 -1.3179
 1079SOL     OW 4135   1.168   1.731   2.435 -0.4361  0.0867  0.5147
 1079SOL    HW1 4136   1.202   1.656   2.492 -1.5552  0.5588  1.8746
 1079SOL    HW2 4137   1.076   1.709   2.402  0.7123 -0.7989 -2.3918
 1080SOL     OW 4138   2.346   4.337   3.098 -0.1701  0.2274 -0.5055
 1080SOL    HW1 4139   2.343   4.353   3.196 -0.6524 -0.1365 -0.4521
 1080SOL    HW2 4140   2.255   4.352   3.059  0.2998  1.6713 -1.1236
 1081SOL     OW 4141   0.272   3.870   4.549  0.5248 -0.4168 -0.0672
 1081SOL    HW1 4142   0.321   3.868   4.636 -0.8187 -2.9908  0.7560
 1081SOL    HW2 4143   0.252   3.776   4.521 -5.2396  0.2490  0.5568
 1082SOL     OW 4144   5.727   2.828   6.692  0.3127 -0.1471  0.6234
 1082SOL    HW1 4145   5.645   2.775   6.714  0.2555 -0.1499  0.4044
 1082SOL    HW2 4146   5.723   2.916   6.740  0.3813 -0.3167  0.9418
 1083SOL     OW 4147   4.185   3.117   6.450  0.1639 -0.1353 -0.3488
 1083SOL    HW1 4148   4.178   3.089   6.546 -0.9531 -1.3275 -0.7662
 1083SOL    HW2 4149   4.207   3.038   6.393  0.5779  0.5171 -1.1208
 1084SOL     OW 4150   6.768   4.562   5.734 -0.5950  0.0816  0.3897
 1084SOL    HW1 4151   6.864   4.540   5.719 -0.6259  0.1183  0.1212
 1084SOL    HW2 4152   6.754   4.660   5.719 -1.2566 -0.3790 -2.8733
 1085SOL     OW 4153   2.710   2.515   5.820  0.2437  0.1324  0.0137
 1085SOL    HW1 4154   2.774   2.512   5.896  0.7297  0.0071 -0.3975
 1085SOL    HW2 4155   2.717   2.604   5.774  2.0380 -0.8036 -1.6530
 1086SOL     OW 4156   6.176   3.350   1.647  0.1362 -0.5844 -0.2285
 1086SOL    HW1 4157   6.082   3.380   1.629  0.6978  0.6367 -1.2418
 1086SOL    HW2 4158   6.230   3.428   1.680  1.0793 -0.9988 -0.7654
 1087SOL     OW 4159   0.477   2.749   4.629  0.5814 -0.0730  0.0865
 1087SOL    HW1 4160   0.422   2.742   4.712  0.4987  0.8907  0.1259
 1087SOL    HW2 4161   0.428   2.705   4.553 -0.1914  0.6374  0.1554
 1088SOL     OW 4162   0.851   3.773   2.823  0.0187  0.0090  0.3753
 1088SOL    HW1 4163   0.920   3.784   2.894 -0.0731  3.0898  0.1085
 1088SOL    HW2 4164   0.760   3.794   2.860 -0.2833 -0.2962 -0.1770
 1089SOL     OW 4165   1.476   6.493   6.558  0.3154 -0.2330  0.4389
 1089SOL    HW1 4166   1.401   6.460   6.501  0.0762 -1.8513  1.6422
 1089SOL    HW2 4167   1.555   6.433   6.548  1.0155  0.6881  0.2247
 1090SOL     OW 4168   4.285   1.643   3.794  0.1421  0.0451 -0.1140
 1090SOL    HW1 4169   4.261   1.633   3.697 -2.6994 -2.8414  0.6945
 1090SOL    HW2 4170   4.351   1.573   3.819  1.0865  0.9641  0.0331
 1091SOL     OW 4171   1.633   1.514   5.357 -0.2804 -0.2506 -0.2672
 1091SOL    HW1 4172   1.595   1.449   5.291 -1.8424  0.1130  0.2347
 1091SOL    HW2 4173   1.620   1.607   5.324 -0.6904 -0.0833  0.3591
 1092SOL     OW 4174   3.180   3.565   6.867 -0.4537 -0.0625  0.1317
 1092SOL    HW1 4175   3.110   3.551   6.936  0.7035  0.6786  1.5091
 1092SOL    HW2 4176   3.262   3.603   6.910  0.7529 -0.7771 -1.4405
 1093SOL     OW 4177   2.025   6.444   2.018 -0.5280 -1.1382  0.1494
 1093SOL    HW1 4178   2.099   6.397   1.969  0.4370  0.7275 -0.2971
 1093SOL    HW2 4179   1.976   6.503   1.954  0.5681  1.1216  1.2651
 1094SOL     OW 4180   5.729   0.558   1.818 -0.1647  0.5475  0.3622
 1094SOL    HW1 4181   5.815   0.589   1.777 -0.1173 -0.9897 -0.7970
 1094SOL    HW2 4182   5.692   0.630   1.877  2.3368  0.9525  1.5857
 1095SOL     OW 4183   1.237   1.348   6.326 -0.0958  0.2776 -0.0236
 1095SOL    HW1 4184   1.165   1.288   6.293  1.6991 -0.4998 -2.8296
 1095SOL    HW2 4185   1.213   1.443   6.306 -0.6732  0.0946 -0.2157
 1096SOL     OW 4186   2.734   3.128   0.654  0.0516 -0.1579  0.6563
 1096SOL    HW1 4187   2.772   3.092   0.739  0.3196 -0.6630  0.3288
 1096SOL    HW2 4188   2.746   3.227   0.652  2.2104 -0.3624  0.1849
 1097SOL     OW 4189   0.007   5.321   3.386 -0.4420 -0.3458  0.0104
 1097SOL    HW1 4190   0.058   5.401   3.356  0.6057 -0.2522  1.8920
 1097SOL    HW2 4191   0.042   5.240   3.339 -2.0591  0.3075 -2.5252
 1098SOL     OW 4192   2.289   3.295   0.249  0.4534 -0.3194  0.4630
 1098SOL    HW1 4193   2.209   3.263   0.300  0.5727 -1.4003  0.0122
 1098SOL    HW2 4194   2.315   3.225   0.182  1.6530  0.1034  0.4660
 1099SOL     OW 4195   4.501   6.932   4.578  0.0055 -0.8474 -0.0220
 1099SOL    HW1 4196   4.532   6.949   4.484  1.2576 -0.6520  0.4175
 1099SOL    HW2 4197   4.416   6.878   4.575  0.2090 -1.1346 -1.2584
 1100SOL     OW 4198   5.499   1.686   6.977 -0.1398 -0.0424  0.0488
 1100SOL    HW1 4199   5.514   1.594   7.015  0.0440 -0.6123 -1.3377
 1100SOL    HW2 4200   5.582   1.740   6.988 -0.2495 -0.0242  0.8826
 1101SOL     OW 4201   5.577   3.297   5.258 -0.0540 -0.1270  0.1243
 1101SOL    HW1 4202   5.579   3.202   5.227  2.1502 -0.4262  0.9967
 1101SOL    HW2 4203   5.604   3.358   5.184  2.1162 -0.5539  0.5116
 1102SOL     OW 4204   1.753   1.058   4.888  0.4500 -0.3973 -0.2465
 1102SOL    HW1 4205   1.734   1.156   4.892  1.1963 -0.2197 -0.8297
 1102SOL    HW2 4206   1.850   1.044   4.868  0.6751 -1.2547  1.2432
 1103SOL     OW 4207   4.210   3.361   5.202 -0.1476 -0.0237 -0.7474
 1103SOL    HW1 4208   4.307   3.337   5.206 -0.2825 -0.4685  0.2129
 1103SOL    HW2 4209   4.195   3.427   5.129  0.6176 -1.1375 -1.9581
 1104SOL     OW 4210   1.226   5.037   2.817  0.0036 -0.5262  0.5574
 1104SOL    HW1 4211   1.274   5.028   2.904  1.3165 -0.7371 -0.1487
 1104SOL    HW2 4212   1.189   4.948   2.790 -0.0370 -0.5535  0.7051
 1105SOL     OW 4213   0.048   3.926   4.407  0.9582  0.1872 -0.1420
 1105SOL    HW1 4214   0.040   4.024   4.388 -0.0028  0.3880  1.1645
 1105SOL    HW2 4215   0.112   3.912   4.483 -1.2306  0.1250  1.8131
 1106SOL     OW 4216   6.567   2.822   5.552 -0.0010  0.0476 -0.7858
 1106SOL    HW1 4217   6.553   2.803   5.454  0.8507 -1.7947 -0.5760
 1106SOL    HW2 4218   6.569   2.737   5.603  1.4717  0.8627  0.6001
 1107SOL     OW 4219   1.223   6.725   0.727  0.1003  0.8249 -0.4651
 1107SOL    HW1 4220   1.172   6.683   0.652 -0.6271 -0.3094  0.6272
 1107SOL    HW2 4221   1.316   6.689   0.728  0.1446  0.9284 -0.8871
 1108SOL     OW 4222   4.088   6.500   6.766 -0.2368 -0.3759 -0.0755
 1108SOL    HW1 4223   4.185   6.482   6.776  0.1155  1.5734  0.6119
 1108SOL    HW2 4224   4.067   6.525   6.671  0.4337  1.5265  0.2298
 1109SOL     OW 4225   6.187   0.463   3.186 -0.1925  0.1626  0.4671
 1109SOL    HW1 4226   6.145   0.384   3.230  0.9702  0.6878  2.6689
 1109SOL    HW2 4227   6.263   0.496   3.242 -1.3381  3.5539  0.2643
 1110SOL     OW 4228   4.576   2.403   2.725  0.3220 -0.0872 -0.5742
 1110SOL    HW1 4229   4.602   2.309   2.747  0.4562  0.4268  1.7623
 1110SOL    HW2 4230   4.488   2.404   2.679 -0.2836 -1.3149  0.5060
 1111SOL     OW 4231   4.403   0.368   1.189 -0.0088  0.0107 -0.4038
 1111SOL    HW1 4232   4.377   0.286   1.241 -0.0649  0.5172  0.3729
 1111SOL    HW2 4233   4.326   0.432   1.188  0.5542  0.7060  0.2949
 1112SOL     OW 4234   6.784   6.472   1.877 -0.0497  0.8012 -0.8684
 1112SOL    HW1 4235   6.773   6.555   1.932 -0.0670  2.0159 -2.6211
 1112SOL    HW2 4236   6.879   6.464   1.847 -0.1036  0.3044 -0.9134
 1113SOL     OW 4237   6.859   4.023   4.067  0.3727 -0.1436  0.0566
 1113SOL    HW1 4238   6.841   4.006   3.970  0.9323  0.0730 -0.0877
 1113SOL    HW2 4239   6.843   4.119   4.087 -1.6626 -0.5401  0.6212
 1114SOL     OW 4240   4.144   0.553   4.483  0.1374 -0.1992  0.3605
 1114SOL    HW1 4241   4.054   0.578   4.518 -0.3527 -1.7683  0.2771
 1114SOL    HW2 4242   4.163   0.606   4.400 -0.5529  0.4000  0.5742
 1115SOL     OW 4243   4.498   3.978   5.438 -0.5631  0.7038 -0.3883
 1115SOL    HW1 4244   4.472   4.011   5.347  0.5650  0.0534 -0.9687
 1115SOL    HW2 4245   4.415   3.961   5.492 -1.4661 -1.8858 -2.3801
 1116SOL     OW 4246   4.436   6.758   6.168 -0.8997 -0.1013  0.3204
 1116SOL    HW1 4247   4.374   6.688   6.202  1.1782 -1.7328  0.9796
 1116SOL    HW2 4248   4.511   6.715   6.117  1.9789  1.2333  3.0580
 1117SOL     OW 4249   0.400   2.224   0.765 -0.0104 -0.0191  0.1571
 1117SOL    HW1 4250   0.486   2.275   0.768  0.4797 -0.8263  0.4504
 1117SOL    HW2 4251   0.359   2.223   0.856 -0.7785  1.0817 -0.1636
 1118SOL     OW 4252   2.663   3.931   0.986 -0.0334  0.1694  0.4326
 1118SOL    HW1 4253   2.565   3.914   1.000 -0.1115  1.0673  1.0816
 1118SOL    HW2 4254   2.706   3.848   0.952 -0.9636 -0.3342  0.4310
 1119SOL     OW 4255   3.735   5.009   0.843 -0.4229 -0.4971  0.5063
 1119SOL    HW1 4256   3.676   4.945   0.893  0.7388 -0.8134  1.5251
 1119SOL    HW2 4257   3.793   5.058   0.908  0.3429 -0.1043 -0.4580
 1120SOL     OW 4258   6.276   6.607   0.905  0.2827  0.3658  0.5025
 1120SOL    HW1 4259   6.275   6.567   0.814  0.3451 -1.1964  1.1601
 1120SOL    HW2 4260   6.234   6.698   0.902 -1.5132 -0.4431 -0.7256
 1121SOL     OW 4261   5.117   4.994   4.944  0.2122 -0.0967  0.1457
 1121SOL    HW1 4262   5.120   5.051   4.862 -4.2378  2.5983  1.5173
 1121SOL    HW2 4263   5.031   4.943   4.945  0.9807 -1.4694  2.3290
 1122SOL     OW 4264   5.610   2.244   1.939 -0.4487 -0.0932 -0.1860
 1122SOL    HW1 4265   5.592   2.167   2.000 -0.8221 -0.3259 -0.5864
 1122SOL    HW2 4266   5.606   2.213   1.844 -0.5007  0.3979 -0.3467
 1123SOL     OW 4267   5.210   3.712   3.923  0.2948  0.5014 -0.2282
 1123SOL    HW1 4268   5.139   3.698   3.855 -0.9757 -0.7364  1.2942
 1123SOL    HW2 4269   5.259   3.797   3.902 -2.2577  1.9473 -0.7847
 1124SOL     OW 4270   6.946   3.326   4.268  0.0815  0.4887 -0.4738
 1124SOL    HW1 4271   6.936   3.425   4.257  0.5965  0.6715  0.5788
 1124SOL    HW2 4272   7.030   3.307   4.319  0.7957 -0.5746 -1.9935
 1125SOL     OW 4273   1.945   1.828   5.071 -0.0504  0.6811  0.2109
 1125SOL    HW1 4274   1.943   1.754   5.004 -1.0229  0.6421  0.2773
 1125SOL    HW2 4275   1.926   1.792   5.162 -1.3704  1.1247  0.1262
 1126SOL     OW 4276   4.515   5.886   6.064  0.3463 -0.3116  0.0815
 1126SOL    HW1 4277   4.475   5.934   5.986  2.5400  0.7884 -0.4680
 1126SOL    HW2 4278   4.612   5.869   6.046  1.3452  1.3771  3.1496
 1127SOL     OW 4279   4.999   5.649   4.105  0.1772 -0.0190 -0.5288
 1127SOL    HW1 4280   5.043   5.706   4.035 -1.3481  1.3312 -0.4581
 1127SOL    HW2 4281   5.019   5.687   4.195  0.8981 -0.8830 -0.3069
 1128SOL     OW 4282   0.537   0.777   3.845 -0.2556  0.1544 -0.0533
 1128SOL    HW1 4283   0.524   0.779   3.944  0.6903  0.0660  0.0870
 1128SOL    HW2 4284   0.451   0.800   3.799 -0.6026  0.6032  0.7918
 1129SOL     OW 4285   2.426   0.979   6.842  0.4796  0.4129 -0.5201
 1129SOL    HW1 4286   2.511   1.014   6.804  0.5753  1.4209  0.5470
 1129SOL    HW2 4287   2.446   0.904   6.905  0.8708  2.1543  1.5457
 1130SOL     OW 4288   1.780   4.106   2.181 -0.3203 -0.5711 -0.1149
 1130SOL    HW1 4289   1.826   4.131   2.095  0.8922  0.2152  0.7275
 1130SOL    HW2 4290   1.829   4.147   2.258 -0.5596 -2.3870  1.0642
 1131SOL     OW 4291   0.343   0.752   6.425  0.1731  0.2734 -0.0981
 1131SOL    HW1 4292   0.440   0.770   6.438  0.2597  0.8514 -1.3951
 1131SOL    HW2 4293   0.290   0.820   6.475  0.3792 -0.9687  1.9117
 1132SOL     OW 4294   5.891   1.311   0.772  0.3386 -0.4502 -0.3420
 1132SOL    HW1 4295   5.822   1.277   0.708 -0.4049 -1.0837  0.7568
 1132SOL    HW2 4296   5.964   1.243   0.780  0.2184 -0.5634 -0.2013
 1133SOL     OW 4297   0.277   1.030   6.885 -0.1597  0.3787 -0.4885
 1133SOL    HW1 4298   0.347   1.097   6.908  1.1868 -0.8262 -0.9402
 1133SOL    HW2 4299   0.263   0.968   6.963  0.3621 -0.2742 -0.8970
 1134SOL     OW 4300   5.676   5.971   2.218  0.3778 -0.0774 -0.5260
 1134SOL    HW1 4301   5.737   6.049   2.207  0.0460 -0.0148 -2.2955
 1134SOL    HW2 4302   5.581   6.003   2.218  0.1994 -0.4819 -2.0666
 1135SOL     OW 4303   3.352   5.501   3.350 -0.0775 -0.2366  0.5950
 1135SOL    HW1 4304   3.395   5.454   3.273  2.6844  1.7888  0.7404
 1135SOL    HW2 4305   3.410   5.490   3.431 -0.3037  1.8099  1.0663
 1136SOL     OW 4306   2.174   6.284   1.870 -0.2421 -0.5665  0.0896
 1136SOL    HW1 4307   2.205   6.189   1.873 -2.0174 -1.1924 -0.2046
 1136SOL    HW2 4308   2.202   6.325   1.783  2.6001 -0.0146  1.1630
 1137SOL     OW 4309   2.443   6.150   1.483  0.3953  0.2545  0.6526
 1137SOL    HW1 4310   2.376   6.201   1.429  0.8063  1.2776  1.0901
 1137SOL    HW2 4311   2.475   6.207   1.559  0.5763 -0.8027  1.3835
 1138SOL     OW 4312   1.262   6.896   7.011  0.2102  0.0545  0.1371
 1138SOL    HW1 4313   1.231   6.824   6.948 -1.0607  0.6621  0.0226
 1138SOL    HW2 4314   1.330   6.953   6.966  1.0649 -0.9232  0.1505
 1139SOL     OW 4315   2.340   4.854   2.292 -0.1674  0.1706 -0.2291
 1139SOL    HW1 4316   2.328   4.863   2.391  0.8957 -0.3208 -0.0462
 1139SOL    HW2 4317   2.431   4.886   2.266  0.3126 -1.5752 -0.7822
 1140SOL     OW 4318   2.959   2.176   2.705  0.4884  0.9043  0.5900
 1140SOL    HW1 4319   2.868   2.218   2.714  0.0879  0.3036 -0.4614
 1140SOL    HW2 4320   3.008   2.219   2.630 -0.0272 -0.6267 -0.6819
 1141SOL     OW 4321   1.993   1.694   6.502 -0.7405 -0.2205 -0.6535
 1141SOL    HW1 4322   2.034   1.757   6.435  1.0555 -1.2252 -0.5653
 1141SOL    HW2 4323   2.062   1.666   6.568 -1.9986 -0.7929  0.4761
 1142SOL     OW 4324   4.120   0.303   4.217 -0.1433 -0.3325  0.3895
 1142SOL    HW1 4325   4.164   0.302   4.306  0.5478  0.3711  0.0712
 1142SOL    HW2 4326   4.171   0.363   4.155 -2.2316  1.5715  0.3624
 1143SOL     OW 4327   1.914   1.710   3.763 -0.7939 -0.0470 -0.1782
 1143SOL    HW1 4328   1.983   1.638   3.758 -2.2564 -1.5809  0.3954
 1143SOL    HW2 4329   1.927   1.775   3.688  1.1487 -0.3504 -0.1518
 1144SOL     OW 4330   5.830   4.951   3.495  0.0940 -0.1896 -0.0897
 1144SOL    HW1 4331   5.840   4.930   3.592  0.0892 -2.0921 -0.4613
 1144SOL    HW2 4332   5.898   4.900   3.442  0.4201  1.1961 -1.0646
 1145SOL     OW 4333   6.363   3.723   1.019  0.3845  0.5007 -0.1080
 1145SOL    HW1 4334   6.293   3.669   0.971 -0.9099 -0.0863  2.2653
 1145SOL    HW2 4335   6.342   3.724   1.117  2.5888  2.0884  0.4117
 1146SOL     OW 4336   6.715   0.009   2.985  0.3841  0.0180  0.1250
 1146SOL    HW1 4337   6.811  -0.009   2.963  0.4548 -0.5340  0.8611
 1146SOL    HW2 4338   6.665   0.026   2.900  1.2025  0.6926 -0.2375
 1147SOL     OW 4339   2.623   6.973   2.590 -0.3189 -0.3569 -0.3489
 1147SOL    HW1 4340   2.712   6.938   2.563 -0.2342 -0.3364 -0.0977
 1147SOL    HW2 4341   2.574   7.006   2.509  0.2122  0.3367 -0.3928
 1148SOL     OW 4342   5.248   0.141   6.857 -0.1078 -0.4176  0.0101
 1148SOL    HW1 4343   5.308   0.191   6.794  0.3949 -1.9499 -0.7838
 1148SOL    HW2 4344   5.160   0.125   6.814 -0.2473 -0.2760  0.2396
 1149SOL     OW 4345   6.542   4.355   3.028  0.0249 -0.3030 -0.5156
 1149SOL    HW1 4346   6.500   4.267   3.004 -0.8511 -0.3941  1.2015
 1149SOL    HW2 4347   6.508   4.385   3.117 -0.9363  2.6113 -1.7786
 1150SOL     OW 4348   0.088   4.836   0.603 -0.0601 -0.0293  0.0996
 1150SOL    HW1 4349   0.108   4.753   0.655 -1.1004  0.2688  1.0126
 1150SOL    HW2 4350   0.003   4.876   0.636  0.7042  1.7124  0.0498
 1151SOL     OW 4351   5.043   4.360   4.694  1.0948 -0.1325  0.4416
 1151SOL    HW1 4352   5.130   4.409   4.688  0.0354  2.0400  1.5972
 1151SOL    HW2 4353   5.023   4.341   4.790  0.1210 -0.2758  0.2198
 1152SOL     OW 4354   4.119   4.495   6.491 -0.1231  0.3757 -0.1953
 1152SOL    HW1 4355   4.097   4.413   6.543 -1.3496  1.1798  0.6231
 1152SOL    HW2 4356   4.151   4.470   6.400 -0.1804 -1.0066  0.1496
 1153SOL     OW 4357   6.952   1.662   3.483  0.0055  0.8007  0.6249
 1153SOL    HW1 4358   6.973   1.627   3.392 -2.4294  1.6012 -0.3298
 1153SOL    HW2 4359   7.008   1.743   3.501 -0.5044  1.5102 -0.8120
 1154SOL     OW 4360   0.700   6.653   1.958 -0.1673  0.0178  0.0306
 1154SOL    HW1 4361   0.668   6.735   1.911 -0.4245 -0.5864 -0.8897
 1154SOL    HW2 4362   0.742   6.591   1.891 -1.0845 -1.1386  0.4763
 1155SOL     OW 4363   3.620   5.822   0.074 -0.3568 -0.2046 -0.8162
 1155SOL    HW1 4364   3.675   5.791  -0.003 -0.5494 -1.7861 -0.3466
 1155SOL    HW2 4365   3.643   5.917   0.095  1.8376 -0.6676 -0.9253
 1156SOL     OW 4366   3.037   0.637   4.496  0.1673  0.7711  0.1353
 1156SOL    HW1 4367   2.953   0.674   4.455  0.0976  3.1653  2.1741
 1156SOL    HW2 4368   3.021   0.543   4.527 -1.3615  0.7559 -0.6122
 1157SOL     OW 4369   6.131   1.378   0.064 -1.0502 -0.2685  0.5073
 1157SOL    HW1 4370   6.193   1.454   0.084 -0.4858 -0.6624  0.2938
 1157SOL    HW2 4371   6.143   1.307   0.134  0.6632 -1.4909 -0.9331
 1158SOL     OW 4372   6.566   5.582   3.743  0.6698  0.0780  0.0031
 1158SOL    HW1 4373   6.503   5.616   3.814  1.1490 -0.0979  0.5219
 1158SOL    HW2 4374   6.658   5.575   3.782  0.7137 -1.1682 -0.2899
 1159SOL     OW 4375   1.224   6.002   4.260  0.3269 -0.2406 -0.5004
 1159SOL    HW1 4376   1.259   5.961   4.344  0.1227 -2.5273 -1.4745
 1159SOL    HW2 4377   1.285   6.076   4.231  0.4448  0.5385  1.5764
 1160SOL     OW 4378   6.167   4.447   5.621 -0.1420 -0.0203 -0.1653
 1160SOL    HW1 4379   6.087   4.388   5.613 -0.4400  0.5324 -1.6290
 1160SOL    HW2 4380   6.177   4.502   5.537  0.2418  1.8421  1.0351
 1161SOL     OW 4381   6.061   5.319   4.352  0.4930  0.1700  0.1586
 1161SOL    HW1 4382   6.068   5.219   4.347 -0.4008  0.1416 -1.0214
 1161SOL    HW2 4383   5.977   5.344   4.401  1.6124  0.3857  2.0650
 1162SOL     OW 4384   4.355   1.547   6.391 -0.1153 -0.4270  0.0904
 1162SOL    HW1 4385   4.276   1.577   6.444 -1.2774 -1.1048 -1.1791
 1162SOL    HW2 4386   4.408   1.481   6.444 -1.6192 -1.5974  0.2073
 1163SOL     OW 4387   0.541   5.700   0.915 -0.0795 -0.3069  0.0945
 1163SOL    HW1 4388   0.466   5.652   0.961 -2.1084  1.5431 -1.0883
 1163SOL    HW2 4389   0.559   5.787   0.962 -0.1391  0.2328 -0.8556
 1164SOL     OW 4390   4.751   1.431   4.378  0.0156  0.0812 -0.1976
 1164SOL    HW1 4391   4.742   1.523   4.417  1.6715 -0.0475  0.6094
 1164SOL    HW2 4392   4.812   1.377   4.436 -1.1544 -1.6409 -0.5045
 1165SOL     OW 4393   2.398   5.861   4.593 -1.0472  0.0020  0.3103
 1165SOL    HW1 4394   2.346   5.789   4.639 -2.1846  1.0269  0.6702
 1165SOL    HW2 4395   2.421   5.933   4.658 -0.5553  0.3100 -0.1961
 1166SOL     OW 4396   2.402   5.600   0.747  0.0132  0.6280 -0.2150
 1166SOL    HW1 4397   2.395   5.502   0.770 -0.0161  0.9615  1.2916
 1166SOL    HW2 4398   2.388   5.654   0.829  1.0815  1.8973 -0.8394
 1167SOL     OW 4399   3.673   0.801   1.913  0.1265 -0.2242 -0.3974
 1167SOL    HW1 4400   3.610   0.797   1.835 -1.9423  0.7099  1.1494
 1167SOL    HW2 4401   3.694   0.897   1.933 -1.3861 -0.2658  1.6763
 1168SOL     OW 4402   5.525   3.701   1.440  0.2356 -0.1561  0.6683
 1168SOL    HW1 4403   5.527   3.792   1.396 -1.3355 -0.2351  0.3808
 1168SOL    HW2 4404   5.485   3.709   1.531 -1.6792 -0.8105 -0.0745
 1169SOL     OW 4405   3.853   3.133   5.851  0.1910  0.6058 -0.0538
 1169SOL    HW1 4406   3.939   3.180   5.868  0.5997  0.4247 -1.5165
 1169SOL    HW2 4407   3.848   3.105   5.755 -1.1231 -0.1475  0.2058
 1170SOL     OW 4408   5.602   0.972   3.061  0.7043 -0.3203 -0.5014
 1170SOL    HW1 4409   5.593   0.877   3.091  0.9420  0.2238  1.3945
 1170SOL    HW2 4410   5.698   1.001   3.068  0.3299  0.6761  1.0307
 1171SOL     OW 4411   2.834   6.628   2.248  0.2684  0.0478  0.2548
 1171SOL    HW1 4412   2.755   6.600   2.193 -0.5621 -0.3244  1.5826
 1171SOL    HW2 4413   2.911   6.647   2.188 -0.7248  0.0884 -1.0605
 1172SOL     OW 4414   2.992   3.795   1.237  0.3706  0.1150  0.1580
 1172SOL    HW1 4415   2.903   3.755   1.258  0.0633  0.5656 -0.2499
 1172SOL    HW2 4416   3.010   3.870   1.301  0.5657 -0.1272  0.3893
 1173SOL     OW 4417   3.518   0.739   1.714 -0.6876  0.5303  0.1036
 1173SOL    HW1 4418   3.435   0.787   1.684 -0.6006 -0.5029 -1.9366
 1173SOL    HW2 4419   3.515   0.644   1.683  1.4999  0.6034 -0.4999
 1174SOL     OW 4420   2.146   4.867   1.444 -0.0816  0.1819  0.0566
 1174SOL    HW1 4421   2.240   4.843   1.418 -0.3372 -0.2046 -0.5494
 1174SOL    HW2 4422   2.115   4.807   1.518  0.9745  1.8915  1.9768
 1175SOL     OW 4423   3.298   3.893   5.382  0.4131 -0.4464  0.4152
 1175SOL    HW1 4424   3.361   3.950   5.435  0.0329  0.6915 -0.3034
 1175SOL    HW2 4425   3.322   3.797   5.393  1.8173 -0.0806  0.7338
 1176SOL     OW 4426   5.654   3.012   6.914 -0.3639  0.0745  0.0140
 1176SOL    HW1 4427   5.712   3.040   6.991  1.8432 -2.0618 -0.7436
 1176SOL    HW2 4428   5.584   2.949   6.946  0.3198 -0.5271  0.3624
 1177SOL     OW 4429   2.483   4.869   4.979 -0.6956 -0.8267 -0.2527
 1177SOL    HW1 4430   2.560   4.812   4.950  1.4508  2.0164 -0.6205
 1177SOL    HW2 4431   2.468   4.857   5.077  2.1703  0.5402  0.4598
 1178SOL     OW 4432   1.317   3.066   0.684 -0.1477  0.3133 -0.2183
 1178SOL    HW1 4433   1.372   2.987   0.712  1.0078  0.7523 -1.1953
 1178SOL    HW2 4434   1.377   3.143   0.665 -1.2970  1.6727  1.3679
 1179SOL     OW 4435   2.434   5.047   3.508 -0.3963 -0.0153  0.3882
 1179SOL    HW1 4436   2.532   5.053   3.488 -0.6602  3.9482 -0.6643
 1179SOL    HW2 4437   2.388   4.997   3.434  0.7212 -1.3565  0.5630
 1180SOL     OW 4438   1.894   4.976   5.845  0.3195  0.0413 -0.4564
 1180SOL    HW1 4439   1.953   4.932   5.777  0.4784  0.6952 -0.7462
 1180SOL    HW2 4440   1.939   4.974   5.935  0.4022 -0.2286 -0.5031
 1181SOL     OW 4441   6.948   4.139   3.464 -0.2569  0.4718 -0.0391
 1181SOL    HW1 4442   6.994   4.222   3.434  1.2528 -0.2045  0.2748
 1181SOL    HW2 4443   6.885   4.107   3.393  1.4524  0.2117 -1.5081
 1182SOL     OW 4444   5.030   6.560   2.555 -0.7098 -0.1086  0.3537
 1182SOL    HW1 4445   4.988   6.604   2.476  0.2089 -1.4152 -0.8984
 1182SOL    HW2 4446   5.126   6.542   2.537 -0.2204  0.4264  2.1588
 1183SOL     OW 4447   3.861   2.753   0.863  0.0352 -0.4666 -0.3287
 1183SOL    HW1 4448   3.844   2.728   0.958 -0.3110 -0.9656 -0.5164
 1183SOL    HW2 4449   3.799   2.702   0.804 -2.0047  2.1342 -0.6331
 1184SOL     OW 4450   0.588   0.975   5.258 -0.3524  0.3536  0.0568
 1184SOL    HW1 4451   0.606   0.900   5.195  0.3257 -0.7000  1.4399
 1184SOL    HW2 4452   0.672   1.029   5.271 -0.6088  0.8408 -0.2734
 1185SOL     OW 4453   3.347   2.142   1.455  0.1625  0.4380  0.1973
 1185SOL    HW1 4454   3.436   2.096   1.452  0.7043  1.0503  3.1737
 1185SOL    HW2 4455   3.275   2.074   1.441  1.0521 -0.3357 -0.8052
 1186SOL     OW 4456   4.645   6.272   3.748 -0.4879 -0.3842  0.3135
 1186SOL    HW1 4457   4.612   6.242   3.658 -1.3927 -1.7520  1.0628
 1186SOL    HW2 4458   4.648   6.372   3.751 -0.3977 -0.3237 -1.2487
 1187SOL     OW 4459   5.070   6.586   3.242  0.6453  0.1358  0.1947
 1187SOL    HW1 4460   5.094   6.681   3.262  0.9637 -0.0683  0.8086
 1187SOL    HW2 4461   5.075   6.571   3.143 -0.5001  1.0424 -0.0364
 1188SOL     OW 4462   3.135   5.505   6.034 -0.5253  0.2012 -0.5644
 1188SOL    HW1 4463   3.136   5.456   5.947  2.5125  1.6655 -1.4794
 1188SOL    HW2 4464   3.106   5.599   6.020 -0.3502  0.3562  0.0590
 1189SOL     OW 4465   6.608   3.972   1.808 -1.2166 -0.1910 -0.3746
 1189SOL    HW1 4466   6.661   3.891   1.783 -0.7069 -0.2425  0.8255
 1189SOL    HW2 4467   6.641   4.051   1.756  1.5867  0.2522  1.8553
 1190SOL     OW 4468   4.054   4.942   1.638  0.1269  0.3170  0.0884
 1190SOL    HW1 4469   4.136   4.890   1.662  0.1797  1.7379  3.7472
 1190SOL    HW2 4470   3.975   4.899   1.682 -0.5140  0.9585 -0.4303
 1191SOL     OW 4471   2.147   5.565   5.080 -0.0773 -0.5950  0.1881
 1191SOL    HW1 4472   2.118   5.470   5.066  2.1274 -1.1791 -0.8224
 1191SOL    HW2 4473   2.217   5.589   5.013  1.9992  0.5831  2.6258
 1192SOL     OW 4474   5.950   4.423   3.263  0.1423 -0.4018 -0.1552
 1192SOL    HW1 4475   5.993   4.354   3.322  0.9434 -0.7711 -1.1425
 1192SOL    HW2 4476   6.019   4.464   3.204 -0.3147  1.3152  0.4439
 1193SOL     OW 4477   0.574   3.545   6.568 -0.2308 -0.3756 -0.5043
 1193SOL    HW1 4478   0.650   3.480   6.571 -1.1345 -1.4228  0.3288
 1193SOL    HW2 4479   0.489   3.496   6.549 -0.9601  0.5312  0.3362
 1194SOL     OW 4480   0.144   1.737   1.409  0.3546 -0.0699 -0.1638
 1194SOL    HW1 4481   0.137   1.672   1.332 -0.8124  1.2922 -1.2603
 1194SOL    HW2 4482   0.066   1.724   1.470  0.0244  0.3791 -0.4781
 1195SOL     OW 4483   6.051   5.274   6.518  0.0453 -0.0794  0.4931
 1195SOL    HW1 4484   6.149   5.277   6.540  0.4773 -0.1717 -1.3092
 1195SOL    HW2 4485   6.022   5.179   6.513  0.4211 -0.1301 -1.1978
 1196SOL     OW 4486   6.288   3.771   4.128 -0.1496  0.5739  0.0965
 1196SOL    HW1 4487   6.326   3.853   4.170  1.0587  0.5647 -0.9222
 1196SOL    HW2 4488   6.350   3.694   4.144 -0.3009  0.2995 -0.6027
 1197SOL     OW 4489   6.705   5.653   4.048  0.0360  0.1119 -0.3408
 1197SOL    HW1 4490   6.667   5.610   4.130 -0.0728 -2.9034 -1.8542
 1197SOL    HW2 4491   6.795   5.692   4.069  0.6704 -1.9067  0.9027
 1198SOL     OW 4492   6.891   4.776   3.602 -0.2357 -0.1235  0.0607
 1198SOL    HW1 4493   6.932   4.738   3.519 -2.3156  0.5747 -1.3551
 1198SOL    HW2 4494   6.883   4.705   3.671 -0.4875 -1.2894 -1.1280
 1199SOL     OW 4495   3.038   3.124   2.439 -0.7020 -0.4067 -0.2381
 1199SOL    HW1 4496   2.961   3.162   2.386 -0.2808  0.7420 -0.0451
 1199SOL    HW2 4497   3.003   3.081   2.522 -1.1738 -0.1907 -0.3189
 1200SOL     OW 4498   3.313   2.905   3.269 -0.4066  0.2595 -0.4606
 1200SOL    HW1 4499   3.395   2.952   3.238 -0.6433  0.4386 -0.8211
 1200SOL    HW2 4500   3.232   2.959   3.245 -0.7452 -0.7588 -1.6921
 1201SOL     OW 4501   2.088   2.225   5.141 -0.3782  0.2804 -0.2466
 1201SOL    HW1 4502   2.121   2.318   5.158  0.5920 -0.2554  1.0031
 1201SOL    HW2 4503   2.148   2.179   5.076  1.1140 -0.5089  1.6025
 1202SOL     OW 4504   5.665   6.025   4.873  0.2520  0.1023  0.2007
 1202SOL    HW1 4505   5.736   5.988   4.812  1.7832  2.1752  0.6148
 1202SOL    HW2 4506   5.582   5.971   4.863  1.4938 -1.7051 -1.2013
 1203SOL     OW 4507   0.747   6.589   0.265 -0.5848  0.2513 -0.2065
 1203SOL    HW1 4508   0.754   6.610   0.363 -0.9014  1.2297 -0.3811
 1203SOL    HW2 4509   0.653   6.564   0.244 -0.7742  1.1245 -0.4485
 1204SOL     OW 4510   0.588   1.278   2.747 -0.5053 -1.0320  0.2507
 1204SOL    HW1 4511   0.585   1.240   2.839  0.1561 -1.9434 -0.0939
 1204SOL    HW2 4512   0.499   1.265   2.702 -0.9702 -0.1881  0.8984
 1205SOL     OW 4513   4.206   4.810   0.196 -0.2759 -0.3287 -0.3573
 1205SOL    HW1 4514   4.131   4.781   0.255  0.3012  1.5073  1.3764
 1205SOL    HW2 4515   4.286   4.832   0.252 -0.1334  2.8575 -1.5996
 1206SOL     OW 4516   2.889   3.158   5.820  0.0245  0.0550 -1.0365
 1206SOL    HW1 4517   2.986   3.142   5.834 -0.1894 -1.9256 -1.5707
 1206SOL    HW2 4518   2.870   3.169   5.722 -0.1635  1.5587 -0.8554
 1207SOL     OW 4519   2.884   6.979   1.227 -0.4388  0.2203  0.9539
 1207SOL    HW1 4520   2.838   7.031   1.155  0.7373  1.3146  0.9553
 1207SOL    HW2 4521   2.821   6.911   1.265 -0.3208 -2.5048 -3.0927
 1208SOL     OW 4522   2.799   4.894   6.857 -0.6237 -0.4316 -0.1044
 1208SOL    HW1 4523   2.726   4.956   6.888 -0.9776 -1.6692  1.6774
 1208SOL    HW2 4524   2.773   4.855   6.769 -0.6882  1.4101 -0.9571
 1209SOL     OW 4525   5.631   0.876   4.924  0.4352  0.0980 -0.3131
 1209SOL    HW1 4526   5.676   0.799   4.879 -1.0466 -0.4003 -1.0322
 1209SOL    HW2 4527   5.617   0.856   5.021  0.5123 -0.3228 -0.3898
 1210SOL     OW 4528   6.252   0.110   3.380  0.4559 -0.1776  0.7158
 1210SOL    HW1 4529   6.291   0.119   3.288 -2.8658  2.2216 -0.6290
 1210SOL    HW2 4530   6.159   0.074   3.374 -0.3306  1.2636  3.0098
 1211SOL     OW 4531   0.711   3.102   3.978 -0.4852 -0.1005  0.4307
 1211SOL    HW1 4532   0.734   3.007   4.000  1.3180  0.0748 -0.5145
 1211SOL    HW2 4533   0.787   3.144   3.929 -0.4188  2.4397  2.5004
 1212SOL     OW 4534   1.194   0.454   5.479 -0.7944  0.7713 -0.1962
 1212SOL    HW1 4535   1.157   0.547   5.490 -0.3219  0.9228  0.1290
 1212SOL    HW2 4536   1.143   0.407   5.407 -0.3327  1.6614 -1.1439
 1213SOL     OW 4537   5.177   3.167   0.858  0.6653  0.0431 -0.1819
 1213SOL    HW1 4538   5.086   3.207   0.873 -0.0952 -1.4933 -0.5329
 1213SOL    HW2 4539   5.246   3.226   0.901 -0.6043  0.5667  1.2681
 1214SOL     OW 4540   4.459   4.459   0.121 -0.2368 -0.6167  0.2152
 1214SOL    HW1 4541   4.402   4.430   0.197 -0.5444  0.8725  0.5950
 1214SOL    HW2 4542   4.402   4.491   0.045 -0.0019  1.7548  0.9454
 1215SOL     OW 4543   0.122   3.961   3.004  0.3393  0.6284  0.5775
 1215SOL    HW1 4544   0.157   3.944   2.912 -1.6573 -1.7173  0.1408
 1215SOL    HW2 4545   0.046   4.025   3.000 -3.3783 -3.3249 -0.4725
 1216SOL     OW 4546   5.659   4.952   1.058  0.5418 -0.7647  0.2197
 1216SOL    HW1 4547   5.668   4.905   0.970 -1.6376 -0.2207 -0.3406
 1216SOL    HW2 4548   5.605   4.896   1.121  0.8916 -0.5230  0.7491
 1217SOL     OW 4549   0.460   4.273   0.697 -0.0729 -0.7507  1.0574
 1217SOL    HW1 4550   0.393   4.218   0.747 -0.3170 -3.1422 -1.6585
 1217SOL    HW2 4551   0.537   4.215   0.670  0.4394  0.5993 -0.5576
 1218SOL     OW 4552   6.807   3.266   5.157  0.8583  0.0329 -0.3712
 1218SOL    HW1 4553   6.890   3.212   5.146  2.1582  2.1514 -1.5758
 1218SOL    HW2 4554   6.772   3.256   5.250 -0.3813 -4.6684 -1.0962
 1219SOL     OW 4555   4.644   6.301   1.703  0.0593  0.0656 -0.3128
 1219SOL    HW1 4556   4.569   6.257   1.653  0.4557 -1.9374  0.7707
 1219SOL    HW2 4557   4.685   6.235   1.766  0.1904  2.2107  1.9861
 1220SOL     OW 4558   1.087   5.899   5.037  0.1065 -0.5166 -0.7158
 1220SOL    HW1 4559   1.070   5.948   5.123  1.5051 -0.3749 -0.4968
 1220SOL    HW2 4560   1.017   5.923   4.970 -1.3049 -1.0005  0.5319
 1221SOL     OW 4561   3.953   5.403   6.893 -0.0116 -0.4172 -0.3585
 1221SOL    HW1 4562   3.860   5.387   6.926 -0.2787 -0.6080 -1.1805
 1221SOL    HW2 4563   3.972   5.502   6.896 -0.3779 -0.3389 -0.5384
 1222SOL     OW 4564   6.583   6.239   5.926 -0.3963  0.4153  0.3793
 1222SOL    HW1 4565   6.548   6.191   5.846 -0.5314 -1.0532  1.2853
 1222SOL    HW2 4566   6.516   6.308   5.955 -1.3615 -0.5583  0.5239
 1223SOL     OW 4567   4.705   0.710   0.500 -0.6523  0.0019 -0.3776
 1223SOL    HW1 4568   4.655   0.774   0.442 -1.9062 -0.7093 -0.1174
 1223SOL    HW2 4569   4.741   0.758   0.579 -1.1774  0.4819 -0.4238
 1224SOL     OW 4570   2.847   4.735   0.067  0.0267  0.2992 -0.6746
 1224SOL    HW1 4571   2.945   4.756   0.057 -0.0176  1.5819  1.0860
 1224SOL    HW2 4572   2.795   4.790   0.001  0.3921  0.8549 -0.5108
 1225SOL     OW 4573   4.167   0.763   1.093 -0.3291 -0.4507 -0.0571
 1225SOL    HW1 4574   4.266   0.766   1.079 -0.3794 -1.0654 -0.6092
 1225SOL    HW2 4575   4.140   0.671   1.120 -0.7611 -0.3136 -0.0209
 1226SOL     OW 4576   2.233   6.417   1.635  0.0477 -0.7426 -0.8408
 1226SOL    HW1 4577   2.332   6.401   1.631  0.5774  1.7271  0.4056
 1226SOL    HW2 4578   2.212   6.504   1.590 -1.4714 -0.9386 -0.5368
 1227SOL     OW 4579   6.808   2.916   5.556 -0.4598  0.4176 -0.0284
 1227SOL    HW1 4580   6.712   2.887   5.562 -0.0636 -0.8092  0.6952
 1227SOL    HW2 4581   6.867   2.835   5.550  0.5352  1.1619 -0.5083
 1228SOL     OW 4582   3.586   1.315   6.722 -0.0894  0.4461 -0.2628
 1228SOL    HW1 4583   3.535   1.301   6.638 -1.4920  0.6787  0.5164
 1228SOL    HW2 4584   3.646   1.394   6.713  2.5649 -1.6183 -2.2651
 1229SOL     OW 4585   3.524   6.679   0.443 -0.3357 -0.1336 -0.2472
 1229SOL    HW1 4586   3.568   6.670   0.533 -0.9059 -1.8872 -0.1092
 1229SOL    HW2 4587   3.427   6.702   0.455 -0.6495 -1.3594 -0.3651
 1230SOL     OW 4588   5.396   6.218   3.477 -0.8233 -0.2733 -0.2665
 1230SOL    HW1 4589   5.478   6.260   3.438 -2.1829  1.6089 -1.3015
 1230SOL    HW2 4590   5.422   6.141   3.536  1.7887  1.4385  1.0186
 1231SOL     OW 4591   0.574   3.000   4.514 -0.0924  0.3753  0.0928
 1231SOL    HW1 4592   0.523   2.988   4.429 -0.8543 -0.0577  0.6053
 1231SOL    HW2 4593   0.531   2.947   4.587  0.1290  1.3306  0.9274
 1232SOL     OW 4594   1.232   0.960   6.068  0.3437  0.2150  0.4087
 1232SOL    HW1 4595   1.272   0.994   6.154  0.8592  0.8513 -0.0701
 1232SOL    HW2 4596   1.223   0.860   6.072  0.0622  0.2724  1.3254
 1233SOL     OW 4597   6.927   5.726   5.270  0.3839  0.1789 -0.1643
 1233SOL    HW1 4598   6.830   5.713   5.252  0.5510 -0.8396 -0.3713
 1233SOL    HW2 4599   6.975   5.747   5.185  0.4872 -0.2768 -0.2232
 1234SOL     OW 4600   6.595   2.279   6.100  0.1863 -1.2792  0.4095
 1234SOL    HW1 4601   6.579   2.211   6.029 -1.0711  0.8616 -1.4626
 1234SOL    HW2 4602   6.649   2.355   6.063  0.3539 -0.5432  2.0329
 1235SOL     OW 4603   6.174   5.521   2.385 -0.7144  0.2995 -0.0787
 1235SOL    HW1 4604   6.251   5.575   2.353  0.5511 -0.6955  1.1298
 1235SOL    HW2 4605   6.169   5.435   2.334 -1.0410  0.3810 -0.1842
 1236SOL     OW 4606   4.345   1.117   1.595 -0.5884 -0.0251 -0.0872
 1236SOL    HW1 4607   4.369   1.181   1.667 -0.7844 -0.0195 -0.0256
 1236SOL    HW2 4608   4.388   1.029   1.613 -1.1792 -0.2215  0.3983
 1237SOL     OW 4609   4.146   2.944   5.607  0.2935  0.1469  0.0843
 1237SOL    HW1 4610   4.182   2.907   5.693  1.4071 -0.6679 -0.7008
 1237SOL    HW2 4611   4.060   2.992   5.625  0.5372  0.0629  1.6579
 1238SOL     OW 4612   2.427   0.603   1.333 -0.5206  0.4347 -0.6047
 1238SOL    HW1 4613   2.412   0.525   1.394 -1.1708  2.5363  2.1597
 1238SOL    HW2 4614   2.388   0.584   1.243 -1.2221 -2.1129  0.1540
 1239SOL     OW 4615   5.842   1.183   4.808 -0.0629  0.1694 -0.1793
 1239SOL    HW1 4616   5.812   1.171   4.714 -1.6296 -0.8521  0.4163
 1239SOL    HW2 4617   5.871   1.094   4.846  1.0865  0.6575  0.1514
 1240SOL     OW 4618   0.262   6.288   1.607  0.4606 -0.2173  0.3365
 1240SOL    HW1 4619   0.207   6.293   1.524 -0.7416  0.3840  1.1347
 1240SOL    HW2 4620   0.307   6.199   1.612  0.8265 -0.1414 -1.1032
 1241SOL     OW 4621   5.271   3.087   6.585 -0.0635  0.1344 -0.0660
 1241SOL    HW1 4622   5.201   3.139   6.536 -0.3223 -0.7765 -0.6923
 1241SOL    HW2 4623   5.320   3.028   6.520 -0.8068 -1.5546  0.8460
 1242SOL     OW 4624   0.634   4.113   0.595 -0.1232 -0.0437 -0.6629
 1242SOL    HW1 4625   0.672   4.110   0.503 -0.0594  0.3462 -0.6512
 1242SOL    HW2 4626   0.705   4.091   0.662  0.3002  1.4267 -0.5860
 1243SOL     OW 4627   0.424   6.923   2.826  0.1064  0.0120 -0.0478
 1243SOL    HW1 4628   0.329   6.930   2.796  0.1966 -0.1022 -0.3652
 1243SOL    HW2 4629   0.464   7.014   2.832  0.0581  0.0420 -0.1810
 1244SOL     OW 4630   6.344   6.636   5.558  0.5689 -0.4236 -0.0769
 1244SOL    HW1 4631   6.320   6.539   5.559  0.8004 -0.4779  0.2930
 1244SOL    HW2 4632   6.273   6.687   5.509  1.2922 -0.9928 -1.7790
 1245SOL     OW 4633   3.426   4.516   6.353 -0.8398 -0.7258  0.0252
 1245SOL    HW1 4634   3.441   4.528   6.255  0.2517  0.0446  0.2757
 1245SOL    HW2 4635   3.513   4.497   6.399 -1.0824  0.5024  1.0571
 1246SOL     OW 4636   4.372   5.487   0.637 -0.2338 -0.4000  0.0404
 1246SOL    HW1 4637   4.378   5.431   0.719 -0.3850  1.5460  1.4215
 1246SOL    HW2 4638   4.324   5.572   0.657 -0.5279  0.0105 -2.1469
 1247SOL     OW 4639   2.874   0.639   5.752 -0.0879  0.1178 -0.4688
 1247SOL    HW1 4640   2.788   0.646   5.702 -0.5868 -2.1107 -0.0405
 1247SOL    HW2 4641   2.936   0.579   5.702 -0.3492 -1.6219  1.1869
 1248SOL     OW 4642   3.046   0.411   3.228  0.3191 -0.1510  0.5501
 1248SOL    HW1 4643   3.022   0.359   3.146  1.6923  1.7115 -1.1346
 1248SOL    HW2 4644   3.080   0.348   3.298  1.6676 -1.6148 -1.2969
 1249SOL     OW 4645   1.229   5.129   3.421  0.6213 -0.1299  0.1903
 1249SOL    HW1 4646   1.295   5.054   3.420  1.3032  0.4441  0.7265
 1249SOL    HW2 4647   1.145   5.099   3.466  1.0762 -0.4207  0.8598
 1250SOL     OW 4648   6.242   6.719   3.478 -0.1333 -0.1364 -0.1491
 1250SOL    HW1 4649   6.249   6.700   3.380 -2.1523  1.8530 -0.7793
 1250SOL    HW2 4650   6.254   6.817   3.494  0.4411 -0.4559  1.6574
 1251SOL     OW 4651   2.361   6.549   3.474 -0.2571  0.5049 -0.6904
 1251SOL    HW1 4652   2.363   6.614   3.399 -0.7825  1.0370 -0.2572
 1251SOL    HW2 4653   2.300   6.583   3.546  0.2470  0.0204 -0.0157
 1252SOL     OW 4654   6.663   4.082   6.724 -0.0682 -0.5845 -0.2701
 1252SOL    HW1 4655   6.760   4.063   6.716  0.2313  0.3513  0.8662
 1252SOL    HW2 4656   6.634   4.139   6.647  0.2116 -1.0801 -0.7515
 1253SOL     OW 4657   2.857   5.112   3.849 -0.0943  0.3613 -0.5669
 1253SOL    HW1 4658   2.892   5.183   3.789 -1.8662  1.1474 -0.7470
 1253SOL    HW2 4659   2.931   5.077   3.906  1.0143  1.6828 -1.1318
 1254SOL     OW 4660   6.699   3.375   2.977  0.1913  0.2244  0.6005
 1254SOL    HW1 4661   6.695   3.441   3.053  0.8279 -0.0696  0.8958
 1254SOL    HW2 4662   6.782   3.320   2.986  0.9361  1.0237 -1.0094
 1255SOL     OW 4663   6.064   3.097   5.493  0.3583 -0.5845 -0.1266
 1255SOL    HW1 4664   6.074   3.197   5.499 -0.4829 -0.5273  0.6004
 1255SOL    HW2 4665   6.152   3.054   5.508  0.4440  0.0114  1.2669
 1256SOL     OW 4666   1.331   5.614   4.650  0.3018  0.3436  0.7089
 1256SOL    HW1 4667   1.355   5.689   4.589  0.4903 -0.9926 -0.9343
 1256SOL    HW2 4668   1.413   5.580   4.694  0.7749 -0.9736 -1.0717
 1257SOL     OW 4669   6.021   5.886   5.515 -0.1954  0.2325  0.0044
 1257SOL    HW1 4670   6.000   5.788   5.516 -0.5065  0.3004  0.7215
 1257SOL    HW2 4671   5.975   5.930   5.439  1.2593 -0.4534 -1.3380
 1258SOL     OW 4672   6.803   3.597   3.135  0.0916  0.0674 -0.1238
 1258SOL    HW1 4673   6.816   3.641   3.224  0.4817 -0.7390  0.2218
 1258SOL    HW2 4674   6.869   3.634   3.070 -0.0569  0.5065 -0.0338
 1259SOL     OW 4675   3.644   6.886   4.938 -1.0022 -0.7842 -0.1417
 1259SOL    HW1 4676   3.579   6.887   4.862  0.3150  0.4368 -1.3179
 1259SOL    HW2 4677   3.636   6.970   4.991  0.3451 -0.0887 -0.9869
 1260SOL     OW 4678   0.462   2.290   1.241 -0.0183 -0.4757 -0.1528
 1260SOL    HW1 4679   0.418   2.380   1.241 -0.1459 -0.5283 -0.7726
 1260SOL    HW2 4680   0.456   2.250   1.332  1.1576  0.6689  0.4451
 1261SOL     OW 4681   6.881   6.612   6.100  0.1632 -0.0190  0.6411
 1261SOL    HW1 4682   6.971   6.629   6.140  0.3039 -0.9422  0.7287
 1261SOL    HW2 4683   6.877   6.519   6.062 -0.9020 -0.1592  1.0513
 1262SOL     OW 4684   4.340   4.787   1.090  0.1757  0.0401  0.5498
 1262SOL    HW1 4685   4.422   4.809   1.142 -0.5525  0.1222  1.7047
 1262SOL    HW2 4686   4.300   4.871   1.054  0.8519 -0.0473 -0.4213
 1263SOL     OW 4687   6.936   2.349   2.832 -0.0297  0.5657 -0.0920
 1263SOL    HW1 4688   6.897   2.380   2.745 -0.2382 -0.1830 -0.2700
 1263SOL    HW2 4689   6.891   2.264   2.860  1.3165 -0.2049 -0.1980
 1264SOL     OW 4690   4.988   3.376   0.269  0.2916  0.5102 -0.0954
 1264SOL    HW1 4691   4.979   3.444   0.341 -0.4244 -1.2537  1.5869
 1264SOL    HW2 4692   4.962   3.416   0.181  0.1065  2.4235  0.7930
 1265SOL     OW 4693   4.588   6.715   5.278 -0.0799 -0.3129 -0.4115
 1265SOL    HW1 4694   4.620   6.748   5.366  1.1324 -2.8959  0.2112
 1265SOL    HW2 4695   4.496   6.676   5.288  0.1972 -0.9245 -0.1709
 1266SOL     OW 4696   1.728   1.469   4.448  0.1113 -0.3926 -0.1575
 1266SOL    HW1 4697   1.700   1.380   4.485 -0.8936  0.3068  0.8562
 1266SOL    HW2 4698   1.827   1.469   4.433  0.0400 -1.9071 -0.8565
 1267SOL     OW 4699   4.924   0.995   2.201 -1.0429  0.3621 -0.1024
 1267SOL    HW1 4700   4.968   1.001   2.111  1.6375 -0.3489  1.0414
 1267SOL    HW2 4701   4.930   0.901   2.235 -0.1163  0.9841  1.6287
 1268SOL     OW 4702   4.007   2.063   0.366  0.2918  0.4935 -0.3858
 1268SOL    HW1 4703   3.960   1.977   0.381 -2.4871  2.1307  1.1008
 1268SOL    HW2 4704   4.048   2.095   0.451  1.8513  0.3903 -1.0614
 1269SOL     OW 4705   4.839   3.071   3.233 -0.2819  0.6768  0.1088
 1269SOL    HW1 4706   4.883   3.067   3.144  2.8041  0.9389  1.4977
 1269SOL    HW2 4707   4.771   2.997   3.240  0.3619 -0.1771 -1.9418
 1270SOL     OW 4708   0.464   3.822   3.562  0.0826 -0.0685 -0.3359
 1270SOL    HW1 4709   0.561   3.800   3.560 -0.3286 -2.0495 -1.3484
 1270SOL    HW2 4710   0.426   3.815   3.470 -1.0421  0.5705  0.0546
 1271SOL     OW 4711   4.315   1.628   2.095 -0.6550 -0.7570 -0.4078
 1271SOL    HW1 4712   4.406   1.651   2.131 -1.3719 -0.1737  1.0874
 1271SOL    HW2 4713   4.254   1.706   2.105 -1.4511 -1.2874 -1.0200
 1272SOL     OW 4714   5.853   2.609   6.033  0.6227  0.6945 -0.3418
 1272SOL    HW1 4715   5.896   2.649   6.114  0.6604  0.5858 -0.3083
 1272SOL    HW2 4716   5.765   2.570   6.058  2.5354 -3.5497  0.7097
 1273SOL     OW 4717   1.032   4.647   6.325 -0.4985  0.2758 -0.4066
 1273SOL    HW1 4718   0.971   4.638   6.404 -1.1766  0.8911 -0.8495
 1273SOL    HW2 4719   0.997   4.592   6.250 -0.2449  0.2534 -0.5066
 1274SOL     OW 4720   6.242   4.328   0.677  0.0853  0.2044  0.0207
 1274SOL    HW1 4721   6.153   4.307   0.717 -1.5946 -0.6246 -3.7111
 1274SOL    HW2 4722   6.290   4.242   0.657  0.6012  0.5569 -0.2812
 1275SOL     OW 4723   4.630   2.058   4.249 -0.0230 -0.7600  0.0397
 1275SOL    HW1 4724   4.569   2.103   4.184  1.1614 -1.4813 -1.6387
 1275SOL    HW2 4725   4.669   1.976   4.208  1.1878 -0.9619  1.4735
 1276SOL     OW 4726   5.743   4.738   4.401  0.3482 -0.0536 -0.4224
 1276SOL    HW1 4727   5.672   4.676   4.435  0.1682 -0.5746 -1.6615
 1276SOL    HW2 4728   5.740   4.824   4.452 -1.0862 -0.1125 -0.3557
 1277SOL     OW 4729   0.356   0.177   6.760 -0.6249  0.6137 -0.0014
 1277SOL    HW1 4730   0.333   0.261   6.711 -1.3300 -0.4145 -1.4881
 1277SOL    HW2 4731   0.363   0.101   6.696  1.0603 -0.2871  1.1779
 1278SOL     OW 4732   2.337   4.971   3.256 -0.0318  0.6329  0.4849
 1278SOL    HW1 4733   2.243   4.957   3.223 -0.3823 -0.8736  1.9680
 1278SOL    HW2 4734   2.397   4.902   3.216 -0.2811 -0.6215  2.1704
 1279SOL     OW 4735   2.573   4.234   6.086  0.8159 -0.2271  0.0373
 1279SOL    HW1 4736   2.587   4.170   6.010 -0.4627 -0.2012 -0.2480
 1279SOL    HW2 4737   2.634   4.211   6.161  1.0478 -1.1837 -0.4318
 1280SOL     OW 4738   4.844   6.139   3.014 -0.1738  0.8034 -0.4810
 1280SOL    HW1 4739   4.748   6.164   3.003 -0.3040  0.4696 -0.1190
 1280SOL    HW2 4740   4.889   6.207   3.072 -0.3097  0.6889 -0.2410
 1281SOL     OW 4741   3.035   6.284   1.910 -0.3957 -0.4415  0.1247
 1281SOL    HW1 4742   3.014   6.294   2.008 -1.6768 -0.9929 -0.0753
 1281SOL    HW2 4743   3.001   6.195   1.878  1.7251 -1.1116 -0.4059
 1282SOL     OW 4744   0.733   2.142   5.757 -0.3859 -0.7404  0.0293
 1282SOL    HW1 4745   0.719   2.159   5.855  0.3309 -0.6509  0.1229
 1282SOL    HW2 4746   0.707   2.048   5.735  1.6119 -1.5290  0.7844
 1283SOL     OW 4747   6.638   3.889   4.136  0.4752  0.0829 -0.4520
 1283SOL    HW1 4748   6.714   3.934   4.091  0.7437 -0.6514 -0.7439
 1283SOL    HW2 4749   6.631   3.794   4.105 -0.1908 -0.0342  0.0119
 1284SOL     OW 4750   3.443   3.132   0.866 -0.4707 -0.0960  0.1490
 1284SOL    HW1 4751   3.366   3.107   0.924 -1.0528 -2.1582 -1.3769
 1284SOL    HW2 4752   3.526   3.088   0.901 -0.6310 -0.5197  0.0125
 1285SOL     OW 4753   5.555   1.096   6.639 -0.0177  0.6054  0.2502
 1285SOL    HW1 4754   5.576   1.012   6.588  2.3207 -0.2388  2.4299
 1285SOL    HW2 4755   5.603   1.173   6.598 -0.6935  0.5614 -0.6564
 1286SOL     OW 4756   4.633   3.715   0.882 -0.2388  0.0003 -0.2884
 1286SOL    HW1 4757   4.665   3.769   0.960 -1.1964  0.7191 -0.3657
 1286SOL    HW2 4758   4.683   3.743   0.800  0.6849 -0.6705  0.0359
 1287SOL     OW 4759   5.531   4.114   5.348 -0.1757 -0.3501 -0.1239
 1287SOL    HW1 4760   5.592   4.137   5.423 -2.6394  1.6696  1.4289
 1287SOL    HW2 4761   5.469   4.041   5.376  0.0429 -0.8421 -0.8778
 1288SOL     OW 4762   2.867   3.940   6.589 -0.1804  0.6132 -0.1296
 1288SOL    HW1 4763   2.791   3.939   6.653  0.4398 -0.2720  0.6183
 1288SOL    HW2 4764   2.837   3.978   6.501 -2.1663 -2.0316 -0.7180
 1289SOL     OW 4765   1.396   6.357   2.324  0.0649 -0.2161  0.1164
 1289SOL    HW1 4766   1.394   6.277   2.263 -1.8287  0.1156 -0.3196
 1289SOL    HW2 4767   1.304   6.373   2.360  1.0264 -0.0988  2.7022
 1290SOL     OW 4768   2.417   6.648   5.807  0.4446  0.0235  0.4358
 1290SOL    HW1 4769   2.350   6.625   5.877  0.3969 -0.0259  0.3741
 1290SOL    HW2 4770   2.385   6.616   5.718  0.4685  0.1542  0.3793
 1291SOL     OW 4771   1.621   5.058   6.845 -0.1868 -0.4627 -0.2250
 1291SOL    HW1 4772   1.521   5.062   6.835 -0.0422 -0.9385 -2.6558
 1291SOL    HW2 4773   1.662   5.128   6.787  0.9204 -1.3736 -0.5656
 1292SOL     OW 4774   1.785   0.127   1.712  0.1499 -0.2343  0.3838
 1292SOL    HW1 4775   1.720   0.200   1.734  1.1563  0.7272  0.2604
 1292SOL    HW2 4776   1.753   0.076   1.632  0.6148  1.6405 -1.0640
 1293SOL     OW 4777   2.897   1.835   1.221  0.1177  0.0134 -0.1834
 1293SOL    HW1 4778   2.980   1.798   1.180  0.8122 -1.0524  2.0064
 1293SOL    HW2 4779   2.920   1.885   1.305 -1.4565 -0.8717  0.8355
 1294SOL     OW 4780   2.087   3.102   5.769 -0.1299  0.3939 -0.6860
 1294SOL    HW1 4781   2.140   3.149   5.839  0.1480  0.2124 -0.7755
 1294SOL    HW2 4782   2.065   3.166   5.694 -1.9564  1.0958  0.3739
 1295SOL     OW 4783   5.871   4.817   2.507 -0.6133  0.1317 -0.1593
 1295SOL    HW1 4784   5.954   4.761   2.511 -0.8615 -0.1945  0.4703
 1295SOL    HW2 4785   5.880   4.884   2.433  0.2794  0.2106  0.0115
 1296SOL     OW 4786   1.386   0.136   0.606 -0.0108 -0.2169 -0.3858
 1296SOL    HW1 4787   1.482   0.128   0.580  0.7964  0.5929  2.0600
 1296SOL    HW2 4788   1.377   0.123   0.705 -2.1329  1.9348 -0.2110
 1297SOL     OW 4789   2.065   0.329   3.029 -0.5671 -0.0878 -0.5393
 1297SOL    HW1 4790   1.982   0.352   2.979 -0.6898  0.8235  0.0456
 1297SOL    HW2 4791   2.136   0.396   3.008 -0.9028  0.8700  1.1497
 1298SOL     OW 4792   6.058   5.926   4.369  0.2650 -0.7477  0.0412
 1298SOL    HW1 4793   6.143   5.884   4.403  1.1400  0.9987  0.1344
 1298SOL    HW2 4794   6.075   5.967   4.279 -0.2592  0.2954  0.4022
 1299SOL     OW 4795   0.646   2.653   4.326  0.0111 -0.6036 -0.6305
 1299SOL    HW1 4796   0.653   2.717   4.250 -1.9009  1.4356  0.7877
 1299SOL    HW2 4797   0.709   2.680   4.398  0.8484 -1.7299 -0.9161
 1300SOL     OW 4798   2.295   2.072   0.289  0.3438  0.0247  0.1251
 1300SOL    HW1 4799   2.209   2.078   0.339 -0.5054  0.1847 -1.2833
 1300SOL    HW2 4800   2.366   2.125   0.336  0.0512 -1.1631  2.0078
 1301SOL     OW 4801   0.595   6.055   1.369 -0.0903  0.4518  0.4893
 1301SOL    HW1 4802   0.622   6.069   1.274 -1.8892  2.4962  0.1873
 1301SOL    HW2 4803   0.558   5.963   1.380  1.7312 -0.4242 -0.3389
 1302SOL     OW 4804   4.299   6.131   5.650 -0.0682 -0.6699 -0.5991
 1302SOL    HW1 4805   4.314   6.229   5.666  1.2282 -0.5660 -2.1841
 1302SOL    HW2 4806   4.280   6.116   5.553 -0.8754 -1.9492 -0.2709
 1303SOL     OW 4807   5.150   0.762   2.407 -0.4586 -0.3201  0.3594
 1303SOL    HW1 4808   5.084   0.733   2.338  0.1922 -3.1454  0.8075
 1303SOL    HW2 4809   5.107   0.759   2.497 -0.4985  0.6231  0.3816
 1304SOL     OW 4810   2.024   0.788   2.194  0.2740  0.0625  0.1222
 1304SOL    HW1 4811   1.952   0.751   2.135  0.1976  0.3290  0.0484
 1304SOL    HW2 4812   2.049   0.880   2.164 -2.4113  1.8158  2.6538
 1305SOL     OW 4813   3.799   2.833   6.582  0.6260  0.2135 -0.0122
 1305SOL    HW1 4814   3.740   2.843   6.502 -0.7334 -0.2598  0.8956
 1305SOL    HW2 4815   3.810   2.922   6.627  0.5803  0.2973 -0.1656
 1306SOL     OW 4816   2.574   6.796   3.132 -0.0484 -0.5357 -0.2539
 1306SOL    HW1 4817   2.649   6.778   3.068  0.2833  0.4012 -0.1500
 1306SOL    HW2 4818   2.612   6.833   3.217 -0.6112 -0.2799 -0.1140
 1307SOL     OW 4819   0.786   4.879   4.205  0.2367  0.6155 -0.1994
 1307SOL    HW1 4820   0.811   4.939   4.281  0.6037  0.7508 -0.4254
 1307SOL    HW2 4821   0.859   4.813   4.188  0.8280  1.5149 -1.3657
 1308SOL     OW 4822   5.487   6.113   5.691 -0.0603 -0.2366  0.7349
 1308SOL    HW1 4823   5.541   6.081   5.768 -0.9420 -1.1006  1.0110
 1308SOL    HW2 4824   5.539   6.101   5.606  0.3707 -0.5848  1.0479
 1309SOL     OW 4825   4.795   4.784   0.680 -0.6248 -0.0650 -0.1227
 1309SOL    HW1 4826   4.725   4.713   0.688 -1.1028  0.4498  0.3914
 1309SOL    HW2 4827   4.755   4.867   0.640 -0.1934  0.0763 -0.2695
 1310SOL     OW 4828   6.156   5.323   3.947  0.4174 -0.4910  0.4678
 1310SOL    HW1 4829   6.144   5.341   3.850 -0.0069  0.6086  0.7142
 1310SOL    HW2 4830   6.185   5.406   3.994  0.7737 -1.0445  1.2638
 1311SOL     OW 4831   6.536   0.260   0.033 -0.0263 -0.1577  0.9794
 1311SOL    HW1 4832   6.493   0.338  -0.012 -3.3465 -1.7370  1.1080
 1311SOL    HW2 4833   6.600   0.216  -0.029 -1.8948 -0.2409 -0.9846
 1312SOL     OW 4834   2.075   0.700   0.219  0.7824 -0.2320 -0.2903
 1312SOL    HW1 4835   1.978   0.724   0.228  1.3256  1.3360  2.8494
 1312SOL    HW2 4836   2.129   0.784   0.208  1.9410 -0.8932  0.1486
 1313SOL     OW 4837   1.907   3.848   1.989 -0.0336 -0.3805 -0.0146
 1313SOL    HW1 4838   1.881   3.840   2.085  0.5535  0.4635  0.2253
 1313SOL    HW2 4839   2.005   3.833   1.979 -0.2912 -1.8245 -0.6829
 1314SOL     OW 4840   4.558   0.364   5.314  0.1265 -0.6232  0.4154
 1314SOL    HW1 4841   4.641   0.330   5.270 -0.5679 -0.7683 -0.8143
 1314SOL    HW2 4842   4.502   0.413   5.247  0.5411  2.0202  1.8444
 1315SOL     OW 4843   5.726   2.525   3.090  0.1057 -0.3047  0.6853
 1315SOL    HW1 4844   5.714   2.549   3.186  1.0998 -0.1428  0.7795
 1315SOL    HW2 4845   5.645   2.475   3.058 -0.5530  0.2749  1.3904
 1316SOL     OW 4846   4.058   6.243   6.481 -0.1039  0.0538  0.2042
 1316SOL    HW1 4847   4.128   6.183   6.443  0.3293  1.3523 -1.1334
 1316SOL    HW2 4848   4.004   6.282   6.407 -0.5742  1.0844  1.0631
 1317SOL     OW 4849   3.351   4.703   5.781 -0.2655 -0.0845 -0.5315
 1317SOL    HW1 4850   3.361   4.606   5.803  1.6010  0.2891  0.5614
 1317SOL    HW2 4851   3.439   4.739   5.749 -0.2974  1.7111  1.1910
 1318SOL     OW 4852   0.923   1.633   0.815 -0.0226 -0.0877 -0.1461
 1318SOL    HW1 4853   0.937   1.585   0.729  0.5278 -2.3003  1.0972
 1318SOL    HW2 4854   0.826   1.658   0.823  0.3410  2.5689 -2.4977
 1319SOL     OW 4855   6.649   5.739   0.736 -0.5730  0.1058 -0.0695
 1319SOL    HW1 4856   6.593   5.674   0.787  0.0514 -1.3415 -1.1398
 1319SOL    HW2 4857   6.591   5.809   0.696 -1.3315 -0.0554  0.7316
 1320SOL     OW 4858   3.362   5.006   5.507  0.6928 -0.0035  0.6753
 1320SOL    HW1 4859   3.285   4.950   5.537  0.7284  0.2648  1.2901
 1320SOL    HW2 4860   3.337   5.055   5.423  0.7606 -1.1427 -0.0371
 1321SOL     OW 4861   5.264   4.553   5.561  0.1500 -0.2702  0.4435
 1321SOL    HW1 4862   5.265   4.459   5.593 -0.6112 -0.1670  0.8085
 1321SOL    HW2 4863   5.209   4.609   5.624 -0.7034  0.0905 -0.5838
 1322SOL     OW 4864   4.054   1.969   4.351  0.1515 -0.6220 -0.3698
 1322SOL    HW1 4865   4.112   1.926   4.282 -0.0853 -1.7340  0.1018
 1322SOL    HW2 4866   4.079   2.066   4.360 -0.7329 -0.0517 -2.9848
 1323SOL     OW 4867   4.472   5.009   1.628  0.1707  0.4768 -0.7102
 1323SOL    HW1 4868   4.448   5.106   1.630 -0.0391  0.4093  0.5396
 1323SOL    HW2 4869   4.557   4.998   1.575  0.4545  1.3950 -0.4751
 1324SOL     OW 4870   6.300   3.727   5.845  0.1663  0.0965 -0.0821
 1324SOL    HW1 4871   6.241   3.662   5.893 -0.7272  0.1131 -1.1121
 1324SOL    HW2 4872   6.366   3.677   5.789  1.2983  0.0755  1.2260
 1325SOL     OW 4873   2.143   5.609   4.274 -0.3959 -0.1832  0.4616
 1325SOL    HW1 4874   2.201   5.621   4.194  1.6147 -2.1584  1.4987
 1325SOL    HW2 4875   2.048   5.629   4.250  0.3484  0.8232 -1.9467
 1326SOL     OW 4876   4.879   4.483   6.416 -0.4529 -0.2068  0.0370
 1326SOL    HW1 4877   4.825   4.516   6.493  0.3417  1.6157 -0.1186
 1326SOL    HW2 4878   4.873   4.549   6.341  2.4876  0.4671  0.2599
 1327SOL     OW 4879   1.663   5.457   2.708  0.2826  0.3526  0.0130
 1327SOL    HW1 4880   1.677   5.547   2.666  1.6338  0.1272 -0.0679
 1327SOL    HW2 4881   1.731   5.444   2.781 -0.3391 -0.3318  0.4758
 1328SOL     OW 4882   3.841   2.341   6.451  0.6297  0.5368 -0.2247
 1328SOL    HW1 4883   3.764   2.329   6.513  0.7284  1.4459  0.0815
 1328SOL    HW2 4884   3.876   2.251   6.423 -0.2416  0.1225 -0.0047
 1329SOL     OW 4885   1.122   1.853   2.215  0.0768  0.2455  0.0206
 1329SOL    HW1 4886   1.125   1.783   2.144  0.7358  0.6182 -0.3328
 1329SOL    HW2 4887   1.171   1.821   2.297 -1.3422 -0.4870  0.6023
 1330SOL     OW 4888   1.137   1.145   2.018 -0.0644 -0.4342  0.4052
 1330SOL    HW1 4889   1.232   1.177   2.029 -0.0698 -0.5736  0.8695
 1330SOL    HW2 4890   1.106   1.102   2.103 -1.0456  0.9280  0.7769
 1331SOL     OW 4891   4.860   2.502   3.015 -0.3427 -0.2284  0.5471
 1331SOL    HW1 4892   4.918   2.441   2.960 -0.4484 -0.8463  1.0981
 1331SOL    HW2 4893   4.877   2.484   3.113  1.3302  2.2533  0.7879
 1332SOL     OW 4894   3.018   4.699   5.927 -0.1262 -0.4683 -0.0779
 1332SOL    HW1 4895   3.036   4.645   5.844  1.0076  0.6610 -0.6069
 1332SOL    HW2 4896   2.988   4.791   5.901 -2.0955 -0.8165  0.8128
 1333SOL     OW 4897   3.296   4.093   4.351  0.2253 -0.0194  0.7363
 1333SOL    HW1 4898   3.217   4.036   4.375 -0.1848  0.3662  0.3413
 1333SOL    HW2 4899   3.341   4.126   4.434  0.1544 -0.4932  0.9647
 1334SOL     OW 4900   0.188   6.674   3.842 -0.0909  0.2580 -0.0057
 1334SOL    HW1 4901   0.234   6.712   3.923 -0.4332  0.6023  0.0286
 1334SOL    HW2 4902   0.235   6.705   3.759  1.8589 -2.1209  0.0757
 1335SOL     OW 4903   1.578   2.308   1.779  0.2639  0.5719  0.6179
 1335SOL    HW1 4904   1.566   2.395   1.827 -1.8140  0.1810  0.8740
 1335SOL    HW2 4905   1.543   2.316   1.686  1.0072  0.2776  0.2994
 1336SOL     OW 4906   2.651   2.119   4.237 -0.0598 -0.1098  0.0584
 1336SOL    HW1 4907   2.712   2.198   4.233 -1.1696  0.8567  1.3126
 1336SOL    HW2 4908   2.569   2.138   4.183 -0.6280 -0.1177  0.9022
 1337SOL     OW 4909   1.500   2.123   3.581 -0.3739 -0.3283  0.4898
 1337SOL    HW1 4910   1.459   2.174   3.506 -0.5263  0.4295  1.0776
 1337SOL    HW2 4911   1.525   2.186   3.655 -1.5536 -1.1942  1.6880
 1338SOL     OW 4912   4.935   1.847   3.855  0.1533  0.2977 -0.1303
 1338SOL    HW1 4913   4.924   1.778   3.783  0.4638 -0.7894  0.8365
 1338SOL    HW2 4914   5.016   1.825   3.910 -0.3548  0.8359  0.8561
 1339SOL     OW 4915   0.834   3.110   4.738 -0.0656 -0.2008 -0.6057
 1339SOL    HW1 4916   0.925   3.150   4.747  0.8519 -1.8368 -1.9293
 1339SOL    HW2 4917   0.809   3.105   4.641 -1.4420 -0.0599 -0.2783
 1340SOL     OW 4918   3.736   3.041   1.814  0.4123  0.4980 -0.0519
 1340SOL    HW1 4919   3.710   2.958   1.765  3.1816 -0.5621  0.1432
 1340SOL    HW2 4920   3.730   3.024   1.913 -1.8571  1.5505  0.0585
 1341SOL     OW 4921   5.489   6.727   5.261 -0.0014  0.2789 -0.0889
 1341SOL    HW1 4922   5.492   6.650   5.197  2.7054 -0.0424  0.3315
 1341SOL    HW2 4923   5.473   6.812   5.211 -1.9912 -0.3708 -0.6726
 1342SOL     OW 4924   2.981   5.782   5.990  0.4941  0.4368  0.0930
 1342SOL    HW1 4925   2.913   5.809   6.058  1.5606  1.3185  0.8514
 1342SOL    HW2 4926   2.948   5.807   5.898 -0.7802 -0.4059  0.2938
 1343SOL     OW 4927   5.311   4.828   1.852 -0.0361 -0.1338 -0.5234
 1343SOL    HW1 4928   5.267   4.837   1.762  0.1978  3.1427 -0.4276
 1343SOL    HW2 4929   5.243   4.837   1.924 -0.0194 -1.2965 -0.3497
 1344SOL     OW 4930   0.627   5.500   3.687  0.2806  0.3804 -0.6339
 1344SOL    HW1 4931   0.681   5.441   3.748  1.2368  1.4648 -0.4046
 1344SOL    HW2 4932   0.647   5.476   3.592 -0.0494 -0.2781 -0.5472
 1345SOL     OW 4933   0.664   0.714   3.175  0.2832  0.2540 -0.2976
 1345SOL    HW1 4934   0.678   0.761   3.088 -0.1030  0.4887 -0.2366
 1345SOL    HW2 4935   0.735   0.741   3.239 -1.6815  3.3072  0.7981
 1346SOL     OW 4936   2.710   6.937   3.360  0.1276  0.2359  0.5285
 1346SOL    HW1 4937   2.640   6.966   3.426 -1.5547 -1.1312 -0.5815
 1346SOL    HW2 4938   2.732   7.014   3.299 -2.7654 -0.0715 -1.0827
 1347SOL     OW 4939   0.821   0.792   5.793 -0.1876  0.4551  0.3426
 1347SOL    HW1 4940   0.816   0.759   5.887 -1.9800  1.2702  0.5862
 1347SOL    HW2 4941   0.909   0.835   5.777 -0.2090  1.1838  1.9752
 1348SOL     OW 4942   3.700   6.654   3.846 -0.3245 -0.8436 -0.6664
 1348SOL    HW1 4943   3.772   6.592   3.878  1.0984  0.2237 -1.6416
 1348SOL    HW2 4944   3.644   6.683   3.923  3.4463  2.3261  1.2542
 1349SOL     OW 4945   4.945   3.339   5.134  0.8805  0.4457  0.3162
 1349SOL    HW1 4946   5.039   3.371   5.120  0.7638  1.7114  2.0930
 1349SOL    HW2 4947   4.881   3.407   5.099  0.5964 -0.1988 -0.4571
 1350SOL     OW 4948   5.492   5.657   4.323 -0.1138 -0.3423 -0.8315
 1350SOL    HW1 4949   5.514   5.747   4.284  1.0813 -0.5428 -0.6768
 1350SOL    HW2 4950   5.429   5.668   4.399  0.4980  0.4503 -0.4180
 1351SOL     OW 4951   0.157   2.049   2.677  0.4209  1.0181  0.0302
 1351SOL    HW1 4952   0.101   1.994   2.615  2.3633 -2.1298  0.8538
 1351SOL    HW2 4953   0.226   2.099   2.624  0.3493  0.5064 -0.5487
 1352SOL     OW 4954   6.675   6.373   5.034 -0.3954 -0.3423  0.2861
 1352SOL    HW1 4955   6.634   6.419   4.955 -0.2039 -0.6369  0.0085
 1352SOL    HW2 4956   6.664   6.274   5.023 -1.1937 -0.3520  1.0880
 1353SOL     OW 4957   5.840   3.299   0.316  0.3674  0.4794  0.0188
 1353SOL    HW1 4958   5.749   3.335   0.295  0.7541  0.7667 -1.2926
 1353SOL    HW2 4959   5.850   3.288   0.415 -0.6468  1.6387  0.2790
 1354SOL     OW 4960   6.721   3.766   0.965  0.1027  0.4166 -0.4858
 1354SOL    HW1 4961   6.795   3.748   0.901 -0.2017  1.1887 -1.0677
 1354SOL    HW2 4962   6.638   3.789   0.914 -0.4213  0.0025  0.1673
 1355SOL     OW 4963   6.839   4.694   2.325  0.2973 -0.0473 -0.1226
 1355SOL    HW1 4964   6.775   4.769   2.340 -0.2439 -0.4556 -0.3679
 1355SOL    HW2 4965   6.909   4.695   2.397  1.0507  1.4591 -0.8299
 1356SOL     OW 4966   3.386   2.395   0.871  0.3752  0.1749 -0.0835
 1356SOL    HW1 4967   3.338   2.359   0.791 -3.8371 -2.0059  3.0291
 1356SOL    HW2 4968   3.462   2.335   0.894 -0.5965 -1.2189 -0.4337
 1357SOL     OW 4969   0.779   3.574   6.832  0.8590  0.1134 -0.3613
 1357SOL    HW1 4970   0.848   3.528   6.888 -1.2332 -0.8500  1.5779
 1357SOL    HW2 4971   0.773   3.529   6.743  0.5391 -1.8890  0.6144
 1358SOL     OW 4972   5.649   6.587   6.435  0.3256 -0.0717 -0.1435
 1358SOL    HW1 4973   5.640   6.666   6.374  0.8878 -0.5716 -0.8911
 1358SOL    HW2 4974   5.652   6.618   6.530  0.2372  0.7807 -0.4130
 1359SOL     OW 4975   6.866   4.875   1.211 -0.3247 -0.6933 -0.0425
 1359SOL    HW1 4976   6.852   4.964   1.167  0.3229  0.8675  2.6707
 1359SOL    HW2 4977   6.778   4.829   1.222 -0.7981  0.0394 -0.6203
 1360SOL     OW 4978   2.161   3.027   6.473  0.2485  0.2876  0.6293
 1360SOL    HW1 4979   2.208   3.107   6.435 -0.0263  0.8697  1.4771
 1360SOL    HW2 4980   2.111   3.054   6.555 -0.8244 -0.5121  0.2572
 1361SOL     OW 4981   0.719   5.096   4.873 -0.7763  0.4113 -0.3471
 1361SOL    HW1 4982   0.713   5.162   4.797  1.4659 -1.2687 -2.1383
 1361SOL    HW2 4983   0.674   5.011   4.846 -3.5704  1.0400  1.9072
 1362SOL     OW 4984   4.159   3.452   3.869  0.6694 -0.2739 -0.4707
 1362SOL    HW1 4985   4.102   3.408   3.800  1.0959  0.2615 -1.1802
 1362SOL    HW2 4986   4.205   3.532   3.829 -2.4356  2.7595  1.4980
 1363SOL     OW 4987   6.224   5.907   3.290 -0.0353  0.5234 -0.3282
 1363SOL    HW1 4988   6.288   5.935   3.219  2.0793 -1.1797  0.7848
 1363SOL    HW2 4989   6.252   5.946   3.378  0.4025 -1.3745  0.4266
 1364SOL     OW 4990   5.351   3.864   0.776 -0.1612 -0.3793  0.1830
 1364SOL    HW1 4991   5.260   3.831   0.800  0.0957 -0.7262  0.6740
 1364SOL    HW2 4992   5.345   3.917   0.691 -0.5214 -1.9321 -0.7863
 1365SOL     OW 4993   0.953   3.706   6.528  0.1262  0.4831  0.5125
 1365SOL    HW1 4994   0.930   3.705   6.431 -0.8808  0.9095  0.7402
 1365SOL    HW2 4995   1.035   3.651   6.543  0.5956  0.8397 -0.6500
 1366SOL     OW 4996   1.609   5.385   0.454 -0.6086 -0.1958  0.2936
 1366SOL    HW1 4997   1.680   5.454   0.439 -0.5918 -0.2563  0.0900
 1366SOL    HW2 4998   1.639   5.320   0.524 -0.0998 -0.7239 -0.4013
 1367SOL     OW 4999   2.350   6.898   1.932  0.4214  0.2236 -0.2956
 1367SOL    HW1 5000   2.311   6.841   1.861 -2.5980 -2.2751  2.9762
 1367SOL    HW2 5001   2.315   6.992   1.923 -2.6365 -0.7982 -0.3920
 1368SOL     OW 5002   1.111   1.117   3.836  0.7014 -0.1261 -0.0768
 1368SOL    HW1 5003   1.143   1.119   3.931 -0.6724 -0.1074  0.4028
 1368SOL    HW2 5004   1.126   1.026   3.797 -1.7139 -1.1913  1.2648
 1369SOL     OW 5005   0.456   6.580   2.350  0.5179  0.3602  0.0064
 1369SOL    HW1 5006   0.470   6.675   2.320  1.3818  0.1025 -0.4311
 1369SOL    HW2 5007   0.426   6.524   2.273  0.3299  0.2077  0.1893
 1370SOL     OW 5008   3.634   0.974   0.065  0.1584 -0.3522 -0.1937
 1370SOL    HW1 5009   3.663   0.899   0.005 -0.1098 -0.6750  0.0749
 1370SOL    HW2 5010   3.663   1.061   0.026  1.6996 -0.6681  0.1759
 1371SOL     OW 5011   5.294   0.955   6.255 -0.0050 -0.1614 -0.6098
 1371SOL    HW1 5012   5.336   0.885   6.198  1.0742  0.0988 -0.1504
 1371SOL    HW2 5013   5.363   1.021   6.284 -0.2344 -0.9569  1.9958
 1372SOL     OW 5014   3.411   2.247   0.244  0.0888  0.0144 -0.1635
 1372SOL    HW1 5015   3.479   2.320   0.238  0.5953 -0.5602 -2.5970
 1372SOL    HW2 5016   3.454   2.159   0.221 -0.7119 -0.9502  1.8021
 1373SOL     OW 5017   3.977   6.336   0.010 -0.1649 -0.4002  0.0362
 1373SOL    HW1 5018   3.999   6.249  -0.033  0.6623 -0.1826  0.0032
 1373SOL    HW2 5019   3.937   6.398  -0.059  0.2646 -0.3825 -0.2023
 1374SOL     OW 5020   3.127   1.990   0.419  0.0421  0.4474  0.0978
 1374SOL    HW1 5021   3.058   1.952   0.481 -0.4935 -0.3402 -0.9366
 1374SOL    HW2 5022   3.124   2.090   0.423 -2.0082  0.4731 -0.7564
 1375SOL     OW 5023   5.620   4.342   6.419  0.1713 -0.2373  0.2869
 1375SOL    HW1 5024   5.692   4.335   6.351 -0.4241 -2.3153 -0.1940
 1375SOL    HW2 5025   5.642   4.283   6.497 -0.5621 -0.1520  0.5636
 1376SOL     OW 5026   4.943   3.733   3.702  0.2590  0.3739  0.5036
 1376SOL    HW1 5027   4.931   3.651   3.757  3.6431  0.3931  1.4669
 1376SOL    HW2 5028   5.007   3.715   3.627 -2.8065  0.8721 -2.5042
 1377SOL     OW 5029   5.491   4.175   3.746 -0.4349  0.0405  0.0576
 1377SOL    HW1 5030   5.569   4.202   3.803  0.0048  0.0375 -0.5293
 1377SOL    HW2 5031   5.410   4.224   3.775 -0.6791 -1.3390  1.9333
 1378SOL     OW 5032   5.829   1.668   3.598 -0.2783 -0.9396 -0.1694
 1378SOL    HW1 5033   5.861   1.758   3.569 -1.6776 -0.5147 -0.4912
 1378SOL    HW2 5034   5.904   1.602   3.593  1.2164  0.5123  1.6079
 1379SOL     OW 5035   2.400   0.820   1.677  0.2219  0.6802  0.7084
 1379SOL    HW1 5036   2.313   0.786   1.714  0.0091  2.1012  1.5780
 1379SOL    HW2 5037   2.389   0.840   1.580 -0.1193 -0.1195  0.5704
 1380SOL     OW 5038   1.403   0.388   0.929 -0.1433  0.3714  0.6002
 1380SOL    HW1 5039   1.341   0.405   0.852 -0.7727 -0.1257  0.9863
 1380SOL    HW2 5040   1.470   0.462   0.935 -1.1982  1.3536  0.6545
 1381SOL     OW 5041   5.385   3.135   1.239  0.7495 -0.3961 -0.5605
 1381SOL    HW1 5042   5.314   3.066   1.252 -0.5501  1.2080  1.2329
 1381SOL    HW2 5043   5.468   3.107   1.288  0.0034 -0.3703  0.7440
 1382SOL     OW 5044   4.682   4.933   6.141  0.2279  0.5305 -0.9622
 1382SOL    HW1 5045   4.755   4.990   6.106  0.6943 -0.7637 -2.1843
 1382SOL    HW2 5046   4.634   4.889   6.065  1.0406 -2.0883 -0.0798
 1383SOL     OW 5047   6.343   0.235   0.233 -0.0329  0.2537 -0.0444
 1383SOL    HW1 5048   6.360   0.161   0.298  0.6052  1.3231  1.0474
 1383SOL    HW2 5049   6.428   0.255   0.183 -0.4075 -0.2636 -0.9106
 1384SOL     OW 5050   3.588   0.237   1.757  0.3028 -0.4595 -0.2474
 1384SOL    HW1 5051   3.570   0.161   1.694 -1.2990 -0.0550 -0.3334
 1384SOL    HW2 5052   3.560   0.210   1.849 -0.7816  0.1695 -0.3685
 1385SOL     OW 5053   5.608   4.197   3.485 -0.3875  0.1666 -0.3589
 1385SOL    HW1 5054   5.557   4.171   3.567 -0.5907  0.0199 -0.5299
 1385SOL    HW2 5055   5.667   4.274   3.506  0.1664 -0.3794  0.1370
 1386SOL     OW 5056   2.877   1.867   3.781 -0.1138  0.3402  0.4919
 1386SOL    HW1 5057   2.853   1.917   3.864 -1.9252 -0.1977  0.3218
 1386SOL    HW2 5058   2.823   1.902   3.705 -2.6490 -2.7829  0.6415
 1387SOL     OW 5059   3.907   6.296   4.423 -0.3446 -0.4864 -0.3853
 1387SOL    HW1 5060   3.965   6.223   4.388  1.0671  0.3646  0.0745
 1387SOL    HW2 5061   3.847   6.261   4.495  2.4088 -0.6471  1.9701
 1388SOL     OW 5062   2.140   4.447   5.612 -0.1519  0.7637  0.6902
 1388SOL    HW1 5063   2.085   4.392   5.549 -1.1203  0.7651  1.5216
 1388SOL    HW2 5064   2.086   4.473   5.692  0.7029  1.7597  0.9861
 1389SOL     OW 5065   2.012   1.335   5.334  0.7851 -0.6352 -0.8251
 1389SOL    HW1 5066   1.980   1.321   5.428  1.7979 -1.2971 -0.5582
 1389SOL    HW2 5067   1.980   1.260   5.276 -0.9676  0.4639 -1.3312
 1390SOL     OW 5068   5.958   1.895   6.915 -0.4095  0.1664 -0.4359
 1390SOL    HW1 5069   5.878   1.920   6.970 -1.3749  2.0044 -2.4879
 1390SOL    HW2 5070   6.042   1.914   6.967 -1.2775  0.7591  0.7939
 1391SOL     OW 5071   6.676   1.881   6.825 -0.0694 -0.0035 -0.0322
 1391SOL    HW1 5072   6.580   1.905   6.835  0.0318  0.0917  0.7681
 1391SOL    HW2 5073   6.730   1.964   6.814  0.2295  0.1792  2.3054
 1392SOL     OW 5074   5.342   5.881   0.655 -0.4696  0.7590 -0.0762
 1392SOL    HW1 5075   5.253   5.902   0.695 -0.1032  0.9700  0.6582
 1392SOL    HW2 5076   5.379   5.962   0.610  0.0658  1.1643  1.0446
 1393SOL     OW 5077   5.100   4.719   5.728  0.4899 -0.6790  0.4854
 1393SOL    HW1 5078   5.088   4.712   5.826  1.4870  0.2880  0.7032
 1393SOL    HW2 5079   5.114   4.814   5.702  1.4795 -1.0401 -0.4221
 1394SOL     OW 5080   3.207   1.091   4.476 -0.2985 -0.3462  0.0272
 1394SOL    HW1 5081   3.278   1.063   4.540  1.3831 -0.6967 -1.9180
 1394SOL    HW2 5082   3.206   1.191   4.470  0.0746 -0.3411  0.0208
 1395SOL     OW 5083   0.217   4.486   2.087  0.0549  0.1707 -0.1559
 1395SOL    HW1 5084   0.214   4.521   2.180  2.4717  1.6251 -0.5331
 1395SOL    HW2 5085   0.297   4.427   2.075  0.3834  0.8473 -1.5375
 1396SOL     OW 5086   0.274   4.602   2.312 -0.0529  0.2608 -0.4403
 1396SOL    HW1 5087   0.350   4.666   2.321  0.1396 -0.0008 -0.1791
 1396SOL    HW2 5088   0.269   4.544   2.394 -1.7324  1.5689  0.4554
 1397SOL     OW 5089   0.553   6.515   6.051 -0.0179  0.3280  0.1718
 1397SOL    HW1 5090   0.591   6.584   6.113  2.1689 -1.2480  0.7044
 1397SOL    HW2 5091   0.559   6.425   6.093 -1.0617 -0.4577 -1.2615
 1398SOL     OW 5092   6.334   2.194   0.969 -0.8977  0.1195  0.4451
 1398SOL    HW1 5093   6.332   2.293   0.983  2.1403  0.3620 -0.1651
 1398SOL    HW2 5094   6.384   2.151   1.045  1.6579 -0.3774 -1.4106
 1399SOL     OW 5095   1.984   5.039   0.079  0.0151 -0.5670 -0.0014
 1399SOL    HW1 5096   2.065   4.982   0.092  0.8317  0.6403  0.3785
 1399SOL    HW2 5097   1.968   5.054  -0.019  1.3147  0.6062 -0.0677
 1400SOL     OW 5098   0.319   6.782   3.604  0.2588 -0.2621 -0.1475
 1400SOL    HW1 5099   0.238   6.808   3.553 -0.1412 -0.4197  0.3912
 1400SOL    HW2 5100   0.399   6.785   3.544 -0.2293 -0.6694 -0.8380
 1401SOL     OW 5101   7.001   6.590   5.304  0.3361  0.0895  0.0846
 1401SOL    HW1 5102   6.920   6.644   5.281  0.6327  0.8402  0.7372
 1401SOL    HW2 5103   7.020   6.525   5.231  0.5504  1.5550 -1.2223
 1402SOL     OW 5104   5.260   4.930   4.418 -0.4581  0.3028 -0.1722
 1402SOL    HW1 5105   5.186   4.984   4.378 -3.4706 -1.5671  2.3543
 1402SOL    HW2 5106   5.295   4.976   4.499 -0.9397 -0.1435  0.2951
 1403SOL     OW 5107   3.617   2.273   0.955  0.1299  0.6232 -0.9744
 1403SOL    HW1 5108   3.705   2.319   0.961  1.0372 -0.9418 -1.6524
 1403SOL    HW2 5109   3.603   2.216   1.036  0.9950 -1.1744 -2.0271
 1404SOL     OW 5110   4.382   6.632   1.408  0.3772  0.0498  0.1031
 1404SOL    HW1 5111   4.390   6.732   1.416 -0.3752  0.2582 -1.5369
 1404SOL    HW2 5112   4.357   6.594   1.497  2.1725  1.1410  1.1412
 1405SOL     OW 5113   0.697   3.797   0.917 -0.0399 -0.3493  0.0700
 1405SOL    HW1 5114   0.639   3.833   0.991  0.6280 -1.2060  1.0324
 1405SOL    HW2 5115   0.793   3.801   0.945  0.1864 -1.1249 -0.5680
 1406SOL     OW 5116   3.535   5.714   0.307  0.1643  0.1434  0.1026
 1406SOL    HW1 5117   3.441   5.739   0.331 -0.2897 -2.3088  1.2807
 1406SOL    HW2 5118   3.569   5.773   0.234 -1.8560  1.8491  0.4670
 1407SOL     OW 5119   1.748   5.260   2.399 -0.2028 -0.5720 -0.3927
 1407SOL    HW1 5120   1.739   5.204   2.316 -3.2540 -0.6781 -0.0936
 1407SOL    HW2 5121   1.659   5.294   2.426  0.7667 -0.1537  2.6384
 1408SOL     OW 5122   4.963   5.547   0.063  0.4117  0.3939 -0.1682
 1408SOL    HW1 5123   4.935   5.465   0.013  0.2044  0.9610 -1.0180
 1408SOL    HW2 5124   5.037   5.524   0.126  1.2608 -0.1990 -1.3288
 1409SOL     OW 5125   0.701   1.291   5.572 -0.0358  0.0169 -0.1363
 1409SOL    HW1 5126   0.626   1.356   5.559 -1.5279 -1.2377  1.5676
 1409SOL    HW2 5127   0.665   1.207   5.612  2.0172 -1.4044 -1.0893
 1410SOL     OW 5128   1.117   3.740   0.401 -0.6282 -0.5533 -0.3036
 1410SOL    HW1 5129   1.107   3.839   0.405  0.5802 -0.3169 -2.1157
 1410SOL    HW2 5130   1.159   3.708   0.486  1.7328  0.9049 -0.8207
 1411SOL     OW 5131   5.790   6.373   5.772 -0.6083  0.2361  0.5308
 1411SOL    HW1 5132   5.691   6.385   5.773 -0.5113  1.1938  2.6778
 1411SOL    HW2 5133   5.816   6.321   5.691 -2.9149 -0.5895  0.2582
 1412SOL     OW 5134   1.218   5.536   1.544 -0.3532  0.0623 -1.0994
 1412SOL    HW1 5135   1.251   5.457   1.595 -0.2392 -0.2775 -1.6925
 1412SOL    HW2 5136   1.295   5.586   1.504 -0.2141  1.8609  1.2249
 1413SOL     OW 5137   0.265   1.032   4.147  0.0075  0.4580 -0.7202
 1413SOL    HW1 5138   0.362   1.051   4.164  0.9583 -2.5577 -2.1795
 1413SOL    HW2 5139   0.248   1.036   4.048 -1.2784  0.5580 -0.5022
 1414SOL     OW 5140   2.503   2.912   0.865 -1.2566 -0.0225  0.0881
 1414SOL    HW1 5141   2.565   2.988   0.881  0.8199 -1.4261 -0.7888
 1414SOL    HW2 5142   2.408   2.944   0.868 -0.5890  2.0550  2.3752
 1415SOL     OW 5143   2.166   1.613   5.461 -0.0780  0.5504  0.0603
 1415SOL    HW1 5144   2.123   1.547   5.401 -0.9460  1.0699  0.1007
 1415SOL    HW2 5145   2.227   1.672   5.408  0.3742  0.0031 -0.0407
 1416SOL     OW 5146   4.275   0.686   4.680  0.0841  0.3286  0.8868
 1416SOL    HW1 5147   4.339   0.727   4.616 -1.2750  0.3377 -0.5385
 1416SOL    HW2 5148   4.231   0.607   4.637 -1.8923  1.1693  1.2253
 1417SOL     OW 5149   2.400   2.478   5.686 -0.1892  0.6220 -0.6797
 1417SOL    HW1 5150   2.399   2.379   5.670 -1.0606  0.4194  0.5283
 1417SOL    HW2 5151   2.493   2.512   5.671 -0.0864 -0.1868 -2.1086
 1418SOL     OW 5152   3.770   2.490   0.652 -0.2746  0.5929 -0.3840
 1418SOL    HW1 5153   3.781   2.472   0.555  0.1959  0.1289 -0.2449
 1418SOL    HW2 5154   3.859   2.495   0.696 -0.4939  0.4645  0.0840
 1419SOL     OW 5155   2.929   5.875   2.945  0.5165 -0.7513 -0.4557
 1419SOL    HW1 5156   2.880   5.792   2.972 -1.7595  0.9242  0.9714
 1419SOL    HW2 5157   2.874   5.927   2.880  1.9327 -0.3633 -1.3855
 1420SOL     OW 5158   1.882   5.695   4.199 -0.3633 -0.0267  0.2775
 1420SOL    HW1 5159   1.883   5.789   4.165 -0.0450  0.2932  1.1693
 1420SOL    HW2 5160   1.800   5.648   4.164 -0.8290  0.7510  0.2992
 1421SOL     OW 5161   0.564   4.407   3.882 -0.0887  0.6277  0.1350
 1421SOL    HW1 5162   0.546   4.405   3.784  2.0012 -0.0471 -0.2963
 1421SOL    HW2 5163   0.583   4.314   3.914  2.1588  1.1408  0.5029
 1422SOL     OW 5164   1.470   5.152   5.851  0.3032  0.1037 -0.1009
 1422SOL    HW1 5165   1.499   5.066   5.809 -1.3966 -1.5625  1.8737
 1422SOL    HW2 5166   1.513   5.161   5.941 -0.1574  0.9416  0.0469
 1423SOL     OW 5167   5.540   3.069   5.112 -0.1382 -0.3074  0.2254
 1423SOL    HW1 5168   5.576   3.030   5.027 -0.2238  0.1949 -0.0423
 1423SOL    HW2 5169   5.531   2.997   5.181 -0.8416 -0.8770 -0.4440
 1424SOL     OW 5170   4.805   6.031   0.053 -0.1448 -0.0578  0.6191
 1424SOL    HW1 5171   4.787   6.013   0.150  0.0408  0.3039  0.7224
 1424SOL    HW2 5172   4.816   5.944   0.005 -1.3453 -0.2755  0.6998
 1425SOL     OW 5173   2.778   5.027   2.837 -0.6721 -0.4508  0.0705
 1425SOL    HW1 5174   2.703   5.007   2.774 -1.7774 -0.4288  1.3322
 1425SOL    HW2 5175   2.848   4.956   2.830  0.0715  0.4219 -2.3684
 1426SOL     OW 5176   3.559   2.019   2.231  0.1391  0.2725 -0.3379
 1426SOL    HW1 5177   3.601   1.932   2.206  0.5089  0.0231  1.0753
 1426SOL    HW2 5178   3.615   2.094   2.196  0.6291 -0.0657 -0.2904
 1427SOL     OW 5179   6.950   5.934   4.650  0.0063  0.2167  0.0017
 1427SOL    HW1 5180   6.976   5.951   4.554 -0.0757 -1.3807 -0.3346
 1427SOL    HW2 5181   7.031   5.944   4.708  0.5098 -0.7022 -0.5111
 1428SOL     OW 5182   5.242   2.058   1.071 -0.1967  0.7162  0.2168
 1428SOL    HW1 5183   5.283   2.072   1.161 -0.1146  0.5069  0.2124
 1428SOL    HW2 5184   5.295   2.107   1.002  2.2630 -2.4285 -0.3378
 1429SOL     OW 5185   4.476   2.463   1.094  0.0368  0.3614 -0.0800
 1429SOL    HW1 5186   4.386   2.493   1.127 -0.5612 -0.4645 -0.9070
 1429SOL    HW2 5187   4.516   2.399   1.159 -0.2282  0.2993  0.0239
 1430SOL     OW 5188   6.906   4.033   2.156 -0.1611  0.5088  0.6620
 1430SOL    HW1 5189   6.832   4.036   2.224 -0.4337 -0.5397  0.4308
 1430SOL    HW2 5190   6.912   3.941   2.118 -0.9482  1.3849 -1.7574
 1431SOL     OW 5191   5.233   1.709   5.818  0.6003 -0.2270 -0.0259
 1431SOL    HW1 5192   5.234   1.630   5.756 -0.9488  0.2431 -0.6925
 1431SOL    HW2 5193   5.314   1.765   5.802  0.0113  0.1367 -1.9911
 1432SOL     OW 5194   3.050   2.546   0.958  0.2380 -0.1661  0.0657
 1432SOL    HW1 5195   3.127   2.533   1.021 -1.7993  1.1842  3.0977
 1432SOL    HW2 5196   2.969   2.503   0.995 -1.2218  1.2110 -1.3575
 1433SOL     OW 5197   3.491   0.688   3.934 -0.0292 -0.5098  0.5542
 1433SOL    HW1 5198   3.433   0.734   4.001  1.7553  0.3119  1.6198
 1433SOL    HW2 5199   3.463   0.713   3.841  0.7357  2.6816  1.0749
 1434SOL     OW 5200   6.207   2.033   5.792 -0.2707 -0.0159 -0.1882
 1434SOL    HW1 5201   6.180   1.997   5.881  0.4453  1.0696  0.4860
 1434SOL    HW2 5202   6.300   2.068   5.797  0.4896 -1.6424 -1.8738
 1435SOL     OW 5203   2.313   1.059   3.783 -0.3340  0.0616 -0.4735
 1435SOL    HW1 5204   2.393   1.067   3.723  0.6105  0.0584  0.7416
 1435SOL    HW2 5205   2.248   1.132   3.762  0.1534  0.2807 -1.2494
 1436SOL     OW 5206   6.912   3.814   6.017 -0.0862  0.3253 -0.2567
 1436SOL    HW1 5207   7.007   3.806   6.045 -0.1917  3.3709  1.4848
 1436SOL    HW2 5208   6.907   3.824   5.918  1.5675  1.5397 -0.2561
 1437SOL     OW 5209   3.276   1.459   5.054  0.0293 -0.4335  0.0838
 1437SOL    HW1 5210   3.320   1.513   5.125 -0.4863 -1.2727  1.0846
 1437SOL    HW2 5211   3.197   1.411   5.093  1.5123 -3.3502 -0.2495
 1438SOL     OW 5212   3.087   0.888   2.205 -0.2213  0.2228 -0.0737
 1438SOL    HW1 5213   3.120   0.819   2.141  0.4646  1.0101 -0.5843
 1438SOL    HW2 5214   3.149   0.966   2.206  0.0662  0.0379  1.9317
 1439SOL     OW 5215   1.060   5.844   6.708 -0.6437  0.4797  0.1953
 1439SOL    HW1 5216   1.113   5.767   6.744 -1.0086  1.4139  2.9525
 1439SOL    HW2 5217   0.966   5.813   6.690 -0.3758 -0.0858 -0.2685
 1440SOL     OW 5218   3.823   2.960   4.398  0.0180  0.3348 -0.3241
 1440SOL    HW1 5219   3.767   2.984   4.319  1.8207  1.4875 -1.3236
 1440SOL    HW2 5220   3.903   2.909   4.368  0.9819  1.1982  0.6590
 1441SOL     OW 5221   0.116   4.636   3.136  0.6133  0.1693  0.6578
 1441SOL    HW1 5222   0.179   4.567   3.100 -0.4267 -1.1542  1.2764
 1441SOL    HW2 5223   0.153   4.672   3.222  0.6704 -0.4067  0.8839
 1442SOL     OW 5224   5.438   5.604   6.860  0.1643  0.1754  0.2767
 1442SOL    HW1 5225   5.386   5.538   6.806 -1.2751  0.6764  1.0046
 1442SOL    HW2 5226   5.513   5.556   6.907 -1.2667 -1.0981  1.3486
 1443SOL     OW 5227   6.627   0.026   3.587 -0.0137 -0.4621  0.2493
 1443SOL    HW1 5228   6.630  -0.038   3.511  0.4567  0.1060 -0.2115
 1443SOL    HW2 5229   6.630   0.120   3.553  0.2570 -0.2022  0.9612
 1444SOL     OW 5230   4.411   4.940   2.128 -0.7891 -0.5040  0.0914
 1444SOL    HW1 5231   4.431   4.958   2.031 -0.9493 -0.1991  0.1146
 1444SOL    HW2 5232   4.366   5.020   2.168  0.0874 -0.2769  0.6468
 1445SOL     OW 5233   0.218   3.978   1.518  0.0504 -0.1279 -0.2318
 1445SOL    HW1 5234   0.186   4.012   1.429 -0.6723 -1.5606 -0.5556
 1445SOL    HW2 5235   0.140   3.939   1.568  1.2158 -4.8803 -1.5684
 1446SOL     OW 5236   6.589   2.215   6.721 -0.0925 -0.3669  0.2769
 1446SOL    HW1 5237   6.572   2.150   6.647  0.1736 -0.4284  0.2672
 1446SOL    HW2 5238   6.506   2.267   6.739 -0.4885 -1.1216  0.6907
 1447SOL     OW 5239   5.190   6.545   4.089  0.1495 -0.2699  0.2727
 1447SOL    HW1 5240   5.148   6.633   4.109  0.8110 -0.6030  3.6408
 1447SOL    HW2 5241   5.128   6.490   4.032 -1.7431  1.1001  0.9235
 1448SOL     OW 5242   5.706   1.247   0.573 -0.1311  0.3539  0.6945
 1448SOL    HW1 5243   5.757   1.175   0.525  1.0610  1.3569  0.4054
 1448SOL    HW2 5244   5.608   1.225   0.572  0.1597 -1.0289  0.2373
 1449SOL     OW 5245   5.842   4.274   6.879 -0.5243 -0.1147 -0.1343
 1449SOL    HW1 5246   5.842   4.301   6.783 -0.9866  0.5103  0.0326
 1449SOL    HW2 5247   5.888   4.186   6.890 -0.7998 -0.3671 -0.9766
 1450SOL     OW 5248   0.894   2.778   3.037 -0.2462 -0.3373 -0.7527
 1450SOL    HW1 5249   0.872   2.803   2.943  0.0781  1.9422 -0.2803
 1450SOL    HW2 5250   0.866   2.852   3.099  0.5770 -1.2841  0.8157
 1451SOL     OW 5251   3.962   0.276   2.773 -0.0872 -0.6263 -0.1180
 1451SOL    HW1 5252   3.885   0.306   2.830 -0.0577  0.7973 -0.7915
 1451SOL    HW2 5253   3.941   0.186   2.735 -0.0080 -1.7468  2.2877
 1452SOL     OW 5254   4.772   1.106   5.761 -0.2222  0.5497 -0.5402
 1452SOL    HW1 5255   4.784   1.204   5.742  0.4378  0.5723 -0.0324
 1452SOL    HW2 5256   4.815   1.084   5.848 -0.9426 -0.0666 -0.3326
 1453SOL     OW 5257   5.306   5.635   5.063  0.5619  0.2343 -0.1254
 1453SOL    HW1 5258   5.264   5.645   5.153  0.1769  1.4092 -0.4109
 1453SOL    HW2 5259   5.248   5.679   4.995  1.2616  0.0900 -0.8242
 1454SOL     OW 5260   5.150   4.614   0.282  0.0797  0.3545 -0.4238
 1454SOL    HW1 5261   5.211   4.618   0.203  1.6439  2.2803  0.7849
 1454SOL    HW2 5262   5.196   4.566   0.357  0.2754  2.0780  0.5967
 1455SOL     OW 5263   1.079   1.771   1.515  0.0600  0.5811  0.4361
 1455SOL    HW1 5264   1.058   1.855   1.464 -1.3792 -0.0124 -0.0038
 1455SOL    HW2 5265   1.096   1.697   1.451  1.5686  0.5712  0.8249
 1456SOL     OW 5266   6.821   6.047   4.322 -0.4299  0.2598  0.5826
 1456SOL    HW1 5267   6.911   6.027   4.360  0.2087  0.0615 -0.9586
 1456SOL    HW2 5268   6.820   6.138   4.282 -0.2324 -0.4806 -1.2225
 1457SOL     OW 5269   4.250   1.445   1.687  0.1644 -0.7883  0.4113
 1457SOL    HW1 5270   4.299   1.448   1.600 -0.0082 -0.8110  0.3137
 1457SOL    HW2 5271   4.313   1.417   1.760  0.1284 -1.4928  0.1688
 1458SOL     OW 5272   0.052   5.790   5.568  0.2162 -0.2768 -0.1487
 1458SOL    HW1 5273  -0.012   5.812   5.494 -0.8632 -4.5595 -0.7411
 1458SOL    HW2 5274   0.000   5.769   5.651  1.2923  1.6953  1.1019
 1459SOL     OW 5275   1.888   3.786   6.878  0.8536 -0.8537 -0.2517
 1459SOL    HW1 5276   1.889   3.701   6.826  0.4790 -2.1200  1.7175
 1459SOL    HW2 5277   1.823   3.778   6.953 -0.4018  1.7694 -0.9218
 1460SOL     OW 5278   0.457   4.824   4.475 -0.8445 -0.1748 -0.2233
 1460SOL    HW1 5279   0.499   4.788   4.392 -0.1028  0.4603 -0.1330
 1460SOL    HW2 5280   0.452   4.751   4.544  1.9256  0.1666  0.4558
 1461SOL     OW 5281   0.798   6.240   3.945 -0.2576 -0.1238  0.5167
 1461SOL    HW1 5282   0.824   6.145   3.930  0.7607  0.1795  0.2724
 1461SOL    HW2 5283   0.851   6.278   4.021  0.9332  0.8434 -0.7279
 1462SOL     OW 5284   5.989   3.983   6.117  0.1715  0.1549 -0.4008
 1462SOL    HW1 5285   5.935   3.948   6.040  0.4869 -0.4346 -0.3600
 1462SOL    HW2 5286   6.059   4.046   6.082 -0.4047  0.7603 -0.4742
 1463SOL     OW 5287   6.916   0.008   6.873 -0.1655 -0.2218 -0.1292
 1463SOL    HW1 5288   6.988   0.077   6.869 -0.4774  0.2345  1.3561
 1463SOL    HW2 5289   6.955  -0.082   6.855  1.0489 -0.1316  1.7961
 1464SOL     OW 5290   1.837   1.386   1.231  0.6090 -0.7430  0.1741
 1464SOL    HW1 5291   1.748   1.431   1.240 -0.1686 -1.9704 -0.9493
 1464SOL    HW2 5292   1.892   1.403   1.313 -0.1355  1.1401  0.3242
 1465SOL     OW 5293   1.253   1.607   3.286 -0.1266  0.2020 -0.3192
 1465SOL    HW1 5294   1.197   1.626   3.206  0.2127 -0.8179 -0.8133
 1465SOL    HW2 5295   1.195   1.601   3.367 -0.6660 -0.3008 -0.7374
 1466SOL     OW 5296   6.693   0.399   3.343 -0.2148  0.0545  0.5957
 1466SOL    HW1 5297   6.753   0.341   3.287 -0.7315  0.7616 -0.7301
 1466SOL    HW2 5298   6.623   0.343   3.386 -0.8294 -0.2981 -0.8329
 1467SOL     OW 5299   2.137   6.863   0.802 -0.5202  0.3732 -0.6408
 1467SOL    HW1 5300   2.191   6.947   0.797  0.0807 -0.0075 -0.6399
 1467SOL    HW2 5301   2.078   6.866   0.883  0.0292  0.4813 -0.2404
 1468SOL     OW 5302   6.245   5.003   1.739  0.2237  0.0726 -0.2905
 1468SOL    HW1 5303   6.220   4.954   1.823 -0.6841  2.6973  1.0884
 1468SOL    HW2 5304   6.232   4.943   1.660 -0.3584 -2.0115  1.2914
 1469SOL     OW 5305   1.840   5.961   4.112 -0.3637  0.8813  0.4773
 1469SOL    HW1 5306   1.910   6.019   4.070 -0.5079  0.4716 -0.3491
 1469SOL    HW2 5307   1.762   6.018   4.139 -0.5300  1.0723 -0.3862
 1470SOL     OW 5308   1.294   2.191   4.336 -0.3630  0.4778 -0.1680
 1470SOL    HW1 5309   1.253   2.255   4.271 -1.4575 -0.4034 -0.3765
 1470SOL    HW2 5310   1.349   2.123   4.287  1.4056  1.6432  0.1105
 1471SOL     OW 5311   2.122   1.321   0.352  0.1308 -0.2424 -0.0463
 1471SOL    HW1 5312   2.208   1.271   0.363  0.6496  0.5988 -0.1684
 1471SOL    HW2 5313   2.124   1.373   0.266 -0.6005 -0.4104 -0.1702
 1472SOL     OW 5314   4.870   5.847   6.318  0.4930  0.7802 -0.1324
 1472SOL    HW1 5315   4.886   5.806   6.408  1.5214  0.7030 -0.3434
 1472SOL    HW2 5316   4.918   5.794   6.248  1.0292  1.7710 -0.5316
 1473SOL     OW 5317   4.519   6.471   4.374 -0.3260 -0.1020 -0.4543
 1473SOL    HW1 5318   4.520   6.433   4.282  0.6603  1.5955 -1.1861
 1473SOL    HW2 5319   4.468   6.410   4.435  0.3500 -2.0590 -1.7605
 1474SOL     OW 5320   0.868   6.576   4.696  0.3005 -0.1190 -0.9612
 1474SOL    HW1 5321   0.917   6.500   4.737 -0.7740 -0.4710 -0.3173
 1474SOL    HW2 5322   0.876   6.657   4.755 -3.5857 -1.3339  1.5904
 1475SOL     OW 5323   0.687   6.396   1.067 -0.0458  0.1543 -0.5190
 1475SOL    HW1 5324   0.717   6.328   1.000 -0.5997 -0.4842 -0.1255
 1475SOL    HW2 5325   0.768   6.439   1.109  0.3173  0.7138 -1.7212
 1476SOL     OW 5326   1.195   6.629   1.268 -0.5075  0.6505  0.1481
 1476SOL    HW1 5327   1.213   6.726   1.287  0.2482  0.7751 -1.1318
 1476SOL    HW2 5328   1.142   6.621   1.184  0.8605 -0.1022 -0.6762
 1477SOL     OW 5329   3.415   6.985   0.310 -0.0238 -0.6576 -0.7106
 1477SOL    HW1 5330   3.384   6.939   0.228 -1.1529  3.1513 -2.6716
 1477SOL    HW2 5331   3.507   7.021   0.296 -0.9641  1.7258 -1.2186
 1478SOL     OW 5332   3.791   3.565   6.572 -0.1125 -0.7291 -0.1857
 1478SOL    HW1 5333   3.875   3.564   6.627 -0.2494  0.7197  0.1093
 1478SOL    HW2 5334   3.713   3.542   6.630 -0.0706 -0.7549 -0.1396
 1479SOL     OW 5335   1.002   1.862   6.376  0.1562 -0.3752 -0.3923
 1479SOL    HW1 5336   1.062   1.894   6.302 -1.9415  0.5024 -1.8116
 1479SOL    HW2 5337   0.972   1.939   6.431  0.0566 -0.7475  0.0772
 1480SOL     OW 5338   2.370   0.305   2.110  0.3553 -0.2450  0.4506
 1480SOL    HW1 5339   2.346   0.395   2.146  0.8867 -0.2901  0.9212
 1480SOL    HW2 5340   2.459   0.277   2.145  0.5115 -0.6541 -0.2395
 1481SOL     OW 5341   6.005   2.742   5.101  0.1292 -0.0092  0.2596
 1481SOL    HW1 5342   6.012   2.842   5.092  2.6626 -0.0374  1.1573
 1481SOL    HW2 5343   5.931   2.709   5.043  0.8399  2.1372 -2.0489
 1482SOL     OW 5344   4.826   1.868   1.065  0.3435  0.5917  0.4530
 1482SOL    HW1 5345   4.754   1.810   1.028 -0.7253  1.8477  0.5000
 1482SOL    HW2 5346   4.899   1.879   0.996  0.1460 -0.0944  0.1321
 1483SOL     OW 5347   6.186   6.087   3.785  0.0196 -0.1973  0.0792
 1483SOL    HW1 5348   6.250   6.133   3.847 -0.8210  0.1249  0.7283
 1483SOL    HW2 5349   6.092   6.110   3.811 -0.4375 -2.1551  0.3512
 1484SOL     OW 5350   0.343   3.018   3.218 -0.0990  0.5074 -0.0650
 1484SOL    HW1 5351   0.301   2.929   3.237  1.8205 -0.5406 -0.4954
 1484SOL    HW2 5352   0.283   3.091   3.252 -1.0384 -0.9657  1.6142
 1485SOL     OW 5353   4.861   3.396   3.581  0.0083  0.1567 -0.3172
 1485SOL    HW1 5354   4.942   3.413   3.637  0.5863  0.9955 -1.3691
 1485SOL    HW2 5355   4.792   3.466   3.602  0.8236  1.4390 -1.7215
 1486SOL     OW 5356   4.712   2.824   3.604  0.3565  0.4220 -0.7782
 1486SOL    HW1 5357   4.679   2.770   3.682 -0.6859  1.1432 -0.6965
 1486SOL    HW2 5358   4.751   2.910   3.638  0.2010  0.5915 -1.0277
 1487SOL     OW 5359   6.831   3.155   0.989  0.8661  0.0728 -0.2005
 1487SOL    HW1 5360   6.856   3.059   0.996 -0.4060 -0.2241  0.4694
 1487SOL    HW2 5361   6.907   3.206   0.948  2.7794 -0.6844  2.1568
 1488SOL     OW 5362   5.636   3.294   2.801 -0.3283  0.4844  0.2800
 1488SOL    HW1 5363   5.708   3.260   2.862  0.7568 -0.5381 -1.4735
 1488SOL    HW2 5364   5.604   3.219   2.743 -1.5841  1.3366 -0.1604
 1489SOL     OW 5365   3.931   5.480   5.178  0.2069  0.1462 -0.1708
 1489SOL    HW1 5366   4.019   5.433   5.171 -0.9113 -2.1921  0.5664
 1489SOL    HW2 5367   3.884   5.452   5.261 -1.4657  0.9521 -0.7837
 1490SOL     OW 5368   1.312   1.854   6.978  0.2280  0.4097  0.4271
 1490SOL    HW1 5369   1.324   1.840   7.076 -0.8273 -0.7134  0.4188
 1490SOL    HW2 5370   1.263   1.940   6.963  0.4995  0.6484  0.8728
 1491SOL     OW 5371   0.544   4.732   4.198 -0.8325 -0.5473  0.1197
 1491SOL    HW1 5372   0.499   4.720   4.110  0.4014 -0.9904 -0.4826
 1491SOL    HW2 5373   0.631   4.781   4.184  0.4929 -2.5787  0.7238
 1492SOL     OW 5374   6.662   3.494   1.286  0.3207  0.1623  0.3710
 1492SOL    HW1 5375   6.569   3.486   1.322  0.3863 -2.7712  0.0856
 1492SOL    HW2 5376   6.658   3.505   1.186  0.3050  1.5041  0.4934
 1493SOL     OW 5377   5.718   1.902   0.019 -0.2536  0.6080 -0.0675
 1493SOL    HW1 5378   5.706   1.964   0.096  0.2713  0.1872  0.3733
 1493SOL    HW2 5379   5.668   1.936  -0.060 -1.0794  0.8762  0.5525
 1494SOL     OW 5380   6.655   1.382   4.971 -0.1223  0.0364 -0.7346
 1494SOL    HW1 5381   6.629   1.441   4.895 -0.2899  0.3267 -0.4582
 1494SOL    HW2 5382   6.754   1.367   4.971 -0.2900 -1.2103 -1.8974
 1495SOL     OW 5383   0.515   4.418   1.981  0.1832 -0.2892 -0.2085
 1495SOL    HW1 5384   0.433   4.463   1.945  0.6897 -0.2189 -1.3300
 1495SOL    HW2 5385   0.578   4.488   2.017  0.3744 -0.2030 -0.6951
 1496SOL     OW 5386   1.285   0.670   1.005  0.6675 -0.0778 -0.4465
 1496SOL    HW1 5387   1.384   0.661   1.006  0.8323  1.1565 -2.1568
 1496SOL    HW2 5388   1.258   0.752   1.056  0.4821 -0.5115  0.1766
 1497SOL     OW 5389   1.268   4.028   4.581 -0.2027 -0.2008 -0.4359
 1497SOL    HW1 5390   1.354   3.978   4.576 -0.6002 -0.8738 -0.7433
 1497SOL    HW2 5391   1.273   4.096   4.654  0.3910 -0.6101 -0.0823
 1498SOL     OW 5392   1.216   3.322   3.720  0.0617 -0.2329 -0.2082
 1498SOL    HW1 5393   1.169   3.409   3.705  0.5851 -0.2843 -2.5897
 1498SOL    HW2 5394   1.206   3.294   3.816  0.5518  2.8209  0.8472
 1499SOL     OW 5395   6.733   2.536   6.029 -0.6769  0.1758 -0.2943
 1499SOL    HW1 5396   6.731   2.614   6.092  1.1369 -1.9801  2.6593
 1499SOL    HW2 5397   6.826   2.525   5.994 -0.2399 -2.0772  1.3872
 1500SOL     OW 5398   5.187   6.959   1.023 -0.3678  0.2162  0.3334
 1500SOL    HW1 5399   5.277   6.989   0.992 -0.3539  0.2649  0.4201
 1500SOL    HW2 5400   5.198   6.895   1.099 -0.4346  1.3162  1.3040
 1501SOL     OW 5401   4.445   0.175   6.103  0.3484  0.4544 -0.6063
 1501SOL    HW1 5402   4.469   0.198   6.197  0.4571 -0.2090 -0.4629
 1501SOL    HW2 5403   4.380   0.242   6.067  0.7193  1.0099 -0.2418
 1502SOL     OW 5404   6.405   6.950   0.808 -0.0595 -0.4880 -0.0614
 1502SOL    HW1 5405   6.323   6.954   0.751  0.9484 -0.8151 -1.5829
 1502SOL    HW2 5406   6.456   7.036   0.800  0.6857 -0.9708 -0.5851
 1503SOL     OW 5407   0.729   3.855   6.852  0.0003  0.1993 -0.1898
 1503SOL    HW1 5408   0.778   3.769   6.866 -0.1317  0.3048  1.0312
 1503SOL    HW2 5409   0.764   3.900   6.770  2.8016  0.8404  1.2157
 1504SOL     OW 5410   2.136   0.066   3.057 -0.1161  0.4234  0.0245
 1504SOL    HW1 5411   2.115   0.163   3.042  0.9016  0.9443  1.6876
 1504SOL    HW2 5412   2.234   0.052   3.048 -0.1619 -0.2955  0.5720
 1505SOL     OW 5413   5.550   6.483   6.902  0.0355  0.1879 -0.0269
 1505SOL    HW1 5414   5.563   6.389   6.872 -0.1367  0.1321  0.0769
 1505SOL    HW2 5415   5.547   6.487   7.002 -0.9214  0.1767 -0.0464
 1506SOL     OW 5416   1.989   6.938   2.817  0.0896  0.0905  0.0574
 1506SOL    HW1 5417   2.016   6.963   2.910  0.0397  1.6226 -0.3086
 1506SOL    HW2 5418   2.060   6.967   2.753 -0.7444  0.8075 -0.5633
 1507SOL     OW 5419   0.986   1.781   5.667 -0.8969 -0.1435 -0.0039
 1507SOL    HW1 5420   0.924   1.836   5.612  0.4122 -1.2113 -2.7562
 1507SOL    HW2 5421   1.060   1.839   5.701 -2.4804  0.8176  1.9688
 1508SOL     OW 5422   5.776   0.425   0.559  0.0890  0.2521 -0.1762
 1508SOL    HW1 5423   5.695   0.480   0.540  0.0692 -0.0967 -1.1729
 1508SOL    HW2 5424   5.813   0.389   0.473 -0.6687 -2.3584  0.4800
 1509SOL     OW 5425   4.015   2.167   4.897  0.2137 -0.4350  0.1022
 1509SOL    HW1 5426   3.976   2.091   4.846 -2.7033  0.4679  0.7813
 1509SOL    HW2 5427   4.092   2.206   4.846  0.1094 -2.1789 -1.4842
 1510SOL     OW 5428   6.664   0.709   3.977  0.4151  0.2797  0.0593
 1510SOL    HW1 5429   6.700   0.627   4.021 -2.0882 -0.9746 -0.0446
 1510SOL    HW2 5430   6.627   0.771   4.046 -1.6504 -0.7585 -0.0136
 1511SOL     OW 5431   2.851   1.922   0.229 -0.3668  0.1322  0.2490
 1511SOL    HW1 5432   2.778   1.854   0.215 -0.9455  0.8643 -0.3841
 1511SOL    HW2 5433   2.863   1.939   0.326  0.4062 -1.5392  0.4732
 1512SOL     OW 5434   6.455   0.789   1.009  0.3018  0.2884  0.5215
 1512SOL    HW1 5435   6.429   0.700   1.048  4.0240 -0.8388  0.8225
 1512SOL    HW2 5436   6.525   0.775   0.939  0.4477  2.9827  0.0414
 1513SOL     OW 5437   5.176   0.268   2.472  0.4202  0.0799  0.1815
 1513SOL    HW1 5438   5.256   0.315   2.509  1.1482 -1.3162  0.4294
 1513SOL    HW2 5439   5.169   0.177   2.511 -0.0616 -0.6230 -1.4555
 1514SOL     OW 5440   6.477   2.140   2.573  0.1341  0.6546  0.1392
 1514SOL    HW1 5441   6.436   2.052   2.549  0.8279  0.9289 -2.3985
 1514SOL    HW2 5442   6.523   2.132   2.661  0.0172 -1.4717  0.0711
 1515SOL     OW 5443   1.009   3.254   6.528 -0.2450  0.4566 -0.1831
 1515SOL    HW1 5444   0.980   3.242   6.623 -0.1932  0.0491 -0.2177
 1515SOL    HW2 5445   0.943   3.312   6.480  0.6942  2.2318  0.5781
 1516SOL     OW 5446   6.438   0.894   6.231  0.1521 -0.2048  0.5866
 1516SOL    HW1 5447   6.457   0.894   6.133 -2.7937 -0.9228 -0.1019
 1516SOL    HW2 5448   6.507   0.948   6.280  0.0232  2.7248 -2.2190
 1517SOL     OW 5449   4.627   5.415   4.500 -0.2484 -0.3998  0.2514
 1517SOL    HW1 5450   4.619   5.435   4.403  0.1009 -0.3897  0.2206
 1517SOL    HW2 5451   4.559   5.347   4.527 -0.5468 -0.1761  0.0656
 1518SOL     OW 5452   0.031   2.471   6.420 -0.0129  0.2070 -0.5977
 1518SOL    HW1 5453   0.042   2.569   6.405 -0.3019  0.3764  0.2447
 1518SOL    HW2 5454   0.121   2.428   6.428  0.1731  0.1181 -2.5664
 1519SOL     OW 5455   4.390   5.125   0.435  0.1853 -0.4506  0.6119
 1519SOL    HW1 5456   4.297   5.122   0.398  0.6068  1.5909 -0.7448
 1519SOL    HW2 5457   4.428   5.217   0.423  2.4669 -1.2873  0.9811
 1520SOL     OW 5458   1.540   3.558   1.827 -0.9211  0.7019  0.5127
 1520SOL    HW1 5459   1.469   3.591   1.765 -1.5133 -0.9894  0.2357
 1520SOL    HW2 5460   1.499   3.535   1.916 -0.5290  0.7128  0.6992
 1521SOL     OW 5461   2.075   2.991   0.336  0.7475 -0.4256 -0.0661
 1521SOL    HW1 5462   2.057   3.088   0.351 -2.5312 -1.1389  1.6896
 1521SOL    HW2 5463   2.170   2.971   0.360  1.4376  2.2527 -0.2023
 1522SOL     OW 5464   5.987   2.195   5.817  0.3436  0.1827 -0.5375
 1522SOL    HW1 5465   5.914   2.139   5.855  1.3813 -0.7723  0.0972
 1522SOL    HW2 5466   6.069   2.139   5.802  1.9232  1.7730  1.5081
 1523SOL     OW 5467   3.617   4.610   0.541  0.5501 -0.5416 -0.2134
 1523SOL    HW1 5468   3.618   4.702   0.581 -0.5247 -0.8464  0.5879
 1523SOL    HW2 5469   3.569   4.612   0.454 -0.8666 -0.5807  0.5308
 1524SOL     OW 5470   0.261   1.019   2.998  0.3078 -0.2210 -0.2630
 1524SOL    HW1 5471   0.276   0.970   2.912 -1.0865  1.0852 -1.3041
 1524SOL    HW2 5472   0.293   0.963   3.074  0.4259 -1.9506 -1.5287
 1525SOL     OW 5473   4.438   3.627   5.311  0.2104  0.0970  0.4643
 1525SOL    HW1 5474   4.528   3.633   5.267 -0.4158 -1.6712 -1.1880
 1525SOL    HW2 5475   4.450   3.616   5.410  1.6891  2.8995  0.7081
 1526SOL     OW 5476   0.492   2.270   2.967 -0.0421 -0.1863  0.1969
 1526SOL    HW1 5477   0.398   2.249   2.996 -1.0016  0.0687 -2.4918
 1526SOL    HW2 5478   0.530   2.339   3.028 -1.8480  0.2131  0.9622
 1527SOL     OW 5479   3.825   0.190   4.677  0.0988 -0.3334  0.8832
 1527SOL    HW1 5480   3.743   0.230   4.635  0.7864  0.3206  0.1391
 1527SOL    HW2 5481   3.845   0.236   4.763 -1.6869 -2.0962  2.3315
 1528SOL     OW 5482   4.756   5.002   2.184  0.2624  0.0525 -0.5166
 1528SOL    HW1 5483   4.835   4.948   2.155 -0.2667 -1.4793  0.7934
 1528SOL    HW2 5484   4.736   4.985   2.280 -0.0745  2.4571 -0.0850
 1529SOL     OW 5485   3.940   1.813   4.733 -0.1736 -0.8782 -0.3079
 1529SOL    HW1 5486   3.903   1.902   4.709 -1.0250 -0.9227  0.7651
 1529SOL    HW2 5487   3.943   1.754   4.652  1.4732  0.4597 -1.2895
 1530SOL     OW 5488   3.521   6.117   1.346 -0.1979 -0.3061 -0.2479
 1530SOL    HW1 5489   3.597   6.086   1.403  0.5354 -0.9205 -1.5037
 1530SOL    HW2 5490   3.552   6.192   1.287 -0.3778 -0.9377 -1.1788
 1531SOL     OW 5491   6.901   1.059   4.539 -0.2330 -0.0896  0.0194
 1531SOL    HW1 5492   6.878   1.147   4.498 -0.4203  0.1868  0.6972
 1531SOL    HW2 5493   6.999   1.044   4.535 -0.2270  0.0454 -0.3135
 1532SOL     OW 5494   2.360   1.800   5.315 -0.2630 -0.6418  0.0347
 1532SOL    HW1 5495   2.436   1.843   5.268 -0.3267  1.1056  1.4272
 1532SOL    HW2 5496   2.283   1.790   5.253  0.6901 -1.3549 -1.0669
 1533SOL     OW 5497   6.386   2.463   5.666 -0.2477 -0.3688  0.1703
 1533SOL    HW1 5498   6.324   2.506   5.732  0.9598  0.5555  0.7492
 1533SOL    HW2 5499   6.468   2.520   5.656  0.0182 -0.9862 -1.4240
 1534SOL     OW 5500   2.333   3.074   6.705  0.3838 -0.1646 -0.0683
 1534SOL    HW1 5501   2.347   2.979   6.733 -1.1376 -0.4442 -0.1553
 1534SOL    HW2 5502   2.235   3.095   6.706  0.7102  1.5560  0.4102
 1535SOL     OW 5503   5.484   1.240   3.910 -0.6553  0.4506  0.1056
 1535SOL    HW1 5504   5.462   1.337   3.912  1.5588  1.0109  0.1259
 1535SOL    HW2 5505   5.534   1.216   3.994 -2.7739 -1.1640  0.9868
 1536SOL     OW 5506   3.132   4.529   6.126  0.2936 -0.2007 -0.1525
 1536SOL    HW1 5507   3.217   4.480   6.105  0.8263  1.1065 -1.2603
 1536SOL    HW2 5508   3.110   4.590   6.049 -0.5819  0.9246  0.9551
 1537SOL     OW 5509   4.568   5.895   2.036 -0.3264  0.0912 -0.5473
 1537SOL    HW1 5510   4.607   5.829   2.099  0.2231 -0.2915 -1.2759
 1537SOL    HW2 5511   4.498   5.949   2.083 -0.4462 -0.6821  0.1805
 1538SOL     OW 5512   2.852   0.123   5.250 -0.2046  0.2211  0.1315
 1538SOL    HW1 5513   2.829   0.067   5.330 -1.1534 -0.3283 -0.5084
 1538SOL    HW2 5514   2.768   0.152   5.204  0.3074 -0.8739 -1.6185
 1539SOL     OW 5515   3.379   1.838   6.741  0.3657  0.2463  0.1154
 1539SOL    HW1 5516   3.367   1.912   6.807  0.2666  1.0605 -0.7850
 1539SOL    HW2 5517   3.306   1.770   6.752  0.5258  0.2207  1.0277
 1540SOL     OW 5518   0.829   6.975   6.001 -0.3320  0.4258  0.7159
 1540SOL    HW1 5519   0.815   7.003   5.906 -0.3206 -0.9616  0.2808
 1540SOL    HW2 5520   0.926   6.972   6.022 -0.2375 -0.9217  0.2113
 1541SOL     OW 5521   4.166   1.312   1.012 -0.5030  0.1360  0.3223
 1541SOL    HW1 5522   4.166   1.412   1.022  0.9715  0.1843 -0.0338
 1541SOL    HW2 5523   4.179   1.270   1.102  1.8114  0.3545  0.1455
 1542SOL     OW 5524   5.606   4.717   2.883 -0.3044 -0.1588  0.5333
 1542SOL    HW1 5525   5.567   4.798   2.926  0.8848 -0.2212  1.7723
 1542SOL    HW2 5526   5.705   4.718   2.892 -0.2310 -1.5347  0.1887
 1543SOL     OW 5527   3.173   3.188   4.401  0.8434 -0.1349  0.2478
 1543SOL    HW1 5528   3.118   3.154   4.477  1.1564  0.9735  1.0005
 1543SOL    HW2 5529   3.210   3.278   4.425  0.3766  0.5549 -1.4778
 1544SOL     OW 5530   3.491   2.711   1.832 -0.0825  0.4430 -0.5301
 1544SOL    HW1 5531   3.414   2.695   1.770 -0.6001  0.7204  0.0178
 1544SOL    HW2 5532   3.471   2.793   1.887  0.0482 -0.1901  0.4697
 1545SOL     OW 5533   5.031   0.178   0.538  0.8978  0.1806  1.3826
 1545SOL    HW1 5534   4.988   0.221   0.458  3.8309 -0.5471 -0.7675
 1545SOL    HW2 5535   5.112   0.231   0.564  1.5351 -1.1072  2.0998
 1546SOL     OW 5536   5.680   0.360   6.609  0.6460  0.1416 -0.0905
 1546SOL    HW1 5537   5.754   0.305   6.570  0.1234 -1.1011  0.6311
 1546SOL    HW2 5538   5.680   0.451   6.566  2.5822  0.1704 -0.1123
 1547SOL     OW 5539   1.465   2.273   4.040 -0.1734  0.3262  0.3704
 1547SOL    HW1 5540   1.465   2.173   4.045  0.0140  0.3738  2.8263
 1547SOL    HW2 5541   1.532   2.309   4.106 -0.6612  2.0768 -0.0408
 1548SOL     OW 5542   6.338   4.235   5.289 -0.0147 -0.0698  0.4557
 1548SOL    HW1 5543   6.321   4.158   5.351  3.3774  0.3156  2.0606
 1548SOL    HW2 5544   6.436   4.240   5.267 -0.6926  1.3578 -3.0086
 1549SOL     OW 5545   4.601   1.420   2.321  0.4545  0.5193  0.2938
 1549SOL    HW1 5546   4.555   1.410   2.409  1.3677 -1.0057  0.6429
 1549SOL    HW2 5547   4.596   1.516   2.292 -1.7793  0.6418  0.9000
 1550SOL     OW 5548   2.463   6.731   6.544 -0.1696 -0.0228  0.2714
 1550SOL    HW1 5549   2.523   6.760   6.619 -0.2906  1.1835 -0.0834
 1550SOL    HW2 5550   2.499   6.646   6.505  0.9045  0.2880  0.5356
 1551SOL     OW 5551   0.476   3.366   1.208 -0.3116  0.1125  0.0736
 1551SOL    HW1 5552   0.423   3.409   1.281  0.6880  3.0575 -0.7756
 1551SOL    HW2 5553   0.546   3.430   1.176 -0.1692 -1.3719 -2.9183
 1552SOL     OW 5554   1.792   0.023   1.946 -0.0023  0.1078 -0.1757
 1552SOL    HW1 5555   1.887  -0.000   1.966 -0.3072 -1.6236 -0.6268
 1552SOL    HW2 5556   1.787   0.072   1.859  0.3642 -1.0200 -0.8520
 1553SOL     OW 5557   4.844   2.870   6.087 -0.7579 -0.0707  0.3526
 1553SOL    HW1 5558   4.745   2.858   6.081 -0.8307  1.0551 -1.1432
 1553SOL    HW2 5559   4.874   2.935   6.018  1.4615 -2.7427 -1.3957
 1554SOL     OW 5560   4.774   1.450   3.522  0.3820 -0.2168 -0.0789
 1554SOL    HW1 5561   4.821   1.384   3.462 -1.2196 -0.2566 -1.3574
 1554SOL    HW2 5562   4.707   1.402   3.578  0.6893  0.0540  0.5229
 1555SOL     OW 5563   5.412   3.345   4.675 -0.1481 -0.2548  0.0972
 1555SOL    HW1 5564   5.342   3.414   4.697 -1.2349 -0.6147 -1.9186
 1555SOL    HW2 5565   5.394   3.262   4.727 -0.2413  0.1842  0.7866
 1556SOL     OW 5566   3.170   0.092   1.625 -0.1734 -0.1105  0.0736
 1556SOL    HW1 5567   3.112   0.117   1.547  1.1019  0.4478 -0.7379
 1556SOL    HW2 5568   3.201  -0.002   1.615 -0.0022 -0.0358 -0.1011
 1557SOL     OW 5569   3.904   1.965   0.711  0.6436 -0.2324 -0.0825
 1557SOL    HW1 5570   3.873   1.992   0.802 -2.3314  2.9600 -1.7897
 1557SOL    HW2 5571   3.977   2.026   0.681  1.2481 -0.9335 -0.0611
 1558SOL     OW 5572   4.856   0.666   4.333  0.0387  0.0335 -0.3388
 1558SOL    HW1 5573   4.864   0.602   4.409  1.8200 -0.4575 -0.9005
 1558SOL    HW2 5574   4.856   0.760   4.368  0.5677 -0.1981  0.2950
 1559SOL     OW 5575   6.576   2.969   1.587  0.1189  0.5058  0.1135
 1559SOL    HW1 5576   6.592   2.905   1.662  1.1055 -0.9389 -1.2567
 1559SOL    HW2 5577   6.532   3.052   1.622  0.4595 -0.1585  2.2414
 1560SOL     OW 5578   3.974   0.660   0.863  0.3670 -0.3151 -0.0193
 1560SOL    HW1 5579   3.881   0.693   0.845  0.3513 -0.4929 -0.2657
 1560SOL    HW2 5580   3.974   0.603   0.945  0.4154  0.3961  0.4864
 1561SOL     OW 5581   4.376   5.607   1.414  0.5805  0.0259  0.1652
 1561SOL    HW1 5582   4.372   5.653   1.325 -0.1518 -1.4099 -0.5788
 1561SOL    HW2 5583   4.283   5.589   1.446  0.7815 -2.4561 -0.4263
 1562SOL     OW 5584   3.169   4.832   2.166 -0.3943 -0.0578 -0.4421
 1562SOL    HW1 5585   3.178   4.798   2.072 -0.1219  1.9273 -1.1886
 1562SOL    HW2 5586   3.095   4.783   2.212 -0.6379 -0.9664 -1.7432
 1563SOL     OW 5587   2.793   1.787   5.113  0.4905  0.1975  0.1967
 1563SOL    HW1 5588   2.696   1.814   5.115  0.1006 -1.1078  0.0518
 1563SOL    HW2 5589   2.815   1.738   5.198  1.4716  1.8675  0.9461
 1564SOL     OW 5590   1.466   2.973   1.462 -0.8360 -0.5105 -0.3222
 1564SOL    HW1 5591   1.482   3.010   1.553 -1.3661 -1.4141  0.1522
 1564SOL    HW2 5592   1.526   3.018   1.396  0.1649 -0.4536  0.6108
 1565SOL     OW 5593   4.506   4.695   3.255 -0.0085 -0.4953 -0.1906
 1565SOL    HW1 5594   4.432   4.761   3.273 -0.2977 -0.3725 -1.7165
 1565SOL    HW2 5595   4.571   4.697   3.331  0.0671  1.6627 -0.2507
 1566SOL     OW 5596   5.138   6.720   4.599  0.0448  0.5752 -0.0093
 1566SOL    HW1 5597   5.224   6.762   4.570 -0.4984  1.6386 -0.1351
 1566SOL    HW2 5598   5.111   6.651   4.532 -0.1888  1.6184 -1.0426
 1567SOL     OW 5599   6.670   6.200   0.160  0.8082  0.1506  0.0208
 1567SOL    HW1 5600   6.590   6.151   0.194  1.0546 -1.2432 -1.3094
 1567SOL    HW2 5601   6.663   6.297   0.185 -1.4746  0.1449 -0.4001
 1568SOL     OW 5602   2.924   0.638   3.314  0.5314 -0.2614  0.4874
 1568SOL    HW1 5603   2.940   0.692   3.231 -2.2711 -0.6155 -0.3725
 1568SOL    HW2 5604   2.963   0.547   3.303  1.0165  0.0052 -0.0421
 1569SOL     OW 5605   3.225   6.407   1.345 -0.6105  0.9818 -0.2248
 1569SOL    HW1 5606   3.323   6.402   1.365 -0.0987 -1.2225 -2.6834
 1569SOL    HW2 5607   3.199   6.501   1.324  1.8480  1.1653 -3.0323
 1570SOL     OW 5608   0.595   5.729   6.102 -0.0132  0.2559 -0.0561
 1570SOL    HW1 5609   0.609   5.652   6.040  0.2013 -0.4113  0.7949
 1570SOL    HW2 5610   0.601   5.814   6.051 -0.4504 -0.2936 -1.0526
 1571SOL     OW 5611   0.289   2.407   3.684 -0.3497 -0.0587  0.3419
 1571SOL    HW1 5612   0.202   2.417   3.731 -0.3089  1.4161  0.1396
 1571SOL    HW2 5613   0.280   2.439   3.590  0.8221  1.7773  0.8102
 1572SOL     OW 5614   3.385   6.130   3.197 -0.8667  0.0470  0.0701
 1572SOL    HW1 5615   3.408   6.193   3.272 -0.5435 -0.8980  0.7892
 1572SOL    HW2 5616   3.395   6.177   3.110  1.4647  0.4219  0.4584
 1573SOL     OW 5617   5.669   4.117   2.033  0.2948 -0.9274  0.3482
 1573SOL    HW1 5618   5.723   4.197   2.060 -0.2776 -0.5733  0.4752
 1573SOL    HW2 5619   5.605   4.094   2.107  3.0737 -3.9377  2.0772
 1574SOL     OW 5620   4.998   2.074   1.412 -0.8114  0.6639 -0.3714
 1574SOL    HW1 5621   4.960   2.078   1.504  0.3067 -0.9723  0.1969
 1574SOL    HW2 5622   5.037   2.163   1.388  0.0493  0.7593  1.2687
 1575SOL     OW 5623   1.992   6.230   3.289 -0.0491 -0.7043 -0.0744
 1575SOL    HW1 5624   1.931   6.203   3.362  0.9287 -1.5707  0.4506
 1575SOL    HW2 5625   2.075   6.270   3.328 -0.5566  1.1390 -0.7859
 1576SOL     OW 5626   2.089   4.917   3.152 -0.0784  0.5524  0.7127
 1576SOL    HW1 5627   2.023   4.962   3.212 -1.3168  0.3413 -0.4107
 1576SOL    HW2 5628   2.098   4.821   3.178 -0.5318  0.4855  0.6297
 1577SOL     OW 5629   2.895   0.982   6.301 -0.0991  0.4367 -0.4489
 1577SOL    HW1 5630   2.816   1.041   6.317  0.6955  1.2311  0.7291
 1577SOL    HW2 5631   2.895   0.951   6.206  0.3525  3.7152 -1.6505
 1578SOL     OW 5632   5.123   2.907   1.916 -0.3181  0.4927 -0.4217
 1578SOL    HW1 5633   5.168   2.836   1.861  1.1156  1.0352 -0.0065
 1578SOL    HW2 5634   5.115   2.990   1.861  1.1304  1.0407  0.1325
 1579SOL     OW 5635   5.630   2.756   1.218 -0.4658  0.6493 -0.3396
 1579SOL    HW1 5636   5.551   2.731   1.274  0.2532 -0.2321  0.3069
 1579SOL    HW2 5637   5.664   2.846   1.247 -0.3270  0.3642  0.3942
 1580SOL     OW 5638   3.388   3.861   4.908 -0.0316  0.0278 -0.0105
 1580SOL    HW1 5639   3.314   3.870   4.975  0.0902  0.7215  0.0421
 1580SOL    HW2 5640   3.471   3.829   4.953  0.0999  0.6626  0.2185
 1581SOL     OW 5641   5.890   2.754   4.699 -0.5162  0.3485 -0.8393
 1581SOL    HW1 5642   5.966   2.690   4.687 -0.7299 -0.6129  2.2021
 1581SOL    HW2 5643   5.920   2.846   4.674  1.1775 -0.2434 -1.1117
 1582SOL     OW 5644   4.516   4.532   4.245 -0.4448 -0.1696 -0.1667
 1582SOL    HW1 5645   4.419   4.528   4.268 -0.1820  1.7488  1.6897
 1582SOL    HW2 5646   4.536   4.621   4.202  0.5540 -0.3586 -0.1167
 1583SOL     OW 5647   2.143   4.957   3.786  0.4668  0.0531 -0.7083
 1583SOL    HW1 5648   2.188   5.014   3.854  0.0495 -3.2619  2.6255
 1583SOL    HW2 5649   2.180   4.864   3.789 -3.7329 -1.8725 -0.4648
 1584SOL     OW 5650   0.624   6.016   6.941 -0.5059 -0.8582 -0.3247
 1584SOL    HW1 5651   0.669   6.093   6.986 -0.6264 -0.1800 -1.3427
 1584SOL    HW2 5652   0.609   5.943   7.008 -1.6934  0.5500  1.0388
 1585SOL     OW 5653   5.464   1.011   2.789  0.4486  0.2529 -0.7911
 1585SOL    HW1 5654   5.553   0.994   2.748  0.7379 -0.9371  0.2691
 1585SOL    HW2 5655   5.474   1.028   2.887 -0.4583  0.4142 -0.7142
 1586SOL     OW 5656   2.489   5.905   2.338  0.1402 -0.0181  0.2047
 1586SOL    HW1 5657   2.519   5.949   2.253 -2.5402 -1.9477 -1.9485
 1586SOL    HW2 5658   2.490   5.971   2.413  3.0520  1.6559 -1.1251
 1587SOL     OW 5659   1.140   6.944   6.160 -0.5510 -0.0882 -0.4853
 1587SOL    HW1 5660   1.238   6.926   6.168 -0.5232 -0.4003 -1.3804
 1587SOL    HW2 5661   1.113   7.016   6.224  0.0817 -0.6533  0.4305
 1588SOL     OW 5662   5.333   1.497   3.822  0.8250  0.3575 -0.0013
 1588SOL    HW1 5663   5.371   1.570   3.879 -0.3754  0.4675  0.7058
 1588SOL    HW2 5664   5.236   1.487   3.843  1.0327 -1.6787  0.1504
 1589SOL     OW 5665   6.078   4.526   4.932  0.0868  0.2930  0.0143
 1589SOL    HW1 5666   6.006   4.458   4.921  1.1770 -0.9399  0.3659
 1589SOL    HW2 5667   6.056   4.586   5.009 -1.0201  0.5745 -0.4823
 1590SOL     OW 5668   5.214   5.799   3.948  0.3734 -0.1714 -0.2998
 1590SOL    HW1 5669   5.232   5.878   3.889  1.8015 -0.6059 -0.4614
 1590SOL    HW2 5670   5.207   5.716   3.892  0.0741 -0.3502 -0.0061
 1591SOL     OW 5671   1.960   6.078   6.169 -0.3732 -0.1920 -0.8069
 1591SOL    HW1 5672   1.956   6.177   6.155  0.3253  0.0497  0.6093
 1591SOL    HW2 5673   2.053   6.046   6.153  0.1668 -0.0953  1.7843
 1592SOL     OW 5674   2.425   2.249   0.524  0.4723 -0.0533  0.3193
 1592SOL    HW1 5675   2.457   2.255   0.618  0.6965 -1.7597  0.3916
 1592SOL    HW2 5676   2.360   2.323   0.506  1.9143  1.4774  1.1830
 1593SOL     OW 5677   1.127   6.033   0.762 -0.7571 -0.4101 -0.5757
 1593SOL    HW1 5678   1.082   6.022   0.674  0.6321  0.1152 -1.3886
 1593SOL    HW2 5679   1.141   5.944   0.805 -2.6041 -0.5783 -0.2510
 1594SOL     OW 5680   5.901   6.186   0.946 -0.6492 -0.3696  0.6389
 1594SOL    HW1 5681   5.961   6.263   0.968  1.5270 -1.6764 -0.3495
 1594SOL    HW2 5682   5.956   6.103   0.935 -2.6241 -1.6081 -0.5851
 1595SOL     OW 5683   0.739   4.594   0.747 -0.1906 -0.3333 -0.1438
 1595SOL    HW1 5684   0.679   4.650   0.691 -0.1738 -2.0547 -1.9956
 1595SOL    HW2 5685   0.790   4.652   0.809 -1.0484  1.5538 -1.1277
 1596SOL     OW 5686   6.590   4.399   1.810  0.3887  0.1084  0.4044
 1596SOL    HW1 5687   6.556   4.358   1.895 -1.7950 -2.6865 -1.6296
 1596SOL    HW2 5688   6.512   4.434   1.758  1.5042  0.3116 -1.1651
 1597SOL     OW 5689   2.444   5.093   1.692 -0.6107  0.0137  0.0795
 1597SOL    HW1 5690   2.518   5.160   1.692  0.4784 -1.1643  0.2981
 1597SOL    HW2 5691   2.412   5.079   1.786 -0.1845 -0.4696  0.1554
 1598SOL     OW 5692   1.962   5.639   0.202  0.0838  0.0881  0.4001
 1598SOL    HW1 5693   1.927   5.547   0.222  0.6583  0.2056  2.1430
 1598SOL    HW2 5694   2.062   5.638   0.211  0.0401  1.0151  1.0483
 1599SOL     OW 5695   5.435   4.315   4.493 -0.1699  0.3300  0.2130
 1599SOL    HW1 5696   5.467   4.289   4.584  1.5478 -0.5497 -0.5859
 1599SOL    HW2 5697   5.338   4.292   4.483  0.0456 -1.1779  1.2517
 1600SOL     OW 5698   4.169   0.499   1.253  0.4246 -0.5781  0.5455
 1600SOL    HW1 5699   4.090   0.480   1.195  0.0728  1.9062  0.0676
 1600SOL    HW2 5700   4.141   0.499   1.349 -0.0086 -0.3685  0.4204
 1601SOL     OW 5701   0.831   0.418   4.698  0.2571 -1.0634  0.0424
 1601SOL    HW1 5702   0.842   0.346   4.629 -0.1472  0.9237 -2.2297
 1601SOL    HW2 5703   0.891   0.495   4.677  0.1030 -0.3689  1.9307
 1602SOL     OW 5704   3.986   4.865   5.092 -0.2019  0.1133 -0.5614
 1602SOL    HW1 5705   4.074   4.824   5.069  0.0032  0.6622 -0.7550
 1602SOL    HW2 5706   3.989   4.902   5.185 -0.4536 -0.4867 -0.3094
 1603SOL     OW 5707   3.611   5.007   3.675  0.3608 -0.8852 -0.0981
 1603SOL    HW1 5708   3.664   4.952   3.610  0.8173  0.5235 -0.9455
 1603SOL    HW2 5709   3.556   5.074   3.626  1.3381  0.7671  0.9654
 1604SOL     OW 5710   3.324   5.888   1.943 -0.5808  0.4318 -0.0836
 1604SOL    HW1 5711   3.328   5.838   1.856  0.2404  1.5156 -0.7062
 1604SOL    HW2 5712   3.312   5.986   1.923 -1.4447  0.5803  1.0708
 1605SOL     OW 5713   5.365   4.496   6.875  0.2396 -0.0035 -0.1388
 1605SOL    HW1 5714   5.283   4.523   6.825 -0.0010 -0.6551 -0.1109
 1605SOL    HW2 5715   5.354   4.402   6.908  0.9248 -0.0342  0.0149
 1606SOL     OW 5716   3.173   6.622   6.299 -0.6333  0.3312  0.4592
 1606SOL    HW1 5717   3.166   6.538   6.354 -1.5087  0.7821  1.0560
 1606SOL    HW2 5718   3.137   6.699   6.352 -1.3051  0.8135 -0.6744
 1607SOL     OW 5719   5.735   0.171   0.206 -0.1347 -0.2460 -0.1989
 1607SOL    HW1 5720   5.705   0.094   0.262  0.6963 -0.6662 -0.3176
 1607SOL    HW2 5721   5.822   0.148   0.162 -0.4290  0.3436 -1.1042
 1608SOL     OW 5722   5.842   1.057   3.694  0.2975 -0.3390  0.0935
 1608SOL    HW1 5723   5.821   1.036   3.789  0.6140 -1.5417 -0.0869
 1608SOL    HW2 5724   5.869   0.973   3.646  3.1064  0.6483 -0.2934
 1609SOL     OW 5725   2.695   5.564   1.520  0.5875 -0.3582  0.5616
 1609SOL    HW1 5726   2.738   5.570   1.611 -0.9558 -0.9247  1.3690
 1609SOL    HW2 5727   2.671   5.656   1.489 -0.2229 -0.2582  1.4258
 1610SOL     OW 5728   2.509   6.587   1.589  0.0875  0.3368  0.0016
 1610SOL    HW1 5729   2.495   6.684   1.573 -0.3585  0.5014  1.3042
 1610SOL    HW2 5730   2.570   6.550   1.518  0.3956  1.5850 -0.4079
 1611SOL     OW 5731   0.258   1.485   1.133 -0.4774 -0.2832 -0.2350
 1611SOL    HW1 5732   0.230   1.390   1.147 -1.6168  0.0617 -0.1434
 1611SOL    HW2 5733   0.269   1.502   1.035 -0.7982 -0.3670 -0.2868
 1612SOL     OW 5734   4.617   1.091   3.288 -0.5090 -0.0006 -0.1313
 1612SOL    HW1 5735   4.646   1.040   3.207 -0.4800 -1.4895  0.7794
 1612SOL    HW2 5736   4.517   1.101   3.288 -0.5286 -0.2021 -0.2416
 1613SOL     OW 5737   1.467   6.833   2.461 -0.6358 -0.6097  0.5318
 1613SOL    HW1 5738   1.390   6.790   2.508  0.1582  0.1119  2.5854
 1613SOL    HW2 5739   1.432   6.894   2.390 -2.0142  0.1411  1.7947
 1614SOL     OW 5740   5.168   2.923   6.767 -0.0711 -0.3410  0.3203
 1614SOL    HW1 5741   5.206   2.992   6.705 -3.3437  0.4777 -0.9499
 1614SOL    HW2 5742   5.193   2.946   6.861  1.4530  0.8079 -0.3163
 1615SOL     OW 5743   5.897   5.978   0.301  0.1041  0.3363 -0.1723
 1615SOL    HW1 5744   5.882   5.967   0.203 -1.3240  1.4111 -0.1124
 1615SOL    HW2 5745   5.928   6.072   0.319 -0.9266  0.5641  0.5062
 1616SOL     OW 5746   4.613   0.073   2.930  0.3472  0.1416 -0.0062
 1616SOL    HW1 5747   4.667   0.107   2.853  1.2082 -0.9828  0.0740
 1616SOL    HW2 5748   4.669   0.074   3.013  0.0464 -0.4405  0.2128
 1617SOL     OW 5749   6.528   5.388   2.516 -1.0129 -0.2188  0.2856
 1617SOL    HW1 5750   6.567   5.437   2.438 -0.1494 -0.9603  0.2473
 1617SOL    HW2 5751   6.584   5.404   2.597 -0.7350 -1.1173  0.2789
 1618SOL     OW 5752   5.916   4.052   2.218 -0.3105  0.1799 -0.5472
 1618SOL    HW1 5753   5.886   4.097   2.134 -1.1517  0.0012 -0.3525
 1618SOL    HW2 5754   5.987   4.107   2.262  0.2904  0.1751 -1.4756
 1619SOL     OW 5755   6.359   4.416   1.070  0.0533  0.7502  0.2950
 1619SOL    HW1 5756   6.275   4.362   1.065 -0.2550  1.3064 -0.9235
 1619SOL    HW2 5757   6.374   4.446   1.164 -0.8334  0.2098  0.6189
 1620SOL     OW 5758   2.760   4.138   0.799 -0.4249  0.1786 -0.3390
 1620SOL    HW1 5759   2.748   4.062   0.863 -0.8978 -0.3880 -1.0737
 1620SOL    HW2 5760   2.789   4.220   0.849  0.0784 -0.4742  0.4683
 1621SOL     OW 5761   6.035   4.988   0.333  0.3069  0.2582 -0.4305
 1621SOL    HW1 5762   6.095   5.030   0.265 -0.4743 -1.7599 -2.5028
 1621SOL    HW2 5763   6.078   4.906   0.370 -0.1920  0.1160 -0.1511
 1622SOL     OW 5764   6.884   3.991   6.253 -0.0033  0.2285  0.1763
 1622SOL    HW1 5765   6.846   3.919   6.311  1.6645  0.3918  1.5318
 1622SOL    HW2 5766   6.911   3.952   6.165 -1.5737 -0.2301 -0.1412
 1623SOL     OW 5767   0.044   3.829   4.124  0.1343 -0.2460 -1.1360
 1623SOL    HW1 5768  -0.019   3.903   4.100  0.5217  0.8050  0.8697
 1623SOL    HW2 5769   0.069   3.837   4.220 -0.7804 -3.7039 -0.4648
 1624SOL     OW 5770   4.596   6.706   0.687 -0.4166  0.3135 -0.4076
 1624SOL    HW1 5771   4.585   6.788   0.743 -1.4310 -0.8870  1.2465
 1624SOL    HW2 5772   4.513   6.691   0.633 -0.2748  0.3211 -0.6295
 1625SOL     OW 5773   1.598   4.804   5.553  0.0669  0.1188 -0.6892
 1625SOL    HW1 5774   1.651   4.879   5.511  0.0327 -0.1232 -1.1726
 1625SOL    HW2 5775   1.593   4.818   5.652  0.6707  0.3765 -0.6901
 1626SOL     OW 5776   5.080   6.893   6.157 -0.1688  0.5724  0.4598
 1626SOL    HW1 5777   5.125   6.804   6.163 -3.9316 -1.4485  3.1102
 1626SOL    HW2 5778   5.037   6.903   6.067  0.4031 -0.2381  0.0885
 1627SOL     OW 5779   4.781   1.774   5.087 -0.4950  0.0269 -0.0990
 1627SOL    HW1 5780   4.731   1.773   5.174  1.0776  0.5364  0.8586
 1627SOL    HW2 5781   4.774   1.684   5.043  1.3720 -1.3898  2.2197
 1628SOL     OW 5782   3.971   5.722   6.902  0.2904 -0.6671  0.6289
 1628SOL    HW1 5783   3.873   5.735   6.884  0.6785 -0.8606 -2.1345
 1628SOL    HW2 5784   4.024   5.779   6.839  2.0340  1.0202  3.4313
 1629SOL     OW 5785   1.249   2.558   3.721 -0.1118  0.4158  0.3733
 1629SOL    HW1 5786   1.236   2.480   3.782 -1.8823  0.6579  0.3869
 1629SOL    HW2 5787   1.312   2.534   3.648  0.3256 -0.6070  1.0654
 1630SOL     OW 5788   0.465   4.980   5.363 -0.3258 -0.2023  0.2630
 1630SOL    HW1 5789   0.513   5.053   5.411 -0.5417  0.0380  0.1136
 1630SOL    HW2 5790   0.412   5.018   5.288  0.3997 -0.6247 -0.4823
 1631SOL     OW 5791   1.806   5.154   6.293  0.1254  0.4356 -0.2611
 1631SOL    HW1 5792   1.769   5.062   6.280  1.1366 -0.2688  1.4845
 1631SOL    HW2 5793   1.742   5.208   6.347 -0.7118  0.9738 -1.7286
 1632SOL     OW 5794   5.066   2.961   2.188 -0.0330  0.2549 -0.0056
 1632SOL    HW1 5795   4.967   2.953   2.189  0.0818 -1.3751  0.9008
 1632SOL    HW2 5796   5.097   2.969   2.093 -0.9229 -1.1966 -0.4624
 1633SOL     OW 5797   4.863   5.195   5.729 -0.1512 -0.2787  0.0607
 1633SOL    HW1 5798   4.923   5.274   5.715 -1.9235  1.2199  0.6109
 1633SOL    HW2 5799   4.797   5.190   5.654 -0.8216 -0.5174  0.6618
 1634SOL     OW 5800   4.455   6.708   2.294  0.2253 -0.1263  0.0915
 1634SOL    HW1 5801   4.376   6.739   2.242  0.7934 -0.4662 -1.0003
 1634SOL    HW2 5802   4.425   6.670   2.382 -0.8399 -0.3960 -0.3765
 1635SOL     OW 5803   0.857   4.664   6.547  0.6721  0.0511  0.3181
 1635SOL    HW1 5804   0.762   4.673   6.576  0.2666  1.2344 -1.2575
 1635SOL    HW2 5805   0.918   4.690   6.622 -0.1596 -2.3071  1.9008
 1636SOL     OW 5806   1.475   4.422   2.390 -0.4056 -0.2896  0.3440
 1636SOL    HW1 5807   1.495   4.492   2.322 -0.8295 -0.4398  0.0621
 1636SOL    HW2 5808   1.560   4.380   2.421 -0.3094 -1.5138 -1.4409
 1637SOL     OW 5809   6.179   5.975   2.824 -0.0176  0.0540  0.0286
 1637SOL    HW1 5810   6.143   5.882   2.828 -0.9959  0.2624 -2.1410
 1637SOL    HW2 5811   6.154   6.025   2.906 -2.1398 -0.7293 -0.0912
 1638SOL     OW 5812   5.861   2.012   3.169 -0.3363  0.3682 -0.4065
 1638SOL    HW1 5813   5.863   2.040   3.072 -0.7478  1.1551 -0.1982
 1638SOL    HW2 5814   5.926   2.068   3.220 -0.1004 -0.0674 -0.2297
 1639SOL     OW 5815   4.616   4.972   0.540  0.2214  0.5028  0.2474
 1639SOL    HW1 5816   4.687   4.963   0.470 -0.0490  0.3952 -0.0196
 1639SOL    HW2 5817   4.542   5.029   0.503  0.1809  0.6335  0.5305
 1640SOL     OW 5818   6.417   2.716   1.171  0.2160  0.7977  0.7170
 1640SOL    HW1 5819   6.317   2.714   1.170  0.2023  1.2411 -0.2397
 1640SOL    HW2 5820   6.449   2.757   1.256 -0.4276  1.1023  0.8138
 1641SOL     OW 5821   6.891   2.711   1.666 -0.1209 -0.2893  0.1975
 1641SOL    HW1 5822   6.944   2.794   1.651  0.1772 -0.6616 -0.9471
 1641SOL    HW2 5823   6.804   2.733   1.709  0.2222  0.5295  0.4880
 1642SOL     OW 5824   5.813   4.553   5.726  0.1511 -0.0370  0.4916
 1642SOL    HW1 5825   5.795   4.485   5.655 -1.9875  0.6373  0.3204
 1642SOL    HW2 5826   5.780   4.518   5.814  0.8336  0.0029  0.7677
 1643SOL     OW 5827   2.457   4.992   3.773  0.1855 -0.3022  0.3002
 1643SOL    HW1 5828   2.442   4.994   3.674  0.1941 -1.3894  0.2708
 1643SOL    HW2 5829   2.540   4.940   3.793 -1.0612 -2.1099  0.9957
 1644SOL     OW 5830   6.629   2.789   6.488 -0.5434 -0.0630  0.3903
 1644SOL    HW1 5831   6.579   2.857   6.435  0.4052 -0.0701 -0.5555
 1644SOL    HW2 5832   6.670   2.722   6.426  0.4567 -0.1780  1.1378
 1645SOL     OW 5833   2.881   6.731   5.274  0.5637  0.3628  0.2523
 1645SOL    HW1 5834   2.810   6.796   5.303 -0.6476 -0.6821 -0.2682
 1645SOL    HW2 5835   2.969   6.759   5.311  0.0270  2.1515  0.2518
 1646SOL     OW 5836   0.452   1.835   1.282  0.0223  1.0281 -0.3137
 1646SOL    HW1 5837   0.425   1.882   1.366 -0.2631  0.5345 -0.1253
 1646SOL    HW2 5838   0.527   1.772   1.302  1.5559  2.5751 -0.8787
 1647SOL     OW 5839   6.987   2.342   4.606  0.3790  0.3444 -0.4476
 1647SOL    HW1 5840   6.947   2.256   4.572  0.8438 -0.9983  2.0872
 1647SOL    HW2 5841   6.966   2.416   4.543 -1.6970 -1.2641 -1.7941
 1648SOL     OW 5842   4.541   4.764   0.005  0.3665  0.4562 -0.8525
 1648SOL    HW1 5843   4.531   4.787  -0.092  1.4813 -1.0023 -1.3616
 1648SOL    HW2 5844   4.475   4.692   0.030  1.6728 -0.9338 -1.2204
 1649SOL     OW 5845   3.425   1.325   4.869 -0.1629 -0.4103  0.2153
 1649SOL    HW1 5846   3.523   1.320   4.886 -0.0648  0.1253 -0.1586
 1649SOL    HW2 5847   3.382   1.383   4.938  0.1053  1.0505 -0.7994
 1650SOL     OW 5848   2.055   6.145   4.058  0.1397  0.5795 -0.4198
 1650SOL    HW1 5849   2.119   6.140   4.135 -0.3650  2.0048  0.1255
 1650SOL    HW2 5850   2.014   6.236   4.055 -2.6548 -0.5613 -0.0922
 1651SOL     OW 5851   0.539   3.872   1.130  0.2702 -0.8423 -0.3389
 1651SOL    HW1 5852   0.557   3.965   1.100 -0.8903 -0.3389  0.4325
 1651SOL    HW2 5853   0.566   3.862   1.226  0.6618 -1.3913 -0.5011
 1652SOL     OW 5854   1.446   3.110   3.129  0.1132  0.3617 -0.4438
 1652SOL    HW1 5855   1.416   3.187   3.072  1.2201  1.5745  0.5333
 1652SOL    HW2 5856   1.546   3.112   3.137  0.0667 -0.4777  0.5680
 1653SOL     OW 5857   2.110   5.643   1.574  0.4922 -0.3034  0.6775
 1653SOL    HW1 5858   2.136   5.550   1.602  2.5450  0.3712  1.2070
 1653SOL    HW2 5859   2.184   5.683   1.520 -1.2468  0.3035 -1.3899
 1654SOL     OW 5860   1.556   3.145   0.323  0.1941  0.1354  0.1951
 1654SOL    HW1 5861   1.562   3.241   0.299 -1.7260 -0.4634 -3.3067
 1654SOL    HW2 5862   1.632   3.095   0.282  0.1136 -0.1187  0.3516
 1655SOL     OW 5863   0.273   0.781   4.254 -0.4313  0.1565 -0.7519
 1655SOL    HW1 5864   0.263   0.879   4.239  0.4401  0.6496  1.5456
 1655SOL    HW2 5865   0.193   0.746   4.303  1.1710  0.7221  2.5206
 1656SOL     OW 5866   1.810   6.161   3.045 -0.8931 -0.2876 -1.3143
 1656SOL    HW1 5867   1.877   6.093   3.077 -0.5824  1.1799  1.4912
 1656SOL    HW2 5868   1.857   6.230   2.991 -0.2546  0.2276 -0.1438
 1657SOL     OW 5869   4.285   0.940   5.041 -0.0818  0.2285 -0.3261
 1657SOL    HW1 5870   4.275   0.989   5.128 -0.3298  0.8836 -0.7179
 1657SOL    HW2 5871   4.278   0.841   5.058  3.1147  0.0982  0.8935
 1658SOL     OW 5872   6.477   5.177   0.179 -0.0100  0.7695 -0.5719
 1658SOL    HW1 5873   6.524   5.257   0.216 -0.0876  0.3946  0.3662
 1658SOL    HW2 5874   6.497   5.169   0.081  3.5383 -0.4941  0.1311
 1659SOL     OW 5875   4.105   6.777   6.864  0.1058  0.2914  0.1938
 1659SOL    HW1 5876   4.111   6.700   6.801  3.1438  0.3651  0.2533
 1659SOL    HW2 5877   4.113   6.863   6.813 -1.4923  0.5462  0.3178
 1660SOL     OW 5878   1.955   0.513   1.080 -0.0304 -0.2401 -0.0792
 1660SOL    HW1 5879   1.938   0.444   1.009 -1.7156 -1.4865  1.4574
 1660SOL    HW2 5880   1.911   0.599   1.053 -1.2533 -0.9004 -0.2607
 1661SOL     OW 5881   1.118   6.302   0.278 -0.7105 -0.0914  0.4234
 1661SOL    HW1 5882   1.206   6.344   0.301 -0.4080 -0.1895 -0.5129
 1661SOL    HW2 5883   1.113   6.212   0.319 -0.9555  0.4517  1.6299
 1662SOL     OW 5884   5.867   0.029   4.436  0.4525 -0.5494  0.4270
 1662SOL    HW1 5885   5.833  -0.054   4.392  0.4687 -0.8286  0.9424
 1662SOL    HW2 5886   5.860   0.020   4.535  0.5969  0.0037  0.4896
 1663SOL     OW 5887   3.781   5.513   3.756 -0.2126  0.0795 -0.3872
 1663SOL    HW1 5888   3.814   5.550   3.843  1.6477 -1.2346 -0.4632
 1663SOL    HW2 5889   3.684   5.490   3.764  0.3676 -2.0180  2.1080
 1664SOL     OW 5890   2.200   6.380   6.310 -0.6761  0.1048  0.0963
 1664SOL    HW1 5891   2.198   6.295   6.363  0.8589  0.1297  0.2570
 1664SOL    HW2 5892   2.188   6.458   6.371  1.7353  0.1704  0.6087
 1665SOL     OW 5893   6.334   4.527   2.125  0.3249  0.2716 -0.6251
 1665SOL    HW1 5894   6.417   4.484   2.089  0.6633 -0.7306  1.2300
 1665SOL    HW2 5895   6.272   4.457   2.161 -0.2013  1.1620  0.2715
 1666SOL     OW 5896   5.872   6.681   0.860 -0.1056  0.3651  0.1371
 1666SOL    HW1 5897   5.960   6.729   0.852  1.2364 -2.0865 -0.7919
 1666SOL    HW2 5898   5.832   6.669   0.769 -0.6901  0.2007  0.4128
 1667SOL     OW 5899   6.123   4.760   2.231  0.3780 -0.4175  1.2028
 1667SOL    HW1 5900   6.223   4.758   2.227  0.5895  1.8921 -4.7064
 1667SOL    HW2 5901   6.091   4.854   2.234 -1.5992 -1.0437  1.4885
 1668SOL     OW 5902   4.031   5.576   2.370  0.5297 -0.3064  0.0599
 1668SOL    HW1 5903   4.024   5.676   2.376  0.2336 -0.3319  0.1544
 1668SOL    HW2 5904   3.942   5.538   2.345  0.0296 -0.7382  2.3246
 1669SOL     OW 5905   6.514   5.168   6.911  0.1320 -0.2372  0.5088
 1669SOL    HW1 5906   6.450   5.121   6.850 -0.0544  2.9028 -1.9587
 1669SOL    HW2 5907   6.607   5.139   6.890 -0.1562 -2.3317  1.8100
 1670SOL     OW 5908   1.020   5.631   5.715  0.0387 -0.1492  0.0203
 1670SOL    HW1 5909   0.956   5.592   5.649  1.2618 -1.8508 -0.2291
 1670SOL    HW2 5910   0.970   5.679   5.787 -1.4515 -0.7274 -0.6006
 1671SOL     OW 5911   5.961   6.222   4.208 -0.2488 -0.0923  0.4033
 1671SOL    HW1 5912   5.882   6.178   4.251 -0.1878 -0.7060 -0.1041
 1671SOL    HW2 5913   5.936   6.251   4.116  0.6956 -2.2061 -0.5889
 1672SOL     OW 5914   4.518   2.811   5.813  0.7537  0.1973 -0.2311
 1672SOL    HW1 5915   4.539   2.813   5.910  0.3845 -1.2063 -0.0974
 1672SOL    HW2 5916   4.428   2.851   5.797  1.3452  1.6010 -0.1758
 1673SOL     OW 5917   6.344   6.920   5.346  0.0170  0.7666  0.1443
 1673SOL    HW1 5918   6.401   6.847   5.382  0.3182  0.5440 -0.7587
 1673SOL    HW2 5919   6.259   6.926   5.399 -0.5123 -0.9778 -0.4319
 1674SOL     OW 5920   6.845   4.405   2.742 -0.1504  0.1073 -0.0244
 1674SOL    HW1 5921   6.851   4.349   2.825 -1.2602 -1.0538 -0.6873
 1674SOL    HW2 5922   6.792   4.487   2.761 -1.4937 -0.7594  0.1569
 1675SOL     OW 5923   5.913   6.913   0.444  0.1077 -0.0689  0.1775
 1675SOL    HW1 5924   5.883   7.004   0.474 -1.4753 -0.3950 -0.3015
 1675SOL    HW2 5925   5.868   6.844   0.501 -0.1450 -0.5942 -0.6484
 1676SOL     OW 5926   1.417   4.931   1.921 -0.1326  0.2442 -0.2819
 1676SOL    HW1 5927   1.417   4.967   2.014  2.1467  1.1479 -0.5709
 1676SOL    HW2 5928   1.339   4.969   1.871 -1.2798 -0.1206  1.1701
 1677SOL     OW 5929   4.038   3.219   3.361  0.7094 -0.4343  0.6626
 1677SOL    HW1 5930   3.980   3.260   3.291  2.7691  0.9246 -0.3492
 1677SOL    HW2 5931   4.111   3.283   3.385  1.2763 -1.7197  2.5341
 1678SOL     OW 5932   6.843   6.021   1.152  0.1823 -0.7796 -0.2094
 1678SOL    HW1 5933   6.771   5.999   1.087 -0.5809 -3.0643  1.2986
 1678SOL    HW2 5934   6.925   6.051   1.102 -1.0984 -0.1949 -2.0469
 1679SOL     OW 5935   1.780   0.605   3.628 -0.1366 -0.4011  0.1966
 1679SOL    HW1 5936   1.709   0.663   3.668 -0.9228 -1.4938  0.4454
 1679SOL    HW2 5937   1.824   0.552   3.701  0.8860  0.2045  0.0299
 1680SOL     OW 5938   6.077   4.670   5.892 -0.3502 -0.3646 -0.1084
 1680SOL    HW1 5939   6.058   4.615   5.810  0.6474  0.3779 -0.8685
 1680SOL    HW2 5940   5.994   4.717   5.920 -0.9589 -1.4151 -0.0706
 1681SOL     OW 5941   1.204   0.137   6.346  0.1092  0.2975 -0.0402
 1681SOL    HW1 5942   1.148   0.170   6.422  0.4744  0.1180  0.3071
 1681SOL    HW2 5943   1.296   0.115   6.379  1.1381  2.7812 -0.9914
 1682SOL     OW 5944   2.469   6.518   4.304  0.0174 -0.3668  0.3345
 1682SOL    HW1 5945   2.433   6.553   4.391 -1.4000  0.2674 -0.4598
 1682SOL    HW2 5946   2.565   6.496   4.314 -0.5798 -2.3184  2.6389
 1683SOL     OW 5947   5.041   5.122   2.769  0.3731  0.1740 -0.2575
 1683SOL    HW1 5948   5.027   5.148   2.865  0.1192 -1.5385  0.1942
 1683SOL    HW2 5949   4.975   5.171   2.712 -0.6431 -0.0925  0.6580
 1684SOL     OW 5950   0.564   6.756   2.190  0.1126  0.1994 -0.0786
 1684SOL    HW1 5951   0.628   6.700   2.137  0.8082  0.0171  0.9354
 1684SOL    HW2 5952   0.613   6.833   2.231 -0.6590  1.0369 -0.6920
 1685SOL     OW 5953   3.314   2.142   5.269 -0.3440  0.5189  0.2244
 1685SOL    HW1 5954   3.239   2.205   5.250 -0.2006  0.8105  0.6101
 1685SOL    HW2 5955   3.335   2.090   5.186 -0.6831  0.7426 -0.0069
 1686SOL     OW 5956   2.460   6.313   2.766  1.0008 -0.1001  0.1520
 1686SOL    HW1 5957   2.454   6.245   2.693  1.8163 -0.6455  0.5750
 1686SOL    HW2 5958   2.491   6.269   2.850  0.5765  0.6172  0.6985
 1687SOL     OW 5959   0.527   2.688   0.059  0.9982 -0.6193  0.2466
 1687SOL    HW1 5960   0.580   2.608   0.031 -0.5704 -1.7560  0.4087
 1687SOL    HW2 5961   0.445   2.696   0.001  1.0642  0.8146  0.3123
 1688SOL     OW 5962   1.637   2.582   3.352 -0.5384 -0.0167 -0.0091
 1688SOL    HW1 5963   1.661   2.505   3.292 -0.3458 -0.4286  0.5812
 1688SOL    HW2 5964   1.720   2.617   3.395 -0.6721  0.2967 -0.0057
 1689SOL     OW 5965   5.520   0.834   3.659 -0.2922 -0.1588  0.3543
 1689SOL    HW1 5966   5.469   0.764   3.609 -0.0279 -0.7662  0.9288
 1689SOL    HW2 5967   5.458   0.909   3.684 -0.4672  0.0708 -0.7104
 1690SOL     OW 5968   0.897   2.669   4.842 -0.0021  0.0121  0.2095
 1690SOL    HW1 5969   0.817   2.704   4.890 -0.1234 -0.7013  0.5537
 1690SOL    HW2 5970   0.878   2.664   4.744 -0.5062 -0.4469  0.3221
 1691SOL     OW 5971   6.742   2.417   5.280 -0.4816 -0.3987  0.2328
 1691SOL    HW1 5972   6.659   2.384   5.325  0.0222  0.4341  1.8216
 1691SOL    HW2 5973   6.779   2.344   5.222 -1.8262 -1.0714  0.1764
 1692SOL     OW 5974   4.551   4.903   1.883 -0.3272  0.1579  0.3776
 1692SOL    HW1 5975   4.520   4.957   1.804  1.1373 -1.4004 -1.3628
 1692SOL    HW2 5976   4.640   4.938   1.913  0.5809 -1.1018 -0.6934
 1693SOL     OW 5977   0.072   4.533   2.732 -0.1105 -0.4095  0.2301
 1693SOL    HW1 5978  -0.021   4.497   2.736 -0.4601  0.4370 -0.0133
 1693SOL    HW2 5979   0.134   4.473   2.782 -1.1319  0.0963  2.2053
 1694SOL     OW 5980   5.425   1.449   3.568  0.7512 -0.7286 -0.6297
 1694SOL    HW1 5981   5.406   1.466   3.664  0.7023 -1.2908 -0.5352
 1694SOL    HW2 5982   5.485   1.369   3.559  3.4284  1.1991 -0.9069
 1695SOL     OW 5983   2.824   2.264   0.919  0.0240 -0.0841 -0.0628
 1695SOL    HW1 5984   2.744   2.304   0.964  0.1220 -0.2953  0.3020
 1695SOL    HW2 5985   2.816   2.164   0.921  0.7814 -0.1334  0.8637
 1696SOL     OW 5986   2.546   0.165   0.011 -0.6368  0.6332 -0.3202
 1696SOL    HW1 5987   2.516   0.259  -0.009 -1.9187  0.1541 -0.7508
 1696SOL    HW2 5988   2.509   0.104  -0.059  2.5629  0.1557 -1.7675
 1697SOL     OW 5989   5.951   1.603   6.343  0.4491  0.0086  0.2587
 1697SOL    HW1 5990   5.876   1.639   6.287  0.6148  0.3030  0.2270
 1697SOL    HW2 5991   6.035   1.652   6.322  0.3943  0.5228  1.1696
 1698SOL     OW 5992   6.215   0.283   2.869  0.3537  0.9470  0.8515
 1698SOL    HW1 5993   6.184   0.378   2.874  0.4349  1.0367 -0.0894
 1698SOL    HW2 5994   6.165   0.236   2.796  2.2425  1.0331 -0.5716
 1699SOL     OW 5995   1.896   1.733   5.321  0.0096  0.2706  0.0992
 1699SOL    HW1 5996   1.797   1.727   5.310 -0.0220  1.1486 -0.2199
 1699SOL    HW2 5997   1.920   1.711   5.415 -0.4896  0.0805  0.1870
 1700SOL     OW 5998   4.684   3.844   1.109  0.6495  0.3425  0.1130
 1700SOL    HW1 5999   4.584   3.849   1.101  0.4933 -0.8743  1.0204
 1700SOL    HW2 6000   4.711   3.876   1.200  0.9490 -0.6526  0.3835
 1701SOL     OW 6001   3.455   5.779   0.704  0.4545 -0.3391  0.5801
 1701SOL    HW1 6002   3.382   5.827   0.655  1.5442  0.9362  0.1336
 1701SOL    HW2 6003   3.415   5.708   0.761 -0.9280 -1.4216 -1.5969
 1702SOL     OW 6004   6.411   0.867   1.796  0.0377 -0.3901 -0.0164
 1702SOL    HW1 6005   6.382   0.850   1.701 -1.6844  1.0633  0.2090
 1702SOL    HW2 6006   6.447   0.960   1.804  1.0025 -0.8006  0.6073
 1703SOL     OW 6007   3.262   1.804   5.761 -0.8897 -0.3509  0.2211
 1703SOL    HW1 6008   3.298   1.897   5.771 -1.1157 -0.0704 -1.2665
 1703SOL    HW2 6009   3.331   1.745   5.720 -1.7868  0.0231 -1.9944
 1704SOL     OW 6010   2.023   1.344   1.034 -0.4452  0.5656  0.0342
 1704SOL    HW1 6011   1.942   1.365   1.087 -1.1213  0.1429 -0.8049
 1704SOL    HW2 6012   2.101   1.328   1.095 -0.8300  1.6245  0.8139
 1705SOL     OW 6013   2.537   3.503   0.610  0.3299 -0.2433 -0.0501
 1705SOL    HW1 6014   2.577   3.488   0.520 -0.2931  1.1064 -0.5879
 1705SOL    HW2 6015   2.442   3.532   0.599  0.5481  0.9414  0.9770
 1706SOL     OW 6016   4.527   1.937   3.160 -0.2917 -0.3348  0.0619
 1706SOL    HW1 6017   4.550   1.909   3.253 -1.2609 -0.6605  0.2162
 1706SOL    HW2 6018   4.584   1.888   3.094 -2.1178 -2.9648  0.2999
 1707SOL     OW 6019   6.187   1.201   4.045 -0.0672  0.2152 -0.1849
 1707SOL    HW1 6020   6.272   1.253   4.053 -1.1653  1.7613  2.9464
 1707SOL    HW2 6021   6.200   1.110   4.084  0.2600  0.2999 -0.0895
 1708SOL     OW 6022   4.032   4.576   1.684  0.0367 -0.7083 -0.1770
 1708SOL    HW1 6023   3.969   4.645   1.720  0.6140 -0.5447  0.5410
 1708SOL    HW2 6024   4.077   4.612   1.602 -1.7506 -1.3211 -1.4932
 1709SOL     OW 6025   7.000   0.010   2.317  0.0240 -0.0469 -0.1463
 1709SOL    HW1 6026   6.926   0.058   2.271 -1.0411  0.3806  1.9169
 1709SOL    HW2 6027   6.965  -0.073   2.361  1.0858 -0.6615 -0.4009
 1710SOL     OW 6028   5.462   5.862   3.114 -0.4636 -1.2550  0.0511
 1710SOL    HW1 6029   5.471   5.808   3.198 -0.1850 -3.3691 -1.2563
 1710SOL    HW2 6030   5.497   5.809   3.037  3.5019  2.2460 -0.9029
 1711SOL     OW 6031   1.618   5.543   3.554 -0.1708  0.0193 -0.1002
 1711SOL    HW1 6032   1.606   5.528   3.456 -0.2429  1.8207 -0.3930
 1711SOL    HW2 6033   1.529   5.554   3.598 -0.1092 -0.0948  0.0561
 1712SOL     OW 6034   1.856   2.709   4.101 -0.1755  0.0245  0.7996
 1712SOL    HW1 6035   1.763   2.690   4.133 -0.6396  1.8684  0.6421
 1712SOL    HW2 6036   1.857   2.795   4.050  1.5567 -0.1697  0.4389
 1713SOL     OW 6037   4.919   2.753   2.512 -0.1336  0.1426  0.1424
 1713SOL    HW1 6038   4.847   2.696   2.553 -2.0668  1.3274 -1.4208
 1713SOL    HW2 6039   4.933   2.726   2.417 -0.3244  1.5685 -0.3067
 1714SOL     OW 6040   3.676   0.771   4.723  0.0018  0.6381 -0.3982
 1714SOL    HW1 6041   3.660   0.788   4.626  1.3417  0.1929 -0.7103
 1714SOL    HW2 6042   3.743   0.698   4.734 -1.2607 -0.3858  0.8820
 1715SOL     OW 6043   3.383   6.164   2.878 -0.5240  0.4090  0.0747
 1715SOL    HW1 6044   3.341   6.085   2.833 -0.8530 -0.0566  1.1790
 1715SOL    HW2 6045   3.461   6.195   2.824 -1.6773  0.6775 -1.4979
 1716SOL     OW 6046   4.902   6.797   5.355 -0.6574  0.5144 -0.1601
 1716SOL    HW1 6047   4.867   6.708   5.381  0.5038  0.1272  0.1570
 1716SOL    HW2 6048   4.982   6.819   5.412  0.4003  0.7782 -1.6834
 1717SOL     OW 6049   3.202   5.570   2.403 -0.1842  0.0395 -0.0371
 1717SOL    HW1 6050   3.218   5.478   2.439 -0.9758  0.0830  0.4488
 1717SOL    HW2 6051   3.183   5.565   2.305  2.7814 -0.0122 -0.7298
 1718SOL     OW 6052   3.089   2.168   2.451 -0.1860  0.6371 -0.0722
 1718SOL    HW1 6053   3.013   2.164   2.387 -0.0310  0.0774 -0.2325
 1718SOL    HW2 6054   3.175   2.169   2.400  0.0377 -2.0071  0.0804
 1719SOL     OW 6055   1.909   2.765   0.291 -0.1238 -0.7541  0.1859
 1719SOL    HW1 6056   1.953   2.705   0.224 -0.8712 -1.8077  0.6182
 1719SOL    HW2 6057   1.962   2.849   0.299  0.6954 -1.1538 -0.7737
 1720SOL     OW 6058   0.168   1.921   6.142  0.5066 -0.5512 -0.3865
 1720SOL    HW1 6059   0.192   1.867   6.061  1.1084 -2.4223  0.9707
 1720SOL    HW2 6060   0.185   1.867   6.224  0.4894  1.5099  1.0440
 1721SOL     OW 6061   1.795   0.941   0.553 -0.2690  0.3281  0.2122
 1721SOL    HW1 6062   1.821   0.916   0.646 -1.9180  1.2180  0.9625
 1721SOL    HW2 6063   1.846   1.022   0.524  0.0721  0.1905  0.4264
 1722SOL     OW 6064   2.790   2.192   3.699 -0.0349  0.0254  0.0140
 1722SOL    HW1 6065   2.759   2.113   3.645  1.9261  0.1763 -1.4552
 1722SOL    HW2 6066   2.873   2.167   3.749  0.2248  0.9469  0.0600
 1723SOL     OW 6067   5.411   1.478   0.842 -0.2345  0.1389  0.3099
 1723SOL    HW1 6068   5.333   1.488   0.780  0.9380 -0.1185 -1.2833
 1723SOL    HW2 6069   5.381   1.434   0.926 -1.9930  0.9880  0.1722
 1724SOL     OW 6070   0.385   0.718   1.975  0.2196  0.0380 -0.2651
 1724SOL    HW1 6071   0.432   0.641   1.933 -0.1629 -0.1457 -0.3599
 1724SOL    HW2 6072   0.368   0.788   1.906  0.0473 -0.0429 -0.3038
 1725SOL     OW 6073   1.868   4.352   6.017 -0.4133 -0.0002 -0.3842
 1725SOL    HW1 6074   1.794   4.368   6.083 -1.3413  0.5557 -1.5334
 1725SOL    HW2 6075   1.907   4.261   6.033  1.1823  1.0889  2.6296
 1726SOL     OW 6076   5.857   4.373   4.854 -0.5297 -0.1948  0.7443
 1726SOL    HW1 6077   5.866   4.287   4.803  0.7468 -0.0015  0.6330
 1726SOL    HW2 6078   5.772   4.419   4.827 -0.0266 -0.2367 -0.9912
 1727SOL     OW 6079   2.839   3.755   5.331 -0.1405  0.2788 -0.0867
 1727SOL    HW1 6080   2.877   3.845   5.350 -0.7397  0.7489 -1.0571
 1727SOL    HW2 6081   2.740   3.760   5.330 -0.2446 -0.7023  1.2679
 1728SOL     OW 6082   6.413   3.092   4.848 -0.3471  0.0165 -0.0042
 1728SOL    HW1 6083   6.335   3.094   4.911 -0.4879  1.3130 -0.1783
 1728SOL    HW2 6084   6.474   3.169   4.869  0.6010 -0.6664 -0.2262
 1729SOL     OW 6085   1.746   3.797   2.721  0.5164  0.1484 -0.3213
 1729SOL    HW1 6086   1.649   3.821   2.713  0.0725 -0.8820  1.5750
 1729SOL    HW2 6087   1.763   3.755   2.810  2.6771  0.0939 -0.7171
 1730SOL     OW 6088   2.226   5.993   2.835  0.0438 -0.1144 -0.1928
 1730SOL    HW1 6089   2.308   6.026   2.883  1.8814 -4.1024 -0.2114
 1730SOL    HW2 6090   2.163   5.952   2.902  0.3798 -1.3834 -0.6262
 1731SOL     OW 6091   6.255   4.577   2.823 -0.3905 -0.3182  0.3120
 1731SOL    HW1 6092   6.236   4.667   2.861  0.1940 -0.7410  1.6856
 1731SOL    HW2 6093   6.354   4.559   2.830 -0.3233 -0.5830 -1.0790
 1732SOL     OW 6094   2.081   3.750   5.025  0.0465 -0.0443 -0.7249
 1732SOL    HW1 6095   2.169   3.797   5.032  0.4097  0.0939 -4.1823
 1732SOL    HW2 6096   2.086   3.680   4.954 -1.5273 -2.9641  1.8073
 1733SOL     OW 6097   0.169   4.305   3.089 -0.6965 -0.4703 -0.2038
 1733SOL    HW1 6098   0.230   4.242   3.137  0.0610  1.1395  1.0929
 1733SOL    HW2 6099   0.190   4.304   2.991  0.1114 -1.3319 -0.0400
 1734SOL     OW 6100   5.351   1.362   2.092 -0.3607 -0.2592 -0.0590
 1734SOL    HW1 6101   5.288   1.400   2.159 -0.0374  0.5481 -0.2098
 1734SOL    HW2 6102   5.335   1.404   2.003 -0.2485 -0.7450 -0.3156
 1735SOL     OW 6103   4.398   6.006   0.037  0.4166 -0.5907  0.4213
 1735SOL    HW1 6104   4.464   6.067   0.081 -0.7257  1.2258 -0.2935
 1735SOL    HW2 6105   4.400   5.917   0.083  1.6972  0.1458  1.8940
 1736SOL     OW 6106   4.459   2.482   0.825  0.2941 -0.4328 -0.2234
 1736SOL    HW1 6107   4.534   2.476   0.759  0.4410  0.3352 -0.1270
 1736SOL    HW2 6108   4.495   2.470   0.917  0.6284  1.8613 -0.0032
 1737SOL     OW 6109   5.699   6.224   3.299  0.0618 -0.5186 -0.6091
 1737SOL    HW1 6110   5.786   6.181   3.273 -0.3229 -0.9092 -1.2572
 1737SOL    HW2 6111   5.715   6.287   3.376  0.9585 -0.4123 -0.8721
 1738SOL     OW 6112   2.132   2.962   3.632  0.0653  0.0036 -0.4182
 1738SOL    HW1 6113   2.114   2.874   3.588  0.6695  0.9095 -2.6124
 1738SOL    HW2 6114   2.161   2.947   3.726  1.0592 -2.2271 -1.0174
 1739SOL     OW 6115   2.041   1.030   6.632  0.2391 -0.6192 -0.2164
 1739SOL    HW1 6116   2.098   1.112   6.626 -0.5600 -0.1001 -0.9134
 1739SOL    HW2 6117   2.099   0.949   6.635  1.0132 -0.2449 -3.0577
 1740SOL     OW 6118   0.531   1.300   4.475  0.4399  0.7455  0.2748
 1740SOL    HW1 6119   0.544   1.294   4.376 -1.0875 -0.5396  0.0965
 1740SOL    HW2 6120   0.613   1.268   4.522  0.0786 -1.7628 -0.6475
 1741SOL     OW 6121   3.056   6.737   1.925 -0.0670  0.1901 -0.1885
 1741SOL    HW1 6122   3.113   6.741   2.007  0.5949 -0.0909 -0.6255
 1741SOL    HW2 6123   2.972   6.788   1.940 -0.3174 -0.5282  0.9499
 1742SOL     OW 6124   5.739   1.331   6.580  0.4880 -0.5323 -0.1993
 1742SOL    HW1 6125   5.782   1.317   6.669 -0.8212 -2.9331  0.1247
 1742SOL    HW2 6126   5.701   1.423   6.575  1.0728 -0.1727  1.4809
 1743SOL     OW 6127   1.199   0.317   4.340 -0.4869 -0.0198 -0.2259
 1743SOL    HW1 6128   1.249   0.307   4.426 -1.7614 -0.9886  0.4434
 1743SOL    HW2 6129   1.129   0.246   4.335 -2.4701  1.8925 -0.6638
 1744SOL     OW 6130   6.445   1.927   3.455 -0.2739  0.0214 -0.9960
 1744SOL    HW1 6131   6.498   1.959   3.533 -0.9672 -0.5013 -0.2847
 1744SOL    HW2 6132   6.347   1.939   3.474 -0.6127 -2.8659 -0.4660
 1745SOL     OW 6133   6.263   5.435   1.320 -0.2658 -0.3668 -0.0291
 1745SOL    HW1 6134   6.289   5.341   1.343 -1.6241 -1.1445 -1.4846
 1745SOL    HW2 6135   6.345   5.488   1.298  0.4259 -1.5401 -0.3633
 1746SOL     OW 6136   2.111   4.659   5.947 -0.4854  0.2109  0.2432
 1746SOL    HW1 6137   2.031   4.602   5.929 -0.2772 -0.4950  1.4180
 1746SOL    HW2 6138   2.082   4.755   5.955 -1.1483  0.0172  0.2496
 1747SOL     OW 6139   3.632   6.253   1.834 -0.3458 -0.3888 -0.5533
 1747SOL    HW1 6140   3.607   6.248   1.930 -0.0458  0.6402 -0.4090
 1747SOL    HW2 6141   3.718   6.204   1.820 -0.3483 -0.4731 -0.2811
 1748SOL     OW 6142   6.712   1.539   3.952 -0.7779  0.3865  0.1510
 1748SOL    HW1 6143   6.695   1.443   3.974 -1.5420  0.1621 -1.2958
 1748SOL    HW2 6144   6.789   1.545   3.888 -1.0753  0.6932 -0.1795
 1749SOL     OW 6145   1.475   5.891   5.293  0.0714 -0.2560 -0.5124
 1749SOL    HW1 6146   1.533   5.814   5.318  1.1887  0.6607 -0.2146
 1749SOL    HW2 6147   1.403   5.904   5.362  0.7554 -0.1504  0.1864
 1750SOL     OW 6148   5.038   1.721   5.156 -0.3592  0.2045 -0.1265
 1750SOL    HW1 6149   4.941   1.733   5.131 -0.5726 -2.2266 -0.6920
 1750SOL    HW2 6150   5.094   1.724   5.073  0.1635  2.0723  0.2435
 1751SOL     OW 6151   5.582   0.242   4.802 -0.4680  0.3034  0.5299
 1751SOL    HW1 6152   5.629   0.291   4.728 -0.8932  0.0963  0.1172
 1751SOL    HW2 6153   5.530   0.165   4.763 -0.1643 -0.2101  1.1187
 1752SOL     OW 6154   4.732   0.073   1.958 -0.1128  0.6789  0.6331
 1752SOL    HW1 6155   4.673   0.090   1.879  0.3544  1.7385  0.4945
 1752SOL    HW2 6156   4.719   0.146   2.025  1.5871  1.3834  0.2595
 1753SOL     OW 6157   0.267   0.678   1.670 -0.2601 -0.4487  0.5492
 1753SOL    HW1 6158   0.364   0.662   1.693 -0.0524  0.1438  0.1082
 1753SOL    HW2 6159   0.210   0.613   1.721  0.4291 -1.4124  0.1338
 1754SOL     OW 6160   1.652   3.403   4.802  0.2282 -0.0140 -0.4233
 1754SOL    HW1 6161   1.594   3.393   4.883  0.5096 -1.6495 -0.3856
 1754SOL    HW2 6162   1.640   3.323   4.743  1.9078 -0.0745 -0.7434
 1755SOL     OW 6163   6.803   1.125   6.646  0.0975  0.0185  0.0128
 1755SOL    HW1 6164   6.900   1.122   6.623  0.1723 -0.2868  0.3680
 1755SOL    HW2 6165   6.777   1.219   6.669 -0.1538  0.5136 -2.0660
 1756SOL     OW 6166   4.109   6.332   5.057  0.1158 -0.0708 -0.0879
 1756SOL    HW1 6167   4.173   6.313   4.982  0.3120 -2.1579  0.5494
 1756SOL    HW2 6168   4.079   6.246   5.098 -1.2510  0.9677  1.2028
 1757SOL     OW 6169   3.267   6.546   5.356  0.5659 -0.3669 -0.5408
 1757SOL    HW1 6170   3.256   6.517   5.261  1.8298 -0.6957 -0.6047
 1757SOL    HW2 6171   3.307   6.471   5.409  0.0051 -0.1378  0.2348
 1758SOL     OW 6172   1.793   0.543   5.223  0.3539  0.1692  0.8052
 1758SOL    HW1 6173   1.793   0.449   5.258  1.9011  0.0551  0.5469
 1758SOL    HW2 6174   1.751   0.544   5.132  2.1018 -0.6463 -0.0638
 1759SOL     OW 6175   2.008   6.939   5.915 -0.5743 -0.5766  0.2892
 1759SOL    HW1 6176   2.003   6.883   5.833 -0.2705 -3.6372  2.2180
 1759SOL    HW2 6177   2.092   6.918   5.965 -1.3836  0.1892  2.0575
 1760SOL     OW 6178   6.533   6.572   3.968  0.1226  0.1378 -0.3352
 1760SOL    HW1 6179   6.532   6.670   3.948 -0.0446 -0.1506 -1.8811
 1760SOL    HW2 6180   6.530   6.520   3.882  0.3001 -1.2291  0.4458
 1761SOL     OW 6181   6.727   2.479   1.380 -0.2138  0.0899 -0.3787
 1761SOL    HW1 6182   6.803   2.416   1.366 -0.0855 -0.3663  1.9410
 1761SOL    HW2 6183   6.744   2.563   1.329  0.5921 -0.9482 -1.9012
 1762SOL     OW 6184   6.949   0.896   3.537  0.2968 -0.4062 -0.3671
 1762SOL    HW1 6185   7.038   0.888   3.582  0.5884 -2.7664 -1.2120
 1762SOL    HW2 6186   6.897   0.970   3.579  1.2985 -1.2118  2.5172
 1763SOL     OW 6187   3.464   5.686   3.925  1.0486  0.1754 -0.1895
 1763SOL    HW1 6188   3.473   5.651   4.018 -3.4036 -0.3104  0.2685
 1763SOL    HW2 6189   3.472   5.611   3.859  1.1587 -0.0044  0.0307
 1764SOL     OW 6190   0.294   4.291   1.005  0.2159 -0.1771 -0.8393
 1764SOL    HW1 6191   0.217   4.311   1.065  0.2991 -1.2207 -0.3678
 1764SOL    HW2 6192   0.261   4.246   0.922  0.1578  0.8084 -1.3670
 1765SOL     OW 6193   4.279   1.915   2.569 -0.2823 -0.0820 -0.0542
 1765SOL    HW1 6194   4.200   1.975   2.562 -0.9614 -0.9339  0.1224
 1765SOL    HW2 6195   4.302   1.900   2.666  0.6168  0.8160 -0.1132
 1766SOL     OW 6196   5.614   5.555   3.798 -0.4633 -0.2655 -0.0640
 1766SOL    HW1 6197   5.691   5.493   3.780 -1.4846 -1.1543 -1.6000
 1766SOL    HW2 6198   5.552   5.513   3.864 -0.1421  0.0134  0.4185
 1767SOL     OW 6199   7.006   3.723   2.323  0.0179 -0.4645 -0.3845
 1767SOL    HW1 6200   7.046   3.794   2.381  1.0327 -0.4051 -1.1184
 1767SOL    HW2 6201   7.076   3.654   2.302 -0.3415 -0.5365 -1.4404
 1768SOL     OW 6202   3.279   6.697   0.805 -0.4699  0.5957  0.1297
 1768SOL    HW1 6203   3.331   6.783   0.801 -0.0122  0.4121  1.5945
 1768SOL    HW2 6204   3.269   6.660   0.713  0.1136  1.7494 -0.4224
 1769SOL     OW 6205   5.802   0.558   5.832  0.2172 -0.3207  0.2043
 1769SOL    HW1 6206   5.756   0.475   5.864  0.4964 -0.0854  1.2610
 1769SOL    HW2 6207   5.751   0.597   5.755 -0.2083 -1.1766  0.0389
 1770SOL     OW 6208   1.717   5.978   6.117  0.0716 -0.0285 -0.0186
 1770SOL    HW1 6209   1.810   6.010   6.132  0.2781  0.3467 -1.8331
 1770SOL    HW2 6210   1.652   6.045   6.154  0.5006 -0.2376  1.1481
 1771SOL     OW 6211   3.132   4.485   1.108  0.0607  0.1016 -0.0009
 1771SOL    HW1 6212   3.161   4.524   1.196  0.0064  2.3737 -0.9064
 1771SOL    HW2 6213   3.038   4.512   1.089  0.2153  0.0009 -0.9549
 1772SOL     OW 6214   2.562   4.838   4.350  0.7035 -0.2768 -0.1747
 1772SOL    HW1 6215   2.653   4.798   4.359  0.0980 -1.8368 -0.5483
 1772SOL    HW2 6216   2.510   4.786   4.282  0.0722  1.6013 -1.1929
 1773SOL     OW 6217   2.987   1.635   6.094  0.1194 -0.3069 -0.0684
 1773SOL    HW1 6218   2.971   1.599   6.003  0.7448  1.3144 -0.8554
 1773SOL    HW2 6219   3.078   1.675   6.099 -0.2639  0.5053  0.9500
 1774SOL     OW 6220   6.762   0.127   2.166  0.6499 -0.1731 -0.4705
 1774SOL    HW1 6221   6.779   0.069   2.087 -0.2561 -0.5326 -0.4178
 1774SOL    HW2 6222   6.683   0.185   2.148  0.9962  0.3977 -0.1750
 1775SOL     OW 6223   2.439   4.866   5.493 -0.1895  0.1497  0.0465
 1775SOL    HW1 6224   2.507   4.803   5.531  0.4717  0.9383  0.1913
 1775SOL    HW2 6225   2.348   4.825   5.502  0.1120 -0.3448  1.0718
 1776SOL     OW 6226   3.947   0.773   5.006 -0.3658 -0.5247  0.3113
 1776SOL    HW1 6227   3.983   0.863   4.985 -0.5629 -0.6755 -0.7082
 1776SOL    HW2 6228   3.947   0.759   5.106  2.1875 -0.4557  0.3725
 1777SOL     OW 6229   2.500   6.934   5.714 -0.2523 -0.4134  0.4259
 1777SOL    HW1 6230   2.450   6.901   5.795  0.3062 -1.5030  0.3444
 1777SOL    HW2 6231   2.594   6.956   5.740  0.1482 -1.4823 -0.0557
 1778SOL     OW 6232   5.474   2.066   4.441  0.2872 -0.4923 -0.0691
 1778SOL    HW1 6233   5.472   2.087   4.539  2.8133  1.6350 -0.3719
 1778SOL    HW2 6234   5.395   2.010   4.418  0.2994 -2.2396  3.4218
 1779SOL     OW 6235   5.037   6.343   0.562  0.2043  0.2044 -0.1286
 1779SOL    HW1 6236   5.109   6.288   0.604 -0.0176 -0.9853 -1.2364
 1779SOL    HW2 6237   5.071   6.436   0.546  2.1041 -0.7206 -2.0439
 1780SOL     OW 6238   2.176   3.095   4.181  0.5213 -0.0621  0.2554
 1780SOL    HW1 6239   2.095   3.040   4.204  0.7731 -0.3547  0.4471
 1780SOL    HW2 6240   2.221   3.056   4.101  0.1959  0.3904 -0.1549
 1781SOL     OW 6241   5.262   6.687   6.111  0.2682 -0.0996  0.4880
 1781SOL    HW1 6242   5.331   6.756   6.087  1.1512 -1.5424 -1.3440
 1781SOL    HW2 6243   5.297   6.630   6.186  1.0632 -0.7399 -0.3458
 1782SOL     OW 6244   1.019   1.205   2.303 -0.0163 -0.0984  0.5567
 1782SOL    HW1 6245   0.991   1.151   2.382 -0.3794  1.6878  1.7187
 1782SOL    HW2 6246   0.952   1.195   2.230 -1.8202  1.2136  1.9334
 1783SOL     OW 6247   2.849   3.504   5.298 -0.5761 -0.9445  0.1279
 1783SOL    HW1 6248   2.855   3.603   5.309  0.5094 -1.1221  1.4178
 1783SOL    HW2 6249   2.939   3.464   5.312 -0.9659 -2.1037 -0.5913
 1784SOL     OW 6250   1.173   2.157   0.695  0.2548  0.5702  0.0067
 1784SOL    HW1 6251   1.228   2.191   0.772  1.5278  0.0910 -0.6535
 1784SOL    HW2 6252   1.104   2.093   0.729 -0.7586  2.1364  1.0006
 1785SOL     OW 6253   4.979   0.535   5.336  0.8029 -0.1512 -0.0587
 1785SOL    HW1 6254   5.045   0.470   5.298 -1.0378 -2.6809  0.7348
 1785SOL    HW2 6255   4.927   0.577   5.263  0.2691 -1.6267 -0.5731
 1786SOL     OW 6256   3.474   5.411   5.933  0.5771 -0.0454  0.2273
 1786SOL    HW1 6257   3.436   5.373   6.018  0.5381 -1.1738 -0.2881
 1786SOL    HW2 6258   3.407   5.401   5.859 -0.0042  2.2713  0.3423
 1787SOL     OW 6259   2.035   1.533   5.710  0.6292 -0.0749  0.5912
 1787SOL    HW1 6260   2.101   1.568   5.643 -0.4830  0.7543 -0.1134
 1787SOL    HW2 6261   1.942   1.550   5.677  0.0051 -2.6676  0.7919
 1788SOL     OW 6262   4.364   4.055   6.580 -0.1812  0.7293 -0.0446
 1788SOL    HW1 6263   4.335   4.148   6.558 -0.9203  0.3025 -0.9706
 1788SOL    HW2 6264   4.426   4.022   6.508 -0.3031  0.3381  0.0309
 1789SOL     OW 6265   0.403   3.109   1.297 -0.3919 -0.8197  1.2178
 1789SOL    HW1 6266   0.315   3.110   1.250  0.0341 -1.0040  0.4048
 1789SOL    HW2 6267   0.462   3.181   1.261 -0.7167  0.2939  2.7904
 1790SOL     OW 6268   2.481   6.805   4.293 -0.3302 -0.0272  0.1605
 1790SOL    HW1 6269   2.457   6.876   4.227 -1.8616  0.1612  0.8648
 1790SOL    HW2 6270   2.536   6.735   4.248 -0.3721  0.6682 -1.0202
 1791SOL     OW 6271   1.633   0.372   4.186 -0.6437  0.2122  0.2640
 1791SOL    HW1 6272   1.696   0.296   4.170  1.1941  2.2185 -3.1076
 1791SOL    HW2 6273   1.538   0.341   4.174 -0.1042 -1.9277  1.1508
 1792SOL     OW 6274   1.033   1.565   5.093  0.4373  0.4892  0.5490
 1792SOL    HW1 6275   0.993   1.524   5.175 -0.4420  1.4874  0.6434
 1792SOL    HW2 6276   0.984   1.531   5.012  0.3223  0.6327  0.5573
 1793SOL     OW 6277   5.963   2.746   5.394  0.5859 -0.1602  0.4169
 1793SOL    HW1 6278   5.982   2.757   5.296  1.5998  1.1355  0.7281
 1793SOL    HW2 6279   5.886   2.805   5.420 -0.2445 -1.1527  0.2473
 1794SOL     OW 6280   6.646   0.440   4.910  0.0372 -0.2093 -0.2676
 1794SOL    HW1 6281   6.683   0.436   5.003 -0.2265 -0.7454 -0.1812
 1794SOL    HW2 6282   6.625   0.534   4.886  0.2877 -0.0463  0.1455
 1795SOL     OW 6283   5.528   3.084   1.477 -0.2348 -0.1750 -0.8802
 1795SOL    HW1 6284   5.627   3.074   1.482 -0.0043  2.3456  1.9933
 1795SOL    HW2 6285   5.485   3.013   1.533 -0.2243 -1.7291 -2.6971
 1796SOL     OW 6286   2.357   1.511   6.372 -0.5857  0.0735  0.1423
 1796SOL    HW1 6287   2.397   1.556   6.293  0.3188 -0.1635  0.4573
 1796SOL    HW2 6288   2.269   1.470   6.347  0.7046 -1.9766 -1.3507
 1797SOL     OW 6289   0.436   0.642   5.475  0.6157  0.2382  0.0306
 1797SOL    HW1 6290   0.527   0.648   5.517  0.1741  1.8321  0.8053
 1797SOL    HW2 6291   0.368   0.682   5.536 -0.7591 -1.5870 -0.2155
 1798SOL     OW 6292   3.075   3.389   5.357  0.4571  0.1919 -0.3627
 1798SOL    HW1 6293   3.093   3.319   5.425 -0.7742 -0.2192 -0.4323
 1798SOL    HW2 6294   3.140   3.380   5.282 -0.4564 -1.7133 -0.9883
 1799SOL     OW 6295   3.943   2.009   0.983 -0.8831 -0.1370  0.1024
 1799SOL    HW1 6296   3.881   2.000   1.061  0.1313  0.0247  0.9342
 1799SOL    HW2 6297   4.013   2.077   1.004 -0.5685 -0.1281 -0.9383
 1800SOL     OW 6298   4.224   4.188   1.632  0.3424 -0.3951  0.1174
 1800SOL    HW1 6299   4.271   4.168   1.718 -1.7132 -0.2864  1.3340
 1800SOL    HW2 6300   4.265   4.269   1.589  1.4840 -0.5292  0.9264
 1801SOL     OW 6301   6.913   2.282   1.725  0.3572  0.4726 -0.5766
 1801SOL    HW1 6302   6.960   2.274   1.637  0.1113  1.4685 -0.8028
 1801SOL    HW2 6303   6.970   2.335   1.789  0.2147  0.3684 -0.3596
 1802SOL     OW 6304   0.287   5.311   2.398 -0.1124  0.0599 -0.1994
 1802SOL    HW1 6305   0.332   5.376   2.336  1.2829 -0.8190 -0.1437
 1802SOL    HW2 6306   0.326   5.319   2.489 -1.0538  0.2269  0.2087
 1803SOL     OW 6307   0.527   5.331   1.111  0.0985  0.3017 -0.1767
 1803SOL    HW1 6308   0.552   5.245   1.154  0.5907 -0.9581 -2.7935
 1803SOL    HW2 6309   0.430   5.349   1.125  0.5086  0.8353  2.7313
 1804SOL     OW 6310   3.097   3.476   5.632 -0.3432 -0.4109 -0.1899
 1804SOL    HW1 6311   3.039   3.539   5.683 -1.5032 -1.6074  0.0360
 1804SOL    HW2 6312   3.062   3.467   5.538  1.1536  0.9766 -0.9117
 1805SOL     OW 6313   6.562   5.577   4.298 -0.0515  0.3694  0.4128
 1805SOL    HW1 6314   6.469   5.540   4.307 -0.3308  0.0252 -2.8287
 1805SOL    HW2 6315   6.629   5.505   4.314 -0.4850 -0.4330 -1.1986
 1806SOL     OW 6316   0.438   2.115   1.440 -0.0730 -0.4335 -0.0724
 1806SOL    HW1 6317   0.476   2.079   1.525 -0.1032  0.5250  0.3622
 1806SOL    HW2 6318   0.343   2.086   1.431 -0.2921  0.0524  0.5909
 1807SOL     OW 6319   5.573   1.961   6.231  0.2114 -0.1728  0.0183
 1807SOL    HW1 6320   5.584   2.060   6.243  0.2357 -0.2605  0.7767
 1807SOL    HW2 6321   5.579   1.938   6.134  0.2162  0.5690 -0.1614
 1808SOL     OW 6322   4.265   4.680   4.271 -0.4736  0.0157 -0.0496
 1808SOL    HW1 6323   4.351   4.726   4.253 -0.5218  0.2865  0.3883
 1808SOL    HW2 6324   4.201   4.697   4.196 -0.2856  0.1524 -0.1792
 1809SOL     OW 6325   3.110   0.708   5.166  0.4569  0.0635  0.0852
 1809SOL    HW1 6326   3.135   0.762   5.086  0.4594 -0.2554 -0.1306
 1809SOL    HW2 6327   3.014   0.679   5.159  0.4239  0.1302  0.2499
 1810SOL     OW 6328   6.725   2.618   3.466  0.4300 -0.0476  0.1100
 1810SOL    HW1 6329   6.633   2.633   3.431  0.7755 -1.2521 -1.4073
 1810SOL    HW2 6330   6.788   2.683   3.423  0.2976  0.9180  1.3029
 1811SOL     OW 6331   3.866   6.043   0.797  0.6009  0.1056  0.0017
 1811SOL    HW1 6332   3.777   5.998   0.798  0.1948  0.8672  1.6447
 1811SOL    HW2 6333   3.929   5.993   0.857  1.0342  0.0404 -0.5053
 1812SOL     OW 6334   5.016   6.146   4.892 -0.0968 -0.1927 -0.8228
 1812SOL    HW1 6335   4.946   6.077   4.914 -0.3274  0.2576 -0.1038
 1812SOL    HW2 6336   4.971   6.231   4.866  0.1797  0.1023 -0.3533
 1813SOL     OW 6337   5.830   2.415   2.851 -0.7070 -0.8829 -0.4762
 1813SOL    HW1 6338   5.804   2.471   2.929  0.6564  0.7176 -1.1003
 1813SOL    HW2 6339   5.770   2.435   2.774  0.3461  0.5014 -0.9831
 1814SOL     OW 6340   6.459   6.108   0.298 -0.0605  0.2713  0.2638
 1814SOL    HW1 6341   6.365   6.134   0.279 -0.7842 -2.0508  0.3603
 1814SOL    HW2 6342   6.488   6.149   0.384  1.0940  5.6820 -2.2424
 1815SOL     OW 6343   4.151   0.911   2.068  0.1369  0.5133  0.1306
 1815SOL    HW1 6344   4.135   0.998   2.021 -2.3544  1.2753  2.1094
 1815SOL    HW2 6345   4.123   0.921   2.164 -0.0357 -2.4244  0.4519
 1816SOL     OW 6346   3.055   5.684   0.662 -0.3465 -0.3025  0.5856
 1816SOL    HW1 6347   3.020   5.691   0.568 -1.8977  1.1640  1.2052
 1816SOL    HW2 6348   3.115   5.762   0.680  3.8467 -2.9731 -0.5762
 1817SOL     OW 6349   2.658   0.689   2.410  0.0685  0.1948  0.6176
 1817SOL    HW1 6350   2.598   0.750   2.358 -1.1446  0.4595  2.2423
 1817SOL    HW2 6351   2.753   0.706   2.386 -0.4758 -1.2199 -3.1053
 1818SOL     OW 6352   1.247   6.897   1.321 -0.5248 -0.5678 -0.3146
 1818SOL    HW1 6353   1.178   6.962   1.291  0.6353  0.1036 -1.5806
 1818SOL    HW2 6354   1.247   6.892   1.421 -1.8021  0.0514 -0.2694
 1819SOL     OW 6355   6.617   4.725   1.237  0.8127  0.5119 -0.0363
 1819SOL    HW1 6356   6.639   4.649   1.177 -0.3814 -0.3733  0.6031
 1819SOL    HW2 6357   6.529   4.764   1.211  0.5516  0.4781  0.7669
 1820SOL     OW 6358   6.115   0.535   2.922  0.2591 -0.0266  0.0864
 1820SOL    HW1 6359   6.015   0.527   2.922  0.2272  0.2975 -0.4907
 1820SOL    HW2 6360   6.150   0.518   3.014 -0.3986  0.6551  0.4752
 1821SOL     OW 6361   4.039   6.611   2.638  0.6704 -0.1123 -0.1081
 1821SOL    HW1 6362   4.102   6.615   2.560 -0.3356  2.2799 -0.9064
 1821SOL    HW2 6363   4.073   6.671   2.711 -0.0305  0.2511 -0.0667
 1822SOL     OW 6364   1.396   2.758   1.342  0.0158 -0.6234  0.1960
 1822SOL    HW1 6365   1.409   2.851   1.377  1.9923 -0.7851 -0.0404
 1822SOL    HW2 6366   1.389   2.761   1.242  2.1652 -0.8850 -0.0005
 1823SOL     OW 6367   2.932   5.568   3.293  0.1626  0.3763 -0.1641
 1823SOL    HW1 6368   3.005   5.636   3.284  0.0687  0.7291  1.5106
 1823SOL    HW2 6369   2.963   5.493   3.352 -0.4966  0.0550 -0.2166
 1824SOL     OW 6370   3.618   3.315   0.481 -0.3159  0.4757 -0.3406
 1824SOL    HW1 6371   3.702   3.359   0.452  0.2240 -0.9188 -1.0098
 1824SOL    HW2 6372   3.551   3.317   0.407  0.7519 -2.3076 -1.5257
 1825SOL     OW 6373   1.389   3.151   4.840  0.7297  0.0458  0.3506
 1825SOL    HW1 6374   1.451   3.131   4.764  0.7133 -3.3441  1.1094
 1825SOL    HW2 6375   1.438   3.205   4.909  1.8629  0.0535 -0.4241
 1826SOL     OW 6376   1.243   6.348   0.702  0.2614 -0.4318 -0.3076
 1826SOL    HW1 6377   1.226   6.386   0.611 -1.1374 -1.3421 -0.4440
 1826SOL    HW2 6378   1.268   6.252   0.693  1.5033 -0.1684  0.1947
 1827SOL     OW 6379   4.839   5.440   1.299 -0.4161 -0.7538 -0.0460
 1827SOL    HW1 6380   4.876   5.364   1.246 -0.5435 -1.1456  0.4211
 1827SOL    HW2 6381   4.911   5.478   1.357 -0.4571 -0.8025  0.0389
 1828SOL     OW 6382   1.698   3.688   5.808  0.0113 -0.4253 -0.3801
 1828SOL    HW1 6383   1.761   3.748   5.758 -0.8265  0.7358 -0.1071
 1828SOL    HW2 6384   1.739   3.661   5.895  1.0516 -1.5964 -1.2068
 1829SOL     OW 6385   4.659   6.200   2.331 -0.0627  0.2074  0.5209
 1829SOL    HW1 6386   4.752   6.235   2.315  0.3742 -0.1033  2.1790
 1829SOL    HW2 6387   4.618   6.174   2.244  2.1185 -1.4188 -0.1244
 1830SOL     OW 6388   3.881   5.183   5.931 -0.2551  0.1863  0.1608
 1830SOL    HW1 6389   3.818   5.244   5.883 -0.9764 -0.6254  0.0501
 1830SOL    HW2 6390   3.833   5.098   5.956  0.5412 -0.0607  0.9050
 1831SOL     OW 6391   4.832   5.480   3.047  0.6338  0.7579  0.4983
 1831SOL    HW1 6392   4.866   5.491   2.953  1.8267 -2.3212  0.4613
 1831SOL    HW2 6393   4.909   5.467   3.109 -0.2147  1.2179  1.6894
 1832SOL     OW 6394   2.944   6.293   6.461  0.8402  0.4911  0.5423
 1832SOL    HW1 6395   3.010   6.356   6.503  0.7216 -0.1667  1.7548
 1832SOL    HW2 6396   2.908   6.231   6.531  2.7656 -2.5793 -0.9527
 1833SOL     OW 6397   5.142   1.984   1.759  0.0266 -0.3032 -0.4933
 1833SOL    HW1 6398   5.224   2.040   1.771  0.9218 -1.4645 -1.0412
 1833SOL    HW2 6399   5.062   2.044   1.758  0.9728  1.0221 -1.4625
 1834SOL     OW 6400   3.947   2.208   1.975  0.1425 -0.4718  0.2287
 1834SOL    HW1 6401   3.977   2.112   1.972  0.9722 -0.2698  1.3797
 1834SOL    HW2 6402   3.855   2.213   2.012  0.1925 -0.8011  0.3980
 1835SOL     OW 6403   0.563   6.798   1.700 -0.3631  0.2831 -0.0557
 1835SOL    HW1 6404   0.473   6.809   1.658 -0.4414  0.7743  0.2440
 1835SOL    HW2 6405   0.624   6.751   1.636 -0.4254  1.1908 -0.7992
 1836SOL     OW 6406   5.739   1.661   1.564  0.1286  0.1595 -0.1306
 1836SOL    HW1 6407   5.820   1.719   1.573  1.0719 -0.8576 -1.6201
 1836SOL    HW2 6408   5.669   1.709   1.512  0.7359  0.1517 -0.9732
 1837SOL     OW 6409   3.540   0.318   0.094  0.3539 -0.3821 -0.2663
 1837SOL    HW1 6410   3.635   0.347   0.110  0.3374 -0.6764  0.3820
 1837SOL    HW2 6411   3.520   0.325  -0.004  0.9586 -0.0598 -0.3761
 1838SOL     OW 6412   0.488   0.107   6.149 -0.7058 -0.0038  0.3460
 1838SOL    HW1 6413   0.453   0.015   6.133 -0.5120 -0.1519  0.7712
 1838SOL    HW2 6414   0.584   0.102   6.176 -1.0076  0.2454  1.5005
 1839SOL     OW 6415   5.505   1.671   0.993 -0.3231  0.2931 -0.6087
 1839SOL    HW1 6416   5.486   1.596   0.929 -1.1720 -1.8494  1.9464
 1839SOL    HW2 6417   5.594   1.711   0.972  1.9440 -3.8606 -0.0353
 1840SOL     OW 6418   5.492   6.696   1.948  0.2094  0.2891 -0.1540
 1840SOL    HW1 6419   5.562   6.678   2.018  0.3361  0.5011 -0.2257
 1840SOL    HW2 6420   5.523   6.660   1.860 -0.4898 -1.1025  0.1424
 1841SOL     OW 6421   2.759   0.143   1.046  0.3160  1.2119 -0.5880
 1841SOL    HW1 6422   2.842   0.197   1.036  0.3025  1.4884  0.6047
 1841SOL    HW2 6423   2.709   0.143   0.959  1.4670  1.1710 -1.2728
 1842SOL     OW 6424   1.646   4.475   0.787 -0.2371  0.3229  0.1074
 1842SOL    HW1 6425   1.669   4.440   0.878  0.4058  2.0761  0.6552
 1842SOL    HW2 6426   1.589   4.557   0.796 -1.8676 -0.6125 -1.1431
 1843SOL     OW 6427   3.182   1.904   3.159 -0.4074 -0.0861  0.1081
 1843SOL    HW1 6428   3.118   1.869   3.091 -0.3520  1.0592 -0.5539
 1843SOL    HW2 6429   3.236   1.978   3.119  0.2945 -0.0345  1.1169
 1844SOL     OW 6430   5.570   0.955   6.002  0.4418 -0.1536 -0.4948
 1844SOL    HW1 6431   5.497   0.963   5.934  0.0124 -0.9134 -0.1410
 1844SOL    HW2 6432   5.566   0.864   6.044  1.0308  0.1200  0.1684
 1845SOL     OW 6433   3.670   6.149   2.092  0.0983 -0.4800 -0.3792
 1845SOL    HW1 6434   3.679   6.195   2.181 -0.9257  0.9712 -0.9859
 1845SOL    HW2 6435   3.733   6.072   2.088 -0.1398 -0.8397  1.7620
 1846SOL     OW 6436   5.403   1.978   3.437  0.0258  0.6613 -0.6639
 1846SOL    HW1 6437   5.316   1.980   3.485 -0.0194 -1.9885 -0.5293
 1846SOL    HW2 6438   5.475   1.948   3.500  0.7624  1.3091 -1.1793
 1847SOL     OW 6439   1.927   1.320   3.500  0.2550  0.6734 -0.1806
 1847SOL    HW1 6440   1.831   1.346   3.513  0.4767  2.1357 -1.1689
 1847SOL    HW2 6441   1.978   1.399   3.464  1.6192 -0.3685 -0.6123
 1848SOL     OW 6442   1.968   6.693   4.387  0.2219  0.4168  0.1395
 1848SOL    HW1 6443   2.030   6.760   4.428  0.1880  0.4382  0.1564
 1848SOL    HW2 6444   1.874   6.722   4.402  0.2160  1.4378 -1.6458
 1849SOL     OW 6445   4.186   2.239   2.171 -0.0388  0.8583 -0.7535
 1849SOL    HW1 6446   4.088   2.242   2.151 -0.6769  1.1940  2.0281
 1849SOL    HW2 6447   4.203   2.181   2.250  2.1611  0.1737 -1.6246
 1850SOL     OW 6448   4.435   2.421   3.721 -0.0363  0.5537  0.1652
 1850SOL    HW1 6449   4.518   2.370   3.696  0.2877  1.9531 -1.9983
 1850SOL    HW2 6450   4.358   2.358   3.729  0.6315 -0.4687 -0.9632
 1851SOL     OW 6451   0.930   3.440   0.312 -0.0178 -0.3543 -0.1679
 1851SOL    HW1 6452   1.015   3.434   0.260  1.4579 -0.0798  2.0673
 1851SOL    HW2 6453   0.884   3.351   0.312  0.2283 -0.4990 -1.4039
 1852SOL     OW 6454   1.599   6.061   2.878  0.2200  0.3358 -0.7239
 1852SOL    HW1 6455   1.563   5.983   2.929  0.0515  1.1834  0.5020
 1852SOL    HW2 6456   1.668   6.108   2.933  0.2852  1.0815 -1.4204
 1853SOL     OW 6457   1.839   2.157   3.638  0.3054  0.1563 -0.0259
 1853SOL    HW1 6458   1.796   2.112   3.717 -0.8008 -0.8598 -1.1526
 1853SOL    HW2 6459   1.826   2.100   3.557 -1.3175  2.5493 -1.5809
 1854SOL     OW 6460   1.701   5.861   3.889  0.4487  0.5793 -0.4638
 1854SOL    HW1 6461   1.606   5.893   3.886  0.5453  1.0425  0.7861
 1854SOL    HW2 6462   1.748   5.904   3.966  1.4850 -0.1821 -0.6525
 1855SOL     OW 6463   5.863   3.510   4.426  0.4212 -0.3314  0.3433
 1855SOL    HW1 6464   5.911   3.515   4.338  0.4307 -0.5178  0.3368
 1855SOL    HW2 6465   5.784   3.571   4.424  0.7741  0.1307  0.4275
 1856SOL     OW 6466   3.421   3.045   5.323 -0.7160  0.4302 -0.2883
 1856SOL    HW1 6467   3.327   3.075   5.307 -1.0823 -0.8817 -0.7445
 1856SOL    HW2 6468   3.456   3.000   5.241 -0.2238 -0.4032  0.3664
 1857SOL     OW 6469   5.576   1.595   0.673 -0.3877 -0.0797  0.1873
 1857SOL    HW1 6470   5.517   1.528   0.717  0.4422 -0.6417  0.4758
 1857SOL    HW2 6471   5.670   1.562   0.674 -0.1973  0.3770 -1.0801
 1858SOL     OW 6472   5.245   3.070   5.336 -0.5246 -0.4377 -0.1781
 1858SOL    HW1 6473   5.199   3.150   5.297 -1.0008 -0.2465  0.7393
 1858SOL    HW2 6474   5.343   3.080   5.326 -0.6516 -0.7374 -1.9512
 1859SOL     OW 6475   4.623   1.757   5.310 -0.2329  0.4442  0.3013
 1859SOL    HW1 6476   4.599   1.850   5.337  1.8031  0.8608  0.8705
 1859SOL    HW2 6477   4.584   1.692   5.375  0.0934  1.0689  1.1423
 1860SOL     OW 6478   0.033   1.583   5.417  0.2952 -0.6518 -0.1134
 1860SOL    HW1 6479   0.010   1.517   5.345 -0.6773 -0.2579 -0.1834
 1860SOL    HW2 6480  -0.050   1.607   5.468  0.7487  0.0366  0.3138
 1861SOL     OW 6481   0.694   0.609   5.639  0.0236  0.2297  0.4098
 1861SOL    HW1 6482   0.697   0.514   5.670  2.1965  0.2308  0.3076
 1861SOL    HW2 6483   0.732   0.669   5.709 -1.9285  1.1493  0.7462
 1862SOL     OW 6484   1.447   5.884   1.909  0.1172  0.0681  0.0072
 1862SOL    HW1 6485   1.516   5.917   1.844  0.6651 -0.4126  0.3365
 1862SOL    HW2 6486   1.373   5.950   1.915 -0.4244 -0.2959 -1.8343
 1863SOL     OW 6487   6.128   1.489   1.625  0.8966 -0.5112  0.0050
 1863SOL    HW1 6488   6.183   1.411   1.654  0.0737 -1.0821  0.0798
 1863SOL    HW2 6489   6.075   1.464   1.544 -1.0704 -0.8046  1.3090
 1864SOL     OW 6490   3.599   5.004   2.033 -0.1379  0.2247  0.1068
 1864SOL    HW1 6491   3.569   5.056   1.952  0.2494 -0.1716 -0.2955
 1864SOL    HW2 6492   3.593   4.906   2.013  0.7468  0.1354  0.2719
 1865SOL     OW 6493   4.164   0.455   1.514 -0.4223  0.0937 -0.2012
 1865SOL    HW1 6494   4.264   0.454   1.504 -0.2160  0.8215  1.4024
 1865SOL    HW2 6495   4.136   0.379   1.572 -0.4027  1.6848  2.0079
 1866SOL     OW 6496   5.198   4.494   5.149  0.2218 -0.1080 -0.5793
 1866SOL    HW1 6497   5.274   4.529   5.095 -0.9180  0.8491 -1.6302
 1866SOL    HW2 6498   5.202   4.394   5.152  1.3201 -0.0838 -0.9045
 1867SOL     OW 6499   3.855   2.426   0.981 -0.5026  0.3685 -0.1542
 1867SOL    HW1 6500   3.822   2.505   1.033  0.7269  1.3314 -0.7577
 1867SOL    HW2 6501   3.929   2.456   0.920 -1.1365 -0.9298 -1.6296
 1868SOL     OW 6502   1.497   5.100   6.145 -0.2066 -0.2930  0.3544
 1868SOL    HW1 6503   1.576   5.162   6.142 -0.3146 -0.0673  1.5983
 1868SOL    HW2 6504   1.446   5.116   6.229 -0.8013 -1.4035  0.2161
 1869SOL     OW 6505   4.765   3.284   5.345 -0.7975 -0.2985 -0.2539
 1869SOL    HW1 6506   4.825   3.300   5.266 -1.9276  0.8178 -0.9095
 1869SOL    HW2 6507   4.767   3.186   5.367  1.6373 -0.2551  0.0806
 1870SOL     OW 6508   0.429   4.017   4.297  0.3455  0.3100 -0.2228
 1870SOL    HW1 6509   0.418   3.974   4.207  2.4326  1.2842 -1.0077
 1870SOL    HW2 6510   0.388   3.959   4.367 -0.6003 -0.8794 -1.6963
 1871SOL     OW 6511   4.504   6.249   0.524 -0.0515  1.0403 -0.3499
 1871SOL    HW1 6512   4.587   6.260   0.579 -0.6964  1.2231  0.6134
 1871SOL    HW2 6513   4.509   6.309   0.444  2.4206 -1.6212 -2.4357
 1872SOL     OW 6514   3.371   3.977   1.613  0.4086 -0.5497 -0.4289
 1872SOL    HW1 6515   3.306   3.980   1.537  0.8814 -0.3384 -0.8239
 1872SOL    HW2 6516   3.334   3.917   1.685 -1.0982  1.0034  0.1769
 1873SOL     OW 6517   6.521   6.589   5.742 -0.2776  1.0313  0.2093
 1873SOL    HW1 6518   6.450   6.611   5.675 -0.4047  1.1939  0.3976
 1873SOL    HW2 6519   6.485   6.523   5.808  0.6816 -1.2980 -1.4776
 1874SOL     OW 6520   3.714   3.214   0.158  0.5468 -0.5590  0.0181
 1874SOL    HW1 6521   3.681   3.133   0.208 -4.0843  1.1338  0.2135
 1874SOL    HW2 6522   3.712   3.293   0.219 -1.2216  0.7867 -1.6764
 1875SOL     OW 6523   6.275   6.953   6.943  0.5156 -0.0841  0.3502
 1875SOL    HW1 6524   6.328   7.022   6.894 -1.3583  0.3132 -1.2428
 1875SOL    HW2 6525   6.305   6.949   7.038  1.3215  2.2394  0.2507
 1876SOL     OW 6526   5.871   6.284   5.518 -0.5159 -0.3682 -0.0244
 1876SOL    HW1 6527   5.821   6.207   5.558 -1.2215  0.0826 -0.0259
 1876SOL    HW2 6528   5.854   6.288   5.420 -0.7951  0.0132  0.0361
 1877SOL     OW 6529   6.679   1.472   2.164 -0.3038 -0.6500  0.1670
 1877SOL    HW1 6530   6.751   1.539   2.148 -1.6225  0.7917  0.0052
 1877SOL    HW2 6531   6.644   1.483   2.258 -2.0425  0.4751 -0.5581
 1878SOL     OW 6532   1.332   5.204   4.595 -0.3645  0.1158  0.2392
 1878SOL    HW1 6533   1.365   5.283   4.543  2.7763 -1.6514 -0.7953
 1878SOL    HW2 6534   1.388   5.192   4.677  3.1531 -3.8483 -2.3173
 1879SOL     OW 6535   1.428   5.151   3.077 -0.3851  0.2710 -0.1318
 1879SOL    HW1 6536   1.454   5.218   3.007 -1.7113  0.4441 -0.4879
 1879SOL    HW2 6537   1.449   5.188   3.167  2.7851 -0.5707 -0.4072
 1880SOL     OW 6538   0.984   3.525   2.999  0.0924  0.1504  0.1788
 1880SOL    HW1 6539   1.048   3.493   2.929  1.9354  0.3499  1.6940
 1880SOL    HW2 6540   1.015   3.613   3.036 -1.9971  1.1046 -0.1882
 1881SOL     OW 6541   0.749   3.426   4.555 -0.3820  0.2734  0.5191
 1881SOL    HW1 6542   0.763   3.392   4.462 -0.2326 -1.8553  1.2517
 1881SOL    HW2 6543   0.829   3.403   4.611 -1.3386 -0.4152  1.6582
 1882SOL     OW 6544   0.647   0.800   6.735 -0.0742 -0.4161  0.4885
 1882SOL    HW1 6545   0.579   0.871   6.720  1.1987  0.2234 -3.0368
 1882SOL    HW2 6546   0.729   0.840   6.775  0.5407  0.1382 -1.2400
 1883SOL     OW 6547   1.957   2.868   0.998  0.1884  0.0698 -0.6926
 1883SOL    HW1 6548   1.953   2.962   1.031  0.3826 -0.9473  2.5334
 1883SOL    HW2 6549   1.882   2.815   1.037  1.3503 -1.6109 -0.6365
 1884SOL     OW 6550   4.643   2.453   1.603 -0.3523  0.1654 -0.6722
 1884SOL    HW1 6551   4.565   2.489   1.655 -0.6489  0.0815 -1.0475
 1884SOL    HW2 6552   4.706   2.406   1.665 -0.6330  0.1801 -0.3723
 1885SOL     OW 6553   5.820   1.601   6.588  0.1822  0.1666  0.5370
 1885SOL    HW1 6554   5.864   1.610   6.498 -0.4016 -0.7720  0.1428
 1885SOL    HW2 6555   5.890   1.602   6.659  0.7017  0.3591  0.0335
 1886SOL     OW 6556   3.549   0.982   2.510 -0.4569 -0.6422 -0.3956
 1886SOL    HW1 6557   3.509   0.897   2.474 -0.2005 -0.5064 -1.0149
 1886SOL    HW2 6558   3.644   0.988   2.481  0.0413 -0.9903  1.1244
 1887SOL     OW 6559   6.676   3.649   4.999 -0.1162 -0.2710  0.2551
 1887SOL    HW1 6560   6.709   3.631   4.906 -0.9347 -2.4562  0.3224
 1887SOL    HW2 6561   6.722   3.587   5.063 -0.9768 -0.1336  1.0256
 1888SOL     OW 6562   3.644   1.549   4.629  0.4851 -0.4094  0.1069
 1888SOL    HW1 6563   3.561   1.537   4.574  0.1186  0.7987  0.3780
 1888SOL    HW2 6564   3.625   1.608   4.707  1.3867 -0.8591  0.6932
 1889SOL     OW 6565   2.948   2.947   0.092 -0.3703 -0.4245  0.2207
 1889SOL    HW1 6566   2.975   2.953   0.188 -0.5832 -1.7890  0.3852
 1889SOL    HW2 6567   3.025   2.915   0.037  0.3848  2.2231 -0.4361
 1890SOL     OW 6568   0.055   5.011   0.355 -0.0886  0.3034  0.0001
 1890SOL    HW1 6569   0.056   5.021   0.256  0.0080  0.5866  0.0274
 1890SOL    HW2 6570  -0.035   5.038   0.390  0.5707  2.4729  0.1987
 1891SOL     OW 6571   4.979   6.912   3.330  0.1787  0.0784  0.4063
 1891SOL    HW1 6572   4.948   6.972   3.403  0.9303  0.0939  0.7262
 1891SOL    HW2 6573   5.079   6.909   3.330  0.2831  1.5590 -1.7993
 1892SOL     OW 6574   3.182   6.212   1.560 -0.0674 -0.0584 -0.1900
 1892SOL    HW1 6575   3.249   6.210   1.635  0.0454  0.1898 -0.2828
 1892SOL    HW2 6576   3.196   6.294   1.505 -1.0619  0.4932  0.3489
 1893SOL     OW 6577   4.442   1.903   5.057  0.3191  0.1423 -0.6660
 1893SOL    HW1 6578   4.515   1.896   4.989  0.5096 -1.5723 -0.3388
 1893SOL    HW2 6579   4.378   1.828   5.044  0.7173 -0.6296  1.4155
 1894SOL     OW 6580   4.151   5.459   0.917 -0.3117 -0.2786  0.1053
 1894SOL    HW1 6581   4.241   5.475   0.956 -0.3076  1.1541 -0.4394
 1894SOL    HW2 6582   4.125   5.536   0.858 -2.8155  0.4734  1.9844
 1895SOL     OW 6583   6.317   0.807   1.546 -0.7549  0.1400  0.5815
 1895SOL    HW1 6584   6.404   0.769   1.513 -0.9072 -0.9009  1.3002
 1895SOL    HW2 6585   6.241   0.760   1.502 -0.9520  0.2673  0.7804
 1896SOL     OW 6586   1.213   0.577   4.050  0.1043 -0.9352 -0.0498
 1896SOL    HW1 6587   1.280   0.514   4.088 -0.6862 -3.1651 -2.0690
 1896SOL    HW2 6588   1.257   0.637   3.982  0.5666 -0.3201  0.7742
 1897SOL     OW 6589   0.873   5.793   3.654 -0.3924 -0.8395 -0.6755
 1897SOL    HW1 6590   0.827   5.834   3.575 -0.2485  0.0039 -0.3347
 1897SOL    HW2 6591   0.805   5.770   3.723 -0.2484  1.5335  0.3383
 1898SOL     OW 6592   5.002   6.252   1.364  0.0012  0.4127  0.2850
 1898SOL    HW1 6593   5.062   6.241   1.443 -0.1250  2.0761  0.6435
 1898SOL    HW2 6594   4.993   6.349   1.341  0.0060 -0.0204 -1.7604
 1899SOL     OW 6595   1.265   4.634   1.452 -0.4300  0.1647 -0.0636
 1899SOL    HW1 6596   1.211   4.634   1.368  3.1861 -0.6975 -2.6350
 1899SOL    HW2 6597   1.227   4.567   1.516 -2.5548 -0.1299 -1.5352
 1900SOL     OW 6598   0.458   0.713   0.352  0.0249 -0.5070  0.0170
 1900SOL    HW1 6599   0.489   0.674   0.439  1.3784 -1.2732 -0.7724
 1900SOL    HW2 6600   0.406   0.797   0.369  1.8698  0.3993  1.4715
 1901SOL     OW 6601   3.368   2.049   6.317  0.5413  0.0909  0.1297
 1901SOL    HW1 6602   3.331   2.113   6.249 -1.8693 -0.9383  0.3844
 1901SOL    HW2 6603   3.399   2.100   6.397 -3.3543  0.9828  1.2778
 1902SOL     OW 6604   2.911   2.324   4.459 -0.4169  0.4940  0.3205
 1902SOL    HW1 6605   2.919   2.305   4.557  0.2223  1.5987  0.4922
 1902SOL    HW2 6606   2.995   2.295   4.412 -0.7919 -0.1985  0.0604
 1903SOL     OW 6607   0.478   3.562   3.295  0.4492  0.3684  0.1251
 1903SOL    HW1 6608   0.431   3.650   3.292  0.5321  0.4583  1.3304
 1903SOL    HW2 6609   0.571   3.574   3.259 -0.0944  0.3908 -1.3435
 1904SOL     OW 6610   1.047   5.795   4.511 -0.1155  0.3622  0.8190
 1904SOL    HW1 6611   1.137   5.757   4.532  0.5046  1.1777 -0.2524
 1904SOL    HW2 6612   0.979   5.722   4.509  0.4355 -0.2080  2.0387
 1905SOL     OW 6613   1.018   2.106   4.441  0.4882 -0.2245 -0.0461
 1905SOL    HW1 6614   1.064   2.167   4.376 -0.3838 -0.1178 -0.5688
 1905SOL    HW2 6615   1.055   2.123   4.533  0.4741  0.8821 -0.2323
 1906SOL     OW 6616   4.003   0.506   6.125 -0.1188 -0.3160  0.1332
 1906SOL    HW1 6617   3.986   0.585   6.184  0.8000 -0.0666  0.0856
 1906SOL    HW2 6618   3.983   0.530   6.030  0.5350 -0.0035  0.0676
 1907SOL     OW 6619   2.554   0.381   4.553  0.2176  0.0226  0.3123
 1907SOL    HW1 6620   2.552   0.458   4.616  1.3709  0.5486 -0.2740
 1907SOL    HW2 6621   2.644   0.337   4.556 -0.6323 -1.7564  1.1576
 1908SOL     OW 6622   3.688   1.176   6.931 -0.5607 -0.2109  0.2000
 1908SOL    HW1 6623   3.648   1.218   6.850  0.4862 -0.7600 -0.6219
 1908SOL    HW2 6624   3.786   1.161   6.917 -0.3530 -0.3296  1.5620
 1909SOL     OW 6625   2.674   5.534   4.326 -0.1482 -0.1895 -0.1367
 1909SOL    HW1 6626   2.586   5.499   4.356  0.9630 -1.2843  2.0927
 1909SOL    HW2 6627   2.691   5.622   4.370  0.8717 -1.1339  1.4729
 1910SOL     OW 6628   4.478   0.391   6.651 -0.6796 -0.6736 -0.2916
 1910SOL    HW1 6629   4.573   0.361   6.653  0.0996  1.6049  0.7724
 1910SOL    HW2 6630   4.466   0.458   6.578 -1.7425 -1.6476 -1.0427
 1911SOL     OW 6631   5.571   0.518   4.896 -0.0525  0.4181  0.2326
 1911SOL    HW1 6632   5.578   0.430   4.849  0.9935  1.2666 -1.2962
 1911SOL    HW2 6633   5.598   0.507   4.991  0.7838 -0.7833 -0.1186
 1912SOL     OW 6634   6.026   6.891   1.424  0.1592 -0.3727  0.5385
 1912SOL    HW1 6635   6.028   6.980   1.469 -1.1149 -0.1269  0.1478
 1912SOL    HW2 6636   6.119   6.859   1.409  0.6306  0.8129  0.8423
 1913SOL     OW 6637   1.515   0.142   3.788  0.8225 -0.4548  0.1437
 1913SOL    HW1 6638   1.417   0.146   3.805  0.6929 -0.7780 -0.5092
 1913SOL    HW2 6639   1.545   0.047   3.782  1.0738 -0.3562 -0.2111
 1914SOL     OW 6640   2.021   0.678   0.497  0.3983 -0.4993 -0.4881
 1914SOL    HW1 6641   2.029   0.627   0.412  1.1111  0.9537 -1.3171
 1914SOL    HW2 6642   2.037   0.775   0.480 -3.1101  0.4378  0.6072
 1915SOL     OW 6643   4.792   0.456   5.540 -0.1311 -0.4121 -0.2073
 1915SOL    HW1 6644   4.879   0.483   5.499 -0.0871  0.0790  0.2010
 1915SOL    HW2 6645   4.774   0.359   5.520 -0.5740  0.0491 -2.1872
 1916SOL     OW 6646   1.827   5.887   0.411  0.3574  0.0957 -0.0327
 1916SOL    HW1 6647   1.907   5.922   0.362  1.1908  0.2955  1.4068
 1916SOL    HW2 6648   1.744   5.918   0.365  1.0815  2.1916 -0.0341
 1917SOL     OW 6649   4.212   3.755   5.202  0.3563  0.1113 -0.7383
 1917SOL    HW1 6650   4.225   3.847   5.239 -1.6081  0.1432 -0.0294
 1917SOL    HW2 6651   4.289   3.697   5.229  0.9544  1.1940 -0.0540
 1918SOL     OW 6652   6.879   6.318   4.578  0.3968 -0.1234 -0.3878
 1918SOL    HW1 6653   6.802   6.359   4.528 -0.7234 -1.1277  0.4443
 1918SOL    HW2 6654   6.843   6.258   4.650  1.9797 -0.7427 -0.0856
 1919SOL     OW 6655   1.457   0.939   3.120 -1.1198  0.6326  0.8137
 1919SOL    HW1 6656   1.371   0.976   3.157 -0.0578  2.0726  1.9831
 1919SOL    HW2 6657   1.529   1.007   3.130  0.5348 -1.0976  1.3372
 1920SOL     OW 6658   1.690   6.183   3.798 -0.5108 -0.3105 -0.6599
 1920SOL    HW1 6659   1.632   6.157   3.876 -0.1988 -0.7378 -0.5639
 1920SOL    HW2 6660   1.648   6.152   3.713 -0.6297 -0.2513 -0.6215
 1921SOL     OW 6661   1.792   6.847   5.710  0.2702 -0.0602 -0.1911
 1921SOL    HW1 6662   1.723   6.861   5.781  1.2958 -0.4160  0.8944
 1921SOL    HW2 6663   1.834   6.935   5.687  1.3302 -0.2206  1.0882
 1922SOL     OW 6664   4.094   1.142   5.857  0.3234 -0.4902  0.3617
 1922SOL    HW1 6665   4.110   1.239   5.836 -1.6540  0.2679  1.9932
 1922SOL    HW2 6666   4.029   1.135   5.933 -1.0558 -3.1180 -0.9298
 1923SOL     OW 6667   3.007   1.513   0.635 -0.0224 -0.2048  0.2196
 1923SOL    HW1 6668   2.930   1.485   0.579 -0.6492 -0.6301  1.2625
 1923SOL    HW2 6669   3.088   1.526   0.578 -0.7767 -0.0969 -0.8348
 1924SOL     OW 6670   5.626   5.208   2.917 -0.1876 -0.7990  0.1658
 1924SOL    HW1 6671   5.651   5.134   2.855 -0.0392 -1.4743  1.0088
 1924SOL    HW2 6672   5.577   5.170   2.996  0.3804 -0.0893  0.8826
 1925SOL     OW 6673   3.348   3.604   3.139 -0.1689  0.2255  0.1330
 1925SOL    HW1 6674   3.444   3.582   3.118 -0.5110 -1.2933  0.0724
 1925SOL    HW2 6675   3.327   3.576   3.232 -0.7823 -0.2133 -0.1332
 1926SOL     OW 6676   2.077   5.110   3.547  0.3106 -0.2768 -0.1962
 1926SOL    HW1 6677   2.149   5.179   3.539  0.0015  0.3251  1.6848
 1926SOL    HW2 6678   2.109   5.036   3.607 -1.0146  0.6345  1.7458
 1927SOL     OW 6679   4.971   5.788   6.610  0.3351  0.2567  0.4269
 1927SOL    HW1 6680   5.035   5.796   6.686 -0.8286  1.5317  1.3391
 1927SOL    HW2 6681   4.884   5.750   6.644  0.2725 -0.5408 -0.5757
 1928SOL     OW 6682   5.357   5.317   5.796  0.0901 -0.1524  0.0245
 1928SOL    HW1 6683   5.320   5.240   5.848  1.4349 -1.0795 -0.3489
 1928SOL    HW2 6684   5.345   5.300   5.699  0.5012  0.0459 -0.0635
 1929SOL     OW 6685   6.264   5.450   0.899 -0.3028  0.0985 -0.7494
 1929SOL    HW1 6686   6.261   5.549   0.881  0.4731  0.8912  2.7734
 1929SOL    HW2 6687   6.196   5.427   0.968 -0.2700 -1.8385 -1.3119
 1930SOL     OW 6688   3.828   4.300   6.776  0.2050  0.0185  0.1207
 1930SOL    HW1 6689   3.813   4.399   6.782  1.4187  0.2559 -0.2762
 1930SOL    HW2 6690   3.922   4.284   6.744  0.0041 -1.2645  0.1570
 1931SOL     OW 6691   0.285   2.613   4.809 -0.5284 -0.1859  0.4271
 1931SOL    HW1 6692   0.304   2.641   4.903 -0.7040 -1.4491  0.8578
 1931SOL    HW2 6693   0.187   2.619   4.792 -0.4679  0.3076  0.2222
 1932SOL     OW 6694   6.265   3.023   3.385 -0.0812 -0.5510 -0.3963
 1932SOL    HW1 6695   6.220   3.091   3.443  0.2812 -0.5690 -0.0910
 1932SOL    HW2 6696   6.195   2.972   3.333 -0.3479  0.1039 -0.6926
 1933SOL     OW 6697   2.120   6.016   0.623 -0.2495 -0.4801  0.0709
 1933SOL    HW1 6698   2.047   5.999   0.690  0.3680  1.2237  1.2544
 1933SOL    HW2 6699   2.157   5.929   0.591 -1.6308 -1.3527  0.7607
 1934SOL     OW 6700   1.351   6.630   5.379  0.4216  0.7330 -0.2800
 1934SOL    HW1 6701   1.408   6.628   5.296  2.7122 -0.7149  1.2142
 1934SOL    HW2 6702   1.399   6.681   5.450 -1.0461  1.0638  0.5116
 1935SOL     OW 6703   3.669   1.693   4.887 -0.0121  0.6209  0.8280
 1935SOL    HW1 6704   3.727   1.756   4.835 -1.6053  0.5119 -1.2492
 1935SOL    HW2 6705   3.634   1.739   4.968 -0.5268  2.1985 -0.2340
 1936SOL     OW 6706   6.037   4.337   3.862  0.9972 -0.4799  0.0048
 1936SOL    HW1 6707   6.124   4.325   3.815  1.3672  0.9089  0.2951
 1936SOL    HW2 6708   6.041   4.291   3.951  1.2923 -0.7637 -0.1555
 1937SOL     OW 6709   3.499   5.924   1.138 -0.0177  0.2391  0.2814
 1937SOL    HW1 6710   3.503   5.835   1.183  0.3685 -0.4641 -1.0598
 1937SOL    HW2 6711   3.472   5.995   1.203 -0.3637 -0.8676  1.3592
 1938SOL     OW 6712   6.787   2.769   0.759  0.2490  0.2697  0.5116
 1938SOL    HW1 6713   6.769   2.696   0.824  1.0266  0.8594  1.4154
 1938SOL    HW2 6714   6.704   2.822   0.744 -0.7129 -1.5769 -1.2182
 1939SOL     OW 6715   2.689   6.643   5.895  0.4484  0.3544  0.7716
 1939SOL    HW1 6716   2.594   6.661   5.868  0.5604  0.4260  0.4253
 1939SOL    HW2 6717   2.700   6.664   5.992  0.4989  1.9119  0.4647
 1940SOL     OW 6718   3.069   4.165   6.623  0.3422 -0.1524 -0.1693
 1940SOL    HW1 6719   3.106   4.073   6.621 -0.7060 -0.5865 -0.1758
 1940SOL    HW2 6720   3.082   4.208   6.533 -0.2316 -0.7407 -0.5439
 1941SOL     OW 6721   1.807   2.974   5.536 -0.5654 -0.5125  0.4981
 1941SOL    HW1 6722   1.760   3.055   5.501 -1.7749 -1.4479 -0.1308
 1941SOL    HW2 6723   1.754   2.934   5.610 -0.2639 -1.0382  0.4350
 1942SOL     OW 6724   0.074   0.934   2.281 -0.1788 -0.1832 -0.8897
 1942SOL    HW1 6725   0.137   0.893   2.215  1.1586  2.9609 -1.7643
 1942SOL    HW2 6726  -0.013   0.956   2.236 -0.3216 -0.6310 -0.8339
 1943SOL     OW 6727   2.495   4.434   2.896  0.4664 -0.2032  0.7430
 1943SOL    HW1 6728   2.581   4.485   2.903  1.4373 -1.8068  0.7665
 1943SOL    HW2 6729   2.471   4.398   2.986 -0.4639  0.5743  0.8193
 1944SOL     OW 6730   4.077   0.734   0.347 -0.0304  0.4202 -0.3722
 1944SOL    HW1 6731   3.985   0.716   0.382  1.1822 -0.7384  2.5375
 1944SOL    HW2 6732   4.090   0.832   0.336 -1.1693  0.6803  0.4764
 1945SOL     OW 6733   4.749   4.963   2.450 -0.2515 -0.7914  0.3932
 1945SOL    HW1 6734   4.727   5.016   2.532  0.1129 -0.5904  0.3640
 1945SOL    HW2 6735   4.737   4.865   2.469 -1.4043 -0.6772  0.2975
 1946SOL     OW 6736   0.747   0.555   0.761  0.1939 -0.1272  0.2337
 1946SOL    HW1 6737   0.845   0.573   0.758 -0.0662  1.3027 -0.2553
 1946SOL    HW2 6738   0.721   0.525   0.854  0.6890  2.0825  1.1479
 1947SOL     OW 6739   6.868   6.391   3.022 -0.0960  0.5010 -0.1504
 1947SOL    HW1 6740   6.792   6.412   2.960 -0.0306 -0.4183 -0.5714
 1947SOL    HW2 6741   6.879   6.292   3.026 -0.7603  0.4747  2.1455
 1948SOL     OW 6742   5.829   6.273   2.500  0.2862 -1.0563  0.4774
 1948SOL    HW1 6743   5.744   6.312   2.462  1.2336  0.2392 -0.4066
 1948SOL    HW2 6744   5.833   6.175   2.479  0.0070 -0.7014 -1.4216
 1949SOL     OW 6745   4.365   4.582   6.670 -0.0602  0.4144 -0.3067
 1949SOL    HW1 6746   4.278   4.571   6.622 -0.5462  1.8895  0.1765
 1949SOL    HW2 6747   4.395   4.677   6.662  0.1056  0.5857  1.8458
 1950SOL     OW 6748   4.284   4.023   0.972  0.4043  0.2078 -0.3336
 1950SOL    HW1 6749   4.266   4.077   1.054 -1.1005  0.1152 -0.5703
 1950SOL    HW2 6750   4.255   3.929   0.987 -0.8964  0.4294 -1.3061
 1951SOL     OW 6751   3.616   4.883   0.611 -0.3540  0.2324  0.5862
 1951SOL    HW1 6752   3.648   4.920   0.524 -1.5604  1.1904  0.5294
 1951SOL    HW2 6753   3.645   4.943   0.686  0.1213 -0.2464  0.7968
 1952SOL     OW 6754   3.461   0.935   6.568  0.6965 -0.1749 -0.5210
 1952SOL    HW1 6755   3.536   0.988   6.528  2.5199 -2.4518 -0.3091
 1952SOL    HW2 6756   3.455   0.956   6.666  0.3982  0.7117 -0.7164
 1953SOL     OW 6757   4.945   3.445   6.996  0.7169 -0.0132  0.2988
 1953SOL    HW1 6758   4.885   3.385   6.944 -2.4133  1.8216  1.5120
 1953SOL    HW2 6759   5.040   3.420   6.978 -0.2933 -2.6738 -2.2693
 1954SOL     OW 6760   1.316   6.250   3.162  0.0408 -0.3813  0.1767
 1954SOL    HW1 6761   1.307   6.349   3.175 -3.1707 -0.7881  2.6256
 1954SOL    HW2 6762   1.400   6.218   3.206 -1.1694  0.8258  3.6998
 1955SOL     OW 6763   1.314   0.575   3.615 -0.4477 -0.3036 -0.2830
 1955SOL    HW1 6764   1.303   0.625   3.529  1.1755  2.2766  0.8867
 1955SOL    HW2 6765   1.370   0.493   3.599 -2.1033 -1.1586 -2.0290
 1956SOL     OW 6766   6.917   0.568   0.616  0.1775 -0.1762  0.1372
 1956SOL    HW1 6767   6.992   0.607   0.563  0.1131  0.2224  0.3331
 1956SOL    HW2 6768   6.955   0.513   0.691  0.2747 -1.6565 -0.9502
 1957SOL     OW 6769   1.998   5.385   3.952 -0.5914  0.5806 -0.1192
 1957SOL    HW1 6770   2.058   5.395   3.873 -0.8050 -1.4223 -0.5863
 1957SOL    HW2 6771   2.033   5.440   4.028  2.4567 -1.2361 -0.0360
 1958SOL     OW 6772   0.017   2.968   3.511 -0.2694 -0.5584 -0.1021
 1958SOL    HW1 6773  -0.046   2.964   3.589 -0.7958 -1.0879 -0.5553
 1958SOL    HW2 6774   0.103   2.925   3.536 -0.4168 -0.6786  0.2033
 1959SOL     OW 6775   2.057   3.143   6.695  0.4556  0.8880  0.1707
 1959SOL    HW1 6776   1.964   3.108   6.679  0.9345 -0.1144 -0.4888
 1959SOL    HW2 6777   2.066   3.233   6.652  0.4628  0.0014 -1.7985
 1960SOL     OW 6778   5.954   0.094   0.768 -0.4028 -0.1072 -0.1929
 1960SOL    HW1 6779   6.047   0.093   0.803 -0.7515  1.5844  0.8997
 1960SOL    HW2 6780   5.892   0.126   0.840 -1.7401 -0.5893 -1.0954
 1961SOL     OW 6781   4.263   5.154   3.614 -0.0716  0.5123  0.5974
 1961SOL    HW1 6782   4.324   5.082   3.648  0.0305 -0.6859 -1.8463
 1961SOL    HW2 6783   4.243   5.219   3.687  0.5688 -1.4871  2.6827
 1962SOL     OW 6784   4.194   6.554   2.405 -0.4835  0.2534  0.2827
 1962SOL    HW1 6785   4.161   6.469   2.364 -0.0675  0.5638 -0.7292
 1962SOL    HW2 6786   4.191   6.627   2.336  0.4717  0.7325  0.7363
 1963SOL     OW 6787   1.143   0.653   2.294  0.0942 -0.1980 -0.3319
 1963SOL    HW1 6788   1.079   0.590   2.250  0.0295 -0.4628  0.1329
 1963SOL    HW2 6789   1.127   0.746   2.261  0.5544 -0.5043 -1.4346
 1964SOL     OW 6790   3.174   1.308   1.468 -0.4300 -0.5624 -0.1264
 1964SOL    HW1 6791   3.264   1.327   1.428 -0.8839  2.3528  0.0241
 1964SOL    HW2 6792   3.138   1.222   1.431  1.8356 -1.1277 -1.1628
 1965SOL     OW 6793   0.591   2.453   3.161  0.0914 -0.6180 -0.0710
 1965SOL    HW1 6794   0.639   2.539   3.177 -0.3572 -0.3613 -0.1037
 1965SOL    HW2 6795   0.590   2.399   3.245 -0.3827 -0.2125  0.1848
 1966SOL     OW 6796   0.609   6.597   5.216  0.2179 -0.3463  0.6760
 1966SOL    HW1 6797   0.571   6.567   5.129  3.0159 -1.3522 -0.3042
 1966SOL    HW2 6798   0.657   6.520   5.260  0.9298  0.7577  1.9115
 1967SOL     OW 6799   5.267   2.164   5.303 -0.0998  0.1978 -0.0402
 1967SOL    HW1 6800   5.329   2.224   5.352 -0.1989  1.9303 -1.8757
 1967SOL    HW2 6801   5.180   2.158   5.353 -0.1878  1.8499  0.0642
 1968SOL     OW 6802   3.194   3.878   6.655 -0.2826 -0.3688 -1.0517
 1968SOL    HW1 6803   3.284   3.840   6.678 -1.2149 -2.4924 -0.6875
 1968SOL    HW2 6804   3.164   3.843   6.566 -0.0160  1.7804 -2.0618
 1969SOL     OW 6805   2.347   1.167   1.473 -0.0330 -0.2731 -0.1431
 1969SOL    HW1 6806   2.363   1.102   1.548 -1.3087 -1.0563 -0.5362
 1969SOL    HW2 6807   2.254   1.201   1.478  0.1125  0.2511 -0.9421
 1970SOL     OW 6808   4.277   5.451   4.846 -0.3646  0.0183 -0.1694
 1970SOL    HW1 6809   4.356   5.476   4.903  0.1964  0.9259 -1.2861
 1970SOL    HW2 6810   4.304   5.380   4.781 -0.2457  0.8106 -1.0118
 1971SOL     OW 6811   5.937   5.499   0.051  0.7129  0.3172  0.1964
 1971SOL    HW1 6812   5.889   5.459  -0.027  1.2410 -1.4032  0.7118
 1971SOL    HW2 6813   6.002   5.567   0.019  1.4707 -0.8978 -0.9675
 1972SOL     OW 6814   5.149   3.944   2.532 -0.1473 -0.4566 -0.3612
 1972SOL    HW1 6815   5.124   4.031   2.490  1.2110  0.1497  0.0419
 1972SOL    HW2 6816   5.122   3.945   2.628 -1.7371 -1.1943 -0.7714
 1973SOL     OW 6817   2.756   1.970   0.926 -0.4881 -0.7002 -0.6547
 1973SOL    HW1 6818   2.855   1.957   0.919 -0.0039  1.6206  0.8460
 1973SOL    HW2 6819   2.718   1.903   0.990  0.9781  1.3371  2.5848
 1974SOL     OW 6820   0.362   6.505   5.348 -0.0996 -0.0897 -1.1044
 1974SOL    HW1 6821   0.442   6.538   5.299 -0.8133  0.1641 -2.1393
 1974SOL    HW2 6822   0.308   6.583   5.380 -0.6584 -0.2461 -1.6481
 1975SOL     OW 6823   3.909   1.264   4.169 -0.6302  0.2094 -0.8790
 1975SOL    HW1 6824   3.886   1.302   4.079 -1.0892  0.7129 -0.5548
 1975SOL    HW2 6825   3.913   1.338   4.236 -1.2339 -0.2809 -0.2950
 1976SOL     OW 6826   6.318   5.880   6.711  0.4340 -0.1798 -0.1427
 1976SOL    HW1 6827   6.298   5.782   6.719 -2.8401  0.1492 -2.2840
 1976SOL    HW2 6828   6.362   5.898   6.623 -0.9795  0.4007 -0.7812
 1977SOL     OW 6829   0.790   2.675   2.796  0.3686 -0.1582 -0.0747
 1977SOL    HW1 6830   0.786   2.601   2.863 -1.2623  2.1732  2.6361
 1977SOL    HW2 6831   0.707   2.675   2.740 -0.6344  0.7305  1.3345
 1978SOL     OW 6832   1.287   0.685   4.362  0.4106 -0.2184 -0.4575
 1978SOL    HW1 6833   1.279   0.782   4.386  2.3367  0.1118 -0.9653
 1978SOL    HW2 6834   1.197   0.642   4.366 -0.3619  1.3937  0.5679
 1979SOL     OW 6835   5.567   4.287   2.985  0.0666  0.2902 -0.1330
 1979SOL    HW1 6836   5.522   4.266   3.071  1.6276  0.1547  0.6830
 1979SOL    HW2 6837   5.653   4.236   2.978  0.3398  0.8612 -1.4332
 1980SOL     OW 6838   1.652   0.246   6.190 -0.4965 -0.4820  0.7259
 1980SOL    HW1 6839   1.660   0.205   6.281 -0.9325 -1.2698  0.4209
 1980SOL    HW2 6840   1.605   0.334   6.198  0.2902 -0.1056  1.3712
 1981SOL     OW 6841   3.218   1.954   4.050  0.4422 -0.2714  0.3854
 1981SOL    HW1 6842   3.184   1.888   4.117  0.1188 -1.0220 -0.4829
 1981SOL    HW2 6843   3.160   2.036   4.051  1.2434  0.3229  1.9435
 1982SOL     OW 6844   1.225   4.574   5.411  0.3764 -0.0841 -0.2108
 1982SOL    HW1 6845   1.213   4.615   5.321 -0.9428 -0.0919 -0.0534
 1982SOL    HW2 6846   1.318   4.538   5.419  0.1400 -1.2151 -2.0409
 1983SOL     OW 6847   1.856   2.687   1.198 -0.0097  0.2331  0.0647
 1983SOL    HW1 6848   1.926   2.664   1.266 -0.0465 -2.7566 -0.7424
 1983SOL    HW2 6849   1.868   2.629   1.117 -3.1672 -0.1261 -0.2625
 1984SOL     OW 6850   6.054   1.350   4.206  0.6262  0.6889  0.0309
 1984SOL    HW1 6851   6.099   1.291   4.140 -2.5209 -1.2453 -0.5885
 1984SOL    HW2 6852   6.093   1.442   4.201  3.8798 -0.6010 -0.8515
 1985SOL     OW 6853   0.446   1.636   2.056  0.2836  0.2005  0.2475
 1985SOL    HW1 6854   0.401   1.717   2.093 -1.3900 -1.2320  1.5603
 1985SOL    HW2 6855   0.513   1.602   2.122 -0.0636 -0.2906  0.3517
 1986SOL     OW 6856   1.746   5.823   6.767 -0.1754  0.1007  0.2413
 1986SOL    HW1 6857   1.666   5.821   6.827 -0.2274  1.3064  0.2446
 1986SOL    HW2 6858   1.826   5.791   6.818 -0.5400 -0.5581  0.4140
 1987SOL     OW 6859   0.899   3.770   5.554 -0.1548 -0.0163 -0.3189
 1987SOL    HW1 6860   0.978   3.830   5.567 -1.1840  1.3537 -0.1510
 1987SOL    HW2 6861   0.895   3.704   5.629  0.6247  0.1236 -0.1425
 1988SOL     OW 6862   4.213   0.593   2.016  0.0261 -0.5846 -0.1038
 1988SOL    HW1 6863   4.252   0.657   1.950  0.8953  0.6015  1.4625
 1988SOL    HW2 6864   4.115   0.611   2.026  0.0593 -0.1985 -0.4366
 1989SOL     OW 6865   1.465   0.436   6.198  0.1187 -0.2511 -0.3283
 1989SOL    HW1 6866   1.373   0.399   6.186 -0.0242 -0.2240  0.5780
 1989SOL    HW2 6867   1.469   0.528   6.161 -0.0569 -0.4660 -0.8861
 1990SOL     OW 6868   3.219   5.078   1.741  0.4049 -0.1820 -0.6773
 1990SOL    HW1 6869   3.181   5.096   1.651  1.6287 -1.3058 -1.4524
 1990SOL    HW2 6870   3.239   4.981   1.750  0.4250 -0.0653  0.7675
 1991SOL     OW 6871   3.914   2.327   0.011  0.2089 -0.4545  0.3273
 1991SOL    HW1 6872   3.845   2.386  -0.030  0.3193  0.5293  1.5002
 1991SOL    HW2 6873   3.871   2.266   0.078  0.5341  0.5941  1.5204
 1992SOL     OW 6874   0.617   1.260   0.349 -0.2511  0.0421  0.2552
 1992SOL    HW1 6875   0.618   1.341   0.407  0.4415  0.6170 -0.5453
 1992SOL    HW2 6876   0.711   1.233   0.327 -0.4948 -0.5048 -0.1412
 1993SOL     OW 6877   3.531   2.240   6.119 -0.0553 -0.2122 -0.4473
 1993SOL    HW1 6878   3.570   2.153   6.149 -1.2239 -0.1360  1.4793
 1993SOL    HW2 6879   3.563   2.313   6.180  0.4182  0.6241 -1.6634
 1994SOL     OW 6880   0.369   2.068   0.546 -0.2866 -0.2890 -0.1003
 1994SOL    HW1 6881   0.440   1.998   0.545 -1.2970 -1.3856  1.0229
 1994SOL    HW2 6882   0.374   2.118   0.633  0.6233  1.2894 -1.0161
 1995SOL     OW 6883   5.817   2.906   3.301 -0.2802 -0.2905 -0.8538
 1995SOL    HW1 6884   5.745   2.949   3.356 -1.8331 -0.6180 -2.5075
 1995SOL    HW2 6885   5.902   2.957   3.312 -0.8366  0.3414  0.8894
 1996SOL     OW 6886   2.676   2.944   0.113  0.3568  0.6850  0.0519
 1996SOL    HW1 6887   2.640   3.016   0.173  1.3222  0.5072  0.8777
 1996SOL    HW2 6888   2.772   2.961   0.095  0.0074  0.9038 -1.7549
 1997SOL     OW 6889   5.209   0.625   4.648  0.0528 -0.1415 -0.4609
 1997SOL    HW1 6890   5.162   0.675   4.575 -0.7161  2.4060  1.6027
 1997SOL    HW2 6891   5.281   0.683   4.687 -0.0448 -1.0970  1.2515
 1998SOL     OW 6892   4.257   4.123   5.973  0.4027 -0.1863 -0.2940
 1998SOL    HW1 6893   4.161   4.132   5.947  0.1660 -0.2142  0.5626
 1998SOL    HW2 6894   4.280   4.026   5.984 -0.8336 -0.1578  4.3531
 1999SOL     OW 6895   2.987   6.315   2.726  0.4251 -0.1509 -0.1336
 1999SOL    HW1 6896   3.056   6.359   2.783  1.1983  0.4487 -1.4875
 1999SOL    HW2 6897   3.009   6.218   2.716  1.7278  0.2428 -1.4335
 2000SOL     OW 6898   5.308   2.991   5.897 -0.0319 -0.3856 -0.3291
 2000SOL    HW1 6899   5.358   3.039   5.969 -0.6863 -0.2443  0.0346
 2000SOL    HW2 6900   5.283   3.056   5.825 -1.9013  0.1028  0.6883
 2001SOL     OW 6901   3.998   2.673   1.665  0.8305 -0.3564 -0.7347
 2001SOL    HW1 6902   3.908   2.717   1.661  0.3563 -1.3213 -0.9847
 2001SOL    HW2 6903   3.989   2.582   1.706  1.6763 -0.5200 -0.8890
 2002SOL     OW 6904   1.572   5.502   5.587 -0.3809  0.4660  0.0443
 2002SOL    HW1 6905   1.485   5.503   5.539  0.0206  0.1044 -0.7128
 2002SOL    HW2 6906   1.556   5.508   5.686 -1.2615  0.3099 -0.0804
 2003SOL     OW 6907   0.309   0.169   3.128 -0.0414 -0.0606  0.1298
 2003SOL    HW1 6908   0.390   0.119   3.100 -0.1740 -0.1502 -0.0974
 2003SOL    HW2 6909   0.263   0.121   3.203 -1.1651 -1.2572 -1.2660
 2004SOL     OW 6910   5.628   1.869   5.942  0.1388  0.5364  0.0088
 2004SOL    HW1 6911   5.703   1.802   5.938 -0.0217  0.3069  0.7181
 2004SOL    HW2 6912   5.564   1.851   5.867 -0.0353 -0.2771  0.3370
 2005SOL     OW 6913   0.531   6.124   6.709 -0.0521  0.1526 -0.6966
 2005SOL    HW1 6914   0.546   6.056   6.638  0.3073 -1.4112  0.7958
 2005SOL    HW2 6915   0.529   6.079   6.799 -2.0260  1.8256  0.1949
 2006SOL     OW 6916   4.892   4.823   1.781  0.4243 -0.0729  0.4367
 2006SOL    HW1 6917   4.953   4.785   1.851  0.6812 -0.0905  0.2026
 2006SOL    HW2 6918   4.937   4.820   1.692 -0.4416 -1.3450  0.0138
 2007SOL     OW 6919   2.756   4.787   1.408 -0.0854 -0.1065  0.3659
 2007SOL    HW1 6920   2.809   4.721   1.461 -0.2476 -1.4399 -1.0750
 2007SOL    HW2 6921   2.659   4.764   1.413 -0.0361 -0.7811 -1.1646
 2008SOL     OW 6922   1.036   6.036   2.195  0.3738 -0.2332  0.2343
 2008SOL    HW1 6923   0.987   6.085   2.268  0.1256 -0.3500  0.1486
 2008SOL    HW2 6924   0.997   6.061   2.107  1.6481  1.0674  0.0001
 2009SOL     OW 6925   6.041   6.456   0.927 -0.0994  0.0827 -0.7801
 2009SOL    HW1 6926   6.133   6.495   0.938 -0.1636 -0.1896  1.0137
 2009SOL    HW2 6927   5.973   6.529   0.930 -0.0538  0.1049  0.0003
 2010SOL     OW 6928   0.562   2.076   1.703  0.2766 -0.7797  0.2973
 2010SOL    HW1 6929   0.655   2.104   1.727 -0.2175  2.4366 -1.0000
 2010SOL    HW2 6930   0.530   2.007   1.768  2.3588  0.4906  2.8462
 2011SOL     OW 6931   1.201   1.418   4.739  1.0936 -0.0061  0.2925
 2011SOL    HW1 6932   1.271   1.378   4.799  0.3624  1.1537  2.0057
 2011SOL    HW2 6933   1.216   1.387   4.645  3.5205 -0.3037  0.6936
 2012SOL     OW 6934   6.825   4.171   2.491  0.1077 -0.0725 -0.0160
 2012SOL    HW1 6935   6.824   4.271   2.495 -1.2130 -0.1074  2.4919
 2012SOL    HW2 6936   6.768   4.141   2.415  0.3833  1.0755 -0.6987
 2013SOL     OW 6937   3.976   0.218   3.729  0.0601 -0.1003 -0.0995
 2013SOL    HW1 6938   3.888   0.262   3.747  0.2697  0.2550  0.0780
 2013SOL    HW2 6939   4.023   0.200   3.816  1.0533  1.5641 -0.2505
 2014SOL     OW 6940   2.985   6.891   2.195 -0.1158 -0.2103 -0.1349
 2014SOL    HW1 6941   2.989   6.955   2.119 -0.7188 -0.0964 -0.0733
 2014SOL    HW2 6942   2.929   6.929   2.268  0.3078 -0.3993  0.2952
 2015SOL     OW 6943   4.335   1.900   6.089  0.3468  0.0300  0.1363
 2015SOL    HW1 6944   4.260   1.842   6.057  0.3712  0.0039  0.1268
 2015SOL    HW2 6945   4.355   1.878   6.185 -0.0520  0.4462  0.3192
 2016SOL     OW 6946   0.490   4.857   3.464 -0.3635 -0.3238 -0.9301
 2016SOL    HW1 6947   0.589   4.846   3.467 -0.5474 -2.2604 -0.1388
 2016SOL    HW2 6948   0.467   4.939   3.411  1.6629  0.8939 -0.0418
 2017SOL     OW 6949   2.734   6.747   3.519  0.0782  0.3654 -0.2295
 2017SOL    HW1 6950   2.741   6.816   3.447  1.8390  0.8567  0.3800
 2017SOL    HW2 6951   2.654   6.765   3.576  0.2277  1.5966 -0.3946
 2018SOL     OW 6952   4.403   5.921   6.485  0.3314 -0.4134 -0.0489
 2018SOL    HW1 6953   4.501   5.917   6.464  0.7744  0.4990  1.6477
 2018SOL    HW2 6954   4.386   5.871   6.570 -1.1569 -2.8410 -1.6289
 2019SOL     OW 6955   5.391   2.948   1.680 -0.0642  0.0821 -0.0372
 2019SOL    HW1 6956   5.367   2.866   1.732  1.0403 -0.3743 -0.2328
 2019SOL    HW2 6957   5.356   3.029   1.728  0.2076 -0.3893  0.9769
 2020SOL     OW 6958   2.118   6.411   6.701 -0.1466 -0.1492  0.0974
 2020SOL    HW1 6959   2.021   6.411   6.725  0.0199 -1.0775  0.8258
 2020SOL    HW2 6960   2.171   6.450   6.776  0.1437 -0.7284  0.2017
 2021SOL     OW 6961   3.366   0.136   3.994 -0.0443 -0.4731 -0.3879
 2021SOL    HW1 6962   3.315   0.209   3.949  0.8034  0.1878 -0.2963
 2021SOL    HW2 6963   3.379   0.159   4.091 -2.1899 -2.0571  0.3593
 2022SOL     OW 6964   1.046   4.773   1.965 -0.3178  0.6598  0.3677
 2022SOL    HW1 6965   1.093   4.731   2.042  2.6199 -0.3890 -1.8221
 2022SOL    HW2 6966   1.106   4.774   1.885 -4.5510 -2.6318 -3.4230
 2023SOL     OW 6967   6.730   2.845   5.950  0.2545  0.0060  0.9031
 2023SOL    HW1 6968   6.773   2.852   6.040  2.3346  1.8142 -0.1314
 2023SOL    HW2 6969   6.794   2.803   5.886 -0.3700  0.7108 -0.2113
 2024SOL     OW 6970   0.690   6.094   2.887  0.2236 -0.0203  0.1636
 2024SOL    HW1 6971   0.772   6.037   2.881 -0.2936 -0.6496 -1.2783
 2024SOL    HW2 6972   0.709   6.173   2.945  1.7652 -0.2925  0.0792
 2025SOL     OW 6973   3.424   2.009   0.484  0.1187 -0.3348  0.0593
 2025SOL    HW1 6974   3.348   1.980   0.426 -1.4215  0.9838  1.3042
 2025SOL    HW2 6975   3.507   2.018   0.429 -1.1660  0.4800 -1.8635
 2026SOL     OW 6976   6.792   2.532   5.581  0.0849  0.6559  0.2847
 2026SOL    HW1 6977   6.800   2.582   5.495  0.9115  1.2524  0.6999
 2026SOL    HW2 6978   6.851   2.452   5.578  0.6900  1.0869  0.5778
 2027SOL     OW 6979   6.957   0.667   2.354 -0.6730  0.4996  0.4035
 2027SOL    HW1 6980   6.904   0.646   2.272 -0.6525 -0.9648  0.7346
 2027SOL    HW2 6981   7.050   0.693   2.329 -1.6371  3.8535 -0.2414
 2028SOL     OW 6982   3.853   0.863   5.770 -0.6063  0.7742 -0.0028
 2028SOL    HW1 6983   3.920   0.798   5.734 -1.4334 -0.6505  0.9026
 2028SOL    HW2 6984   3.866   0.952   5.727 -0.1951 -0.2768 -2.2157
 2029SOL     OW 6985   1.165   1.163   1.517  0.1376  0.0788  0.5524
 2029SOL    HW1 6986   1.142   1.172   1.614  0.8025  0.1895  0.7074
 2029SOL    HW2 6987   1.086   1.186   1.461  0.5430  2.8762  0.9888
 2030SOL     OW 6988   2.305   0.956   3.489  0.0182 -0.0705  0.4863
 2030SOL    HW1 6989   2.310   1.011   3.405 -1.0924 -1.0974 -0.2872
 2030SOL    HW2 6990   2.388   0.970   3.543  0.6953  0.7319 -0.7167
 2031SOL     OW 6991   5.476   0.323   2.737  0.3362 -0.6064 -0.1518
 2031SOL    HW1 6992   5.570   0.317   2.704  0.5822  0.0469  0.4018
 2031SOL    HW2 6993   5.451   0.237   2.782  0.3696 -1.0948 -1.0527
 2032SOL     OW 6994   5.562   0.673   3.101 -0.1221 -0.0229 -0.3670
 2032SOL    HW1 6995   5.565   0.619   3.017 -2.4006 -0.7546 -0.0528
 2032SOL    HW2 6996   5.476   0.656   3.148  0.6980  1.0879  1.6679
 2033SOL     OW 6997   3.011   6.894   6.995 -0.2210  0.1042 -0.7472
 2033SOL    HW1 6998   3.039   6.959   6.924  0.3866 -0.2093 -0.8014
 2033SOL    HW2 6999   3.005   6.803   6.956 -0.9277  0.0924 -0.6353
 2034SOL     OW 7000   4.413   6.439   2.183 -0.2810  0.2350  0.3311
 2034SOL    HW1 7001   4.482   6.384   2.135 -1.3988 -0.7159 -0.2318
 2034SOL    HW2 7002   4.438   6.536   2.178  0.8710 -0.0678 -0.0816
 2035SOL     OW 7003   0.040   0.777   4.386 -0.7127  0.0760  0.0208
 2035SOL    HW1 7004  -0.052   0.737   4.389 -0.7408  0.1648  1.7530
 2035SOL    HW2 7005   0.066   0.804   4.479 -0.0306  2.5821 -0.8387
 2036SOL     OW 7006   1.450   0.160   2.095  0.3581 -0.1656  0.3329
 2036SOL    HW1 7007   1.541   0.200   2.086  0.4066 -0.1654  0.7998
 2036SOL    HW2 7008   1.381   0.232   2.100  0.5232 -0.0764  2.0888
 2037SOL     OW 7009   6.125   1.926   6.032 -0.0537 -0.1886  0.5603
 2037SOL    HW1 7010   6.035   1.952   6.064  0.8446  2.4860  1.1399
 2037SOL    HW2 7011   6.180   1.893   6.109 -0.1587 -0.7457  0.4046
 2038SOL     OW 7012   1.146   2.185   5.937  0.1888  0.2867 -0.1111
 2038SOL    HW1 7013   1.243   2.160   5.930  0.2005  0.2836  0.0516
 2038SOL    HW2 7014   1.107   2.193   5.846  1.0180  2.9012 -0.3052
 2039SOL     OW 7015   7.011   5.093   1.991  0.5993 -0.5863 -0.5644
 2039SOL    HW1 7016   7.021   5.180   2.038 -0.0668 -1.7278  1.8339
 2039SOL    HW2 7017   6.927   5.048   2.021 -0.5550 -0.9076 -3.8098
 2040SOL     OW 7018   3.395   3.208   3.477  0.0122 -0.4396  0.6603
 2040SOL    HW1 7019   3.392   3.294   3.529 -1.2061  0.9647 -1.5785
 2040SOL    HW2 7020   3.304   3.167   3.477 -0.3204  0.2030 -1.2588
 2041SOL     OW 7021   6.274   6.020   6.196 -0.2505  0.0531 -0.4121
 2041SOL    HW1 7022   6.207   5.946   6.194  1.1873 -1.2944 -1.9746
 2041SOL    HW2 7023   6.354   5.994   6.143  0.9002  2.2201  0.1276
 2042SOL     OW 7024   4.727   6.241   6.398  0.0013  0.4830  0.1289
 2042SOL    HW1 7025   4.711   6.157   6.345 -1.9232  0.4245  0.7380
 2042SOL    HW2 7026   4.768   6.216   6.486 -1.2365  0.0882  0.6071
 2043SOL     OW 7027   0.740   4.186   2.133 -0.3078 -0.4869  0.1271
 2043SOL    HW1 7028   0.742   4.284   2.153  0.0256 -0.6525  0.9633
 2043SOL    HW2 7029   0.648   4.159   2.108 -0.5002 -0.0388  0.3352
 2044SOL     OW 7030   3.306   6.596   1.625 -0.1058 -0.2061 -0.4057
 2044SOL    HW1 7031   3.387   6.538   1.636 -0.9249 -1.5100 -0.9843
 2044SOL    HW2 7032   3.228   6.552   1.670 -0.3946  1.2914  0.6040
 2045SOL     OW 7033   1.872   4.918   3.625 -0.3353 -0.3223  0.0063
 2045SOL    HW1 7034   1.959   4.967   3.625 -0.9033  0.7592  0.8052
 2045SOL    HW2 7035   1.875   4.845   3.693 -0.1827 -0.0260  0.3222
 2046SOL     OW 7036   0.303   1.274   3.741 -0.2879 -0.6612 -0.0506
 2046SOL    HW1 7037   0.307   1.312   3.833  1.3030 -0.6775 -0.0852
 2046SOL    HW2 7038   0.207   1.267   3.711 -0.7462  0.5838  1.0660
 2047SOL     OW 7039   5.201   1.737   5.365  0.5641  0.0172 -0.7289
 2047SOL    HW1 7040   5.154   1.815   5.406 -0.2438 -0.7813 -0.0878
 2047SOL    HW2 7041   5.151   1.707   5.284 -0.4173 -1.1899  0.2759
 2048SOL     OW 7042   2.306   0.517   0.228 -0.0751  0.5854 -0.6572
 2048SOL    HW1 7043   2.309   0.538   0.326  0.4984 -0.2004 -0.5067
 2048SOL    HW2 7044   2.242   0.581   0.184 -1.4471  0.0442  0.4458
 2049SOL     OW 7045   5.031   1.927   5.553 -0.1903  0.0896  0.3166
 2049SOL    HW1 7046   4.983   1.881   5.628  0.6457 -1.5508 -0.1280
 2049SOL    HW2 7047   5.065   2.016   5.585  1.5129 -1.2239  2.4165
 2050SOL     OW 7048   0.280   3.093   1.808  0.5379 -0.3546  0.1262
 2050SOL    HW1 7049   0.283   3.010   1.864  0.2127 -0.2483  0.3058
 2050SOL    HW2 7050   0.198   3.146   1.832 -0.8573 -1.3921 -2.0196
 2051SOL     OW 7051   0.475   6.766   1.343  0.6134 -0.5273 -0.8125
 2051SOL    HW1 7052   0.408   6.818   1.291  1.8892  3.0597  0.7675
 2051SOL    HW2 7053   0.565   6.776   1.301  1.2761  0.6209  0.7679
 2052SOL     OW 7054   0.687   5.068   6.271 -0.0579  0.8298  0.1268
 2052SOL    HW1 7055   0.673   5.001   6.344  0.6080  1.5083  0.9071
 2052SOL    HW2 7056   0.700   5.021   6.184  2.3741 -0.2020  0.9609
 2053SOL     OW 7057   6.962   0.906   5.822  0.1055 -0.5236 -0.4076
 2053SOL    HW1 7058   6.897   0.918   5.897  0.4350 -2.5422  0.2755
 2053SOL    HW2 7059   7.046   0.956   5.842 -0.2166 -0.1525  0.0369
 2054SOL     OW 7060   4.893   3.409   1.314  0.0436 -0.3559 -0.3962
 2054SOL    HW1 7061   4.959   3.387   1.242 -0.0577 -0.1563 -0.5508
 2054SOL    HW2 7062   4.928   3.375   1.402  0.2318 -0.4787 -0.5170
 2055SOL     OW 7063   4.836   3.112   2.707 -0.3444 -0.1845 -0.2272
 2055SOL    HW1 7064   4.859   3.208   2.718 -2.9679  0.5654 -0.6332
 2055SOL    HW2 7065   4.889   3.074   2.631 -0.2939  1.3150 -0.9831
 2056SOL     OW 7066   2.511   2.511   5.242 -0.3694  0.0710  0.7448
 2056SOL    HW1 7067   2.596   2.458   5.238 -0.1477  0.4661  0.1377
 2056SOL    HW2 7068   2.530   2.602   5.278 -0.8436 -0.4188  2.3283
 2057SOL     OW 7069   5.507   1.887   3.803 -0.1940  0.4581  0.1314
 2057SOL    HW1 7070   5.597   1.890   3.847 -0.0427  1.6181 -0.2378
 2057SOL    HW2 7071   5.517   1.858   3.708 -0.3242 -0.2972  0.3393
 2058SOL     OW 7072   1.063   2.318   3.100  0.2959  0.2104 -0.1161
 2058SOL    HW1 7073   1.064   2.416   3.120  2.1353  0.5612 -1.6454
 2058SOL    HW2 7074   1.083   2.267   3.184 -1.7710  1.0221  0.9480
 2059SOL     OW 7075   1.751   6.741   6.725 -0.4186 -0.3107  0.0929
 2059SOL    HW1 7076   1.817   6.814   6.710 -1.0152  0.6747  1.9237
 2059SOL    HW2 7077   1.665   6.763   6.678 -0.8992  0.6662  1.3724
 2060SOL     OW 7078   5.948   3.506   0.167 -0.1014  0.0419 -0.4611
 2060SOL    HW1 7079   5.961   3.488   0.069  0.1064  0.2502 -0.4724
 2060SOL    HW2 7080   5.921   3.421   0.213 -0.0192 -0.0980 -0.6680
 2061SOL     OW 7081   0.819   1.260   2.990 -0.1114  0.5087 -0.3101
 2061SOL    HW1 7082   0.736   1.222   3.031 -0.8780  0.6426 -1.6574
 2061SOL    HW2 7083   0.883   1.285   3.062 -0.1438 -1.9864  0.6997
 2062SOL     OW 7084   5.376   0.635   3.534 -0.1151  0.0907 -0.1748
 2062SOL    HW1 7085   5.277   0.639   3.520 -0.0986 -0.7991 -0.6390
 2062SOL    HW2 7086   5.396   0.589   3.621 -0.1348  2.1882  0.9961
 2063SOL     OW 7087   2.539   5.365   3.981  1.1023  0.0432 -0.5394
 2063SOL    HW1 7088   2.483   5.390   3.902  0.0701 -1.4781 -0.3288
 2063SOL    HW2 7089   2.501   5.405   4.064  3.0533  2.9318 -0.9195
 2064SOL     OW 7090   0.953   6.272   5.790  0.1494  0.1225  0.1052
 2064SOL    HW1 7091   0.987   6.180   5.806  0.2902  0.2465  0.5118
 2064SOL    HW2 7092   1.008   6.315   5.718 -0.5493 -0.4643 -0.8072
 2065SOL     OW 7093   5.720   3.612   2.698 -0.1802 -0.2049 -0.3926
 2065SOL    HW1 7094   5.780   3.594   2.776 -1.1707  3.6796  1.5357
 2065SOL    HW2 7095   5.773   3.647   2.621  0.6812 -3.0832 -1.2006
 2066SOL     OW 7096   6.453   6.426   2.784  0.1008  0.0341  0.1865
 2066SOL    HW1 7097   6.386   6.418   2.710  0.0606 -0.8951  0.3104
 2066SOL    HW2 7098   6.483   6.521   2.791 -0.1852  0.2117 -0.7621
 2067SOL     OW 7099   6.607   5.855   0.471  0.2841  0.2567 -0.1620
 2067SOL    HW1 7100   6.540   5.798   0.422 -0.5629  0.4490  0.7355
 2067SOL    HW2 7101   6.559   5.927   0.521  1.1259  0.1094  0.8893
 2068SOL     OW 7102   1.098   3.506   4.264 -0.6638  0.0928 -0.3641
 2068SOL    HW1 7103   1.035   3.546   4.330 -1.2628  0.1121 -0.9335
 2068SOL    HW2 7104   1.091   3.406   4.267  1.2503 -0.0652  1.4682
 2069SOL     OW 7105   6.643   2.350   2.097  0.6150  0.4726  0.3056
 2069SOL    HW1 7106   6.646   2.302   2.184 -1.5582  1.7794  1.1908
 2069SOL    HW2 7107   6.690   2.437   2.105 -0.7605  1.2143  0.6514
 2070SOL     OW 7108   1.252   0.170   3.859  0.2621 -0.1527 -0.0605
 2070SOL    HW1 7109   1.234   0.124   3.946  0.8577  0.0922  0.1959
 2070SOL    HW2 7110   1.166   0.182   3.809 -0.0062 -0.8159  0.2285
 2071SOL     OW 7111   2.236   5.340   3.777 -0.4573  0.0062 -0.1370
 2071SOL    HW1 7112   2.269   5.375   3.689  0.3151  1.1110  0.5640
 2071SOL    HW2 7113   2.282   5.254   3.799 -0.7297 -0.3266 -0.8494
 2072SOL     OW 7114   5.166   6.804   1.970 -0.3411 -0.0545  0.2050
 2072SOL    HW1 7115   5.163   6.823   1.872 -0.5960  0.2384  0.2686
 2072SOL    HW2 7116   5.073   6.807   2.007 -0.0151  3.0762  1.0647
 2073SOL     OW 7117   3.484   6.136   5.082 -0.6622 -0.5134 -0.6231
 2073SOL    HW1 7118   3.519   6.130   5.175 -0.5153 -1.7294 -0.7399
 2073SOL    HW2 7119   3.400   6.082   5.074 -1.0456  0.1248 -1.0352
 2074SOL     OW 7120   0.073   6.648   0.621 -0.1039  0.1084  0.0239
 2074SOL    HW1 7121   0.023   6.708   0.558 -0.5248 -0.3869 -0.1279
 2074SOL    HW2 7122   0.134   6.702   0.678  1.2889  0.4607 -1.7176
 2075SOL     OW 7123   4.312   1.238   2.159  0.2967 -0.3539  0.3849
 2075SOL    HW1 7124   4.311   1.245   2.258  1.0851 -0.2324  0.3904
 2075SOL    HW2 7125   4.380   1.170   2.131 -0.6642 -1.1752 -0.0362
 2076SOL     OW 7126   6.591   0.005   6.641 -0.3904 -0.0576  0.2921
 2076SOL    HW1 7127   6.638   0.073   6.584  0.0137 -1.0869 -0.6438
 2076SOL    HW2 7128   6.640  -0.081   6.637 -2.8419 -1.5045 -1.5451
 2077SOL     OW 7129   6.340   2.877   2.251 -0.9751 -0.5520 -1.0257
 2077SOL    HW1 7130   6.428   2.865   2.295 -0.3157 -1.4438 -2.4997
 2077SOL    HW2 7131   6.286   2.793   2.260 -1.6558 -0.0309 -0.1808
 2078SOL     OW 7132   1.664   4.901   0.718  0.6224  0.0534 -0.6447
 2078SOL    HW1 7133   1.701   4.867   0.632 -1.4603  0.7327 -1.8760
 2078SOL    HW2 7134   1.715   4.982   0.747  1.1347  0.0205 -1.4215
 2079SOL     OW 7135   0.783   1.227   4.581 -0.4393  0.3931 -0.2202
 2079SOL    HW1 7136   0.801   1.187   4.671 -0.9535 -0.7486 -0.6088
 2079SOL    HW2 7137   0.760   1.155   4.516  0.7112  1.1012 -1.4864
 2080SOL     OW 7138   6.741   1.265   4.014 -0.8659 -0.3211 -0.3379
 2080SOL    HW1 7139   6.762   1.221   4.101 -0.1603  0.2530 -0.2126
 2080SOL    HW2 7140   6.653   1.231   3.980 -0.3953 -1.7375 -0.1990
 2081SOL     OW 7141   2.993   6.093   3.130  0.2786  0.4121  0.1082
 2081SOL    HW1 7142   2.981   6.028   3.055 -0.2702  1.2385 -0.5394
 2081SOL    HW2 7143   3.053   6.053   3.199  2.5217  0.3974 -1.7304
 2082SOL     OW 7144   6.829   5.284   3.578 -1.1371 -0.1905 -0.5972
 2082SOL    HW1 7145   6.877   5.313   3.495 -1.7087  1.0156 -0.5377
 2082SOL    HW2 7146   6.887   5.301   3.657 -0.3546 -1.8891 -0.7567
 2083SOL     OW 7147   4.534   5.574   7.004  0.0577 -0.3650 -0.5153
 2083SOL    HW1 7148   4.438   5.593   7.025  0.3334  0.0243  0.4563
 2083SOL    HW2 7149   4.587   5.572   7.089  0.9168 -0.5542 -1.0406
 2084SOL     OW 7150   6.793   5.180   2.397  0.4343  0.2735 -0.4019
 2084SOL    HW1 7151   6.763   5.207   2.488  1.4217  0.5432 -0.1490
 2084SOL    HW2 7152   6.719   5.131   2.350  0.5479 -1.5424  1.2213
 2085SOL     OW 7153   4.242   1.270   6.584  0.2383 -0.1354  0.2049
 2085SOL    HW1 7154   4.330   1.305   6.551 -0.5647  0.0499 -1.9057
 2085SOL    HW2 7155   4.256   1.219   6.669  2.6684 -1.5749 -0.9519
 2086SOL     OW 7156   4.093   6.998   6.000 -0.1941 -0.3579  0.6325
 2086SOL    HW1 7157   4.161   6.967   6.066  1.3734 -0.3266 -0.9014
 2086SOL    HW2 7158   4.046   7.079   6.037  0.7535 -0.2320  1.6265
 2087SOL     OW 7159   0.216   6.757   2.494 -0.1785  0.2242  0.1874
 2087SOL    HW1 7160   0.242   6.835   2.437  0.1366 -0.9731 -1.3581
 2087SOL    HW2 7161   0.276   6.755   2.575  0.4234  1.0538 -0.2167
 2088SOL     OW 7162   4.135   3.237   0.039  0.4086  0.5808  0.1286
 2088SOL    HW1 7163   4.152   3.332   0.067 -1.6011  1.1860 -0.5196
 2088SOL    HW2 7164   4.193   3.213  -0.038  1.6144  0.9520  0.9017
 2089SOL     OW 7165   5.443   2.971   0.884 -0.1189  0.4753 -0.1918
 2089SOL    HW1 7166   5.496   3.055   0.872 -0.7289  0.9426  0.3165
 2089SOL    HW2 7167   5.346   2.994   0.889 -0.2499 -0.2030  0.5466
 2090SOL     OW 7168   3.153   3.706   0.620  0.2735 -0.1391 -0.5553
 2090SOL    HW1 7169   3.063   3.689   0.659  0.9828 -2.5515  0.2336
 2090SOL    HW2 7170   3.192   3.789   0.658 -1.2619  0.4720 -0.2749
 2091SOL     OW 7171   6.125   5.263   5.657  0.3072 -0.0177 -0.0886
 2091SOL    HW1 7172   6.210   5.301   5.693 -0.7945  1.1103  1.4338
 2091SOL    HW2 7173   6.083   5.330   5.595 -0.5755  0.3965  0.9340
 2092SOL     OW 7174   3.724   2.489   6.245  0.0114 -0.3349 -0.2315
 2092SOL    HW1 7175   3.741   2.460   6.339 -0.4943 -2.7107 -0.8108
 2092SOL    HW2 7176   3.784   2.567   6.223  2.2366 -1.5394  1.1634
 2093SOL     OW 7177   3.706   2.467   6.914 -0.1185 -0.2987 -0.1058
 2093SOL    HW1 7178   3.621   2.496   6.959  0.4211  0.0028  0.7403
 2093SOL    HW2 7179   3.703   2.493   6.818 -0.4716  0.8222  0.1929
 2094SOL     OW 7180   5.966   2.145   2.150  0.0879  0.1507  0.0959
 2094SOL    HW1 7181   6.039   2.125   2.085  1.7195  1.0848  1.5553
 2094SOL    HW2 7182   6.006   2.178   2.236 -2.0387  0.0935  1.1718
 2095SOL     OW 7183   5.372   1.175   5.556  0.5661  0.2504  0.3680
 2095SOL    HW1 7184   5.347   1.258   5.505 -1.0328 -1.2311 -1.3741
 2095SOL    HW2 7185   5.317   1.098   5.525  0.2391 -1.0096  3.6968
 2096SOL     OW 7186   5.539   2.918   2.304  0.4013  0.3709 -0.0491
 2096SOL    HW1 7187   5.447   2.928   2.343  0.0723 -0.8860 -0.4250
 2096SOL    HW2 7188   5.602   2.886   2.375  0.2237 -0.1014 -0.0966
 2097SOL     OW 7189   2.037   2.867   5.432 -0.4031 -0.0847 -0.7792
 2097SOL    HW1 7190   2.121   2.895   5.479 -0.0932 -0.0752 -1.3280
 2097SOL    HW2 7191   1.958   2.897   5.485 -0.0687  0.8321 -0.7808
 2098SOL     OW 7192   4.723   5.418   1.779 -0.2145 -0.1515 -0.0918
 2098SOL    HW1 7193   4.670   5.491   1.735 -2.2984 -0.0577  2.3906
 2098SOL    HW2 7194   4.775   5.456   1.855  2.4830 -0.5033 -1.6488
 2099SOL     OW 7195   3.264   2.831   5.441 -0.6239 -0.1804 -0.0503
 2099SOL    HW1 7196   3.244   2.740   5.403 -0.7265  0.5786 -1.9044
 2099SOL    HW2 7197   3.358   2.856   5.419 -0.4177 -0.0469  0.9409
 2100SOL     OW 7198   3.642   4.348   5.298 -0.4968 -0.5222 -0.3403
 2100SOL    HW1 7199   3.592   4.364   5.383 -1.0878 -1.5617 -0.4742
 2100SOL    HW2 7200   3.739   4.369   5.312 -0.8155  0.7205  0.1598
 2101SOL     OW 7201   0.518   5.249   3.100  0.0496 -0.2513 -0.2945
 2101SOL    HW1 7202   0.441   5.308   3.077  0.2862  0.4193  0.5743
 2101SOL    HW2 7203   0.603   5.301   3.094  0.4732 -1.0178 -1.3698
 2102SOL     OW 7204   5.273   3.406   1.946 -0.5891 -0.6456 -0.3912
 2102SOL    HW1 7205   5.200   3.433   1.884 -0.2760  1.2812  0.0287
 2102SOL    HW2 7206   5.244   3.418   2.040 -0.1383 -1.0047 -0.1995
 2103SOL     OW 7207   2.983   1.600   5.819 -0.9126  0.2732 -0.4273
 2103SOL    HW1 7208   2.996   1.697   5.802 -0.5980  0.0608 -1.5143
 2103SOL    HW2 7209   3.071   1.553   5.812 -1.3464 -0.3793 -2.1170
 2104SOL     OW 7210   3.175   4.104   1.954  0.0907 -0.6182 -0.3161
 2104SOL    HW1 7211   3.210   4.162   1.880 -0.5680 -0.5878 -0.6083
 2104SOL    HW2 7212   3.250   4.049   1.991  1.1517  1.6310  1.1492
 2105SOL     OW 7213   6.393   0.522   5.501  0.4095  0.2034  0.4807
 2105SOL    HW1 7214   6.362   0.611   5.534  0.2081  0.3103  0.0117
 2105SOL    HW2 7215   6.468   0.490   5.559  1.7290  1.5191 -0.3885
 2106SOL     OW 7216   3.724   3.983   6.309  0.3322 -0.1810  0.2960
 2106SOL    HW1 7217   3.725   4.056   6.377  1.3614 -1.0322  1.2431
 2106SOL    HW2 7218   3.698   3.897   6.353 -1.0801 -0.3705 -0.8427
 2107SOL     OW 7219   5.965   3.626   4.643 -0.2015 -0.7072 -0.3606
 2107SOL    HW1 7220   5.924   3.561   4.578  0.6300 -2.3473  0.6998
 2107SOL    HW2 7221   5.971   3.584   4.733  0.9199  0.6412  0.2303
 2108SOL     OW 7222   6.913   5.781   4.207 -0.0835 -0.0900 -0.1516
 2108SOL    HW1 7223   6.995   5.782   4.264 -0.5875 -0.3515  0.5870
 2108SOL    HW2 7224   6.879   5.874   4.195  0.7833  0.1193 -1.1555
 2109SOL     OW 7225   6.329   5.177   1.376 -0.2951  0.8970  0.5867
 2109SOL    HW1 7226   6.333   5.190   1.475  0.5710 -0.2914  0.7311
 2109SOL    HW2 7227   6.250   5.121   1.353  0.0364  0.3729  0.7116
 2110SOL     OW 7228   2.718   0.839   0.009 -0.2323  0.4154 -0.2492
 2110SOL    HW1 7229   2.764   0.805  -0.072 -0.7340  1.4429 -0.9826
 2110SOL    HW2 7230   2.782   0.841   0.086 -0.0088 -1.4773 -0.3465
 2111SOL     OW 7231   0.239   2.061   5.832 -0.2042 -0.5934  0.3578
 2111SOL    HW1 7232   0.201   2.066   5.924  0.4682  0.3846  0.6000
 2111SOL    HW2 7233   0.257   1.965   5.809  0.9725 -0.7707  1.8302
 2112SOL     OW 7234   6.379   2.832   6.747  0.5489  0.1624 -0.6473
 2112SOL    HW1 7235   6.334   2.920   6.731 -0.6177  0.0658  1.6049
 2112SOL    HW2 7236   6.467   2.830   6.700  1.2131  3.0481  0.2719
 2113SOL     OW 7237   1.722   2.515   0.735  0.0418  0.0267 -0.3801
 2113SOL    HW1 7238   1.661   2.575   0.786 -0.8754 -0.6789 -0.6179
 2113SOL    HW2 7239   1.674   2.430   0.713  1.4179 -0.9628  0.2841
 2114SOL     OW 7240   1.346   1.791   0.438  0.5183 -0.5051  0.5497
 2114SOL    HW1 7241   1.415   1.823   0.503 -0.5901 -0.2461  1.6453
 2114SOL    HW2 7242   1.357   1.693   0.422 -0.2259 -0.9502  2.5027
 2115SOL     OW 7243   2.504   2.718   0.671  0.4962 -0.1371  0.4189
 2115SOL    HW1 7244   2.450   2.648   0.717 -1.1414  0.7046 -0.1274
 2115SOL    HW2 7245   2.486   2.807   0.713  0.6007  0.3189 -0.4689
 2116SOL     OW 7246   6.814   6.005   3.397  0.2820  0.0141 -0.9180
 2116SOL    HW1 7247   6.780   5.997   3.303  0.4123  0.0227 -0.9660
 2116SOL    HW2 7248   6.812   5.915   3.441 -0.4156  0.1258 -0.7073
 2117SOL     OW 7249   5.251   4.470   0.493  0.1238 -0.1070 -0.6759
 2117SOL    HW1 7250   5.344   4.489   0.525 -0.0792  0.6893 -0.5247
 2117SOL    HW2 7251   5.188   4.479   0.570 -0.0114 -1.2725 -0.6384
 2118SOL     OW 7252   6.811   3.786   0.645 -0.1763 -0.3569 -0.3923
 2118SOL    HW1 7253   6.729   3.813   0.596  1.0724  1.6348 -1.4959
 2118SOL    HW2 7254   6.863   3.721   0.590  0.2101  0.3096 -0.8269
 2119SOL     OW 7255   2.659   5.821   1.414  0.0660  0.0611 -0.3324
 2119SOL    HW1 7256   2.754   5.838   1.387 -0.0900  0.6181 -0.5437
 2119SOL    HW2 7257   2.599   5.882   1.362 -0.6192 -1.8391 -1.9162
 2120SOL     OW 7258   1.282   5.992   5.483 -0.1219 -0.1033  0.1627
 2120SOL    HW1 7259   1.303   5.916   5.544  1.0973  1.0182  1.2102
 2120SOL    HW2 7260   1.182   6.003   5.476 -0.2901 -0.8960  1.1230
 2121SOL     OW 7261   1.029   3.321   5.705  0.1306  0.0166  0.0710
 2121SOL    HW1 7262   1.081   3.269   5.773 -0.3347 -1.4716 -0.6455
 2121SOL    HW2 7263   0.945   3.356   5.748  0.8486  0.9020  0.7781
 2122SOL     OW 7264   5.289   4.202   5.198  0.4255  0.3663  0.1054
 2122SOL    HW1 7265   5.271   4.118   5.146 -1.1788 -0.6956  2.2514
 2122SOL    HW2 7266   5.362   4.186   5.264 -0.7730  0.1830  1.4399
 2123SOL     OW 7267   3.525   5.147   1.475 -0.2952 -0.0512 -0.3258
 2123SOL    HW1 7268   3.621   5.129   1.454  0.5426  0.7824  2.4592
 2123SOL    HW2 7269   3.473   5.062   1.469  0.9986 -0.8887  0.0086
 2124SOL     OW 7270   3.355   1.379   1.198 -0.2545  0.5771 -0.0092
 2124SOL    HW1 7271   3.323   1.309   1.135 -0.8759  0.5741  0.2973
 2124SOL    HW2 7272   3.404   1.336   1.274  0.1656  0.5530 -0.2880
 2125SOL     OW 7273   1.089   1.410   3.699  0.1095 -0.0130  0.0516
 2125SOL    HW1 7274   1.153   1.336   3.717 -1.2831 -1.1333  0.6124
 2125SOL    HW2 7275   1.044   1.437   3.784 -0.7816  0.1407 -0.4482
 2126SOL     OW 7276   5.108   6.688   6.919  0.1466  0.2723 -0.6649
 2126SOL    HW1 7277   5.123   6.590   6.931 -0.7022  0.1224 -0.7329
 2126SOL    HW2 7278   5.190   6.738   6.944  1.6438 -0.6217 -3.3688
 2127SOL     OW 7279   4.733   4.476   3.622 -0.2708  0.0797  0.1112
 2127SOL    HW1 7280   4.749   4.402   3.556  0.3488 -0.0346  0.3836
 2127SOL    HW2 7281   4.811   4.483   3.684  0.1283  1.5927 -0.5147
 2128SOL     OW 7282   5.915   3.409   3.903 -0.2326  1.0213  0.1369
 2128SOL    HW1 7283   6.002   3.386   3.946 -0.1673  1.0922  0.0439
 2128SOL    HW2 7284   5.909   3.508   3.892 -0.1833  0.9903 -0.1582
 2129SOL     OW 7285   3.692   1.975   6.553  0.3487 -0.6645 -0.1983
 2129SOL    HW1 7286   3.696   1.940   6.646  0.1148 -0.0690  0.0417
 2129SOL    HW2 7287   3.624   2.048   6.548 -0.2793 -1.2890 -1.0421
 2130SOL     OW 7288   4.264   0.312   2.434 -0.0128 -0.1241 -0.2203
 2130SOL    HW1 7289   4.287   0.393   2.380 -1.8979  0.9562  0.5055
 2130SOL    HW2 7290   4.238   0.237   2.373  0.6889  0.1498 -0.8697
 2131SOL     OW 7291   5.838   0.793   6.648 -0.1670 -0.3815  0.1336
 2131SOL    HW1 7292   5.792   0.797   6.736  0.8361 -0.2292  0.6667
 2131SOL    HW2 7293   5.933   0.761   6.661  0.5879  1.4143 -0.6345
 2132SOL     OW 7294   3.746   0.662   2.905 -0.3349 -0.5222 -0.5990
 2132SOL    HW1 7295   3.765   0.597   2.979  0.4648  0.7821  0.3771
 2132SOL    HW2 7296   3.774   0.622   2.818 -0.3663 -1.6976 -0.0897
 2133SOL     OW 7297   5.414   2.889   7.009  0.0600 -0.2011 -0.4336
 2133SOL    HW1 7298   5.355   2.968   6.994  0.8296 -0.0525 -3.1589
 2133SOL    HW2 7299   5.426   2.874   7.108  0.3269  3.3851  0.2037
 2134SOL     OW 7300   5.991   3.929   0.337  0.6398 -0.0695  0.4508
 2134SOL    HW1 7301   6.019   4.024   0.328 -2.6251  1.0863  1.1404
 2134SOL    HW2 7302   5.986   3.905   0.434 -0.6588 -0.1866  0.3769
 2135SOL     OW 7303   1.810   4.705   4.369  0.3698 -0.3694  0.0736
 2135SOL    HW1 7304   1.759   4.703   4.455  0.0983 -1.1514 -0.1039
 2135SOL    HW2 7305   1.749   4.683   4.293  0.6554  0.1219 -0.3082
 2136SOL     OW 7306   1.139   2.118   2.140  0.0647  0.2036  0.6365
 2136SOL    HW1 7307   1.098   2.029   2.161  0.1929  0.1832  0.7975
 2136SOL    HW2 7308   1.234   2.119   2.168 -0.0356  0.5172  0.9731
 2137SOL     OW 7309   2.200   6.228   4.292  0.4892  0.1884  0.5778
 2137SOL    HW1 7310   2.138   6.298   4.328 -1.5302 -1.1931 -0.0048
 2137SOL    HW2 7311   2.266   6.202   4.362  1.1426  2.4644  0.8713
 2138SOL     OW 7312   6.989   6.823   2.711 -0.1350 -0.4785 -0.2916
 2138SOL    HW1 7313   6.984   6.735   2.759  1.8279  0.0714  1.0402
 2138SOL    HW2 7314   6.939   6.816   2.625 -0.0941 -2.8783 -0.1987
 2139SOL     OW 7315   5.520   0.019   4.076 -0.2493 -0.5765  0.0374
 2139SOL    HW1 7316   5.588  -0.054   4.071  0.1326 -0.2383  0.2778
 2139SOL    HW2 7317   5.428  -0.021   4.072 -0.0413 -0.9521 -1.5393
 2140SOL     OW 7318   3.248   0.929   3.115 -0.3344  0.3982  0.4309
 2140SOL    HW1 7319   3.192   1.011   3.128 -0.8965  0.0683  0.1231
 2140SOL    HW2 7320   3.245   0.901   3.019  1.9514  1.5039 -0.0310
 2141SOL     OW 7321   5.188   3.477   0.822 -0.4585 -0.5071  0.0823
 2141SOL    HW1 7322   5.193   3.517   0.913 -2.1238  0.4822 -0.2094
 2141SOL    HW2 7323   5.124   3.400   0.823 -0.2069 -0.7217 -0.1734
 2142SOL     OW 7324   2.938   1.095   2.033  0.2624 -0.0527 -0.0037
 2142SOL    HW1 7325   2.997   1.085   1.952 -0.2024 -1.2339 -0.2224
 2142SOL    HW2 7326   2.981   1.050   2.111  0.2300  0.1844  0.1506
 2143SOL     OW 7327   3.872   3.406   1.982 -0.2949  0.1776 -0.6073
 2143SOL    HW1 7328   3.783   3.382   1.943 -1.8389  1.9223  1.6221
 2143SOL    HW2 7329   3.903   3.492   1.943 -0.3369  0.3628 -0.2271
 2144SOL     OW 7330   1.143   5.888   3.707  0.5474  0.3133 -0.0475
 2144SOL    HW1 7331   1.048   5.856   3.711  0.6235 -0.3872 -2.3345
 2144SOL    HW2 7332   1.199   5.834   3.770 -0.1921 -0.8395 -0.3502
 2145SOL     OW 7333   3.752   6.809   2.761 -0.3964  1.0415 -0.0845
 2145SOL    HW1 7334   3.811   6.779   2.836 -1.8596 -0.8652  0.3771
 2145SOL    HW2 7335   3.759   6.745   2.684  1.7081  3.3876 -2.0368
 2146SOL     OW 7336   2.132   3.557   1.735 -0.2705  0.3629  0.0535
 2146SOL    HW1 7337   2.035   3.559   1.761  0.0197 -0.1288  1.2245
 2146SOL    HW2 7338   2.184   3.507   1.804  0.3546 -2.2107 -2.0893
 2147SOL     OW 7339   4.771   0.737   5.475  0.0391 -0.0892 -0.1720
 2147SOL    HW1 7340   4.819   0.792   5.543  0.1848 -1.6656  1.0745
 2147SOL    HW2 7341   4.765   0.642   5.507 -0.8093 -0.6746 -1.9071
 2148SOL     OW 7342   3.771   3.958   0.351 -0.1539  0.1575  0.2815
 2148SOL    HW1 7343   3.721   3.986   0.433  0.0397 -0.2106  0.5306
 2148SOL    HW2 7344   3.856   3.912   0.378  0.6401  1.3280 -0.1371
 2149SOL     OW 7345   2.831   1.130   1.611  0.6181 -0.0465  0.4583
 2149SOL    HW1 7346   2.817   1.120   1.512  2.0805  0.6103  0.1584
 2149SOL    HW2 7347   2.779   1.059   1.659  0.1481 -0.5901 -0.7924
 2150SOL     OW 7348   3.819   1.715   2.585 -0.3907  0.0667  0.1522
 2150SOL    HW1 7349   3.873   1.696   2.667 -1.3534  1.8700  1.2541
 2150SOL    HW2 7350   3.761   1.637   2.565  0.2205 -0.5956  0.8881
 2151SOL     OW 7351   0.992   6.424   6.018 -0.3995 -0.4428 -0.4422
 2151SOL    HW1 7352   0.905   6.409   5.972 -1.2882  0.2011  0.9866
 2151SOL    HW2 7353   1.029   6.337   6.050 -1.5149 -0.5177  0.6898
 2152SOL     OW 7354   4.050   3.966   1.502  0.2492 -0.7542 -0.1705
 2152SOL    HW1 7355   4.117   3.893   1.487  1.9337  0.3100  1.8000
 2152SOL    HW2 7356   4.086   4.033   1.566 -1.7648  1.1919 -0.9327
 2153SOL     OW 7357   5.705   0.865   3.435  0.2257  0.1763 -0.5057
 2153SOL    HW1 7358   5.624   0.875   3.493 -0.7396 -0.3239 -1.7014
 2153SOL    HW2 7359   5.729   0.954   3.396  0.6551  0.4445  0.3640
 2154SOL     OW 7360   5.409   0.907   6.807  0.2813 -0.4256 -0.4094
 2154SOL    HW1 7361   5.479   0.974   6.785 -0.0086  1.4187  3.3830
 2154SOL    HW2 7362   5.452   0.824   6.843  0.5750 -0.5505 -1.0498
 2155SOL     OW 7363   1.901   6.643   0.834 -0.3816  0.3290 -0.0662
 2155SOL    HW1 7364   1.910   6.715   0.903 -0.5442 -1.6467  2.1606
 2155SOL    HW2 7365   1.821   6.588   0.854  1.3808 -2.3088  0.2127
 2156SOL     OW 7366   1.838   1.704   4.668 -0.0680 -0.5162  0.2871
 2156SOL    HW1 7367   1.793   1.761   4.736  1.9643  2.0557 -0.3735
 2156SOL    HW2 7368   1.771   1.676   4.599 -1.4873 -0.4548  1.5818
 2157SOL     OW 7369   6.905   1.022   3.114 -0.2599 -0.1718 -0.1534
 2157SOL    HW1 7370   6.949   1.107   3.084 -1.4554  0.6459  0.3142
 2157SOL    HW2 7371   6.829   1.000   3.053 -0.9879  0.0146  0.6591
 2158SOL     OW 7372   2.336   6.265   0.139 -0.1901  0.0233  0.7042
 2158SOL    HW1 7373   2.331   6.218   0.227  0.1171 -0.2714  0.5645
 2158SOL    HW2 7374   2.403   6.339   0.145 -0.0498 -0.1025  0.6647
 2159SOL     OW 7375   2.098   1.382   4.671 -0.1030  0.3735 -0.0907
 2159SOL    HW1 7376   2.151   1.317   4.725 -3.7450 -3.0726 -0.1143
 2159SOL    HW2 7377   2.130   1.380   4.576 -0.5718 -2.1891 -0.2715
 2160SOL     OW 7378   4.135   2.339   0.336 -0.5062  0.0078 -1.2864
 2160SOL    HW1 7379   4.092   2.248   0.337 -3.3278  1.2007  0.8187
 2160SOL    HW2 7380   4.123   2.381   0.246  0.7065 -1.5696 -2.2427
 2161SOL     OW 7381   6.597   1.134   3.666  0.3787 -0.0141 -0.1181
 2161SOL    HW1 7382   6.589   1.201   3.592  0.2749  1.5931  1.2666
 2161SOL    HW2 7383   6.531   1.061   3.652  0.0261  0.5106 -1.3520
 2162SOL     OW 7384   5.743   1.041   1.726 -0.6384  0.2379 -0.3006
 2162SOL    HW1 7385   5.787   1.058   1.814 -0.2588  1.8945 -0.7579
 2162SOL    HW2 7386   5.738   1.127   1.675 -1.1797 -0.6166 -1.7485
 2163SOL     OW 7387   1.790   3.563   4.636  0.6131 -0.5727  0.0414
 2163SOL    HW1 7388   1.732   3.562   4.555  0.0854 -1.2387  0.4157
 2163SOL    HW2 7389   1.743   3.517   4.711  1.0899  0.0374  0.7343
 2164SOL     OW 7390   2.503   2.601   6.879  0.0829 -0.1313 -0.4726
 2164SOL    HW1 7391   2.499   2.506   6.910  0.3985 -0.2561 -0.8008
 2164SOL    HW2 7392   2.558   2.606   6.795  3.5457  0.8529  1.6485
 2165SOL     OW 7393   6.378   3.183   1.541 -0.0263  0.0910 -0.7062
 2165SOL    HW1 7394   6.294   3.235   1.558  0.4581  1.4487 -2.2152
 2165SOL    HW2 7395   6.395   3.179   1.443  1.5056 -0.4376 -0.4393
 2166SOL     OW 7396   0.562   2.094   4.882 -0.3026  0.3352  0.0662
 2166SOL    HW1 7397   0.602   2.069   4.971  2.6001  0.9764 -0.9373
 2166SOL    HW2 7398   0.571   2.192   4.868 -0.4527  0.2018 -1.0323
 2167SOL     OW 7399   1.070   2.405   2.548  0.6669 -0.7019 -0.5409
 2167SOL    HW1 7400   1.128   2.391   2.467  1.3669  1.3554 -0.4452
 2167SOL    HW2 7401   1.127   2.430   2.626 -0.2092 -0.5067  0.0492
 2168SOL     OW 7402   1.558   2.338   3.733  0.0817 -0.6457  0.4365
 2168SOL    HW1 7403   1.566   2.424   3.684 -0.0203 -0.7954  0.1574
 2168SOL    HW2 7404   1.626   2.335   3.807 -0.8718  0.3002  1.3906
 2169SOL     OW 7405   5.255   0.052   5.889  0.4482  0.4265 -0.1613
 2169SOL    HW1 7406   5.286   0.083   5.979  0.0713  0.5018 -0.0538
 2169SOL    HW2 7407   5.174  -0.006   5.900  3.4422 -4.3053  0.0967
 2170SOL     OW 7408   6.482   3.265   5.665  0.2807 -0.0762 -0.0657
 2170SOL    HW1 7409   6.391   3.265   5.707 -0.4361 -2.1071 -1.4816
 2170SOL    HW2 7410   6.542   3.204   5.716  0.0340 -0.8690 -0.7092
 2171SOL     OW 7411   6.798   5.273   0.295  0.1947 -0.4856 -0.5777
 2171SOL    HW1 7412   6.831   5.322   0.376 -2.9822 -0.4013  0.8272
 2171SOL    HW2 7413   6.856   5.296   0.216  1.6249  1.8156  1.0194
 2172SOL     OW 7414   1.558   1.976   1.428  0.9728  0.6147  0.0930
 2172SOL    HW1 7415   1.595   1.884   1.444  0.0789  0.3069  0.5135
 2172SOL    HW2 7416   1.482   1.992   1.491 -2.1871 -0.3238 -3.1189
 2173SOL     OW 7417   4.519   6.149   5.254  0.4546  0.3347  0.0904
 2173SOL    HW1 7418   4.577   6.103   5.321  0.2450  1.1285  0.8460
 2173SOL    HW2 7419   4.554   6.241   5.236  0.5783  0.0857 -0.9998
 2174SOL     OW 7420   0.147   4.798   4.471  0.5539  0.4257  0.5489
 2174SOL    HW1 7421   0.181   4.733   4.539 -1.4636  1.2723  2.4936
 2174SOL    HW2 7422   0.221   4.860   4.445  1.3878  0.0931  1.9948
 2175SOL     OW 7423   3.638   1.760   5.507  0.2360  0.0539 -0.5296
 2175SOL    HW1 7424   3.573   1.818   5.460  1.1758  1.4686 -0.1340
 2175SOL    HW2 7425   3.720   1.813   5.530  0.7687 -1.2057  0.6071
 2176SOL     OW 7426   5.907   1.490   0.176  0.2129 -0.3050  0.3062
 2176SOL    HW1 7427   5.909   1.585   0.144  1.4624  0.9057  3.5234
 2176SOL    HW2 7428   5.969   1.435   0.121  1.0028  1.1893 -0.3688
 2177SOL     OW 7429   0.194   2.226   2.876 -0.5329 -0.6576 -0.5428
 2177SOL    HW1 7430   0.105   2.269   2.861 -1.2656 -0.7727  2.7565
 2177SOL    HW2 7431   0.210   2.156   2.807 -2.7311 -0.2283 -1.5593
 2178SOL     OW 7432   0.850   1.188   3.363  0.1011 -0.3687  0.6793
 2178SOL    HW1 7433   0.807   1.106   3.401  0.7678 -0.2575  1.7045
 2178SOL    HW2 7434   0.942   1.198   3.400  0.5349  0.1078 -0.4884
 2179SOL     OW 7435   2.578   0.403   5.380 -0.2339 -0.1195  0.3964
 2179SOL    HW1 7436   2.677   0.417   5.376 -0.2754 -0.0258 -0.3077
 2179SOL    HW2 7437   2.549   0.404   5.476  0.1663  1.8672  0.5546
 2180SOL     OW 7438   3.477   1.797   3.172  0.3560 -0.4770  0.1662
 2180SOL    HW1 7439   3.432   1.882   3.199 -2.4093 -1.7121 -0.2807
 2180SOL    HW2 7440   3.546   1.817   3.103  1.5273  1.6585  1.8100
 2181SOL     OW 7441   3.871   5.591   4.307  0.2509  0.6229 -0.0584
 2181SOL    HW1 7442   3.863   5.515   4.371 -1.5799  0.6833 -0.1611
 2181SOL    HW2 7443   3.964   5.627   4.309  0.8924 -0.9825  0.6987
 2182SOL     OW 7444   0.225   3.551   2.253 -0.4683  0.1579  0.1946
 2182SOL    HW1 7445   0.266   3.621   2.194 -0.6232  0.1324  0.0585
 2182SOL    HW2 7446   0.283   3.538   2.334 -0.2517  0.1865  0.0447
 2183SOL     OW 7447   2.359   3.857   1.040 -0.3183 -1.0586  0.3480
 2183SOL    HW1 7448   2.365   3.760   1.014 -0.9722 -0.8083 -0.8005
 2183SOL    HW2 7449   2.309   3.865   1.126  0.4796 -1.7887  0.9080
 2184SOL     OW 7450   3.631   6.937   5.889  0.3788 -0.9422 -0.5855
 2184SOL    HW1 7451   3.642   6.838   5.893  0.1906 -1.1421 -3.3237
 2184SOL    HW2 7452   3.634   6.968   5.794  2.1142  1.9205  0.2749
 2185SOL     OW 7453   0.057   1.387   1.570  0.2259 -0.5524  0.0303
 2185SOL    HW1 7454  -0.022   1.347   1.618 -1.0408  1.4477 -0.2737
 2185SOL    HW2 7455   0.077   1.477   1.608  0.0086  0.5504 -2.2978
 2186SOL     OW 7456   1.410   6.749   0.436 -0.2344  0.6467  0.3784
 2186SOL    HW1 7457   1.335   6.783   0.379 -1.2099 -2.1770 -0.2190
 2186SOL    HW2 7458   1.477   6.702   0.378  0.7450  1.0368  1.1742
 2187SOL     OW 7459   6.344   6.933   0.190  0.2002 -0.0291 -0.3892
 2187SOL    HW1 7460   6.264   6.907   0.246 -1.1266 -0.0823 -2.2271
 2187SOL    HW2 7461   6.414   6.972   0.250 -0.9270 -0.5740  1.3850
 2188SOL     OW 7462   0.862   4.109   4.474 -0.1365 -0.8236  0.2652
 2188SOL    HW1 7463   0.938   4.098   4.410 -0.1728 -0.4697  0.1616
 2188SOL    HW2 7464   0.777   4.119   4.422 -0.6179 -3.6077  0.3644
 2189SOL     OW 7465   1.631   4.991   1.001  0.1195  0.2017 -0.1480
 2189SOL    HW1 7466   1.547   4.998   0.947  0.5428 -0.0003 -0.8468
 2189SOL    HW2 7467   1.608   4.968   1.095 -0.5768 -0.5988 -0.4990
 2190SOL     OW 7468   0.172   3.093   4.105  0.0626  0.1097 -0.4462
 2190SOL    HW1 7469   0.214   3.094   4.015  1.6259  0.1710  0.2522
 2190SOL    HW2 7470   0.209   3.168   4.161  1.3375 -1.6181  1.1715
 2191SOL     OW 7471   1.966   6.802   4.987 -0.3122 -0.5385 -0.8722
 2191SOL    HW1 7472   1.978   6.797   5.087 -1.8884 -1.2083 -0.6787
 2191SOL    HW2 7473   2.015   6.882   4.951  1.8663 -1.3332  0.1491
 2192SOL     OW 7474   6.519   0.233   3.462  0.4220  0.1012  0.2449
 2192SOL    HW1 7475   6.445   0.261   3.524  0.8568 -1.7336  1.6946
 2192SOL    HW2 7476   6.486   0.160   3.402  1.0526 -0.8000  0.9702
 2193SOL     OW 7477   6.539   6.360   6.974 -0.0914  0.2724  0.0736
 2193SOL    HW1 7478   6.480   6.352   6.893  1.4631  2.2828 -1.3633
 2193SOL    HW2 7479   6.619   6.301   6.962 -1.8173 -2.7701  2.2031
 2194SOL     OW 7480   1.298   4.037   0.022 -0.0028 -0.0498 -0.2122
 2194SOL    HW1 7481   1.330   4.008  -0.068 -1.3474  0.5915 -0.9406
 2194SOL    HW2 7482   1.242   3.964   0.062 -1.0331  0.3818 -0.7982
 2195SOL     OW 7483   0.455   2.949   4.889  0.5476  0.6817 -0.4578
 2195SOL    HW1 7484   0.437   3.006   4.969 -2.5251 -0.2546 -0.3723
 2195SOL    HW2 7485   0.384   2.963   4.820  0.0971 -2.3977 -0.7755
 2196SOL     OW 7486   4.379   6.894   0.113  0.3666  0.7174  0.2297
 2196SOL    HW1 7487   4.285   6.889   0.082  0.0631  2.3249  0.7578
 2196SOL    HW2 7488   4.411   6.803   0.140 -0.3327 -0.1952 -1.8448
 2197SOL     OW 7489   2.068   3.595   6.272  0.0809  0.1438  0.6016
 2197SOL    HW1 7490   2.156   3.559   6.303  0.5920  0.3182 -0.5683
 2197SOL    HW2 7491   1.999   3.524   6.278  0.9054 -0.8409 -0.9418
 2198SOL     OW 7492   0.848   0.092   6.480 -0.1134  0.6570  0.1999
 2198SOL    HW1 7493   0.934   0.140   6.496 -0.3966  1.0896  0.4721
 2198SOL    HW2 7494   0.816   0.111   6.388  0.0681  0.5181  0.1076
 2199SOL     OW 7495   3.962   5.929   3.484  0.2858 -0.5036  0.1781
 2199SOL    HW1 7496   3.936   6.021   3.457 -0.0041 -0.9731 -1.2067
 2199SOL    HW2 7497   3.923   5.863   3.421  0.9740 -1.5490  0.8043
 2200SOL     OW 7498   2.411   2.276   3.849  0.4616  0.8206 -0.4410
 2200SOL    HW1 7499   2.494   2.245   3.802 -0.4299 -0.8673 -1.0055
 2200SOL    HW2 7500   2.331   2.258   3.791 -0.3573  1.9693  0.2890
 2201SOL     OW 7501   6.557   1.969   2.171 -0.2734  0.3726  0.3862
 2201SOL    HW1 7502   6.521   1.885   2.213  1.5409 -0.7016 -0.1112
 2201SOL    HW2 7503   6.570   1.953   2.073  1.5571  0.6936  0.5509
 2202SOL     OW 7504   1.851   6.091   0.971  0.1532  0.1769  0.7918
 2202SOL    HW1 7505   1.838   6.071   0.874  0.6157 -0.2496  0.8148
 2202SOL    HW2 7506   1.856   6.006   1.022 -0.7020  0.4055  1.2797
 2203SOL     OW 7507   2.671   3.590   6.688 -0.1543 -0.6441  0.1038
 2203SOL    HW1 7508   2.626   3.567   6.602  1.3798 -1.8532 -0.3999
 2203SOL    HW2 7509   2.751   3.648   6.670 -0.9274  0.7407  0.9158
 2204SOL     OW 7510   4.189   1.896   2.094  0.2813  0.2877  0.0207
 2204SOL    HW1 7511   4.133   1.882   2.013 -1.0579  2.5862  0.4633
 2204SOL    HW2 7512   4.274   1.942   2.069 -0.4319  1.6151 -0.0408
 2205SOL     OW 7513   1.105   6.526   1.017 -0.0800 -0.1363 -0.3439
 2205SOL    HW1 7514   1.189   6.471   1.018  0.1403  0.1614 -1.1683
 2205SOL    HW2 7515   1.063   6.521   0.927 -1.2632 -0.7167  0.2213
 2206SOL     OW 7516   3.035   4.481   6.889  0.2621  0.4236  0.2009
 2206SOL    HW1 7517   3.076   4.390   6.884  0.9863  0.6953  0.7981
 2206SOL    HW2 7518   3.066   4.526   6.973  0.2632  1.3801 -0.2982
 2207SOL     OW 7519   3.857   2.138   6.797 -0.1581  0.3429  1.4531
 2207SOL    HW1 7520   3.863   2.203   6.873  0.2283  2.2569 -0.1357
 2207SOL    HW2 7521   3.762   2.130   6.767  0.0469  2.1007  0.1450
 2208SOL     OW 7522   1.190   5.561   2.406 -0.2851 -0.0300 -1.3381
 2208SOL    HW1 7523   1.103   5.578   2.452 -0.1949 -0.1314 -1.1283
 2208SOL    HW2 7524   1.261   5.542   2.474 -0.5130 -1.8788 -1.5700
 2209SOL     OW 7525   1.445   0.699   5.653  0.4342  0.6944  0.3239
 2209SOL    HW1 7526   1.524   0.757   5.633 -0.7670  2.0461 -0.7912
 2209SOL    HW2 7527   1.413   0.656   5.569 -1.0546  1.6010  0.3810
 2210SOL     OW 7528   0.964   5.733   4.112 -0.2405  0.0907  0.0234
 2210SOL    HW1 7529   0.990   5.704   4.204 -0.0882  0.1981  0.0140
 2210SOL    HW2 7530   0.898   5.808   4.117  0.3985  0.6618  0.0459
 2211SOL     OW 7531   6.855   6.059   0.786  0.0428  0.9378 -0.0146
 2211SOL    HW1 7532   6.777   6.018   0.833  1.6575 -1.6145  0.6264
 2211SOL    HW2 7533   6.844   6.047   0.687 -0.4052  0.6688  0.0612
 2212SOL     OW 7534   0.326   5.005   0.614  0.4564 -0.2267 -0.0528
 2212SOL    HW1 7535   0.234   4.967   0.622 -0.6136  1.9039 -1.1487
 2212SOL    HW2 7536   0.324   5.103   0.636  2.8086 -0.4167  1.4539
 2213SOL     OW 7537   4.441   1.361   5.971 -0.4390 -0.0301  0.4206
 2213SOL    HW1 7538   4.505   1.396   5.903 -1.4313  1.6611  0.2941
 2213SOL    HW2 7539   4.485   1.290   6.026  1.3953  0.8262  0.1146
 2214SOL     OW 7540   3.372   4.032   5.948 -0.5792  0.8428  0.3005
 2214SOL    HW1 7541   3.316   4.090   5.888 -2.6130 -0.3982  0.9087
 2214SOL    HW2 7542   3.340   4.041   6.042 -0.5357 -0.7821  0.4904
 2215SOL     OW 7543   6.349   0.120   6.752  0.1774  0.3742  0.0606
 2215SOL    HW1 7544   6.264   0.120   6.699  0.1925  3.3616 -0.1142
 2215SOL    HW2 7545   6.419   0.067   6.704 -0.5820  0.7857 -1.5689
 2216SOL     OW 7546   1.720   0.460   0.112  0.1264  0.3224  0.2375
 2216SOL    HW1 7547   1.685   0.497   0.198  1.2210  0.0137  0.8347
 2216SOL    HW2 7548   1.644   0.424   0.058 -0.3650 -1.6253  2.1068
 2217SOL     OW 7549   4.995   0.223   2.280  0.4681 -0.1110  0.0966
 2217SOL    HW1 7550   5.000   0.292   2.208 -1.1050  1.6761  1.5860
 2217SOL    HW2 7551   5.052   0.251   2.357  1.2956 -1.4617  0.0029
 2218SOL     OW 7552   6.673   4.874   5.918 -0.0238 -0.4375  0.8590
 2218SOL    HW1 7553   6.620   4.907   5.840 -0.5743 -1.5165  0.7544
 2218SOL    HW2 7554   6.631   4.791   5.954  1.1984 -0.9251  1.2221
 2219SOL     OW 7555   0.357   2.630   0.855  0.4058 -0.3142  0.2594
 2219SOL    HW1 7556   0.433   2.692   0.874 -0.5679  0.7223  0.8717
 2219SOL    HW2 7557   0.376   2.581   0.770  0.4798  2.0372 -1.1788
 2220SOL     OW 7558   1.897   6.156   5.906  0.0871  0.1997  0.6648
 2220SOL    HW1 7559   1.880   6.250   5.876 -1.0447 -0.0568  0.4620
 2220SOL    HW2 7560   1.830   6.130   5.975  0.1405 -0.5971  0.4316
 2221SOL     OW 7561   5.615   1.217   4.145 -0.4770 -0.2749 -0.2611
 2221SOL    HW1 7562   5.694   1.269   4.113 -2.5628  2.4618 -1.3366
 2221SOL    HW2 7563   5.643   1.124   4.167  3.1220  0.7370 -0.0022
 2222SOL     OW 7564   4.344   0.078   6.450  0.1646  0.2132 -0.3604
 2222SOL    HW1 7565   4.414   0.146   6.429  0.9698 -0.8820 -1.3757
 2222SOL    HW2 7566   4.275   0.118   6.511  0.5559  1.9406 -0.9989
 2223SOL     OW 7567   6.182   0.361   3.843  0.3580  0.5258  0.2202
 2223SOL    HW1 7568   6.191   0.278   3.898  0.6583  1.5490  1.7641
 2223SOL    HW2 7569   6.086   0.377   3.822  0.4281 -1.1471 -1.6292
 2224SOL     OW 7570   5.619   3.115   1.858  0.1124 -0.0426  0.0944
 2224SOL    HW1 7571   5.708   3.153   1.831 -0.3505  1.0987  0.1200
 2224SOL    HW2 7572   5.633   3.025   1.900  1.2885  0.2750  0.4345
 2225SOL     OW 7573   6.411   5.986   3.092  0.0997 -0.1068 -0.1453
 2225SOL    HW1 7574   6.498   6.006   3.138  0.7375  0.3188 -1.4959
 2225SOL    HW2 7575   6.406   6.037   3.006 -1.4194 -0.2668 -0.1770
 2226SOL     OW 7576   3.248   4.964   2.694 -0.0535  0.0599  0.1896
 2226SOL    HW1 7577   3.327   4.922   2.738  1.4189  2.5810  0.0761
 2226SOL    HW2 7578   3.201   5.024   2.759 -1.1358 -0.3915 -0.1362
 2227SOL     OW 7579   4.405   3.389   5.983  0.1109 -0.0802  0.5142
 2227SOL    HW1 7580   4.417   3.435   5.895 -1.4877 -0.1170  0.2535
 2227SOL    HW2 7581   4.419   3.454   6.057 -1.0035  0.5822  0.1680
 2228SOL     OW 7582   4.339   4.391   1.023 -0.5979  0.2289 -0.4551
 2228SOL    HW1 7583   4.302   4.398   0.931 -0.1577  1.2983 -0.5619
 2228SOL    HW2 7584   4.275   4.339   1.081 -0.7208 -0.7373 -1.4244
 2229SOL     OW 7585   4.451   1.929   5.500 -0.0942  0.5893  0.0136
 2229SOL    HW1 7586   4.543   1.968   5.497  0.6177 -0.6001  3.0129
 2229SOL    HW2 7587   4.457   1.830   5.513 -1.7845  0.5641  0.9061
 2230SOL     OW 7588   6.462   5.953   6.920 -0.3530  0.1199  0.0991
 2230SOL    HW1 7589   6.396   5.909   6.859 -0.7734  1.2522 -0.3003
 2230SOL    HW2 7590   6.528   6.005   6.866 -0.5288  0.8643  0.5823
 2231SOL     OW 7591   0.635   0.758   6.477 -0.0025  0.0350  0.3826
 2231SOL    HW1 7592   0.671   0.665   6.484  0.3536  0.1781  0.4770
 2231SOL    HW2 7593   0.650   0.806   6.563 -1.0728 -0.1283  0.6738
 2232SOL     OW 7594   0.744   4.344   4.135  0.1854  0.7590 -0.0171
 2232SOL    HW1 7595   0.727   4.267   4.072 -0.4483  0.5064  0.4490
 2232SOL    HW2 7596   0.826   4.393   4.106  0.2789  0.2458 -0.6551
 2233SOL     OW 7597   1.063   3.135   0.013  0.0959 -0.2484 -0.0921
 2233SOL    HW1 7598   1.144   3.090   0.052  1.4121  0.2334 -2.0888
 2233SOL    HW2 7599   1.047   3.099  -0.079 -2.2475 -0.5980  0.4013
 2234SOL     OW 7600   4.305   1.465   6.861  0.6627  0.3154 -0.7987
 2234SOL    HW1 7601   4.267   1.547   6.904 -0.1790  0.5804 -1.9935
 2234SOL    HW2 7602   4.404   1.461   6.878  0.2809 -0.0017  1.7609
 2235SOL     OW 7603   2.266   6.308   1.286 -0.2981 -0.1207  0.4741
 2235SOL    HW1 7604   2.288   6.394   1.241 -0.8537  1.1681  2.5443
 2235SOL    HW2 7605   2.168   6.288   1.275 -0.4989  0.3514  1.2902
 2236SOL     OW 7606   1.402   4.835   4.923 -0.2246 -0.1737  0.0631
 2236SOL    HW1 7607   1.481   4.773   4.927 -0.2610 -0.2204  0.0626
 2236SOL    HW2 7608   1.389   4.866   4.828 -0.6756 -0.7734 -0.0758
 2237SOL     OW 7609   5.469   6.360   5.542  0.1394 -0.2794  0.5523
 2237SOL    HW1 7610   5.477   6.289   5.612  0.0339 -0.3363  0.5082
 2237SOL    HW2 7611   5.425   6.322   5.461  1.3548 -0.5259 -0.0034
 2238SOL     OW 7612   2.915   4.906   2.542 -0.2130  0.3777  0.0373
 2238SOL    HW1 7613   2.898   5.004   2.533 -3.4987 -0.1683 -1.3416
 2238SOL    HW2 7614   2.975   4.875   2.468  1.7839  1.4412  1.1369
 2239SOL     OW 7615   3.176   4.924   4.528 -0.4558  0.2227 -0.1003
 2239SOL    HW1 7616   3.267   4.930   4.568 -0.5112 -1.4824  0.3796
 2239SOL    HW2 7617   3.177   4.962   4.436  1.2412 -1.4206 -0.8324
 2240SOL     OW 7618   3.685   6.598   2.579 -0.0784 -0.0485 -0.2958
 2240SOL    HW1 7619   3.683   6.525   2.649  0.1258  0.0515 -0.1858
 2240SOL    HW2 7620   3.645   6.563   2.495 -0.6119 -0.0735 -0.0344
 2241SOL     OW 7621   2.726   5.151   4.237  0.5179  0.7676  0.2355
 2241SOL    HW1 7622   2.749   5.164   4.333  1.6028  0.7337 -0.0113
 2241SOL    HW2 7623   2.753   5.232   4.185  0.8327  0.3956 -0.1889
 2242SOL     OW 7624   6.408   3.456   3.289  0.1102  0.1406 -0.1637
 2242SOL    HW1 7625   6.400   3.435   3.192 -0.2377  0.3509 -0.1808
 2242SOL    HW2 7626   6.335   3.410   3.340 -0.1495  0.6226 -0.0954
 2243SOL     OW 7627   2.669   0.710   4.946 -0.2328 -0.3342  0.2147
 2243SOL    HW1 7628   2.706   0.803   4.940 -0.2796 -0.3762 -0.9963
 2243SOL    HW2 7629   2.646   0.689   5.041  2.9397 -0.3237  1.1083
 2244SOL     OW 7630   2.887   5.858   2.168 -0.6449 -0.2759 -0.0724
 2244SOL    HW1 7631   2.888   5.922   2.245  2.5363 -1.5211  1.0761
 2244SOL    HW2 7632   2.978   5.820   2.155 -1.4533 -1.4137 -3.4484
 2245SOL     OW 7633   5.944   4.406   6.629  0.1741  0.2015  0.4409
 2245SOL    HW1 7634   5.926   4.502   6.605 -1.2146 -0.1460 -0.0048
 2245SOL    HW2 7635   6.009   4.367   6.565  1.6023  1.1223  1.2632
 2246SOL     OW 7636   1.363   1.291   4.924 -0.0773 -0.5515 -0.2228
 2246SOL    HW1 7637   1.430   1.228   4.886  0.9190  0.1495  0.3209
 2246SOL    HW2 7638   1.289   1.240   4.967  1.0683 -1.3884  0.8307
 2247SOL     OW 7639   3.870   3.353   3.189  0.1057 -0.1237  0.6108
 2247SOL    HW1 7640   3.914   3.436   3.224 -0.9392  0.9982 -0.6480
 2247SOL    HW2 7641   3.789   3.332   3.244 -0.8202  0.9196 -0.3130
 2248SOL     OW 7642   4.917   3.907   4.309  0.0768  0.3486  0.2817
 2248SOL    HW1 7643   4.907   3.813   4.342  0.9285 -0.0493 -0.5310
 2248SOL    HW2 7644   4.931   3.906   4.210 -3.0678  1.5508 -0.2628
 2249SOL     OW 7645   4.688   6.210   2.605  0.6704 -0.6445  0.2565
 2249SOL    HW1 7646   4.695   6.218   2.506  1.3913 -1.8202  0.1891
 2249SOL    HW2 7647   4.605   6.159   2.629 -0.2854  0.9137  0.3456
 2250SOL     OW 7648   3.377   4.255   5.226 -0.1698  0.1854 -0.3532
 2250SOL    HW1 7649   3.410   4.229   5.136  2.2754  1.7225  0.0165
 2250SOL    HW2 7650   3.285   4.218   5.240 -0.1462 -1.0571 -2.9809
 2251SOL     OW 7651   5.595   0.456   1.293 -0.5835  0.0556  0.0074
 2251SOL    HW1 7652   5.632   0.419   1.378 -0.2540  0.3041 -0.0262
 2251SOL    HW2 7653   5.530   0.392   1.254  1.3858 -1.3995 -1.0575
 2252SOL     OW 7654   6.715   2.908   3.123  0.1272 -0.3669 -0.0485
 2252SOL    HW1 7655   6.644   2.966   3.162 -0.4341 -0.7118 -0.5462
 2252SOL    HW2 7656   6.696   2.812   3.144  0.6566 -0.4289  0.1539
 2253SOL     OW 7657   0.297   5.543   5.212 -0.2276  0.0812  0.8828
 2253SOL    HW1 7658   0.351   5.613   5.165 -1.9971  1.0124  0.1443
 2253SOL    HW2 7659   0.282   5.571   5.307 -1.0890  0.8276  0.5390
 2254SOL     OW 7660   3.081   2.290   5.954  0.0363 -0.8174 -0.6545
 2254SOL    HW1 7661   3.085   2.244   5.865 -0.7391 -0.8347 -0.6862
 2254SOL    HW2 7662   3.011   2.362   5.951 -1.1189 -1.8559  0.4112
 2255SOL     OW 7663   6.030   5.024   5.800 -0.0819 -0.1970 -0.0357
 2255SOL    HW1 7664   6.067   5.086   5.730 -0.8153 -1.0316 -1.1907
 2255SOL    HW2 7665   6.049   5.062   5.891 -0.3956  1.6704 -0.6917
 2256SOL     OW 7666   5.698   5.707   1.222  0.0591  0.0162  0.1145
 2256SOL    HW1 7667   5.601   5.691   1.208 -0.0476  0.2211  0.5816
 2256SOL    HW2 7668   5.712   5.751   1.311  0.7134 -1.4863  0.7904
 2257SOL     OW 7669   0.032   3.344   3.994 -0.3389 -0.4242 -0.5921
 2257SOL    HW1 7670   0.131   3.347   3.984  0.3090  2.0936  4.0184
 2257SOL    HW2 7671   0.008   3.318   4.088 -3.8162  3.1405 -0.2280
 2258SOL     OW 7672   3.075   5.321   5.136 -0.0530 -0.4989  0.7114
 2258SOL    HW1 7673   2.976   5.311   5.147 -0.5159 -0.9692 -2.6579
 2258SOL    HW2 7674   3.098   5.418   5.128 -1.0655 -0.3861 -2.9772
 2259SOL     OW 7675   3.547   2.379   5.795  0.4116 -0.1781  0.4682
 2259SOL    HW1 7676   3.553   2.298   5.736  0.1273  0.6271 -0.6963
 2259SOL    HW2 7677   3.463   2.374   5.849  0.0500 -0.3331 -0.1031
 2260SOL     OW 7678   6.221   5.722   1.400  0.0432  0.2914  0.0803
 2260SOL    HW1 7679   6.202   5.819   1.411 -0.2805  0.2292  0.0845
 2260SOL    HW2 7680   6.269   5.707   1.313 -1.3327  0.2783 -0.7015
 2261SOL     OW 7681   5.558   5.032   0.158  0.0366 -0.0507  0.1442
 2261SOL    HW1 7682   5.461   5.006   0.152  0.1629 -0.2670 -1.3076
 2261SOL    HW2 7683   5.608   4.959   0.205 -0.1717 -0.9540 -0.9716
 2262SOL     OW 7684   5.449   1.263   2.698  0.1890  0.9214  0.0468
 2262SOL    HW1 7685   5.507   1.311   2.765  0.0531 -0.0072  0.8558
 2262SOL    HW2 7686   5.440   1.167   2.725 -1.2006  0.8983 -0.4308
 2263SOL     OW 7687   0.831   6.179   6.456 -0.1048  0.2524  0.2841
 2263SOL    HW1 7688   0.820   6.081   6.468 -0.1757  0.1306 -0.6993
 2263SOL    HW2 7689   0.741   6.222   6.446 -0.0492  0.3308  0.1079
 2264SOL     OW 7690   2.291   4.632   5.746 -0.1722 -0.0624 -0.5249
 2264SOL    HW1 7691   2.273   4.546   5.698 -1.2129  0.8987 -1.9694
 2264SOL    HW2 7692   2.224   4.644   5.819  0.9774 -1.1987  0.7728
 2265SOL     OW 7693   6.485   0.518   4.584  0.1597 -0.3897  0.4326
 2265SOL    HW1 7694   6.512   0.594   4.643  0.4132 -0.5106  0.4707
 2265SOL    HW2 7695   6.475   0.435   4.639 -1.1285 -0.1698  0.5760
 2266SOL     OW 7696   5.997   1.153   6.237 -0.1235  0.2321 -0.2528
 2266SOL    HW1 7697   5.975   1.074   6.180  0.7052  1.1156 -1.8732
 2266SOL    HW2 7698   5.957   1.235   6.197  1.2696  1.0223 -0.0936
 2267SOL     OW 7699   6.290   3.253   3.688  0.3260 -0.4471 -0.3821
 2267SOL    HW1 7700   6.259   3.185   3.754 -0.9817  0.4501 -0.0257
 2267SOL    HW2 7701   6.389   3.245   3.676  0.6126 -0.6870  1.6515
 2268SOL     OW 7702   3.745   4.386   0.391 -0.5104 -0.1433 -0.3255
 2268SOL    HW1 7703   3.747   4.298   0.438 -2.4527  0.1480  0.4167
 2268SOL    HW2 7704   3.706   4.455   0.452 -1.9237  0.5393 -1.9069
 2269SOL     OW 7705   4.851   6.477   5.930 -0.3422 -0.1218 -0.8887
 2269SOL    HW1 7706   4.914   6.401   5.941 -0.7929 -0.5412 -1.1450
 2269SOL    HW2 7707   4.881   6.555   5.985  0.4815 -0.2582 -1.1439
 2270SOL     OW 7708   2.584   4.794   0.112  0.4613 -0.4427 -0.5895
 2270SOL    HW1 7709   2.524   4.811   0.190  1.0072  0.7890 -0.4044
 2270SOL    HW2 7710   2.679   4.788   0.144  0.5781 -1.0882 -1.0307
 2271SOL     OW 7711   3.726   3.661   0.157 -0.0916 -0.0968  0.2654
 2271SOL    HW1 7712   3.698   3.685   0.064  0.8389  0.4328  0.1058
 2271SOL    HW2 7713   3.655   3.689   0.221 -1.0951 -1.1821 -0.3418
 2272SOL     OW 7714   0.105   3.953   5.045 -0.5933 -0.2838 -0.0922
 2272SOL    HW1 7715   0.203   3.957   5.022 -0.5904 -0.8226 -0.1884
 2272SOL    HW2 7716   0.056   4.019   4.988 -0.2608  0.1327  0.0982
 2273SOL     OW 7717   1.592   1.581   2.949  0.0991  0.0122 -0.6607
 2273SOL    HW1 7718   1.686   1.567   2.917 -0.0807  1.7459 -2.0733
 2273SOL    HW2 7719   1.593   1.608   3.046  1.1310  0.9046 -0.9076
 2274SOL     OW 7720   6.840   2.077   6.744  0.0426 -0.1267 -0.4794
 2274SOL    HW1 7721   6.788   2.159   6.720  0.7385 -0.3518 -3.0256
 2274SOL    HW2 7722   6.928   2.104   6.784 -0.1487  0.3237 -0.3532
 2275SOL     OW 7723   5.966   0.461   4.690  0.5211  0.0482 -0.3365
 2275SOL    HW1 7724   5.952   0.428   4.596 -2.4710 -0.1010  0.0726
 2275SOL    HW2 7725   5.970   0.383   4.752  0.0843  0.2117 -0.0979
 2276SOL     OW 7726   3.504   4.914   6.282  0.2899 -0.6000  0.3327
 2276SOL    HW1 7727   3.457   4.960   6.207  0.7578  0.3923  0.6335
 2276SOL    HW2 7728   3.459   4.827   6.301 -0.7040 -0.2077 -0.1514
 2277SOL     OW 7729   3.316   2.919   2.670 -0.0139  0.3866 -0.5093
 2277SOL    HW1 7730   3.271   2.831   2.653  0.7289 -0.5052  1.7483
 2277SOL    HW2 7731   3.343   2.925   2.766  0.3711  2.9299 -0.6941
 2278SOL     OW 7732   4.907   4.784   4.660 -0.8047 -0.0754 -0.3058
 2278SOL    HW1 7733   4.866   4.696   4.683 -0.9391  0.0017 -0.2480
 2278SOL    HW2 7734   4.988   4.770   4.603 -1.4230 -0.1846 -1.1627
 2279SOL     OW 7735   6.914   1.354   4.946  0.7772 -0.3972 -0.7538
 2279SOL    HW1 7736   6.946   1.259   4.945  0.9430 -0.3589 -3.2090
 2279SOL    HW2 7737   6.960   1.406   4.875 -0.6812  1.0655 -0.6865
 2280SOL     OW 7738   6.031   6.753   4.776  0.1797  0.2718  0.0373
 2280SOL    HW1 7739   6.020   6.781   4.872 -0.1086  0.0935  0.0556
 2280SOL    HW2 7740   5.981   6.668   4.760  0.0548  0.4123 -0.3274
 2281SOL     OW 7741   4.741   6.824   2.662  0.4937  0.0152  0.2948
 2281SOL    HW1 7742   4.761   6.726   2.659 -0.0585 -0.0756 -1.3068
 2281SOL    HW2 7743   4.648   6.838   2.697 -0.3839 -0.2339 -1.7980
 2282SOL     OW 7744   5.326   6.992   5.344  0.3052  0.0738  0.9166
 2282SOL    HW1 7745   5.241   7.029   5.308  0.2481 -0.6462  0.2791
 2282SOL    HW2 7746   5.334   7.014   5.441 -0.9858 -0.5261  1.1814
 2283SOL     OW 7747   2.079   5.967   1.498  0.4345  0.5932 -0.5488
 2283SOL    HW1 7748   2.025   5.884   1.485 -0.1180  0.4100  2.2956
 2283SOL    HW2 7749   2.168   5.955   1.455  0.4538 -1.6007 -0.0457
 2284SOL     OW 7750   1.658   2.753   4.799  0.0406 -0.7433 -0.3274
 2284SOL    HW1 7751   1.637   2.759   4.897 -0.3148  3.3963 -0.5013
 2284SOL    HW2 7752   1.757   2.760   4.786 -0.0646  2.0737 -0.2524
 2285SOL     OW 7753   1.448   2.017   2.034  0.1405  0.1082 -0.0348
 2285SOL    HW1 7754   1.520   2.074   1.994  0.3667 -0.0558  0.1299
 2285SOL    HW2 7755   1.459   2.016   2.134 -0.1896  0.2139  0.0019
 2286SOL     OW 7756   6.455   0.174   3.880 -0.0305 -1.2361 -0.1085
 2286SOL    HW1 7757   6.358   0.175   3.906  0.0677  1.3399  0.3727
 2286SOL    HW2 7758   6.468   0.229   3.797  0.8403 -2.7827 -1.0429
 2287SOL     OW 7759   0.825   1.749   4.569  0.0219 -0.7588  0.0275
 2287SOL    HW1 7760   0.825   1.805   4.485 -0.0323 -0.0140  0.5100
 2287SOL    HW2 7761   0.809   1.654   4.545 -1.8837 -0.3139 -0.6528
 2288SOL     OW 7762   5.432   6.157   5.025 -0.1780 -0.3022  0.4841
 2288SOL    HW1 7763   5.423   6.069   4.977 -2.6243  0.6941 -1.0522
 2288SOL    HW2 7764   5.520   6.198   5.003  1.3107 -2.6058  1.7585
 2289SOL     OW 7765   0.322   5.104   2.966  0.5621 -0.0704  0.1444
 2289SOL    HW1 7766   0.312   5.009   2.994 -0.3613  0.5112  1.9682
 2289SOL    HW2 7767   0.371   5.154   3.038  0.2141  1.0276 -0.3655
 2290SOL     OW 7768   1.265   2.441   6.906  0.2823 -0.6531  0.4591
 2290SOL    HW1 7769   1.215   2.483   6.830  0.1681  0.9260  1.3648
 2290SOL    HW2 7770   1.363   2.448   6.889  0.2563 -0.3112  0.4291
 2291SOL     OW 7771   2.997   3.388   5.995 -0.1612 -0.4827 -0.0535
 2291SOL    HW1 7772   3.005   3.303   5.943  1.4570 -1.0558  1.0554
 2291SOL    HW2 7773   2.956   3.368   6.084  3.8813 -0.9647  1.8979
 2292SOL     OW 7774   1.597   3.635   4.443 -0.0385 -0.8539  0.2251
 2292SOL    HW1 7775   1.665   3.616   4.373  0.0216  1.9112 -0.5876
 2292SOL    HW2 7776   1.510   3.592   4.417  0.8023 -2.6382  0.2145
 2293SOL     OW 7777   0.581   6.053   1.035  0.2391 -0.3845 -0.0470
 2293SOL    HW1 7778   0.496   6.031   1.082 -0.4629  0.5969 -0.8009
 2293SOL    HW2 7779   0.561   6.077   0.940  1.4429 -0.7804 -0.4254
 2294SOL     OW 7780   1.268   1.069   0.462 -0.4068  0.3139 -0.6397
 2294SOL    HW1 7781   1.367   1.060   0.473 -0.0786  2.4024 -1.3789
 2294SOL    HW2 7782   1.240   1.024   0.377  0.2102  1.1767 -1.3167
 2295SOL     OW 7783   0.869   1.897   2.926  0.5747 -0.6912 -0.3057
 2295SOL    HW1 7784   0.863   1.859   2.833 -1.4064 -2.0865  0.3337
 2295SOL    HW2 7785   0.914   1.986   2.922 -1.6935  0.4785 -2.9912
 2296SOL     OW 7786   4.344   5.703   1.160 -0.3509 -0.6243  0.0602
 2296SOL    HW1 7787   4.387   5.784   1.118 -1.2851  0.0965  0.4544
 2296SOL    HW2 7788   4.371   5.622   1.108  0.8843 -0.1199 -0.1442
 2297SOL     OW 7789   3.299   5.756   3.580  0.2845 -0.2866  0.0183
 2297SOL    HW1 7790   3.386   5.750   3.530  0.6515  0.4748  0.5422
 2297SOL    HW2 7791   3.301   5.836   3.641 -0.1586 -1.1763  1.2393
 2298SOL     OW 7792   4.092   4.404   1.266  0.0948  0.3854 -0.3701
 2298SOL    HW1 7793   4.113   4.480   1.205  0.8931 -0.3966 -1.1074
 2298SOL    HW2 7794   4.014   4.427   1.324  0.3831  1.7842 -0.5183
 2299SOL     OW 7795   2.476   6.024   0.049 -0.2280 -0.0222 -0.3309
 2299SOL    HW1 7796   2.401   6.083   0.080 -1.0758 -1.4362  0.4144
 2299SOL    HW2 7797   2.538   6.005   0.125 -0.1554 -0.3850 -0.4788
 2300SOL     OW 7798   2.097   4.504   1.934  0.3142 -0.0901  0.1994
 2300SOL    HW1 7799   2.129   4.483   1.842  0.9228 -0.4258  0.4886
 2300SOL    HW2 7800   2.054   4.595   1.934  0.1803 -0.1503 -0.4429
 2301SOL     OW 7801   3.169   3.876   4.139  0.0892  0.3230  0.2039
 2301SOL    HW1 7802   3.156   3.973   4.160 -0.5695 -0.1010  1.8767
 2301SOL    HW2 7803   3.251   3.843   4.184 -1.5860 -0.7080  2.7489
 2302SOL     OW 7804   4.241   1.225   2.401  0.2813 -0.3982 -0.8935
 2302SOL    HW1 7805   4.222   1.323   2.402  0.6026 -0.3211 -1.7468
 2302SOL    HW2 7806   4.277   1.197   2.490 -2.2608 -0.2623  0.2732
 2303SOL     OW 7807   3.488   4.341   1.705 -0.5140  0.1571 -0.7688
 2303SOL    HW1 7808   3.494   4.427   1.755 -0.2521 -1.1611  1.6527
 2303SOL    HW2 7809   3.571   4.287   1.722 -1.0838 -0.9695 -1.4281
 2304SOL     OW 7810   4.350   6.903   4.109 -0.4169  0.2108  0.0185
 2304SOL    HW1 7811   4.427   6.840   4.115 -0.0320  0.6615 -0.1349
 2304SOL    HW2 7812   4.273   6.858   4.063 -0.2274 -0.2180  0.1197
 2305SOL     OW 7813   2.585   6.564   2.703 -0.7860  0.5580 -0.2369
 2305SOL    HW1 7814   2.520   6.488   2.709 -0.7315  0.5118 -0.2283
 2305SOL    HW2 7815   2.581   6.603   2.611  0.2603 -0.4214 -0.7193
 2306SOL     OW 7816   2.257   4.526   1.682  0.5592  0.6712  0.1772
 2306SOL    HW1 7817   2.249   4.446   1.622  1.1374  0.5657  0.2387
 2306SOL    HW2 7818   2.352   4.538   1.711  0.5580  1.6179 -0.1574
 2307SOL     OW 7819   6.875   5.347   1.737 -0.8275 -0.2970  0.2255
 2307SOL    HW1 7820   6.927   5.262   1.732  0.1426  0.2761  0.4992
 2307SOL    HW2 7821   6.849   5.376   1.644  0.0219 -0.1692  0.0235
 2308SOL     OW 7822   0.736   6.318   0.048 -0.2087  0.4075  0.6682
 2308SOL    HW1 7823   0.644   6.347   0.024 -0.1612 -1.1198 -1.6278
 2308SOL    HW2 7824   0.743   6.311   0.148 -2.2871  1.3525  0.9361
 2309SOL     OW 7825   2.551   1.239   0.245  0.1094 -0.4288 -0.5661
 2309SOL    HW1 7826   2.499   1.237   0.330  1.0214  1.0916  0.0601
 2309SOL    HW2 7827   2.489   1.255   0.168 -0.7526 -2.0696 -0.2568
 2310SOL     OW 7828   4.853   6.372   0.063  0.4302 -0.4808 -0.2002
 2310SOL    HW1 7829   4.813   6.429   0.135 -0.1134 -1.4249  0.2768
 2310SOL    HW2 7830   4.953   6.371   0.072  0.4928  0.8822 -0.6102
 2311SOL     OW 7831   1.425   0.972   2.707 -0.0114  0.1814 -0.3036
 2311SOL    HW1 7832   1.469   0.882   2.713 -0.9746 -0.3694 -1.1569
 2311SOL    HW2 7833   1.440   1.011   2.617 -2.8227 -0.9114 -1.3670
 2312SOL     OW 7834   3.881   0.574   4.561  0.3583 -0.3052  0.0864
 2312SOL    HW1 7835   3.864   0.493   4.506  0.8259  0.2094 -0.8415
 2312SOL    HW2 7836   3.854   0.557   4.656 -1.6255 -0.8120 -0.5278
 2313SOL     OW 7837   4.097   3.892   1.938  0.0711 -0.0137 -0.4865
 2313SOL    HW1 7838   4.114   3.882   2.036 -1.5630 -1.9961 -0.3227
 2313SOL    HW2 7839   4.183   3.903   1.890  0.8398  2.4091  1.2554
 2314SOL     OW 7840   5.741   6.700   4.468 -0.3415  0.1912  0.6641
 2314SOL    HW1 7841   5.771   6.605   4.473 -0.3975  0.1919  1.0276
 2314SOL    HW2 7842   5.789   6.746   4.393 -2.2436 -0.8097 -1.2834
 2315SOL     OW 7843   4.717   3.884   5.242  0.5066 -0.1178  0.4642
 2315SOL    HW1 7844   4.706   3.792   5.204  0.1324  0.4606 -0.8925
 2315SOL    HW2 7845   4.655   3.895   5.319  0.2816 -0.8811  0.4052
 2316SOL     OW 7846   2.973   6.425   5.337  0.1436  0.0394 -0.0036
 2316SOL    HW1 7847   2.986   6.389   5.430  0.4399  2.1009  0.7946
 2316SOL    HW2 7848   2.950   6.522   5.341  0.4792  0.2600 -2.1165
 2317SOL     OW 7849   0.936   0.021   3.944  0.8199 -0.1250 -0.1400
 2317SOL    HW1 7850   0.859   0.052   3.889 -0.3265 -0.7484  1.0493
 2317SOL    HW2 7851   0.992  -0.043   3.891  0.3583  0.1118 -0.9245
 2318SOL     OW 7852   1.966   3.883   4.122 -0.6499 -0.3515 -0.0474
 2318SOL    HW1 7853   1.933   3.977   4.138 -1.7922 -0.7380 -0.0194
 2318SOL    HW2 7854   1.888   3.825   4.098  0.1140 -1.2020 -0.5004
 2319SOL     OW 7855   4.483   4.059   5.793 -0.1587  0.3387 -0.2550
 2319SOL    HW1 7856   4.448   4.087   5.883  0.5759 -1.1176  0.5196
 2319SOL    HW2 7857   4.435   3.977   5.763 -0.9371  1.2493 -1.5850
 2320SOL     OW 7858   2.864   3.356   6.229 -0.6506 -0.1841 -0.3758
 2320SOL    HW1 7859   2.848   3.262   6.258  1.3553 -1.2377 -2.3660
 2320SOL    HW2 7860   2.807   3.418   6.283 -0.4992 -2.3285  2.4582
 2321SOL     OW 7861   1.580   5.797   0.892 -0.3919 -0.0344 -0.2208
 2321SOL    HW1 7862   1.599   5.751   0.805 -0.2956 -0.9641  0.2757
 2321SOL    HW2 7863   1.511   5.745   0.942 -0.3412  0.4179  0.3248
 2322SOL     OW 7864   1.744   2.149   4.818  0.1789 -0.6646 -0.1297
 2322SOL    HW1 7865   1.816   2.122   4.754  0.0538 -0.2713 -0.4423
 2322SOL    HW2 7866   1.758   2.244   4.845 -0.0360 -0.6871  0.0640
 2323SOL     OW 7867   2.902   4.717   2.310 -0.1352 -0.0755  0.3556
 2323SOL    HW1 7868   2.867   4.728   2.402 -1.8713  2.6969 -0.5218
 2323SOL    HW2 7869   2.850   4.646   2.262 -1.6055  0.8763  0.4836
 2324SOL     OW 7870   5.798   6.722   2.690  0.3443  0.6821  0.0180
 2324SOL    HW1 7871   5.897   6.717   2.683  0.4252 -0.6969  1.4503
 2324SOL    HW2 7872   5.756   6.682   2.608  1.0392 -1.5961  0.6957
 2325SOL     OW 7873   0.696   5.381   1.558  0.6919  0.1642  0.2732
 2325SOL    HW1 7874   0.756   5.375   1.638 -0.8499 -2.1525  1.3820
 2325SOL    HW2 7875   0.701   5.296   1.506 -0.9354  0.2663 -0.1040
 2326SOL     OW 7876   3.361   5.376   5.324 -0.4622  0.4772  0.2478
 2326SOL    HW1 7877   3.345   5.280   5.299 -0.7826  0.1567  1.6045
 2326SOL    HW2 7878   3.285   5.410   5.379 -0.4678  1.6038 -0.4286
 2327SOL     OW 7879   6.572   2.084   3.685 -0.2143 -0.3996  0.7878
 2327SOL    HW1 7880   6.608   2.177   3.694 -2.5211  0.4668  1.9716
 2327SOL    HW2 7881   6.628   2.022   3.740  0.8623  0.4132  0.6583
 2328SOL     OW 7882   3.996   1.657   2.820 -0.0067 -0.5975  0.0449
 2328SOL    HW1 7883   3.908   1.624   2.853  0.4111 -1.5211  0.2997
 2328SOL    HW2 7884   4.065   1.645   2.892 -0.0177  1.8518  0.5292
 2329SOL     OW 7885   1.157   4.453   4.526  0.0365 -0.1693  0.0112
 2329SOL    HW1 7886   1.250   4.474   4.556  0.7780 -0.1358 -2.1570
 2329SOL    HW2 7887   1.160   4.404   4.439 -1.9757  0.2063 -0.3164
 2330SOL     OW 7888   6.478   4.484   0.677 -0.3101 -0.6126  0.0273
 2330SOL    HW1 7889   6.502   4.463   0.583  0.4095 -0.7974  0.2481
 2330SOL    HW2 7890   6.402   4.425   0.706  0.2265 -1.3630 -0.0712
 2331SOL     OW 7891   3.847   3.175   6.933 -0.0102 -0.4541  0.3679
 2331SOL    HW1 7892   3.802   3.196   7.020 -0.8849  0.3493 -0.2532
 2331SOL    HW2 7893   3.945   3.194   6.940 -0.1495  0.0427  1.0493
 2332SOL     OW 7894   6.907   3.829   5.739 -0.1597 -0.4185  0.2808
 2332SOL    HW1 7895   6.881   3.736   5.715  0.4987 -0.8210  1.1165
 2332SOL    HW2 7896   6.853   3.893   5.684  0.0399 -1.2919 -0.9770
 2333SOL     OW 7897   2.962   6.364   3.165  0.4307 -0.0477 -0.0062
 2333SOL    HW1 7898   2.970   6.264   3.164 -0.4131 -0.1219  0.0471
 2333SOL    HW2 7899   2.866   6.389   3.161  0.5402  0.7414  1.5927
 2334SOL     OW 7900   2.040   1.817   0.032 -0.4593 -0.0134  0.2458
 2334SOL    HW1 7901   2.056   1.884  -0.040  0.4059  0.7942  1.1484
 2334SOL    HW2 7902   1.951   1.835   0.075 -1.2893 -0.9283 -1.0420
 2335SOL     OW 7903   1.238   0.948   3.413 -0.1742  0.1215 -0.4223
 2335SOL    HW1 7904   1.138   0.943   3.405 -0.0541 -0.8616 -1.7832
 2335SOL    HW2 7905   1.276   0.857   3.395  0.9141  0.1541  1.4800
 2336SOL     OW 7906   5.105   1.241   5.692 -0.2341 -0.2193  0.0959
 2336SOL    HW1 7907   5.202   1.242   5.668  0.0018 -0.7505  0.9884
 2336SOL    HW2 7908   5.080   1.151   5.728 -1.3202 -0.4351 -1.1112
 2337SOL     OW 7909   5.694   6.156   1.940  0.0567 -0.2014 -0.8437
 2337SOL    HW1 7910   5.711   6.058   1.926  0.9158 -0.0914 -0.6103
 2337SOL    HW2 7911   5.715   6.181   2.034  0.5902  0.3629 -1.1069
 2338SOL     OW 7912   2.446   0.390   4.299  0.5007  0.4094 -0.9285
 2338SOL    HW1 7913   2.486   0.389   4.391 -0.2644  0.7572 -0.5737
 2338SOL    HW2 7914   2.455   0.300   4.257  1.6666  0.4960 -0.8785
 2339SOL     OW 7915   3.222   3.272   3.877 -0.0265 -0.2396  0.3693
 2339SOL    HW1 7916   3.249   3.182   3.843 -1.3914 -0.1867 -0.9720
 2339SOL    HW2 7917   3.125   3.270   3.901  0.1989  0.5860  1.4211
 2340SOL     OW 7918   3.455   4.610   0.322  0.4724  0.2429  0.4651
 2340SOL    HW1 7919   3.362   4.574   0.333  0.0239  1.2853  0.2483
 2340SOL    HW2 7920   3.489   4.586   0.231  0.5405 -0.4122  0.6618
 2341SOL     OW 7921   3.853   2.996   1.081  0.2936  0.1193  0.0672
 2341SOL    HW1 7922   3.887   3.009   1.174  1.6347 -1.0890 -0.2141
 2341SOL    HW2 7923   3.930   2.985   1.018 -0.5962  0.2245 -1.0891
 2342SOL     OW 7924   1.017   6.628   5.851  0.0184  0.8179  0.2902
 2342SOL    HW1 7925   1.017   6.570   5.932  0.7375 -2.4946 -1.9016
 2342SOL    HW2 7926   1.092   6.694   5.857 -0.9159  1.7477  2.9218
 2343SOL     OW 7927   2.258   5.125   1.493 -0.1131  0.0137 -0.3479
 2343SOL    HW1 7928   2.338   5.108   1.550  0.0546  0.0796 -0.5614
 2343SOL    HW2 7929   2.195   5.048   1.499 -0.4335  0.3301  0.4851
 2344SOL     OW 7930   2.145   0.338   6.858 -0.2314 -0.5117 -0.0395
 2344SOL    HW1 7931   2.052   0.360   6.886  0.1460 -1.0783  1.8065
 2344SOL    HW2 7932   2.149   0.242   6.828 -0.0687 -0.8056  0.8791
 2345SOL     OW 7933   2.890   4.862   3.526  0.2153  0.0559  0.2712
 2345SOL    HW1 7934   2.930   4.820   3.608 -0.2639  0.0712  0.5156
 2345SOL    HW2 7935   2.952   4.849   3.449  0.3734 -0.5305  0.4898
 2346SOL     OW 7936   3.406   1.291   3.859 -0.3278  0.3072 -0.0399
 2346SOL    HW1 7937   3.393   1.390   3.859  0.1819  0.3819 -0.5828
 2346SOL    HW2 7938   3.337   1.248   3.918 -0.9093  0.9376 -0.2447
 2347SOL     OW 7939   2.892   2.209   1.496 -0.2972  0.0584 -0.3964
 2347SOL    HW1 7940   2.939   2.288   1.457 -0.5927 -0.0658 -1.0180
 2347SOL    HW2 7941   2.904   2.208   1.595  0.9410  0.0790 -0.5319
 2348SOL     OW 7942   3.672   4.722   5.508 -0.7133 -0.4137  0.1650
 2348SOL    HW1 7943   3.632   4.786   5.442 -1.4175  0.1166  1.0771
 2348SOL    HW2 7944   3.770   4.712   5.490 -0.4000  1.6059  0.5211
 2349SOL     OW 7945   1.418   3.771   0.634 -0.2427  0.3104 -0.4949
 2349SOL    HW1 7946   1.478   3.852   0.631  0.0357  0.1029 -0.5906
 2349SOL    HW2 7947   1.462   3.695   0.586 -0.9620  0.3942 -1.3011
 2350SOL     OW 7948   5.308   6.524   5.890 -0.0147 -0.4293 -0.0742
 2350SOL    HW1 7949   5.239   6.454   5.908 -2.5178  1.9752  0.3636
 2350SOL    HW2 7950   5.327   6.575   5.974  1.6678 -0.4300 -0.4129
 2351SOL     OW 7951   2.081   4.382   3.339 -0.0000  0.0846  0.7017
 2351SOL    HW1 7952   2.132   4.298   3.356  1.3244  0.4704 -1.0885
 2351SOL    HW2 7953   1.995   4.359   3.292  0.6480 -0.2569 -0.3541
 2352SOL     OW 7954   1.719   4.371   2.705 -0.0054 -0.6877  0.2031
 2352SOL    HW1 7955   1.626   4.336   2.718  0.2566 -1.7008 -0.5113
 2352SOL    HW2 7956   1.781   4.294   2.691  0.9677 -0.0265  0.7668
 2353SOL     OW 7957   2.897   2.345   5.562  0.1919 -0.5907  0.0346
 2353SOL    HW1 7958   2.927   2.323   5.468 -0.9590 -0.9925 -0.2552
 2353SOL    HW2 7959   2.876   2.442   5.568 -0.0348 -0.6234 -0.2095
 2354SOL     OW 7960   1.483   1.090   6.597  0.1140  0.8215 -0.3070
 2354SOL    HW1 7961   1.491   0.997   6.559  0.4876  0.8489 -0.3002
 2354SOL    HW2 7962   1.571   1.117   6.636 -0.3705  0.6283  0.9624
 2355SOL     OW 7963   6.765   5.036   6.795 -0.2271 -0.0099  0.0386
 2355SOL    HW1 7964   6.755   5.117   6.737 -0.0905 -0.1178 -0.1358
 2355SOL    HW2 7965   6.853   4.993   6.776 -0.2851 -0.1804  0.1578
 2356SOL     OW 7966   1.936   3.084   0.033  0.2811  0.5162 -0.0794
 2356SOL    HW1 7967   1.929   3.180   0.006  1.1555  2.0580  4.3727
 2356SOL    HW2 7968   2.030   3.053   0.025  0.4397  0.8098  0.5379
 2357SOL     OW 7969   3.490   5.896   3.235  0.2545 -0.6059 -0.0482
 2357SOL    HW1 7970   3.486   5.842   3.151 -4.4800 -1.6651  0.5990
 2357SOL    HW2 7971   3.444   5.984   3.220  3.9066  1.5697  0.1980
 2358SOL     OW 7972   3.575   5.728   6.279 -0.2524 -0.0246  0.0559
 2358SOL    HW1 7973   3.512   5.653   6.298  0.7247 -0.9381 -0.1891
 2358SOL    HW2 7974   3.530   5.815   6.297 -1.8295 -0.6134 -0.8407
 2359SOL     OW 7975   6.712   0.455   5.726 -0.0154 -0.1946 -0.5918
 2359SOL    HW1 7976   6.682   0.392   5.798  0.2804  1.7676  1.3231
 2359SOL    HW2 7977   6.804   0.429   5.696 -0.1230 -1.0160 -0.2438
 2360SOL     OW 7978   6.079   6.716   6.600  0.3547 -0.3077 -0.1801
 2360SOL    HW1 7979   6.150   6.707   6.530  0.8985  1.8947  0.0228
 2360SOL    HW2 7980   6.068   6.812   6.625 -3.0791 -0.4586 -0.5742
 2361SOL     OW 7981   3.165   0.830   4.943 -0.0258 -0.1520 -0.7675
 2361SOL    HW1 7982   3.181   0.759   4.875  0.1066 -0.2076 -0.6771
 2361SOL    HW2 7983   3.138   0.915   4.896 -1.3646 -0.5811 -0.8205
 2362SOL     OW 7984   3.441   5.009   4.623  0.7049 -0.3788 -0.2504
 2362SOL    HW1 7985   3.403   5.076   4.558  0.9970 -1.0247 -1.1066
 2362SOL    HW2 7986   3.539   5.023   4.631  0.4415  0.7784  1.3591
 2363SOL     OW 7987   1.587   2.245   0.703  0.4542 -0.2303  0.4157
 2363SOL    HW1 7988   1.513   2.221   0.640  0.3734  0.7299  0.1329
 2363SOL    HW2 7989   1.641   2.163   0.723 -1.4993 -1.2689  1.7437
 2364SOL     OW 7990   2.172   2.137   3.761 -0.0121  0.5190 -0.0914
 2364SOL    HW1 7991   2.170   2.091   3.672  0.0817 -0.7317  0.5347
 2364SOL    HW2 7992   2.100   2.101   3.820  1.6590 -0.7339  1.3067
 2365SOL     OW 7993   5.301   3.362   0.151  0.0329 -0.6517 -0.0830
 2365SOL    HW1 7994   5.304   3.313   0.238  0.3369 -0.1285  0.2137
 2365SOL    HW2 7995   5.388   3.411   0.137  0.8471 -2.4276 -1.7047
 2366SOL     OW 7996   2.419   3.871   0.062  0.4540 -0.3775 -0.5586
 2366SOL    HW1 7997   2.335   3.839   0.018  0.2910 -1.4715  0.5023
 2366SOL    HW2 7998   2.422   3.971   0.059 -1.2124 -0.2867 -0.0596
 2367SOL     OW 7999   3.353   2.424   6.758  0.5218  0.4237  0.1669
 2367SOL    HW1 8000   3.389   2.516   6.742 -0.9458  0.7325 -1.8255
 2367SOL    HW2 8001   3.269   2.412   6.705  0.4277 -1.9160  0.7439
 2368SOL     OW 8002   5.333   1.706   2.042 -0.6518 -0.0195 -0.1233
 2368SOL    HW1 8003   5.299   1.619   2.007  0.4293 -0.4837 -0.0609
 2368SOL    HW2 8004   5.360   1.696   2.137  0.5188  0.0652 -0.4257
 2369SOL     OW 8005   2.228   2.003   5.529 -0.1794  0.1227  0.8607
 2369SOL    HW1 8006   2.151   2.059   5.499 -0.3825 -0.2577  0.6552
 2369SOL    HW2 8007   2.252   1.938   5.457  2.7338  2.6154 -0.6477
 2370SOL     OW 8008   5.103   3.243   5.796  0.9235 -0.1106  0.4943
 2370SOL    HW1 8009   5.075   3.338   5.781  1.2149 -0.2065 -0.7619
 2370SOL    HW2 8010   5.100   3.193   5.710 -2.2697 -2.1044  1.5446
 2371SOL     OW 8011   6.368   0.160   1.845  0.4221 -0.1478 -0.0501
 2371SOL    HW1 8012   6.430   0.083   1.832  0.2061 -0.4251  0.5565
 2371SOL    HW2 8013   6.274   0.126   1.849  0.3245  0.1509  0.2005
 2372SOL     OW 8014   4.855   2.217   2.423 -0.0422  0.1781 -0.4617
 2372SOL    HW1 8015   4.756   2.221   2.437  0.2171 -0.0486  1.8386
 2372SOL    HW2 8016   4.884   2.122   2.410  0.1682 -0.1909  2.1251
 2373SOL     OW 8017   1.115   0.662   0.493 -0.0167  0.5393  0.3425
 2373SOL    HW1 8018   1.046   0.591   0.509  1.8337 -1.2960  0.6512
 2373SOL    HW2 8019   1.135   0.667   0.395 -1.4804  2.0313  0.0744
 2374SOL     OW 8020   5.911   0.087   3.937  0.0137 -0.5866 -0.3912
 2374SOL    HW1 8021   5.895   0.179   3.901  0.8562 -0.3866 -0.2933
 2374SOL    HW2 8022   5.884   0.020   3.868 -1.9794 -0.3275  0.0933
 2375SOL     OW 8023   3.931   6.340   2.672 -0.5103  0.0026 -0.5043
 2375SOL    HW1 8024   3.906   6.361   2.766  1.2151 -0.5982  0.1187
 2375SOL    HW2 8025   3.959   6.423   2.625  2.0741 -0.1554  0.6246
 2376SOL     OW 8026   6.514   4.091   5.660 -0.4080 -0.9299 -0.1456
 2376SOL    HW1 8027   6.600   4.059   5.620  0.3633 -0.4497  1.0727
 2376SOL    HW2 8028   6.494   4.039   5.743  0.3327  0.9601  1.2921
 2377SOL     OW 8029   3.035   2.928   1.775  0.1908 -0.0633  0.1454
 2377SOL    HW1 8030   3.028   2.988   1.854  0.7722  0.8751 -0.4955
 2377SOL    HW2 8031   2.944   2.910   1.739 -0.0515 -0.2430  0.8312
 2378SOL     OW 8032   5.575   3.626   6.569 -0.2524 -0.3021  0.0261
 2378SOL    HW1 8033   5.587   3.595   6.474  2.5902  0.4147  0.0540
 2378SOL    HW2 8034   5.542   3.721   6.568 -0.9787 -0.5447 -0.1954
 2379SOL     OW 8035   6.266   3.404   0.164  0.1759 -0.5415  0.1788
 2379SOL    HW1 8036   6.354   3.425   0.122 -0.1623  1.6404  0.4408
 2379SOL    HW2 8037   6.193   3.451   0.114 -0.7149 -1.4543  0.5930
 2380SOL     OW 8038   5.238   6.961   0.635  0.3757  0.4494 -0.3191
 2380SOL    HW1 8039   5.204   6.874   0.599 -0.2858 -0.3214  1.9779
 2380SOL    HW2 8040   5.160   7.017   0.665  0.8859  0.4651  1.0782
 2381SOL     OW 8041   2.151   2.508   4.028  0.6297  0.1414 -0.5521
 2381SOL    HW1 8042   2.099   2.423   4.040  1.4699 -0.2755  0.3577
 2381SOL    HW2 8043   2.123   2.574   4.098  0.3644  0.4165 -0.9169
 2382SOL     OW 8044   1.446   2.731   5.613  0.1688 -0.8082  0.3005
 2382SOL    HW1 8045   1.377   2.785   5.661 -1.1599 -2.0441 -0.1199
 2382SOL    HW2 8046   1.443   2.753   5.516  0.6643 -0.5594  0.3426
 2383SOL     OW 8047   6.223   0.416   0.512  0.1666 -0.6994 -0.8057
 2383SOL    HW1 8048   6.240   0.319   0.502  0.6119 -0.6224 -0.7979
 2383SOL    HW2 8049   6.309   0.464   0.531  0.3454 -0.0027 -3.1266
 2384SOL     OW 8050   6.016   1.403   2.803 -0.7954  0.0446  0.2714
 2384SOL    HW1 8051   6.005   1.493   2.762 -1.1185 -0.3311 -0.4918
 2384SOL    HW2 8052   6.077   1.409   2.882  1.0866  0.5060 -1.1786
 2385SOL     OW 8053   5.269   6.234   0.685  0.3287 -0.2544 -0.4412
 2385SOL    HW1 8054   5.362   6.198   0.688 -0.0711 -1.3679 -0.5068
 2385SOL    HW2 8055   5.258   6.307   0.752  0.7330 -1.4301  0.9623
 2386SOL     OW 8056   5.663   1.518   4.313 -0.3002  0.3021  0.0253
 2386SOL    HW1 8057   5.711   1.456   4.251  1.7743  0.5732  1.2564
 2386SOL    HW2 8058   5.673   1.612   4.282  1.3206  0.5074  1.0423
 2387SOL     OW 8059   0.694   2.079   3.037 -0.3317 -0.2196  0.1294
 2387SOL    HW1 8060   0.679   2.134   2.955 -1.4649 -0.5269  0.1128
 2387SOL    HW2 8061   0.728   1.989   3.011  0.9190  0.2284  0.1197
 2388SOL     OW 8062   0.055   2.961   4.875 -0.1553  0.2498 -0.0392
 2388SOL    HW1 8063   0.139   2.999   4.836 -0.0326  0.6631  0.6096
 2388SOL    HW2 8064   0.027   2.880   4.823  1.3800 -0.6926  0.5496
 2389SOL     OW 8065   5.738   0.548   3.743 -0.4967 -0.2814  0.1719
 2389SOL    HW1 8066   5.676   0.591   3.809 -0.1663  0.2152  0.1647
 2389SOL    HW2 8067   5.684   0.510   3.667 -0.7563  0.7176 -0.1626
 2390SOL     OW 8068   3.809   3.788   3.390  0.0454  0.6660 -0.5570
 2390SOL    HW1 8069   3.756   3.841   3.324 -0.3548  0.0760 -0.7142
 2390SOL    HW2 8070   3.834   3.846   3.467 -1.1279  0.8526 -0.3095
 2391SOL     OW 8071   2.708   3.719   5.722  0.2570 -0.0211 -0.0961
 2391SOL    HW1 8072   2.637   3.779   5.686  0.0633  0.7517  1.5087
 2391SOL    HW2 8073   2.749   3.760   5.803  2.4365 -0.5327 -0.8691
 2392SOL     OW 8074   4.276   6.007   4.219  0.0968  0.4276 -0.9139
 2392SOL    HW1 8075   4.195   6.018   4.278  0.3293 -0.6725 -0.3553
 2392SOL    HW2 8076   4.252   6.029   4.125 -0.5740  1.1480 -0.5908
 2393SOL     OW 8077   4.661   5.324   0.313 -0.8891  0.3267 -0.0713
 2393SOL    HW1 8078   4.571   5.358   0.340 -0.8828  1.2575 -1.1759
 2393SOL    HW2 8079   4.659   5.296   0.217  0.0769  0.6627 -0.1961
 2394SOL     OW 8080   0.433   4.104   5.243 -0.0874  0.6632  0.1328
 2394SOL    HW1 8081   0.483   4.187   5.215 -1.9366  1.7483 -0.1434
 2394SOL    HW2 8082   0.410   4.050   5.162  0.9558 -0.0488  0.2962
 2395SOL     OW 8083   4.857   2.656   0.179 -0.2557  0.3147 -0.2048
 2395SOL    HW1 8084   4.779   2.622   0.231  0.5250 -1.8153 -0.3009
 2395SOL    HW2 8085   4.834   2.658   0.082 -0.3172  0.0003 -0.2001
 2396SOL     OW 8086   2.186   4.570   0.703 -0.2244  0.3433  0.1363
 2396SOL    HW1 8087   2.246   4.531   0.773 -0.3678  0.7014  0.4652
 2396SOL    HW2 8088   2.091   4.550   0.726 -0.2202 -0.5815 -0.6061
 2397SOL     OW 8089   1.789   4.899   1.416 -0.0425  0.1119 -0.2605
 2397SOL    HW1 8090   1.704   4.940   1.382 -0.5417 -0.8758 -0.2667
 2397SOL    HW2 8091   1.866   4.932   1.362 -0.1800  2.2759  0.7564
 2398SOL     OW 8092   2.064   2.563   6.255 -0.1001  0.1767 -0.5536
 2398SOL    HW1 8093   2.067   2.625   6.177 -0.5758 -0.5879 -1.1924
 2398SOL    HW2 8094   2.145   2.505   6.254 -0.3318 -0.1436 -0.7403
 2399SOL     OW 8095   5.287   2.741   2.895  0.1498  1.0980  0.1869
 2399SOL    HW1 8096   5.366   2.681   2.879  0.6669  1.5930  0.8308
 2399SOL    HW2 8097   5.227   2.739   2.815 -0.8949 -1.8324  0.9117
 2400SOL     OW 8098   2.013   6.239   1.560  0.1776  0.1072  0.6028
 2400SOL    HW1 8099   2.045   6.149   1.531 -0.3749 -0.2629  1.1280
 2400SOL    HW2 8100   2.089   6.304   1.556  0.1326  0.1093 -1.7318
 2401SOL     OW 8101   5.293   6.434   6.700  0.0520  0.2260 -0.0933
 2401SOL    HW1 8102   5.335   6.365   6.760 -0.8743 -0.7254 -0.5014
 2401SOL    HW2 8103   5.342   6.521   6.710 -0.4282  0.2694  2.4527
 2402SOL     OW 8104   2.309   1.376   4.413  0.4585  0.4642  0.2408
 2402SOL    HW1 8105   2.357   1.312   4.473  1.0101 -1.4735 -2.0940
 2402SOL    HW2 8106   2.368   1.399   4.336 -0.8346  1.4613 -0.4781
 2403SOL     OW 8107   2.162   0.671   1.172 -0.2578  0.0804 -0.3780
 2403SOL    HW1 8108   2.216   0.673   1.088 -0.0363  2.1410 -0.2233
 2403SOL    HW2 8109   2.076   0.623   1.156  0.7547 -1.5892 -1.1332
 2404SOL     OW 8110   5.748   0.224   2.796 -0.2199  0.0587  0.0594
 2404SOL    HW1 8111   5.829   0.237   2.738  0.7848 -1.2093  1.0944
 2404SOL    HW2 8112   5.736   0.126   2.814 -0.1458  0.4205  2.4017
 2405SOL     OW 8113   3.116   3.536   3.041  0.2609 -0.1341 -0.4007
 2405SOL    HW1 8114   3.068   3.606   2.988  0.9402  0.7515  0.1159
 2405SOL    HW2 8115   3.207   3.569   3.064  0.1114 -0.6499  1.0103
 2406SOL     OW 8116   2.420   6.310   3.597  0.0002  0.3090  0.2122
 2406SOL    HW1 8117   2.368   6.234   3.556  1.4808 -0.2359 -0.7429
 2406SOL    HW2 8118   2.378   6.397   3.570 -1.5166 -0.1193  1.0315
 2407SOL     OW 8119   5.554   1.714   3.567 -0.5558 -0.5024  0.0863
 2407SOL    HW1 8120   5.509   1.625   3.555  0.5531 -1.0446 -0.2411
 2407SOL    HW2 8121   5.653   1.701   3.566 -0.3779  0.6307  0.9589
 2408SOL     OW 8122   4.561   5.229   2.185 -0.2421  0.8477 -0.1254
 2408SOL    HW1 8123   4.487   5.231   2.118  1.4638  2.3881 -2.0895
 2408SOL    HW2 8124   4.608   5.141   2.181  0.5045  1.2757 -1.8064
 2409SOL     OW 8125   5.999   4.769   1.724 -0.2070  0.5783  0.2723
 2409SOL    HW1 8126   6.020   4.729   1.813  0.5166  0.7404  0.1876
 2409SOL    HW2 8127   6.018   4.701   1.653 -0.9555  0.3896  0.2508
 2410SOL     OW 8128   4.104   0.837   6.701  0.1386  0.9087 -0.4995
 2410SOL    HW1 8129   4.091   0.829   6.602  0.2958  0.1549 -0.4589
 2410SOL    HW2 8130   4.081   0.750   6.745  1.7603  0.6923 -0.0483
 2411SOL     OW 8131   3.502   5.944   6.728 -0.6042 -0.1550  0.3326
 2411SOL    HW1 8132   3.425   5.916   6.670 -0.2491  2.8456 -1.8307
 2411SOL    HW2 8133   3.469   6.003   6.802 -0.3908  2.5785 -1.6059
 2412SOL     OW 8134   2.413   3.254   6.884 -0.0588 -0.6973  0.4888
 2412SOL    HW1 8135   2.401   3.349   6.856 -1.2117 -0.1884  2.5306
 2412SOL    HW2 8136   2.367   3.193   6.819 -1.5411  0.3346  0.5331
 2413SOL     OW 8137   6.421   2.778   0.685 -0.1688  0.0909  0.6918
 2413SOL    HW1 8138   6.430   2.686   0.723 -1.7424 -0.6370 -0.5957
 2413SOL    HW2 8139   6.338   2.784   0.630  0.7218  1.8310 -0.5763
 2414SOL     OW 8140   5.040   5.141   1.472 -0.5850 -0.0485 -0.0263
 2414SOL    HW1 8141   4.991   5.147   1.560  0.3872 -1.0682  0.6051
 2414SOL    HW2 8142   4.986   5.186   1.401 -1.7525  0.1294  0.9423
 2415SOL     OW 8143   1.594   6.477   2.482  0.6204  0.4376 -0.6938
 2415SOL    HW1 8144   1.542   6.437   2.406  1.3066  1.8961 -1.9845
 2415SOL    HW2 8145   1.531   6.512   2.551 -0.0044 -1.8518 -0.0154
 2416SOL     OW 8146   4.699   1.081   4.894  0.4707  0.1687  0.3389
 2416SOL    HW1 8147   4.627   1.127   4.841 -0.6243  1.0457  2.4496
 2416SOL    HW2 8148   4.759   1.030   4.833 -0.8164  0.9828 -1.6847
 2417SOL     OW 8149   3.998   3.281   6.278  0.7740  0.1286 -0.1035
 2417SOL    HW1 8150   4.039   3.334   6.204  0.9192  2.7691  1.7333
 2417SOL    HW2 8151   4.038   3.190   6.280  3.4320  1.1839 -1.0418
 2418SOL     OW 8152   3.920   4.359   5.336  0.3872  0.0675 -0.1288
 2418SOL    HW1 8153   3.967   4.297   5.274 -0.2483 -2.2509  1.5728
 2418SOL    HW2 8154   3.987   4.403   5.396  0.7078 -0.1655 -0.3122
 2419SOL     OW 8155   2.434   5.435   2.425 -0.4911  0.3224 -0.1464
 2419SOL    HW1 8156   2.492   5.512   2.453 -0.3872  0.1176  0.2114
 2419SOL    HW2 8157   2.435   5.426   2.326 -2.1845  2.1186 -0.3994
 2420SOL     OW 8158   4.398   2.758   1.635 -0.1084  0.6313  0.1410
 2420SOL    HW1 8159   4.370   2.692   1.564 -0.4529  2.5035 -1.5469
 2420SOL    HW2 8160   4.319   2.809   1.666  0.3823  1.2884  0.3269
 2421SOL     OW 8161   2.970   1.739   4.909  0.1061 -0.7528 -0.6117
 2421SOL    HW1 8162   2.897   1.715   4.973  0.2434 -0.0077 -0.1613
 2421SOL    HW2 8163   2.987   1.837   4.913  0.8695 -0.8573 -0.9951
 2422SOL     OW 8164   0.804   0.060   0.876 -0.3086  0.3100 -1.0122
 2422SOL    HW1 8165   0.774   0.035   0.968 -1.5960  0.5231 -1.3482
 2422SOL    HW2 8166   0.851   0.148   0.879  1.5553 -0.6593 -0.2758
 2423SOL     OW 8167   2.244   6.082   3.519 -0.1099 -0.3248  0.1101
 2423SOL    HW1 8168   2.145   6.086   3.517 -0.1604 -1.4637 -0.5257
 2423SOL    HW2 8169   2.274   6.013   3.586  0.3139  1.1979  1.5457
 2424SOL     OW 8170   5.943   0.430   4.420 -0.1535 -0.4236 -0.2053
 2424SOL    HW1 8171   5.982   0.341   4.394  0.9363 -0.0521  0.0926
 2424SOL    HW2 8172   5.991   0.502   4.370 -0.6028  0.0360  0.0307
 2425SOL     OW 8173   6.095   6.393   3.566 -0.1978 -0.4000  0.0481
 2425SOL    HW1 8174   6.037   6.316   3.541 -1.9302  1.3644 -1.8162
 2425SOL    HW2 8175   6.133   6.435   3.483 -1.1088  2.0335  0.7642
 2426SOL     OW 8176   1.013   5.201   5.731  0.0018 -0.1530 -0.4023
 2426SOL    HW1 8177   1.106   5.229   5.705  0.3036 -0.3797  0.4285
 2426SOL    HW2 8178   0.968   5.161   5.651  0.2214  0.9748 -1.1093
 2427SOL     OW 8179   5.369   5.452   0.666  0.0602 -0.5520 -0.4478
 2427SOL    HW1 8180   5.322   5.474   0.751  2.0992 -0.7822  0.8205
 2427SOL    HW2 8181   5.376   5.534   0.609  0.0466  0.0005  0.3345
 2428SOL     OW 8182   1.061   5.186   3.174 -0.7849  0.2573 -0.1868
 2428SOL    HW1 8183   1.103   5.178   3.264 -2.0945 -0.3407  0.4018
 2428SOL    HW2 8184   1.095   5.112   3.115 -3.0820 -2.0936  1.1976
 2429SOL     OW 8185   0.306   0.186   5.308  0.2825  0.0141 -0.3361
 2429SOL    HW1 8186   0.279   0.097   5.272  0.6238 -0.3689  0.3344
 2429SOL    HW2 8187   0.404   0.200   5.295  0.9654 -1.2434  2.6428
 2430SOL     OW 8188   5.807   2.978   2.229 -0.5483 -0.6667 -0.2660
 2430SOL    HW1 8189   5.707   2.970   2.228 -1.0733  3.4354 -0.5340
 2430SOL    HW2 8190   5.845   2.916   2.297 -3.2739 -2.0980  0.1059
 2431SOL     OW 8191   5.417   0.404   3.088  0.0631 -0.4595 -0.0935
 2431SOL    HW1 8192   5.507   0.415   3.047  0.0724 -1.8974 -0.4879
 2431SOL    HW2 8193   5.387   0.492   3.127  1.8180 -0.0798  0.4611
 2432SOL     OW 8194   4.280   0.795   3.552 -0.1033 -0.1194 -0.2208
 2432SOL    HW1 8195   4.186   0.790   3.587  0.5535 -1.7738  1.5056
 2432SOL    HW2 8196   4.287   0.741   3.468 -1.1590  1.9240 -1.7155
 2433SOL     OW 8197   2.245   6.536   2.479 -0.4004 -0.2761 -0.3883
 2433SOL    HW1 8198   2.166   6.569   2.428  0.1781 -0.3433 -1.3602
 2433SOL    HW2 8199   2.277   6.450   2.440 -0.3318 -0.6672  0.5083
 2434SOL     OW 8200   4.871   6.343   4.461 -0.1978 -0.0640 -0.3844
 2434SOL    HW1 8201   4.849   6.246   4.448  2.0267 -0.6649 -0.1967
 2434SOL    HW2 8202   4.845   6.370   4.553 -2.0385 -0.0878 -0.8690
 2435SOL     OW 8203   3.841   4.721   0.069  0.4775  0.1804  0.6185
 2435SOL    HW1 8204   3.834   4.627   0.102  1.4642  0.7620  2.5921
 2435SOL    HW2 8205   3.932   4.737   0.030  0.3056  0.3258  0.2679
 2436SOL     OW 8206   2.003   5.183   1.168 -0.5079 -0.0674  0.1520
 2436SOL    HW1 8207   1.999   5.084   1.176  0.6200 -0.1944 -0.6069
 2436SOL    HW2 8208   1.912   5.221   1.180 -0.8267 -1.1162  1.2788
 2437SOL     OW 8209   2.231   4.696   6.906 -0.0391 -0.1843 -0.1314
 2437SOL    HW1 8210   2.232   4.614   6.962 -1.7403  0.6380  1.2148
 2437SOL    HW2 8211   2.317   4.747   6.919 -0.6516  0.3575  2.4070
 2438SOL     OW 8212   2.726   3.126   5.319 -0.5127  0.6779 -0.3601
 2438SOL    HW1 8213   2.647   3.094   5.266  0.6439 -0.8255 -1.2597
 2438SOL    HW2 8214   2.786   3.180   5.259 -0.6168  1.4404  0.2071
 2439SOL     OW 8215   3.777   2.774   0.417  0.2837 -0.1758  0.6214
 2439SOL    HW1 8216   3.845   2.701   0.428 -0.5250 -1.2363 -0.9900
 2439SOL    HW2 8217   3.688   2.742   0.450 -0.5573 -0.7896 -2.0225
 2440SOL     OW 8218   5.775   0.658   4.770  0.0161 -0.0125  0.0804
 2440SOL    HW1 8219   5.706   0.617   4.829  0.7217 -0.4509  0.6202
 2440SOL    HW2 8220   5.849   0.593   4.754 -0.8606 -0.4683 -2.5696
 2441SOL     OW 8221   5.355   2.356   6.682 -0.1459  0.8879 -0.0984
 2441SOL    HW1 8222   5.312   2.290   6.621 -1.3052 -0.1752  1.7691
 2441SOL    HW2 8223   5.289   2.428   6.704 -0.2728  0.4378  1.0646
 2442SOL     OW 8224   5.673   6.058   4.104  0.0914  0.7888  0.4557
 2442SOL    HW1 8225   5.589   6.004   4.117 -0.6997  1.1797 -2.3419
 2442SOL    HW2 8226   5.752   5.997   4.099 -0.0508  0.3682  2.4958
 2443SOL     OW 8227   3.436   6.453   4.528 -0.1442 -0.4626  0.0273
 2443SOL    HW1 8228   3.351   6.505   4.535 -0.7839 -1.4684 -0.2043
 2443SOL    HW2 8229   3.502   6.489   4.594 -0.3353  1.0848 -0.5883
 2444SOL     OW 8230   3.197   3.375   4.905  0.2529  0.5486 -0.2776
 2444SOL    HW1 8231   3.266   3.340   4.842 -1.1650  2.9974 -3.4728
 2444SOL    HW2 8232   3.107   3.340   4.880 -0.2798  1.0471  0.8503
 2445SOL     OW 8233   0.066   0.884   0.331 -0.0479 -0.1879 -0.3789
 2445SOL    HW1 8234   0.004   0.893   0.409  0.3317  0.3666 -0.1335
 2445SOL    HW2 8235   0.014   0.858   0.250 -0.8544  1.7962 -0.5440
 2446SOL     OW 8236   0.119   3.978   5.825 -0.3978 -0.1439  0.0922
 2446SOL    HW1 8237   0.045   3.951   5.763 -2.0142  1.0194  1.4150
 2446SOL    HW2 8238   0.161   3.896   5.865 -1.0219 -0.8272 -0.6176
 2447SOL     OW 8239   4.401   1.697   1.593  0.6539  0.3089 -0.4791
 2447SOL    HW1 8240   4.384   1.678   1.497 -1.1430 -2.8663  0.3083
 2447SOL    HW2 8241   4.341   1.771   1.624 -1.0715 -0.7494 -1.1482
 2448SOL     OW 8242   1.432   6.971   6.144 -0.0333  0.2185  0.0464
 2448SOL    HW1 8243   1.448   7.020   6.229  0.2064  1.0244 -0.4547
 2448SOL    HW2 8244   1.477   7.018   6.068 -1.4219  0.3154 -0.7603
 2449SOL     OW 8245   0.381   4.451   0.011 -0.0850 -0.1039 -0.0235
 2449SOL    HW1 8246   0.473   4.415  -0.002 -0.2740 -1.1738  1.3324
 2449SOL    HW2 8247   0.314   4.377   0.005 -0.9818  0.7857 -1.8336
 2450SOL     OW 8248   3.605   0.123   5.058 -0.4398 -0.1022  0.0292
 2450SOL    HW1 8249   3.568   0.181   5.130 -0.2571  0.6640 -0.4834
 2450SOL    HW2 8250   3.542   0.122   4.980 -0.1724 -0.1405 -0.1870
 2451SOL     OW 8251   1.626   0.154   2.803  0.5912 -0.0303 -0.2283
 2451SOL    HW1 8252   1.700   0.220   2.794  0.3261  0.2814 -0.1444
 2451SOL    HW2 8253   1.561   0.166   2.729  0.2575  0.1696  0.0952
 2452SOL     OW 8254   2.899   1.295   3.264  0.9007 -0.5048 -0.3759
 2452SOL    HW1 8255   2.942   1.343   3.340  1.4735 -2.8119  0.8669
 2452SOL    HW2 8256   2.807   1.333   3.248  0.5125 -0.3301  1.9005
 2453SOL     OW 8257   5.219   3.987   1.447 -0.0417 -0.1327  0.5360
 2453SOL    HW1 8258   5.171   4.072   1.470 -2.5742 -1.2690 -0.1944
 2453SOL    HW2 8259   5.222   3.928   1.528 -1.5641 -0.7871  0.1447
 2454SOL     OW 8260   2.773   3.029   0.903  0.1360  0.1088  0.1067
 2454SOL    HW1 8261   2.728   3.082   0.974  0.3268  3.2338 -1.9220
 2454SOL    HW2 8262   2.843   2.971   0.944  1.0484  2.6325  2.4153
 2455SOL     OW 8263   4.828   0.587   1.480  0.2870 -0.6033  0.1507
 2455SOL    HW1 8264   4.896   0.660   1.482  0.2001 -0.5449  1.2591
 2455SOL    HW2 8265   4.813   0.559   1.385  1.9741 -0.7420 -0.1081
 2456SOL     OW 8266   0.676   0.058   6.724  0.0723 -0.1651 -0.5033
 2456SOL    HW1 8267   0.713   0.081   6.634  0.0695  0.7554 -0.2801
 2456SOL    HW2 8268   0.645  -0.037   6.725  0.9182 -0.4574 -1.1954
 2457SOL     OW 8269   1.868   0.144   0.096 -0.2981  0.1667 -0.3345
 2457SOL    HW1 8270   1.952   0.191   0.122 -0.6037  1.1937 -1.1556
 2457SOL    HW2 8271   1.882   0.045   0.103  1.3813  0.2627 -1.6686
 2458SOL     OW 8272   1.429   4.954   3.372 -0.5740 -0.1095 -1.0983
 2458SOL    HW1 8273   1.520   4.934   3.408 -0.3033  1.8327 -0.5814
 2458SOL    HW2 8274   1.420   4.917   3.279  0.3994 -1.1274 -0.7919
 2459SOL     OW 8275   3.260   0.978   0.642  0.3480  0.0112 -0.7413
 2459SOL    HW1 8276   3.341   0.956   0.696  0.5936  1.1433 -0.6179
 2459SOL    HW2 8277   3.180   0.981   0.702  0.3192 -0.4813 -0.7532
 2460SOL     OW 8278   1.484   6.695   0.933 -0.6275  0.6227 -0.7804
 2460SOL    HW1 8279   1.510   6.743   0.849 -0.3059  0.4954 -0.7543
 2460SOL    HW2 8280   1.467   6.762   1.006  1.3017  0.6665 -0.3152
 2461SOL     OW 8281   5.155   6.466   4.756  0.1398  0.1329 -0.4226
 2461SOL    HW1 8282   5.202   6.500   4.838  0.2307  1.7221 -1.0850
 2461SOL    HW2 8283   5.183   6.522   4.678  0.7335 -1.9117 -1.7258
 2462SOL     OW 8284   1.323   5.117   1.318  0.0405  0.1085  0.5659
 2462SOL    HW1 8285   1.286   5.075   1.236  1.9760 -0.0293 -0.3033
 2462SOL    HW2 8286   1.283   5.207   1.331  0.2905  0.4765 -1.0178
 2463SOL     OW 8287   1.267   2.528   4.735 -0.3896 -0.0415  0.1255
 2463SOL    HW1 8288   1.185   2.471   4.741  0.3127 -1.1054 -0.0965
 2463SOL    HW2 8289   1.333   2.484   4.674  1.0940 -0.1512  1.7263
 2464SOL     OW 8290   2.050   3.307   1.948  0.1826  0.0029  0.2475
 2464SOL    HW1 8291   2.106   3.383   1.979  0.6149 -0.3302  0.2947
 2464SOL    HW2 8292   2.081   3.278   1.857 -1.6369  1.5534 -0.9449
 2465SOL     OW 8293   6.170   4.335   1.435 -0.4851 -0.3513  0.3310
 2465SOL    HW1 8294   6.253   4.366   1.388 -0.2204  1.4456  1.9098
 2465SOL    HW2 8295   6.195   4.281   1.515 -0.7530  1.2241  1.5199
 2466SOL     OW 8296   3.222   0.183   1.001 -0.6724  0.2329  0.0012
 2466SOL    HW1 8297   3.233   0.084   0.990 -1.9686 -0.1903  1.9673
 2466SOL    HW2 8298   3.305   0.222   1.041 -0.4571 -0.2079 -0.0136
 2467SOL     OW 8299   6.084   1.334   6.410  0.4051 -0.0954  0.1681
 2467SOL    HW1 8300   6.057   1.260   6.348 -0.4486 -1.1028  1.6866
 2467SOL    HW2 8301   6.013   1.404   6.411  0.5191  0.0280 -0.1317
 2468SOL     OW 8302   5.656   5.959   2.666  0.5418  0.0361 -0.0678
 2468SOL    HW1 8303   5.658   5.860   2.680  1.0534  0.2383  1.4743
 2468SOL    HW2 8304   5.728   5.985   2.602 -0.1702 -0.6590 -1.2042
 2469SOL     OW 8305   3.045   5.258   4.568 -0.1592 -0.3679  0.3319
 2469SOL    HW1 8306   3.072   5.220   4.479 -0.8874 -0.6919  0.2428
 2469SOL    HW2 8307   3.084   5.203   4.641 -0.5963 -0.8378  0.2082
 2470SOL     OW 8308   2.981   3.933   6.880 -0.3296  0.0222  0.2986
 2470SOL    HW1 8309   2.899   3.990   6.872 -0.3659 -0.1595 -0.7049
 2470SOL    HW2 8310   3.030   3.932   6.793  0.4120 -0.3716  0.7116
 2471SOL     OW 8311   2.811   6.521   1.738 -0.1405 -0.2010 -0.4369
 2471SOL    HW1 8312   2.814   6.528   1.638  0.5320  0.8001 -0.3629
 2471SOL    HW2 8313   2.876   6.452   1.768  0.1801 -0.0010 -0.6599
 2472SOL     OW 8314   4.502   0.764   4.455 -0.3412 -0.4271  0.0381
 2472SOL    HW1 8315   4.562   0.841   4.474  0.0381 -0.7461  0.1532
 2472SOL    HW2 8316   4.522   0.690   4.520 -2.3707  0.2697  1.5705
 2473SOL     OW 8317   1.665   3.924   4.844 -0.2282  0.2329 -0.4872
 2473SOL    HW1 8318   1.636   3.921   4.939 -0.8526  0.5779 -0.6631
 2473SOL    HW2 8319   1.758   3.959   4.838 -0.1623  0.1438 -0.0024
 2474SOL     OW 8320   0.770   5.859   6.788  0.1040  0.2549 -0.4333
 2474SOL    HW1 8321   0.706   5.925   6.829 -0.3840 -0.7719  0.5277
 2474SOL    HW2 8322   0.800   5.795   6.858  0.0029 -0.9824 -1.4937
 2475SOL     OW 8323   3.609   1.952   1.923  0.5582  0.3835 -0.3483
 2475SOL    HW1 8324   3.633   2.043   1.956 -1.4191  0.5668  0.7156
 2475SOL    HW2 8325   3.536   1.959   1.855 -0.4466 -0.4498  0.6020
 2476SOL     OW 8326   0.960   3.801   4.046  0.1905 -0.0926 -0.4695
 2476SOL    HW1 8327   1.044   3.780   4.096  0.8823  0.4028 -1.3896
 2476SOL    HW2 8328   0.903   3.862   4.101  0.8950  0.3735 -0.2368
 2477SOL     OW 8329   1.066   6.840   2.775 -0.0447 -0.1658 -0.1621
 2477SOL    HW1 8330   1.000   6.850   2.849  0.6520 -1.2504  0.6390
 2477SOL    HW2 8331   1.050   6.754   2.727 -0.0844  0.2284 -0.8560
 2478SOL     OW 8332   3.962   4.805   0.966 -0.0848 -0.3692 -0.3047
 2478SOL    HW1 8333   4.042   4.851   0.927 -0.2584  1.5471  1.4049
 2478SOL    HW2 8334   3.896   4.786   0.894  1.5495 -1.2770 -1.6257
 2479SOL     OW 8335   0.398   3.777   1.422  0.5465  0.4333 -0.1592
 2479SOL    HW1 8336   0.489   3.787   1.463  0.1928 -2.8213  1.7623
 2479SOL    HW2 8337   0.335   3.842   1.464  0.9307 -0.6579  2.2909
 2480SOL     OW 8338   5.408   5.642   0.464 -0.2259  0.0739  0.2621
 2480SOL    HW1 8339   5.393   5.732   0.505 -2.2802  0.2195 -0.6942
 2480SOL    HW2 8340   5.447   5.653   0.372  0.7609 -0.0965  0.6455
 2481SOL     OW 8341   2.254   6.783   6.806  0.0533  0.4292  0.1283
 2481SOL    HW1 8342   2.191   6.800   6.882 -0.0710 -0.0537  0.1396
 2481SOL    HW2 8343   2.288   6.689   6.811 -0.7885  0.0390 -1.0149
 2482SOL     OW 8344   5.882   2.400   4.360 -0.5608 -0.3859  0.0018
 2482SOL    HW1 8345   5.979   2.423   4.351 -0.0610 -2.6336 -1.2061
 2482SOL    HW2 8346   5.846   2.372   4.271 -2.5890  1.1773  0.2595
 2483SOL     OW 8347   2.629   6.749   6.761 -0.1433 -0.0707 -0.6283
 2483SOL    HW1 8348   2.726   6.725   6.757 -0.6145 -2.1872 -0.5583
 2483SOL    HW2 8349   2.592   6.724   6.850 -0.9699 -0.1648 -0.9916
 2484SOL     OW 8350   3.236   1.586   1.302  0.0613 -0.0629  0.0329
 2484SOL    HW1 8351   3.282   1.500   1.281  0.6537  0.7242 -2.2048
 2484SOL    HW2 8352   3.157   1.597   1.242  0.6144  1.4009 -0.4757
 2485SOL     OW 8353   4.039   4.821   3.330  0.8133 -0.7089 -0.2236
 2485SOL    HW1 8354   4.034   4.809   3.231  0.7471  0.7080 -0.4179
 2485SOL    HW2 8355   4.131   4.850   3.356  0.6503 -0.4162  0.0429
 2486SOL     OW 8356   2.327   4.361   4.594 -0.5081  0.0385  0.1764
 2486SOL    HW1 8357   2.342   4.296   4.669 -0.1123  1.8084  1.6967
 2486SOL    HW2 8358   2.230   4.364   4.572 -0.4867 -1.3224 -0.1748
 2487SOL     OW 8359   4.032   5.842   0.892  0.3424 -0.3941 -0.0753
 2487SOL    HW1 8360   4.118   5.892   0.886 -1.2079  2.3726 -0.6882
 2487SOL    HW2 8361   4.019   5.809   0.985  1.8903 -0.5838  0.0978
 2488SOL     OW 8362   1.202   5.770   0.812  0.1806  0.1296  0.5158
 2488SOL    HW1 8363   1.286   5.730   0.850 -0.3048 -0.1909  1.2890
 2488SOL    HW2 8364   1.124   5.742   0.869 -0.1552  2.3305  1.2240
 2489SOL     OW 8365   2.147   3.898   3.893 -0.1946  0.0079  0.2186
 2489SOL    HW1 8366   2.069   3.929   3.949  0.0941  0.9018  0.1498
 2489SOL    HW2 8367   2.164   3.801   3.909 -0.6271  0.0665  1.0692
 2490SOL     OW 8368   6.512   6.008   1.523  0.5358 -0.1301 -0.0576
 2490SOL    HW1 8369   6.492   5.942   1.595 -1.8611  0.0419 -0.4993
 2490SOL    HW2 8370   6.521   6.099   1.563 -0.2558 -0.1184  0.1120
 2491SOL     OW 8371   1.270   3.782   2.203 -0.0789 -0.4268  0.3683
 2491SOL    HW1 8372   1.289   3.840   2.282  0.6568  1.4229 -1.0952
 2491SOL    HW2 8373   1.352   3.776   2.146 -1.3549  0.5803 -1.6687
 2492SOL     OW 8374   4.303   1.107   6.172 -0.1281  0.1170  0.0353
 2492SOL    HW1 8375   4.302   1.012   6.142  0.9290  0.4129 -1.0250
 2492SOL    HW2 8376   4.398   1.139   6.177 -0.4547  1.0120  0.7140
 2493SOL     OW 8377   5.861   1.985   4.380 -0.2113 -0.2739 -0.6555
 2493SOL    HW1 8378   5.922   1.907   4.364  0.3615  0.1930 -0.7867
 2493SOL    HW2 8379   5.828   1.983   4.474  0.8248  0.0312 -0.2741
 2494SOL     OW 8380   5.981   0.898   2.296  0.3792  0.2666 -0.1200
 2494SOL    HW1 8381   5.946   0.837   2.225  2.2604  1.5631 -2.3309
 2494SOL    HW2 8382   6.075   0.872   2.320  0.1987  0.5885  1.0062
 2495SOL     OW 8383   5.471   0.155   2.994 -0.0784 -0.1389 -0.2117
 2495SOL    HW1 8384   5.413   0.236   3.002 -1.6041 -1.1792 -0.2950
 2495SOL    HW2 8385   5.558   0.171   3.042 -0.8266  1.0984  0.7939
 2496SOL     OW 8386   0.166   4.675   0.134  0.4486  0.0948 -0.0343
 2496SOL    HW1 8387   0.236   4.629   0.080  1.8059 -0.1099  1.8057
 2496SOL    HW2 8388   0.079   4.672   0.085  1.2264 -1.5625 -1.4158
 2497SOL     OW 8389   0.177   1.790   5.507 -0.0166  0.1808 -0.3650
 2497SOL    HW1 8390   0.178   1.848   5.426  2.6413  0.5867 -0.1541
 2497SOL    HW2 8391   0.122   1.709   5.491  0.2332  0.3925 -2.4687
 2498SOL     OW 8392   2.312   2.321   1.386 -0.0201  0.0991  0.2415
 2498SOL    HW1 8393   2.380   2.340   1.457 -0.0646 -0.3268  0.4041
 2498SOL    HW2 8394   2.341   2.244   1.331  1.2446  1.9624 -1.8595
 2499SOL     OW 8395   4.938   1.206   4.817  0.3265  0.2723  0.1287
 2499SOL    HW1 8396   5.036   1.189   4.820  0.2867 -0.0722 -0.3464
 2499SOL    HW2 8397   4.900   1.201   4.910  0.9582  1.7026  0.4893
 2500SOL     OW 8398   5.200   3.995   5.001 -0.3611  0.3463 -0.1961
 2500SOL    HW1 8399   5.281   3.995   4.943 -1.5860  0.4487 -1.9965
 2500SOL    HW2 8400   5.166   3.901   5.011 -0.3507  0.3698  0.0748
 2501SOL     OW 8401   0.228   5.382   1.439 -0.2015  0.1254  0.2567
 2501SOL    HW1 8402   0.217   5.283   1.451 -0.1599  0.1010  0.0832
 2501SOL    HW2 8403   0.227   5.405   1.342 -2.2920  0.5274  0.3267
 2502SOL     OW 8404   3.447   5.781   2.965 -0.0638 -0.1360  0.3261
 2502SOL    HW1 8405   3.354   5.780   2.999  0.6300 -0.2769  2.3455
 2502SOL    HW2 8406   3.446   5.793   2.865 -2.1355  1.7458  0.5016
 2503SOL     OW 8407   3.936   5.609   3.952 -0.2387  0.4152  0.6120
 2503SOL    HW1 8408   3.906   5.704   3.943 -2.1120 -0.2045 -0.2868
 2503SOL    HW2 8409   3.971   5.593   4.045  0.6106  2.0847  0.6067
 2504SOL     OW 8410   1.572   6.749   6.509 -0.0812 -0.2213  0.0434
 2504SOL    HW1 8411   1.495   6.686   6.509  0.9970 -1.5922 -0.1927
 2504SOL    HW2 8412   1.639   6.719   6.441 -0.1084  1.9342 -1.0082
 2505SOL     OW 8413   3.687   6.948   3.824 -0.5427 -0.1860  0.5394
 2505SOL    HW1 8414   3.709   6.850   3.821  0.3897  0.0186  0.4601
 2505SOL    HW2 8415   3.742   6.992   3.894  0.4134  0.6185 -0.6795
 2506SOL     OW 8416   1.395   3.372   5.417  0.4988  0.0613  0.5076
 2506SOL    HW1 8417   1.351   3.432   5.351  0.7554  0.6238  0.8379
 2506SOL    HW2 8418   1.336   3.359   5.497  1.0695  1.1578  1.1419
 2507SOL     OW 8419   4.411   4.928   6.813 -0.7869  0.4203  0.0005
 2507SOL    HW1 8420   4.452   5.015   6.842 -1.8252  0.3891  1.7327
 2507SOL    HW2 8421   4.311   4.934   6.823 -0.9223 -0.7663 -0.4782
 2508SOL     OW 8422   1.958   2.573   1.876 -0.3664  0.1448 -0.3859
 2508SOL    HW1 8423   1.901   2.492   1.881  0.1371 -0.2841 -1.3167
 2508SOL    HW2 8424   1.900   2.655   1.871 -0.8724 -0.1330  0.6860
 2509SOL     OW 8425   6.135   1.140   2.364  0.0438  0.1043  0.0790
 2509SOL    HW1 8426   6.096   1.125   2.273  0.8188 -0.8383 -0.1118
 2509SOL    HW2 8427   6.176   1.056   2.397  2.9559  1.2927 -0.2190
 2510SOL     OW 8428   4.356   2.088   0.590 -0.7077 -0.2772 -0.2002
 2510SOL    HW1 8429   4.421   2.054   0.658 -1.1501 -0.0784  0.3349
 2510SOL    HW2 8430   4.405   2.115   0.507  0.2733  2.2724  1.0880
 2511SOL     OW 8431   7.007   2.706   4.724  0.0279 -0.0635 -0.7255
 2511SOL    HW1 8432   6.926   2.647   4.722 -0.8449  1.0771 -0.1186
 2511SOL    HW2 8433   7.042   2.719   4.631 -0.9660  0.0631 -1.0911
 2512SOL     OW 8434   5.797   0.077   5.827 -0.1744  0.1367 -0.4396
 2512SOL    HW1 8435   5.773   0.130   5.908  0.9084  0.8607 -0.5662
 2512SOL    HW2 8436   5.720   0.020   5.800 -0.0887 -1.2163  1.9294
 2513SOL     OW 8437   1.322   2.964   5.026  0.3680  0.1877 -0.2963
 2513SOL    HW1 8438   1.329   3.022   4.945  2.1228 -1.2533 -1.2771
 2513SOL    HW2 8439   1.276   2.879   5.002 -0.4167  0.3477  0.6119
 2514SOL     OW 8440   6.819   3.245   3.864 -0.2372 -0.0638 -0.4113
 2514SOL    HW1 8441   6.894   3.283   3.918 -0.6743 -0.1548  0.2682
 2514SOL    HW2 8442   6.741   3.225   3.924 -0.2563 -1.4179 -0.8610
 2515SOL     OW 8443   2.471   5.712   3.066  0.7242 -0.2723 -0.1971
 2515SOL    HW1 8444   2.522   5.795   3.089 -0.4319  0.0016  1.5180
 2515SOL    HW2 8445   2.501   5.637   3.126 -0.1340 -0.3782  0.1144
 2516SOL     OW 8446   6.266   5.476   3.278  0.9090  0.6467 -0.3885
 2516SOL    HW1 8447   6.342   5.514   3.226  2.6178  1.6392  2.5991
 2516SOL    HW2 8448   6.199   5.547   3.297  2.1004  1.2804  1.7422
 2517SOL     OW 8449   1.174   6.222   0.978 -0.1352  0.0090  0.1758
 2517SOL    HW1 8450   1.270   6.196   0.989  0.3762  1.5771 -0.3822
 2517SOL    HW2 8451   1.133   6.166   0.907  0.5819 -0.1433 -0.1324
 2518SOL     OW 8452   0.160   1.874   0.849  0.2569  0.7759  0.0929
 2518SOL    HW1 8453   0.155   1.858   0.751  0.1364  1.7641 -0.0738
 2518SOL    HW2 8454   0.077   1.921   0.880  0.6382  1.1704  0.5290
 2519SOL     OW 8455   4.305   4.624   3.953 -0.3091 -0.0739  0.3111
 2519SOL    HW1 8456   4.220   4.673   3.936  0.5770  1.7258  0.8459
 2519SOL    HW2 8457   4.335   4.640   4.047  0.8362 -0.3026  0.0052
 2520SOL     OW 8458   6.834   3.359   6.891 -0.6731 -0.3317 -0.1771
 2520SOL    HW1 8459   6.876   3.272   6.917  0.9574  0.5737  0.3552
 2520SOL    HW2 8460   6.797   3.351   6.799 -0.7113 -1.6352 -0.0771
 2521SOL     OW 8461   3.406   1.771   0.252  0.2425 -0.0435  0.8568
 2521SOL    HW1 8462   3.488   1.753   0.306 -0.1210 -0.5482  1.2502
 2521SOL    HW2 8463   3.329   1.790   0.314  0.5811  2.9515  0.5149
 2522SOL     OW 8464   1.488   1.844   6.317  0.0068 -0.1041  0.6799
 2522SOL    HW1 8465   1.531   1.933   6.334 -0.1281 -0.1571  1.3335
 2522SOL    HW2 8466   1.461   1.803   6.404 -0.0181 -0.7454  0.3763
 2523SOL     OW 8467   4.383   1.957   1.309  0.0492  0.4620  0.1639
 2523SOL    HW1 8468   4.451   2.020   1.275  1.3323 -0.1768  1.4265
 2523SOL    HW2 8469   4.330   2.001   1.382  0.1434  0.4667  0.2298
 2524SOL     OW 8470   2.216   4.970   4.267  0.2572  0.0434 -0.0170
 2524SOL    HW1 8471   2.307   5.005   4.287 -0.3150  0.4676  2.0016
 2524SOL    HW2 8472   2.174   5.026   4.195  1.0591  0.6912  0.0059
 2525SOL     OW 8473   6.382   3.712   6.647 -0.0844 -0.6499  0.1410
 2525SOL    HW1 8474   6.291   3.673   6.657 -0.4157 -0.2604 -1.1085
 2525SOL    HW2 8475   6.376   3.812   6.650  0.3655 -0.6290  0.4974
 2526SOL     OW 8476   0.296   3.252   5.410  0.5803  0.2495 -0.1633
 2526SOL    HW1 8477   0.273   3.163   5.449 -0.2590  0.2646 -0.5848
 2526SOL    HW2 8478   0.214   3.291   5.367  0.4581  2.0535  1.5953
 2527SOL     OW 8479   5.339   6.629   4.895  0.2300  0.7533 -0.4878
 2527SOL    HW1 8480   5.410   6.633   4.824  0.1030  2.9646 -0.5807
 2527SOL    HW2 8481   5.299   6.720   4.906 -2.6192 -0.4285 -0.4126
 2528SOL     OW 8482   6.146   4.009   1.108  0.6007 -0.0799  0.3850
 2528SOL    HW1 8483   6.132   3.992   1.206  0.8337 -0.6861  0.3204
 2528SOL    HW2 8484   6.244   4.009   1.088  0.5404 -0.3714  0.0826
 2529SOL     OW 8485   5.218   6.287   5.103 -0.3070  0.4786  0.0981
 2529SOL    HW1 8486   5.138   6.281   5.043 -0.3897  0.0321  0.2451
 2529SOL    HW2 8487   5.295   6.241   5.060 -0.2314  0.5843  0.1202
 2530SOL     OW 8488   2.012   6.001   5.441  0.2310 -0.0837 -0.4543
 2530SOL    HW1 8489   2.023   5.978   5.537  0.3086 -0.1318 -0.4756
 2530SOL    HW2 8490   2.090   5.968   5.389  0.7244  0.8836 -0.3652
 2531SOL     OW 8491   6.403   3.988   5.897 -0.6857 -0.1533  0.4454
 2531SOL    HW1 8492   6.470   3.973   5.970 -0.3529  2.1325  0.6839
 2531SOL    HW2 8493   6.347   3.906   5.887  0.6645 -1.3188  1.7750
 2532SOL     OW 8494   1.371   5.319   1.701 -0.0544 -0.0797 -0.7180
 2532SOL    HW1 8495   1.378   5.307   1.800  1.1403 -0.3486 -0.8173
 2532SOL    HW2 8496   1.338   5.234   1.659  0.8679 -0.4813 -0.6706
 2533SOL     OW 8497   4.316   6.314   4.869 -0.0872  0.0645  0.4673
 2533SOL    HW1 8498   4.260   6.337   4.789 -2.3229 -2.3889  1.1825
 2533SOL    HW2 8499   4.408   6.290   4.839 -0.3091  0.9971 -1.1266
 2534SOL     OW 8500   5.267   6.621   0.527 -0.0413  0.2615  0.7931
 2534SOL    HW1 8501   5.359   6.617   0.487 -0.4556 -0.3251 -0.1264
 2534SOL    HW2 8502   5.203   6.656   0.460 -1.1127 -2.5412  0.2078
 2535SOL     OW 8503   2.676   1.929   5.898 -0.1107  0.3946 -0.0274
 2535SOL    HW1 8504   2.674   2.028   5.909  0.2307  0.2564  1.5801
 2535SOL    HW2 8505   2.600   1.889   5.949  0.5164 -0.2415  0.4198
 2536SOL     OW 8506   6.580   1.767   1.890 -0.2635 -0.5589 -0.3873
 2536SOL    HW1 8507   6.592   1.671   1.914 -1.1291 -0.7293 -0.6290
 2536SOL    HW2 8508   6.524   1.775   1.808 -1.6641  0.1998  0.5892
 2537SOL     OW 8509   4.019   5.791   0.353  0.0698 -0.6817 -0.4957
 2537SOL    HW1 8510   3.964   5.732   0.413  1.5557 -0.8985  0.7241
 2537SOL    HW2 8511   4.054   5.868   0.406  1.7359 -1.0838 -0.9725
 2538SOL     OW 8512   2.374   4.433   3.373 -0.4354 -0.0475 -0.7498
 2538SOL    HW1 8513   2.317   4.503   3.416 -0.1384 -0.2765  0.0406
 2538SOL    HW2 8514   2.467   4.467   3.361 -0.2832 -0.3059 -0.3400
 2539SOL     OW 8515   4.146   6.398   6.116 -0.1466  0.1718  0.0065
 2539SOL    HW1 8516   4.071   6.332   6.120 -0.6408  0.5543 -1.8219
 2539SOL    HW2 8517   4.153   6.433   6.023  1.3429  1.2809  0.5123
 2540SOL     OW 8518   4.633   2.430   2.190  0.3039 -0.5463  0.4963
 2540SOL    HW1 8519   4.727   2.400   2.207  0.5556  0.6853  1.4840
 2540SOL    HW2 8520   4.634   2.499   2.117 -0.0599 -1.6672 -0.6052
 2541SOL     OW 8521   2.384   0.828   5.404  0.2961  0.2008 -0.0665
 2541SOL    HW1 8522   2.362   0.924   5.424  0.2578 -0.1501  1.7798
 2541SOL    HW2 8523   2.301   0.781   5.374  0.1144  0.5387 -0.1042
 2542SOL     OW 8524   5.966   3.029   5.130  0.2149  0.2070 -0.0084
 2542SOL    HW1 8525   5.952   3.059   5.035 -3.0698 -1.3266 -0.1293
 2542SOL    HW2 8526   5.942   3.103   5.192 -0.2413  0.3744 -0.3754
 2543SOL     OW 8527   3.095   0.460   2.768 -0.1459 -0.0125 -0.2094
 2543SOL    HW1 8528   2.997   0.443   2.774 -0.3096  0.0067 -2.1776
 2543SOL    HW2 8529   3.128   0.433   2.678  1.8880 -1.0840  0.7793
 2544SOL     OW 8530   0.773   5.446   1.257  0.0908 -0.4666 -0.0874
 2544SOL    HW1 8531   0.701   5.459   1.325  0.1836  0.1488 -0.0940
 2544SOL    HW2 8532   0.812   5.535   1.233  3.0511 -0.9269  2.3331
 2545SOL     OW 8533   1.544   0.880   0.451 -0.4690  0.4710 -0.6901
 2545SOL    HW1 8534   1.474   0.836   0.508 -1.5385  2.3527 -0.4960
 2545SOL    HW2 8535   1.628   0.890   0.504 -0.8527  0.5035 -0.0795
 2546SOL     OW 8536   4.041   4.235   6.617 -0.2045 -0.3528  0.2068
 2546SOL    HW1 8537   4.034   4.147   6.570 -0.9217 -0.9436  1.3810
 2546SOL    HW2 8538   4.119   4.233   6.679  1.8988  1.0720 -2.1907
 2547SOL     OW 8539   5.297   4.662   0.775  0.2206 -0.5198  0.3544
 2547SOL    HW1 8540   5.326   4.727   0.845  1.2960 -1.3818  0.7368
 2547SOL    HW2 8541   5.205   4.628   0.797 -0.1891  0.5285  0.3643
 2548SOL     OW 8542   3.462   1.531   3.208  0.4792 -0.1695 -0.2055
 2548SOL    HW1 8543   3.447   1.627   3.185  1.3064 -0.3310 -1.5336
 2548SOL    HW2 8544   3.440   1.515   3.304 -0.4781  1.1590 -0.1808
 2549SOL     OW 8545   1.641   1.485   2.210  0.1073 -0.0912  0.2550
 2549SOL    HW1 8546   1.590   1.500   2.295 -2.1982  0.7544 -1.1944
 2549SOL    HW2 8547   1.725   1.539   2.212 -1.0132  1.7079  1.0986
 2550SOL     OW 8548   5.285   0.304   0.547 -0.4647 -0.2131  0.1129
 2550SOL    HW1 8549   5.255   0.390   0.506  1.0803  0.0142 -0.5928
 2550SOL    HW2 8550   5.348   0.323   0.623 -1.4269 -0.6971  1.0601
 2551SOL     OW 8551   3.174   6.186   1.095  0.0875 -0.2171  0.0857
 2551SOL    HW1 8552   3.100   6.201   1.031 -0.6114  0.4876  1.0345
 2551SOL    HW2 8553   3.174   6.258   1.164  1.6076 -0.2520  0.1530
 2552SOL     OW 8554   2.214   5.582   5.741  0.3233 -0.4441  0.2235
 2552SOL    HW1 8555   2.267   5.667   5.743  1.5104 -1.1850  0.4737
 2552SOL    HW2 8556   2.182   5.565   5.648  0.0168  0.2974  0.1810
 2553SOL     OW 8557   3.049   1.261   5.870  0.1907 -0.0683 -0.1045
 2553SOL    HW1 8558   3.088   1.171   5.849  0.1841 -0.2659  0.6792
 2553SOL    HW2 8559   3.119   1.331   5.857 -0.1490 -0.0317 -1.9067
 2554SOL     OW 8560   1.742   4.879   6.196  0.0436 -0.4127  0.4213
 2554SOL    HW1 8561   1.651   4.855   6.161  0.4991 -1.0621 -0.3595
 2554SOL    HW2 8562   1.772   4.811   6.262  0.2121 -0.5320  0.2233
 2555SOL     OW 8563   6.573   0.519   6.396  0.4631 -0.1539 -0.5008
 2555SOL    HW1 8564   6.495   0.473   6.354  0.7932 -0.9457 -0.2546
 2555SOL    HW2 8565   6.651   0.517   6.334  1.0833 -1.7074  0.2898
 2556SOL     OW 8566   3.576   6.314   1.181  0.6492  0.3895  0.6837
 2556SOL    HW1 8567   3.670   6.323   1.150  0.6228 -0.9869  0.1075
 2556SOL    HW2 8568   3.514   6.317   1.102  0.1586  1.6878  1.0927
 2557SOL     OW 8569   2.568   1.180   5.761 -0.5863  0.2531 -0.1564
 2557SOL    HW1 8570   2.578   1.277   5.740 -0.5881 -0.0092 -1.5074
 2557SOL    HW2 8571   2.607   1.161   5.851  1.6110  1.0950 -0.8626
 2558SOL     OW 8572   4.491   3.675   5.883 -0.1170 -0.0286 -0.1244
 2558SOL    HW1 8573   4.564   3.674   5.814 -0.6052 -0.2671 -0.6481
 2558SOL    HW2 8574   4.532   3.669   5.974  0.5885  1.1401 -0.3347
 2559SOL     OW 8575   6.204   2.872   4.284 -1.0358 -0.1854 -0.1784
 2559SOL    HW1 8576   6.120   2.901   4.238 -0.4333  0.8012 -0.6920
 2559SOL    HW2 8577   6.271   2.841   4.216 -0.5506  0.1760  0.1255
 2560SOL     OW 8578   5.290   3.103   4.714 -0.2014  0.2271 -0.1243
 2560SOL    HW1 8579   5.297   3.026   4.652  1.1933 -0.2723  0.6210
 2560SOL    HW2 8580   5.306   3.073   4.808  0.5731  1.4480  0.1625
 2561SOL     OW 8581   3.670   0.907   2.984  0.1521  0.1514  0.0717
 2561SOL    HW1 8582   3.711   0.822   2.953  0.5400 -0.1703  1.4034
 2561SOL    HW2 8583   3.619   0.949   2.908  2.4783  0.3224 -1.4881
 2562SOL     OW 8584   3.121   6.227   3.765  0.0094 -0.2880 -0.1299
 2562SOL    HW1 8585   3.220   6.224   3.750 -0.0120 -0.5799 -0.2101
 2562SOL    HW2 8586   3.101   6.196   3.858  0.2933  3.1557  1.2194
 2563SOL     OW 8587   3.046   1.391   6.777  0.3174  0.2187  0.1908
 2563SOL    HW1 8588   3.032   1.339   6.861  1.6101  1.6076  1.3237
 2563SOL    HW2 8589   3.074   1.328   6.703 -0.8309 -1.0154  0.7668
 2564SOL     OW 8590   1.404   1.411   6.133  0.0516  0.2814  0.3535
 2564SOL    HW1 8591   1.350   1.392   6.215  1.3633 -1.5978  0.8437
 2564SOL    HW2 8592   1.359   1.371   6.053 -0.1317  0.2099  0.4929
 2565SOL     OW 8593   0.742   1.151   1.141  0.3506  0.0664 -0.0409
 2565SOL    HW1 8594   0.786   1.169   1.053  0.3581  0.4321  0.0360
 2565SOL    HW2 8595   0.670   1.218   1.157 -0.4008 -0.6670 -0.2744
 2566SOL     OW 8596   3.854   5.421   6.131  0.5478  0.2300 -0.0652
 2566SOL    HW1 8597   3.897   5.348   6.078  1.4213 -0.4731  1.5315
 2566SOL    HW2 8598   3.820   5.492   6.069  0.5412 -1.0588 -1.5964
 2567SOL     OW 8599   1.852   0.780   4.081  0.1079  0.4197  0.0544
 2567SOL    HW1 8600   1.920   0.765   4.153 -0.5265 -1.0033  0.4091
 2567SOL    HW2 8601   1.898   0.796   3.994  0.9239 -0.8708  0.2209
 2568SOL     OW 8602   3.335   6.481   0.367 -0.3798 -0.6762 -1.5080
 2568SOL    HW1 8603   3.389   6.490   0.284  0.9927  2.7048 -0.4051
 2568SOL    HW2 8604   3.396   6.477   0.446 -1.6587  1.5299 -0.3275
 2569SOL     OW 8605   3.270   0.836   1.511  0.4332  0.5988 -0.4165
 2569SOL    HW1 8606   3.357   0.868   1.475  0.1880  0.6214 -1.0088
 2569SOL    HW2 8607   3.197   0.855   1.444 -0.2055  1.5712  0.5232
 2570SOL     OW 8608   5.505   6.836   6.685 -0.0899  0.5966  0.5111
 2570SOL    HW1 8609   5.513   6.898   6.763 -0.1799  0.1605  0.8674
 2570SOL    HW2 8610   5.581   6.770   6.687 -1.2235 -0.7188  1.3886
 2571SOL     OW 8611   3.489   3.329   4.498  0.5179 -0.0972 -1.0096
 2571SOL    HW1 8612   3.465   3.287   4.586  2.1287  1.5341  0.2846
 2571SOL    HW2 8613   3.543   3.264   4.444  0.6247 -0.6678 -0.2368
 2572SOL     OW 8614   3.351   5.581   0.878  0.5184 -0.2115  0.5455
 2572SOL    HW1 8615   3.329   5.490   0.843  1.2590 -1.1229  2.3260
 2572SOL    HW2 8616   3.271   5.618   0.924 -0.1496  0.5768 -1.1623
 2573SOL     OW 8617   0.022   2.637   4.394 -0.1450 -0.2122  0.1848
 2573SOL    HW1 8618   0.102   2.579   4.409  0.6947  1.0318  0.6331
 2573SOL    HW2 8619   0.016   2.661   4.297 -0.9664 -1.6722 -0.1606
 2574SOL     OW 8620   3.620   2.841   6.970 -0.4294 -0.1433  0.1028
 2574SOL    HW1 8621   3.628   2.883   6.880  1.7271 -0.6916 -0.0079
 2574SOL    HW2 8622   3.523   2.833   6.994 -1.0076  1.2744 -1.5408
 2575SOL     OW 8623   5.543   4.363   2.227  0.1854  0.7691 -0.1956
 2575SOL    HW1 8624   5.515   4.439   2.286 -0.8152  0.2909 -0.0272
 2575SOL    HW2 8625   5.578   4.289   2.283 -0.8707  0.2701 -0.1766
 2576SOL     OW 8626   3.772   6.368   5.352 -0.0777 -0.6972 -0.2765
 2576SOL    HW1 8627   3.748   6.337   5.260  1.2460 -0.6761 -0.6512
 2576SOL    HW2 8628   3.870   6.359   5.365 -0.4606 -2.5834  1.8495
 2577SOL     OW 8629   5.143   0.652   2.670 -0.4918  0.3122 -0.1385
 2577SOL    HW1 8630   5.057   0.689   2.705 -0.1451 -0.4219  1.6067
 2577SOL    HW2 8631   5.154   0.558   2.703  0.8103  0.2739 -0.6456
 2578SOL     OW 8632   5.871   1.491   5.542 -0.2316  0.3030  0.0571
 2578SOL    HW1 8633   5.876   1.420   5.612  0.6424  0.7294  0.4399
 2578SOL    HW2 8634   5.917   1.574   5.574 -3.1839  1.8767  0.5354
 2579SOL     OW 8635   3.489   0.900   5.003  0.5416 -0.1086 -0.1982
 2579SOL    HW1 8636   3.562   0.968   4.992  0.0083  0.1705 -2.6697
 2579SOL    HW2 8637   3.403   0.939   4.970  0.2506 -1.9911 -1.8804
 2580SOL     OW 8638   1.999   2.140   5.420  0.5123  0.4837  0.0308
 2580SOL    HW1 8639   1.961   2.210   5.481  1.2612  0.4165  0.5973
 2580SOL    HW2 8640   2.032   2.183   5.336 -0.0244  0.6531 -0.0983
 2581SOL     OW 8641   6.802   3.101   1.987  0.0735 -0.0794 -0.5767
 2581SOL    HW1 8642   6.782   3.013   2.032 -0.7491  1.3030  1.9413
 2581SOL    HW2 8643   6.717   3.140   1.951 -0.3273  1.4065  1.7620
 2582SOL     OW 8644   0.140   5.240   2.862  0.1639  0.1697  0.0090
 2582SOL    HW1 8645   0.137   5.267   2.766  1.9849  3.0144  0.6411
 2582SOL    HW2 8646   0.210   5.169   2.874  1.3881  1.2583 -0.4898
 2583SOL     OW 8647   1.048   1.099   1.764 -0.4156 -0.1927  0.4306
 2583SOL    HW1 8648   1.084   1.103   1.857 -1.1398  1.1849  0.6828
 2583SOL    HW2 8649   0.948   1.101   1.767 -0.4517 -0.3998 -0.3695
 2584SOL     OW 8650   2.981   5.431   6.345 -0.4364  0.6939 -0.4409
 2584SOL    HW1 8651   2.991   5.457   6.249 -1.0335 -0.7606 -0.9258
 2584SOL    HW2 8652   2.886   5.403   6.361  0.0797 -0.8165  0.1090
 2585SOL     OW 8653   3.405   1.304   0.067 -0.1438 -0.1112  0.4061
 2585SOL    HW1 8654   3.473   1.280  -0.003  2.0832  0.5831  2.2199
 2585SOL    HW2 8655   3.372   1.397   0.051 -0.3476 -0.2808 -0.2089
 2586SOL     OW 8656   5.668   1.790   5.324 -0.2572 -0.7850 -0.6258
 2586SOL    HW1 8657   5.571   1.814   5.316 -0.3289 -0.4879  0.8839
 2586SOL    HW2 8658   5.677   1.691   5.338 -0.5023 -0.5564  1.3366
 2587SOL     OW 8659   1.040   0.536   6.444 -0.3203  0.1513  0.1096
 2587SOL    HW1 8660   0.946   0.561   6.464 -0.7835  2.9504 -4.2542
 2587SOL    HW2 8661   1.102   0.600   6.489 -0.5668 -0.2913  1.1191
 2588SOL     OW 8662   5.853   1.034   0.443  0.3228 -0.1394  0.1156
 2588SOL    HW1 8663   5.948   1.060   0.462  0.6919 -1.9674  1.0039
 2588SOL    HW2 8664   5.840   0.937   0.464 -1.1167 -0.5814 -2.4269
 2589SOL     OW 8665   2.902   0.210   3.899 -0.1646 -0.3132 -0.0691
 2589SOL    HW1 8666   2.803   0.208   3.891 -0.0554 -1.2073 -1.6621
 2589SOL    HW2 8667   2.938   0.290   3.851 -0.0246 -0.9800 -1.1041
 2590SOL     OW 8668   5.185   6.630   2.227  0.2671 -0.2452  0.0906
 2590SOL    HW1 8669   5.214   6.579   2.146  0.5667  0.5971 -0.3433
 2590SOL    HW2 8670   5.108   6.583   2.270 -0.8026  0.0322 -1.4685
 2591SOL     OW 8671   5.349   6.347   2.185 -0.2997  0.7381 -0.1659
 2591SOL    HW1 8672   5.334   6.405   2.105  2.2201  0.9437 -0.5674
 2591SOL    HW2 8673   5.261   6.325   2.227 -1.4570  3.2606 -1.0923
 2592SOL     OW 8674   3.344   5.293   0.742  0.1892 -0.4532 -0.4236
 2592SOL    HW1 8675   3.418   5.272   0.806  0.8321 -0.5374 -1.1723
 2592SOL    HW2 8676   3.329   5.215   0.682 -0.1461 -0.2326 -0.6289
 2593SOL     OW 8677   5.936   6.943   1.846 -0.2402  0.3225 -0.2451
 2593SOL    HW1 8678   6.030   6.924   1.817  0.2193  1.8550  0.1310
 2593SOL    HW2 8679   5.883   6.974   1.767 -0.2436  0.0970 -0.3306
 2594SOL     OW 8680   6.349   5.363   6.829 -0.7278 -0.6209 -0.0563
 2594SOL    HW1 8681   6.423   5.316   6.877 -0.1830  0.1790 -0.0873
 2594SOL    HW2 8682   6.262   5.339   6.871 -0.5261 -2.0733 -0.4238
 2595SOL     OW 8683   0.247   2.273   6.456  0.7671  0.0852 -0.1439
 2595SOL    HW1 8684   0.226   2.243   6.363  1.0093  0.9373 -0.4840
 2595SOL    HW2 8685   0.221   2.202   6.521  0.3456 -0.4065 -0.8428
 2596SOL     OW 8686   3.663   2.470   1.699  0.2630  0.3595 -0.2241
 2596SOL    HW1 8687   3.648   2.552   1.754 -0.2139  0.4263 -0.4491
 2596SOL    HW2 8688   3.667   2.390   1.759  2.1369  0.6834  0.1449
 2597SOL     OW 8689   0.894   3.360   0.005  0.0563 -0.5070 -0.2606
 2597SOL    HW1 8690   0.806   3.341   0.049  1.0138 -1.8574  1.1590
 2597SOL    HW2 8691   0.954   3.281   0.015  1.2348  0.1578 -1.7549
 2598SOL     OW 8692   3.732   1.062   3.866  0.0049  0.4559 -0.2656
 2598SOL    HW1 8693   3.790   1.121   3.922 -0.7975 -0.2247  1.3627
 2598SOL    HW2 8694   3.699   0.986   3.922 -0.0680 -0.8088 -1.9492
 2599SOL     OW 8695   4.728   6.042   0.710  0.0079 -0.1313 -0.3564
 2599SOL    HW1 8696   4.802   6.032   0.643 -0.5292 -2.3121 -0.7097
 2599SOL    HW2 8697   4.650   5.986   0.682 -0.5490 -0.4633  1.6749
 2600SOL     OW 8698   6.426   4.509   3.982  0.2861 -0.5838  0.9944
 2600SOL    HW1 8699   6.423   4.462   4.071  1.7409  0.0010  1.3783
 2600SOL    HW2 8700   6.338   4.553   3.965 -0.3847 -1.6398  1.6225
 2601SOL     OW 8701   5.107   6.678   0.269 -0.0491 -0.0840  0.3172
 2601SOL    HW1 8702   5.114   6.580   0.253 -0.2267  0.1741 -1.6441
 2601SOL    HW2 8703   5.018   6.711   0.238  1.0667  1.1157 -1.8672
 2602SOL     OW 8704   0.103   2.219   4.135  0.5255  0.0366  0.0936
 2602SOL    HW1 8705   0.078   2.143   4.076 -1.9130 -0.3022  1.4533
 2602SOL    HW2 8706   0.142   2.184   4.221  1.6125  0.4291 -0.2258
 2603SOL     OW 8707   2.878   1.444   2.224 -0.3733  0.5873  0.3062
 2603SOL    HW1 8708   2.874   1.368   2.159  1.6027 -0.4442  1.2859
 2603SOL    HW2 8709   2.836   1.415   2.311 -1.0593  1.2109  0.1967
 2604SOL     OW 8710   6.184   1.466   3.021  0.7022  0.0245 -0.7206
 2604SOL    HW1 8711   6.105   1.497   3.074 -0.7215 -0.0420 -2.6735
 2604SOL    HW2 8712   6.242   1.408   3.078 -0.5256  0.2826  0.8552
 2605SOL     OW 8713   3.037   0.842   4.038 -0.5165  0.1404 -0.0900
 2605SOL    HW1 8714   2.978   0.882   4.107  2.1069  0.8828  1.8827
 2605SOL    HW2 8715   3.042   0.743   4.051  1.0139  0.4108  1.7815
 2606SOL     OW 8716   4.515   5.294   1.300 -0.0750  0.0656  0.8702
 2606SOL    HW1 8717   4.425   5.253   1.312 -1.0532  0.8308 -2.6891
 2606SOL    HW2 8718   4.524   5.373   1.362 -1.6741 -0.2474  1.5490
 2607SOL     OW 8719   0.563   1.255   6.049 -0.0005 -0.5965 -0.4639
 2607SOL    HW1 8720   0.583   1.332   5.989  0.1094 -0.4794 -0.2795
 2607SOL    HW2 8721   0.648   1.209   6.073  0.2027  0.5331  1.1689
 2608SOL     OW 8722   4.892   5.408   2.327  0.8370 -0.0563 -0.2654
 2608SOL    HW1 8723   4.808   5.362   2.357  1.9124 -1.6559  0.4699
 2608SOL    HW2 8724   4.903   5.494   2.377 -0.5395  0.3766 -0.6631
 2609SOL     OW 8725   6.345   4.801   0.172  0.4779  0.4909 -0.1266
 2609SOL    HW1 8726   6.376   4.778   0.080  2.1007  0.3050  0.4372
 2609SOL    HW2 8727   6.269   4.742   0.197 -0.2429  0.7990 -1.4692
 2610SOL     OW 8728   5.664   5.538   4.701  0.0612 -0.1731 -0.2427
 2610SOL    HW1 8729   5.647   5.576   4.610 -0.8620  0.7809  0.3131
 2610SOL    HW2 8730   5.603   5.460   4.716 -2.2406  1.7011  0.7833
 2611SOL     OW 8731   5.885   5.946   3.152 -0.6483  0.0668 -0.1741
 2611SOL    HW1 8732   5.817   5.954   3.079 -1.8900 -2.3505  0.6030
 2611SOL    HW2 8733   5.936   5.861   3.142 -0.3323  0.0383  1.3306
 2612SOL     OW 8734   0.784   1.162   6.181  0.6681  0.1544 -0.6729
 2612SOL    HW1 8735   0.847   1.125   6.112  0.7629 -1.3346  0.1820
 2612SOL    HW2 8736   0.806   1.123   6.270 -0.9586  0.2474 -0.2127
 2613SOL     OW 8737   2.530   6.072   2.123  0.1982  0.4480  0.2645
 2613SOL    HW1 8738   2.519   6.010   2.045 -1.0389 -0.0583  0.8004
 2613SOL    HW2 8739   2.503   6.165   2.096 -1.7242 -0.0151  0.4520
 2614SOL     OW 8740   4.679   6.002   5.406 -0.6336  0.6591 -0.3341
 2614SOL    HW1 8741   4.708   5.909   5.427 -0.9310  0.8784  1.1168
 2614SOL    HW2 8742   4.664   6.053   5.490 -3.8573  0.9834 -0.9828
 2615SOL     OW 8743   5.311   5.262   3.470  0.1178  0.5120 -0.5890
 2615SOL    HW1 8744   5.400   5.228   3.501 -0.4773  1.3353  2.3187
 2615SOL    HW2 8745   5.238   5.213   3.518 -0.9645  1.0893 -1.5937
 2616SOL     OW 8746   3.654   3.290   4.215 -0.6056  0.0519 -0.2398
 2616SOL    HW1 8747   3.690   3.201   4.188 -1.2801 -0.0284 -0.9088
 2616SOL    HW2 8748   3.567   3.307   4.168 -2.2518 -0.4058  2.3931
 2617SOL     OW 8749   3.711   6.327   2.306 -0.0887 -0.1932  0.1092
 2617SOL    HW1 8750   3.754   6.277   2.381  0.6169 -1.0153 -0.8189
 2617SOL    HW2 8751   3.614   6.341   2.327 -0.3122 -1.9816  0.3830
 2618SOL     OW 8752   1.539   0.821   1.753  0.0318 -0.3083 -0.0222
 2618SOL    HW1 8753   1.630   0.849   1.783 -0.1141 -0.3803  0.5139
 2618SOL    HW2 8754   1.474   0.895   1.771  0.2686  0.4632 -2.0579
 2619SOL     OW 8755   4.636   1.667   3.418  0.6125 -0.9399  0.2815
 2619SOL    HW1 8756   4.541   1.638   3.413  0.4844 -0.2785 -1.8769
 2619SOL    HW2 8757   4.694   1.587   3.439 -0.3320 -1.4643  0.9518
 2620SOL     OW 8758   5.207   6.044   3.821 -0.1006  0.6144  0.7146
 2620SOL    HW1 8759   5.128   6.057   3.760  1.0359  3.7109 -0.2775
 2620SOL    HW2 8760   5.188   6.085   3.910 -0.0912  0.1435  0.9367
 2621SOL     OW 8761   4.043   1.051   3.763 -0.2874  0.1157  0.4237
 2621SOL    HW1 8762   4.089   1.033   3.850  0.6934 -0.4046 -0.1909
 2621SOL    HW2 8763   4.005   0.967   3.726  0.6890  0.0278 -0.4212
 2622SOL     OW 8764   4.632   1.464   5.817  0.0503  0.4068  0.1211
 2622SOL    HW1 8765   4.680   1.541   5.859 -0.5328  2.1171 -2.1180
 2622SOL    HW2 8766   4.679   1.437   5.733  0.0117 -1.4776  0.6611
 2623SOL     OW 8767   2.223   1.294   4.919  0.0654 -0.5670  0.4641
 2623SOL    HW1 8768   2.155   1.362   4.945 -0.3326 -0.7425 -0.0968
 2623SOL    HW2 8769   2.315   1.331   4.935 -0.1504 -0.0164  0.4508
 2624SOL     OW 8770   5.320   4.702   3.996  0.4090  0.1129  0.0567
 2624SOL    HW1 8771   5.339   4.797   4.020 -6.3086  1.5306  1.9466
 2624SOL    HW2 8772   5.298   4.697   3.899  2.2805  0.0610 -0.3926
 2625SOL     OW 8773   2.055   3.263   5.557 -0.0157 -0.0421 -0.2939
 2625SOL    HW1 8774   2.130   3.323   5.586 -0.4631  0.8111 -0.8805
 2625SOL    HW2 8775   2.021   3.293   5.468 -2.3832  0.8441  0.8412
 2626SOL     OW 8776   1.871   6.681   4.115 -0.1223 -0.1121  0.5570
 2626SOL    HW1 8777   1.901   6.703   4.208  1.5755 -2.5262  0.6800
 2626SOL    HW2 8778   1.910   6.593   4.088 -2.4621 -0.5916 -1.6040
 2627SOL     OW 8779   0.617   0.015   5.297  0.2368  0.5044  0.5140
 2627SOL    HW1 8780   0.552  -0.007   5.369  0.5424 -0.6813  0.4411
 2627SOL    HW2 8781   0.679  -0.062   5.283  2.8617  2.2326  1.8334
 2628SOL     OW 8782   1.848   4.681   0.081 -1.0907 -0.2733 -0.3654
 2628SOL    HW1 8783   1.870   4.741   0.158  0.8898 -0.2757 -0.8598
 2628SOL    HW2 8784   1.795   4.731   0.013 -1.0225  0.3751  0.0499
 2629SOL     OW 8785   3.094   3.913   3.867  0.1349 -0.1408  0.1266
 2629SOL    HW1 8786   3.105   3.919   3.966  1.3828 -0.0306 -0.0004
 2629SOL    HW2 8787   3.158   3.977   3.823  0.2165 -0.8260 -0.7701
 2630SOL     OW 8788   5.262   6.443   0.889 -0.1604 -0.1831  0.5342
 2630SOL    HW1 8789   5.174   6.479   0.919  0.2013  0.5595  0.7198
 2630SOL    HW2 8790   5.318   6.517   0.853  0.6975 -0.5039  1.1618
 2631SOL     OW 8791   5.194   5.559   3.815 -0.3644 -0.0462  0.2623
 2631SOL    HW1 8792   5.260   5.579   3.742  0.1644  1.3989  1.1005
 2631SOL    HW2 8793   5.147   5.474   3.794 -0.0621  0.2127 -1.6560
 2632SOL     OW 8794   2.042   1.070   4.912 -0.3410  0.0109 -0.0953
 2632SOL    HW1 8795   2.115   1.115   4.859 -1.7971  2.2865 -0.3010
 2632SOL    HW2 8796   2.050   1.095   5.008  0.5586 -1.7649  0.3409
 2633SOL     OW 8797   5.348   1.749   4.687  0.3704 -0.4629  0.3816
 2633SOL    HW1 8798   5.368   1.653   4.706 -2.7444 -0.9401  1.9000
 2633SOL    HW2 8799   5.297   1.756   4.601 -0.7167 -0.3924  1.0153
 2634SOL     OW 8800   1.774   4.482   4.008 -0.4472  0.5491 -0.2851
 2634SOL    HW1 8801   1.835   4.557   3.983 -0.1054  0.0346 -1.0469
 2634SOL    HW2 8802   1.826   4.396   4.009 -0.9877  0.2186 -0.1695
 2635SOL     OW 8803   0.316   6.095   5.024  0.3168  0.6294  0.0075
 2635SOL    HW1 8804   0.391   6.130   4.968 -0.4755  1.7501 -0.3720
 2635SOL    HW2 8805   0.295   6.161   5.096 -1.3400  1.0780 -0.8460
 2636SOL     OW 8806   6.354   6.369   0.418  0.5987  0.0871 -0.4275
 2636SOL    HW1 8807   6.412   6.346   0.495 -0.9096 -0.1888  0.6766
 2636SOL    HW2 8808   6.271   6.414   0.451 -1.1572 -2.0786 -1.6092
 2637SOL     OW 8809   5.940   0.066   3.500  0.5669 -0.2332 -0.2038
 2637SOL    HW1 8810   5.862   0.005   3.512 -2.3567  3.0226 -0.7780
 2637SOL    HW2 8811   6.003   0.055   3.577 -0.5199 -2.8580  0.4280
 2638SOL     OW 8812   0.239   6.965   3.303  0.4707  0.3544  0.4646
 2638SOL    HW1 8813   0.216   6.904   3.228  1.2896 -2.1981  2.1420
 2638SOL    HW2 8814   0.177   6.948   3.380  2.2786 -0.2800  1.8657
 2639SOL     OW 8815   6.981   6.624   2.912 -0.6960 -0.6136 -0.1254
 2639SOL    HW1 8816   7.016   6.531   2.897  0.7294 -0.5065  2.0127
 2639SOL    HW2 8817   6.894   6.619   2.959 -0.3091 -0.8893  0.5773
 2640SOL     OW 8818   4.555   5.353   6.757  0.0204 -0.2925  0.7570
 2640SOL    HW1 8819   4.538   5.296   6.676 -0.2173  0.1371  0.5036
 2640SOL    HW2 8820   4.623   5.423   6.735 -0.8328  0.5009  0.6148
 2641SOL     OW 8821   5.710   2.118   3.568 -0.4172  0.2975  0.4041
 2641SOL    HW1 8822   5.725   2.187   3.496  0.7226 -0.4959 -0.1430
 2641SOL    HW2 8823   5.736   2.157   3.657 -0.8339  0.9307  0.2589
 2642SOL     OW 8824   4.543   1.227   4.701  0.1104 -0.3537  0.4436
 2642SOL    HW1 8825   4.470   1.295   4.709  0.7461  0.4905 -0.6234
 2642SOL    HW2 8826   4.631   1.275   4.691  0.5518 -1.3444 -0.5227
 2643SOL     OW 8827   1.996   5.697   2.851 -0.3663  0.1964  0.3586
 2643SOL    HW1 8828   1.908   5.740   2.870 -0.9957 -0.9642  0.2212
 2643SOL    HW2 8829   2.054   5.700   2.933  0.0201  2.1422  0.0666
 2644SOL     OW 8830   0.458   3.361   0.322  0.3621  0.1963  0.3774
 2644SOL    HW1 8831   0.508   3.421   0.384 -2.0820  2.6298  0.1782
 2644SOL    HW2 8832   0.407   3.293   0.375 -0.3336  1.1430  0.9464
 2645SOL     OW 8833   3.872   4.261   6.099  0.2027 -0.4323 -0.3947
 2645SOL    HW1 8834   3.848   4.164   6.107 -0.6715 -0.3012 -1.2350
 2645SOL    HW2 8835   3.879   4.301   6.191 -2.2728 -0.6427 -0.0435
 2646SOL     OW 8836   6.454   0.353   1.230 -0.2932 -0.2774 -0.0074
 2646SOL    HW1 8837   6.440   0.328   1.326  1.4468 -1.4924 -0.0250
 2646SOL    HW2 8838   6.461   0.270   1.175  0.4114  0.3718 -0.9291
 2647SOL     OW 8839   5.635   6.864   2.265 -0.2999 -0.3528 -0.5980
 2647SOL    HW1 8840   5.536   6.858   2.264 -0.3215 -0.4819  0.6388
 2647SOL    HW2 8841   5.666   6.925   2.192 -1.3335  0.4127 -0.4202
 2648SOL     OW 8842   7.002   6.409   5.500 -0.1156  0.5109 -0.0833
 2648SOL    HW1 8843   7.006   6.488   5.439 -1.1874  1.1667  0.6565
 2648SOL    HW2 8844   6.909   6.400   5.537  0.0100 -1.0547 -0.0923
 2649SOL     OW 8845   3.923   2.492   5.359 -0.1522 -0.6332  0.2955
 2649SOL    HW1 8846   3.998   2.486   5.293 -1.7605  0.9639 -1.8215
 2649SOL    HW2 8847   3.961   2.500   5.451  2.2266 -1.1828 -0.5522
 2650SOL     OW 8848   1.603   2.633   4.169 -0.6959  0.6012  0.5981
 2650SOL    HW1 8849   1.541   2.635   4.090 -0.2474  0.7453  0.2463
 2650SOL    HW2 8850   1.591   2.548   4.219 -0.9181  0.4686  0.3203
 2651SOL     OW 8851   3.004   6.133   0.652 -0.0244  0.4941  0.1624
 2651SOL    HW1 8852   3.073   6.201   0.680  1.8119 -0.8877 -0.7941
 2651SOL    HW2 8853   3.013   6.116   0.554 -1.9033  0.3941 -0.0226
 2652SOL     OW 8854   2.953   3.254   3.927 -0.0139  0.1130  0.5136
 2652SOL    HW1 8855   2.921   3.238   3.834 -1.3552 -1.1992  1.1535
 2652SOL    HW2 8856   2.916   3.340   3.961 -0.4938  0.0230  0.2307
 2653SOL     OW 8857   0.017   1.671   2.907 -0.0644 -0.4629  0.6843
 2653SOL    HW1 8858   0.081   1.748   2.913 -0.4251  0.0359 -1.3579
 2653SOL    HW2 8859  -0.021   1.654   2.998  0.6957  1.1801  1.3626
 2654SOL     OW 8860   4.226   3.516   0.092 -0.6558 -0.4710  0.0496
 2654SOL    HW1 8861   4.323   3.517   0.116 -0.1517 -0.1806 -1.8486
 2654SOL    HW2 8862   4.194   3.610   0.078 -1.0673 -0.5984  0.1070
 2655SOL     OW 8863   6.360   0.129   5.162  0.3605  0.1550 -0.0539
 2655SOL    HW1 8864   6.344   0.199   5.232  0.3982  0.4734 -0.3595
 2655SOL    HW2 8865   6.416   0.056   5.200 -0.3941 -0.1370  0.5267
 2656SOL     OW 8866   4.769   4.238   5.143 -0.5988  0.0282  0.3195
 2656SOL    HW1 8867   4.809   4.147   5.131  0.1846  0.3039  0.7462
 2656SOL    HW2 8868   4.742   4.275   5.054 -0.6798 -0.5119  0.1171
 2657SOL     OW 8869   1.894   3.230   4.670 -0.0682 -0.7487 -0.1946
 2657SOL    HW1 8870   1.975   3.230   4.611 -0.0340 -2.2462 -0.1826
 2657SOL    HW2 8871   1.835   3.307   4.645  0.5828 -0.5798 -1.2874
 2658SOL     OW 8872   3.683   3.742   6.881 -0.3627 -0.3003 -0.2739
 2658SOL    HW1 8873   3.720   3.834   6.871 -0.9655  0.1205  1.1328
 2658SOL    HW2 8874   3.749   3.675   6.847 -0.6790  0.7145 -3.0948
 2659SOL     OW 8875   6.216   4.121   6.042 -0.1335 -0.2452  0.2629
 2659SOL    HW1 8876   6.264   4.200   6.080 -0.1570 -0.1835  0.1669
 2659SOL    HW2 8877   6.278   4.073   5.978 -0.1432 -0.2626  0.2668
 2660SOL     OW 8878   1.047   1.426   0.337  0.6503  0.0555  0.5249
 2660SOL    HW1 8879   1.085   1.480   0.263 -1.7257  0.6297 -0.3724
 2660SOL    HW2 8880   0.970   1.475   0.379  0.1405 -1.4678  1.4730
 2661SOL     OW 8881   2.343   6.369   0.534  0.3573 -0.1112 -0.0750
 2661SOL    HW1 8882   2.285   6.402   0.459 -0.6187 -2.6444 -0.5341
 2661SOL    HW2 8883   2.297   6.388   0.621  0.6265  1.1797 -0.1863
 2662SOL     OW 8884   4.574   5.382   4.239 -0.0697  0.4332  0.3959
 2662SOL    HW1 8885   4.494   5.335   4.277 -0.4264  0.5141 -0.2426
 2662SOL    HW2 8886   4.600   5.339   4.153  2.2467 -1.3397  1.8643
 2663SOL     OW 8887   2.730   3.514   1.578  0.2135  0.3106  0.1367
 2663SOL    HW1 8888   2.799   3.442   1.582 -0.1174 -0.0992 -1.0437
 2663SOL    HW2 8889   2.643   3.477   1.610  0.4323  0.7074  1.2239
 2664SOL     OW 8890   4.172   2.011   5.107 -0.0122  0.5617  0.5385
 2664SOL    HW1 8891   4.266   1.980   5.095 -0.0185  1.4487 -2.7396
 2664SOL    HW2 8892   4.110   1.932   5.103  0.4135  0.2591 -0.2174
 2665SOL     OW 8893   2.430   2.247   4.105 -0.4108 -0.2435 -0.3624
 2665SOL    HW1 8894   2.412   2.269   4.010 -1.4516 -0.0628 -0.1380
 2665SOL    HW2 8895   2.478   2.322   4.149 -1.0146  0.1968 -0.4423
 2666SOL     OW 8896   5.156   2.967   1.216  0.0953 -0.1468  0.4155
 2666SOL    HW1 8897   5.150   2.936   1.122 -0.1273 -0.4749  0.5356
 2666SOL    HW2 8898   5.153   2.888   1.278  0.2533  0.0622  0.6971
 2667SOL     OW 8899   3.340   5.894   4.027 -0.5157  0.3333 -0.4098
 2667SOL    HW1 8900   3.383   5.818   3.979 -1.2469 -0.7901  0.6746
 2667SOL    HW2 8901   3.408   5.964   4.046  0.0292  0.3042 -2.0420
 2668SOL     OW 8902   5.867   4.116   4.339  0.4294  0.3120  1.2531
 2668SOL    HW1 8903   5.923   4.096   4.419  0.4699  0.5659  1.2892
 2668SOL    HW2 8904   5.832   4.031   4.300  0.2514  0.1986  1.6553
 2669SOL     OW 8905   2.100   4.384   4.423  0.7849 -0.1627 -0.2476
 2669SOL    HW1 8906   2.093   4.311   4.354  0.5650 -0.0535 -0.3421
 2669SOL    HW2 8907   2.103   4.472   4.377  0.9726 -0.1084 -0.1292
 2670SOL     OW 8908   6.480   1.572   6.934  0.0450 -0.5291  0.0392
 2670SOL    HW1 8909   6.555   1.637   6.950 -1.2108  1.7328 -2.4011
 2670SOL    HW2 8910   6.511   1.480   6.955  3.9168  0.1353 -1.8302
 2671SOL     OW 8911   1.654   3.941   0.337 -0.2165 -0.4008 -0.2549
 2671SOL    HW1 8912   1.746   3.954   0.300 -0.0095  2.6429  1.1053
 2671SOL    HW2 8913   1.633   3.843   0.339  2.5268 -1.1177 -1.5891
 2672SOL     OW 8914   0.598   6.025   1.636 -0.1499 -0.0190  0.3225
 2672SOL    HW1 8915   0.603   6.026   1.536  0.4313 -2.2530  0.2699
 2672SOL    HW2 8916   0.667   6.087   1.673  0.7173 -0.3628 -0.6684
 2673SOL     OW 8917   6.345   0.353   4.779 -0.0963 -0.5738 -0.0271
 2673SOL    HW1 8918   6.334   0.257   4.756  1.5370 -0.7580 -0.1642
 2673SOL    HW2 8919   6.314   0.370   4.872 -2.4210 -0.7606 -0.6960
 2674SOL     OW 8920   2.274   4.218   4.165  1.1914  0.3329 -0.1281
 2674SOL    HW1 8921   2.271   4.127   4.207 -0.1219  0.2134 -0.4369
 2674SOL    HW2 8922   2.324   4.213   4.078  1.7840  0.0706  0.2213
 2675SOL     OW 8923   1.283   2.498   5.284  0.0487 -0.4338 -0.1117
 2675SOL    HW1 8924   1.279   2.406   5.321 -1.7250 -1.0671 -1.6733
 2675SOL    HW2 8925   1.272   2.494   5.184 -1.4814  1.5137 -0.0834
 2676SOL     OW 8926   2.896   0.249   2.584 -0.0852 -0.5365 -0.1407
 2676SOL    HW1 8927   2.814   0.268   2.530  0.5936  0.1521 -0.9675
 2676SOL    HW2 8928   2.977   0.266   2.529  0.6623  0.9644  1.3140
 2677SOL     OW 8929   4.275   2.900   6.305 -0.2611  0.8296  0.1796
 2677SOL    HW1 8930   4.351   2.849   6.347  0.4103 -0.7101 -2.6245
 2677SOL    HW2 8931   4.204   2.836   6.276 -0.8619  1.8304 -0.6411
 2678SOL     OW 8932   6.190   4.932   2.794 -1.0996 -0.2050 -0.1740
 2678SOL    HW1 8933   6.150   5.019   2.768  0.5419  0.4478 -0.6137
 2678SOL    HW2 8934   6.232   4.889   2.715  0.3746 -0.1510  0.5563
 2679SOL     OW 8935   3.529   4.542   0.947 -0.1552 -0.0278 -0.1546
 2679SOL    HW1 8936   3.501   4.551   1.042  0.8082 -0.9284  0.2346
 2679SOL    HW2 8937   3.593   4.616   0.925  1.0059 -0.8183  0.4495
 2680SOL     OW 8938   1.251   2.053   1.563  0.2951 -0.4646  0.6304
 2680SOL    HW1 8939   1.312   1.998   1.621  1.9453  3.1991  2.6952
 2680SOL    HW2 8940   1.167   2.073   1.613 -0.7190 -1.7292 -0.4745
 2681SOL     OW 8941   1.904   1.119   5.207  0.4034  0.6080  0.5529
 2681SOL    HW1 8942   1.806   1.126   5.225 -0.1811 -2.4222 -0.8649
 2681SOL    HW2 8943   1.934   1.025   5.222  2.3200  0.6345 -2.3175
 2682SOL     OW 8944   4.356   3.268   0.827  0.4996 -0.2632  0.2603
 2682SOL    HW1 8945   4.431   3.244   0.765 -0.1777 -3.6155  0.5408
 2682SOL    HW2 8946   4.345   3.195   0.895 -3.1081 -0.0227  0.1259
 2683SOL     OW 8947   0.437   4.290   1.263  0.0402 -0.1189  0.7390
 2683SOL    HW1 8948   0.396   4.285   1.172 -0.2083  1.6600  0.7073
 2683SOL    HW2 8949   0.536   4.280   1.256  0.2700  2.0990 -0.0523
 2684SOL     OW 8950   3.109   5.157   3.385 -0.0776 -0.3257  0.4157
 2684SOL    HW1 8951   3.118   5.161   3.285 -0.6182  0.1279  0.3797
 2684SOL    HW2 8952   3.113   5.249   3.422 -0.4882 -0.4456  0.7607
 2685SOL     OW 8953   1.166   5.806   0.264 -0.0257 -0.1944 -0.0351
 2685SOL    HW1 8954   1.251   5.798   0.212  0.3416 -1.9501  0.7709
 2685SOL    HW2 8955   1.132   5.714   0.288 -0.8359  0.5191  1.7580
 2686SOL     OW 8956   2.459   1.272   6.036 -0.3663 -0.6884 -0.3112
 2686SOL    HW1 8957   2.555   1.247   6.049 -0.0760 -1.0592 -2.7750
 2686SOL    HW2 8958   2.402   1.211   6.092  0.8262  0.9212  2.9020
 2687SOL     OW 8959   3.259   5.482   4.847  0.4679 -0.0263  0.0328
 2687SOL    HW1 8960   3.291   5.389   4.829  0.0227 -0.1443 -0.1816
 2687SOL    HW2 8961   3.205   5.514   4.769  1.9447  1.0256 -0.5928
 2688SOL     OW 8962   3.654   6.092   0.020  0.5750 -0.2666  0.2267
 2688SOL    HW1 8963   3.629   6.141  -0.063  0.2559 -1.2894 -0.2935
 2688SOL    HW2 8964   3.689   6.157   0.088  0.2004  0.6635 -0.4529
 2689SOL     OW 8965   2.782   2.902   1.676 -0.0913 -0.8234 -0.3369
 2689SOL    HW1 8966   2.766   2.902   1.578 -1.1944  0.4996 -0.1805
 2689SOL    HW2 8967   2.713   2.845   1.721 -1.4772  0.9267 -0.1101
 2690SOL     OW 8968   3.973   3.537   3.589 -0.5705  0.3334  0.2964
 2690SOL    HW1 8969   3.882   3.578   3.586  0.0447  1.8437  1.2514
 2690SOL    HW2 8970   3.981   3.477   3.669 -1.2685 -1.2605 -0.7674
 2691SOL     OW 8971   6.366   5.872   2.342  0.2036 -0.3772 -0.0381
 2691SOL    HW1 8972   6.336   5.838   2.252 -1.3743  0.5508  0.1008
 2691SOL    HW2 8973   6.327   5.962   2.358 -1.1104 -1.2714  2.3590
 2692SOL     OW 8974   5.297   5.003   3.341  0.4955 -0.4627 -0.7216
 2692SOL    HW1 8975   5.387   5.013   3.383  0.0686  1.8082 -0.2416
 2692SOL    HW2 8976   5.267   5.091   3.304 -0.6445 -1.6227 -2.7780
 2693SOL     OW 8977   2.075   3.208   2.420  0.3366  0.7822 -0.7718
 2693SOL    HW1 8978   2.102   3.142   2.349  0.5952  1.3030 -1.1661
 2693SOL    HW2 8979   1.981   3.236   2.405  0.1602  0.3483 -0.4818
 2694SOL     OW 8980   3.210   0.249   1.844 -0.0390  0.2560  0.0809
 2694SOL    HW1 8981   3.298   0.229   1.887  0.4583  1.1626 -0.4879
 2694SOL    HW2 8982   3.198   0.191   1.764 -0.9855 -1.4691  1.3936
 2695SOL     OW 8983   5.186   5.968   1.587  0.4799  0.2727  0.1493
 2695SOL    HW1 8984   5.186   5.984   1.686  0.9618  1.0672  0.0223
 2695SOL    HW2 8985   5.175   5.870   1.570 -0.6923  0.2381  0.9670
 2696SOL     OW 8986   3.446   3.598   4.437 -0.5410  0.3262 -0.1729
 2696SOL    HW1 8987   3.469   3.509   4.475  1.2913  1.6968  2.2566
 2696SOL    HW2 8988   3.362   3.632   4.478 -0.2588  0.4751  0.2851
 2697SOL     OW 8989   4.160   5.339   3.033  0.2719 -0.0936  0.6895
 2697SOL    HW1 8990   4.104   5.259   3.053 -0.2628 -0.0148 -0.4379
 2697SOL    HW2 8991   4.195   5.378   3.119 -2.4743  0.6514  1.5581
 2698SOL     OW 8992   1.549   6.063   0.820  0.2080 -0.7791 -0.0022
 2698SOL    HW1 8993   1.531   6.120   0.900  1.5119  1.1960 -1.0291
 2698SOL    HW2 8994   1.559   5.968   0.848 -0.2473 -0.2773  2.0281
 2699SOL     OW 8995   2.147   3.540   6.927  0.6690  0.4884 -0.2747
 2699SOL    HW1 8996   2.232   3.524   6.875  1.3541  0.3434  0.8572
 2699SOL    HW2 8997   2.131   3.639   6.934  1.8510  0.6079  1.1954
 2700SOL     OW 8998   2.236   4.103   1.830 -0.0550  0.2567  0.5323
 2700SOL    HW1 8999   2.259   4.005   1.827 -1.4259 -0.2044  2.8069
 2700SOL    HW2 9000   2.200   4.131   1.741  0.4623 -1.2640 -0.2045
 2701SOL     OW 9001   3.180   0.720   1.110  0.3517  0.3520 -0.4123
 2701SOL    HW1 9002   3.276   0.715   1.083  0.3056  0.3019 -0.5689
 2701SOL    HW2 9003   3.142   0.628   1.117 -0.2271  0.4100 -2.3185
 2702SOL     OW 9004   0.825   2.854   3.869 -0.2885 -0.2899 -0.1229
 2702SOL    HW1 9005   0.845   2.859   3.771 -2.1753 -3.2542 -0.8030
 2702SOL    HW2 9006   0.909   2.866   3.922  1.2450 -1.1590 -2.2298
 2703SOL     OW 9007   1.912   1.569   2.216 -0.4736  0.4573 -0.1083
 2703SOL    HW1 9008   1.911   1.669   2.229  0.8898  0.7871 -2.1123
 2703SOL    HW2 9009   2.006   1.537   2.213 -0.9064 -0.9528  0.6803
 2704SOL     OW 9010   0.118   5.578   0.019 -0.3946 -0.2313  0.5518
 2704SOL    HW1 9011   0.130   5.620   0.109 -0.4755  1.7115 -0.2906
 2704SOL    HW2 9012   0.096   5.649  -0.048  0.2508 -1.5507 -1.1311
 2705SOL     OW 9013   2.597   4.594   5.292 -0.4748 -0.2798  0.0733
 2705SOL    HW1 9014   2.511   4.646   5.288 -1.1268 -1.4001 -1.3274
 2705SOL    HW2 9015   2.665   4.640   5.235 -0.8894 -0.6599 -0.7435
 2706SOL     OW 9016   0.877   1.220   0.924  0.0825 -0.1710  0.6393
 2706SOL    HW1 9017   0.938   1.160   0.872  0.0554  0.2629  0.1012
 2706SOL    HW2 9018   0.824   1.277   0.861  0.8154  1.1224  1.1526
 2707SOL     OW 9019   2.955   6.296   5.581  0.0185 -0.3904 -0.4425
 2707SOL    HW1 9020   3.027   6.281   5.649 -0.8708  0.5147  0.7594
 2707SOL    HW2 9021   2.873   6.331   5.627 -0.2183  1.4456 -2.1263
 2708SOL     OW 9022   0.149   2.342   0.670  0.2914  0.4694 -0.2106
 2708SOL    HW1 9023   0.233   2.291   0.688  0.7607  0.8860 -1.1890
 2708SOL    HW2 9024   0.138   2.356   0.572 -0.9915  0.3087 -0.1068
 2709SOL     OW 9025   5.154   5.812   6.820 -0.4709 -0.4673  0.0659
 2709SOL    HW1 9026   5.184   5.726   6.779  0.0962 -0.3187  0.1669
 2709SOL    HW2 9027   5.232   5.857   6.865 -1.4519 -1.7865  3.4429
 2710SOL     OW 9028   6.839   4.866   1.917 -0.3053 -0.1629 -0.0384
 2710SOL    HW1 9029   6.781   4.805   1.971 -0.0955  1.2092  1.8503
 2710SOL    HW2 9030   6.935   4.854   1.945 -0.0110 -0.4032 -1.1067
 2711SOL     OW 9031   4.460   0.335   3.522  0.3714  0.3333  0.8665
 2711SOL    HW1 9032   4.519   0.359   3.600 -3.1421  2.1205  3.2283
 2711SOL    HW2 9033   4.444   0.236   3.522  2.3824 -0.0331  0.8361
 2712SOL     OW 9034   2.380   6.054   2.544 -0.0232  0.2619 -0.2219
 2712SOL    HW1 9035   2.304   6.119   2.541 -0.1936  0.3430  2.6852
 2712SOL    HW2 9036   2.346   5.964   2.571  0.7672  0.0706  0.1737
 2713SOL     OW 9037   6.278   2.820   4.943 -0.2146  0.0110  0.3704
 2713SOL    HW1 9038   6.246   2.778   5.028 -1.2954  0.5581  0.2484
 2713SOL    HW2 9039   6.264   2.755   4.868  0.4420 -0.3512  0.5577
 2714SOL     OW 9040   3.498   0.691   6.865  0.1949 -0.7313  0.1869
 2714SOL    HW1 9041   3.594   0.698   6.891  0.1632  1.0222 -0.0446
 2714SOL    HW2 9042   3.474   0.768   6.806 -0.8737 -2.1736 -1.3662
 2715SOL     OW 9043   5.334   1.853   6.359  0.3159  0.5291  0.5313
 2715SOL    HW1 9044   5.244   1.896   6.366  0.5128  1.8339 -2.7774
 2715SOL    HW2 9045   5.404   1.923   6.350  1.5178 -0.4876  1.5746
 2716SOL     OW 9046   5.657   5.688   2.693 -0.1655 -0.5225  0.0702
 2716SOL    HW1 9047   5.709   5.616   2.647 -0.4131 -1.7456  1.6198
 2716SOL    HW2 9048   5.559   5.671   2.680 -0.2194 -0.3304  0.2282
 2717SOL     OW 9049   1.656   4.150   0.812 -0.4649  0.0658  0.4473
 2717SOL    HW1 9050   1.666   4.124   0.908  0.1289  1.7314  0.8773
 2717SOL    HW2 9051   1.564   4.189   0.798 -0.9204 -1.1111  0.0868
 2718SOL     OW 9052   2.421   4.395   4.331  0.0089 -0.1064  0.1995
 2718SOL    HW1 9053   2.365   4.340   4.269 -0.3242  2.3107 -1.8447
 2718SOL    HW2 9054   2.382   4.393   4.423 -0.2132 -2.8204  0.1085
 2719SOL     OW 9055   5.088   4.891   0.492 -0.0221  0.2764  0.2243
 2719SOL    HW1 9056   5.116   4.969   0.548  0.2988 -0.0735  0.5624
 2719SOL    HW2 9057   5.159   4.821   0.496 -0.8403 -0.5341  0.8860
 2720SOL     OW 9058   3.162   6.079   2.179  0.3615 -0.6750  0.1158
 2720SOL    HW1 9059   3.079   6.124   2.210 -0.3091 -1.6978 -0.1442
 2720SOL    HW2 9060   3.139   6.008   2.112  1.5792  0.0767 -1.1746
 2721SOL     OW 9061   4.301   5.105   5.105  0.4043  0.6320 -0.2344
 2721SOL    HW1 9062   4.272   5.048   5.029  0.2329  0.1313  0.1996
 2721SOL    HW2 9063   4.401   5.102   5.114  0.4156  0.6158 -0.3785
 2722SOL     OW 9064   6.566   5.497   1.315 -0.4015 -0.7381  0.4324
 2722SOL    HW1 9065   6.601   5.407   1.341 -0.8252 -0.4577  2.0792
 2722SOL    HW2 9066   6.569   5.558   1.394 -0.8937  0.4587 -0.4440
 2723SOL     OW 9067   1.249   6.353   5.953 -0.1894  0.4469  0.3857
 2723SOL    HW1 9068   1.187   6.431   5.965 -0.3684  0.2866  0.5308
 2723SOL    HW2 9069   1.301   6.364   5.869 -1.3430 -0.0352 -0.4212
 2724SOL     OW 9070   1.931   5.703   6.909  0.2628  0.1746 -0.2783
 2724SOL    HW1 9071   1.935   5.604   6.900 -0.6514  0.0860  0.1546
 2724SOL    HW2 9072   1.924   5.728   7.005 -0.4649  0.6019 -0.4290
 2725SOL     OW 9073   6.105   5.727   2.859  0.1970 -0.2719  0.4006
 2725SOL    HW1 9074   6.035   5.687   2.800 -0.9251 -1.3956  2.4066
 2725SOL    HW2 9075   6.194   5.688   2.835 -0.1747 -0.4498 -0.7561
 2726SOL     OW 9076   5.071   4.841   0.026 -0.8401  0.3318 -0.3698
 2726SOL    HW1 9077   5.131   4.820  -0.051 -0.1981  3.9346 -1.0300
 2726SOL    HW2 9078   5.116   4.816   0.111  0.8019  1.0961 -0.9725
 2727SOL     OW 9079   0.028   5.924   1.490 -0.2867 -0.3032  0.0167
 2727SOL    HW1 9080   0.118   5.881   1.494 -0.4522 -0.5582  1.3369
 2727SOL    HW2 9081  -0.014   5.922   1.580 -0.5464  2.1221  0.0015
 2728SOL     OW 9082   3.443   6.938   5.482  0.0729  0.3420  0.3598
 2728SOL    HW1 9083   3.356   6.937   5.531  0.1006  1.2889  0.4551
 2728SOL    HW2 9084   3.440   6.872   5.407 -0.5062 -0.0545  0.7246
 2729SOL     OW 9085   4.082   3.711   0.556 -0.4202 -0.7404 -0.2185
 2729SOL    HW1 9086   4.019   3.684   0.482 -1.6093 -1.5746  1.0475
 2729SOL    HW2 9087   4.159   3.648   0.558 -1.1952 -1.7050  0.2328
 2730SOL     OW 9088   1.530   5.364   1.074  0.7240 -0.4250 -0.3486
 2730SOL    HW1 9089   1.451   5.310   1.047  0.4862  0.0834 -0.6751
 2730SOL    HW2 9090   1.511   5.413   1.159  1.3833 -1.8264  0.6425
 2731SOL     OW 9091   4.027   2.901   1.281  0.0583  0.0332  0.5514
 2731SOL    HW1 9092   4.003   2.813   1.322 -0.4145 -0.0881  0.0255
 2731SOL    HW2 9093   4.126   2.906   1.270  0.0205 -0.9087 -0.4265
 2732SOL     OW 9094   5.498   4.692   6.730 -0.5775  0.1636  0.2597
 2732SOL    HW1 9095   5.456   4.621   6.785 -0.1075  0.3034  0.8117
 2732SOL    HW2 9096   5.528   4.654   6.642 -2.0789  0.1252 -0.2609
 2733SOL     OW 9097   6.919   1.016   6.271  0.1706 -0.2303  0.0659
 2733SOL    HW1 9098   6.983   0.967   6.329  1.9146  1.9078  0.0797
 2733SOL    HW2 9099   6.940   1.114   6.273 -0.8332  0.1354 -2.7480
 2734SOL     OW 9100   2.847   5.287   1.723  0.7350 -0.2997 -0.3400
 2734SOL    HW1 9101   2.934   5.334   1.704  1.2448 -0.4687  1.3882
 2734SOL    HW2 9102   2.857   5.232   1.806 -0.8405 -0.8570 -0.4976
 2735SOL     OW 9103   5.841   4.256   1.662  0.1597 -0.0911  0.0407
 2735SOL    HW1 9104   5.746   4.286   1.650 -0.1805 -1.5380 -1.2907
 2735SOL    HW2 9105   5.876   4.290   1.749 -1.9612 -0.4417  1.1079
 2736SOL     OW 9106   4.642   0.494   4.613 -0.6371  0.2680 -0.1699
 2736SOL    HW1 9107   4.660   0.460   4.705  2.2176  0.4674 -0.5664
 2736SOL    HW2 9108   4.724   0.482   4.556 -2.6448 -0.9124 -3.0595
 2737SOL     OW 9109   2.966   2.310   6.404  0.1091 -0.1698  0.3141
 2737SOL    HW1 9110   2.908   2.259   6.340  0.7395 -0.4821 -0.0199
 2737SOL    HW2 9111   2.909   2.367   6.463 -0.5333 -0.4597 -0.0188
 2738SOL     OW 9112   5.824   4.684   3.989 -0.3075 -0.6111  0.6147
 2738SOL    HW1 9113   5.864   4.636   3.911 -1.7452 -0.4321 -0.2661
 2738SOL    HW2 9114   5.804   4.618   4.062 -0.1847 -1.0017  0.3011
 2739SOL     OW 9115   4.764   5.148   6.466 -0.1130 -0.0429  0.3526
 2739SOL    HW1 9116   4.787   5.160   6.370  0.8466 -0.3134  0.5397
 2739SOL    HW2 9117   4.666   5.165   6.479 -0.3222 -0.3336 -0.7225
 2740SOL     OW 9118   4.497   2.728   1.167 -0.3763 -0.4977  0.2862
 2740SOL    HW1 9119   4.488   2.630   1.149  0.8799 -0.4774 -0.5365
 2740SOL    HW2 9120   4.568   2.743   1.235  0.2459 -0.0938 -0.4420
 2741SOL     OW 9121   6.349   0.588   1.165  0.5132  0.1347 -0.0341
 2741SOL    HW1 9122   6.384   0.641   1.242  1.3341  0.0213 -0.3175
 2741SOL    HW2 9123   6.370   0.491   1.178  1.8501  0.2612 -1.0047
 2742SOL     OW 9124   0.339   3.934   6.464  0.2471  0.2722  0.1045
 2742SOL    HW1 9125   0.312   3.997   6.391 -0.5073  0.1184  0.2353
 2742SOL    HW2 9126   0.422   3.886   6.438  0.3968  0.7523 -0.3311
 2743SOL     OW 9127   5.726   5.177   1.845  0.5433  0.5266 -0.2182
 2743SOL    HW1 9128   5.678   5.092   1.823  0.3875  0.8403 -1.1150
 2743SOL    HW2 9129   5.688   5.215   1.929  2.0391 -1.3700  1.4219
 2744SOL     OW 9130   3.957   0.126   0.758 -0.2484  0.0403 -0.1217
 2744SOL    HW1 9131   4.015   0.051   0.790 -0.6470 -0.6122 -0.8911
 2744SOL    HW2 9132   4.004   0.213   0.772  2.0980 -0.5766 -3.0546
 2745SOL     OW 9133   1.229   0.274   0.440  0.1637  0.1532 -0.6173
 2745SOL    HW1 9134   1.265   0.237   0.526 -1.1931 -1.1443 -0.5787
 2745SOL    HW2 9135   1.283   0.354   0.414  0.1550  1.0531  1.8221
 2746SOL     OW 9136   2.506   2.615   4.585  0.0877 -0.0843 -0.3649
 2746SOL    HW1 9137   2.436   2.641   4.651  1.0322 -0.0674  0.6498
 2746SOL    HW2 9138   2.555   2.697   4.554  0.4382 -0.2237 -0.1802
 2747SOL     OW 9139   5.136   3.839   6.132  0.4270 -0.0795  0.1235
 2747SOL    HW1 9140   5.186   3.775   6.074  1.7047 -0.4870  1.6133
 2747SOL    HW2 9141   5.093   3.909   6.075 -1.5138 -2.5137 -1.6427
 2748SOL     OW 9142   4.789   0.065   0.222  0.4567  0.4373 -0.0669
 2748SOL    HW1 9143   4.691   0.085   0.230  0.0300 -1.5768  0.2865
 2748SOL    HW2 9144   4.810   0.038   0.128  0.4417 -0.1641  0.0971
 2749SOL     OW 9145   6.340   5.104   5.207  0.0137  0.4214 -0.2918
 2749SOL    HW1 9146   6.368   5.149   5.292  1.7273 -0.6599 -0.2214
 2749SOL    HW2 9147   6.406   5.032   5.184 -1.5239 -0.6921 -1.4663
 2750SOL     OW 9148   0.582   6.022   2.413  0.0204  0.1690 -0.0486
 2750SOL    HW1 9149   0.571   6.034   2.511 -0.2265  0.0260 -0.0568
 2750SOL    HW2 9150   0.619   5.931   2.394  1.5240  0.7436 -0.0078
 2751SOL     OW 9151   2.773   0.594   5.443 -0.2708  0.1337 -0.1149
 2751SOL    HW1 9152   2.706   0.664   5.467 -1.0796 -0.7459  0.2231
 2751SOL    HW2 9153   2.821   0.622   5.359 -1.7587  0.3188 -0.9454
 2752SOL     OW 9154   3.727   5.048   4.656  0.1819  0.0946  0.0037
 2752SOL    HW1 9155   3.705   5.135   4.700  0.1766  0.2637 -0.3348
 2752SOL    HW2 9156   3.819   5.020   4.682  0.1169  0.1097  0.2565
 2753SOL     OW 9157   3.121   0.496   1.810  0.2748 -0.4566  0.2939
 2753SOL    HW1 9158   3.133   0.521   1.713  1.0200  0.3940  0.5881
 2753SOL    HW2 9159   3.165   0.409   1.827  0.0790 -0.6481 -0.1488
 2754SOL     OW 9160   6.215   5.568   4.038 -0.1196  0.0210 -0.3499
 2754SOL    HW1 9161   6.288   5.553   4.106  0.4104  0.2440 -0.8588
 2754SOL    HW2 9162   6.231   5.655   3.992 -0.9359  0.2576 -0.1951
 2755SOL     OW 9163   3.226   0.703   2.413  0.1054  0.6504 -0.4039
 2755SOL    HW1 9164   3.285   0.650   2.473 -1.8140 -0.7129  0.3695
 2755SOL    HW2 9165   3.199   0.647   2.334 -0.1764  1.2366 -0.7315
 2756SOL     OW 9166   6.051   2.450   5.012  0.4093  0.0136 -0.2132
 2756SOL    HW1 9167   6.092   2.436   4.922  2.9037  3.8627  0.0788
 2756SOL    HW2 9168   6.065   2.545   5.040 -2.5520 -0.3522  3.1990
 2757SOL     OW 9169   4.126   0.947   1.536  0.2756 -0.1603  0.1786
 2757SOL    HW1 9170   4.198   1.015   1.547  0.8554 -0.7472  0.1057
 2757SOL    HW2 9171   4.136   0.876   1.606  0.3784 -0.7730 -0.4493
 2758SOL     OW 9172   0.601   6.862   4.457  0.0460  0.2811 -0.3552
 2758SOL    HW1 9173   0.684   6.818   4.489  0.5643  0.3321 -1.5856
 2758SOL    HW2 9174   0.575   6.934   4.521 -0.2466 -1.0967  1.1467
 2759SOL     OW 9175   2.278   6.550   6.017  0.6017  0.2126 -0.0354
 2759SOL    HW1 9176   2.306   6.458   6.045  0.8747 -0.1352 -1.3856
 2759SOL    HW2 9177   2.184   6.547   5.985  0.8348  0.2599 -0.7306
 2760SOL     OW 9178   2.185   6.052   4.704 -0.1546 -0.1450  0.0617
 2760SOL    HW1 9179   2.138   6.111   4.769 -2.1922  0.5191 -1.8805
 2760SOL    HW2 9180   2.154   5.958   4.715 -1.0197  0.0804 -0.3595
 2761SOL     OW 9181   1.186   4.342   2.810  0.0362  0.2224 -0.0206
 2761SOL    HW1 9182   1.223   4.407   2.744 -2.3508  2.0335  0.3076
 2761SOL    HW2 9183   1.168   4.255   2.765 -0.9096  1.2081 -1.6046
 2762SOL     OW 9184   1.239   2.258   0.340 -0.1536 -0.5326 -0.4823
 2762SOL    HW1 9185   1.289   2.190   0.395 -0.9536 -0.3485  0.5031
 2762SOL    HW2 9186   1.263   2.350   0.371  1.9782 -0.2426 -2.7189
 2763SOL     OW 9187   3.249   0.998   5.490  0.2144 -0.6316 -0.0344
 2763SOL    HW1 9188   3.324   1.035   5.545 -0.9186 -0.2928  1.3495
 2763SOL    HW2 9189   3.171   1.060   5.494 -0.1103 -0.9014 -1.5779
 2764SOL     OW 9190   0.951   5.012   1.875 -0.1043 -0.0468  0.1963
 2764SOL    HW1 9191   0.983   4.925   1.913  2.1792  0.5497 -0.2026
 2764SOL    HW2 9192   0.949   5.082   1.947  2.4393  0.6228 -0.2759
 2765SOL     OW 9193   1.060   0.472   5.889  0.1655 -0.1129 -0.5798
 2765SOL    HW1 9194   1.016   0.397   5.840  1.3929 -1.6531  0.5552
 2765SOL    HW2 9195   1.030   0.471   5.985  0.4425  0.6420 -0.4781
 2766SOL     OW 9196   3.076   1.235   6.578  0.2491 -0.1741 -0.4367
 2766SOL    HW1 9197   3.153   1.213   6.519  0.0336 -0.5139 -0.5935
 2766SOL    HW2 9198   3.011   1.160   6.578  1.5886 -1.4964  2.5118
 2767SOL     OW 9199   6.913   4.375   6.619  0.7016  0.1713  0.0550
 2767SOL    HW1 9200   6.904   4.278   6.643  1.4852 -0.2773 -1.3211
 2767SOL    HW2 9201   6.993   4.413   6.665  0.0015  0.3880  1.1532
 2768SOL     OW 9202   3.816   0.810   0.377  0.2944  0.2039 -0.2279
 2768SOL    HW1 9203   3.726   0.849   0.358  0.9177  0.8233 -2.2169
 2768SOL    HW2 9204   3.807   0.735   0.442 -1.4937  0.9640  0.4633
 2769SOL     OW 9205   1.278   3.818   6.364 -0.2726  0.5482  0.4358
 2769SOL    HW1 9206   1.242   3.872   6.289 -0.4738 -1.2185 -0.8094
 2769SOL    HW2 9207   1.296   3.725   6.332  0.3803 -0.0441  2.3890
 2770SOL     OW 9208   4.110   6.927   6.496 -0.0853 -0.4374  0.0790
 2770SOL    HW1 9209   4.118   6.957   6.401 -2.2431 -1.8952 -0.6414
 2770SOL    HW2 9210   4.169   6.847   6.511 -1.0122 -1.2448 -0.5351
 2771SOL     OW 9211   2.351   0.809   4.563 -0.5287  0.7249  0.2977
 2771SOL    HW1 9212   2.420   0.815   4.491 -1.2040 -0.3742 -0.4761
 2771SOL    HW2 9213   2.379   0.743   4.632 -0.6104  0.5745  0.1892
 2772SOL     OW 9214   2.343   0.544   0.519 -0.0930  0.0356  0.2608
 2772SOL    HW1 9215   2.265   0.496   0.561  0.7166 -0.3603  1.3618
 2772SOL    HW2 9216   2.342   0.640   0.547  0.3277 -0.1805  1.0574
 2773SOL     OW 9217   6.901   2.086   3.443 -0.3992 -0.3775 -0.3075
 2773SOL    HW1 9218   6.987   2.080   3.393  0.1078  0.9185  0.3430
 2773SOL    HW2 9219   6.850   2.166   3.412 -1.1479 -0.8599 -0.3409
 2774SOL     OW 9220   4.898   3.329   2.460  0.2730  0.3793 -0.3661
 2774SOL    HW1 9221   4.876   3.241   2.417  1.0761  1.3990 -3.0412
 2774SOL    HW2 9222   4.872   3.404   2.399  0.3861  1.9985  1.4830
 2775SOL     OW 9223   5.455   0.726   4.277  0.1274 -0.2285 -0.2312
 2775SOL    HW1 9224   5.467   0.712   4.375  1.5472  0.7330 -0.2356
 2775SOL    HW2 9225   5.359   0.717   4.253 -0.3925  0.6081  1.4285
 2776SOL     OW 9226   5.961   0.256   5.234 -0.7373 -0.6619 -0.4538
 2776SOL    HW1 9227   5.865   0.260   5.207 -0.9457  0.1406  0.3579
 2776SOL    HW2 9228   6.003   0.346   5.220 -0.6367 -0.4532  1.0370
 2777SOL     OW 9229   2.065   6.618   6.546 -0.0586 -0.1523  0.0637
 2777SOL    HW1 9230   2.148   6.670   6.528 -0.4216  0.7457  0.9018
 2777SOL    HW2 9231   2.085   6.543   6.610  0.2448 -0.4172 -0.3296
 2778SOL     OW 9232   0.604   6.467   1.520  0.0428 -0.5508 -0.2524
 2778SOL    HW1 9233   0.538   6.477   1.594  1.7536  0.7183  1.1651
 2778SOL    HW2 9234   0.662   6.548   1.515 -0.1703 -0.4627 -3.2016
 2779SOL     OW 9235   5.300   6.308   2.603 -0.3776 -0.2953  0.1492
 2779SOL    HW1 9236   5.294   6.393   2.551 -2.1550 -2.0818 -2.8897
 2779SOL    HW2 9237   5.394   6.275   2.604 -0.0551  0.5732 -0.6044
 2780SOL     OW 9238   5.795   0.302   5.631  0.3486 -0.1683 -0.0524
 2780SOL    HW1 9239   5.829   0.268   5.719 -1.5967  1.8130  1.5902
 2780SOL    HW2 9240   5.739   0.231   5.588 -0.5627 -0.4355  1.4690
 2781SOL     OW 9241   6.219   0.634   5.888 -0.0482  0.4163 -0.5746
 2781SOL    HW1 9242   6.233   0.733   5.878 -0.2457  0.5184  0.0812
 2781SOL    HW2 9243   6.253   0.605   5.977 -0.3308 -0.0393 -0.6125
 2782SOL     OW 9244   4.231   6.669   6.543  0.8994  0.2077  0.1426
 2782SOL    HW1 9245   4.295   6.655   6.619  0.7609 -0.1891  0.1895
 2782SOL    HW2 9246   4.255   6.608   6.468 -0.7030 -1.5512  0.9763
 2783SOL     OW 9247   6.584   2.976   0.770 -0.2112  0.4261 -0.6959
 2783SOL    HW1 9248   6.501   2.926   0.747  0.0061  0.0134 -0.6004
 2783SOL    HW2 9249   6.584   3.065   0.725 -0.4901  0.2425 -1.0583
 2784SOL     OW 9250   2.826   0.304   1.781 -0.5911 -0.6491  0.3104
 2784SOL    HW1 9251   2.887   0.240   1.828  0.3780 -0.4420 -0.6052
 2784SOL    HW2 9252   2.731   0.276   1.794 -0.3309 -0.8932  1.9008
 2785SOL     OW 9253   5.910   2.354   0.010  0.1587 -0.1506  0.3443
 2785SOL    HW1 9254   5.983   2.326   0.072  0.5884 -0.8983 -0.4895
 2785SOL    HW2 9255   5.920   2.308  -0.078 -0.8658  0.3368 -0.0508
 2786SOL     OW 9256   0.996   6.102   2.479  0.4703 -0.3678 -0.1482
 2786SOL    HW1 9257   0.952   6.033   2.536  0.6136  0.1106  0.5612
 2786SOL    HW2 9258   1.092   6.078   2.466  0.3593 -0.6461 -0.4617
 2787SOL     OW 9259   1.299   6.647   4.873 -0.0172 -0.7496  0.5450
 2787SOL    HW1 9260   1.371   6.682   4.813  0.1000 -0.1055  1.0429
 2787SOL    HW2 9261   1.260   6.723   4.925  0.2884 -1.3688  1.7062
 2788SOL     OW 9262   3.213   0.682   6.826  0.0789 -0.4606  0.1710
 2788SOL    HW1 9263   3.307   0.677   6.795  0.3018 -0.6345  0.8551
 2788SOL    HW2 9264   3.205   0.642   6.917 -0.3050  1.1059  0.8758
 2789SOL     OW 9265   1.659   0.483   4.866 -0.6711 -0.0218 -0.3164
 2789SOL    HW1 9266   1.670   0.579   4.891 -0.3879  0.2682 -1.4956
 2789SOL    HW2 9267   1.735   0.430   4.904 -1.0732  0.1347  0.7226
 2790SOL     OW 9268   0.510   6.448   1.261 -0.5715  0.7962  0.1739
 2790SOL    HW1 9269   0.580   6.423   1.195 -0.5348 -0.8168  0.7746
 2790SOL    HW2 9270   0.550   6.453   1.352 -0.7665  2.3083  0.1996
 2791SOL     OW 9271   0.335   6.733   1.590 -0.5693  0.0256  0.1965
 2791SOL    HW1 9272   0.355   6.738   1.492 -0.7418 -0.9500  0.0994
 2791SOL    HW2 9273   0.272   6.806   1.615 -1.3401 -0.3272 -0.6366
 2792SOL     OW 9274   5.595   1.458   5.887  0.6244  0.4032  0.0031
 2792SOL    HW1 9275   5.637   1.370   5.909  0.0992 -0.0067 -0.6226
 2792SOL    HW2 9276   5.541   1.489   5.965  0.4893 -0.0206  0.0816
 2793SOL     OW 9277   5.882   4.787   0.720  0.3180 -0.2421 -0.6477
 2793SOL    HW1 9278   5.787   4.790   0.753  0.5453 -0.4184  0.0514
 2793SOL    HW2 9279   5.901   4.867   0.664  0.8689  1.9403  2.3548
 2794SOL     OW 9280   5.939   2.050   6.179 -0.0815  0.3779  0.1260
 2794SOL    HW1 9281   5.870   2.041   6.250  1.4213  1.1978  1.7637
 2794SOL    HW2 9282   5.922   2.133   6.126 -0.2742  0.6452  0.6053
 2795SOL     OW 9283   0.604   5.028   1.772 -0.1735  0.2741 -0.0360
 2795SOL    HW1 9284   0.625   4.949   1.715  1.7346 -0.3569  1.4205
 2795SOL    HW2 9285   0.654   5.108   1.738 -1.5119  0.6930 -1.0654
 2796SOL     OW 9286   0.328   4.061   3.130 -0.0947 -0.0026 -0.1657
 2796SOL    HW1 9287   0.383   4.080   3.049 -2.7611  3.2069 -1.5024
 2796SOL    HW2 9288   0.249   4.004   3.104  0.0183 -0.5301  0.6143
 2797SOL     OW 9289   4.295   5.481   6.825 -0.0882  0.4898  0.2512
 2797SOL    HW1 9290   4.393   5.464   6.817 -0.3638 -1.0788 -0.0450
 2797SOL    HW2 9291   4.249   5.448   6.742 -1.1185 -0.8187  1.3194
 2798SOL     OW 9292   6.665   5.532   0.530  0.6620 -0.3809 -0.0013
 2798SOL    HW1 9293   6.671   5.608   0.595  0.2994  0.1037 -0.5303
 2798SOL    HW2 9294   6.757   5.494   0.515  1.3456  1.8340 -1.9591
 2799SOL     OW 9295   4.333   5.605   5.818  0.3262  0.0119  0.2839
 2799SOL    HW1 9296   4.391   5.526   5.840  4.6429  3.0568  1.0085
 2799SOL    HW2 9297   4.357   5.640   5.728  0.8174  2.2817  1.2416
 2800SOL     OW 9298   6.906   0.018   5.448  0.3887 -0.8790  0.1680
 2800SOL    HW1 9299   6.849   0.079   5.503  0.9265 -0.3668  0.1736
 2800SOL    HW2 9300   6.917   0.056   5.356  0.1566 -1.3219 -0.0454
 2801SOL     OW 9301   1.560   4.260   5.609  0.1904  0.2913 -0.2582
 2801SOL    HW1 9302   1.527   4.295   5.697 -1.3924 -0.6480 -0.4412
 2801SOL    HW2 9303   1.551   4.160   5.608 -0.8275  0.3638 -1.8629
 2802SOL     OW 9304   6.255   6.670   6.037  0.0486  0.2781  0.4002
 2802SOL    HW1 9305   6.196   6.623   6.103 -0.2390  0.1498  0.0516
 2802SOL    HW2 9306   6.205   6.685   5.952  0.5497  0.0747  0.0646
 2803SOL     OW 9307   3.909   3.726   6.357  0.5559 -0.4629 -0.4527
 2803SOL    HW1 9308   3.856   3.723   6.442  1.7195 -1.8945  0.2745
 2803SOL    HW2 9309   3.851   3.697   6.281 -0.3114  0.1658 -0.0463
 2804SOL     OW 9310   7.006   4.560   4.488 -0.4971  0.0577  0.3167
 2804SOL    HW1 9311   7.044   4.652   4.478  1.1749 -0.4606  1.4692
 2804SOL    HW2 9312   6.909   4.562   4.466 -0.6621  2.2543  0.9535
 2805SOL     OW 9313   5.063   3.525   3.143 -0.1129 -0.0356  0.3053
 2805SOL    HW1 9314   5.124   3.580   3.199  0.1108  0.3564 -0.3279
 2805SOL    HW2 9315   5.034   3.445   3.196  1.3653 -0.5204  0.4289
 2806SOL     OW 9316   0.861   3.867   0.555  0.3334 -0.0252  0.0354
 2806SOL    HW1 9317   0.777   3.914   0.580 -0.4002 -1.3785  0.2258
 2806SOL    HW2 9318   0.863   3.776   0.598  2.0038  0.0667  0.2285
 2807SOL     OW 9319   5.515   0.204   2.046 -0.1550  0.3887  0.2949
 2807SOL    HW1 9320   5.436   0.178   2.101  0.2514 -0.3721  0.5288
 2807SOL    HW2 9321   5.487   0.212   1.950 -1.0063  2.3119  0.6343
 2808SOL     OW 9322   6.441   6.640   0.594 -0.0290  0.2872  0.2263
 2808SOL    HW1 9323   6.493   6.661   0.676  0.5092 -0.3518  0.0591
 2808SOL    HW2 9324   6.502   6.602   0.524 -0.7649 -0.8401  0.1587
 2809SOL     OW 9325   5.414   6.365   1.619 -0.8876 -0.5311 -0.0179
 2809SOL    HW1 9326   5.474   6.440   1.646 -0.7934 -0.9313  0.9410
 2809SOL    HW2 9327   5.423   6.290   1.685 -0.2144 -1.8137 -1.5128
 2810SOL     OW 9328   2.078   6.507   3.543 -0.0866 -0.2136  0.4203
 2810SOL    HW1 9329   2.098   6.491   3.446 -2.0693  0.4777 -0.1358
 2810SOL    HW2 9330   2.033   6.426   3.581 -0.2578 -0.0858  0.4879
 2811SOL     OW 9331   0.252   2.651   2.464 -0.7292  0.0451  0.0673
 2811SOL    HW1 9332   0.202   2.649   2.551  0.8518 -2.4415  1.0312
 2811SOL    HW2 9333   0.349   2.663   2.481 -0.3515 -0.7446 -1.3428
 2812SOL     OW 9334   3.154   4.581   0.581  0.0092  0.3689  0.2666
 2812SOL    HW1 9335   3.218   4.533   0.642 -1.3601 -0.5419  1.0388
 2812SOL    HW2 9336   3.109   4.655   0.631  0.0348  0.6362 -0.1031
 2813SOL     OW 9337   0.790   0.591   1.374  0.5578  0.2253 -0.2985
 2813SOL    HW1 9338   0.751   0.681   1.354 -0.0220  0.2648  0.9074
 2813SOL    HW2 9339   0.742   0.521   1.320  0.9384  0.6110 -1.1585
 2814SOL     OW 9340   3.858   4.825   5.847  0.0003 -0.0525 -0.0075
 2814SOL    HW1 9341   3.796   4.900   5.873  1.0774  0.7505  0.3125
 2814SOL    HW2 9342   3.807   4.739   5.846 -1.6927  0.8904 -2.0875
 2815SOL     OW 9343   0.364   4.455   5.052 -0.4605  0.1565  0.5307
 2815SOL    HW1 9344   0.295   4.418   4.990  1.5589  0.2629 -1.9112
 2815SOL    HW2 9345   0.416   4.380   5.093 -1.1635  0.1298  1.4297
 2816SOL     OW 9346   6.519   6.442   3.735 -0.6088 -0.0627 -0.4391
 2816SOL    HW1 9347   6.504   6.479   3.643 -1.8161 -0.7148 -0.5260
 2816SOL    HW2 9348   6.505   6.343   3.733  1.2610 -0.3845  0.0614
 2817SOL     OW 9349   4.629   6.310   2.898 -0.0840 -0.0017 -0.2802
 2817SOL    HW1 9350   4.597   6.306   2.803 -0.9485 -0.7016  0.0296
 2817SOL    HW2 9351   4.700   6.380   2.906 -0.6371  0.6941 -1.2548
 2818SOL     OW 9352   6.140   0.679   1.370  0.1689  0.1377 -0.4506
 2818SOL    HW1 9353   6.069   0.638   1.426  1.2738 -1.3109 -0.0505
 2818SOL    HW2 9354   6.099   0.737   1.300 -1.3749 -0.5578 -0.1464
 2819SOL     OW 9355   1.632   6.514   0.380 -0.3380  0.3390  0.2919
 2819SOL    HW1 9356   1.703   6.452   0.345  0.3158  0.4503  1.3531
 2819SOL    HW2 9357   1.607   6.486   0.473 -0.9220  0.9485  0.3274
 2820SOL     OW 9358   6.244   1.864   1.255  0.5500 -0.9954  0.2222
 2820SOL    HW1 9359   6.260   1.844   1.158 -1.4974  1.6836 -0.7966
 2820SOL    HW2 9360   6.321   1.916   1.291 -1.1939  3.6153 -1.9499
 2821SOL     OW 9361   1.094   4.108   5.585 -0.2551  0.1154 -0.3935
 2821SOL    HW1 9362   1.029   4.095   5.659  0.3395 -0.3821  0.0504
 2821SOL    HW2 9363   1.109   4.206   5.570 -1.1475  0.2386 -0.5520
 2822SOL     OW 9364   4.952   3.321   0.915  0.1003  0.0825 -0.2624
 2822SOL    HW1 9365   4.970   3.282   1.006  1.3935  1.5825  0.1810
 2822SOL    HW2 9366   4.880   3.389   0.921 -1.1792 -1.1811 -0.7691
 2823SOL     OW 9367   5.444   2.262   0.494 -0.1385  0.3208 -0.3793
 2823SOL    HW1 9368   5.498   2.179   0.504 -0.0863  0.2197 -1.3455
 2823SOL    HW2 9369   5.477   2.313   0.415 -1.4454  0.2434 -1.0006
 2824SOL     OW 9370   0.638   3.587   1.126  0.2787 -0.0754  0.2483
 2824SOL    HW1 9371   0.613   3.682   1.106  0.2327 -0.2239 -0.4286
 2824SOL    HW2 9372   0.704   3.584   1.200  0.5703  0.5118  0.0155
 2825SOL     OW 9373   6.459   1.281   5.870  0.9273 -0.4579  0.1165
 2825SOL    HW1 9374   6.399   1.337   5.928  1.2448  0.7902 -0.7415
 2825SOL    HW2 9375   6.405   1.239   5.798  0.7916 -0.7783  0.4020
 2826SOL     OW 9376   3.544   3.463   6.709  0.3409 -0.3409 -0.0356
 2826SOL    HW1 9377   3.478   3.426   6.644  1.2483 -0.0707 -1.1326
 2826SOL    HW2 9378   3.566   3.394   6.777 -2.9908  0.3284  1.9682
 2827SOL     OW 9379   2.273   2.008   0.678  0.6000 -0.2769  0.3038
 2827SOL    HW1 9380   2.333   1.989   0.755  1.4364  2.3077  0.3919
 2827SOL    HW2 9381   2.326   2.047   0.603 -0.5619 -0.5586 -0.7096
 2828SOL     OW 9382   1.118   2.858   1.005  0.4687 -0.0935  0.4848
 2828SOL    HW1 9383   1.094   2.761   1.008  0.4617 -0.1194 -0.2408
 2828SOL    HW2 9384   1.038   2.913   1.030  0.8290 -0.3009  2.2079
 2829SOL     OW 9385   3.497   3.897   3.877 -0.1769 -0.5613  0.1477
 2829SOL    HW1 9386   3.594   3.920   3.880 -0.0015 -1.3635  1.9139
 2829SOL    HW2 9387   3.484   3.802   3.905 -1.3504 -1.0064 -1.7183
 2830SOL     OW 9388   3.837   4.206   5.622 -0.0154 -0.4957 -0.4337
 2830SOL    HW1 9389   3.864   4.134   5.557  2.2711 -0.9752  0.9312
 2830SOL    HW2 9390   3.748   4.184   5.661 -0.1488 -1.6699 -1.3483
 2831SOL     OW 9391   5.637   3.444   3.553 -0.3044 -0.5790 -0.3490
 2831SOL    HW1 9392   5.627   3.520   3.618  0.0105 -1.0100  0.2082
 2831SOL    HW2 9393   5.635   3.357   3.602  5.2421 -0.9000 -0.0581
 2832SOL     OW 9394   5.313   4.312   1.272  0.0104 -0.5281 -0.4184
 2832SOL    HW1 9395   5.400   4.300   1.223 -1.1546  0.3039 -2.8208
 2832SOL    HW2 9396   5.250   4.239   1.245 -0.6437 -0.0858 -0.0967
 2833SOL     OW 9397   1.741   0.949   1.963 -0.4000 -0.3101  0.0253
 2833SOL    HW1 9398   1.794   0.993   1.890 -0.1830 -1.9342 -0.8354
 2833SOL    HW2 9399   1.761   0.993   2.050 -1.5263  2.4583 -0.9946
 2834SOL     OW 9400   4.046   5.427   4.690 -0.3826 -0.2153  0.1920
 2834SOL    HW1 9401   4.116   5.389   4.750 -0.5659 -1.9926 -0.6393
 2834SOL    HW2 9402   3.971   5.466   4.745 -0.1808 -1.0874  1.1010
 2835SOL     OW 9403   0.465   5.304   0.019  0.7261  0.5137  0.4162
 2835SOL    HW1 9404   0.389   5.330  -0.040  0.7594 -0.8846 -0.2845
 2835SOL    HW2 9405   0.551   5.309  -0.032  0.9604  0.8648  0.8345
 2836SOL     OW 9406   3.090   5.752   2.582 -0.3379 -0.2534  0.7044
 2836SOL    HW1 9407   3.138   5.685   2.526  1.6507  1.4633  0.2044
 2836SOL    HW2 9408   3.043   5.706   2.657  0.9239 -2.1840  0.3676
 2837SOL     OW 9409   4.764   4.910   2.873 -0.4149  0.1241  0.3382
 2837SOL    HW1 9410   4.737   4.859   2.791  0.0873  1.9118 -1.0118
 2837SOL    HW2 9411   4.682   4.934   2.925 -0.6975 -1.5408  0.7222
 2838SOL     OW 9412   4.567   2.989   0.358  0.1153 -0.4068  0.0761
 2838SOL    HW1 9413   4.523   2.926   0.293 -0.0728 -0.6104  0.3992
 2838SOL    HW2 9414   4.496   3.033   0.413  0.1702  0.7898 -0.7730
 2839SOL     OW 9415   6.427   5.505   2.173  0.2539  0.2618 -0.0467
 2839SOL    HW1 9416   6.526   5.521   2.168  0.1342  0.8039 -0.9134
 2839SOL    HW2 9417   6.395   5.467   2.086 -0.2868 -0.0117  0.2677
 2840SOL     OW 9418   0.859   5.206   1.719  0.0244 -0.1422 -0.0672
 2840SOL    HW1 9419   0.885   5.196   1.623 -1.4164 -0.1090 -0.4862
 2840SOL    HW2 9420   0.896   5.130   1.771  3.2091  1.2650 -0.0658
 2841SOL     OW 9421   5.866   4.271   1.331  0.3190  0.6058  0.3751
 2841SOL    HW1 9422   5.813   4.316   1.403 -0.0547 -0.1323  0.5677
 2841SOL    HW2 9423   5.963   4.291   1.345  0.1127  1.9459  0.0302
 2842SOL     OW 9424   1.696   6.979   5.245  0.0427  0.3742 -0.4723
 2842SOL    HW1 9425   1.651   6.985   5.156 -0.0983 -0.6949 -0.4853
 2842SOL    HW2 9426   1.729   6.886   5.260  1.9786  1.0400 -0.3202
 2843SOL     OW 9427   1.473   2.676   1.712  0.3864  0.3897  0.0348
 2843SOL    HW1 9428   1.433   2.622   1.638  2.3035  0.0576 -0.8102
 2843SOL    HW2 9429   1.560   2.716   1.682  2.4457 -1.6513  2.7588
 2844SOL     OW 9430   4.322   3.709   0.934  0.3090 -0.2798  0.5403
 2844SOL    HW1 9431   4.270   3.732   0.852 -0.0589  0.2955  0.9245
 2844SOL    HW2 9432   4.418   3.695   0.910  0.3019  0.3839  0.0847
 2845SOL     OW 9433   3.113   5.488   1.719  0.1769  0.2171 -0.5066
 2845SOL    HW1 9434   3.134   5.522   1.628  0.9980  2.3738  0.4054
 2845SOL    HW2 9435   3.192   5.441   1.757  0.7847  1.5861  0.0135
 2846SOL     OW 9436   1.809   0.785   1.046 -0.4475 -0.1849  0.3355
 2846SOL    HW1 9437   1.795   0.847   0.969  1.8582 -0.1760 -0.1383
 2846SOL    HW2 9438   1.746   0.809   1.120 -0.1142  2.2453 -0.0968
 2847SOL     OW 9439   3.716   4.952   2.752 -0.1873  0.1788 -0.2606
 2847SOL    HW1 9440   3.617   4.938   2.754 -0.2415  0.5215 -0.4207
 2847SOL    HW2 9441   3.752   4.924   2.664  0.1248 -1.6080  0.3957
 2848SOL     OW 9442   0.653   2.178   4.460  0.1169  0.2679 -0.3892
 2848SOL    HW1 9443   0.575   2.131   4.418  1.3830 -1.0077 -1.4097
 2848SOL    HW2 9444   0.692   2.120   4.532 -2.2890  2.5798  3.1139
 2849SOL     OW 9445   2.829   0.984   2.297  0.6576 -0.4108 -0.1771
 2849SOL    HW1 9446   2.767   0.941   2.232  0.9228 -3.1974  1.2353
 2849SOL    HW2 9447   2.921   0.946   2.285  1.4019  1.2851 -0.1387
 2850SOL     OW 9448   2.480   1.672   2.844 -0.6489 -0.8020  0.3379
 2850SOL    HW1 9449   2.458   1.756   2.894 -1.0189 -0.9171  0.3683
 2850SOL    HW2 9450   2.516   1.696   2.754 -1.4980 -0.6205  0.0370
 2851SOL     OW 9451   3.501   1.991   0.132 -0.0585  0.0497 -0.7373
 2851SOL    HW1 9452   3.454   1.909   0.166 -2.2765  0.2432 -3.0101
 2851SOL    HW2 9453   3.595   1.969   0.109  0.1257 -1.1907  1.0144
 2852SOL     OW 9454   6.789   5.424   6.350  0.6288 -0.5236  0.3530
 2852SOL    HW1 9455   6.767   5.476   6.433  0.2571 -0.1518  0.0259
 2852SOL    HW2 9456   6.705   5.402   6.301  0.9265  0.5361 -0.6879
 2853SOL     OW 9457   0.402   3.521   1.561  0.0622 -0.5406 -0.5592
 2853SOL    HW1 9458   0.317   3.469   1.568 -0.0988 -0.5718 -2.2514
 2853SOL    HW2 9459   0.396   3.583   1.483  0.2938  1.9653  1.2916
 2854SOL     OW 9460   4.211   0.939   5.342 -0.3235 -0.3324  0.1212
 2854SOL    HW1 9461   4.306   0.912   5.356  0.4418  2.4544  1.0336
 2854SOL    HW2 9462   4.179   0.990   5.422 -0.9243  2.9353 -2.0033
 2855SOL     OW 9463   0.301   1.977   4.905 -0.3633  0.5306  0.4599
 2855SOL    HW1 9464   0.390   2.015   4.931  0.5855  0.1199 -1.9400
 2855SOL    HW2 9465   0.245   2.048   4.863  0.2062  0.0494 -1.1782
 2856SOL     OW 9466   2.060   2.623   5.318 -0.6012  0.3737  0.3428
 2856SOL    HW1 9467   2.104   2.555   5.377  0.7956  0.9313 -0.0173
 2856SOL    HW2 9468   2.051   2.710   5.368  0.6539  0.8694 -0.2566
 2857SOL     OW 9469   0.007   1.077   4.939 -0.8791  0.1149  0.1213
 2857SOL    HW1 9470   0.014   1.015   5.017 -0.1974 -1.6154 -1.2418
 2857SOL    HW2 9471   0.097   1.086   4.895 -1.5143 -0.0249 -1.2524
 2858SOL     OW 9472   5.891   0.955   0.878  0.8137  0.0667  0.0137
 2858SOL    HW1 9473   5.889   0.855   0.884  0.9535 -0.0034 -0.9585
 2858SOL    HW2 9474   5.954   0.983   0.805  0.8322  0.8666  0.3321
 2859SOL     OW 9475   5.916   0.534   1.419 -0.3032  0.4967 -0.1218
 2859SOL    HW1 9476   5.850   0.591   1.369 -0.3886 -0.6634 -1.3861
 2859SOL    HW2 9477   5.881   0.442   1.428 -0.1798  0.6119  1.9531
 2860SOL     OW 9478   0.940   1.241   1.390  0.3574  0.0066 -0.4160
 2860SOL    HW1 9479   0.860   1.215   1.335  0.2310  0.0449 -0.2509
 2860SOL    HW2 9480   0.912   1.306   1.460  0.2010 -1.2020  0.6933
 2861SOL     OW 9481   3.055   5.441   5.413  0.5430 -0.0328  0.1685
 2861SOL    HW1 9482   3.037   5.538   5.427 -0.4800  0.1977 -2.2263
 2861SOL    HW2 9483   3.023   5.414   5.322 -0.9031 -3.0409  1.4200
 2862SOL     OW 9484   5.127   3.445   2.206  1.0827 -0.0982  0.2779
 2862SOL    HW1 9485   5.149   3.543   2.205 -0.6407  0.3219 -0.3568
 2862SOL    HW2 9486   5.029   3.433   2.188  0.8788 -1.8568  2.1668
 2863SOL     OW 9487   6.097   1.332   6.805 -0.2994  0.0158 -0.0873
 2863SOL    HW1 9488   6.003   1.348   6.775 -0.7011 -0.5435  0.8173
 2863SOL    HW2 9489   6.099   1.329   6.905  0.3532 -1.8273 -0.1257
 2864SOL     OW 9490   3.866   2.125   2.316 -0.0493  0.2091  0.5800
 2864SOL    HW1 9491   3.825   2.034   2.319  0.5349 -0.1014 -0.4808
 2864SOL    HW2 9492   3.821   2.180   2.245 -0.0062  0.5653  0.8224
 2865SOL     OW 9493   5.969   6.480   4.711  0.1915  0.6380 -0.2944
 2865SOL    HW1 9494   5.972   6.448   4.616  1.5083  0.6698 -0.2770
 2865SOL    HW2 9495   6.059   6.470   4.753 -0.7642 -1.0426  1.5342
 2866SOL     OW 9496   4.553   2.500   5.875 -0.3976  0.1972  0.1663
 2866SOL    HW1 9497   4.559   2.597   5.852 -2.8797  0.4657  0.4144
 2866SOL    HW2 9498   4.548   2.446   5.791  1.6427  0.1635  0.0082
 2867SOL     OW 9499   0.519   0.745   1.516 -0.4735  0.2313  0.1877
 2867SOL    HW1 9500   0.607   0.788   1.497 -0.5470  0.1448 -0.3419
 2867SOL    HW2 9501   0.466   0.737   1.432 -0.8852  0.0481  0.4597
 2868SOL     OW 9502   5.406   2.294   0.016  0.2147 -0.1805  0.6424
 2868SOL    HW1 9503   5.472   2.300  -0.058 -0.3273  0.1914  0.1841
 2868SOL    HW2 9504   5.346   2.216   0.002  0.3200 -0.3033  0.8637
 2869SOL     OW 9505   0.260   1.484   3.077  0.2502 -0.1432  0.7862
 2869SOL    HW1 9506   0.225   1.561   3.024  1.2273 -1.0032 -1.2082
 2869SOL    HW2 9507   0.221   1.399   3.043  0.2522 -0.6668  2.0342
 2870SOL     OW 9508   1.312   2.532   0.468 -0.0163 -0.0629  0.2347
 2870SOL    HW1 9509   1.215   2.553   0.477 -0.1981 -0.2781 -1.0288
 2870SOL    HW2 9510   1.359   2.609   0.424  0.5622  0.4014  1.6228
 2871SOL     OW 9511   0.324   1.304   6.929 -0.0142  0.5287 -0.4111
 2871SOL    HW1 9512   0.375   1.274   7.010 -0.3374  0.8708 -0.0799
 2871SOL    HW2 9513   0.354   1.395   6.901  1.1931 -0.1951 -1.6106
 2872SOL     OW 9514   4.654   2.883   6.977 -0.0492  0.8521  0.0418
 2872SOL    HW1 9515   4.712   2.953   7.017  1.5898 -0.5312  0.2222
 2872SOL    HW2 9516   4.683   2.865   6.883  0.8370 -0.8733  0.6060
 2873SOL     OW 9517   0.499   6.886   1.959  0.5888  0.4990 -0.3988
 2873SOL    HW1 9518   0.489   6.831   1.876  2.3852  1.7848 -1.5391
 2873SOL    HW2 9519   0.513   6.826   2.038 -3.7870 -0.9212 -0.4076
 2874SOL     OW 9520   4.722   6.948   3.539 -0.3025 -0.7870 -0.0742
 2874SOL    HW1 9521   4.777   7.008   3.597 -1.1270 -0.7835  0.7296
 2874SOL    HW2 9522   4.686   6.999   3.462 -0.8691 -0.2829  0.5201
 2875SOL     OW 9523   5.786   1.670   2.570  0.1069 -0.5876 -0.1675
 2875SOL    HW1 9524   5.774   1.596   2.504 -0.7682 -1.5884  1.0708
 2875SOL    HW2 9525   5.788   1.758   2.522 -0.2266 -1.3011 -1.5372
 2876SOL     OW 9526   1.362   1.335   1.371 -0.6434  0.6253  0.2488
 2876SOL    HW1 9527   1.358   1.303   1.465 -1.4763  0.2395  0.0961
 2876SOL    HW2 9528   1.290   1.404   1.356 -1.7520 -0.6615 -0.5733
 2877SOL     OW 9529   1.946   0.345   0.865  0.2217 -0.5670 -0.5995
 2877SOL    HW1 9530   1.850   0.332   0.841  0.3298 -1.8619 -0.3880
 2877SOL    HW2 9531   2.001   0.352   0.781 -0.1053  0.8129 -0.7323
 2878SOL     OW 9532   3.652   4.064   6.043 -0.3035 -0.1649 -0.0798
 2878SOL    HW1 9533   3.558   4.045   6.017 -0.1626 -0.3845 -0.4406
 2878SOL    HW2 9534   3.674   4.015   6.128 -0.6370  0.2148  0.2277
 2879SOL     OW 9535   3.863   4.961   6.734  0.0405  0.2934  0.1078
 2879SOL    HW1 9536   3.794   4.899   6.771  1.1716 -1.7879 -1.0786
 2879SOL    HW2 9537   3.838   4.989   6.641  0.0627  0.7740  0.2411
 2880SOL     OW 9538   0.965   0.196   4.866 -0.4407 -0.4445  0.0165
 2880SOL    HW1 9539   0.933   0.291   4.855  1.7488  0.4740  0.9266
 2880SOL    HW2 9540   0.893   0.141   4.908 -1.3859  1.0930  0.4919
 2881SOL     OW 9541   4.296   4.408   5.999  0.0067 -0.0425 -0.2609
 2881SOL    HW1 9542   4.240   4.470   5.944  0.1950  0.8413  0.5081
 2881SOL    HW2 9543   4.285   4.314   5.965 -1.1857  0.2391 -0.7280
 2882SOL     OW 9544   5.639   5.239   0.316  0.3252  0.3790  0.0412
 2882SOL    HW1 9545   5.723   5.263   0.266  0.2195  1.5486  0.4015
 2882SOL    HW2 9546   5.586   5.174   0.261 -0.4715  2.6735 -2.0850
 2883SOL     OW 9547   6.203   6.685   2.862 -0.1731  0.1111  0.4751
 2883SOL    HW1 9548   6.129   6.618   2.868 -0.7219  0.7923  2.0680
 2883SOL    HW2 9549   6.165   6.777   2.872  0.8032  0.5186  0.5539
 2884SOL     OW 9550   6.483   6.600   2.423  0.1854 -0.1786  0.1415
 2884SOL    HW1 9551   6.541   6.608   2.342  0.3601  0.9670  0.3609
 2884SOL    HW2 9552   6.510   6.669   2.490 -1.1534  0.1025  0.4145
 2885SOL     OW 9553   1.268   2.469   5.014  0.2013  0.2015 -0.0951
 2885SOL    HW1 9554   1.306   2.473   4.921  0.9641 -1.4251  0.0967
 2885SOL    HW2 9555   1.168   2.470   5.009  0.2306 -0.1331 -0.9625
 2886SOL     OW 9556   0.427   4.737   6.185  0.3527 -0.4052 -0.1153
 2886SOL    HW1 9557   0.430   4.773   6.278  0.7508 -0.1420 -0.2294
 2886SOL    HW2 9558   0.503   4.673   6.171 -0.1042 -0.9719 -0.0465
 2887SOL     OW 9559   6.649   4.378   5.037  0.1676  0.6808 -0.3248
 2887SOL    HW1 9560   6.692   4.315   4.972 -1.3827 -0.8593  0.0671
 2887SOL    HW2 9561   6.700   4.464   5.038  2.5018 -0.5987 -0.7278
 2888SOL     OW 9562   3.726   5.062   0.394  0.0197  0.7432  0.1916
 2888SOL    HW1 9563   3.758   5.136   0.335 -1.3551 -0.2714 -1.9465
 2888SOL    HW2 9564   3.740   4.974   0.348 -1.6631 -0.0427  1.1040
 2889SOL     OW 9565   3.708   6.950   3.190 -0.5011  0.0125 -0.7815
 2889SOL    HW1 9566   3.807   6.958   3.182 -0.1551 -0.2950  1.9859
 2889SOL    HW2 9567   3.670   6.916   3.104  1.9002 -0.7179 -1.6438
 2890SOL     OW 9568   1.335   4.784   0.113 -0.0159  0.1978  0.1929
 2890SOL    HW1 9569   1.292   4.720   0.178  0.0450 -1.3669 -1.2165
 2890SOL    HW2 9570   1.379   4.731   0.040  1.4503  1.8649 -0.1760
 2891SOL     OW 9571   1.841   2.716   3.476 -0.2472 -0.1594  0.3818
 2891SOL    HW1 9572   1.860   2.814   3.472  1.4424 -0.4777 -1.7461
 2891SOL    HW2 9573   1.928   2.665   3.476 -1.0735 -1.6491 -0.3500
 2892SOL     OW 9574   6.170   4.583   0.205 -0.4680 -0.2743  0.2716
 2892SOL    HW1 9575   6.100   4.511   0.212  1.8917 -2.9211 -1.0358
 2892SOL    HW2 9576   6.260   4.540   0.200  1.3154  2.9793  1.7705
 2893SOL     OW 9577   2.863   5.873   3.629 -0.4395  0.2575  0.6873
 2893SOL    HW1 9578   2.853   5.774   3.633  0.0154  0.2299  1.2643
 2893SOL    HW2 9579   2.796   5.916   3.689 -2.0620  0.4108 -1.1447
 2894SOL     OW 9580   3.000   3.462   0.076  0.0525  0.3132 -0.1516
 2894SOL    HW1 9581   2.999   3.536   0.143 -2.8505  1.0002 -0.7951
 2894SOL    HW2 9582   2.999   3.374   0.124 -1.7409  0.7946  0.7968
 2895SOL     OW 9583   3.956   1.098   0.181 -0.1233  0.4749 -0.3961
 2895SOL    HW1 9584   3.858   1.080   0.184 -0.0955  0.4913  1.5578
 2895SOL    HW2 9585   3.996   1.085   0.272  1.5756  1.1175 -1.0006
 2896SOL     OW 9586   6.584   6.332   5.376 -0.0226  0.3991  0.1487
 2896SOL    HW1 9587   6.557   6.398   5.306  2.0426  1.0583 -0.1077
 2896SOL    HW2 9588   6.609   6.246   5.332 -1.4060 -0.1364  0.3639
 2897SOL     OW 9589   5.939   6.297   3.916  0.1877  0.2355  0.2581
 2897SOL    HW1 9590   5.889   6.383   3.913 -0.3506 -0.0094  1.5169
 2897SOL    HW2 9591   5.902   6.234   3.847  0.2949  0.8348 -0.3637
 2898SOL     OW 9592   4.975   4.120   3.252  0.2876  0.2058 -0.3032
 2898SOL    HW1 9593   4.933   4.035   3.219 -0.2554  0.6411 -0.7596
 2898SOL    HW2 9594   4.933   4.146   3.339 -0.2092  0.4965 -0.6246
 2899SOL     OW 9595   5.871   3.225   1.359  0.0044 -0.4261 -0.1734
 2899SOL    HW1 9596   5.851   3.269   1.271  0.2101 -0.5640 -0.2892
 2899SOL    HW2 9597   5.970   3.216   1.370  0.0416  0.9948  0.7658
 2900SOL     OW 9598   3.594   4.158   6.804 -0.2350  0.9207  0.4031
 2900SOL    HW1 9599   3.681   4.199   6.778 -2.0870  4.3427 -1.0618
 2900SOL    HW2 9600   3.566   4.092   6.735  0.7971  0.3785  0.4879
 2901SOL     OW 9601   1.529   5.819   3.011  0.5316 -0.1645  0.2836
 2901SOL    HW1 9602   1.608   5.821   3.072  0.7218 -1.2706  0.0999
 2901SOL    HW2 9603   1.449   5.785   3.061  0.3575  0.2207  0.2695
 2902SOL     OW 9604   0.738   6.323   3.030  0.1625  0.5648  0.3930
 2902SOL    HW1 9605   0.646   6.358   3.009  0.4042  0.6357 -0.5805
 2902SOL    HW2 9606   0.794   6.398   3.066  0.0632  0.7111  0.2488
 2903SOL     OW 9607   4.765   6.359   0.583  0.3129 -0.0198  0.0518
 2903SOL    HW1 9608   4.752   6.458   0.590 -0.3961 -0.0544 -0.6902
 2903SOL    HW2 9609   4.862   6.339   0.575  0.3928  0.7075 -1.0893
 2904SOL     OW 9610   3.859   5.125   5.047 -0.1170 -0.3476  0.4966
 2904SOL    HW1 9611   3.902   5.036   5.030 -1.4011 -0.9102  0.0584
 2904SOL    HW2 9612   3.905   5.171   5.122 -0.7043 -2.2973  2.1269
 2905SOL     OW 9613   2.383   4.725   4.558  0.5105  0.3918 -0.5871
 2905SOL    HW1 9614   2.294   4.717   4.514  1.0275 -1.2655 -1.3993
 2905SOL    HW2 9615   2.444   4.781   4.502  1.0716 -1.4585 -1.9368
 2906SOL     OW 9616   6.606   5.504   3.485 -0.0686  0.3135  0.3948
 2906SOL    HW1 9617   6.591   5.528   3.581  0.8059  0.5387  0.4895
 2906SOL    HW2 9618   6.655   5.417   3.480  1.5015  1.1600  0.2413
 2907SOL     OW 9619   0.160   0.985   4.586  0.2409  0.1809  0.8612
 2907SOL    HW1 9620   0.260   0.974   4.590  0.3618  0.4239 -0.7091
 2907SOL    HW2 9621   0.116   0.899   4.612  0.8372  0.2190  2.0394
 2908SOL     OW 9622   6.724   0.238   4.061 -0.5416  0.0588  0.0867
 2908SOL    HW1 9623   6.673   0.259   4.144  0.0452  0.3050  0.3916
 2908SOL    HW2 9624   6.742   0.322   4.010 -0.1228  0.0281  0.1729
 2909SOL     OW 9625   0.733   6.543   2.398 -0.3701 -0.0139 -0.5285
 2909SOL    HW1 9626   0.741   6.444   2.408 -0.3139 -0.1038 -1.4517
 2909SOL    HW2 9627   0.643   6.566   2.362  0.3228  0.1220 -2.2326
 2910SOL     OW 9628   5.377   6.304   4.708 -0.3522  0.1872 -0.1638
 2910SOL    HW1 9629   5.299   6.364   4.691  0.5989  0.9869 -1.9627
 2910SOL    HW2 9630   5.448   6.356   4.755 -0.6095 -0.3612  0.8693
 2911SOL     OW 9631   2.312   6.162   5.674 -0.5798  0.2143  0.6191
 2911SOL    HW1 9632   2.250   6.189   5.748 -1.5354 -2.5609  0.9273
 2911SOL    HW2 9633   2.390   6.114   5.712 -0.8923 -0.9142 -0.1105
 2912SOL     OW 9634   6.965   6.719   5.827  0.1855 -0.0307  0.3550
 2912SOL    HW1 9635   6.870   6.735   5.854 -0.1827 -0.9389 -0.3331
 2912SOL    HW2 9636   7.003   6.645   5.883 -0.0040 -0.6823 -0.3521
 2913SOL     OW 9637   3.329   5.375   2.610 -0.1283 -0.4294 -0.2060
 2913SOL    HW1 9638   3.342   5.316   2.530 -0.0398  0.5143 -0.8945
 2913SOL    HW2 9639   3.397   5.352   2.680 -0.7506 -1.8487 -0.0297
 2914SOL     OW 9640   4.315   4.503   1.722 -0.0998 -0.0536 -0.3770
 2914SOL    HW1 9641   4.332   4.441   1.799  0.7354 -1.4193 -1.6152
 2914SOL    HW2 9642   4.216   4.516   1.712 -0.3732 -2.1287 -0.7675
 2915SOL     OW 9643   2.994   2.207   3.231 -0.3355  0.3515  0.2405
 2915SOL    HW1 9644   3.017   2.197   3.134 -0.8405  0.2559  0.1315
 2915SOL    HW2 9645   3.054   2.147   3.285  0.3774  0.8765  0.0470
 2916SOL     OW 9646   1.372   5.279   1.967 -0.3903 -0.0019  0.3655
 2916SOL    HW1 9647   1.363   5.331   2.051  0.4317  0.9258 -0.1024
 2916SOL    HW2 9648   1.310   5.200   1.969 -0.8089  0.3489  1.5669
 2917SOL     OW 9649   3.823   6.689   5.379 -0.3568  0.3594  0.0189
 2917SOL    HW1 9650   3.791   6.594   5.384 -0.5138  0.3665 -0.7543
 2917SOL    HW2 9651   3.794   6.729   5.292  0.3710  0.8770  0.0120
 2918SOL     OW 9652   5.221   5.102   5.846 -0.3175  0.0829 -0.3878
 2918SOL    HW1 9653   5.153   5.064   5.783  0.2255 -2.1363  0.2417
 2918SOL    HW2 9654   5.277   5.027   5.882  0.3824  1.4707  1.5495
 2919SOL     OW 9655   5.642   0.204   3.237 -0.4455 -0.6720 -0.1967
 2919SOL    HW1 9656   5.717   0.237   3.294  0.1547  1.9272 -2.2682
 2919SOL    HW2 9657   5.558   0.200   3.291  0.9380 -2.9296  1.9739
 2920SOL     OW 9658   4.711   6.511   2.581  0.7701 -0.2846 -0.8554
 2920SOL    HW1 9659   4.730   6.416   2.607 -0.1123  0.2379  2.0072
 2920SOL    HW2 9660   4.615   6.518   2.551  0.9437 -0.3447 -1.4393
 2921SOL     OW 9661   4.020   1.006   0.436 -0.0483 -0.1464 -0.2585
 2921SOL    HW1 9662   3.991   1.063   0.512 -0.5575  0.4632 -0.8937
 2921SOL    HW2 9663   3.946   0.944   0.410 -0.0930  0.0572 -0.6308
 2922SOL     OW 9664   2.451   0.824   0.363  0.3761 -0.3990  0.5349
 2922SOL    HW1 9665   2.524   0.756   0.373 -0.8486 -1.5906  1.9303
 2922SOL    HW2 9666   2.420   0.852   0.454 -0.7451  0.2628 -0.0339
 2923SOL     OW 9667   1.300   5.285   5.660 -0.1563  0.1031 -0.9751
 2923SOL    HW1 9668   1.345   5.222   5.724  1.7842  2.2789 -0.0684
 2923SOL    HW2 9669   1.350   5.288   5.574  0.3937  1.1430 -0.6366
 2924SOL     OW 9670   5.219   0.892   4.521 -0.1117 -0.5525 -0.8220
 2924SOL    HW1 9671   5.264   0.964   4.467 -0.0690 -0.1089 -0.2008
 2924SOL    HW2 9672   5.276   0.870   4.601 -1.3483  0.5788  0.4146
 2925SOL     OW 9673   6.337   2.474   0.350  0.5638 -0.2019 -0.0890
 2925SOL    HW1 9674   6.430   2.438   0.339  0.9861  1.0388 -0.8145
 2925SOL    HW2 9675   6.341   2.573   0.366 -0.6358 -0.1392 -0.0557
 2926SOL     OW 9676   5.480   2.298   5.439 -0.0937 -0.5667  0.5941
 2926SOL    HW1 9677   5.531   2.260   5.516  1.7048  1.2585  0.3925
 2926SOL    HW2 9678   5.544   2.330   5.369 -1.5822  0.4646 -0.3624
 2927SOL     OW 9679   2.350   1.497   0.806  0.5277 -0.2798 -0.4670
 2927SOL    HW1 9680   2.354   1.562   0.882 -0.3250 -1.5841  0.7587
 2927SOL    HW2 9681   2.358   1.404   0.842 -2.4640 -1.0966 -1.6217
 2928SOL     OW 9682   6.741   3.315   5.455 -0.4064  0.3505  0.1657
 2928SOL    HW1 9683   6.814   3.354   5.510 -0.4946  0.8380 -0.0511
 2928SOL    HW2 9684   6.673   3.272   5.515 -0.0244  0.0316  0.3743
 2929SOL     OW 9685   0.388   1.244   5.057  0.4054  0.2664  0.3356
 2929SOL    HW1 9686   0.401   1.151   5.025  0.6678  0.8822 -1.4870
 2929SOL    HW2 9687   0.477   1.288   5.067  0.3094  0.2064  1.6409
 2930SOL     OW 9688   1.002   0.127   4.245  0.9279 -0.3339 -0.0737
 2930SOL    HW1 9689   0.987   0.169   4.156  1.4684  0.4165  0.1849
 2930SOL    HW2 9690   0.942   0.048   4.255 -1.7360  1.6197  0.3034
 2931SOL     OW 9691   4.672   6.002   6.261 -0.1469  0.4232  0.1650
 2931SOL    HW1 9692   4.597   5.961   6.209 -0.5552  0.9238  0.3546
 2931SOL    HW2 9693   4.739   5.931   6.284 -1.4534 -0.4111  1.5502
 2932SOL     OW 9694   6.428   4.056   1.099 -0.2309 -0.0323  0.6629
 2932SOL    HW1 9695   6.482   4.140   1.104  0.8342 -0.6402 -0.1352
 2932SOL    HW2 9696   6.488   3.979   1.079 -1.5984 -0.3942 -2.9590
 2933SOL     OW 9697   0.815   6.678   0.017  0.0632 -0.2326  0.2274
 2933SOL    HW1 9698   0.794   6.649   0.110 -1.6520 -0.6690 -0.2617
 2933SOL    HW2 9699   0.855   6.601  -0.033  0.0572 -0.3008  0.3261
 2934SOL     OW 9700   4.930   3.380   1.585 -0.2107  0.9730  0.2306
 2934SOL    HW1 9701   4.968   3.289   1.596 -2.6198 -0.2817 -1.0743
 2934SOL    HW2 9702   4.862   3.396   1.657 -0.0421  1.6104  0.2527
 2935SOL     OW 9703   0.016   3.878   5.283  0.1852 -0.0262 -0.6814
 2935SOL    HW1 9704   0.072   3.905   5.204  1.4546 -0.5205  0.0310
 2935SOL    HW2 9705   0.052   3.921   5.365 -1.9628  1.6270 -0.5068
 2936SOL     OW 9706   4.667   6.819   1.534 -0.4989 -0.0345 -0.2611
 2936SOL    HW1 9707   4.727   6.880   1.483  0.1883 -0.0981  0.4374
 2936SOL    HW2 9708   4.698   6.724   1.522 -0.0275 -0.0123  0.6250
 2937SOL     OW 9709   4.901   6.175   6.676  0.1457 -0.6288 -0.0221
 2937SOL    HW1 9710   4.986   6.178   6.624 -0.0234  0.8930 -0.2471
 2937SOL    HW2 9711   4.888   6.083   6.713  1.1468 -1.2649 -1.1914
 2938SOL     OW 9712   0.106   4.996   5.529  0.0143 -0.5305 -0.4764
 2938SOL    HW1 9713   0.015   4.964   5.502 -0.3379  0.5668 -0.6209
 2938SOL    HW2 9714   0.132   4.954   5.616 -0.5079 -1.0640 -0.5732
 2939SOL     OW 9715   1.073   6.390   1.788 -0.1247 -0.4283 -0.2484
 2939SOL    HW1 9716   1.119   6.455   1.848 -0.0163 -1.6817  1.0789
 2939SOL    HW2 9717   1.030   6.318   1.843 -3.3328  0.4068 -1.3973
 2940SOL     OW 9718   0.973   4.706   4.972 -0.2704 -0.2827 -0.0583
 2940SOL    HW1 9719   0.982   4.767   4.893  0.4492  0.2853  0.4578
 2940SOL    HW2 9720   0.912   4.748   5.039 -0.4787 -0.5379 -0.0843
 2941SOL     OW 9721   2.206   2.186   4.462 -0.0212  0.0901 -0.1241
 2941SOL    HW1 9722   2.148   2.265   4.440  0.4167  0.4267 -0.0958
 2941SOL    HW2 9723   2.209   2.174   4.561 -0.0336  0.0807 -0.1251
 2942SOL     OW 9724   3.694   1.223   1.304  0.1016 -0.2023 -0.2235
 2942SOL    HW1 9725   3.696   1.160   1.226 -1.0056  0.6347 -0.9673
 2942SOL    HW2 9726   3.785   1.263   1.317  0.1985  0.0223 -1.4310
 2943SOL     OW 9727   5.966   5.584   4.138  0.5281 -0.3328  0.2154
 2943SOL    HW1 9728   5.943   5.493   4.173 -0.1702  0.1861  1.1413
 2943SOL    HW2 9729   6.049   5.578   4.083 -0.6967 -1.9398 -1.6104
 2944SOL     OW 9730   3.221   5.333   3.824  0.1930  0.4624 -0.1680
 2944SOL    HW1 9731   3.216   5.257   3.760 -1.1508  1.8516 -1.8200
 2944SOL    HW2 9732   3.158   5.317   3.900 -0.7985  0.3280 -0.9939
 2945SOL     OW 9733   4.964   2.146   0.863  0.0963 -0.3270  0.3842
 2945SOL    HW1 9734   5.037   2.087   0.829 -1.0931 -1.7171  0.1146
 2945SOL    HW2 9735   4.987   2.180   0.954  0.4595 -1.9067  0.9129
 2946SOL     OW 9736   1.731   3.119   5.114  0.0750  0.3343 -0.3606
 2946SOL    HW1 9737   1.788   3.189   5.070 -0.0326 -0.2080 -1.3954
 2946SOL    HW2 9738   1.775   3.030   5.105 -0.5159  0.0436 -0.3894
 2947SOL     OW 9739   0.471   5.476   0.244  0.3812 -0.4290  0.7031
 2947SOL    HW1 9740   0.387   5.507   0.287  0.0921 -0.1264 -0.0669
 2947SOL    HW2 9741   0.450   5.422   0.162  0.9372  0.5144 -0.0851
 2948SOL     OW 9742   6.309   4.927   3.340 -0.0689  0.2472 -0.4545
 2948SOL    HW1 9743   6.358   4.954   3.423  0.8985  0.0912 -0.9668
 2948SOL    HW2 9744   6.326   4.994   3.268 -1.9176  1.0678 -0.1817
 2949SOL     OW 9745   0.269   1.782   5.755 -0.4060  0.5441  0.1673
 2949SOL    HW1 9746   0.334   1.706   5.766  0.6562  1.7042  2.5783
 2949SOL    HW2 9747   0.239   1.786   5.659  2.5689 -0.4314 -0.9232
 2950SOL     OW 9748   6.759   5.412   4.355  0.3281 -0.0442  0.1051
 2950SOL    HW1 9749   6.752   5.323   4.310 -0.6372  0.6037 -1.0881
 2950SOL    HW2 9750   6.856   5.435   4.368  0.6106 -0.7097 -0.7442
 2951SOL     OW 9751   6.371   0.064   1.442  0.1391  0.3995 -0.1255
 2951SOL    HW1 9752   6.275   0.075   1.466 -0.6180 -0.5627 -2.4308
 2951SOL    HW2 9753   6.425   0.137   1.485 -1.2950 -0.0548  2.6523
 2952SOL     OW 9754   6.769   0.830   4.655  0.3133 -0.9755 -0.0416
 2952SOL    HW1 9755   6.800   0.924   4.639 -0.0029 -0.8541  0.0372
 2952SOL    HW2 9756   6.765   0.781   4.568 -0.4483 -0.6175 -0.2164
 2953SOL     OW 9757   0.830   5.621   4.432 -0.1791  0.2037 -0.3124
 2953SOL    HW1 9758   0.867   5.533   4.462  0.5208  0.5645 -0.0799
 2953SOL    HW2 9759   0.745   5.607   4.382  1.4584 -0.9213 -3.0170
 2954SOL     OW 9760   1.177   6.029   0.060 -0.0274  0.3082  0.1600
 2954SOL    HW1 9761   1.099   6.024  -0.002  0.1178  1.0839 -0.0936
 2954SOL    HW2 9762   1.163   6.104   0.125 -0.0630 -0.3370  0.9096
 2955SOL     OW 9763   1.066   5.312   0.048  0.2817  1.1295  0.6164
 2955SOL    HW1 9764   0.989   5.361   0.090 -1.2093 -0.5158 -0.0960
 2955SOL    HW2 9765   1.080   5.225   0.095  0.0546  0.2804 -0.8518
 2956SOL     OW 9766   2.398   5.737   4.107 -0.9599  0.1670  0.1659
 2956SOL    HW1 9767   2.432   5.727   4.201 -0.9053  1.1680  0.2653
 2956SOL    HW2 9768   2.418   5.830   4.075 -0.3472 -0.3860 -1.0864
 2957SOL     OW 9769   4.347   3.938   0.419  0.1362 -0.2010  0.2555
 2957SOL    HW1 9770   4.253   3.969   0.401  0.1496  1.5109  2.7066
 2957SOL    HW2 9771   4.344   3.847   0.459 -0.3574 -0.7542 -0.9885
 2958SOL     OW 9772   2.844   5.286   2.808 -0.5305  0.0566  0.4699
 2958SOL    HW1 9773   2.785   5.356   2.847 -1.7447  0.4827 -1.9621
 2958SOL    HW2 9774   2.809   5.195   2.831 -1.0424  0.2960  0.6455
 2959SOL     OW 9775   4.239   3.783   1.455  0.0575  0.3013  0.1065
 2959SOL    HW1 9776   4.237   3.684   1.471  2.8732  0.2004  0.3438
 2959SOL    HW2 9777   4.275   3.801   1.363  1.3586  1.0704  0.7292
 2960SOL     OW 9778   3.742   1.080   1.918 -0.0565  0.0324  0.2588
 2960SOL    HW1 9779   3.796   1.160   1.890  0.8422  0.2086  2.2735
 2960SOL    HW2 9780   3.670   1.109   1.981 -1.6660 -0.4001 -1.3161
 2961SOL     OW 9781   0.905   4.138   3.801  0.1285 -0.3464 -0.0055
 2961SOL    HW1 9782   0.886   4.083   3.719  1.5104  1.4217 -1.5829
 2961SOL    HW2 9783   0.905   4.235   3.777 -1.1900  0.3571  2.4977
 2962SOL     OW 9784   6.997   6.938   2.988  0.2654  0.0658  0.3884
 2962SOL    HW1 9785   7.042   6.869   3.044 -0.1565 -1.0230 -0.5721
 2962SOL    HW2 9786   7.007   6.914   2.891 -0.4090  1.0275  0.0646
 2963SOL     OW 9787   6.908   1.501   4.577 -0.1112  0.2837 -0.1500
 2963SOL    HW1 9788   6.931   1.554   4.496  0.2902  0.4134  0.0453
 2963SOL    HW2 9789   6.984   1.506   4.643 -1.8304  3.3861  1.8922
 2964SOL     OW 9790   5.960   0.003   5.604  0.8975 -0.5829 -0.0428
 2964SOL    HW1 9791   6.024   0.076   5.580 -2.2110  1.0380 -4.8606
 2964SOL    HW2 9792   5.892   0.038   5.668  0.0298  0.5302 -1.5211
 2965SOL     OW 9793   6.261   1.140   4.716  0.4418 -0.0849  0.5380
 2965SOL    HW1 9794   6.344   1.171   4.762  1.6234  0.1051 -1.6039
 2965SOL    HW2 9795   6.277   1.133   4.618 -1.9995 -0.3756  0.0821
 2966SOL     OW 9796   4.719   5.960   1.591  0.3967  0.1101 -0.0191
 2966SOL    HW1 9797   4.736   5.863   1.612 -0.6446 -0.1747 -0.4076
 2966SOL    HW2 9798   4.717   6.012   1.676  0.5831 -0.2788  0.2290
 2967SOL     OW 9799   0.061   0.723   6.041 -0.0413 -0.3255 -0.2566
 2967SOL    HW1 9800   0.077   0.801   5.981  2.0619 -1.0443 -0.7251
 2967SOL    HW2 9801   0.146   0.671   6.051 -0.2008 -0.1578  3.4786
 2968SOL     OW 9802   5.225   3.378   1.287  0.4845 -0.0820 -0.0257
 2968SOL    HW1 9803   5.228   3.304   1.355 -1.6201 -1.1086 -0.9686
 2968SOL    HW2 9804   5.287   3.357   1.212 -0.2729 -1.0298 -0.4005
 2969SOL     OW 9805   5.608   3.225   4.540  0.2884 -0.1757  0.6461
 2969SOL    HW1 9806   5.554   3.146   4.510  0.2708 -0.5994  1.7719
 2969SOL    HW2 9807   5.550   3.287   4.592 -0.2224  1.6374 -1.9150
 2970SOL     OW 9808   3.160   3.107   5.845  0.3539  0.7895 -0.1444
 2970SOL    HW1 9809   3.213   3.036   5.801  0.7487 -0.1639  1.7527
 2970SOL    HW2 9810   3.211   3.193   5.843  0.5763  0.6441 -1.0589
 2971SOL     OW 9811   3.983   3.739   6.753  0.1010 -0.1702  0.3013
 2971SOL    HW1 9812   4.058   3.805   6.755 -0.0239  0.0709 -1.3896
 2971SOL    HW2 9813   4.021   3.647   6.742  0.1602 -0.0134 -0.9206
 2972SOL     OW 9814   0.137   3.503   4.746 -0.8660  0.0828 -0.0629
 2972SOL    HW1 9815   0.110   3.565   4.820  0.5942 -0.3998  0.9384
 2972SOL    HW2 9816   0.144   3.554   4.660  1.3575  1.6141  0.9401
 2973SOL     OW 9817   6.060   6.544   6.207 -0.3798 -0.0656  0.4741
 2973SOL    HW1 9818   6.002   6.558   6.287 -0.9208 -1.9876  0.4647
 2973SOL    HW2 9819   6.097   6.451   6.209  0.8301  0.3551 -0.7417
 2974SOL     OW 9820   6.521   4.721   3.021  0.4028 -0.3726 -0.0541
 2974SOL    HW1 9821   6.556   4.814   3.012 -0.1875  0.0514  1.6200
 2974SOL    HW2 9822   6.555   4.681   3.106 -1.3666 -0.7309  0.5337
 2975SOL     OW 9823   5.212   3.811   4.675  0.0757  0.8437  0.2878
 2975SOL    HW1 9824   5.194   3.903   4.642 -1.8270  0.0280 -1.1804
 2975SOL    HW2 9825   5.237   3.752   4.597  0.0870 -0.1216  1.0024
 2976SOL     OW 9826   2.825   2.353   4.205  0.6778  0.3207 -0.4030
 2976SOL    HW1 9827   2.861   2.356   4.299 -2.4909 -1.6189  1.0490
 2976SOL    HW2 9828   2.744   2.410   4.198 -1.0585 -2.0479 -0.9225
 2977SOL     OW 9829   0.129   0.694   2.973  0.4769  0.1291 -0.0587
 2977SOL    HW1 9830   0.209   0.705   3.032  0.5048  0.0580 -0.0822
 2977SOL    HW2 9831   0.058   0.643   3.021  0.2772  0.5686  0.1150
 2978SOL     OW 9832   1.988   3.951   0.982 -0.2921  0.5214 -0.3742
 2978SOL    HW1 9833   2.024   3.865   0.946 -2.6499  0.0784 -1.8567
 2978SOL    HW2 9834   2.017   4.026   0.923 -1.1438  0.2613 -1.1430
 2979SOL     OW 9835   4.454   2.390   5.062 -0.1213 -0.6418 -0.1293
 2979SOL    HW1 9836   4.358   2.405   5.039 -0.5623 -1.2320  1.2278
 2979SOL    HW2 9837   4.463   2.304   5.112  0.9582 -0.0657  0.7084
 2980SOL     OW 9838   1.973   5.104   3.304  0.2487 -0.3842 -0.3270
 2980SOL    HW1 9839   1.973   5.115   3.403  1.5331 -0.7760 -0.2597
 2980SOL    HW2 9840   2.030   5.175   3.262 -0.6944  0.0889 -0.8372
 2981SOL     OW 9841   1.666   1.331   0.424 -0.1429  0.3751 -0.4097
 2981SOL    HW1 9842   1.721   1.384   0.489 -0.2165 -0.3330  0.2496
 2981SOL    HW2 9843   1.593   1.283   0.474 -0.8145  0.6009 -1.1573
 2982SOL     OW 9844   2.056   5.494   1.285 -0.5545 -0.1466 -0.1880
 2982SOL    HW1 9845   2.078   5.587   1.255 -0.9367  0.4033  1.1920
 2982SOL    HW2 9846   1.960   5.474   1.264 -0.0777 -0.8550 -1.9474
 2983SOL     OW 9847   6.628   2.706   1.728  0.7187 -0.1561 -0.0020
 2983SOL    HW1 9848   6.659   2.611   1.741 -1.0901 -0.7737 -0.0163
 2983SOL    HW2 9849   6.566   2.731   1.801  0.9605  0.9517 -0.1568
 2984SOL     OW 9850   5.338   4.648   0.096  0.0859 -0.2135  0.4930
 2984SOL    HW1 9851   5.426   4.644   0.144  0.1551  0.8600  0.4879
 2984SOL    HW2 9852   5.349   4.615   0.002  0.6955  0.7326  0.2200
 2985SOL     OW 9853   0.537   0.463   5.273  0.4649 -0.0876  0.5464
 2985SOL    HW1 9854   0.478   0.515   5.334  0.1212 -0.3959  0.4778
 2985SOL    HW2 9855   0.488   0.440   5.189  1.1348  0.8856 -0.1431
 2986SOL     OW 9856   4.100   3.341   2.148  0.2470 -0.3982  0.5082
 2986SOL    HW1 9857   4.027   3.378   2.091 -0.9431 -1.1613  1.4739
 2986SOL    HW2 9858   4.188   3.353   2.102 -0.5502 -0.0964 -1.0070
 2987SOL     OW 9859   2.861   2.200   6.197  0.2002  0.2249 -0.1950
 2987SOL    HW1 9860   2.770   2.226   6.163  0.5334  0.8776 -0.5977
 2987SOL    HW2 9861   2.909   2.146   6.128 -0.2738 -1.0498  0.4242
 2988SOL     OW 9862   1.325   1.007   1.803 -0.5613  0.1406  0.2288
 2988SOL    HW1 9863   1.245   1.025   1.746  0.3708  1.5625 -0.7038
 2988SOL    HW2 9864   1.357   1.093   1.843  0.3354 -0.4447  0.8199
 2989SOL     OW 9865   5.278   3.083   4.186  0.0073 -0.0003  0.0032
 2989SOL    HW1 9866   5.263   2.985   4.172 -1.8294  0.4322 -1.3908
 2989SOL    HW2 9867   5.351   3.115   4.126 -1.6412  0.0661 -2.0900
 2990SOL     OW 9868   5.682   2.049   4.733  0.6955  0.1615  0.0546
 2990SOL    HW1 9869   5.654   2.110   4.659 -1.5057  0.2096  0.8665
 2990SOL    HW2 9870   5.668   2.095   4.821  0.5297 -0.9261  0.6099
 2991SOL     OW 9871   4.117   4.742   6.966  0.3104  0.1122  0.3070
 2991SOL    HW1 9872   4.108   4.829   6.917 -1.9779  0.0306  0.4786
 2991SOL    HW2 9873   4.151   4.760   7.058 -0.1697  0.8561  0.3507
 2992SOL     OW 9874   1.622   4.860   5.821  0.8450 -0.1054 -0.2512
 2992SOL    HW1 9875   1.717   4.886   5.804  0.3897  1.5298 -0.4957
 2992SOL    HW2 9876   1.615   4.820   5.912  1.6886  0.2359 -0.0212
 2993SOL     OW 9877   6.843   5.770   1.337  0.5742  0.2256  0.0134
 2993SOL    HW1 9878   6.903   5.821   1.398 -2.2274  1.3714  2.0184
 2993SOL    HW2 9879   6.816   5.829   1.260  0.9219  0.1607 -0.1622
 2994SOL     OW 9880   5.205   5.823   0.997  0.1834  0.0526  0.1177
 2994SOL    HW1 9881   5.273   5.868   1.055 -0.6153  0.8241  0.4746
 2994SOL    HW2 9882   5.159   5.891   0.941  0.2565 -0.5663 -0.7124
 2995SOL     OW 9883   2.349   0.629   0.957 -0.1305  0.3907 -0.1095
 2995SOL    HW1 9884   2.432   0.685   0.961 -0.5874  1.1212 -0.4977
 2995SOL    HW2 9885   2.373   0.533   0.965  0.6648  0.6493  0.7665
 2996SOL     OW 9886   1.152   1.473   4.187 -0.7325  0.0678 -0.0609
 2996SOL    HW1 9887   1.120   1.436   4.274 -1.8201 -1.7464 -1.1631
 2996SOL    HW2 9888   1.238   1.521   4.201 -0.9914  0.0243  2.0406
 2997SOL     OW 9889   3.909   0.544   2.049  0.5696 -0.4740 -0.0264
 2997SOL    HW1 9890   3.855   0.459   2.054  0.0958 -0.1378  0.7155
 2997SOL    HW2 9891   3.888   0.591   1.963  0.9705 -1.1854 -0.5289
 2998SOL     OW 9892   4.554   6.234   2.048  0.5041 -0.7441 -0.8045
 2998SOL    HW1 9893   4.455   6.236   2.029  0.3292  1.1586  0.0346
 2998SOL    HW2 9894   4.600   6.185   1.974 -1.0296 -1.4061 -1.3820
 2999SOL     OW 9895   2.738   0.311   6.004  0.4975 -0.8393  0.2118
 2999SOL    HW1 9896   2.829   0.351   6.010  0.8371 -1.2931 -1.4590
 2999SOL    HW2 9897   2.703   0.294   6.096  0.5768  2.6763  1.0147
 3000SOL     OW 9898   0.927   2.086   6.525 -0.0212 -0.4018  0.4418
 3000SOL    HW1 9899   0.859   2.141   6.575  0.6846  0.5111  0.4274
 3000SOL    HW2 9900   0.903   2.085   6.428  0.1145  0.1309  0.3975
 3001SOL     OW 9901   5.144   2.539   0.732  0.1080  0.2041  0.4285
 3001SOL    HW1 9902   5.151   2.440   0.724  1.8895  0.3933 -1.1303
 3001SOL    HW2 9903   5.205   2.571   0.804  2.2034  0.3628 -1.2893
 3002SOL     OW 9904   4.971   1.684   2.054  0.2909 -0.0733 -0.1284
 3002SOL    HW1 9905   4.937   1.657   2.144 -0.2224 -2.5135 -0.9955
 3002SOL    HW2 9906   4.919   1.763   2.022 -0.1980  0.2072  1.2688
 3003SOL     OW 9907   0.490   1.283   0.631  0.1299 -0.3090  0.2156
 3003SOL    HW1 9908   0.427   1.357   0.608  0.8980 -0.3052 -2.2328
 3003SOL    HW2 9909   0.582   1.308   0.601  0.2952 -2.4858 -1.3109
 3004SOL     OW 9910   0.623   5.500   2.538  0.1577 -0.0720  0.4991
 3004SOL    HW1 9911   0.681   5.428   2.498 -0.4153 -0.3624  0.1798
 3004SOL    HW2 9912   0.551   5.458   2.593 -2.1856  0.0068 -2.2582
 3005SOL     OW 9913   6.816   2.002   0.329  0.6710  0.1936  0.2084
 3005SOL    HW1 9914   6.729   1.963   0.358  0.5512  0.9436  0.9188
 3005SOL    HW2 9915   6.822   2.097   0.362  1.3456  0.4595 -0.6552
 3006SOL     OW 9916   5.674   2.308   5.243 -0.6155 -0.3198 -0.3731
 3006SOL    HW1 9917   5.664   2.284   5.147 -4.3385  0.6834 -0.3592
 3006SOL    HW2 9918   5.691   2.407   5.251  1.0743 -0.6054  0.0303
 3007SOL     OW 9919   2.683   5.760   0.383 -0.4497  0.0813 -0.2428
 3007SOL    HW1 9920   2.710   5.667   0.409  1.7355  0.7234  0.0106
 3007SOL    HW2 9921   2.608   5.790   0.442 -1.3830 -1.5838 -0.5052
 3008SOL     OW 9922   1.436   2.541   3.946 -0.0151 -0.3324 -0.4022
 3008SOL    HW1 9923   1.466   2.446   3.936 -0.4366 -0.7001  1.3816
 3008SOL    HW2 9924   1.377   2.565   3.869 -0.3626 -1.7128 -0.6084
 3009SOL     OW 9925   1.779   3.416   0.674  0.3432 -0.2213 -0.0583
 3009SOL    HW1 9926   1.768   3.515   0.689  0.0485 -0.1378 -0.7783
 3009SOL    HW2 9927   1.772   3.397   0.576 -0.8445 -1.1034  0.1809
 3010SOL     OW 9928   2.318   5.673   4.887 -0.1618  0.2555 -0.2180
 3010SOL    HW1 9929   2.370   5.758   4.880 -2.3634  1.8226  1.0968
 3010SOL    HW2 9930   2.372   5.597   4.850  3.1697  1.6598  1.3312
 3011SOL     OW 9931   6.035   5.295   2.240 -0.2955 -0.9175 -0.7257
 3011SOL    HW1 9932   5.940   5.318   2.219 -0.9866 -1.8770  1.1535
 3011SOL    HW2 9933   6.077   5.253   2.159 -2.0052 -2.0368 -1.0943
 3012SOL     OW 9934   2.333   2.020   1.057 -0.0996 -0.0558 -0.0239
 3012SOL    HW1 9935   2.400   1.946   1.051 -0.8147 -0.8956  1.7102
 3012SOL    HW2 9936   2.291   2.020   1.148  0.1236  2.7216  0.1637
 3013SOL     OW 9937   6.036   4.876   3.159  0.3602  0.4768 -0.1553
 3013SOL    HW1 9938   6.051   4.874   3.257  3.4406  0.3839 -0.5181
 3013SOL    HW2 9939   6.094   4.806   3.115 -0.9124  0.5268 -2.0504
 3014SOL     OW 9940   6.654   3.273   0.329 -0.6338  0.5444 -0.1596
 3014SOL    HW1 9941   6.649   3.265   0.428  0.0636 -0.5587 -0.1937
 3014SOL    HW2 9942   6.562   3.265   0.290 -0.7572 -0.5411  0.3138
 3015SOL     OW 9943   0.146   2.841   0.950 -0.0314 -0.0477 -0.6672
 3015SOL    HW1 9944   0.158   2.767   1.016  1.1101  0.8611  0.1816
 3015SOL    HW2 9945   0.181   2.813   0.860  0.0856 -0.6420 -0.4358
 3016SOL     OW 9946   1.800   6.714   5.236 -0.2888 -0.1171  0.0717
 3016SOL    HW1 9947   1.824   6.620   5.211  0.5069 -0.4108  1.7778
 3016SOL    HW2 9948   1.878   6.757   5.283 -0.3837  1.6491 -1.2810
 3017SOL     OW 9949   6.233   4.802   4.109 -0.2190 -0.9486 -0.7434
 3017SOL    HW1 9950   6.312   4.862   4.123 -2.0138  1.4253 -0.3712
 3017SOL    HW2 9951   6.214   4.795   4.011 -0.5233 -0.1775 -0.7452
 3018SOL     OW 9952   3.165   0.962   6.247 -0.2139 -0.7812 -0.2066
 3018SOL    HW1 9953   3.066   0.963   6.262 -0.0082  2.3200  1.7107
 3018SOL    HW2 9954   3.207   0.893   6.306 -1.0893 -0.7993  0.4124
 3019SOL     OW 9955   2.456   5.582   6.763  0.4472 -0.5362 -0.5192
 3019SOL    HW1 9956   2.420   5.491   6.742  2.0729 -1.4720  0.5594
 3019SOL    HW2 9957   2.555   5.578   6.769  0.4072  0.6605  2.4384
 3020SOL     OW 9958   4.676   3.657   0.286 -0.1519  0.8392 -0.3066
 3020SOL    HW1 9959   4.728   3.644   0.201  1.8246  0.6176  0.8752
 3020SOL    HW2 9960   4.671   3.754   0.308  1.6096  0.7711  0.6018
 3021SOL     OW 9961   1.488   6.785   4.735  0.3669 -0.0060 -0.2308
 3021SOL    HW1 9962   1.574   6.831   4.756  0.6796 -0.8602  0.4213
 3021SOL    HW2 9963   1.435   6.841   4.672  0.6666  1.3147  0.6491
 3022SOL     OW 9964   4.010   5.372   4.429  0.1587 -0.5805  0.0341
 3022SOL    HW1 9965   4.016   5.403   4.524 -0.6194 -1.0066  0.2338
 3022SOL    HW2 9966   4.040   5.277   4.422  1.1343 -0.2573 -0.3220
 3023SOL     OW 9967   3.533   1.362   3.012  0.1229  0.3869  0.0359
 3023SOL    HW1 9968   3.482   1.362   2.926  0.1311  0.1276  0.0301
 3023SOL    HW2 9969   3.474   1.393   3.086 -0.2825 -0.6515  0.1668
 3024SOL     OW 9970   4.527   6.861   6.547  0.6146 -0.3747  0.0981
 3024SOL    HW1 9971   4.494   6.931   6.484  1.0920  0.7411  1.0615
 3024SOL    HW2 9972   4.451   6.804   6.576  0.3335 -0.6925 -1.2119
 3025SOL     OW 9973   2.558   5.712   0.118 -0.3263  0.1144 -0.1003
 3025SOL    HW1 9974   2.522   5.619   0.120 -0.6869  0.2543  0.0556
 3025SOL    HW2 9975   2.592   5.736   0.209  2.6976 -0.9783 -0.8251
 3026SOL     OW 9976   0.427   1.065   0.457  0.4773 -0.1322  0.5182
 3026SOL    HW1 9977   0.464   1.094   0.369 -0.6063 -1.2819 -0.3429
 3026SOL    HW2 9978   0.443   1.137   0.525  0.8881  0.9793 -0.7195
 3027SOL     OW 9979   2.961   1.442   0.977  0.0303 -0.0226 -0.4377
 3027SOL    HW1 9980   2.922   1.367   1.029  1.1078  0.4807  1.1590
 3027SOL    HW2 9981   3.008   1.407   0.896  0.4089 -1.0470  0.2192
 3028SOL     OW 9982   1.220   4.193   6.303  0.6764  0.5854  0.3302
 3028SOL    HW1 9983   1.216   4.292   6.292  0.1983  0.3869 -1.5813
 3028SOL    HW2 9984   1.130   4.158   6.328  0.8559  0.6159  1.0533
 3029SOL     OW 9985   2.404   2.492   3.526 -0.1705 -0.4895 -0.3155
 3029SOL    HW1 9986   2.486   2.484   3.582  0.7006 -0.4717 -1.5432
 3029SOL    HW2 9987   2.328   2.524   3.582  0.7006 -0.3158  0.8013
 3030SOL     OW 9988   6.642   4.634   6.784 -0.3684  0.7206  0.1357
 3030SOL    HW1 9989   6.638   4.611   6.687  1.3713 -1.0431  0.4154
 3030SOL    HW2 9990   6.736   4.625   6.817 -1.2049 -0.6571  2.3944
 3031SOL     OW 9991   0.991   5.705   1.550 -0.0893  0.1378  0.1620
 3031SOL    HW1 9992   0.916   5.674   1.609  0.7964  0.3161  1.4230
 3031SOL    HW2 9993   1.063   5.636   1.550 -0.8284 -0.7413 -2.2454
 3032SOL     OW 9994   3.466   6.206   2.558  0.0480 -0.4703 -0.1689
 3032SOL    HW1 9995   3.404   6.163   2.493  1.0702  0.2376 -1.6861
 3032SOL    HW2 9996   3.437   6.301   2.574  0.9147 -0.0063 -1.2025
 3033SOL     OW 9997   0.500   1.162   2.981 -0.7184 -0.0836 -0.3649
 3033SOL    HW1 9998   0.538   1.122   3.065  1.7716 -0.5208 -1.6078
 3033SOL    HW2 9999   0.403   1.140   2.976 -0.8400 -0.4874  2.1199
 3034SOL     OW10000   6.284   5.985   3.560  0.2771 -0.2195 -0.0948
 3034SOL    HW110001   6.238   5.896   3.569 -1.7503  0.8604  0.8355
 3034SOL    HW210002   6.268   6.039   3.643 -0.1328  1.7249 -1.3851
 3035SOL     OW10003   0.924   3.176   5.506  0.5867 -0.6113 -0.0125
 3035SOL    HW110004   0.963   3.242   5.570  0.9776 -0.1010 -0.7626
 3035SOL    HW210005   0.907   3.090   5.553 -0.0099  0.0411  1.0064
 3036SOL     OW10006   0.104   3.446   5.968  0.2222  0.3082  0.3634
 3036SOL    HW110007   0.016   3.406   5.944  1.2998 -0.2075 -3.2905
 3036SOL    HW210008   0.095   3.545   5.976 -0.3944  0.4935 -1.9808
 3037SOL     OW10009   0.690   4.848   5.543  0.9730  0.9822 -0.0402
 3037SOL    HW110010   0.760   4.797   5.494 -0.0452 -1.9848  1.3514
 3037SOL    HW210011   0.601   4.829   5.502  0.4771  1.0056  0.9968
 3038SOL     OW10012   3.045   3.873   5.694  0.1140 -0.3665 -0.5310
 3038SOL    HW110013   2.951   3.908   5.696  0.1304 -0.2993  1.4876
 3038SOL    HW210014   3.048   3.783   5.736  0.6019 -1.4698 -2.8110
 3039SOL     OW10015   1.066   3.997   0.465 -0.0988  0.4699  0.3978
 3039SOL    HW110016   1.003   3.945   0.523 -1.5087  1.1022 -0.4901
 3039SOL    HW210017   1.013   4.054   0.402  1.2864 -1.4348 -2.7276
 3040SOL     OW10018   2.784   5.566   5.858 -0.2518  1.0939  0.1641
 3040SOL    HW110019   2.867   5.619   5.870  0.1799  0.2645  0.9777
 3040SOL    HW210020   2.805   5.481   5.810 -0.9056  1.5374 -0.9612
 3041SOL     OW10021   1.009   5.631   0.621 -0.2972 -0.4391  0.0175
 3041SOL    HW110022   0.985   5.538   0.650  0.8373 -0.4504  0.9867
 3041SOL    HW210023   1.098   5.656   0.659  0.2038  0.4208 -1.6249
 3042SOL     OW10024   3.759   5.342   1.241 -0.4397  0.0233  0.5353
 3042SOL    HW110025   3.779   5.249   1.272 -0.9313  0.0841  1.0417
 3042SOL    HW210026   3.674   5.374   1.283 -0.0294  0.8726  0.7391
 3043SOL     OW10027   4.943   2.931   1.528  0.4154 -0.5775  0.0814
 3043SOL    HW110028   4.873   2.897   1.591  1.3447  0.5953  1.8136
 3043SOL    HW210029   4.899   2.985   1.456 -0.5636 -0.8814  0.4283
 3044SOL     OW10030   3.392   6.062   6.130 -0.0249 -0.3129  0.0094
 3044SOL    HW110031   3.330   5.988   6.106 -0.6153  0.7076 -1.7700
 3044SOL    HW210032   3.479   6.023   6.162 -0.6367 -1.7527  0.0087
 3045SOL     OW10033   5.571   6.716   3.207  0.0316  0.2538  0.7065
 3045SOL    HW110034   5.516   6.664   3.142 -0.1181  1.5500 -0.2636
 3045SOL    HW210035   5.579   6.811   3.175  0.5356  0.7622  2.2452
 3046SOL     OW10036   3.506   6.243   6.825 -0.4973  0.1658  0.1856
 3046SOL    HW110037   3.451   6.319   6.861  0.1934 -0.0536  1.7761
 3046SOL    HW210038   3.575   6.279   6.762  1.6798  1.3253  3.0162
 3047SOL     OW10039   0.644   0.417   1.017  0.2070  0.3083 -0.5622
 3047SOL    HW110040   0.572   0.349   1.002  0.2459  0.2746 -0.5958
 3047SOL    HW210041   0.722   0.374   1.064  0.8362 -0.0292 -1.8690
 3048SOL     OW10042   5.973   2.399   0.671  0.4260 -0.3435  0.1174
 3048SOL    HW110043   5.971   2.308   0.630  2.4682 -0.6172  0.5390
 3048SOL    HW210044   5.890   2.412   0.726 -0.6752 -1.2934 -1.2330
 3049SOL     OW10045   2.704   1.465   5.013 -0.2842  1.1436 -0.2403
 3049SOL    HW110046   2.620   1.423   5.048 -1.1869  0.8434 -2.5805
 3049SOL    HW210047   2.741   1.528   5.082 -2.9707  2.0629  0.4930
 3050SOL     OW10048   4.099   2.827   0.725 -0.2625 -0.6734 -0.0699
 3050SOL    HW110049   4.011   2.816   0.772 -0.5583 -0.3139 -0.5377
 3050SOL    HW210050   4.083   2.847   0.629  0.3290  0.0192 -0.0294
 3051SOL     OW10051   2.627   5.918   6.460 -0.0916 -0.1688 -0.3370
 3051SOL    HW110052   2.591   5.948   6.371 -0.3981 -1.0973 -0.5374
 3051SOL    HW210053   2.557   5.867   6.509  0.2868 -0.2173  0.1617
 3052SOL     OW10054   4.839   4.216   0.832 -0.0984 -0.3764 -0.0686
 3052SOL    HW110055   4.751   4.239   0.791  0.5843  1.6928 -0.5412
 3052SOL    HW210056   4.827   4.193   0.928 -1.0289  1.4520  0.2911
 3053SOL     OW10057   6.415   4.479   0.362 -0.6740  0.0345 -0.4228
 3053SOL    HW110058   6.447   4.390   0.330 -1.0004 -0.3960  0.4243
 3053SOL    HW210059   6.325   4.470   0.403 -1.5333  1.0869 -1.9722
 3054SOL     OW10060   0.139   0.889   1.634 -0.0690  0.5700 -0.1224
 3054SOL    HW110061   0.210   0.956   1.654  1.4495 -0.4660 -1.7810
 3054SOL    HW210062   0.176   0.797   1.645 -1.6414 -0.0197  0.5093
 3055SOL     OW10063   6.868   0.608   2.620 -0.0637 -0.1306 -0.1886
 3055SOL    HW110064   6.893   0.617   2.524 -0.5714 -2.1724 -0.5689
 3055SOL    HW210065   6.771   0.629   2.631  0.1198  0.6495 -0.0079
 3056SOL     OW10066   6.763   1.872   3.537 -0.3075  0.1385  0.3334
 3056SOL    HW110067   6.823   1.803   3.494 -1.3442 -0.5655 -0.0214
 3056SOL    HW210068   6.792   1.963   3.509 -0.5922 -0.2768 -1.4390
 3057SOL     OW10069   4.894   6.684   4.232  0.1848  0.1329 -0.0193
 3057SOL    HW110070   4.888   6.597   4.182  1.2739  0.4156 -0.6597
 3057SOL    HW210071   4.853   6.672   4.322  2.2777 -1.7085  0.7796
 3058SOL     OW10072   6.445   4.853   5.356 -0.3121  0.0197  0.1700
 3058SOL    HW110073   6.381   4.911   5.405 -2.0865 -0.6207 -1.2629
 3058SOL    HW210074   6.435   4.758   5.386 -0.2138 -0.1192 -0.2244
 3059SOL     OW10075   0.900   3.246   5.150 -0.3350  0.6266  0.5409
 3059SOL    HW110076   0.971   3.303   5.193 -0.2840  0.9911 -0.0124
 3059SOL    HW210077   0.939   3.195   5.074 -0.9151  1.7815 -0.5704
 3060SOL     OW10078   0.883   3.253   6.779  0.0286 -0.5257  0.2727
 3060SOL    HW110079   0.793   3.214   6.757 -0.1891  0.0291  0.1572
 3060SOL    HW210080   0.874   3.311   6.860  0.5564 -1.5188  1.0637
 3061SOL     OW10081   5.725   4.509   5.975 -0.0501  0.2902  0.2427
 3061SOL    HW110082   5.654   4.519   6.044  0.7860 -1.7516  1.5031
 3061SOL    HW210083   5.815   4.516   6.018  0.5252  1.0131 -1.0148
 3062SOL     OW10084   1.562   6.393   1.619 -0.4285 -0.3557 -0.1890
 3062SOL    HW110085   1.462   6.388   1.613 -0.6924  3.2649 -1.2697
 3062SOL    HW210086   1.589   6.419   1.712 -0.9041  2.3009 -0.6898
 3063SOL     OW10087   0.381   5.053   2.624  0.0985 -0.1830 -0.3547
 3063SOL    HW110088   0.431   5.136   2.646 -0.6854  0.4039 -0.7430
 3063SOL    HW210089   0.419   4.976   2.676  0.8088  0.4161  0.0266
 3064SOL     OW10090   4.301   1.044   0.353  0.6939  0.0016 -0.2062
 3064SOL    HW110091   4.359   0.966   0.377  1.5534  0.6664 -0.0963
 3064SOL    HW210092   4.209   1.029   0.390  0.9985 -0.6934  0.3025
 3065SOL     OW10093   0.823   3.398   6.407  0.2024 -0.3595  0.4421
 3065SOL    HW110094   0.795   3.360   6.319  0.1376  0.2390  0.2024
 3065SOL    HW210095   0.896   3.465   6.393 -0.9190  0.9545  0.6659
 3066SOL     OW10096   3.726   5.194   0.630  0.3293 -0.0540 -0.2141
 3066SOL    HW110097   3.714   5.132   0.553 -1.0414 -2.4235  1.7612
 3066SOL    HW210098   3.725   5.142   0.716  0.6629  2.5657  1.5085
 3067SOL     OW10099   2.215   1.094   0.651 -0.0287  0.0680  0.3426
 3067SOL    HW110100   2.151   1.143   0.710 -0.6112 -0.6283  0.2991
 3067SOL    HW210101   2.164   1.043   0.582  0.6286  0.8920 -0.8070
 3068SOL     OW10102   2.013   6.801   2.418 -0.2101  0.2356 -0.0399
 3068SOL    HW110103   1.933   6.765   2.467 -0.6894  0.7279 -0.4397
 3068SOL    HW210104   2.010   6.768   2.323  0.8137 -0.8722  0.2989
 3069SOL     OW10105   6.499   6.254   1.620  0.1242 -0.4234 -0.0210
 3069SOL    HW110106   6.573   6.322   1.625  1.6819 -2.1063  0.8778
 3069SOL    HW210107   6.446   6.257   1.705 -0.5638  0.4337 -0.4601
 3070SOL     OW10108   3.659   1.305   0.326  0.0545  0.3618 -0.2642
 3070SOL    HW110109   3.573   1.265   0.358  0.7181 -0.9882 -0.0921
 3070SOL    HW210110   3.656   1.316   0.226 -1.8374  4.1431  0.0176
 3071SOL     OW10111   0.276   6.063   3.866 -0.3267  0.5853 -0.0483
 3071SOL    HW110112   0.336   5.996   3.822 -0.2490  0.0550  0.8364
 3071SOL    HW210113   0.327   6.110   3.938 -0.9610  0.1246  0.7191
 3072SOL     OW10114   0.539   5.784   1.428  0.1217  0.3488 -0.1890
 3072SOL    HW110115   0.624   5.767   1.377  1.0693  0.2101  1.3763
 3072SOL    HW210116   0.505   5.698   1.466  0.1241  0.6259  0.4528
 3073SOL     OW10117   1.085   4.355   1.265  0.3838  0.0711 -0.2512
 3073SOL    HW110118   1.057   4.338   1.171 -0.4567 -0.3552  0.0629
 3073SOL    HW210119   1.157   4.291   1.291  0.2371 -0.1716 -0.4369
 3074SOL     OW10120   1.953   4.228   2.344  0.1921  0.2643 -0.0909
 3074SOL    HW110121   1.935   4.259   2.437 -2.2130  0.9162 -0.7023
 3074SOL    HW210122   2.001   4.300   2.293  0.1436  0.5107  0.2081
 3075SOL     OW10123   3.197   4.899   3.889 -0.4159  0.3438 -0.0087
 3075SOL    HW110124   3.174   4.979   3.945  1.4002  0.9885 -0.1237
 3075SOL    HW210125   3.296   4.890   3.882 -0.5868 -1.1208 -1.1771
 3076SOL     OW10126   0.774   6.821   5.240  0.7026  0.4801 -0.6100
 3076SOL    HW110127   0.870   6.814   5.266 -0.0426  0.3161  2.5414
 3076SOL    HW210128   0.742   6.732   5.207  0.7084 -0.7824  2.4027
 3077SOL     OW10129   0.117   2.732   6.269 -0.4368  0.0045  0.2084
 3077SOL    HW110130   0.162   2.811   6.310 -2.0754  0.7082  0.7016
 3077SOL    HW210131   0.187   2.666   6.239  0.9047 -0.5765  4.0592
 3078SOL     OW10132   0.963   2.751   2.387  0.2363  0.2322  0.6244
 3078SOL    HW110133   0.962   2.760   2.487 -1.2626 -1.2285  0.7801
 3078SOL    HW210134   0.906   2.673   2.360  0.7974  0.4625 -1.3718
 3079SOL     OW10135   4.151   1.307   3.337  0.1045  0.0712  0.2774
 3079SOL    HW110136   4.106   1.367   3.271 -1.3049 -0.3529  0.8275
 3079SOL    HW210137   4.217   1.361   3.390  0.4029  0.6608 -0.6566
 3080SOL     OW10138   4.983   5.142   2.301 -0.1613 -0.0861 -0.2908
 3080SOL    HW110139   4.978   5.242   2.293 -0.1677 -0.1785 -1.8792
 3080SOL    HW210140   4.891   5.104   2.298 -0.0905 -0.2465 -2.3535
 3081SOL     OW10141   1.027   4.958   5.962  0.4005 -0.1646 -0.1961
 3081SOL    HW110142   1.111   4.921   5.923 -0.8293 -2.5656 -0.8015
 3081SOL    HW210143   0.970   4.997   5.890  0.0382 -0.5826 -0.1404
 3082SOL     OW10144   3.454   4.993   3.946 -0.3022  0.0398 -0.0458
 3082SOL    HW110145   3.518   4.980   3.870 -0.1844 -0.6469  0.1672
 3082SOL    HW210146   3.495   5.056   4.012  0.8210 -1.5007  0.8039
 3083SOL     OW10147   2.367   4.451   0.868  0.6572  0.3365 -0.6562
 3083SOL    HW110148   2.335   4.498   0.950  0.0020 -2.3237  0.7315
 3083SOL    HW210149   2.467   4.459   0.861  0.5926  1.5672 -0.2791
 3084SOL     OW10150   6.017   3.841   0.928 -0.4118  0.6671 -0.6012
 3084SOL    HW110151   6.074   3.759   0.938 -1.6455 -0.1516  0.0306
 3084SOL    HW210152   6.063   3.918   0.971 -1.0639 -0.6243  2.7128
 3085SOL     OW10153   3.716   4.543   1.218  0.2849 -1.1062  0.8075
 3085SOL    HW110154   3.760   4.476   1.277  1.2076 -2.1160 -0.9277
 3085SOL    HW210155   3.765   4.547   1.130 -0.8239  0.5548  0.2093
 3086SOL     OW10156   3.450   0.507   1.066  0.8082  0.5671 -0.1204
 3086SOL    HW110157   3.452   0.413   1.100 -1.7013  0.2953 -0.5578
 3086SOL    HW210158   3.490   0.569   1.134 -0.4142 -0.4336  1.5560
 3087SOL     OW10159   3.567   6.457   2.864  0.5770 -0.5637  0.5700
 3087SOL    HW110160   3.566   6.401   2.947  0.2282 -1.8154 -0.2317
 3087SOL    HW210161   3.536   6.549   2.885 -0.3794 -1.1099  1.6666
 3088SOL     OW10162   1.767   3.766   5.090  0.0457  0.1652 -0.1282
 3088SOL    HW110163   1.728   3.855   5.115 -0.1458 -0.5337  2.2742
 3088SOL    HW210164   1.837   3.780   5.020 -0.6343  2.0766 -0.5050
 3089SOL     OW10165   4.696   3.664   5.674  0.3548  0.5827 -0.4144
 3089SOL    HW110166   4.716   3.623   5.585 -2.7859 -2.7623  0.1563
 3089SOL    HW210167   4.772   3.648   5.736  1.5061  0.6438 -1.7633
 3090SOL     OW10168   2.506   1.222   2.748  0.1925  0.0461  0.2755
 3090SOL    HW110169   2.540   1.139   2.703 -0.9287 -0.9491  1.1939
 3090SOL    HW210170   2.548   1.302   2.706 -0.1166 -0.8648 -1.9399
 3091SOL     OW10171   1.513   6.428   1.337  0.1979 -0.0142 -0.0222
 3091SOL    HW110172   1.575   6.386   1.270 -0.4561  0.3704 -0.8892
 3091SOL    HW210173   1.563   6.448   1.421  0.8260 -1.3525 -0.0481
 3092SOL     OW10174   5.982   0.441   0.712 -0.0362 -0.1030  0.0203
 3092SOL    HW110175   5.899   0.433   0.656  0.3520  0.8746 -0.7343
 3092SOL    HW210176   6.063   0.432   0.654  0.3853  2.2065  0.1448
 3093SOL     OW10177   5.732   6.898   5.143 -0.4912  0.1849 -0.4266
 3093SOL    HW110178   5.729   6.901   5.243 -1.2379  1.9356 -0.4539
 3093SOL    HW210179   5.641   6.921   5.106 -0.6304 -1.8882 -1.5321
 3094SOL     OW10180   3.977   0.419   2.447 -0.6656 -0.0960  0.2203
 3094SOL    HW110181   4.063   0.386   2.486 -0.3364  0.1851 -0.2614
 3094SOL    HW210182   3.946   0.356   2.376  0.6241  1.2434 -1.5967
 3095SOL     OW10183   1.416   4.613   4.567  0.0910 -0.1854 -0.1108
 3095SOL    HW110184   1.358   4.692   4.587 -0.1076 -0.6516  1.3259
 3095SOL    HW210185   1.509   4.630   4.599  0.0989 -0.4417  0.0089
 3096SOL     OW10186   0.413   5.178   5.607 -0.1356 -0.0171  0.2027
 3096SOL    HW110187   0.373   5.269   5.596 -0.9490 -0.3842  0.0125
 3096SOL    HW210188   0.349   5.110   5.573 -0.2187 -0.7736  1.7804
 3097SOL     OW10189   5.127   2.179   5.574  0.3658  0.3196  0.0744
 3097SOL    HW110190   5.118   2.266   5.526 -1.3444  0.2048  0.1591
 3097SOL    HW210191   5.175   2.193   5.661 -1.0851  1.4185  0.7202
 3098SOL     OW10192   0.594   4.673   2.466 -0.3830  0.1918 -0.0617
 3098SOL    HW110193   0.514   4.628   2.508  1.3464 -1.9332  1.2003
 3098SOL    HW210194   0.566   4.720   2.383 -2.4121 -3.5780 -1.7666
 3099SOL     OW10195   5.602   5.262   5.867  0.1266 -0.1243  0.1887
 3099SOL    HW110196   5.670   5.328   5.837  0.0388 -0.4025 -0.6409
 3099SOL    HW210197   5.510   5.297   5.848  0.0905 -1.2832 -2.0945
 3100SOL     OW10198   1.111   0.478   1.101  0.3854  0.4972  0.0873
 3100SOL    HW110199   1.181   0.536   1.059  0.1278 -0.5841 -1.9711
 3100SOL    HW210200   1.094   0.509   1.194  2.7230  1.5393  0.2494
 3101SOL     OW10201   6.073   5.829   5.792  0.3870 -0.4291  0.1568
 3101SOL    HW110202   6.146   5.887   5.829 -0.5498  0.7095  0.2608
 3101SOL    HW210203   6.064   5.845   5.694 -1.7454  1.8040  0.6212
 3102SOL     OW10204   6.207   6.738   0.513  0.6108  0.9059  0.1952
 3102SOL    HW110205   6.296   6.705   0.542 -0.2039 -0.0433  1.7680
 3102SOL    HW210206   6.203   6.742   0.413  2.3274  0.7987  0.1031
 3103SOL     OW10207   6.304   1.300   1.445  0.0392  0.5074  0.1479
 3103SOL    HW110208   6.209   1.269   1.439  0.1619 -0.0763  0.9814
 3103SOL    HW210209   6.336   1.327   1.355 -0.1233 -1.7469 -0.6489
 3104SOL     OW10210   3.708   1.237   4.601 -0.5668  0.0061  0.4964
 3104SOL    HW110211   3.707   1.173   4.678  0.2983  0.3062  0.7614
 3104SOL    HW210212   3.696   1.330   4.634 -0.0420  0.1505  0.2866
 3105SOL     OW10213   4.919   3.694   1.352  0.0206 -0.2981 -0.4300
 3105SOL    HW110214   4.895   3.610   1.303 -3.3502  1.5785 -2.3266
 3105SOL    HW210215   5.015   3.690   1.379 -0.5276 -5.7474  1.8701
 3106SOL     OW10216   5.446   6.865   6.024 -0.4939 -0.4943 -0.4205
 3106SOL    HW110217   5.480   6.944   6.074 -2.0736  1.3900 -2.1445
 3106SOL    HW210218   5.516   6.832   5.960 -0.1458  0.1017 -0.3482
 3107SOL     OW10219   4.854   0.216   4.443  0.0754 -0.1286 -0.1661
 3107SOL    HW110220   4.830   0.154   4.368  2.7796 -0.1820 -1.0891
 3107SOL    HW210221   4.899   0.164   4.516 -0.8925  0.2189  0.7038
 3108SOL     OW10222   1.400   0.026   5.719  0.2191  0.2977 -0.4885
 3108SOL    HW110223   1.401   0.116   5.763  1.1857  1.4266 -2.6808
 3108SOL    HW210224   1.434   0.034   5.625 -0.3516 -2.2558 -0.9864
 3109SOL     OW10225   0.270   6.564   4.494  0.8667 -0.3688 -0.0328
 3109SOL    HW110226   0.178   6.577   4.455  0.4894 -1.7117  0.3827
 3109SOL    HW210227   0.338   6.594   4.427  0.1618 -0.3619 -0.7701
 3110SOL     OW10228   2.324   4.245   2.775 -0.3251 -0.7437 -0.9004
 3110SOL    HW110229   2.407   4.292   2.805  0.7533 -1.1509 -3.0420
 3110SOL    HW210230   2.304   4.169   2.838  1.0956 -0.8226 -0.5073
 3111SOL     OW10231   2.242   6.293   3.009 -0.1168 -0.4204 -0.0096
 3111SOL    HW110232   2.175   6.337   2.948 -1.3368  0.1864  1.7074
 3111SOL    HW210233   2.225   6.195   3.012 -2.3128 -0.0562  1.9472
 3112SOL     OW10234   0.531   1.507   0.184  0.0391  0.1350 -0.2141
 3112SOL    HW110235   0.510   1.410   0.176  0.8272 -0.2061  1.3878
 3112SOL    HW210236   0.587   1.536   0.107 -1.3567 -0.3222 -1.4415
 3113SOL     OW10237   5.883   6.291   1.791  0.3603  0.3205 -0.3527
 3113SOL    HW110238   5.925   6.200   1.792  0.2347  0.2271  2.3464
 3113SOL    HW210239   5.793   6.287   1.833  0.4219  1.7188 -0.0471
 3114SOL     OW10240   4.056   0.210   1.664  0.1599  0.1868  0.1708
 3114SOL    HW110241   4.110   0.253   1.736 -1.1561  0.5199  0.9947
 3114SOL    HW210242   3.967   0.181   1.702  0.0204 -0.9589 -0.9700
 3115SOL     OW10243   5.756   5.185   6.088  0.1529 -0.6420  0.1109
 3115SOL    HW110244   5.842   5.193   6.037  0.4490  1.4810  0.8295
 3115SOL    HW210245   5.680   5.214   6.030  0.3441  0.5957  0.4482
 3116SOL     OW10246   5.894   2.243   1.332 -0.2549  0.3824  0.3767
 3116SOL    HW110247   5.925   2.308   1.263 -0.3555  0.1557  0.1117
 3116SOL    HW210248   5.932   2.267   1.421 -0.5791  1.0091  0.3487
 3117SOL     OW10249   4.700   2.870   6.715 -0.4375  0.3739 -0.3874
 3117SOL    HW110250   4.725   2.852   6.620 -0.1310 -0.3053 -0.1828
 3117SOL    HW210251   4.772   2.925   6.759  1.0518 -1.9805  0.3384
 3118SOL     OW10252   1.139   1.210   3.405  0.1782  0.1168 -0.2482
 3118SOL    HW110253   1.167   1.290   3.458 -0.5288 -0.0039  0.3195
 3118SOL    HW210254   1.212   1.142   3.406  0.5669  0.5305 -0.2832
 3119SOL     OW10255   3.960   1.160   0.657  0.4855 -0.0560 -0.2261
 3119SOL    HW110256   3.965   1.158   0.756  0.3104 -0.8440 -0.2229
 3119SOL    HW210257   3.911   1.242   0.627 -0.4660 -0.3807  0.3965
 3120SOL     OW10258   4.802   0.741   5.197  0.1569  0.5955 -0.5257
 3120SOL    HW110259   4.708   0.730   5.165  0.1519  1.5018 -0.8432
 3120SOL    HW210260   4.804   0.737   5.297 -0.2606  0.8549 -0.5073
 3121SOL     OW10261   0.250   1.320   4.828 -0.3433  0.9293 -0.1001
 3121SOL    HW110262   0.279   1.322   4.732 -2.2065 -1.1480 -0.8130
 3121SOL    HW210263   0.315   1.265   4.881 -0.3228  0.4370 -0.6182
 3122SOL     OW10264   4.059   5.103   3.079 -0.3386 -0.2721 -0.0626
 3122SOL    HW110265   4.059   5.018   3.132 -2.4022 -0.5185 -0.3844
 3122SOL    HW210266   4.041   5.081   2.983 -1.8131  0.5927  0.0011
 3123SOL     OW10267   1.321   0.300   4.567 -0.2512 -0.6105  0.2322
 3123SOL    HW110268   1.392   0.349   4.517 -1.1595  0.0490 -0.4570
 3123SOL    HW210269   1.349   0.286   4.662  0.0144  1.3006  0.4580
 3124SOL     OW10270   4.012   6.687   4.953  0.6078  0.5619 -0.4055
 3124SOL    HW110271   4.067   6.771   4.951 -1.9886  2.4419  1.0998
 3124SOL    HW210272   3.952   6.685   4.873  0.6293  0.1337 -0.4125
 3125SOL     OW10273   2.360   2.809   5.868 -0.1056 -0.1692 -0.1984
 3125SOL    HW110274   2.270   2.799   5.912 -1.3901  2.3756 -2.0201
 3125SOL    HW210275   2.401   2.895   5.897  0.0786  0.4262 -2.1310
 3126SOL     OW10276   5.370   4.987   4.690 -0.3087 -0.3229 -0.1174
 3126SOL    HW110277   5.365   5.045   4.771 -1.0520 -1.1646  0.4601
 3126SOL    HW210278   5.333   4.897   4.711  0.6193 -0.9536 -1.0547
 3127SOL     OW10279   3.891   1.049   5.519 -0.1352  0.2389  0.1971
 3127SOL    HW110280   3.826   1.069   5.591 -0.9632  0.6219 -0.6340
 3127SOL    HW210281   3.843   1.038   5.432  0.8620  0.1161 -0.3616
 3128SOL     OW10282   4.944   1.193   0.944 -0.0127 -0.8497  0.0622
 3128SOL    HW110283   4.875   1.171   1.014 -0.9194  0.2621 -0.4505
 3128SOL    HW210284   4.946   1.292   0.930  2.2893 -0.7569  0.6464
 3129SOL     OW10285   2.897   3.229   2.230  0.6479 -0.0789 -0.3087
 3129SOL    HW110286   2.804   3.215   2.197  0.0654  1.9105  0.3804
 3129SOL    HW210287   2.957   3.161   2.188 -0.7636 -0.2481 -2.2105
 3130SOL     OW10288   1.435   4.316   1.034  0.2858  1.0439  0.0144
 3130SOL    HW110289   1.414   4.305   0.937  1.5264  0.0584 -0.1754
 3130SOL    HW210290   1.528   4.353   1.043 -0.0482  1.7071  0.8237
 3131SOL     OW10291   0.270   4.403   2.837  0.4407  0.3059  0.0474
 3131SOL    HW110292   0.320   4.426   2.921 -1.3665 -2.2072  1.9806
 3131SOL    HW210293   0.312   4.323   2.795 -0.2353 -0.0585  0.0614
 3132SOL     OW10294   5.062   6.158   0.122 -0.3271  0.3245  0.3867
 3132SOL    HW110295   4.971   6.131   0.089 -0.0071  0.0799 -0.3213
 3132SOL    HW210296   5.128   6.087   0.098  0.4831  1.5798 -1.2709
 3133SOL     OW10297   4.240   1.894   3.218 -0.3376 -0.2386 -0.6431
 3133SOL    HW110298   4.243   1.889   3.318 -0.8052  0.1168 -0.6040
 3133SOL    HW210299   4.326   1.930   3.183  0.5792 -2.1958 -0.5070
 3134SOL     OW10300   2.195   5.940   6.092  0.2788  0.0580  0.6862
 3134SOL    HW110301   2.169   5.846   6.073 -0.1934 -0.1667  2.3184
 3134SOL    HW210302   2.278   5.963   6.040  0.5051 -1.3017  0.4173
 3135SOL     OW10303   4.095   0.331   5.782 -0.5286  0.3733 -0.0683
 3135SOL    HW110304   4.131   0.291   5.698 -1.0401 -0.7856  0.2477
 3135SOL    HW210305   4.162   0.319   5.855 -1.4648 -1.7492  0.5101
 3136SOL     OW10306   0.178   0.420   3.780 -0.2016  0.3630  0.4789
 3136SOL    HW110307   0.242   0.446   3.708 -0.1414  0.3771  0.5383
 3136SOL    HW210308   0.214   0.448   3.869 -1.1115  2.0387  0.3768
 3137SOL     OW10309   6.584   6.836   4.299 -0.2585 -0.1785  0.3776
 3137SOL    HW110310   6.628   6.861   4.213  0.8867 -0.5708  0.8236
 3137SOL    HW210311   6.520   6.908   4.327 -0.5146  0.0295 -0.7022
 3138SOL     OW10312   5.564   6.041   4.465 -0.3819 -0.5284 -0.3362
 3138SOL    HW110313   5.660   6.014   4.479 -0.3562 -0.6105 -0.6723
 3138SOL    HW210314   5.553   6.137   4.491 -0.3185 -0.6595  0.1830
 3139SOL     OW10315   3.757   1.934   0.048 -0.2348  0.1664 -0.3428
 3139SOL    HW110316   3.779   2.027   0.079  0.2771 -0.4211  1.1524
 3139SOL    HW210317   3.836   1.875   0.063 -1.0118 -0.8010  0.0195
 3140SOL     OW10318   5.467   6.969   5.093 -0.5417  0.3440 -0.2371
 3140SOL    HW110319   5.424   6.999   5.177 -0.9394  1.0470 -0.6866
 3140SOL    HW210320   5.414   7.000   5.014 -0.3652 -0.5907 -0.7457
 3141SOL     OW10321   1.525   6.047   6.765  0.8514  0.2568 -0.2615
 3141SOL    HW110322   1.531   6.073   6.668 -0.5387 -1.4407 -0.8684
 3141SOL    HW210323   1.512   5.948   6.772  2.4396  0.1328  1.7588
 3142SOL     OW10324   3.264   0.145   3.652  0.1789  0.7380  0.2479
 3142SOL    HW110325   3.272   0.232   3.701 -0.1595 -0.3484  2.3313
 3142SOL    HW210326   3.351   0.096   3.656  0.1953  0.7036 -0.4034
 3143SOL     OW10327   6.914   4.070   6.623 -0.0347  0.1116  0.2066
 3143SOL    HW110328   6.955   4.086   6.533  0.6801  2.2501  0.8546
 3143SOL    HW210329   6.969   4.002   6.673 -0.1133 -0.6684 -0.7394
 3144SOL     OW10330   2.992   3.747   1.797  0.6050 -0.3440  0.0944
 3144SOL    HW110331   2.944   3.833   1.778  2.2449  1.0710  1.9764
 3144SOL    HW210332   2.930   3.683   1.843 -0.0276  0.7372  0.7836
 3145SOL     OW10333   1.403   1.252   3.909 -0.0417 -0.0551  0.1240
 3145SOL    HW110334   1.434   1.234   3.816 -1.1585 -1.3196 -0.0256
 3145SOL    HW210335   1.369   1.168   3.951 -1.4031  0.8509  0.9655
 3146SOL     OW10336   1.951   6.175   4.419  0.2275 -0.1799  0.6743
 3146SOL    HW110337   2.037   6.136   4.384  0.5637  0.1736  1.0865
 3146SOL    HW210338   1.962   6.274   4.429 -1.0642  0.2675 -1.6937
 3147SOL     OW10339   1.519   6.813   5.547  0.2745 -0.2583 -0.6039
 3147SOL    HW110340   1.589   6.834   5.615 -0.5632  0.9209 -0.0538
 3147SOL    HW210341   1.504   6.893   5.489  0.2990 -0.9350 -1.5674
 3148SOL     OW10342   2.063   0.063   4.915 -0.1850  0.0465  0.8157
 3148SOL    HW110343   1.993   0.111   4.968 -0.7909  0.1961 -0.1066
 3148SOL    HW210344   2.132   0.129   4.884 -0.5759  0.1946  0.2475
 3149SOL     OW10345   5.561   0.883   0.138 -0.1727  0.8400  0.1609
 3149SOL    HW110346   5.584   0.791   0.171 -0.7434  1.3602  2.1347
 3149SOL    HW210347   5.463   0.890   0.124 -0.0059  0.8249 -1.1224
 3150SOL     OW10348   0.141   3.948   5.503 -0.9203  0.5423  0.0581
 3150SOL    HW110349   0.237   3.931   5.479 -1.0248 -2.4274  1.2244
 3150SOL    HW210350   0.137   3.994   5.592 -0.5741  1.0878 -0.2062
 3151SOL     OW10351   6.839   2.667   5.336 -0.1705 -0.3664  0.1220
 3151SOL    HW110352   6.839   2.733   5.260 -1.7580  0.3403  0.7003
 3151SOL    HW210353   6.789   2.585   5.309 -3.2331  0.9929  1.2306
 3152SOL     OW10354   5.654   3.850   5.796 -0.5714  0.1858 -0.1172
 3152SOL    HW110355   5.593   3.915   5.842 -0.4917 -0.5606  1.0934
 3152SOL    HW210356   5.695   3.789   5.864  1.4373  0.5804 -0.9206
 3153SOL     OW10357   5.197   5.184   0.928  1.3450  0.9948 -0.5341
 3153SOL    HW110358   5.287   5.177   0.971  1.6981 -0.5386 -1.4459
 3153SOL    HW210359   5.199   5.137   0.840 -0.5156  0.4691 -0.3300
 3154SOL     OW10360   4.845   2.383   1.772  0.3269  0.1170  0.1948
 3154SOL    HW110361   4.931   2.388   1.723 -0.0338 -0.6920 -0.5442
 3154SOL    HW210362   4.862   2.396   1.870  1.3447 -0.4818  0.1114
 3155SOL     OW10363   4.865   4.635   0.181 -0.4461 -0.1915  0.4736
 3155SOL    HW110364   4.945   4.588   0.219 -0.8218 -1.2134  0.0528
 3155SOL    HW210365   4.893   4.724   0.145 -0.1212  0.9560  3.3134
 3156SOL     OW10366   2.374   2.942   1.198  0.3358 -0.3025 -0.8431
 3156SOL    HW110367   2.342   2.949   1.103 -0.2501 -1.5731 -0.7635
 3156SOL    HW210368   2.295   2.932   1.259  0.6089  1.8405 -0.0386
 3157SOL     OW10369   3.603   2.160   5.582 -0.4145  0.4484  0.9929
 3157SOL    HW110370   3.659   2.083   5.553 -1.1165  1.2345 -3.1273
 3157SOL    HW210371   3.630   2.242   5.530 -2.1461  2.0792  2.4996
 3158SOL     OW10372   4.350   0.775   3.038  0.3330  0.1499 -0.5729
 3158SOL    HW110373   4.348   0.678   3.012 -0.4555 -0.5830  1.8722
 3158SOL    HW210374   4.265   0.819   3.008 -0.2741 -0.4930  0.1545
 3159SOL     OW10375   5.695   6.807   0.105 -0.1774 -0.1080  0.2636
 3159SOL    HW110376   5.684   6.860   0.189 -1.9699  0.2101 -0.1477
 3159SOL    HW210377   5.631   6.730   0.105 -0.1648 -0.1355 -0.8063
 3160SOL     OW10378   1.785   6.842   6.031  0.1420  0.3024 -0.6086
 3160SOL    HW110379   1.865   6.881   5.986  0.7584  1.2444  1.1651
 3160SOL    HW210380   1.703   6.860   5.976  0.5819  3.0655 -0.5221
 3161SOL     OW10381   1.939   0.921   3.216  0.2296 -0.3307 -0.2251
 3161SOL    HW110382   1.903   1.014   3.203  2.8589  1.0941  1.6534
 3161SOL    HW210383   1.896   0.880   3.297 -0.4112 -0.4538 -0.6270
 3162SOL     OW10384   5.981   4.269   1.900 -0.4455 -0.7494 -0.4497
 3162SOL    HW110385   6.070   4.265   1.944 -1.5675 -0.0263  2.0888
 3162SOL    HW210386   5.915   4.313   1.961 -2.7662 -2.0318 -1.8618
 3163SOL     OW10387   2.884   3.655   5.045 -0.5119 -0.8069  0.1857
 3163SOL    HW110388   2.953   3.670   5.116 -1.0545 -1.8662  0.9711
 3163SOL    HW210389   2.797   3.694   5.074 -0.2036  0.8007 -0.9368
 3164SOL     OW10390   4.735   5.862   2.403 -0.5287 -0.1955 -0.7176
 3164SOL    HW110391   4.809   5.881   2.467  0.2970  0.5910 -1.8702
 3164SOL    HW210392   4.674   5.941   2.397 -0.8756 -0.4454 -0.5660
 3165SOL     OW10393   1.090   0.133   1.869  0.3857  0.2826  0.5287
 3165SOL    HW110394   1.098   0.230   1.848  2.0967 -0.0126 -0.3320
 3165SOL    HW210395   1.181   0.095   1.887 -0.3839 -0.8795  2.2438
 3166SOL     OW10396   3.630   2.144   3.966  0.1694 -0.3092 -0.1103
 3166SOL    HW110397   3.655   2.229   4.011 -0.4901 -0.2489  0.1533
 3166SOL    HW210398   3.662   2.066   4.020 -1.2751 -0.2520  0.8952
 3167SOL     OW10399   3.607   3.166   1.179 -0.1854 -0.0347 -0.4069
 3167SOL    HW110400   3.684   3.150   1.240 -1.4007 -0.8801  0.9774
 3167SOL    HW210401   3.616   3.108   1.098 -1.0830 -2.8666  1.3834
 3168SOL     OW10402   5.439   3.745   6.894  0.0885  0.0486  0.6500
 3168SOL    HW110403   5.494   3.781   6.969 -0.1713 -0.4431  1.0885
 3168SOL    HW210404   5.351   3.793   6.891  0.6357  1.0287 -0.2277
 3169SOL     OW10405   1.031   4.897   5.480  0.1070  0.1049  0.1040
 3169SOL    HW110406   1.058   4.922   5.387 -1.2541 -1.7677 -0.8849
 3169SOL    HW210407   0.975   4.969   5.520 -0.1797  0.4840 -0.9654
 3170SOL     OW10408   2.675   6.137   1.326  0.1579 -0.0488  0.0557
 3170SOL    HW110409   2.608   6.140   1.400  1.7527  0.5267  1.5447
 3170SOL    HW210410   2.726   6.223   1.323  1.0481 -0.5755 -0.8304
 3171SOL     OW10411   0.406   0.477   2.585  0.4405 -0.2881  0.0324
 3171SOL    HW110412   0.316   0.487   2.543 -0.5658  0.1706  2.1443
 3171SOL    HW210413   0.396   0.432   2.674  2.6047 -2.2567 -0.6288
 3172SOL     OW10414   5.768   4.782   6.985 -0.4701 -0.3606  0.0407
 3172SOL    HW110415   5.788   4.827   7.072  0.4226 -2.4905  0.9888
 3172SOL    HW210416   5.725   4.693   7.002 -0.0187 -0.9533 -1.6930
 3173SOL     OW10417   3.258   1.102   1.118  0.2549 -0.1222 -0.1845
 3173SOL    HW110418   3.201   1.053   1.184  1.4605 -0.9126  0.3175
 3173SOL    HW210419   3.203   1.129   1.039 -0.7183 -1.2158  0.0901
 3174SOL     OW10420   2.579   0.767   6.375 -0.3688  0.4449 -0.9101
 3174SOL    HW110421   2.542   0.791   6.285  0.3502 -1.0957 -1.6467
 3174SOL    HW210422   2.653   0.701   6.365 -0.2295  0.2759  0.8279
 3175SOL     OW10423   5.997   0.438   2.073 -0.1383  0.0336 -0.3553
 3175SOL    HW110424   5.916   0.484   2.036 -0.5339  0.9733  1.4942
 3175SOL    HW210425   6.050   0.504   2.127  2.0780 -0.4831 -1.7874
 3176SOL     OW10426   0.267   0.306   5.606 -0.1125  0.1534 -0.1796
 3176SOL    HW110427   0.272   0.292   5.508 -0.0774 -0.5615 -0.0765
 3176SOL    HW210428   0.350   0.271   5.650 -0.4012 -0.1069  0.1683
 3177SOL     OW10429   4.783   4.566   1.722 -0.1556  0.4204  0.5460
 3177SOL    HW110430   4.827   4.651   1.753 -0.0010  0.9881 -1.1512
 3177SOL    HW210431   4.853   4.500   1.696 -0.2907  0.3393  0.3892
 3178SOL     OW10432   4.991   3.677   5.571  0.2247  0.2699 -0.0171
 3178SOL    HW110433   4.942   3.637   5.494  0.3651  0.0470  0.0065
 3178SOL    HW210434   5.071   3.728   5.537 -0.0508  0.6811 -0.0602
 3179SOL     OW10435   1.773   2.763   2.517  0.4558 -0.0159 -0.1460
 3179SOL    HW110436   1.841   2.747   2.589 -0.2095  0.1197  0.5377
 3179SOL    HW210437   1.703   2.826   2.552 -0.0910 -0.2647 -0.7789
 3180SOL     OW10438   6.589   6.120   6.642  0.1829 -0.8468  0.5430
 3180SOL    HW110439   6.653   6.148   6.713  0.9491 -1.8535  0.2761
 3180SOL    HW210440   6.503   6.171   6.653  0.9552  0.4117  0.9946
 3181SOL     OW10441   5.738   6.901   3.463 -0.1140 -0.0433 -0.2854
 3181SOL    HW110442   5.647   6.913   3.504 -0.8393 -4.6595  0.0382
 3181SOL    HW210443   5.733   6.919   3.365 -0.9035  1.3773 -0.0175
 3182SOL     OW10444   2.121   5.680   6.701  0.8671  0.5732  0.1419
 3182SOL    HW110445   2.137   5.777   6.685  0.6311  0.2984 -1.9680
 3182SOL    HW210446   2.092   5.667   6.796 -1.3806  2.8543 -0.1138
 3183SOL     OW10447   4.745   3.406   1.769 -0.6587 -0.4376  0.2451
 3183SOL    HW110448   4.651   3.401   1.733 -0.9309  0.9930  0.7063
 3183SOL    HW210449   4.758   3.493   1.816  0.0665 -1.7220  2.5750
 3184SOL     OW10450   0.486   2.255   3.794  0.3932 -0.1677 -0.0021
 3184SOL    HW110451   0.510   2.184   3.728  3.6835  1.3800 -0.6895
 3184SOL    HW210452   0.410   2.310   3.759 -1.3409 -2.4417 -0.0320
 3185SOL     OW10453   5.612   6.988   0.356  0.8025 -0.6351  0.5209
 3185SOL    HW110454   5.521   7.019   0.382  0.8781 -0.4169  0.5236
 3185SOL    HW210455   5.673   6.996   0.435  0.8615 -0.6383  0.4747
 3186SOL     OW10456   3.015   0.744   1.839  0.2937  0.2005  0.1517
 3186SOL    HW110457   3.066   0.658   1.840  1.0117  0.5068 -2.2842
 3186SOL    HW210458   3.075   0.818   1.809 -1.0269  0.9895 -0.6553
 3187SOL     OW10459   3.761   4.198   1.737 -0.2984  0.2409 -0.0707
 3187SOL    HW110460   3.802   4.149   1.813 -1.1427 -0.6362 -0.1527
 3187SOL    HW210461   3.832   4.234   1.677  0.3589  0.4388  0.8141
 3188SOL     OW10462   2.222   5.547   2.592  0.1358 -0.2517  0.0862
 3188SOL    HW110463   2.238   5.489   2.672  0.9547  0.0601  0.1620
 3188SOL    HW210464   2.243   5.496   2.509  0.4235 -0.2053  0.1303
 3189SOL     OW10465   1.524   2.005   0.152 -0.6813  0.1451  0.5914
 3189SOL    HW110466   1.427   1.981   0.153 -0.5654 -0.3453  1.8888
 3189SOL    HW210467   1.541   2.079   0.217  0.0111 -0.6174  1.2968
 3190SOL     OW10468   5.882   5.275   0.207  0.3404  0.3037 -0.4880
 3190SOL    HW110469   5.904   5.337   0.131 -0.2688  0.3765 -0.6067
 3190SOL    HW210470   5.960   5.270   0.269  0.2237  1.5808 -0.2082
 3191SOL     OW10471   5.485   4.372   1.971 -0.4830  0.3050 -0.3697
 3191SOL    HW110472   5.502   4.385   2.068  1.6077  3.3881 -0.9946
 3191SOL    HW210473   5.477   4.275   1.950  3.4898 -0.7742  2.2139
 3192SOL     OW10474   6.786   3.771   1.736  0.4217  0.5376 -0.1616
 3192SOL    HW110475   6.870   3.825   1.733  2.0113 -1.8108 -0.6572
 3192SOL    HW210476   6.755   3.754   1.643 -0.5087  1.2086  0.0155
 3193SOL     OW10477   4.228   2.889   5.842  0.3741 -0.2218 -0.0047
 3193SOL    HW110478   4.181   2.959   5.896  0.4593 -0.5648  0.5140
 3193SOL    HW210479   4.255   2.813   5.901  2.2306  0.2873 -0.1558
 3194SOL     OW10480   1.103   3.478   5.500  0.4613  0.3122  0.0383
 3194SOL    HW110481   1.118   3.574   5.524  1.0103  0.0348  0.8174
 3194SOL    HW210482   1.088   3.424   5.583 -0.0527 -0.2512 -0.4041
 3195SOL     OW10483   5.929   2.461   1.817  0.6339  0.1713  0.6834
 3195SOL    HW110484   5.869   2.502   1.885  0.1473 -2.0855  1.7128
 3195SOL    HW210485   5.884   2.382   1.775  1.8017  0.1598 -0.6515
 3196SOL     OW10486   6.049   1.640   5.699 -0.1902  0.2476  0.0141
 3196SOL    HW110487   6.033   1.730   5.660  1.9516  0.3439 -0.7667
 3196SOL    HW210488   6.116   1.591   5.644 -0.4271 -1.3757  1.0986
 3197SOL     OW10489   1.286   6.124   2.533  0.7657  0.2890 -0.4159
 3197SOL    HW110490   1.226   6.204   2.525  1.0146  0.3462 -1.9291
 3197SOL    HW210491   1.330   6.106   2.445  1.7297 -0.7340  0.2509
 3198SOL     OW10492   0.150   3.496   2.629  0.3662 -0.0595 -0.2702
 3198SOL    HW110493   0.246   3.497   2.601  0.1328 -0.0484 -1.0838
 3198SOL    HW210494   0.135   3.419   2.692  0.2380 -2.1295 -2.6720
 3199SOL     OW10495   5.869   3.714   3.526  0.3691  0.4746  0.1081
 3199SOL    HW110496   5.784   3.673   3.560 -0.4714  0.7938 -1.5167
 3199SOL    HW210497   5.850   3.769   3.444  2.0652  0.9882  0.0122
 3200SOL     OW10498   6.672   3.998   2.314 -0.1055 -0.7726  0.6611
 3200SOL    HW110499   6.587   4.018   2.265 -0.2358 -1.7175  0.4715
 3200SOL    HW210500   6.675   3.900   2.335  0.3150 -0.5230  1.8445
 3201SOL     OW10501   0.273   0.079   3.900 -1.0849  0.5948  0.0913
 3201SOL    HW110502   0.296   0.123   3.814 -1.0089 -1.8149 -1.2082
 3201SOL    HW210503   0.176   0.053   3.899 -0.6078 -1.3128 -0.2156
 3202SOL     OW10504   0.702   6.257   0.544 -0.5633  0.0464  0.1045
 3202SOL    HW110505   0.766   6.282   0.471  1.3535 -0.5781  1.4935
 3202SOL    HW210506   0.621   6.215   0.504  0.7978 -1.0667 -1.6484
 3203SOL     OW10507   6.170   0.728   0.021  0.1257 -0.2979 -0.3852
 3203SOL    HW110508   6.224   0.750  -0.060  0.1376  1.2027 -0.0054
 3203SOL    HW210509   6.226   0.743   0.103 -0.5508  0.3828 -0.0285
 3204SOL     OW10510   5.053   6.784   4.045 -0.2474  0.5851 -0.3415
 3204SOL    HW110511   4.989   6.753   4.115  0.2473  1.0142  0.3133
 3204SOL    HW210512   5.012   6.857   3.991  0.0304  1.5304  0.7052
 3205SOL     OW10513   5.574   2.577   6.130  0.6919  0.3267  0.2708
 3205SOL    HW110514   5.558   2.502   6.194  0.6210 -1.9642 -2.2858
 3205SOL    HW210515   5.491   2.596   6.078  1.2533  0.8624 -0.4627
 3206SOL     OW10516   2.114   2.797   3.221  0.2528  0.2842 -0.3506
 3206SOL    HW110517   2.072   2.737   3.153 -0.6142 -0.3181  0.6964
 3206SOL    HW210518   2.193   2.752   3.262 -0.3124 -0.0987  0.3327
 3207SOL     OW10519   1.808   1.820   6.689 -0.2225  0.5649  0.3100
 3207SOL    HW110520   1.861   1.781   6.614  1.7397  2.3245  0.6757
 3207SOL    HW210521   1.870   1.850   6.761 -1.9605  0.2885  1.9883
 3208SOL     OW10522   6.577   0.785   6.561  0.1092  0.1189  0.0256
 3208SOL    HW110523   6.493   0.836   6.540 -0.0171  0.4340  1.2433
 3208SOL    HW210524   6.569   0.692   6.526 -1.4985 -0.4000  1.6453
 3209SOL     OW10525   2.360   6.158   4.510 -0.2653 -0.5806  0.6602
 3209SOL    HW110526   2.291   6.121   4.571 -0.1658 -0.9492  0.5545
 3209SOL    HW210527   2.447   6.166   4.558 -0.2007 -0.8178  0.5828
 3210SOL     OW10528   0.876   4.357   0.739  0.5385  0.5176 -0.5264
 3210SOL    HW110529   0.818   4.438   0.743 -0.3336 -0.0963 -0.4915
 3210SOL    HW210530   0.967   4.384   0.707  0.4676  1.6068  0.1166
 3211SOL     OW10531   1.107   3.031   6.762 -0.5701  0.5754  0.4396
 3211SOL    HW110532   1.162   2.961   6.808 -1.0322  0.4867  0.8615
 3211SOL    HW210533   1.166   3.085   6.702  0.0616  0.7879  1.2434
 3212SOL     OW10534   3.480   5.932   2.176 -0.2440  0.2524 -0.5193
 3212SOL    HW110535   3.424   5.911   2.096  1.9003 -2.6001 -1.4323
 3212SOL    HW210536   3.576   5.938   2.148  0.4196  0.4015  1.6590
 3213SOL     OW10537   0.943   6.070   6.902 -0.2279 -0.2897 -0.2032
 3213SOL    HW110538   0.963   6.007   6.827  0.3282  0.0588 -0.3562
 3213SOL    HW210539   0.910   6.157   6.865 -1.1344 -0.5296  0.0131
 3214SOL     OW10540   2.733   4.366   0.155 -0.0259  0.0570  0.2031
 3214SOL    HW110541   2.746   4.285   0.212 -0.4610 -0.7212 -0.7851
 3214SOL    HW210542   2.791   4.440   0.190  2.3789 -1.4345 -0.3744
 3215SOL     OW10543   6.539   3.976   0.340  0.0473  0.3739  0.1834
 3215SOL    HW110544   6.525   3.909   0.267  0.0131  0.0929  0.4441
 3215SOL    HW210545   6.548   3.928   0.428 -1.5496  0.7714  0.6092
 3216SOL     OW10546   0.140   1.322   2.249 -0.3664  0.6025  0.2498
 3216SOL    HW110547   0.218   1.325   2.312 -0.4622  2.0055  0.3384
 3216SOL    HW210548   0.118   1.415   2.220 -1.9630  0.2140  0.1671
 3217SOL     OW10549   6.508   6.121   3.857 -0.5370 -0.0880  0.5701
 3217SOL    HW110550   6.528   6.091   3.764 -1.4799  2.2930 -0.4976
 3217SOL    HW210551   6.544   6.055   3.922 -0.7340 -2.3517 -1.4866
 3218SOL     OW10552   0.806   1.772   2.657  0.3374  0.4149  0.0359
 3218SOL    HW110553   0.774   1.686   2.617  1.0363  0.4372 -0.5761
 3218SOL    HW210554   0.763   1.848   2.609  1.7500  0.4624 -1.2183
 3219SOL     OW10555   6.461   2.060   4.199 -0.1023  0.2630 -0.1213
 3219SOL    HW110556   6.445   1.992   4.128  1.7536 -1.9299  1.4358
 3219SOL    HW210557   6.467   2.015   4.288  2.8200  2.1812  0.7954
 3220SOL     OW10558   5.877   5.573   5.018  0.1138  0.5394  0.6664
 3220SOL    HW110559   5.922   5.648   4.968 -0.9561  1.3659  0.9018
 3220SOL    HW210560   5.778   5.585   5.013 -0.0365 -0.1505  1.8182
 3221SOL     OW10561   3.205   0.886   2.761 -0.8879 -0.1205  0.0040
 3221SOL    HW110562   3.169   0.978   2.775 -0.0573  0.4113 -1.2439
 3221SOL    HW210563   3.254   0.881   2.674 -2.6975 -2.2794 -1.0120
 3222SOL     OW10564   5.344   2.236   2.620  0.4734 -0.4323 -0.2514
 3222SOL    HW110565   5.439   2.235   2.587  0.1414 -0.3533 -1.2335
 3222SOL    HW210566   5.304   2.326   2.606  0.3030 -0.4158  0.3234
 3223SOL     OW10567   2.278   0.198   0.368  0.0301  0.2258 -0.5498
 3223SOL    HW110568   2.364   0.239   0.398 -0.2431  2.0267 -2.0700
 3223SOL    HW210569   2.290   0.157   0.278 -0.2376 -1.2508  0.0693
 3224SOL     OW10570   5.783   1.993   5.471 -0.1318  0.5509  0.0303
 3224SOL    HW110571   5.706   2.055   5.488  0.6465  1.3205  0.8839
 3224SOL    HW210572   5.754   1.922   5.407 -1.5333  0.8494  0.2793
 3225SOL     OW10573   0.321   0.274   6.013 -0.4276 -0.0960  0.3907
 3225SOL    HW110574   0.344   0.271   5.915 -1.6628 -0.8203  0.0906
 3225SOL    HW210575   0.391   0.225   6.065 -0.7346 -1.4184 -0.3740
 3226SOL     OW10576   1.577   0.039   4.394  0.8635  0.0713 -0.3346
 3226SOL    HW110577   1.608   0.108   4.329 -0.7291  0.6658 -0.4976
 3226SOL    HW210578   1.556   0.082   4.482 -0.3530 -0.1304 -0.5040
 3227SOL     OW10579   3.833   1.960   5.531  0.1680  0.3758 -0.5118
 3227SOL    HW110580   3.862   1.972   5.625 -1.6446 -0.2430  0.1813
 3227SOL    HW210581   3.901   1.907   5.481 -0.2335 -2.0435  1.3312
 3228SOL     OW10582   5.813   3.541   0.875 -0.1988  0.1897 -0.2020
 3228SOL    HW110583   5.875   3.607   0.919 -0.6727  0.6274 -0.1941
 3228SOL    HW210584   5.725   3.584   0.858  0.2637  0.3262 -2.4853
 3229SOL     OW10585   4.755   6.557   6.418 -0.3696 -0.2111  0.2987
 3229SOL    HW110586   4.751   6.611   6.334  0.2927 -3.1210 -1.7616
 3229SOL    HW210587   4.734   6.462   6.397  1.0800 -1.2841  3.2165
 3230SOL     OW10588   2.268   4.579   5.009 -0.2485  0.5099  0.5580
 3230SOL    HW110589   2.272   4.489   5.051 -1.9910  0.2122  0.1463
 3230SOL    HW210590   2.351   4.594   4.955 -0.7860 -1.6551 -0.9696
 3231SOL     OW10591   3.257   1.991   1.880  0.1064  0.1655 -0.1962
 3231SOL    HW110592   3.187   2.031   1.939  0.3818  0.1806  0.1231
 3231SOL    HW210593   3.311   2.064   1.837 -0.0250  0.1527 -0.3837
 3232SOL     OW10594   1.361   1.025   5.155  0.9626 -0.0957 -0.0211
 3232SOL    HW110595   1.411   1.058   5.075 -0.2787  1.0945 -0.3416
 3232SOL    HW210596   1.310   0.942   5.130  0.8922  0.0467 -0.3614
 3233SOL     OW10597   6.394   3.762   3.228  0.1836 -0.2122  0.2882
 3233SOL    HW110598   6.301   3.801   3.230  0.5658  0.9581 -1.6954
 3233SOL    HW210599   6.389   3.666   3.201 -0.5258 -0.4969  1.3913
 3234SOL     OW10600   2.007   4.925   1.220  0.2727  0.3846 -0.0274
 3234SOL    HW110601   2.006   4.842   1.165  1.4602  0.3463 -0.0226
 3234SOL    HW210602   2.067   4.912   1.299 -1.7207  0.2789  1.5589
 3235SOL     OW10603   6.698   0.929   1.361  0.4370 -0.5377 -0.3984
 3235SOL    HW110604   6.780   0.972   1.399 -0.8099  0.6609  1.1232
 3235SOL    HW210605   6.624   0.997   1.357 -1.8932 -2.5466  2.9278
 3236SOL     OW10606   1.606   3.742   6.612 -0.2012 -0.0604 -0.4517
 3236SOL    HW110607   1.539   3.677   6.648  0.3676 -2.1387 -2.9050
 3236SOL    HW210608   1.698   3.708   6.630  0.1427  0.6496 -0.8148
 3237SOL     OW10609   1.065   1.591   3.054 -0.4058  0.6957  0.1883
 3237SOL    HW110610   0.989   1.655   3.044  0.5181  1.5278 -2.3910
 3237SOL    HW210611   1.071   1.534   2.971  1.0342 -0.2013  0.8810
 3238SOL     OW10612   5.968   4.747   0.433 -0.0034  0.4584 -0.1010
 3238SOL    HW110613   6.020   4.662   0.424 -0.1447  0.2484  0.9060
 3238SOL    HW210614   5.930   4.752   0.526 -0.2828  1.4576 -0.2670
 3239SOL     OW10615   6.791   4.075   3.254 -0.4552 -0.3887  0.3862
 3239SOL    HW110616   6.787   4.170   3.225  1.0238 -0.9499 -1.9534
 3239SOL    HW210617   6.706   4.050   3.301 -0.4058  2.3395  2.1268
 3240SOL     OW10618   0.432   7.010   5.482  0.5939  0.6769 -0.1446
 3240SOL    HW110619   0.421   6.935   5.547  0.4492  1.3500  0.6215
 3240SOL    HW210620   0.343   7.053   5.465  0.2508 -0.7506 -2.3690
 3241SOL     OW10621   5.828   0.691   0.799  0.1256  0.1384  0.4054
 3241SOL    HW110622   5.867   0.599   0.802  0.2993  0.1987  0.1028
 3241SOL    HW210623   5.835   0.727   0.705 -1.7679 -0.3322  0.0492
 3242SOL     OW10624   3.472   3.376   0.025 -0.4791 -0.3650  0.0521
 3242SOL    HW110625   3.437   3.450  -0.032  0.4395 -0.8162 -1.1407
 3242SOL    HW210626   3.537   3.321  -0.028  0.1459 -1.0092  1.4369
 3243SOL     OW10627   4.107   4.102   0.446 -0.2306 -0.0113  0.4655
 3243SOL    HW110628   4.033   4.168   0.449  1.1232  1.5524  2.8945
 3243SOL    HW210629   4.112   4.053   0.533  3.3781  2.1789  1.7144
 3244SOL     OW10630   6.133   6.972   2.125  0.1810 -0.1948 -0.1450
 3244SOL    HW110631   6.055   6.928   2.081 -0.4709 -0.4120  1.1808
 3244SOL    HW210632   6.102   7.055   2.172  0.4133 -1.0422  1.6219
 3245SOL     OW10633   6.506   1.883   4.435 -0.1814 -0.6906 -0.0754
 3245SOL    HW110634   6.520   1.941   4.515  0.6393 -0.8862 -0.0635
 3245SOL    HW210635   6.434   1.816   4.454 -1.1581  0.3330 -0.1047
 3246SOL     OW10636   5.827   1.922   2.524 -0.0615  0.5186  0.5360
 3246SOL    HW110637   5.831   2.022   2.519 -1.4466  0.5726  0.2810
 3246SOL    HW210638   5.899   1.883   2.467 -0.4671  1.3591 -0.5840
 3247SOL     OW10639   6.496   3.480   1.008  0.0483  0.4804  0.1988
 3247SOL    HW110640   6.470   3.576   1.004  0.1965  0.4901 -0.5131
 3247SOL    HW210641   6.421   3.427   1.048 -0.4773  0.7286 -0.4408
 3248SOL     OW10642   5.700   2.848   2.530  0.7237  0.2111 -0.3119
 3248SOL    HW110643   5.658   2.829   2.618  0.5870  0.6675 -0.2718
 3248SOL    HW210644   5.779   2.908   2.543 -0.0128  1.2906 -0.5936
 3249SOL     OW10645   2.901   3.241   3.667 -0.2269 -0.0339  0.2667
 3249SOL    HW110646   2.816   3.194   3.646  0.4542 -1.0620 -0.2230
 3249SOL    HW210647   2.919   3.311   3.597 -0.9588  0.6152  0.7027
 3250SOL     OW10648   6.829   0.994   2.457  0.2765 -0.5343 -0.1811
 3250SOL    HW110649   6.741   0.956   2.485  0.2044 -0.4639 -0.3096
 3250SOL    HW210650   6.874   0.932   2.394 -0.9054  0.6222 -2.2740
 3251SOL     OW10651   3.267   1.157   2.869  0.1108  0.3045 -0.4047
 3251SOL    HW110652   3.245   1.164   2.966  1.1901  0.1887 -0.1327
 3251SOL    HW210653   3.183   1.150   2.815 -0.4798 -0.8607  0.6233
 3252SOL     OW10654   3.873   1.413   2.402  0.5144  0.2538  0.0239
 3252SOL    HW110655   3.778   1.445   2.410  1.2098  2.1029  1.9702
 3252SOL    HW210656   3.918   1.462   2.328  0.0387 -0.4767 -0.7676
 3253SOL     OW10657   4.135   3.772   0.048  0.2487  0.1278  0.1405
 3253SOL    HW110658   4.049   3.754   0.001  0.7970 -2.4228 -0.0622
 3253SOL    HW210659   4.175   3.856   0.012 -0.4071 -0.5657 -2.4903
 3254SOL     OW10660   5.932   6.548   6.434  0.0141  0.5398  0.5058
 3254SOL    HW110661   5.837   6.578   6.430 -0.5545 -1.1768  0.4094
 3254SOL    HW210662   5.975   6.584   6.516 -0.4953  1.9323  0.1837
 3255SOL     OW10663   5.921   6.788   2.081  0.3596  0.1116 -0.1047
 3255SOL    HW110664   5.837   6.806   2.132 -0.4069 -2.3839 -0.3552
 3255SOL    HW210665   5.918   6.839   1.995 -1.6940 -1.1130 -0.8394
 3256SOL     OW10666   6.476   0.397   2.542 -0.3193  0.0001  0.0944
 3256SOL    HW110667   6.392   0.447   2.524 -0.2754 -0.4854 -1.6247
 3256SOL    HW210668   6.462   0.335   2.620 -0.9625  1.2270  0.9760
 3257SOL     OW10669   6.955   3.834   1.241  0.5530  0.5375 -0.4235
 3257SOL    HW110670   7.036   3.891   1.258  1.2437 -0.0035 -1.7559
 3257SOL    HW210671   6.875   3.893   1.233  1.1801  1.2989 -1.2955
 3258SOL     OW10672   4.499   5.743   1.815  0.9934  0.1228 -0.5302
 3258SOL    HW110673   4.408   5.782   1.820  1.3972  1.2536 -1.5786
 3258SOL    HW210674   4.548   5.761   1.900  0.7286  0.7900 -0.5177
 3259SOL     OW10675   2.745   6.386   6.869 -0.5683 -0.3680  0.1387
 3259SOL    HW110676   2.795   6.464   6.833 -1.3558 -0.0626 -0.3120
 3259SOL    HW210677   2.787   6.301   6.837  0.3690 -0.1469  0.7371
 3260SOL     OW10678   4.014   2.636   1.381  0.3190  0.0219  0.4964
 3260SOL    HW110679   4.079   2.630   1.457  2.3914 -1.5636 -1.2632
 3260SOL    HW210680   3.932   2.584   1.403  0.9021 -0.4561  1.6173
 3261SOL     OW10681   6.950   0.624   6.978 -0.8440  0.0790  0.3547
 3261SOL    HW110682   6.914   0.708   7.019  0.4458  1.1850 -0.6664
 3261SOL    HW210683   6.908   0.610   6.888 -1.2404 -0.5091  0.6291
 3262SOL     OW10684   5.180   3.668   1.481  0.4599 -0.1448  0.0565
 3262SOL    HW110685   5.237   3.586   1.483 -0.2117 -0.6363  2.3332
 3262SOL    HW210686   5.199   3.724   1.562 -2.1969 -0.3257  0.9230
 3263SOL     OW10687   4.925   2.323   4.565  0.3688 -0.4443  0.3249
 3263SOL    HW110688   4.996   2.291   4.501  0.3396  0.4530 -0.1752
 3263SOL    HW210689   4.836   2.320   4.520  0.4232  0.7387  0.1023
 3264SOL     OW10690   2.380   1.225   0.464 -0.0979  0.1460  0.3010
 3264SOL    HW110691   2.308   1.179   0.516 -1.2050  1.0048 -0.4407
 3264SOL    HW210692   2.376   1.324   0.481  0.6929  0.2423 -0.0129
 3265SOL     OW10693   4.991   6.699   0.798 -0.0043 -0.4282 -0.0496
 3265SOL    HW110694   5.004   6.624   0.863 -0.8706 -0.6576 -0.1229
 3265SOL    HW210695   4.966   6.782   0.848  1.1599 -0.1152  0.0495
 3266SOL     OW10696   1.222   4.452   6.300 -0.2858  0.2491 -0.0172
 3266SOL    HW110697   1.265   4.490   6.218  2.2502  0.2317  1.1858
 3266SOL    HW210698   1.174   4.525   6.349  0.3649  0.8486 -0.2413
 3267SOL     OW10699   3.302   4.893   3.135  0.1128  0.3813  0.4045
 3267SOL    HW110700   3.386   4.946   3.122 -0.4538  1.7020  1.7753
 3267SOL    HW210701   3.285   4.881   3.233 -0.3019 -1.5483  0.1338
 3268SOL     OW10702   2.930   3.978   1.513  0.3231  0.3727 -0.1549
 3268SOL    HW110703   2.878   3.910   1.460  1.0197 -0.1062 -0.2417
 3268SOL    HW210704   2.927   3.953   1.610 -1.3313  1.4990  0.1229
 3269SOL     OW10705   5.053   4.963   1.073  0.3349  0.1104 -0.1385
 3269SOL    HW110706   5.100   5.040   1.029  2.7654 -0.3920  1.4211
 3269SOL    HW210707   5.095   4.877   1.044 -0.5743 -0.4651  0.2165
 3270SOL     OW10708   0.265   4.084   0.208 -0.2355 -0.0779 -0.4555
 3270SOL    HW110709   0.206   4.142   0.151  0.0375 -0.9311 -1.6273
 3270SOL    HW210710   0.218   3.998   0.226 -1.1005  0.8467  2.1945
 3271SOL     OW10711   6.288   6.478   6.517 -0.2200 -0.1214 -0.6174
 3271SOL    HW110712   6.360   6.545   6.500 -0.9214  0.7429 -0.2152
 3271SOL    HW210713   6.260   6.437   6.430 -1.4443  1.8512 -1.2112
 3272SOL     OW10714   3.783   3.629   5.799  0.3277  0.0678 -0.2775
 3272SOL    HW110715   3.853   3.592   5.736 -0.8195 -2.8835  0.0192
 3272SOL    HW210716   3.717   3.682   5.747 -0.0481 -1.4972 -1.4839
 3273SOL     OW10717   5.899   3.722   1.128 -0.0003 -0.0898  0.0660
 3273SOL    HW110718   5.930   3.789   1.061 -1.9870 -0.1658 -1.0164
 3273SOL    HW210719   5.905   3.762   1.220  3.4899 -0.2610  0.0322
 3274SOL     OW10720   4.872   0.765   0.151 -0.5294  0.2631  0.2452
 3274SOL    HW110721   4.884   0.667   0.140  0.5837  0.4146 -0.0593
 3274SOL    HW210722   4.850   0.807   0.063 -0.1061  0.3956  0.2000
 3275SOL     OW10723   4.727   0.251   6.705  0.2719  0.0250 -0.3456
 3275SOL    HW110724   4.676   0.214   6.783 -0.0049 -1.6705 -1.2780
 3275SOL    HW210725   4.824   0.259   6.729 -0.0163  0.8521  0.6095
 3276SOL     OW10726   2.295   5.766   6.345 -0.8681 -0.1124  0.6886
 3276SOL    HW110727   2.339   5.696   6.289  0.5428  0.6750  0.7412
 3276SOL    HW210728   2.211   5.797   6.300 -1.5109 -1.8013  0.6741
 3277SOL     OW10729   2.752   1.520   0.003  0.1275  0.3257 -0.1872
 3277SOL    HW110730   2.734   1.479  -0.087  0.8458 -0.3479 -0.0365
 3277SOL    HW210731   2.850   1.538   0.012  0.4383 -1.8278  1.3430
 3278SOL     OW10732   1.026   1.164   5.305 -0.1226 -0.5456 -0.4782
 3278SOL    HW110733   1.004   1.261   5.296 -0.7233 -0.6976 -0.6656
 3278SOL    HW210734   1.119   1.155   5.341 -0.2201  0.1003 -0.0397
 3279SOL     OW10735   3.646   6.377   6.374 -0.4515 -1.0200  0.0403
 3279SOL    HW110736   3.739   6.415   6.373 -0.7265 -0.3010 -1.9430
 3279SOL    HW210737   3.580   6.452   6.365 -1.2196 -1.5945  0.7786
 3280SOL     OW10738   4.090   5.383   4.165  0.2736 -0.1171 -0.3010
 3280SOL    HW110739   4.033   5.308   4.131 -0.1001  0.0024  0.0519
 3280SOL    HW210740   4.083   5.387   4.264 -0.2038  0.7740 -0.3579
 3281SOL     OW10741   0.904   4.025   1.980  0.1744 -0.4269  0.3443
 3281SOL    HW110742   0.862   4.084   2.049  2.7675 -0.1008  1.8189
 3281SOL    HW210743   0.852   4.030   1.895 -2.0366  0.7164  1.6662
 3282SOL     OW10744   1.594   4.495   3.744  0.2100  0.1303 -0.2065
 3282SOL    HW110745   1.613   4.502   3.842 -0.8977  1.7726 -0.0705
 3282SOL    HW210746   1.677   4.518   3.693  0.0688  2.1030  0.3716
 3283SOL     OW10747   2.896   1.423   1.485 -0.3141  0.2815  0.4613
 3283SOL    HW110748   2.991   1.391   1.484 -0.5730 -0.5661  1.2329
 3283SOL    HW210749   2.851   1.397   1.401  0.0315  0.3692  0.2453
 3284SOL     OW10750   1.778   6.336   1.451  0.9359  0.4491  0.2735
 3284SOL    HW110751   1.858   6.321   1.508  0.8857  1.2680  0.5726
 3284SOL    HW210752   1.696   6.338   1.508  0.1395 -3.9212 -0.2929
 3285SOL     OW10753   5.196   2.489   4.434 -0.4043 -0.5571 -0.1623
 3285SOL    HW110754   5.194   2.446   4.524  0.6607  0.3479  0.3103
 3285SOL    HW210755   5.135   2.439   4.372 -0.9335 -1.3580  0.9715
 3286SOL     OW10756   5.558   3.364   1.954 -0.1604  0.2784 -0.0831
 3286SOL    HW110757   5.583   3.267   1.954  0.3835  0.4159 -0.5031
 3286SOL    HW210758   5.460   3.373   1.933  0.0557 -0.1197 -1.3647
 3287SOL     OW10759   0.954   6.502   6.805 -0.1636  0.2786  0.1456
 3287SOL    HW110760   1.030   6.440   6.786 -0.2667 -0.7784  2.7241
 3287SOL    HW210761   0.872   6.469   6.759  0.1545 -0.6069  0.1943
 3288SOL     OW10762   1.845   6.369   0.287 -0.5218  0.6780 -0.1596
 3288SOL    HW110763   1.917   6.350   0.354 -1.9435  1.2998  1.6252
 3288SOL    HW210764   1.849   6.301   0.214 -0.0575 -1.1993  1.5081
 3289SOL     OW10765   4.855   1.075   6.302 -0.0238 -0.3664  0.3082
 3289SOL    HW110766   4.776   1.036   6.349  1.7384 -1.5640  2.4810
 3289SOL    HW210767   4.896   1.145   6.360  0.7541 -0.0766 -0.5805
 3290SOL     OW10768   5.524   3.958   1.374 -0.5423 -0.2579 -0.2745
 3290SOL    HW110769   5.570   4.004   1.298  0.2118 -1.6094 -0.6638
 3290SOL    HW210770   5.429   3.986   1.378 -0.1439  1.2140 -0.5858
 3291SOL     OW10771   2.560   2.258   0.745  0.5216 -0.6307  0.1279
 3291SOL    HW110772   2.648   2.302   0.725  0.3380  0.0287  0.7249
 3291SOL    HW210773   2.575   2.177   0.801  0.6970 -0.0064  1.0122
 3292SOL     OW10774   6.863   5.877   6.528 -0.3380  0.0800 -0.3677
 3292SOL    HW110775   6.885   5.973   6.511  0.3875 -0.1463 -0.7398
 3292SOL    HW210776   6.940   5.820   6.502 -1.3788 -0.7495 -1.8094
 3293SOL     OW10777   1.020   4.960   6.929 -0.5703 -0.0860  0.4806
 3293SOL    HW110778   0.988   5.031   6.867 -0.3224 -1.0263 -0.7689
 3293SOL    HW210779   1.109   4.985   6.967 -0.0840 -0.0964 -0.6130
 3294SOL     OW10780   5.077   3.554   5.802  0.3705 -0.2960  0.1020
 3294SOL    HW110781   5.048   3.601   5.719 -0.5688  3.5976  2.3623
 3294SOL    HW210782   4.998   3.538   5.861  1.3045 -0.3618  1.3955
 3295SOL     OW10783   0.708   2.155   2.707  0.4698  0.1603 -0.2408
 3295SOL    HW110784   0.763   2.215   2.649  2.5005 -0.8671  0.5306
 3295SOL    HW210785   0.671   2.080   2.652  2.1238 -0.6390 -0.3188
 3296SOL     OW10786   0.780   1.459   3.348 -0.4771  0.3640  0.5190
 3296SOL    HW110787   0.817   1.366   3.347 -0.8878  0.1309 -2.3433
 3296SOL    HW210788   0.743   1.480   3.258 -1.8174  2.7750  1.5594
 3297SOL     OW10789   3.751   0.448   6.349 -0.1818  0.1218  0.1591
 3297SOL    HW110790   3.826   0.395   6.389  0.0134  0.3774  0.1358
 3297SOL    HW210791   3.703   0.391   6.282  0.8043  0.3594 -0.7840
 3298SOL     OW10792   4.246   1.942   0.247 -0.7489 -0.1711 -0.1399
 3298SOL    HW110793   4.160   1.987   0.270 -0.4380  0.9638 -1.0719
 3298SOL    HW210794   4.252   1.854   0.294 -2.4672 -0.3327 -0.1732
 3299SOL     OW10795   4.909   5.865   2.621  0.5444 -0.1860  0.0028
 3299SOL    HW110796   4.866   5.798   2.683 -0.2405  0.5269  0.2456
 3299SOL    HW210797   4.936   5.946   2.673  1.6707 -0.3733 -0.2574
 3300SOL     OW10798   1.214   1.905   6.194 -0.3929 -0.5066 -0.0636
 3300SOL    HW110799   1.233   1.994   6.236 -1.5772 -0.2654 -0.0285
 3300SOL    HW210800   1.285   1.840   6.221 -1.7820 -0.7480  3.4040
 3301SOL     OW10801   1.117   4.914   3.129  1.0867  0.4307  0.0912
 3301SOL    HW110802   1.217   4.912   3.128  1.1204  0.4142  1.6652
 3301SOL    HW210803   1.082   4.821   3.135  0.9385  0.3854 -1.2004
 3302SOL     OW10804   0.879   4.440   5.651 -0.0418  0.2779  0.2478
 3302SOL    HW110805   0.793   4.389   5.652 -0.7237  1.1073 -3.1144
 3302SOL    HW210806   0.873   4.514   5.583  2.2416  2.4511  2.2197
 3303SOL     OW10807   2.827   3.417   6.882  0.1554 -0.0848 -0.9791
 3303SOL    HW110808   2.772   3.499   6.874 -2.6431 -1.3194  2.5375
 3303SOL    HW210809   2.896   3.430   6.953 -1.3819 -1.1141  0.8069
 3304SOL     OW10810   2.356   4.477   6.031 -0.4384  0.2894  0.1215
 3304SOL    HW110811   2.256   4.484   6.032 -0.5593 -0.5310 -1.7225
 3304SOL    HW210812   2.382   4.381   6.016  0.6542  0.3513  1.5072
 3305SOL     OW10813   2.160   2.477   1.564 -1.0352 -0.1136 -0.2026
 3305SOL    HW110814   2.212   2.418   1.503 -0.8307  1.4219 -1.5652
 3305SOL    HW210815   2.178   2.451   1.659  1.5451 -0.1677 -0.6505
 3306SOL     OW10816   1.788   6.119   2.655 -0.4899 -0.3616 -0.0864
 3306SOL    HW110817   1.729   6.088   2.730  0.0653  0.2474  0.6195
 3306SOL    HW210818   1.882   6.127   2.688 -0.0651 -0.9850 -1.1066
 3307SOL     OW10819   0.260   0.248   6.396  0.5928  0.3971 -0.1050
 3307SOL    HW110820   0.283   0.345   6.407 -0.0317  0.5450 -0.0750
 3307SOL    HW210821   0.344   0.194   6.396  0.8555  0.7606  1.6463
 3308SOL     OW10822   3.863   0.052   1.846 -0.2264 -0.1485  0.5128
 3308SOL    HW110823   3.858   0.029   1.943 -1.0522 -0.8017  0.3335
 3308SOL    HW210824   3.812  -0.017   1.793 -1.8569  1.4840 -0.1657
 3309SOL     OW10825   4.326   4.781   2.922  0.1295  0.5399 -0.8173
 3309SOL    HW110826   4.341   4.817   2.830 -0.1850 -1.5968 -1.7625
 3309SOL    HW210827   4.380   4.698   2.934  0.1996  0.7999  0.9868
 3310SOL     OW10828   5.810   3.370   6.258  1.0252 -0.4047 -0.1871
 3310SOL    HW110829   5.871   3.351   6.335  0.8066 -0.5929 -0.0594
 3310SOL    HW210830   5.764   3.458   6.273 -1.0364 -1.6351  1.2268
 3311SOL     OW10831   3.467   3.512   5.873  0.2297 -0.2556  0.5440
 3311SOL    HW110832   3.536   3.446   5.842  0.8504  0.2496  0.8348
 3311SOL    HW210833   3.463   3.588   5.808  1.7427  0.9562  1.7836
 3312SOL     OW10834   4.848   4.895   4.901 -0.6915 -0.1126  0.2977
 3312SOL    HW110835   4.865   4.867   4.807 -1.1305 -0.7769  0.4093
 3312SOL    HW210836   4.838   4.814   4.958  1.4318  0.2329  1.2731
 3313SOL     OW10837   1.423   5.885   4.773 -0.2884 -0.3676  0.5325
 3313SOL    HW110838   1.432   5.936   4.859  1.0306 -1.1341  0.8797
 3313SOL    HW210839   1.473   5.799   4.781  1.1792  0.2321 -1.5353
 3314SOL     OW10840   2.932   0.715   2.356  0.0109 -0.1128  0.2025
 3314SOL    HW110841   2.899   0.695   2.264  0.0106  1.2537 -0.1094
 3314SOL    HW210842   3.020   0.763   2.351  1.2026 -2.0695  0.9856
 3315SOL     OW10843   1.369   6.185   4.561 -0.1601 -0.2996  0.2716
 3315SOL    HW110844   1.455   6.222   4.598 -0.7246  0.9230  0.4206
 3315SOL    HW210845   1.380   6.088   4.541  1.4607 -0.0205 -0.3254
 3316SOL     OW10846   4.540   0.157   6.889  0.2260  0.7619  0.2379
 3316SOL    HW110847   4.452   0.124   6.857  0.6421 -0.1945  0.0617
 3316SOL    HW210848   4.557   0.123   6.982 -0.5585  2.7562  1.1752
 3317SOL     OW10849   6.397   1.861   1.683  0.1147  0.5179 -0.3879
 3317SOL    HW110850   6.403   1.926   1.758  1.5641 -1.1589  1.0504
 3317SOL    HW210851   6.473   1.877   1.619  0.7431 -0.0118  0.2099
 3318SOL     OW10852   2.772   0.714   1.770 -0.2987 -0.0881 -0.3372
 3318SOL    HW110853   2.804   0.642   1.709  0.6536 -0.3446  0.4439
 3318SOL    HW210854   2.850   0.754   1.819 -0.9623  0.5839  0.2011
 3319SOL     OW10855   6.721   1.530   3.406  0.1789  0.0780  0.0340
 3319SOL    HW110856   6.781   1.587   3.461 -0.5855  2.5634 -1.5330
 3319SOL    HW210857   6.725   1.435   3.439 -0.2740  1.3641  4.2870
 3320SOL     OW10858   0.633   0.537   3.756 -0.3718 -0.1297 -0.0016
 3320SOL    HW110859   0.662   0.484   3.836 -0.5107  0.4777  0.4649
 3320SOL    HW210860   0.592   0.624   3.787 -1.6222 -0.4519 -0.6850
 3321SOL     OW10861   3.766   0.593   0.541 -0.2479 -0.1028  0.6787
 3321SOL    HW110862   3.736   0.647   0.620 -2.7110 -0.2275 -0.0921
 3321SOL    HW210863   3.747   0.497   0.558  0.2188 -0.2564  0.3492
 3322SOL     OW10864   5.272   3.218   1.551  0.3180  0.3225  0.2379
 3322SOL    HW110865   5.343   3.153   1.525 -0.6255 -0.7819  0.3921
 3322SOL    HW210866   5.207   3.175   1.613 -1.4767  0.7770 -1.2507
 3323SOL     OW10867   4.855   3.072   0.049 -0.1866  0.2531 -0.1740
 3323SOL    HW110868   4.896   3.060  -0.041 -1.5546 -1.7640 -0.6114
 3323SOL    HW210869   4.926   3.086   0.117  1.0951 -1.1130 -1.1665
 3324SOL     OW10870   2.674   4.499   6.359 -0.0085 -0.0782 -0.3030
 3324SOL    HW110871   2.760   4.548   6.345 -0.2650  0.9959  1.4862
 3324SOL    HW210872   2.598   4.558   6.330 -0.2158 -0.3937 -0.4045
 3325SOL     OW10873   5.618   3.683   1.159  0.4898  0.2540 -0.6745
 3325SOL    HW110874   5.590   3.707   1.252 -0.3946  0.4070 -0.9617
 3325SOL    HW210875   5.715   3.701   1.147  0.4140  1.1264 -0.0603
 3326SOL     OW10876   6.028   1.738   0.913  0.0496 -0.0284 -0.4451
 3326SOL    HW110877   5.979   1.790   0.984 -0.2635 -0.2896 -0.4641
 3326SOL    HW210878   6.067   1.801   0.847 -0.3902  0.1877 -0.5072
 3327SOL     OW10879   3.866   4.785   1.789 -0.3965 -0.5169 -0.1774
 3327SOL    HW110880   3.802   4.840   1.844  0.0563 -0.0689 -0.0870
 3327SOL    HW210881   3.817   4.710   1.745 -1.2557  0.6089 -1.2078
 3328SOL     OW10882   3.695   1.753   2.093  0.4525 -0.1072 -0.3921
 3328SOL    HW110883   3.665   1.823   2.028 -1.6177 -1.0739 -0.5397
 3328SOL    HW210884   3.625   1.682   2.101  2.2691 -1.9353  0.1165
 3329SOL     OW10885   6.230   6.793   4.602  0.6787 -0.1019 -0.1337
 3329SOL    HW110886   6.322   6.764   4.631  0.5573  0.5220  0.9472
 3329SOL    HW210887   6.168   6.787   4.680 -0.6246 -2.1304 -1.2716
 3330SOL     OW10888   0.018   4.108   0.470  0.3129 -0.3327  0.1910
 3330SOL    HW110889   0.058   4.025   0.432  1.2960  0.6008 -0.9074
 3330SOL    HW210890   0.087   4.181   0.470 -0.8605  0.8089  0.0245
 3331SOL     OW10891   2.897   2.803   1.009 -0.5240 -0.2071 -0.1562
 3331SOL    HW110892   2.804   2.767   1.018 -0.1133 -0.7357  3.9991
 3331SOL    HW210893   2.957   2.731   0.975 -1.5390  0.2471 -3.2568
 3332SOL     OW10894   5.658   5.947   0.041  0.4756  0.6011 -0.7976
 3332SOL    HW110895   5.753   5.923   0.058  1.0556  2.3714 -1.3187
 3332SOL    HW210896   5.639   6.038   0.079 -0.9497  0.3805 -0.9025
 3333SOL     OW10897   4.603   4.670   5.728  0.5493 -0.1440  0.2615
 3333SOL    HW110898   4.531   4.638   5.666  0.6421 -1.7032  0.9208
 3333SOL    HW210899   4.692   4.642   5.692  0.6789 -0.0754  0.5272
 3334SOL     OW10900   3.330   3.204   1.810  0.3199 -0.3435  0.3876
 3334SOL    HW110901   3.350   3.298   1.837  1.0322 -0.7100  1.1709
 3334SOL    HW210902   3.233   3.195   1.790 -0.0828  0.1515  2.0103
 3335SOL     OW10903   3.421   4.841   0.101  0.1074 -0.8405 -0.3517
 3335SOL    HW110904   3.489   4.783   0.146  0.1512 -1.3882 -1.1030
 3335SOL    HW210905   3.369   4.891   0.170  2.0746  0.5475  0.2138
 3336SOL     OW10906   1.498   6.624   5.147 -0.2593  0.7617  0.2733
 3336SOL    HW110907   1.449   6.591   5.066  0.5204  1.7123 -0.6138
 3336SOL    HW210908   1.585   6.664   5.119  1.9847 -2.5252  1.9444
 3337SOL     OW10909   3.390   3.975   2.093  0.1712 -0.0006  0.1223
 3337SOL    HW110910   3.481   4.003   2.121 -0.0631  0.6818  0.2094
 3337SOL    HW210911   3.327   3.982   2.171 -0.2527  0.8659 -0.2882
 3338SOL     OW10912   5.054   1.523   6.844 -0.4702 -0.1108  0.2075
 3338SOL    HW110913   5.122   1.559   6.908 -1.8765 -0.1538  1.8126
 3338SOL    HW210914   5.095   1.450   6.789  1.2615  1.0968 -0.1865
 3339SOL     OW10915   5.417   5.859   6.548 -0.6229 -0.6291 -0.2079
 3339SOL    HW110916   5.516   5.858   6.560 -0.7143 -2.3882  0.8278
 3339SOL    HW210917   5.381   5.766   6.562 -2.3375 -0.1719 -1.3231
 3340SOL     OW10918   4.782   6.724   3.351  0.2970  0.0525 -0.2286
 3340SOL    HW110919   4.847   6.800   3.352  0.8510 -0.4032  1.1817
 3340SOL    HW210920   4.740   6.714   3.441  1.1278 -2.0419 -0.0078
 3341SOL     OW10921   0.493   6.845   3.409 -0.8270 -0.2472 -0.2527
 3341SOL    HW110922   0.577   6.886   3.376  0.1432 -1.1599  0.9748
 3341SOL    HW210923   0.414   6.891   3.368  0.1868  2.5316  0.6806
 3342SOL     OW10924   4.102   7.012   2.886  0.6413  0.1110  0.6039
 3342SOL    HW110925   4.088   6.913   2.875 -1.0852  0.0171  2.8380
 3342SOL    HW210926   4.182   7.028   2.944 -0.2153 -0.1364  1.9223
 3343SOL     OW10927   3.663   3.635   0.891 -0.0544  0.2150  0.3853
 3343SOL    HW110928   3.584   3.642   0.831  0.6775 -1.4475 -0.8398
 3343SOL    HW210929   3.639   3.670   0.982 -1.5918  1.4900 -0.4702
 3344SOL     OW10930   5.982   1.925   3.983 -0.2657 -0.2942 -0.0779
 3344SOL    HW110931   5.994   1.956   3.889 -1.0204 -0.6760 -0.3039
 3344SOL    HW210932   6.039   1.981   4.044 -1.1812  1.1952 -0.5268
 3345SOL     OW10933   1.226   2.648   6.241  0.1162  0.3394  0.5240
 3345SOL    HW110934   1.209   2.691   6.329 -0.7996  0.3845  0.3344
 3345SOL    HW210935   1.193   2.708   6.168  0.5499  0.1484  0.1658
 3346SOL     OW10936   2.404   6.934   0.936 -0.0798  0.1696 -0.3565
 3346SOL    HW110937   2.370   7.018   0.892 -2.4037 -1.0408 -1.0237
 3346SOL    HW210938   2.404   6.946   1.035  1.1034  1.4557 -0.4766
 3347SOL     OW10939   5.276   5.330   4.584  0.2942 -0.6227  0.1125
 3347SOL    HW110940   5.214   5.273   4.637  1.0880 -3.4047 -1.7396
 3347SOL    HW210941   5.222   5.391   4.525 -0.5740  0.1927  1.6761
 3348SOL     OW10942   3.209   2.973   4.949  0.5726  0.4938  0.1092
 3348SOL    HW110943   3.287   2.930   4.996  2.0421  1.7185 -1.1352
 3348SOL    HW210944   3.140   2.999   5.017  1.3073 -0.4417  1.2568
 3349SOL     OW10945   1.980   5.386   2.487 -0.6755  0.6001 -0.1561
 3349SOL    HW110946   1.963   5.469   2.541 -1.6831  1.2585 -1.4347
 3349SOL    HW210947   1.893   5.348   2.456 -0.1644 -0.3872 -0.4153
 3350SOL     OW10948   0.927   4.042   5.781 -0.0102 -0.1105 -0.6698
 3350SOL    HW110949   0.920   3.951   5.820  0.2306  0.0628 -0.2214
 3350SOL    HW210950   0.934   4.110   5.854 -1.8673  0.4284 -0.9235
 3351SOL     OW10951   5.318   1.135   1.618 -0.1566  1.0683 -0.7251
 3351SOL    HW110952   5.306   1.092   1.529 -0.1210  0.1300 -0.2873
 3351SOL    HW210953   5.247   1.204   1.632 -0.2451  1.1236 -1.4177
 3352SOL     OW10954   6.442   1.649   6.211  0.1704  0.9470 -0.3262
 3352SOL    HW110955   6.525   1.605   6.245  1.0297 -2.1727 -5.4587
 3352SOL    HW210956   6.466   1.729   6.155 -0.2995  0.5254 -1.1556
 3353SOL     OW10957   1.149   4.295   2.248 -0.7056  0.9807  0.3481
 3353SOL    HW110958   1.236   4.287   2.199 -0.9541  1.9194 -0.2654
 3353SOL    HW210959   1.153   4.374   2.309 -1.1169  1.0132  0.3329
 3354SOL     OW10960   5.398   1.999   4.791  0.5219 -0.4527 -0.2479
 3354SOL    HW110961   5.443   1.971   4.876  0.8198 -0.3674 -0.3746
 3354SOL    HW210962   5.388   1.920   4.731 -1.2913 -0.8983  0.5638
 3355SOL     OW10963   2.595   6.738   0.055  0.6030  0.3291  0.2132
 3355SOL    HW110964   2.504   6.767   0.085  0.1696 -0.0130 -0.7327
 3355SOL    HW210965   2.664   6.770   0.121 -0.0238  1.9861  0.1077
 3356SOL     OW10966   3.028   3.291   6.678  0.0489 -0.5478 -0.4266
 3356SOL    HW110967   2.941   3.337   6.691 -0.0105 -1.0191  0.9466
 3356SOL    HW210968   3.101   3.359   6.671 -0.2747 -0.1903 -0.3502
 3357SOL     OW10969   2.919   4.016   1.794 -0.5759 -0.3219  0.1731
 3357SOL    HW110970   2.991   4.072   1.834 -0.4580 -0.5548  0.2950
 3357SOL    HW210971   2.845   4.074   1.760 -0.6505 -0.1161  0.6809
 3358SOL     OW10972   6.308   0.512   0.828 -0.2468  0.3574 -0.0595
 3358SOL    HW110973   6.262   0.425   0.812  2.1355 -0.4432 -3.5924
 3358SOL    HW210974   6.393   0.497   0.879  0.1254  0.6286 -0.5968
 3359SOL     OW10975   0.201   0.449   4.276  0.2794 -0.5061 -0.3691
 3359SOL    HW110976   0.111   0.452   4.319  0.9355 -0.0786  1.0614
 3359SOL    HW210977   0.192   0.462   4.178 -1.1837  0.0390 -0.1882
 3360SOL     OW10978   0.969   0.640   0.049 -0.2991 -0.2325 -0.3909
 3360SOL    HW110979   0.918   0.712   0.001 -0.2849  1.3570  1.7759
 3360SOL    HW210980   0.908   0.594   0.113  0.3314 -0.1878  0.2574
 3361SOL     OW10981   0.639   6.266   3.404 -0.3582 -0.0587  0.5401
 3361SOL    HW110982   0.686   6.349   3.434 -0.4654  1.4696 -2.9387
 3361SOL    HW210983   0.701   6.211   3.348 -1.5185  0.0641 -0.9541
 3362SOL     OW10984   4.099   6.957   3.304  0.0521  0.3447  0.3850
 3362SOL    HW110985   4.147   6.878   3.343  0.5760  0.5422  0.1455
 3362SOL    HW210986   4.072   7.018   3.378  1.0230  0.7058  0.4599
 3363SOL     OW10987   0.063   1.935   0.213 -0.2706 -0.2298 -0.5426
 3363SOL    HW110988  -0.015   1.990   0.244  0.7229  0.8329  0.1364
 3363SOL    HW210989   0.048   1.840   0.239 -1.1308  0.0400 -0.0028
 3364SOL     OW10990   0.803   3.948   4.758  0.5501 -0.2306  0.2153
 3364SOL    HW110991   0.847   3.859   4.767  1.9348  0.1543 -1.8173
 3364SOL    HW210992   0.810   3.978   4.662 -0.1677  1.9065  0.7827
 3365SOL     OW10993   0.031   3.062   6.717  0.2118  0.4240  0.2839
 3365SOL    HW110994  -0.036   2.997   6.682 -0.3891  0.9594  0.4179
 3365SOL    HW210995   0.076   3.108   6.641  0.7670 -0.2695  0.1857
 3366SOL     OW10996   5.942   0.785   5.781 -0.0386 -0.5209  0.4219
 3366SOL    HW110997   5.960   0.847   5.858 -2.3298  0.1588  0.5097
 3366SOL    HW210998   5.883   0.711   5.812 -2.8402  0.9439 -1.0218
 3367SOL     OW10999   3.971   1.586   2.216  0.2757 -0.1663  0.2374
 3367SOL    HW111000   3.963   1.617   2.121  0.7876  0.5170  0.4124
 3367SOL    HW211001   4.007   1.660   2.272 -1.0596 -0.1967  1.1885
 3368SOL     OW11002   5.724   5.944   6.005 -0.2710  0.1099  0.0483
 3368SOL    HW111003   5.680   5.855   5.992 -0.9506  0.5690 -0.8817
 3368SOL    HW211004   5.796   5.935   6.073 -0.4182 -1.1268  0.0714
 3369SOL     OW11005   4.965   3.729   5.196 -0.2568  0.3943 -0.3485
 3369SOL    HW111006   5.030   3.750   5.123 -0.2880 -1.5902 -0.9992
 3369SOL    HW211007   4.901   3.658   5.165  0.7388 -1.7046  2.0809
 3370SOL     OW11008   1.011   5.739   6.018  0.1179  0.2487  0.6394
 3370SOL    HW111009   0.964   5.798   5.953  0.9539  0.0502 -0.1696
 3370SOL    HW211010   1.105   5.773   6.031 -0.1780  0.5884  2.1426
 3371SOL     OW11011   1.465   3.796   2.688  0.3803  0.9426 -0.5320
 3371SOL    HW111012   1.481   3.806   2.590 -1.1699 -1.1661 -1.0903
 3371SOL    HW211013   1.432   3.703   2.707  0.8985  1.2053  2.0435
 3372SOL     OW11014   1.125   0.433   1.855 -0.7958 -0.0607  0.1809
 3372SOL    HW111015   1.032   0.442   1.820 -0.0853  0.6844 -1.6413
 3372SOL    HW211016   1.180   0.509   1.821  0.4149 -0.2966  1.5191
 3373SOL     OW11017   0.258   1.456   3.552  0.4897 -0.1054 -0.1057
 3373SOL    HW111018   0.267   1.372   3.606 -0.3259 -0.1613 -0.0372
 3373SOL    HW211019   0.297   1.533   3.602  1.0562 -0.4082 -0.0769
 3374SOL     OW11020   6.890   6.148   1.392 -0.2277 -0.4239  0.2832
 3374SOL    HW111021   6.956   6.078   1.418  0.4854  0.2875  0.4403
 3374SOL    HW211022   6.842   6.119   1.309  1.2617 -0.3719 -0.6402
 3375SOL     OW11023   6.974   3.723   6.572  0.0748 -0.5845 -0.7440
 3375SOL    HW111024   7.043   3.791   6.599  1.9399 -1.8114 -2.1030
 3375SOL    HW211025   6.917   3.700   6.651  1.4643  0.2255  0.5532
 3376SOL     OW11026   3.845   3.698   4.131 -0.2538 -0.5317  0.3677
 3376SOL    HW111027   3.864   3.787   4.172  0.8070 -1.1337  1.2237
 3376SOL    HW211028   3.930   3.647   4.120 -0.8484 -1.4464 -0.0935
 3377SOL     OW11029   1.875   0.847   5.983  0.3208  0.4438 -0.3539
 3377SOL    HW111030   1.856   0.780   5.911  0.0603 -0.6246  0.6797
 3377SOL    HW211031   1.974   0.855   5.996  0.3824  0.8622 -1.0151
 3378SOL     OW11032   0.166   0.696   1.053  0.1397  0.2562 -0.2398
 3378SOL    HW111033   0.215   0.783   1.042 -0.3912  0.5787 -0.0919
 3378SOL    HW211034   0.117   0.697   1.141  2.0990 -1.1644  0.9489
 3379SOL     OW11035   4.887   5.470   6.364  0.1055  0.3511  0.2423
 3379SOL    HW111036   4.864   5.400   6.296 -1.7380  0.5394  0.6215
 3379SOL    HW211037   4.951   5.536   6.324  3.0262 -2.2180  0.2909
 3380SOL     OW11038   4.481   0.616   5.531  0.2999 -0.3328 -0.3609
 3380SOL    HW111039   4.525   0.532   5.499 -0.3374 -0.5866 -0.5968
 3380SOL    HW211040   4.384   0.614   5.506  0.0949  0.0964  0.3527
 3381SOL     OW11041   1.251   2.509   0.757 -0.0709  0.2780  0.2179
 3381SOL    HW111042   1.258   2.498   0.658 -0.3536  1.6042  0.0275
 3381SOL    HW211043   1.282   2.426   0.803 -0.0162 -0.3738 -0.9847
 3382SOL     OW11044   0.570   0.585   0.564 -0.4656  1.1129  0.8683
 3382SOL    HW111045   0.647   0.576   0.627  0.9190 -4.0245 -0.9956
 3382SOL    HW211046   0.485   0.564   0.612 -0.0221  1.5754  1.8731
 3383SOL     OW11047   6.205   4.253   2.635 -0.1922 -0.0589  0.2409
 3383SOL    HW111048   6.203   4.154   2.626 -1.7868 -0.2960  2.3891
 3383SOL    HW211049   6.136   4.294   2.576  0.0279 -0.2609 -0.1609
 3384SOL     OW11050   2.207   3.979   5.504 -0.4812  0.0510 -0.6032
 3384SOL    HW111051   2.184   3.922   5.425 -0.4838  0.0392 -0.5938
 3384SOL    HW211052   2.237   4.069   5.472 -1.0192  0.2398 -0.6057
 3385SOL     OW11053   6.052   4.151   3.398  0.4440 -0.1913 -0.3223
 3385SOL    HW111054   5.984   4.105   3.455 -1.0272 -0.1820 -1.9794
 3385SOL    HW211055   6.060   4.103   3.311 -0.6570  2.2493 -1.8607
 3386SOL     OW11056   0.518   4.645   6.586 -0.0474  0.1207 -0.1714
 3386SOL    HW111057   0.454   4.640   6.662  0.2707  1.4085  0.2216
 3386SOL    HW211058   0.520   4.558   6.537 -2.0836  0.0474 -0.2019
 3387SOL     OW11059   4.856   2.064   3.512 -0.1555  0.0929 -0.0331
 3387SOL    HW111060   4.920   2.021   3.576 -0.2610 -0.6664 -0.4244
 3387SOL    HW211061   4.906   2.095   3.431 -0.3324 -0.9256 -0.5505
 3388SOL     OW11062   4.904   3.673   2.743 -0.1338 -0.0080 -0.1962
 3388SOL    HW111063   4.949   3.589   2.775  0.9036  0.4553 -0.4082
 3388SOL    HW211064   4.900   3.672   2.643  0.5881  0.5360 -0.2401
 3389SOL     OW11065   4.507   5.512   5.006  0.2360 -0.1426 -0.7916
 3389SOL    HW111066   4.468   5.597   5.041  0.7672 -0.1023 -0.2942
 3389SOL    HW211067   4.543   5.457   5.082  0.7227 -0.3961 -1.1958
 3390SOL     OW11068   5.165   3.319   3.778  0.4191 -0.0022 -0.0707
 3390SOL    HW111069   5.164   3.306   3.679  1.2964 -0.7512  0.0074
 3390SOL    HW211070   5.194   3.235   3.822  0.5396  0.4858  0.7978
 3391SOL     OW11071   4.903   3.618   4.122 -0.1334 -0.0058  0.7440
 3391SOL    HW111072   4.848   3.656   4.196  1.6371  2.6069  0.8186
 3391SOL    HW211073   4.957   3.541   4.156  0.7972  1.2730  2.2720
 3392SOL     OW11074   3.515   0.655   4.903 -0.3087  0.2313 -0.0155
 3392SOL    HW111075   3.482   0.736   4.952  0.4300  0.3317  0.3434
 3392SOL    HW211076   3.597   0.680   4.850 -0.0414 -0.2881  0.1453
 3393SOL     OW11077   6.760   0.492   6.755  0.8897 -0.0447  0.3378
 3393SOL    HW111078   6.829   0.425   6.781 -0.1328 -0.9481  0.7992
 3393SOL    HW211079   6.695   0.450   6.691  1.2690  1.0585 -0.8320
 3394SOL     OW11080   5.247   2.595   0.465 -0.7860 -0.0637 -0.6021
 3394SOL    HW111081   5.247   2.515   0.405  0.0018  0.9056 -1.9355
 3394SOL    HW211082   5.230   2.566   0.559  1.3793 -2.0734 -0.7284
 3395SOL     OW11083   6.163   2.634   2.223  0.7686  0.6618  0.1172
 3395SOL    HW111084   6.194   2.569   2.292 -0.7297 -1.4479 -1.0829
 3395SOL    HW211085   6.224   2.630   2.144  0.6615  0.6931  0.0325
 3396SOL     OW11086   5.525   1.591   2.673  0.2155  0.2043 -0.0606
 3396SOL    HW111087   5.611   1.641   2.679 -1.0459  2.7626 -1.7261
 3396SOL    HW211088   5.524   1.536   2.589  0.0589  0.5637 -0.2977
 3397SOL     OW11089   4.352   0.003   6.762  0.4223 -0.3664  0.1016
 3397SOL    HW111090   4.369   0.025   6.665  1.0262 -3.7808 -0.6959
 3397SOL    HW211091   4.254  -0.002   6.778  0.2767  1.6932  0.1134
 3398SOL     OW11092   1.553   6.510   5.713  0.5629  0.7631  0.6221
 3398SOL    HW111093   1.584   6.550   5.627  0.6914  1.0913  0.8173
 3398SOL    HW211094   1.465   6.465   5.699  2.2191 -2.3852 -0.5287
 3399SOL     OW11095   5.889   3.769   5.087  0.2533  0.0761  0.0506
 3399SOL    HW111096   5.870   3.867   5.091  1.8852  0.4006  0.3483
 3399SOL    HW211097   5.847   3.724   5.166  0.2051  0.6537  0.3594
 3400SOL     OW11098   3.617   1.150   5.947 -0.1301  0.9536 -0.5795
 3400SOL    HW111099   3.522   1.124   5.929  0.1425 -1.1180  0.6448
 3400SOL    HW211100   3.621   1.208   6.028 -0.3692  1.3533 -0.8491
 3401SOL     OW11101   6.241   3.571   0.422  0.6905 -0.0195  0.2923
 3401SOL    HW111102   6.197   3.497   0.472 -0.6494  0.4709 -0.1292
 3401SOL    HW211103   6.249   3.547   0.325 -0.4037  0.6580  0.0212
 3402SOL     OW11104   4.533   4.377   6.311  0.0720 -0.5649 -0.5588
 3402SOL    HW111105   4.601   4.373   6.238  3.5055  1.9753  2.0877
 3402SOL    HW211106   4.494   4.469   6.316  0.0130 -0.6405  0.8395
 3403SOL     OW11107   2.663   0.151   5.498  0.7660  0.4434  0.2396
 3403SOL    HW111108   2.699   0.154   5.591 -1.0596 -0.4089  1.0171
 3403SOL    HW211109   2.650   0.244   5.463 -1.1114  0.8814  1.9186
 3404SOL     OW11110   4.957   0.466   6.891 -0.5673 -0.3236 -0.1689
 3404SOL    HW111111   5.019   0.528   6.939 -0.8207 -1.2494  1.4181
 3404SOL    HW211112   4.988   0.455   6.797  0.7129  0.5292  0.1227
 3405SOL     OW11113   0.610   2.473   5.543  0.2883 -0.2874 -0.7195
 3405SOL    HW111114   0.551   2.393   5.530  1.6752 -1.2265 -1.6275
 3405SOL    HW211115   0.646   2.502   5.454  0.3286  0.9547 -0.3138
 3406SOL     OW11116   1.680   3.008   2.070  0.2352  0.0678 -0.3970
 3406SOL    HW111117   1.637   3.012   2.160  1.4215 -1.9439  0.3169
 3406SOL    HW211118   1.628   2.945   2.011  0.3643  0.1493 -0.5992
 3407SOL     OW11119   2.108   5.164   0.437 -0.1868  0.3384 -0.3339
 3407SOL    HW111120   2.046   5.104   0.487  0.0624 -0.4632 -0.9845
 3407SOL    HW211121   2.115   5.135   0.342  1.5278  0.1092 -0.1812
 3408SOL     OW11122   5.755   3.612   5.625  0.1606 -0.3623  0.0113
 3408SOL    HW111123   5.717   3.682   5.685 -1.3857 -1.3076  0.1777
 3408SOL    HW211124   5.801   3.542   5.680 -0.5797 -0.8261  0.0472
 3409SOL     OW11125   2.970   4.940   6.542  0.0513  0.3546  0.5581
 3409SOL    HW111126   2.894   4.882   6.571  0.0396 -0.2903 -0.7086
 3409SOL    HW211127   3.056   4.893   6.560  0.0573  0.1076 -0.1229
 3410SOL     OW11128   6.105   1.081   1.199 -0.0582 -0.6424  0.4294
 3410SOL    HW111129   6.045   1.001   1.199  0.5173 -1.0857  0.8187
 3410SOL    HW211130   6.193   1.057   1.157  0.4220 -0.4525  1.3059
 3411SOL     OW11131   5.202   2.938   3.063 -0.5985 -0.2818 -0.2492
 3411SOL    HW111132   5.230   2.888   2.980 -1.2077 -0.2670 -0.4710
 3411SOL    HW211133   5.106   2.964   3.054  0.1778  2.6086 -0.9843
 3412SOL     OW11134   3.863   1.438   0.615 -0.0431 -0.2765  0.2330
 3412SOL    HW111135   3.879   1.438   0.516 -2.8487 -0.4974 -0.2993
 3412SOL    HW211136   3.837   1.530   0.645  0.1061 -0.3647  0.6342
 3413SOL     OW11137   5.756   0.948   2.454  0.1284 -0.1256  0.4969
 3413SOL    HW111138   5.845   0.980   2.422 -0.5913  0.6166 -0.8434
 3413SOL    HW211139   5.765   0.857   2.496  1.6837  0.4361  1.4322
 3414SOL     OW11140   1.942   2.875   5.854 -0.2811 -0.0077  0.2911
 3414SOL    HW111141   1.986   2.959   5.822 -0.7374  0.4975  0.9716
 3414SOL    HW211142   1.892   2.833   5.778  3.2892 -1.9239 -1.2295
 3415SOL     OW11143   0.784   4.309   5.043 -0.0841  0.8400 -0.7429
 3415SOL    HW111144   0.819   4.366   4.969  1.5783 -0.6871 -1.2090
 3415SOL    HW211145   0.843   4.229   5.054 -1.3512  0.0824  1.0222
 3416SOL     OW11146   5.528   0.718   6.452  0.3884 -0.0284 -0.5874
 3416SOL    HW111147   5.585   0.800   6.456  0.8433 -0.2857 -1.4994
 3416SOL    HW211148   5.474   0.711   6.536  0.6452  0.9800 -0.3210
 3417SOL     OW11149   2.725   6.457   3.100  0.7817  0.4132 -0.8843
 3417SOL    HW111150   2.635   6.414   3.096  0.2650  1.5231 -3.1172
 3417SOL    HW211151   2.735   6.507   3.186 -0.7100  0.2260 -0.5790
 3418SOL     OW11152   3.588   0.921   5.596 -0.2815  0.1632 -0.5787
 3418SOL    HW111153   3.523   0.847   5.611  0.9031 -1.4859 -2.9976
 3418SOL    HW211154   3.681   0.889   5.615  0.0676  1.9163  1.0171
 3419SOL     OW11155   5.888   0.068   6.838  0.6792 -0.2751  0.3557
 3419SOL    HW111156   5.925   0.079   6.931  4.0726 -1.3771 -0.7183
 3419SOL    HW211157   5.792   0.040   6.844  0.4183  0.8666  3.4754
 3420SOL     OW11158   6.787   3.597   3.605 -0.1847  0.1312 -0.4830
 3420SOL    HW111159   6.854   3.568   3.674 -0.7647 -0.3421 -0.1098
 3420SOL    HW211160   6.700   3.616   3.650 -0.1914  1.1858 -0.9006
 3421SOL     OW11161   5.551   1.935   5.013  0.1613  0.7842 -0.4609
 3421SOL    HW111162   5.605   1.862   4.972 -1.3366 -0.8771  0.3426
 3421SOL    HW211163   5.539   1.915   5.111 -0.4371  2.0060 -0.2743
 3422SOL     OW11164   3.865   0.678   1.752  0.2808  0.2091  0.5446
 3422SOL    HW111165   3.815   0.654   1.669  2.1855  0.0008 -0.5954
 3422SOL    HW211166   3.801   0.715   1.819 -1.2620  0.8628 -1.1823
 3423SOL     OW11167   4.750   7.007   1.100 -0.3807 -0.0299 -0.5706
 3423SOL    HW111168   4.821   7.024   1.031 -0.7013 -1.7934 -1.3998
 3423SOL    HW211169   4.672   7.067   1.084 -1.0470 -1.3327 -2.7013
 3424SOL     OW11170   2.579   1.171   2.239  0.4178 -0.1015 -0.1531
 3424SOL    HW111171   2.622   1.217   2.161  3.4213  1.4113  2.1909
 3424SOL    HW211172   2.588   1.072   2.228  0.3316  0.0512 -1.9078
 3425SOL     OW11173   0.016   5.359   2.049  0.2792  0.0831  0.0142
 3425SOL    HW111174   0.100   5.407   2.023 -0.1634  0.4546 -0.7697
 3425SOL    HW211175  -0.043   5.349   1.968 -0.9645  0.9214  0.7853
 3426SOL     OW11176   2.615   2.681   6.609  0.2389 -0.1095  0.2672
 3426SOL    HW111177   2.526   2.726   6.609 -0.0244 -0.6174  0.2223
 3426SOL    HW211178   2.687   2.748   6.625 -0.0325  0.5321 -1.0451
 3427SOL     OW11179   6.512   0.237   0.813  0.4477 -0.4042  0.2846
 3427SOL    HW111180   6.542   0.325   0.776  0.2947  0.4277  2.0453
 3427SOL    HW211181   6.559   0.163   0.765  0.4559  0.6059 -1.3495
 3428SOL     OW11182   2.351   5.009   1.965  0.2546 -0.4616 -0.1735
 3428SOL    HW111183   2.286   4.938   1.993  1.6194 -1.2161  1.2724
 3428SOL    HW211184   2.333   5.093   2.017 -0.3324 -0.2513 -0.6997
 3429SOL     OW11185   0.409   2.806   6.679 -0.0086  0.4638  0.2172
 3429SOL    HW111186   0.470   2.884   6.679  0.4922  0.1120 -1.2894
 3429SOL    HW211187   0.462   2.721   6.680 -0.5284  0.1347  1.1725
 3430SOL     OW11188   0.330   5.600   4.690  0.6159  0.1969  0.0335
 3430SOL    HW111189   0.291   5.567   4.776 -2.1915  0.8951 -0.8722
 3430SOL    HW211190   0.350   5.697   4.697  0.3401  0.2646 -0.1159
 3431SOL     OW11191   1.531   6.829   0.696 -0.7210  0.2034 -0.4647
 3431SOL    HW111192   1.495   6.784   0.615 -2.1326  0.8922 -0.2563
 3431SOL    HW211193   1.562   6.921   0.672 -1.7256  0.6433 -0.1317
 3432SOL     OW11194   3.138   2.463   0.099 -0.5752 -0.1483  0.0650
 3432SOL    HW111195   3.062   2.514   0.058  0.9060  2.5896  0.4515
 3432SOL    HW211196   3.138   2.479   0.198  0.5471 -0.0097  0.0547
 3433SOL     OW11197   1.063   0.264   6.551 -0.3565  0.1023 -0.5538
 3433SOL    HW111198   1.050   0.250   6.649 -1.7666  0.5254 -0.6614
 3433SOL    HW211199   1.061   0.361   6.530  0.6569  0.0532 -0.9227
 3434SOL     OW11200   5.625   1.312   0.016 -0.7552 -0.4335 -0.0054
 3434SOL    HW111201   5.622   1.233   0.077  0.4016 -0.5509 -0.0794
 3434SOL    HW211202   5.626   1.396   0.070 -0.4072 -0.5203  0.1260
 3435SOL     OW11203   6.721   0.667   3.311  0.1404 -0.2437 -0.1397
 3435SOL    HW111204   6.814   0.687   3.279  0.2342  0.9885  0.8091
 3435SOL    HW211205   6.704   0.569   3.306  1.7483 -0.5764  0.3250
 3436SOL     OW11206   4.233   6.810   1.044  0.4455 -0.3044  0.0149
 3436SOL    HW111207   4.169   6.843   0.974 -1.8372 -2.6527  0.8667
 3436SOL    HW211208   4.187   6.806   1.132  2.3337 -0.4419  1.0507
 3437SOL     OW11209   0.867   2.243   4.727  0.1744 -0.1465  0.1538
 3437SOL    HW111210   0.836   2.152   4.699 -0.5512  0.1597 -0.0482
 3437SOL    HW211211   0.967   2.244   4.729  0.2624 -0.4271 -1.6955
 3438SOL     OW11212   0.537   2.861   0.962 -0.3697  0.4344  0.3814
 3438SOL    HW111213   0.475   2.887   0.888 -0.7484 -0.5015  0.3560
 3438SOL    HW211214   0.626   2.905   0.947 -0.5449  0.5341 -0.4361
 3439SOL     OW11215   2.027   5.605   0.600 -0.5249  0.3647 -0.4321
 3439SOL    HW111216   2.085   5.672   0.554 -0.5330 -0.6502 -2.0044
 3439SOL    HW211217   2.005   5.638   0.691 -0.5240  2.4827 -1.1318
 3440SOL     OW11218   3.367   4.303   6.621  0.1070 -0.0263  0.3073
 3440SOL    HW111219   3.458   4.294   6.662 -0.1882  0.6116  1.1315
 3440SOL    HW211220   3.345   4.400   6.610 -0.3724 -0.1805 -0.1178
 3441SOL     OW11221   2.424   6.819   5.430 -0.1545  0.9746 -0.1323
 3441SOL    HW111222   2.487   6.743   5.419 -0.2942  0.7444  0.6463
 3441SOL    HW211223   2.468   6.893   5.480 -0.2924  1.0772 -0.1596
 3442SOL     OW11224   2.332   4.836   2.580  0.0905  0.2421 -0.0340
 3442SOL    HW111225   2.337   4.749   2.629 -0.5278  1.0399  1.5436
 3442SOL    HW211226   2.240   4.875   2.591  0.5458  1.3917 -0.1285
 3443SOL     OW11227   3.264   6.939   1.345 -0.0548 -0.4997 -0.3933
 3443SOL    HW111228   3.329   6.883   1.396  0.7813  0.6731 -0.1321
 3443SOL    HW211229   3.278   6.926   1.247  0.5734 -0.2636 -0.3385
 3444SOL     OW11230   6.152   6.939   6.254  0.5602 -0.4428 -0.3756
 3444SOL    HW111231   6.243   6.899   6.262  0.0448 -1.4208  0.9315
 3444SOL    HW211232   6.114   6.919   6.163 -0.0567 -3.8761  0.4846
 3445SOL     OW11233   6.109   6.817   5.481 -0.4330 -0.5191 -0.2484
 3445SOL    HW111234   6.057   6.745   5.435 -0.2966 -1.1915  0.6122
 3445SOL    HW211235   6.046   6.879   5.528 -0.5166 -0.6331 -0.2082
 3446SOL     OW11236   6.602   0.614   2.623 -0.2072  0.5456 -0.3834
 3446SOL    HW111237   6.524   0.615   2.686  1.0477  0.0073  1.2420
 3446SOL    HW211238   6.609   0.524   2.580  0.5002  0.0136  0.7955
 3447SOL     OW11239   3.459   3.818   1.094  0.5065 -0.5201 -0.3974
 3447SOL    HW111240   3.448   3.917   1.088  0.4424 -0.4390  0.6967
 3447SOL    HW211241   3.370   3.773   1.084  0.5577 -0.4833 -1.0474
 3448SOL     OW11242   2.533   0.268   6.714 -0.2784  0.0929  0.1726
 3448SOL    HW111243   2.490   0.182   6.739  0.1102  0.2210  1.3560
 3448SOL    HW211244   2.470   0.321   6.657  0.4151 -1.9842 -2.7281
 3449SOL     OW11245   0.358   0.139   3.656  0.2113  0.3253  0.0853
 3449SOL    HW111246   0.356   0.073   3.581  1.5717 -0.3488  0.6048
 3449SOL    HW211247   0.391   0.227   3.622 -1.5902  0.7768 -0.6042
 3450SOL     OW11248   0.361   2.346   5.994 -0.1519  0.5741  0.2154
 3450SOL    HW111249   0.326   2.351   5.901  1.2430 -0.9211 -0.4389
 3450SOL    HW211250   0.457   2.374   5.996  1.2709 -3.5600  0.2426
 3451SOL     OW11251   2.883   6.511   0.614 -0.1143 -0.0743  0.1828
 3451SOL    HW111252   2.819   6.580   0.646  1.4896  1.7849 -0.3742
 3451SOL    HW211253   2.844   6.462   0.536 -1.8023 -0.7666  1.4059
 3452SOL     OW11254   6.942   3.378   5.647 -0.1375 -0.4237  0.5118
 3452SOL    HW111255   7.025   3.426   5.620 -0.0161 -0.0875  1.4555
 3452SOL    HW211256   6.947   3.283   5.618  1.1159 -0.7126  1.5868
 3453SOL     OW11257   5.749   5.199   6.994  0.0777 -0.0968  0.4020
 3453SOL    HW111258   5.678   5.132   7.015  1.0090 -0.5913  2.2172
 3453SOL    HW211259   5.822   5.192   7.062  1.5868  0.8021 -1.0541
 3454SOL     OW11260   1.647   2.141   1.226  0.2911 -0.0652 -0.0578
 3454SOL    HW111261   1.651   2.219   1.289 -0.1172 -0.4014  0.3907
 3454SOL    HW211262   1.633   2.057   1.278 -1.4059 -0.2075 -0.6729
 3455SOL     OW11263   2.670   2.174   5.202 -0.5305  0.0628  0.3648
 3455SOL    HW111264   2.753   2.135   5.242 -0.3285  0.0526 -0.0501
 3455SOL    HW211265   2.652   2.264   5.242  0.4248  0.6534 -0.4567
 3456SOL     OW11266   5.224   5.192   1.855  0.3755  0.2353  0.6600
 3456SOL    HW111267   5.143   5.224   1.906 -0.9715 -1.1820 -0.4847
 3456SOL    HW211268   5.196   5.123   1.789  2.3766  0.5790 -0.6302
 3457SOL     OW11269   2.713   5.067   3.452 -0.4908  0.0227 -0.4351
 3457SOL    HW111270   2.687   5.067   3.356 -0.7530  2.6671 -0.4277
 3457SOL    HW211271   2.792   5.007   3.465  1.1875  1.5823 -2.7976
 3458SOL     OW11272   3.886   1.570   1.963  0.2863 -0.6163 -0.1946
 3458SOL    HW111273   3.800   1.621   1.975 -0.5659 -1.9997 -0.2271
 3458SOL    HW211274   3.939   1.611   1.889 -0.9091 -0.4470 -0.9777
 3459SOL     OW11275   5.696   5.214   1.370  0.0161  0.4431  0.0308
 3459SOL    HW111276   5.724   5.300   1.329  1.2714 -0.5264 -1.2389
 3459SOL    HW211277   5.605   5.224   1.410 -0.2201  2.1066 -0.8509
 3460SOL     OW11278   0.011   2.392   0.312  0.2906 -0.2658 -0.0361
 3460SOL    HW111279  -0.008   2.411   0.216  0.9747 -0.2145 -0.1690
 3460SOL    HW211280   0.084   2.324   0.319  2.3373  1.8188  0.3989
 3461SOL     OW11281   3.998   6.092   5.822  0.0377  0.0241 -0.0645
 3461SOL    HW111282   4.049   6.147   5.888 -1.0227  0.5890  0.3120
 3461SOL    HW211283   3.904   6.125   5.818 -0.3568 -1.1308 -0.5817
 3462SOL     OW11284   1.132   4.661   1.214 -0.1037 -0.0917 -0.0547
 3462SOL    HW111285   1.045   4.636   1.255  0.0941 -0.7699 -0.0369
 3462SOL    HW211286   1.153   4.597   1.140  0.3542  0.1015 -0.0939
 3463SOL     OW11287   1.722   2.963   1.184 -0.1486  0.2744  0.4279
 3463SOL    HW111288   1.763   2.872   1.189 -0.8039  0.0340  1.7767
 3463SOL    HW211289   1.751   3.017   1.263 -1.5346  0.4665  0.8283
 3464SOL     OW11290   1.462   3.857   0.970  0.1230 -0.4934  0.0848
 3464SOL    HW111291   1.510   3.942   0.992  0.7297 -0.4086 -1.4510
 3464SOL    HW211292   1.528   3.785   0.950 -0.3705 -0.6341 -1.1137
 3465SOL     OW11293   0.967   2.855   2.104  0.2066  0.6295 -0.4906
 3465SOL    HW111294   0.966   2.837   2.202  0.2982  1.6737 -0.2827
 3465SOL    HW211295   0.890   2.808   2.061 -0.0812  0.5105  0.1433
 3466SOL     OW11296   4.910   4.361   5.991 -0.6261  0.0782  0.1133
 3466SOL    HW111297   4.982   4.321   6.048  0.0243  0.6054 -0.3124
 3466SOL    HW211298   4.924   4.333   5.896 -1.3178 -0.2660  0.1102
 3467SOL     OW11299   1.938   1.725   1.190 -0.3441 -0.5144  0.0486
 3467SOL    HW111300   1.968   1.796   1.127  0.8654  0.3365  1.5204
 3467SOL    HW211301   1.897   1.650   1.139 -1.8430  1.2951 -1.5586
 3468SOL     OW11302   5.229   6.820   3.200 -0.3087 -0.5648  0.2947
 3468SOL    HW111303   5.248   6.903   3.253  0.1887 -1.7577  2.0623
 3468SOL    HW211304   5.282   6.822   3.115  3.8411 -1.2997  2.5861
 3469SOL     OW11305   4.865   5.644   4.756  0.0275  0.2880  0.0861
 3469SOL    HW111306   4.849   5.688   4.667 -1.3257  0.8900  0.6131
 3469SOL    HW211307   4.798   5.572   4.771  0.8909 -0.5123  0.1912
 3470SOL     OW11308   0.746   2.711   0.239  0.0813 -0.8533 -0.1916
 3470SOL    HW111309   0.658   2.707   0.193  0.0783  1.8513 -0.6192
 3470SOL    HW211310   0.783   2.804   0.231  1.2372 -0.8756  3.1000
 3471SOL     OW11311   5.206   4.993   2.244 -0.1373 -0.2484 -0.3071
 3471SOL    HW111312   5.141   5.067   2.264  0.8650  0.6082 -0.1510
 3471SOL    HW211313   5.155   4.909   2.228 -1.2722  0.3059  0.2116
 3472SOL     OW11314   2.510   2.080   3.375 -0.7115  0.1120 -0.2855
 3472SOL    HW111315   2.554   2.145   3.313  0.7288  0.3701  0.9313
 3472SOL    HW211316   2.580   2.035   3.431 -1.5703 -2.8945 -1.3914
 3473SOL     OW11317   0.609   4.103   1.026  0.7736  0.8139  0.2047
 3473SOL    HW111318   0.594   4.202   1.030  0.7438  0.8115  0.1437
 3473SOL    HW211319   0.682   4.083   0.960  0.7530  0.7924  0.1882
 3474SOL     OW11320   0.368   4.801   2.015  0.3115  0.0270 -0.0608
 3474SOL    HW111321   0.314   4.855   2.080  0.0976  0.4444 -0.5763
 3474SOL    HW211322   0.461   4.837   2.013  0.2129  0.2744 -0.2805
 3475SOL     OW11323   2.680   4.145   5.845  0.1261 -0.8203 -0.3161
 3475SOL    HW111324   2.689   4.244   5.858 -1.7019 -0.4411 -1.5506
 3475SOL    HW211325   2.721   4.119   5.758 -0.4931 -0.9112 -0.5920
 3476SOL     OW11326   3.508   2.786   1.178 -0.5181  0.1093 -0.2353
 3476SOL    HW111327   3.478   2.837   1.259 -0.8655 -0.0466 -0.2655
 3476SOL    HW211328   3.433   2.779   1.113  0.1490  1.4566 -1.2071
 3477SOL     OW11329   2.562   3.372   0.065  0.1272 -0.1820  0.2759
 3477SOL    HW111330   2.564   3.466   0.032 -0.8419  0.4360  1.8886
 3477SOL    HW211331   2.522   3.313  -0.005 -1.0790  0.9406 -0.0066
 3478SOL     OW11332   0.887   0.856   6.867  0.1051  0.5620 -0.5863
 3478SOL    HW111333   0.961   0.872   6.801  0.3215  0.7596 -0.2972
 3478SOL    HW211334   0.878   0.936   6.926 -0.8504  0.8580 -1.1120
 3479SOL     OW11335   3.169   1.158   2.278 -0.0278  0.3702  0.3490
 3479SOL    HW111336   3.084   1.135   2.325 -1.0770 -0.4597 -1.8307
 3479SOL    HW211337   3.181   1.258   2.278 -0.7086  0.4613  1.1373
 3480SOL     OW11338   5.686   1.725   4.933  0.2570  0.2924 -0.3227
 3480SOL    HW111339   5.668   1.665   5.011 -2.5693 -0.2317 -1.2724
 3480SOL    HW211340   5.701   1.669   4.852  0.9422  0.8628 -0.5972
 3481SOL     OW11341   0.007   6.624   2.182 -0.0309  0.1506 -0.0468
 3481SOL    HW111342   0.074   6.684   2.138 -0.6856  1.9152  1.2574
 3481SOL    HW211343   0.053   6.565   2.248  0.4072  0.4738 -0.0612
 3482SOL     OW11344   5.582   2.591   1.615 -0.1844  0.2772 -0.1947
 3482SOL    HW111345   5.666   2.645   1.626 -1.0605  1.6402 -0.0604
 3482SOL    HW211346   5.546   2.567   1.705  0.1104 -0.4319 -0.2532
 3483SOL     OW11347   4.254   1.165   3.008 -0.4435  0.1679  0.6969
 3483SOL    HW111348   4.178   1.225   2.984 -0.4987  0.0431  0.5534
 3483SOL    HW211349   4.327   1.175   2.940 -1.0526 -0.9958 -0.1725
 3484SOL     OW11350   1.819   2.926   6.128 -0.0228 -0.0932  0.5846
 3484SOL    HW111351   1.836   2.830   6.150 -0.4494 -0.6066 -1.2077
 3484SOL    HW211352   1.788   2.934   6.033 -1.3264  1.6804  1.1110
 3485SOL     OW11353   2.001   3.585   3.972 -0.7435  0.2014  0.4740
 3485SOL    HW111354   1.904   3.574   3.953 -0.2959 -1.3079 -1.1615
 3485SOL    HW211355   2.023   3.537   4.057 -1.2035 -0.6206  0.1475
 3486SOL     OW11356   1.721   6.177   2.067  1.0353  0.4140 -0.2608
 3486SOL    HW111357   1.792   6.108   2.050  1.3876  0.6961  0.0535
 3486SOL    HW211358   1.671   6.154   2.151 -0.2228 -0.5804 -1.2378
 3487SOL     OW11359   6.401   2.084   0.406  0.3903  0.2024 -0.5743
 3487SOL    HW111360   6.313   2.065   0.363  0.4367  1.1037 -1.0829
 3487SOL    HW211361   6.386   2.117   0.499  0.2605 -1.0430 -0.1426
 3488SOL     OW11362   0.038   6.814   4.894 -0.4366 -0.1595  0.7447
 3488SOL    HW111363   0.097   6.845   4.818  0.3135  3.0966  2.4681
 3488SOL    HW211364   0.008   6.720   4.876  0.6120  0.0285 -2.9902
 3489SOL     OW11365   5.711   0.823   1.552 -0.2558 -0.2361 -0.3055
 3489SOL    HW111366   5.717   0.898   1.619 -0.0807  0.6568 -1.2968
 3489SOL    HW211367   5.743   0.855   1.463 -0.1006 -1.5297 -0.7338
 3490SOL     OW11368   4.430   0.337   1.549  0.2336  0.0897  0.0212
 3490SOL    HW111369   4.453   0.407   1.617  2.8642 -0.4576 -0.2013
 3490SOL    HW211370   4.462   0.248   1.580  0.2339 -0.4072 -1.3200
 3491SOL     OW11371   4.247   2.623   5.458  0.8686  0.0268 -0.3855
 3491SOL    HW111372   4.308   2.693   5.494  1.5313 -0.2260 -1.0090
 3491SOL    HW211373   4.300   2.546   5.425  0.1297 -1.5765  1.8698
 3492SOL     OW11374   5.763   4.034   1.242 -0.6248 -0.6858 -0.0873
 3492SOL    HW111375   5.787   4.129   1.265  0.0796 -0.7349 -0.5963
 3492SOL    HW211376   5.761   3.979   1.325 -3.3716  0.2462  0.5808
 3493SOL     OW11377   4.015   6.613   3.562 -0.8483 -0.7307 -0.4943
 3493SOL    HW111378   3.995   6.520   3.530  1.0686 -1.1582 -0.5574
 3493SOL    HW211379   3.964   6.679   3.506  0.1549 -1.6163 -2.5752
 3494SOL     OW11380   4.364   0.072   3.519  0.2318  0.7113  0.0970
 3494SOL    HW111381   4.279   0.118   3.492  0.5401  1.5805  0.5707
 3494SOL    HW211382   4.344   0.002   3.587 -0.1678  0.5232 -0.2035
 3495SOL     OW11383   4.082   3.499   6.432  0.1459  0.2272  0.1240
 3495SOL    HW111384   4.008   3.441   6.397  0.2129 -0.9441  1.8084
 3495SOL    HW211385   4.061   3.595   6.411 -1.3608 -0.1568 -0.2826
 3496SOL     OW11386   5.499   4.862   6.420  0.1298  0.6008 -0.2071
 3496SOL    HW111387   5.474   4.765   6.421  0.8194  0.4251  1.2326
 3496SOL    HW211388   5.597   4.872   6.404 -0.1020  1.1346 -1.4846
 3497SOL     OW11389   2.911   1.770   3.421  0.1249 -0.2699 -0.5712
 3497SOL    HW111390   2.918   1.671   3.434 -0.3895 -0.4046 -1.2731
 3497SOL    HW211391   2.988   1.802   3.367  1.3098  0.0199  1.1992
 3498SOL     OW11392   4.906   0.217   2.803  0.8305  0.0373 -0.1057
 3498SOL    HW111393   4.923   0.124   2.835  1.2703  0.3094  0.4657
 3498SOL    HW211394   4.945   0.282   2.867  1.0676  0.6144 -0.8233
 3499SOL     OW11395   0.651   4.870   3.802 -0.4285  0.1387 -0.0674
 3499SOL    HW111396   0.641   4.930   3.881 -1.1286 -1.7855  1.4013
 3499SOL    HW211397   0.561   4.852   3.762 -0.0145  1.7223 -1.8854
 3500SOL     OW11398   0.473   3.412   4.452 -0.7736 -0.3238  0.2109
 3500SOL    HW111399   0.430   3.365   4.529 -1.2970 -1.3761 -0.7014
 3500SOL    HW211400   0.562   3.370   4.433 -0.1692  0.6105  0.8791
 3501SOL     OW11401   1.309   3.054   3.666  0.6807 -0.6434  0.1220
 3501SOL    HW111402   1.311   3.152   3.687 -0.5640 -0.7680  0.9532
 3501SOL    HW211403   1.395   3.027   3.625  1.4551  0.5958  0.8655
 3502SOL     OW11404   0.780   2.244   2.236  0.5078 -0.3938 -0.2650
 3502SOL    HW111405   0.859   2.210   2.287  0.6352  0.9542  0.4949
 3502SOL    HW211406   0.806   2.265   2.142  1.6700  2.0827  0.5292
 3503SOL     OW11407   0.408   6.782   5.630 -0.0867  0.0157  0.9358
 3503SOL    HW111408   0.492   6.733   5.612 -0.9600 -0.9998 -0.6273
 3503SOL    HW211409   0.329   6.726   5.603 -1.1257  2.3565 -1.3757
 3504SOL     OW11410   2.341   0.660   3.492 -0.0483 -0.3769 -1.1062
 3504SOL    HW111411   2.327   0.759   3.500 -0.8814 -0.6353  1.4248
 3504SOL    HW211412   2.435   0.643   3.461  0.2376  1.1845 -1.2080
 3505SOL     OW11413   4.105   4.802   3.078  0.1919 -0.1575  0.2107
 3505SOL    HW111414   4.049   4.812   2.996  0.2299  1.4083  0.3553
 3505SOL    HW211415   4.202   4.804   3.052  0.1996 -0.1156  0.2415
 3506SOL     OW11416   5.041   3.997   5.862 -0.0935  0.4737 -0.5182
 3506SOL    HW111417   5.138   4.002   5.838  0.1964  1.4843  0.7775
 3506SOL    HW211418   4.988   4.058   5.803  0.3136  1.2732 -0.0750
 3507SOL     OW11419   3.315   2.148   2.293  0.2529  0.8064 -0.3513
 3507SOL    HW111420   3.336   2.245   2.280  1.0039  0.6981  0.0020
 3507SOL    HW211421   3.395   2.093   2.272  0.2598  0.3592  0.7468
 3508SOL     OW11422   3.184   1.748   4.489  0.7541  0.1205  0.7755
 3508SOL    HW111423   3.194   1.826   4.551  1.2299  0.3071  0.4634
 3508SOL    HW211424   3.104   1.695   4.516  0.3779  0.7603  0.9440
 3509SOL     OW11425   5.140   6.941   0.108  0.1956  0.4032 -0.0077
 3509SOL    HW111426   5.052   6.926   0.062  0.5899 -0.5901 -0.4752
 3509SOL    HW211427   5.150   6.876   0.183 -0.1881  1.6344  1.1569
 3510SOL     OW11428   0.160   1.239   1.970 -0.4426  0.1220  0.8094
 3510SOL    HW111429   0.162   1.245   2.070  0.5413  1.2478  0.7439
 3510SOL    HW211430   0.076   1.281   1.936  0.7782  3.0176  1.0407
 3511SOL     OW11431   3.333   5.059   6.725  0.8213  0.3998  0.2991
 3511SOL    HW111432   3.385   5.063   6.640  1.5528 -1.7787  0.5901
 3511SOL    HW211433   3.320   5.152   6.760  2.4751  1.1708 -0.9951
 3512SOL     OW11434   5.235   4.744   6.801 -0.2800 -0.0204  0.4558
 3512SOL    HW111435   5.197   4.711   6.715 -1.2182  1.0383  0.4369
 3512SOL    HW211436   5.325   4.784   6.785  0.9946 -2.6571  0.5128
 3513SOL     OW11437   4.917   2.555   6.085 -0.4737  0.3799 -0.3766
 3513SOL    HW111438   5.002   2.503   6.091 -1.5815 -1.5429 -0.4000
 3513SOL    HW211439   4.935   2.651   6.108  1.1003 -0.5766  3.0516
 3514SOL     OW11440   0.919   2.919   1.610 -0.1791 -0.5680  0.1392
 3514SOL    HW111441   0.828   2.893   1.578  0.5178 -1.4893 -1.1789
 3514SOL    HW211442   0.911   2.973   1.693 -1.8768 -1.5555  0.6533
 3515SOL     OW11443   5.981   6.518   2.873 -0.4443 -0.2866 -0.1168
 3515SOL    HW111444   5.966   6.495   2.969  0.8257  0.0927  0.1930
 3515SOL    HW211445   5.895   6.508   2.823 -1.0512 -0.8163  0.9825
 3516SOL     OW11446   6.229   0.496   2.428  0.7670  0.2525  0.0758
 3516SOL    HW111447   6.235   0.509   2.329  0.8448 -0.3645 -0.0031
 3516SOL    HW211448   6.138   0.463   2.452  0.5824  0.8965  0.2696
 3517SOL     OW11449   1.379   1.255   2.044 -0.8756 -0.3705 -0.2379
 3517SOL    HW111450   1.359   1.258   2.142 -2.1867 -0.5027 -0.4851
 3517SOL    HW211451   1.475   1.232   2.030 -1.0402 -1.9721  0.9934
 3518SOL     OW11452   6.624   0.978   2.132 -0.1070  0.6903  0.1183
 3518SOL    HW111453   6.569   1.015   2.206 -0.5656 -1.8194  1.1562
 3518SOL    HW211454   6.582   0.893   2.098  1.4425  0.4174 -1.2577
 3519SOL     OW11455   1.483   0.726   6.527  0.2478  0.4600 -0.3008
 3519SOL    HW111456   1.397   0.756   6.569  0.8060  0.2840  1.0248
 3519SOL    HW211457   1.552   0.713   6.598  1.1440 -0.1990 -1.2611
 3520SOL     OW11458   1.584   6.121   0.012 -0.2485  0.5901  0.1850
 3520SOL    HW111459   1.564   6.091  -0.081  1.6634 -1.5341  0.3780
 3520SOL    HW211460   1.529   6.202   0.034 -2.1364  0.0311 -2.1033
 3521SOL     OW11461   5.275   0.844   6.560  0.6028 -0.1069  0.2915
 3521SOL    HW111462   5.288   0.914   6.630 -1.6743  0.2096  0.4649
 3521SOL    HW211463   5.235   0.886   6.478 -0.7817 -1.1678  0.3892
 3522SOL     OW11464   1.411   4.675   2.020  0.6049 -0.2607 -0.2055
 3522SOL    HW111465   1.353   4.621   1.959 -0.8516 -0.8571  1.6005
 3522SOL    HW211466   1.404   4.772   1.996 -2.5288 -0.0911  0.9100
 3523SOL     OW11467   2.491   4.833   6.617 -0.0978 -0.0012 -0.0449
 3523SOL    HW111468   2.402   4.812   6.577 -0.1592  1.2512 -0.6184
 3523SOL    HW211469   2.498   4.791   6.707 -0.2488 -2.2748 -1.0188
 3524SOL     OW11470   5.136   0.696   1.004 -0.5664  0.1841  0.3232
 3524SOL    HW111471   5.169   0.785   1.037  1.1313 -0.9312  1.8259
 3524SOL    HW211472   5.042   0.683   1.034 -0.4103  0.9442  1.2047
 3525SOL     OW11473   2.310   4.435   6.368 -0.1138  0.2595 -0.2699
 3525SOL    HW111474   2.371   4.504   6.330  0.3797  0.0583  0.1504
 3525SOL    HW211475   2.325   4.428   6.467  0.4322 -1.0431 -0.4309
 3526SOL     OW11476   3.467   6.945   1.846 -0.3672  0.2901 -0.2697
 3526SOL    HW111477   3.397   6.957   1.916 -0.3496  2.2102 -0.5331
 3526SOL    HW211478   3.445   7.000   1.765 -0.4934 -2.0265 -1.9174
 3527SOL     OW11479   6.303   5.448   5.325  0.1549  0.2662 -0.0189
 3527SOL    HW111480   6.209   5.462   5.295  0.0434 -0.0606  0.1807
 3527SOL    HW211481   6.358   5.414   5.249  0.7513  2.9664 -0.9387
 3528SOL     OW11482   3.228   0.260   5.037  0.0884  0.4859 -0.1116
 3528SOL    HW111483   3.274   0.339   5.078  0.2431 -0.2538  1.1763
 3528SOL    HW211484   3.295   0.201   4.994  0.3897 -0.5278  1.6575
 3529SOL     OW11485   3.472   6.606   5.667 -0.0456  0.5894  0.4159
 3529SOL    HW111486   3.490   6.542   5.592 -3.1818  0.9474 -0.7569
 3529SOL    HW211487   3.481   6.700   5.634 -1.5721  0.7525  0.4308
 3530SOL     OW11488   0.867   5.978   3.899  0.2834  0.0053  0.0151
 3530SOL    HW111489   0.957   5.988   3.941  0.1154  0.3538  0.2955
 3530SOL    HW211490   0.805   5.933   3.963  0.0232  0.5519  0.1584
 3531SOL     OW11491   4.648   2.515   6.127 -0.0795  0.3202  0.1045
 3531SOL    HW111492   4.599   2.486   6.045  0.0918 -0.1945  0.1831
 3531SOL    HW211493   4.745   2.525   6.107 -0.2195  1.4977 -0.0927
 3532SOL     OW11494   2.091   1.472   2.712  0.2720 -0.0481  0.5304
 3532SOL    HW111495   2.091   1.429   2.802 -0.1625 -1.1575  0.0131
 3532SOL    HW211496   2.159   1.429   2.654  1.9982  1.9905  0.8909
 3533SOL     OW11497   0.866   2.557   1.166  0.3165 -0.6748 -0.2427
 3533SOL    HW111498   0.873   2.643   1.216 -1.1200 -0.7072  0.0700
 3533SOL    HW211499   0.922   2.561   1.083  0.3439  0.5173 -0.1717
 3534SOL     OW11500   5.822   2.797   0.070 -0.0627 -0.2132 -0.2458
 3534SOL    HW111501   5.757   2.869   0.046  0.7086 -0.3418 -3.1474
 3534SOL    HW211502   5.779   2.708   0.053  0.5956 -0.3064 -1.5369
 3535SOL     OW11503   2.829   6.075   2.026  0.1519  0.6841  0.1437
 3535SOL    HW111504   2.782   6.135   2.091 -0.0254  0.2202  0.4503
 3535SOL    HW211505   2.854   5.989   2.072  0.2134  0.4386 -0.3436
 3536SOL     OW11506   3.852   2.038   2.633  0.6467  0.4960  0.5834
 3536SOL    HW111507   3.881   2.040   2.537  2.9554  0.0132  1.2171
 3536SOL    HW211508   3.912   1.977   2.685 -0.2656  1.1047  2.4425
 3537SOL     OW11509   4.150   6.302   2.130 -0.0663 -0.1623  0.3104
 3537SOL    HW111510   4.246   6.328   2.131 -0.0414 -0.1596  2.0385
 3537SOL    HW211511   4.093   6.384   2.126  0.0217 -0.0312  1.3840
 3538SOL     OW11512   2.457   1.914   6.606 -0.8808  0.4855 -0.3095
 3538SOL    HW111513   2.394   1.927   6.529  0.3359 -0.2874 -1.4835
 3538SOL    HW211514   2.406   1.920   6.692 -2.6577 -0.6017 -1.2268
 3539SOL     OW11515   3.912   4.487   5.945  0.4754  0.1752  0.1818
 3539SOL    HW111516   3.930   4.399   5.989  2.7985 -0.7740 -2.4030
 3539SOL    HW211517   3.936   4.561   6.008  0.2952 -1.0335  1.7258
 3540SOL     OW11518   1.640   1.708   5.822  0.0954 -0.0872  0.7479
 3540SOL    HW111519   1.657   1.806   5.836 -0.8281  0.3214 -0.7375
 3540SOL    HW211520   1.554   1.683   5.867 -0.4616  0.1604 -0.1453
 3541SOL     OW11521   1.157   2.979   1.504  0.4271  0.8126  0.5096
 3541SOL    HW111522   1.238   2.944   1.552  0.3561  0.6775  0.5312
 3541SOL    HW211523   1.076   2.929   1.534  0.5690 -0.2748 -0.7925
 3542SOL     OW11524   1.234   3.600   2.678  0.3869  0.5416 -0.4173
 3542SOL    HW111525   1.200   3.529   2.616  2.0207 -1.2593  0.6244
 3542SOL    HW211526   1.242   3.562   2.770 -0.3356  2.6409  0.5747
 3543SOL     OW11527   2.916   1.995   5.296  0.3653  0.6393  0.5193
 3543SOL    HW111528   2.904   1.939   5.378  0.9858  0.4680  0.4954
 3543SOL    HW211529   2.873   1.949   5.218 -0.4580  0.9300  0.7934
 3544SOL     OW11530   1.930   2.790   4.796  0.1202  0.4933 -0.8182
 3544SOL    HW111531   1.969   2.701   4.771  1.5947  0.5180  1.1601
 3544SOL    HW211532   1.997   2.862   4.779  0.1312  0.8207  0.5356
 3545SOL     OW11533   3.967   3.617   1.756 -0.6918 -0.0907  0.1929
 3545SOL    HW111534   3.988   3.707   1.795  0.5675  0.4402 -1.5762
 3545SOL    HW211535   3.903   3.627   1.680  0.6573 -0.4482 -1.0313
 3546SOL     OW11536   1.995   3.794   5.319 -0.1611  0.2245  0.0119
 3546SOL    HW111537   2.086   3.752   5.315 -1.4587 -2.7699 -0.6205
 3546SOL    HW211538   1.953   3.791   5.229 -0.6234  2.3637  0.1073
 3547SOL     OW11539   7.010   6.556   4.422 -0.0430 -0.0793 -0.0032
 3547SOL    HW111540   6.982   6.467   4.460 -0.3262  0.2172  0.4932
 3547SOL    HW211541   6.945   6.626   4.450  0.8359  0.5041  0.6147
 3548SOL     OW11542   6.329   6.681   6.871  0.6285 -0.2131 -0.9944
 3548SOL    HW111543   6.327   6.670   6.771  0.0360 -0.4838 -0.9588
 3548SOL    HW211544   6.281   6.765   6.896  0.6051 -0.2475 -0.9242
 3549SOL     OW11545   6.981   5.245   4.663  0.1242 -0.1009  0.2854
 3549SOL    HW111546   6.899   5.300   4.681  0.9969  1.7590 -1.0984
 3549SOL    HW211547   6.958   5.172   4.599 -0.5418  0.1698  0.2046
 3550SOL     OW11548   5.466   4.225   3.255  0.0710 -0.3917 -0.2019
 3550SOL    HW111549   5.526   4.199   3.331  0.7890 -1.4423 -1.0926
 3550SOL    HW211550   5.379   4.177   3.263  0.1957 -0.6044 -0.1337
 3551SOL     OW11551   4.423   0.270   0.786  0.5963  0.8681 -0.6940
 3551SOL    HW111552   4.487   0.227   0.850 -1.7144 -1.4144  0.2939
 3551SOL    HW211553   4.456   0.258   0.692  1.9054  0.3045 -0.1821
 3552SOL     OW11554   6.833   6.248   1.655 -0.3657 -0.3407  1.1395
 3552SOL    HW111555   6.838   6.209   1.563 -0.6432  1.0251  0.5103
 3552SOL    HW211556   6.925   6.252   1.695  0.2167  1.5616 -0.2146
 3553SOL     OW11557   4.508   5.103   0.981  0.5845 -0.5692  0.5118
 3553SOL    HW111558   4.585   5.156   1.014  0.9857  0.0702 -1.3093
 3553SOL    HW211559   4.542   5.018   0.939  0.5108  0.3573 -1.5647
 3554SOL     OW11560   5.089   1.725   1.803  0.2975  0.1618 -0.0845
 3554SOL    HW111561   5.110   1.820   1.782  2.3219 -0.1059  0.5037
 3554SOL    HW211562   5.091   1.712   1.903  2.2790 -0.9080 -0.2092
 3555SOL     OW11563   2.390   0.240   6.411  0.1135  0.1786  0.3293
 3555SOL    HW111564   2.392   0.141   6.425  1.3914  0.3232  1.3562
 3555SOL    HW211565   2.370   0.286   6.498  0.2338  0.8474  0.0129
 3556SOL     OW11566   5.210   0.418   2.797 -0.2755 -0.1531 -0.1841
 3556SOL    HW111567   5.213   0.388   2.892 -0.4779 -3.6833 -1.1262
 3556SOL    HW211568   5.293   0.387   2.750 -0.5752  0.7553 -1.3694
 3557SOL     OW11569   6.138   2.696   4.500 -0.2251 -0.4549  0.0985
 3557SOL    HW111570   6.145   2.772   4.436 -2.8533  0.1287  0.3963
 3557SOL    HW211571   6.149   2.610   4.450  1.0320  0.0595 -0.5373
 3558SOL     OW11572   2.209   5.987   1.037  0.0460  0.2826  0.3733
 3558SOL    HW111573   2.302   5.957   1.059 -0.0582 -1.2225 -1.0237
 3558SOL    HW211574   2.210   6.036   0.950 -0.5933 -0.7198 -0.2191
 3559SOL     OW11575   1.638   5.710   6.471 -0.0031 -0.5572 -0.8020
 3559SOL    HW111576   1.637   5.652   6.389  0.9672 -0.6929 -0.7332
 3559SOL    HW211577   1.733   5.724   6.500 -0.3304 -0.3317  0.1788
 3560SOL     OW11578   0.455   0.381   3.601  0.5733  0.0986 -0.1184
 3560SOL    HW111579   0.530   0.409   3.661  0.0448  2.4876 -0.4466
 3560SOL    HW211580   0.492   0.348   3.514  1.2671 -0.6203  0.4383
 3561SOL     OW11581   5.698   4.311   4.340  0.2305 -0.7553  0.0467
 3561SOL    HW111582   5.760   4.232   4.344 -1.3084 -2.2988 -3.1736
 3561SOL    HW211583   5.609   4.286   4.378 -0.4420 -0.8090 -1.5039
 3562SOL     OW11584   6.194   6.908   3.082 -0.0977  0.1829  0.2225
 3562SOL    HW111585   6.121   6.962   3.124 -1.2644  0.6679 -2.2091
 3562SOL    HW211586   6.268   6.968   3.052 -0.2402  0.1229 -0.2581
 3563SOL     OW11587   0.306   0.916   0.899  0.7664 -0.4958 -0.0016
 3563SOL    HW111588   0.404   0.906   0.917  0.7450 -1.8996 -0.5220
 3563SOL    HW211589   0.293   0.948   0.805  0.7244 -1.2152 -0.2492
 3564SOL     OW11590   0.922   4.145   3.192 -0.2096  0.2997  0.7337
 3564SOL    HW111591   0.982   4.065   3.190 -1.4868 -0.6806  0.2013
 3564SOL    HW211592   0.965   4.219   3.139  0.5908 -0.3239  0.4799
 3565SOL     OW11593   2.197   5.991   6.695 -0.4016  0.1746  0.0517
 3565SOL    HW111594   2.218   6.058   6.767 -2.0181  1.3603 -0.5052
 3565SOL    HW211595   2.275   5.931   6.681  1.5083  2.5394 -0.0450
 3566SOL     OW11596   6.014   4.816   5.404 -0.4911  0.3511 -0.2025
 3566SOL    HW111597   5.967   4.886   5.458  1.8140  1.2510  0.7752
 3566SOL    HW211598   6.100   4.791   5.449  0.5281 -0.4215 -2.4218
 3567SOL     OW11599   6.690   2.405   1.649  0.6466  0.3447  0.0960
 3567SOL    HW111600   6.686   2.437   1.554 -2.3195 -2.2336 -0.8261
 3567SOL    HW211601   6.784   2.377   1.670  1.3670  0.8214 -2.1397
 3568SOL     OW11602   4.951   4.587   4.374  0.0990  0.3938 -0.4996
 3568SOL    HW111603   4.987   4.646   4.447  1.0593 -2.6133  1.6453
 3568SOL    HW211604   4.872   4.537   4.408 -0.9027  0.5938 -2.3886
 3569SOL     OW11605   2.571   6.543   4.884 -0.0242 -0.0155 -0.3689
 3569SOL    HW111606   2.490   6.568   4.937  0.6242 -0.5461  0.9185
 3569SOL    HW211607   2.549   6.468   4.822 -0.9249  0.9587 -1.2634
 3570SOL     OW11608   0.291   1.961   5.215  0.0210  0.0258  0.1009
 3570SOL    HW111609   0.291   1.883   5.153  0.6764  0.4199 -0.4030
 3570SOL    HW211610   0.366   1.951   5.281 -0.6542 -0.3781  0.8273
 3571SOL     OW11611   0.180   6.654   5.997  0.3718  0.4108 -0.3692
 3571SOL    HW111612   0.229   6.735   6.031 -2.6087  1.6121  1.4915
 3571SOL    HW211613   0.183   6.583   6.067  0.3206  0.1025 -0.6806
 3572SOL     OW11614   0.091   1.852   2.266 -0.1609  0.9820  0.1386
 3572SOL    HW111615   0.190   1.841   2.256 -0.1200 -0.2487  1.5515
 3572SOL    HW211616   0.071   1.909   2.346 -0.6034  1.8195 -0.5481
 3573SOL     OW11617   0.786   5.336   3.162 -0.1393 -0.1958 -0.3310
 3573SOL    HW111618   0.759   5.357   3.256 -0.5644  0.0495 -0.5030
 3573SOL    HW211619   0.868   5.279   3.163  0.6223  0.8697  0.1641
 3574SOL     OW11620   4.319   3.122   1.450  0.1018 -0.3843  0.0279
 3574SOL    HW111621   4.345   3.096   1.543  0.6717 -2.6032 -0.6753
 3574SOL    HW211622   4.346   3.217   1.433 -0.5387  0.2631  2.2784
 3575SOL     OW11623   6.079   5.178   3.164 -0.1685 -0.5866 -0.6577
 3575SOL    HW111624   6.099   5.084   3.138 -0.7773 -0.7428 -0.5857
 3575SOL    HW211625   6.013   5.217   3.100 -0.4463 -0.4395 -0.2834
 3576SOL     OW11626   0.144   3.651   5.649 -0.2267 -0.0378  0.4284
 3576SOL    HW111627   0.151   3.630   5.551  1.7263  2.6932 -0.1208
 3576SOL    HW211628   0.076   3.722   5.663  0.6800  0.7732  0.8029
 3577SOL     OW11629   0.812   3.637   0.698 -0.0359 -0.2031 -0.4426
 3577SOL    HW111630   0.829   3.541   0.676  1.4225 -0.1567  0.3844
 3577SOL    HW211631   0.798   3.647   0.796 -2.0791  0.2066 -0.7297
 3578SOL     OW11632   1.001   1.927   0.747 -0.4348  0.0641  0.1142
 3578SOL    HW111633   0.903   1.944   0.730 -0.2208  1.2028 -0.0644
 3578SOL    HW211634   1.040   1.877   0.669 -0.9247 -0.6408  0.3094
 3579SOL     OW11635   1.904   3.240   3.800 -0.5557  0.3283  0.1050
 3579SOL    HW111636   1.845   3.216   3.877  0.7000 -0.4785  0.8468
 3579SOL    HW211637   1.993   3.270   3.835  0.2457 -0.6483 -1.0461
 3580SOL     OW11638   3.426   4.556   6.719 -0.1891  0.3320 -0.5917
 3580SOL    HW111639   3.415   4.491   6.795  1.2554 -0.0784 -0.6984
 3580SOL    HW211640   3.349   4.620   6.719 -0.1293  0.4875  1.3602
 3581SOL     OW11641   1.870   5.719   4.851 -0.0014 -0.2715  0.3770
 3581SOL    HW111642   1.836   5.631   4.885 -0.5821 -0.1334  0.1591
 3581SOL    HW211643   1.812   5.793   4.886  0.1360 -0.0232  0.0842
 3582SOL     OW11644   1.766   4.377   1.909 -0.6342 -0.7736 -0.0711
 3582SOL    HW111645   1.766   4.463   1.959  1.9594 -0.2092 -0.8916
 3582SOL    HW211646   1.671   4.348   1.892 -1.5864  2.0106  0.0257
 3583SOL     OW11647   1.674   6.011   5.690 -0.0643  0.6446 -0.4299
 3583SOL    HW111648   1.610   5.946   5.730  2.0301 -1.2122  0.0734
 3583SOL    HW211649   1.768   5.980   5.705  0.9743  2.6869 -2.1082
 3584SOL     OW11650   5.591   4.976   5.814  0.3680 -0.0931 -0.0408
 3584SOL    HW111651   5.511   4.929   5.852 -0.6382 -0.0825 -2.0363
 3584SOL    HW211652   5.607   5.059   5.867 -1.1807  0.1023  0.1921
 3585SOL     OW11653   4.186   1.930   5.681 -0.1123  0.4907 -0.1466
 3585SOL    HW111654   4.167   1.989   5.759 -1.4215 -1.9252  1.4919
 3585SOL    HW211655   4.284   1.928   5.662  0.1921  1.3354  1.2758
 3586SOL     OW11656   6.292   2.599   3.761  0.0457 -0.1080 -0.5651
 3586SOL    HW111657   6.257   2.523   3.706 -0.2422 -0.9759  0.7673
 3586SOL    HW211658   6.250   2.685   3.730 -1.3972 -0.7932 -0.6141
 3587SOL     OW11659   3.321   2.364   6.409  0.3756  0.3427 -0.2652
 3587SOL    HW111660   3.274   2.449   6.432 -0.7500 -0.5664  0.9007
 3587SOL    HW211661   3.258   2.302   6.362  0.4615 -0.7711  1.0237
 3588SOL     OW11662   0.381   4.115   4.775 -0.1901  0.0690  0.3909
 3588SOL    HW111663   0.444   4.183   4.736  0.6967 -0.0606  1.5473
 3588SOL    HW211664   0.417   4.023   4.758 -1.0290 -0.1041 -0.5476
 3589SOL     OW11665   4.678   0.551   3.945  0.0638  0.0227 -0.6121
 3589SOL    HW111666   4.635   0.602   4.020  1.4845 -0.8796  0.8826
 3589SOL    HW211667   4.761   0.600   3.916 -0.3718  0.2609 -1.4746
 3590SOL     OW11668   5.587   3.476   1.710 -0.3553 -0.4458 -0.6959
 3590SOL    HW111669   5.586   3.439   1.803 -0.5072 -1.3694 -1.0544
 3590SOL    HW211670   5.645   3.419   1.652 -0.3154  0.0842 -1.1870
 3591SOL     OW11671   4.154   4.885   6.599  0.4322 -0.7622 -0.1821
 3591SOL    HW111672   4.125   4.840   6.515 -2.5052  1.8595 -0.7266
 3591SOL    HW211673   4.075   4.926   6.645  2.4901  1.4829  1.6640
 3592SOL     OW11674   1.466   6.510   3.668 -0.1935  0.2330  0.1085
 3592SOL    HW111675   1.502   6.493   3.759 -1.6576 -1.6435  0.4003
 3592SOL    HW211676   1.535   6.558   3.613  1.2009  0.2287  1.7718
 3593SOL     OW11677   2.730   4.072   6.841  0.3135 -0.2973  0.2854
 3593SOL    HW111678   2.632   4.068   6.819  0.0523  0.6879  1.2419
 3593SOL    HW211679   2.766   4.162   6.818  0.0034  0.8701  3.8289
 3594SOL     OW11680   6.254   5.741   2.129 -0.1530  0.6843 -0.2233
 3594SOL    HW111681   6.184   5.766   2.062  2.4239  0.2425 -3.3184
 3594SOL    HW211682   6.263   5.642   2.133  0.0328  0.7228  0.4765
 3595SOL     OW11683   5.992   6.920   6.016  0.3303 -0.3282  0.7310
 3595SOL    HW111684   5.923   6.968   5.962  1.3685  1.9237  1.3087
 3595SOL    HW211685   6.059   6.878   5.955  0.1783  0.1628  0.2226
 3596SOL     OW11686   6.108   3.800   3.304  0.3179  0.0064 -0.1656
 3596SOL    HW111687   6.141   3.810   3.398  2.0568  0.8094 -0.8075
 3596SOL    HW211688   6.008   3.803   3.303  0.2773  2.9779  1.4020
 3597SOL     OW11689   0.477   1.784   4.626  0.2076  0.2497 -0.1196
 3597SOL    HW111690   0.449   1.878   4.607 -0.4419 -0.0237 -0.5261
 3597SOL    HW211691   0.482   1.732   4.541  1.6064  0.1894 -0.0186
 3598SOL     OW11692   1.284   1.089   5.619  0.3429 -0.4473 -0.3302
 3598SOL    HW111693   1.319   1.117   5.530  1.4676  3.4259  1.1457
 3598SOL    HW211694   1.360   1.054   5.675 -0.1958 -1.9982 -0.5157
 3599SOL     OW11695   5.843   0.765   0.524 -0.0548 -0.5588 -0.3020
 3599SOL    HW111696   5.901   0.727   0.453  1.4627  0.4981  0.3243
 3599SOL    HW211697   5.750   0.727   0.516  0.5003 -1.6632 -1.8138
 3600SOL     OW11698   0.659   2.323   0.838  0.0489 -0.3984 -0.1172
 3600SOL    HW111699   0.734   2.263   0.868  0.5726  0.1424 -0.3198
 3600SOL    HW211700   0.639   2.390   0.909  0.9120  0.5270 -0.7055
 3601SOL     OW11701   5.346   4.310   4.055  0.2729  0.6321  0.3025
 3601SOL    HW111702   5.298   4.322   3.968  1.2911 -0.0073 -0.3676
 3601SOL    HW211703   5.312   4.378   4.121 -2.2944 -0.4421  0.2234
 3602SOL     OW11704   0.840   3.972   0.120  0.6726  0.6150 -0.2548
 3602SOL    HW111705   0.839   3.880   0.159  1.7915  1.0264  0.7942
 3602SOL    HW211706   0.849   3.966   0.020  1.6371 -0.4089 -0.1262
 3603SOL     OW11707   4.758   0.097   3.171  0.5296  0.7252 -0.2747
 3603SOL    HW111708   4.685   0.053   3.223  1.4780 -0.7351 -0.1324
 3603SOL    HW211709   4.821   0.143   3.235  0.7363  0.4240 -0.2612
 3604SOL     OW11710   5.474   6.324   3.744 -0.4128  0.2873  0.5027
 3604SOL    HW111711   5.392   6.274   3.770 -0.0415 -1.2739 -1.0929
 3604SOL    HW211712   5.463   6.362   3.652  0.8876 -0.6484 -0.0846
 3605SOL     OW11713   5.712   4.513   3.178 -0.0642 -0.3722  0.1710
 3605SOL    HW111714   5.661   4.466   3.106  2.0797 -0.7721 -1.1572
 3605SOL    HW211715   5.788   4.455   3.208  1.3396  1.3234  0.0372
 3606SOL     OW11716   2.430   6.787   2.778 -0.2435 -0.1996  0.4103
 3606SOL    HW111717   2.364   6.799   2.704 -0.9066  0.8713  1.1375
 3606SOL    HW211718   2.489   6.709   2.758  0.0161  0.4437 -1.5421
 3607SOL     OW11719   3.046   4.778   0.712 -0.7218  0.1081  0.1960
 3607SOL    HW111720   3.060   4.776   0.811 -2.0383 -0.7417  0.3981
 3607SOL    HW211721   3.000   4.863   0.686 -0.0089  0.5162  0.2487
 3608SOL     OW11722   4.585   1.202   4.385 -0.5555 -0.5406  0.5630
 3608SOL    HW111723   4.648   1.279   4.378 -0.3961 -0.7977 -1.3866
 3608SOL    HW211724   4.507   1.228   4.442 -0.7628  1.2611 -0.4593
 3609SOL     OW11725   1.272   5.830   6.024  0.5395  0.3995  0.1721
 3609SOL    HW111726   1.262   5.929   6.016  1.0522  0.4246 -0.2568
 3609SOL    HW211727   1.312   5.807   6.113 -1.4413  0.4243  1.0978
 3610SOL     OW11728   2.503   5.772   0.580 -0.5725 -0.4167 -0.1245
 3610SOL    HW111729   2.474   5.698   0.640  0.9601  1.0533  2.6152
 3610SOL    HW211730   2.502   5.858   0.630  1.4437  0.8069 -2.0154
 3611SOL     OW11731   6.155   5.966   4.117  0.1383 -0.1496  0.3305
 3611SOL    HW111732   6.222   6.038   4.101  0.0521 -0.1738 -0.1650
 3611SOL    HW211733   6.188   5.880   4.080  0.3726 -0.4417  1.1901
 3612SOL     OW11734   0.953   1.359   6.006  0.1851  0.2781 -0.2223
 3612SOL    HW111735   1.036   1.306   6.023 -1.0470 -1.5538  0.4041
 3612SOL    HW211736   0.890   1.305   5.951 -1.1569  1.0571  0.4876
 3613SOL     OW11737   4.106   3.482   1.063 -0.4896 -0.1204 -0.2084
 3613SOL    HW111738   4.058   3.411   1.115  0.4377 -0.5002  0.1475
 3613SOL    HW211739   4.187   3.512   1.114 -0.1999  0.3192 -0.9153
 3614SOL     OW11740   3.824   3.003   6.093 -0.3205 -0.0538  0.2304
 3614SOL    HW111741   3.823   3.047   6.003  0.2707 -0.6347 -0.0722
 3614SOL    HW211742   3.770   3.057   6.157  0.4232  1.1251 -0.1099
 3615SOL     OW11743   4.106   3.454   6.708  0.0340 -0.1600 -0.3462
 3615SOL    HW111744   4.109   3.459   6.608  0.7362 -0.0209 -0.3290
 3615SOL    HW211745   4.133   3.363   6.738 -1.9616 -0.7913 -0.3216
 3616SOL     OW11746   6.590   1.442   0.944  1.2229  0.2200 -0.2610
 3616SOL    HW111747   6.593   1.518   1.008  0.6460  0.2078 -0.2079
 3616SOL    HW211748   6.584   1.477   0.850  0.5450  0.2466 -0.2119
 3617SOL     OW11749   4.077   0.256   5.279 -0.3409 -0.1339  0.1092
 3617SOL    HW111750   4.173   0.270   5.256  0.1069  0.0135  1.9571
 3617SOL    HW211751   4.036   0.194   5.211  0.5407  1.2227 -1.7456
 3618SOL     OW11752   1.104   3.487   5.055 -0.2585 -0.0858 -0.4331
 3618SOL    HW111753   1.060   3.577   5.054  1.9302  1.0524 -1.0512
 3618SOL    HW211754   1.088   3.442   4.967  1.9822  1.5215 -1.7701
 3619SOL     OW11755   5.773   0.499   5.402  0.5628 -0.0271  0.0364
 3619SOL    HW111756   5.749   0.528   5.494 -2.0723  1.3777 -0.9842
 3619SOL    HW211757   5.750   0.403   5.390  1.1582 -0.2826  0.9036
 3620SOL     OW11758   6.446   4.708   4.916 -0.0677 -0.6218  0.0617
 3620SOL    HW111759   6.383   4.781   4.939 -0.7173 -0.5455 -1.7882
 3620SOL    HW211760   6.421   4.625   4.966 -2.5857 -0.9996 -1.6423
 3621SOL     OW11761   3.463   3.611   3.908  0.1814  0.4860  0.2894
 3621SOL    HW111762   3.376   3.619   3.956 -0.1761 -0.9995 -0.0390
 3621SOL    HW211763   3.524   3.550   3.959  0.5377  0.4863 -0.1230
 3622SOL     OW11764   0.553   2.885   1.235  0.3312 -0.0130  0.2044
 3622SOL    HW111765   0.542   2.851   1.141  2.7007  0.8231 -0.4251
 3622SOL    HW211766   0.501   2.970   1.246 -0.7290 -0.6075 -0.0234
 3623SOL     OW11767   6.983   6.527   4.765  0.4705  0.1666 -0.3596
 3623SOL    HW111768   6.986   6.444   4.709  0.9770 -0.8178  1.0714
 3623SOL    HW211769   6.895   6.574   4.751  0.4917 -0.1896 -1.7591
 3624SOL     OW11770   1.714   1.946   3.168 -0.4039 -0.1465  0.1450
 3624SOL    HW111771   1.779   1.995   3.111 -1.8748 -0.6095 -2.0621
 3624SOL    HW211772   1.623   1.985   3.156 -0.6802  0.1715  2.7723
 3625SOL     OW11773   6.548   3.740   5.449 -0.5218  0.4666 -0.2886
 3625SOL    HW111774   6.450   3.755   5.433 -0.3662  1.1038 -0.7109
 3625SOL    HW211775   6.600   3.786   5.377  0.0348 -2.0093 -1.5493
 3626SOL     OW11776   1.450   3.958   6.531 -0.2006 -0.3012  0.4100
 3626SOL    HW111777   1.382   3.918   6.469 -0.9886  0.4184  0.7978
 3626SOL    HW211778   1.514   3.887   6.560 -1.0870 -1.1017  0.4417
 3627SOL     OW11779   3.839   2.238   1.184  0.2047 -0.1073 -0.4079
 3627SOL    HW111780   3.772   2.295   1.233  2.5132  1.5101  1.0643
 3627SOL    HW211781   3.870   2.287   1.102 -0.0090 -0.6227 -0.8007
 3628SOL     OW11782   0.818   3.089   1.828 -0.2432  0.6177  0.2531
 3628SOL    HW111783   0.872   3.145   1.891 -0.3929 -1.0331  1.9495
 3628SOL    HW211784   0.721   3.111   1.839 -0.1272  2.1066 -1.2902
 3629SOL     OW11785   3.457   1.538   5.231  0.2641 -0.5638 -0.2587
 3629SOL    HW111786   3.525   1.464   5.238 -1.5754 -2.2320  0.9702
 3629SOL    HW211787   3.407   1.545   5.317 -2.1765 -0.4452 -1.6242
 3630SOL     OW11788   4.255   1.723   5.024  0.2368 -0.2100  0.6673
 3630SOL    HW111789   4.217   1.699   4.935  0.3711  2.4284 -0.1881
 3630SOL    HW211790   4.212   1.668   5.095  0.0012 -2.2666 -0.9710
 3631SOL     OW11791   0.550   0.250   3.355 -0.0292  0.4668  0.0482
 3631SOL    HW111792   0.590   0.312   3.287  1.3351 -1.7622 -1.3401
 3631SOL    HW211793   0.594   0.160   3.347 -3.4812 -1.4145  0.3203
 3632SOL     OW11794   5.190   3.882   1.209  0.1062  0.3752  0.1071
 3632SOL    HW111795   5.261   3.935   1.164 -0.5211  1.3463  0.2193
 3632SOL    HW211796   5.191   3.902   1.307 -0.9360  1.1761 -0.0215
 3633SOL     OW11797   3.930   3.017   5.207 -0.5028  0.2259  0.1983
 3633SOL    HW111798   3.835   2.997   5.228 -0.5197  1.9409  2.2251
 3633SOL    HW211799   3.988   2.940   5.235 -1.2965 -1.0977 -1.6581
 3634SOL     OW11800   3.276   5.450   5.746 -0.1886 -0.4723  0.4266
 3634SOL    HW111801   3.236   5.372   5.697 -0.7784  0.3783 -0.4959
 3634SOL    HW211802   3.293   5.524   5.681  3.7332 -1.0244  0.5607
 3635SOL     OW11803   3.210   6.592   0.575 -0.3513 -0.3991  0.7091
 3635SOL    HW111804   3.233   6.571   0.480 -1.0732  0.2777  0.3645
 3635SOL    HW211805   3.111   6.585   0.588 -0.1666 -1.4890  1.6845
 3636SOL     OW11806   5.517   6.629   0.400  0.0087 -0.5072  0.1125
 3636SOL    HW111807   5.583   6.568   0.358  0.0143 -0.7419  0.4531
 3636SOL    HW211808   5.565   6.703   0.448  0.0599 -1.1832  1.1243
 3637SOL     OW11809   0.943   1.882   1.916 -0.2667  0.1557  0.2693
 3637SOL    HW111810   1.042   1.894   1.923  0.1094 -1.9961 -0.5467
 3637SOL    HW211811   0.915   1.885   1.820 -1.1156  1.3555  0.5275
 3638SOL     OW11812   0.347   5.360   3.671  0.0597  0.1163  0.1826
 3638SOL    HW111813   0.321   5.387   3.579 -1.3195  1.4622  0.9165
 3638SOL    HW211814   0.447   5.363   3.680  0.1478  1.2600 -0.8847
 3639SOL     OW11815   3.934   4.676   5.458  0.0542  0.1937  0.7218
 3639SOL    HW111816   3.929   4.590   5.509 -2.1225 -0.4789 -0.5039
 3639SOL    HW211817   3.958   4.657   5.363 -2.2428  0.6725 -0.0089
 3640SOL     OW11818   6.146   1.186   0.757  0.1142 -0.6026  0.4845
 3640SOL    HW111819   6.165   1.284   0.753 -0.9652 -0.4144 -0.9729
 3640SOL    HW211820   6.232   1.136   0.763  0.9478  0.3305 -2.1558
 3641SOL     OW11821   5.439   2.718   1.420  0.2216 -0.4317  1.0103
 3641SOL    HW111822   5.355   2.762   1.451  0.2293  0.2058  0.1708
 3641SOL    HW211823   5.484   2.673   1.497 -0.2484  0.2851  1.7176
 3642SOL     OW11824   4.693   3.206   6.020  0.4123  0.5961 -0.0838
 3642SOL    HW111825   4.609   3.228   5.971 -0.1352 -0.6754  0.2353
 3642SOL    HW211826   4.741   3.133   5.972  0.1503 -0.2753  0.9486
 3643SOL     OW11827   2.488   0.223   4.914 -0.3749 -0.2584 -0.0361
 3643SOL    HW111828   2.449   0.152   4.857  0.1454 -0.5734 -0.0055
 3643SOL    HW211829   2.446   0.311   4.891 -0.8828 -0.5394 -0.2018
 3644SOL     OW11830   2.013   1.589   3.442  0.2837  0.7767 -0.1359
 3644SOL    HW111831   2.104   1.621   3.469 -0.0082  1.1107  0.4809
 3644SOL    HW211832   2.002   1.597   3.343  0.6159  1.5492 -0.1143
 3645SOL     OW11833   2.147   3.450   3.441  0.3696  0.3881 -0.4299
 3645SOL    HW111834   2.098   3.365   3.421 -0.3472  0.8306 -0.6270
 3645SOL    HW211835   2.226   3.431   3.499 -0.6619 -0.2383  0.8304
 3646SOL     OW11836   0.596   3.306   4.845  0.6054  0.3689 -0.5085
 3646SOL    HW111837   0.660   3.237   4.810  0.8442  1.2546 -1.8699
 3646SOL    HW211838   0.648   3.380   4.888  0.3882  0.1579  0.1307
 3647SOL     OW11839   1.987   4.818   6.806 -0.4552 -0.6496  0.5461
 3647SOL    HW111840   2.060   4.770   6.854 -1.2574 -1.6565  0.7875
 3647SOL    HW211841   1.898   4.782   6.835 -0.9919 -0.7862 -1.1264
 3648SOL     OW11842   5.699   4.937   4.006 -0.1021  0.0867 -0.3537
 3648SOL    HW111843   5.755   5.006   4.052 -1.6297  0.0703  1.6592
 3648SOL    HW211844   5.741   4.847   4.016 -1.0339 -0.1368  2.3089
 3649SOL     OW11845   6.579   2.502   0.816  0.7167 -0.1062  0.4342
 3649SOL    HW111846   6.613   2.434   0.751  1.5300 -0.4783  1.2358
 3649SOL    HW211847   6.647   2.518   0.887 -0.1009  0.4064  1.1219
 3650SOL     OW11848   6.562   6.294   3.240 -0.2824  0.7494  0.0728
 3650SOL    HW111849   6.635   6.307   3.307 -1.0355 -2.3548  1.6903
 3650SOL    HW211850   6.474   6.286   3.289 -1.3608  1.8061 -1.6077
 3651SOL     OW11851   1.254   0.074   4.109 -0.3906 -0.0057  0.1757
 3651SOL    HW111852   1.327   0.047   4.171  0.0076  2.9273  1.1428
 3651SOL    HW211853   1.166   0.068   4.156 -0.4936 -1.0312 -0.1293
 3652SOL     OW11854   5.658   5.266   4.811  0.6901 -0.5970 -0.3595
 3652SOL    HW111855   5.750   5.273   4.848  0.9308 -0.7170 -0.9285
 3652SOL    HW211856   5.661   5.227   4.719  0.1296 -0.0802 -0.6105
 3653SOL     OW11857   0.418   0.950   2.341 -0.1752  0.2799  0.3050
 3653SOL    HW111858   0.330   0.991   2.366  0.0592  0.9698  0.0158
 3653SOL    HW211859   0.490   1.019   2.345  0.3399 -0.2530  0.4304
 3654SOL     OW11860   2.658   5.055   1.019  0.2872 -0.7842  0.8395
 3654SOL    HW111861   2.563   5.086   1.025  0.3271 -0.6497  0.7928
 3654SOL    HW211862   2.661   4.962   0.984  0.1590 -0.8739  1.0670
 3655SOL     OW11863   4.535   6.682   2.886 -0.3024 -1.0670  0.7843
 3655SOL    HW111864   4.489   6.595   2.899  0.1348 -1.3450  0.4908
 3655SOL    HW211865   4.603   6.696   2.958 -0.0153 -1.2074  0.5444
 3656SOL     OW11866   5.169   6.236   1.574 -0.4269  0.0399  0.3890
 3656SOL    HW111867   5.255   6.275   1.542  0.8762 -1.4878  1.8825
 3656SOL    HW211868   5.182   6.140   1.598 -1.8860  0.4306  3.1370
 3657SOL     OW11869   5.742   5.140   4.580  0.1989 -0.0510 -0.2405
 3657SOL    HW111870   5.751   5.216   4.515  0.4683  0.2232  0.1140
 3657SOL    HW211871   5.677   5.073   4.544 -1.8039  1.4208  0.4292
 3658SOL     OW11872   0.362   5.418   6.057  0.3992  0.5408 -0.1845
 3658SOL    HW111873   0.360   5.462   6.146  0.4394  1.1606 -0.4868
 3658SOL    HW211874   0.423   5.469   5.996 -1.1025  1.2508 -1.1508
 3659SOL     OW11875   0.682   4.196   6.193  0.0178 -0.2043  0.1567
 3659SOL    HW111876   0.597   4.157   6.157  0.8351 -0.3564 -1.6915
 3659SOL    HW211877   0.743   4.121   6.222  0.5595 -0.2250 -0.9944
 3660SOL     OW11878   5.712   0.688   4.246 -0.1447  0.2847 -0.4350
 3660SOL    HW111879   5.612   0.692   4.240 -0.1128  0.5545 -0.8185
 3660SOL    HW211880   5.746   0.608   4.196 -0.1730  0.1482 -0.2371
 3661SOL     OW11881   6.177   0.219   4.255  0.1479  0.0454 -0.3815
 3661SOL    HW111882   6.227   0.291   4.302  1.0672  0.2318 -1.5826
 3661SOL    HW211883   6.195   0.131   4.300  2.5589 -0.0923 -1.4014
 3662SOL     OW11884   3.832   6.517   3.238  0.0120 -0.0595 -0.2232
 3662SOL    HW111885   3.882   6.457   3.300  0.6359  0.4603 -0.2106
 3662SOL    HW211886   3.793   6.593   3.289 -0.6136 -0.3522 -0.2655
 3663SOL     OW11887   2.452   4.480   0.190  0.2550  0.3023  0.4395
 3663SOL    HW111888   2.409   4.453   0.104  0.2610 -0.3788  0.6406
 3663SOL    HW211889   2.548   4.452   0.189  1.1711  3.1083 -0.6148
 3664SOL     OW11890   4.613   3.839   1.694 -0.0413 -0.2972  0.8248
 3664SOL    HW111891   4.633   3.771   1.623  0.6860  0.3501  0.3981
 3664SOL    HW211892   4.675   3.826   1.771 -1.4823 -1.6415  1.8148
 3665SOL     OW11893   0.600   5.511   4.950  0.3111  0.4033 -0.2701
 3665SOL    HW111894   0.572   5.416   4.953 -2.0890  1.0825  1.4985
 3665SOL    HW211895   0.656   5.527   4.869  0.1126 -2.3067 -1.0161
 3666SOL     OW11896   6.142   4.651   3.613  0.0257 -0.0680  0.3163
 3666SOL    HW111897   6.211   4.709   3.658  1.1469 -0.6806 -0.5596
 3666SOL    HW211898   6.187   4.574   3.568 -1.4286 -1.6437  1.4284
 3667SOL     OW11899   0.021   1.180   3.304  0.3120  0.0595 -0.8644
 3667SOL    HW111900   0.067   1.243   3.240 -0.5938  0.8398 -0.7710
 3667SOL    HW211901  -0.023   1.107   3.252 -3.4278  2.5438 -1.6317
 3668SOL     OW11902   6.153   2.008   1.567 -0.4107 -0.6624 -0.2756
 3668SOL    HW111903   6.157   1.987   1.664 -0.5524 -3.8309 -0.8517
 3668SOL    HW211904   6.237   1.975   1.523 -0.2313  0.9648 -1.2351
 3669SOL     OW11905   4.555   2.512   4.787 -0.2732  0.0514 -0.6156
 3669SOL    HW111906   4.518   2.452   4.858  1.3643 -0.2052  0.0666
 3669SOL    HW211907   4.618   2.578   4.828  1.4112 -0.6814 -1.8977
 3670SOL     OW11908   2.555   3.644   6.928 -0.4642  0.1676  0.0643
 3670SOL    HW111909   2.517   3.731   6.898  2.2779  1.6811  0.6385
 3670SOL    HW211910   2.628   3.616   6.865 -0.5982 -1.1875  0.4717
 3671SOL     OW11911   0.033   6.986   3.916  0.0715  0.5377 -0.0547
 3671SOL    HW111912   0.018   6.950   4.008  1.2825  0.8812  0.2990
 3671SOL    HW211913  -0.054   6.996   3.869 -0.4036 -1.5708  0.3159
 3672SOL     OW11914   5.359   1.577   3.210 -0.2985 -0.0588  0.2637
 3672SOL    HW111915   5.308   1.491   3.205  1.4800 -1.2760  1.6916
 3672SOL    HW211916   5.381   1.597   3.306 -0.1800  1.6947 -0.1074
 3673SOL     OW11917   2.987   6.195   6.874  0.2483  0.4294 -0.4495
 3673SOL    HW111918   2.977   6.098   6.896  0.8359  0.3204 -0.6379
 3673SOL    HW211919   3.025   6.205   6.782 -1.2444  0.8651 -1.0419
 3674SOL     OW11920   1.556   6.153   6.213 -0.0865  0.2092  0.5274
 3674SOL    HW111921   1.460   6.141   6.191  0.3676 -2.8346 -0.2636
 3674SOL    HW211922   1.571   6.132   6.310 -0.2162  1.0160  0.7361
 3675SOL     OW11923   2.148   2.806   1.348  0.3323 -0.7059  0.5010
 3675SOL    HW111924   2.186   2.796   1.440  0.7325  1.4996  0.6245
 3675SOL    HW211925   2.067   2.865   1.351  0.9785  0.2818 -0.6918
 3676SOL     OW11926   6.262   4.878   1.993 -0.0677 -0.0901  0.6733
 3676SOL    HW111927   6.344   4.884   2.051 -0.4343 -0.4322  1.2400
 3676SOL    HW211928   6.277   4.810   1.921  1.0830  1.6286 -0.8054
 3677SOL     OW11929   5.891   5.934   4.717  0.4620 -0.2854  0.1782
 3677SOL    HW111930   5.851   5.892   4.635 -0.4028 -0.0684  0.4796
 3677SOL    HW211931   5.967   5.993   4.690 -0.9200  1.1909 -0.6711
 3678SOL     OW11932   1.417   2.749   4.654 -0.2827 -0.4131  0.1549
 3678SOL    HW111933   1.501   2.746   4.708 -0.9347 -0.3932  1.1964
 3678SOL    HW211934   1.359   2.671   4.678 -0.8228 -0.1043 -0.1223
 3679SOL     OW11935   0.307   0.406   4.003 -0.0924 -0.4979  0.0849
 3679SOL    HW111936   0.398   0.421   4.043  1.0483  0.6895 -2.6911
 3679SOL    HW211937   0.290   0.309   3.992  1.4822 -0.7084 -0.6590
 3680SOL     OW11938   5.105   3.219   4.552 -0.3361 -0.1425  0.6324
 3680SOL    HW111939   5.086   3.311   4.585 -2.6337 -1.3064  2.9135
 3680SOL    HW211940   5.179   3.178   4.606 -0.1849 -0.0796  0.4738
 3681SOL     OW11941   0.817   1.937   6.888 -0.1741  0.6356  0.8598
 3681SOL    HW111942   0.828   1.872   6.812  1.6933  1.2669  0.5511
 3681SOL    HW211943   0.720   1.946   6.910 -0.7383  0.2214 -1.2628
 3682SOL     OW11944   5.756   2.694   5.002  0.2815  0.2479 -0.1365
 3682SOL    HW111945   5.751   2.631   4.925 -0.2288 -0.1704  0.2313
 3682SOL    HW211946   5.727   2.785   4.972 -1.0939 -0.1754 -0.1725
 3683SOL     OW11947   5.534   6.613   4.012  0.8913  0.0633  0.0038
 3683SOL    HW111948   5.531   6.515   4.034 -2.7501 -0.2339 -1.1466
 3683SOL    HW211949   5.555   6.625   3.915 -1.0197  0.1901 -0.4353
 3684SOL     OW11950   0.497   6.438   6.976  0.5509  0.2210  0.4976
 3684SOL    HW111951   0.478   6.507   6.906  1.9850  0.4357  0.2849
 3684SOL    HW211952   0.428   6.445   7.049  0.7585  2.0366  0.5777
 3685SOL     OW11953   2.646   6.562   6.397 -0.1054  0.5191 -0.3427
 3685SOL    HW111954   2.656   6.486   6.332 -0.1591  0.7993 -0.6844
 3685SOL    HW211955   2.736   6.600   6.417 -0.1958  1.2557 -1.2585
 3686SOL     OW11956   6.820   5.691   5.689 -0.3748 -0.5467 -0.1079
 3686SOL    HW111957   6.787   5.691   5.594  1.4626  1.1157 -0.8214
 3686SOL    HW211958   6.742   5.691   5.751 -1.6448 -0.5512 -1.6290
 3687SOL     OW11959   4.156   6.117   2.543  0.3880  0.1209 -0.4008
 3687SOL    HW111960   4.097   6.104   2.464 -0.9327  1.9849  0.2106
 3687SOL    HW211961   4.230   6.180   2.519  0.0804  0.5603 -0.1956
 3688SOL     OW11962   5.105   2.770   1.389  0.3006  0.3419  0.5492
 3688SOL    HW111963   5.052   2.828   1.451 -0.6894 -1.2057  1.2166
 3688SOL    HW211964   5.080   2.674   1.404  1.8494 -0.2665 -0.5503
 3689SOL     OW11965   1.811   1.312   6.688 -0.3882 -0.0086  0.3883
 3689SOL    HW111966   1.793   1.407   6.712  1.4527  0.6189 -0.4775
 3689SOL    HW211967   1.830   1.260   6.771  0.2121  0.7807  0.7609
 3690SOL     OW11968   3.428   3.451   1.894 -0.0983  0.4779 -0.5138
 3690SOL    HW111969   3.435   3.549   1.875 -1.0414  0.7223  0.3340
 3690SOL    HW211970   3.518   3.409   1.886  0.2728  1.3619 -1.1389
 3691SOL     OW11971   1.697   2.482   2.488 -0.2023 -0.2082 -0.1202
 3691SOL    HW111972   1.694   2.460   2.586 -1.4412  0.7932  0.1004
 3691SOL    HW211973   1.700   2.582   2.478  1.3717 -0.3246 -1.1055
 3692SOL     OW11974   0.270   6.015   5.703  0.4789  0.9855 -0.6123
 3692SOL    HW111975   0.216   5.939   5.740  0.8032  1.3456  0.6321
 3692SOL    HW211976   0.212   6.071   5.643 -0.5936  1.4277  0.7900
 3693SOL     OW11977   1.068   2.009   1.367 -0.2115 -0.0177 -0.0505
 3693SOL    HW111978   1.140   2.047   1.424 -2.4291  1.0678  2.2190
 3693SOL    HW211979   1.055   2.067   1.286  0.2311  0.7923  0.4455
 3694SOL     OW11980   1.910   1.891   1.982  0.3253 -0.3831  0.3150
 3694SOL    HW111981   1.939   1.876   2.076 -0.6317  0.2082  0.7217
 3694SOL    HW211982   1.956   1.972   1.945  1.3414 -1.0980 -0.0281
 3695SOL     OW11983   5.617   1.284   1.317 -0.1854  0.1300  0.4466
 3695SOL    HW111984   5.678   1.357   1.284 -1.0084  1.1842  1.1722
 3695SOL    HW211985   5.522   1.312   1.303 -0.5233 -0.4924  1.4177
 3696SOL     OW11986   5.898   6.145   3.623 -0.4415 -0.3107  0.0603
 3696SOL    HW111987   5.943   6.058   3.645  0.5545  0.1887  0.0454
 3696SOL    HW211988   5.813   6.153   3.676 -0.0377 -0.8512  0.8049
 3697SOL     OW11989   0.964   5.576   3.488  0.7171  0.3656 -0.4821
 3697SOL    HW111990   0.915   5.634   3.552  1.2313  1.2517 -0.8705
 3697SOL    HW211991   1.026   5.632   3.433  1.4578 -0.5958 -0.6553
 3698SOL     OW11992   3.753   1.412   3.547 -0.4265 -0.3100  0.2876
 3698SOL    HW111993   3.826   1.344   3.546 -0.8558 -0.7995 -1.2367
 3698SOL    HW211994   3.676   1.379   3.492 -0.5135  1.5275 -0.7771
 3699SOL     OW11995   2.615   1.443   2.634  0.2875  0.1714  0.6693
 3699SOL    HW111996   2.701   1.463   2.681  1.7699 -1.1107 -1.3704
 3699SOL    HW211997   2.588   1.523   2.580  2.0088 -0.4805 -1.2726
 3700SOL     OW11998   1.501   5.821   5.829 -0.1482 -0.5100 -0.1640
 3700SOL    HW111999   1.463   5.795   5.740 -2.0479 -0.8888  0.7032
 3700SOL    HW212000   1.430   5.866   5.883  1.0685  0.0055  1.0634
 3701SOL     OW12001   2.075   6.261   4.854 -0.0237  0.3487 -0.0224
 3701SOL    HW112002   2.071   6.354   4.817 -0.2853  0.6550  0.7477
 3701SOL    HW212003   2.146   6.256   4.924  0.5439 -0.2522 -0.6309
 3702SOL     OW12004   7.004   0.446   3.200 -0.0319 -0.0648  0.8063
 3702SOL    HW112005   6.927   0.480   3.145 -0.0022 -0.7578  0.3296
 3702SOL    HW212006   7.003   0.346   3.201  1.1079 -0.0966  0.4418
 3703SOL     OW12007   1.193   1.688   0.818 -0.5222 -0.3620 -0.3091
 3703SOL    HW112008   1.212   1.778   0.780  1.5597  0.0142  1.4207
 3703SOL    HW212009   1.095   1.680   0.839 -1.1327  0.5904 -2.5916
 3704SOL     OW12010   3.845   1.495   6.968  0.3267  0.1178 -0.1098
 3704SOL    HW112011   3.756   1.506   7.012  0.5650  1.4941  0.0580
 3704SOL    HW212012   3.831   1.485   6.869 -0.0452 -0.5375 -0.0048
 3705SOL     OW12013   5.026   5.029   5.212 -0.1509 -0.2621 -0.8928
 3705SOL    HW112014   5.104   5.004   5.155  0.4267 -1.4530  0.3424
 3705SOL    HW212015   4.974   4.947   5.234 -0.7479  0.2709 -0.2846
 3706SOL     OW12016   5.961   2.699   6.290  0.4873 -0.2181  0.0594
 3706SOL    HW112017   5.884   2.720   6.349 -0.5429  1.9416 -1.8796
 3706SOL    HW212018   6.012   2.621   6.327 -1.6172 -0.6490  2.2789
 3707SOL     OW12019   3.384   6.349   4.104 -0.1552  0.1642  0.6964
 3707SOL    HW112020   3.307   6.290   4.127 -1.7485  1.4404 -1.0551
 3707SOL    HW212021   3.362   6.404   4.023  2.3354  1.1151  0.5480
 3708SOL     OW12022   5.622   5.236   0.964  0.5466 -0.4082  0.4332
 3708SOL    HW112023   5.717   5.262   0.947  0.5235 -1.7635 -2.1607
 3708SOL    HW212024   5.618   5.146   1.008  0.4455 -0.4949  0.2471
 3709SOL     OW12025   3.263   6.954   2.032 -0.1454  0.1174  0.1722
 3709SOL    HW112026   3.243   6.868   2.079  0.2572  0.6723  1.3882
 3709SOL    HW212027   3.177   7.001   2.012 -0.4147 -0.8415 -1.0882
 3710SOL     OW12028   2.126   5.142   4.030  0.6462 -0.1615  0.8922
 3710SOL    HW112029   2.093   5.227   3.989 -0.1844 -0.7813  0.2424
 3710SOL    HW212030   2.226   5.137   4.021  0.5574  0.0487 -0.4308
 3711SOL     OW12031   2.430   6.353   4.738  0.1869  0.4188 -0.4999
 3711SOL    HW112032   2.492   6.296   4.684 -0.7985 -2.0317  0.7921
 3711SOL    HW212033   2.344   6.364   4.689  0.0899  0.0840 -0.4090
 3712SOL     OW12034   1.945   5.407   6.633  0.5811 -0.1657 -0.0621
 3712SOL    HW112035   1.917   5.430   6.540  0.9199  0.6572  0.0316
 3712SOL    HW212036   1.915   5.314   6.655 -0.5818  0.0772 -0.5526
 3713SOL     OW12037   6.173   1.693   5.083 -0.4666 -0.3388 -0.6763
 3713SOL    HW112038   6.109   1.622   5.054 -1.9320  0.6078  0.0557
 3713SOL    HW212039   6.162   1.774   5.024 -0.1798 -0.0524 -0.3448
 3714SOL     OW12040   5.993   5.763   0.887  0.0858 -0.4306 -1.0392
 3714SOL    HW112041   5.928   5.689   0.867 -0.9217  0.0839  0.2469
 3714SOL    HW212042   6.082   5.739   0.849 -0.7027 -1.3899 -2.3967
 3715SOL     OW12043   0.396   4.862   3.038  0.2229 -0.3198  0.1576
 3715SOL    HW112044   0.390   4.789   3.106 -1.3879 -0.8145 -0.4670
 3715SOL    HW212045   0.350   4.833   2.954  0.6228  0.9587 -0.5294
 3716SOL     OW12046   5.583   6.853   4.628  0.0295 -0.0240 -0.0174
 3716SOL    HW112047   5.627   6.809   4.550  0.4054 -0.5011  0.4600
 3716SOL    HW212048   5.529   6.931   4.595 -0.7095 -0.8745 -0.8681
 3717SOL     OW12049   6.390   1.167   0.919  0.4551  0.3815 -0.5827
 3717SOL    HW112050   6.429   1.259   0.923  0.3835  0.3914 -0.1292
 3717SOL    HW212051   6.374   1.133   1.011 -0.3064  0.2451 -0.7555
 3718SOL     OW12052   0.834   0.699   5.399  0.2269 -0.4564  0.2249
 3718SOL    HW112053   0.832   0.799   5.401  0.3342 -0.4535  0.2148
 3718SOL    HW212054   0.788   0.663   5.480  2.0463 -0.3685  1.3746
 3719SOL     OW12055   3.884   3.063   5.577  0.2670  0.6742  0.3042
 3719SOL    HW112056   3.946   3.121   5.522 -0.2667  0.3465 -0.6616
 3719SOL    HW212057   3.798   3.052   5.529 -0.7276  1.4648  1.8286
 3720SOL     OW12058   5.238   2.522   2.561  0.1359 -0.3935 -0.4755
 3720SOL    HW112059   5.180   2.497   2.484  0.5964 -1.0893 -0.6115
 3720SOL    HW212060   5.198   2.600   2.609 -0.7147 -0.6223 -0.7814
 3721SOL     OW12061   0.587   4.419   6.827  0.1193 -0.1859  0.1641
 3721SOL    HW112062   0.653   4.483   6.788 -0.1629 -0.6372 -1.0894
 3721SOL    HW212063   0.621   4.386   6.915  2.3508 -1.5643 -1.1167
 3722SOL     OW12064   6.105   6.830   0.883  0.5041 -0.1335 -0.4888
 3722SOL    HW112065   6.130   6.877   0.967  0.6382 -0.9765 -0.0496
 3722SOL    HW212066   6.126   6.889   0.805 -3.3173  2.4014  0.1178
 3723SOL     OW12067   3.627   4.839   1.476  0.1982  0.7400 -0.0318
 3723SOL    HW112068   3.577   4.828   1.561 -0.7730 -2.1964 -0.8685
 3723SOL    HW212069   3.702   4.774   1.472  1.1192  1.8019 -0.8545
 3724SOL     OW12070   4.369   5.185   5.838 -0.3937  0.1356  0.0508
 3724SOL    HW112071   4.401   5.253   5.771 -1.5040  1.7598  1.0906
 3724SOL    HW212072   4.272   5.168   5.823 -0.1696 -1.0946 -0.0551
 3725SOL     OW12073   6.857   0.100   6.458  0.1218 -0.1008 -0.7618
 3725SOL    HW112074   6.849   0.093   6.358 -0.0708  0.5267 -0.7946
 3725SOL    HW212075   6.950   0.129   6.482  0.3705 -0.8968 -0.7164
 3726SOL     OW12076   5.245   5.935   5.640 -0.6831 -0.5226 -0.5039
 3726SOL    HW112077   5.338   5.917   5.674 -0.5538 -1.2249 -1.1935
 3726SOL    HW212078   5.221   6.030   5.658  0.3883 -0.1794 -0.7915
 3727SOL     OW12079   1.026   2.936   0.367 -0.0893  0.3422  0.0685
 3727SOL    HW112080   0.944   2.960   0.419 -0.3563 -2.9160  1.4363
 3727SOL    HW212081   1.105   2.983   0.406 -0.8214  0.7497  1.1234
 3728SOL     OW12082   0.624   3.543   0.461 -0.5654 -0.5000  0.1210
 3728SOL    HW112083   0.713   3.502   0.479 -1.1021 -2.6564 -1.7771
 3728SOL    HW212084   0.606   3.614   0.530  2.4425 -0.1929  0.7216
 3729SOL     OW12085   0.996   1.412   1.966 -0.3362  0.7581  0.0578
 3729SOL    HW112086   1.038   1.325   1.939 -0.3186  0.4479  1.0518
 3729SOL    HW212087   1.016   1.481   1.896 -1.6522 -0.3986 -1.5375
 3730SOL     OW12088   3.803   0.719   6.357 -0.3508  0.0062  0.1919
 3730SOL    HW112089   3.768   0.738   6.449  1.3168  0.1167  0.8292
 3730SOL    HW212090   3.773   0.627   6.329  0.1583 -0.5466  1.3812
 3731SOL     OW12091   6.805   6.848   0.701 -0.3024 -0.1068  0.3957
 3731SOL    HW112092   6.725   6.790   0.717 -0.8790  0.4745 -0.2873
 3731SOL    HW212093   6.854   6.817   0.620 -0.0032 -0.2829  0.6426
 3732SOL     OW12094   3.019   0.709   6.614  0.0237  0.2342  0.3035
 3732SOL    HW112095   3.106   0.714   6.566  0.2765 -2.5434  0.3180
 3732SOL    HW212096   3.035   0.693   6.712 -0.4349 -1.1578  0.1834
 3733SOL     OW12097   0.507   3.218   2.097 -0.2680 -0.0877  0.0995
 3733SOL    HW112098   0.551   3.202   2.185 -0.2955  0.0283  0.1344
 3733SOL    HW212099   0.413   3.248   2.112  0.1666  1.3903  0.0791
 3734SOL     OW12100   5.696   6.241   6.343 -0.5177 -0.6925 -0.4367
 3734SOL    HW112101   5.609   6.225   6.390 -0.2788  0.5290  0.4469
 3734SOL    HW212102   5.687   6.320   6.283  0.1008 -0.3174 -0.0377
 3735SOL     OW12103   3.884   0.034   2.658  0.2563  0.2075  0.4587
 3735SOL    HW112104   3.862   0.047   2.561 -2.2521  0.3402  0.9844
 3735SOL    HW212105   3.828  -0.041   2.695  0.4375  0.8275  2.0444
 3736SOL     OW12106   0.822   3.200   1.209  0.8476 -0.7318  0.6963
 3736SOL    HW112107   0.813   3.297   1.186 -0.9177 -0.9680  0.2949
 3736SOL    HW212108   0.886   3.190   1.285  2.4698  0.5646 -0.4205
 3737SOL     OW12109   5.663   1.258   3.380 -0.3258  0.0446 -0.2535
 3737SOL    HW112110   5.733   1.189   3.358 -0.7724  0.0197 -1.7003
 3737SOL    HW212111   5.653   1.264   3.479  0.7131 -0.9757 -0.0581
 3738SOL     OW12112   2.023   0.033   2.286 -0.2698  1.1821  0.4136
 3738SOL    HW112113   1.932   0.074   2.282 -0.5205  0.5786 -0.3292
 3738SOL    HW212114   2.017  -0.057   2.329 -0.1110  0.9276 -0.0908
 3739SOL     OW12115   0.283   4.275   2.460 -0.4550  0.1621  0.3213
 3739SOL    HW112116   0.186   4.269   2.437 -0.5252  0.6000  0.4997
 3739SOL    HW212117   0.335   4.218   2.396 -0.7707  0.3841 -0.1454
 3740SOL     OW12118   5.895   6.957   6.385  0.0535 -0.5441 -0.0820
 3740SOL    HW112119   5.849   6.869   6.383  0.9963 -1.0965  1.1576
 3740SOL    HW212120   5.988   6.948   6.349 -0.0858  0.1003 -0.6190
 3741SOL     OW12121   4.662   1.008   6.468  0.2859 -0.0744 -0.2338
 3741SOL    HW112122   4.669   0.918   6.425 -1.6838  0.0649 -0.9087
 3741SOL    HW212123   4.718   1.009   6.551  1.3901 -1.4724 -0.9078
 3742SOL     OW12124   4.786   0.254   1.421  0.3003 -0.4024 -0.5949
 3742SOL    HW112125   4.763   0.291   1.511 -2.4516 -1.5443 -0.7182
 3742SOL    HW212126   4.809   0.328   1.359  1.3364  0.4797  0.8011
 3743SOL     OW12127   5.812   2.356   2.077  0.3950 -0.3893  0.0250
 3743SOL    HW112128   5.867   2.274   2.090  0.7449 -0.1165  0.2792
 3743SOL    HW212129   5.744   2.340   2.005  2.3856  0.0597 -2.0602
 3744SOL     OW12130   1.775   6.439   2.732  0.3433  0.4615  0.2747
 3744SOL    HW112131   1.753   6.369   2.663  0.3049  0.4795  0.2685
 3744SOL    HW212132   1.698   6.502   2.740  0.5396  0.7399 -0.0092
 3745SOL     OW12133   4.880   3.794   3.402  0.2430  0.7166  0.8956
 3745SOL    HW112134   4.831   3.813   3.317  0.3869 -0.9237  0.4207
 3745SOL    HW212135   4.844   3.853   3.475 -2.0322 -0.0177  0.4370
 3746SOL     OW12136   0.350   0.459   4.622 -0.0702  0.0056 -0.3154
 3746SOL    HW112137   0.351   0.544   4.571 -0.3576  0.6453  0.7041
 3746SOL    HW212138   0.256   0.423   4.625 -0.4171  0.9253  1.2323
 3747SOL     OW12139   2.910   5.884   4.711  0.7256 -0.3303  0.0065
 3747SOL    HW112140   2.917   5.948   4.635  0.5909  1.8046  1.6934
 3747SOL    HW212141   2.978   5.908   4.781 -1.1032 -0.3227  1.8667
 3748SOL     OW12142   4.502   6.789   3.501  0.3582 -0.0326  0.4908
 3748SOL    HW112143   4.509   6.779   3.402  0.6607  0.4953  0.4572
 3748SOL    HW212144   4.577   6.846   3.535  0.2730 -0.2291  1.0284
 3749SOL     OW12145   0.798   4.960   2.228 -0.3820 -0.3418 -0.3974
 3749SOL    HW112146   0.846   4.957   2.316  1.0900 -2.6865 -1.1713
 3749SOL    HW212147   0.836   5.033   2.172  0.9902 -0.8844 -0.2379
 3750SOL     OW12148   6.040   4.976   6.590 -0.0961  0.0369  0.5200
 3750SOL    HW112149   6.075   4.945   6.678 -1.9586 -3.2745  0.2494
 3750SOL    HW212150   5.948   5.014   6.601  0.2915  1.1357  0.1546
 3751SOL     OW12151   6.397   4.312   6.119  0.3943 -0.0919  0.2966
 3751SOL    HW112152   6.485   4.290   6.079  0.9646  2.0515  0.2198
 3751SOL    HW212153   6.353   4.384   6.065 -1.8537 -1.7175 -0.1834
 3752SOL     OW12154   6.366   1.013   1.142  0.3763  0.1196  0.1698
 3752SOL    HW112155   6.392   1.000   1.237 -0.5045 -1.1587  0.2711
 3752SOL    HW212156   6.399   0.935   1.088  0.8897  0.8435 -0.5837
 3753SOL     OW12157   1.548   6.102   4.039  0.2316  0.4789 -0.4444
 3753SOL    HW112158   1.488   6.182   4.031  1.7677  1.7125 -0.1101
 3753SOL    HW212159   1.595   6.105   4.127  0.2937 -0.8446 -0.4117
 3754SOL     OW12160   2.722   5.667   2.024  0.8234 -0.2443 -0.0520
 3754SOL    HW112161   2.789   5.604   1.985  2.2929  0.8609  0.5956
 3754SOL    HW212162   2.769   5.750   2.055 -0.7525  0.2504  1.1098
 3755SOL     OW12163   5.697   6.251   5.004 -0.0391  0.1712  0.6580
 3755SOL    HW112164   5.709   6.168   4.949  0.1635  0.9037 -0.4369
 3755SOL    HW212165   5.718   6.331   4.948 -2.3110  1.0961  1.0382
 3756SOL     OW12166   1.329   6.432   0.360  0.3760 -0.5840  0.2685
 3756SOL    HW112167   1.351   6.491   0.283  0.6569 -1.2218 -0.1426
 3756SOL    HW212168   1.407   6.374   0.382  0.3928 -0.2351  1.2003
 3757SOL     OW12169   2.929   5.843   1.360 -0.1912 -0.2888 -0.2007
 3757SOL    HW112170   2.935   5.827   1.262 -2.2979 -0.3333 -0.3613
 3757SOL    HW212171   2.996   5.913   1.386 -0.4820  0.6744 -1.9046
 3758SOL     OW12172   3.207   1.259   4.073  0.4685  0.2173  0.6408
 3758SOL    HW112173   3.262   1.217   4.145 -0.1857  0.8305  1.5197
 3758SOL    HW212174   3.163   1.342   4.108 -1.7660 -0.7371  0.2742
 3759SOL     OW12175   3.243   4.962   5.831 -0.5033 -0.0056  0.6503
 3759SOL    HW112176   3.143   4.963   5.841 -0.8248  1.0447 -1.9626
 3759SOL    HW212177   3.273   4.868   5.815 -1.2932 -0.1456 -0.1274
 3760SOL     OW12178   2.259   2.430   5.359  0.0192 -0.3879 -0.1421
 3760SOL    HW112179   2.258   2.353   5.423 -2.2537  0.1261  0.5462
 3760SOL    HW212180   2.353   2.449   5.331  1.3153  0.0251  3.8585
 3761SOL     OW12181   6.687   3.067   5.783  0.0787 -0.0286  0.3377
 3761SOL    HW112182   6.697   2.992   5.848 -3.8224 -0.4173  0.7211
 3761SOL    HW212183   6.713   3.036   5.691  1.9232 -0.6481  1.0220
 3762SOL     OW12184   6.810   6.050   5.557  0.2748 -0.4437  0.0274
 3762SOL    HW112185   6.852   6.118   5.617 -1.5255  0.5787  0.2069
 3762SOL    HW212186   6.722   6.022   5.595  0.3879 -1.9053 -0.7302
 3763SOL     OW12187   1.219   3.738   0.915 -0.5094 -0.2899  0.1522
 3763SOL    HW112188   1.318   3.752   0.926  0.3550 -3.1668 -2.2971
 3763SOL    HW212189   1.199   3.724   0.818 -2.7704 -2.9835  0.8895
 3764SOL     OW12190   1.229   1.985   2.462 -0.5842 -0.0898 -1.0285
 3764SOL    HW112191   1.198   1.891   2.470 -2.2420  0.3094 -2.3256
 3764SOL    HW212192   1.173   2.045   2.519 -0.1605  0.2518 -0.9580
 3765SOL     OW12193   4.305   1.921   6.368  0.0706 -0.0959 -0.6216
 3765SOL    HW112194   4.279   1.858   6.441  3.2934  2.5676  3.3116
 3765SOL    HW212195   4.237   1.994   6.361 -0.5653 -0.6909 -0.7207
 3766SOL     OW12196   1.522   1.465   5.075  0.0961  0.1726 -0.2840
 3766SOL    HW112197   1.514   1.560   5.043  1.2072 -0.0031 -1.1748
 3766SOL    HW212198   1.462   1.407   5.020 -0.0063  0.2518 -0.2565
 3767SOL     OW12199   0.516   5.924   6.535 -0.4196 -0.0700 -0.4431
 3767SOL    HW112200   0.458   5.887   6.462 -1.1216  0.8438 -0.3717
 3767SOL    HW212201   0.610   5.931   6.502 -0.8337  0.9298 -1.5204
 3768SOL     OW12202   1.404   0.558   5.154 -0.1954  0.1634 -0.0978
 3768SOL    HW112203   1.474   0.586   5.088 -1.6099 -1.0764 -2.2326
 3768SOL    HW212204   1.342   0.634   5.171  1.4505  1.2038  1.6399
 3769SOL     OW12205   6.102   6.970   6.697  0.3619 -0.0223 -0.5769
 3769SOL    HW112206   6.027   7.027   6.731 -0.0580  0.4114 -2.1264
 3769SOL    HW212207   6.168   6.955   6.770  0.3624  2.2766 -0.0024
 3770SOL     OW12208   0.261   6.398   0.108 -0.2973  0.5879  0.0304
 3770SOL    HW112209   0.202   6.478   0.117  0.2595  1.0797 -0.5889
 3770SOL    HW212210   0.220   6.320   0.156 -1.1418  1.0829  0.1224
 3771SOL     OW12211   6.231   2.621   6.742 -0.7740 -0.0189  0.6870
 3771SOL    HW112212   6.138   2.651   6.764 -0.4818  0.0855  1.8835
 3771SOL    HW212213   6.288   2.701   6.724 -1.0524 -0.1124 -0.7145
 3772SOL     OW12214   4.955   1.931   2.325  0.6241  0.1743 -0.2595
 3772SOL    HW112215   4.907   1.844   2.318  0.8129  0.0562 -0.0735
 3772SOL    HW212216   5.027   1.936   2.256 -0.1387  0.6601 -1.0414
 3773SOL     OW12217   6.160   1.104   5.446  0.3164  0.0134  0.0713
 3773SOL    HW112218   6.071   1.128   5.406  1.2678  0.1945 -2.0107
 3773SOL    HW212219   6.178   1.007   5.432  0.5960  0.0453  0.2028
 3774SOL     OW12220   0.589   5.983   5.979  0.2305 -0.4619 -0.0536
 3774SOL    HW112221   0.564   6.021   5.889 -3.0594 -0.2162  0.8079
 3774SOL    HW212222   0.608   6.058   6.042  0.3631 -0.5321 -0.0102
 3775SOL     OW12223   4.936   4.331   6.718  0.3865 -1.0414 -0.3374
 3775SOL    HW112224   4.901   4.300   6.629  1.6310  2.1094 -2.1125
 3775SOL    HW212225   4.880   4.408   6.750 -0.1803 -2.2677  1.8128
 3776SOL     OW12226   5.692   1.531   2.280 -0.6662  0.1205  1.0034
 3776SOL    HW112227   5.695   1.458   2.348 -3.0112  0.4081  1.5040
 3776SOL    HW212228   5.654   1.497   2.195 -1.9372  0.7593  1.2938
 3777SOL     OW12229   2.993   3.642   5.863  0.1154  0.6844 -0.6679
 3777SOL    HW112230   2.985   3.551   5.904 -0.9420 -0.2303 -2.7085
 3777SOL    HW212231   2.916   3.699   5.892 -0.0554  0.4006 -0.5581
 3778SOL     OW12232   2.460   4.981   2.939 -0.0170 -0.0097  0.5826
 3778SOL    HW112233   2.485   4.981   2.842 -0.0209  0.4055  0.5778
 3778SOL    HW212234   2.542   4.995   2.994 -0.0219 -0.1957  0.6350
 3779SOL     OW12235   1.283   3.949   2.846  0.2475 -0.9576  0.0502
 3779SOL    HW112236   1.216   4.000   2.792  1.2591 -0.1118 -0.4423
 3779SOL    HW212237   1.352   3.911   2.785  1.4507  0.0670  0.7233
 3780SOL     OW12238   4.805   5.542   6.638  0.3275  0.3386 -0.4654
 3780SOL    HW112239   4.835   5.529   6.543 -0.2309  0.6758 -0.6932
 3780SOL    HW212240   4.882   5.526   6.700  0.7439  0.2988 -0.9862
 3781SOL     OW12241   3.200   5.712   4.497  0.3358  0.4760  0.3117
 3781SOL    HW112242   3.212   5.783   4.566  1.2688  1.7085 -1.0667
 3781SOL    HW212243   3.132   5.742   4.430  0.1743 -0.2749  0.1278
 3782SOL     OW12244   2.862   0.604   5.164 -0.3021  0.4582  0.4771
 3782SOL    HW112245   2.763   0.611   5.177 -0.3567  1.8831 -0.4412
 3782SOL    HW212246   2.881   0.574   5.070  0.1457 -3.2794  1.5925
 3783SOL     OW12247   5.579   5.274   4.031  0.3040  0.0887 -0.0450
 3783SOL    HW112248   5.505   5.242   4.090  0.9749 -1.8710 -0.1626
 3783SOL    HW212249   5.656   5.304   4.088  0.4451 -0.5378  0.1131
 3784SOL     OW12250   5.924   1.858   1.529  0.4132 -0.6846 -0.2181
 3784SOL    HW112251   5.991   1.931   1.545  1.2502 -1.1828 -1.2445
 3784SOL    HW212252   5.853   1.891   1.466 -0.0847 -0.2826  0.5461
 3785SOL     OW12253   6.726   0.505   1.457  0.1380  0.2328  0.6180
 3785SOL    HW112254   6.801   0.543   1.512 -0.3884  0.6049  1.0847
 3785SOL    HW212255   6.763   0.435   1.396  1.0257  1.0177  0.2038
 3786SOL     OW12256   2.659   6.205   2.421 -0.0218 -0.1475  0.1670
 3786SOL    HW112257   2.562   6.182   2.424 -0.1498  0.1760 -0.9885
 3786SOL    HW212258   2.686   6.249   2.507 -0.9272 -0.1280  0.4448
 3787SOL     OW12259   5.317   2.295   3.503 -0.1251  0.4383  0.3810
 3787SOL    HW112260   5.379   2.216   3.498  3.5291  3.0619  0.3427
 3787SOL    HW212261   5.295   2.326   3.411 -0.8158  0.0525  0.4072
 3788SOL     OW12262   2.030   3.580   3.236  0.4536 -0.5649 -0.7397
 3788SOL    HW112263   2.095   3.635   3.182  0.9031 -0.7381 -0.3774
 3788SOL    HW212264   2.081   3.518   3.296 -0.0409 -1.6839 -1.4428
 3789SOL     OW12265   0.281   4.711   4.715  0.3071 -0.5518  0.7435
 3789SOL    HW112266   0.356   4.722   4.781  0.3609 -0.1655  0.6185
 3789SOL    HW212267   0.196   4.696   4.764  0.1333  0.9475  0.9493
 3790SOL     OW12268   2.896   4.601   5.448 -0.0546 -0.2261 -0.1980
 3790SOL    HW112269   2.823   4.561   5.503 -0.6739 -0.2254 -1.0060
 3790SOL    HW212270   2.907   4.548   5.364 -0.9277  1.2886 -1.3180
 3791SOL     OW12271   0.588   6.276   6.431  0.2410 -0.4396 -0.3523
 3791SOL    HW112272   0.539   6.201   6.387  0.5800 -1.1185  0.4056
 3791SOL    HW212273   0.524   6.351   6.450  0.2231  0.1824 -2.6294
 3792SOL     OW12274   1.673   0.631   4.264  0.7027 -0.4981 -0.2256
 3792SOL    HW112275   1.651   0.709   4.205  1.4014 -0.5485 -0.5708
 3792SOL    HW212276   1.663   0.546   4.212  2.1202 -0.4969 -0.5492
 3793SOL     OW12277   5.424   6.838   1.246  0.1493 -0.3996 -0.0373
 3793SOL    HW112278   5.428   6.743   1.277 -2.5150 -0.5950 -0.1042
 3793SOL    HW212279   5.362   6.890   1.305 -0.4467  0.6628 -1.5490
 3794SOL     OW12280   0.879   4.240   6.899  0.1693  0.3398  0.7184
 3794SOL    HW112281   0.962   4.260   6.951  2.2751 -1.2391 -1.7689
 3794SOL    HW212282   0.886   4.280   6.808 -0.4905 -2.0423 -0.4884
 3795SOL     OW12283   5.172   5.732   4.323  0.2604 -0.1726  0.9273
 3795SOL    HW112284   5.258   5.779   4.339 -0.6993  1.6182  1.0459
 3795SOL    HW212285   5.168   5.649   4.380  2.0398 -0.5068  0.6141
 3796SOL     OW12286   4.063   1.810   2.349 -0.7653 -0.0887  0.0060
 3796SOL    HW112287   4.103   1.841   2.435 -1.0334 -0.6046  0.3258
 3796SOL    HW212288   4.067   1.883   2.282 -1.7845  0.8031  0.8696
 3797SOL     OW12289   6.746   4.894   1.644  0.2088 -0.5081 -0.0815
 3797SOL    HW112290   6.788   4.867   1.731  0.7818  0.4440 -0.0468
 3797SOL    HW212291   6.686   4.973   1.660 -0.6976 -1.1341 -0.3369
 3798SOL     OW12292   5.017   5.963   4.316  0.1742 -0.2458 -0.2759
 3798SOL    HW112293   5.071   5.880   4.332  1.2765  0.9863  3.4440
 3798SOL    HW212294   5.078   6.036   4.287 -0.0589  0.2738  0.5169
 3799SOL     OW12295   6.727   3.075   3.513  0.6472 -0.0872 -0.0194
 3799SOL    HW112296   6.755   3.100   3.420 -0.9059  0.7287 -0.3017
 3799SOL    HW212297   6.808   3.056   3.569  1.5842 -2.0238 -1.9014
 3800SOL     OW12298   5.518   4.581   4.452 -0.3858 -0.4493 -0.4827
 3800SOL    HW112299   5.523   4.482   4.436  1.1317 -0.2963 -1.1672
 3800SOL    HW212300   5.459   4.623   4.383 -0.9901 -0.8688 -0.2246
 3801SOL     OW12301   0.695   5.454   3.410 -0.1634 -0.5426 -0.2779
 3801SOL    HW112302   0.782   5.503   3.416  0.3297 -1.4020 -0.3251
 3801SOL    HW212303   0.622   5.519   3.387  0.9394 -0.2512 -3.4800
 3802SOL     OW12304   1.493   3.856   3.892  0.2748  0.3815 -0.1520
 3802SOL    HW112305   1.550   3.843   3.811  0.2892  1.7273 -0.3821
 3802SOL    HW212306   1.516   3.944   3.935  0.0435 -0.1552  1.1282
 3803SOL     OW12307   1.767   3.385   0.395 -0.8234  0.9560 -0.5042
 3803SOL    HW112308   1.681   3.368   0.348 -0.3949  0.9625 -1.2945
 3803SOL    HW212309   1.820   3.455   0.346 -0.9593  1.9609  0.7144
 3804SOL     OW12310   4.296   1.660   5.706  0.2626 -0.4211 -0.3995
 3804SOL    HW112311   4.341   1.718   5.774  0.8886 -2.2095  0.7761
 3804SOL    HW212312   4.198   1.679   5.705  0.2815 -0.1766  0.8192
 3805SOL     OW12313   2.928   3.261   1.140 -0.2504 -0.1564  0.3391
 3805SOL    HW112314   2.889   3.259   1.232 -0.5608  1.3572  0.2538
 3805SOL    HW212315   3.026   3.281   1.146 -0.2312 -0.2521  0.3459
 3806SOL     OW12316   3.864   1.980   5.794 -0.0295  0.2936 -0.4554
 3806SOL    HW112317   3.821   2.031   5.869 -0.0901 -1.6242  0.8845
 3806SOL    HW212318   3.955   1.949   5.821  0.8624  1.3856 -2.0135
 3807SOL     OW12319   4.375   1.607   3.404  0.3381  0.3149 -0.1705
 3807SOL    HW112320   4.304   1.676   3.418  1.8982  1.7284  1.1211
 3807SOL    HW212321   4.358   1.528   3.463 -0.4826  0.3442 -0.3538
 3808SOL     OW12322   5.570   6.151   0.211  0.4179 -0.3671  0.1624
 3808SOL    HW112323   5.639   6.210   0.168 -1.4364 -0.3151 -3.0423
 3808SOL    HW212324   5.518   6.205   0.278 -0.1160  1.2014 -1.4445
 3809SOL     OW12325   5.608   2.058   0.243  0.0192 -0.1669  0.0069
 3809SOL    HW112326   5.632   2.073   0.338  1.1985 -2.0210  0.0484
 3809SOL    HW212327   5.603   2.146   0.195  2.3397  0.6310  1.1093
 3810SOL     OW12328   6.257   1.498   4.895  0.2248 -0.0502  0.1348
 3810SOL    HW112329   6.273   1.412   4.944 -0.0668 -0.8725 -1.1494
 3810SOL    HW212330   6.281   1.575   4.954  0.7996 -1.0147  1.2086
 3811SOL     OW12331   1.891   2.990   3.197  0.1876 -0.2819  0.7261
 3811SOL    HW112332   1.966   2.984   3.263 -0.1101 -0.4325  1.0523
 3811SOL    HW212333   1.926   2.973   3.105  1.0718  2.2780  0.5090
 3812SOL     OW12334   3.993   5.767   4.813  0.1524  0.8962 -0.6202
 3812SOL    HW112335   3.927   5.692   4.809  2.0564 -1.0606  1.4969
 3812SOL    HW212336   3.945   5.855   4.815 -2.4158 -0.4232  1.2988
 3813SOL     OW12337   3.425   3.167   6.217 -0.0043  0.2494 -0.7171
 3813SOL    HW112338   3.435   3.218   6.302 -0.8763 -0.8909  0.1060
 3813SOL    HW212339   3.453   3.224   6.140  2.2060  0.8306  0.4341
 3814SOL     OW12340   0.084   5.115   1.723  0.3567 -0.2574 -0.1927
 3814SOL    HW112341   0.183   5.115   1.732  0.4271  1.2466 -0.7520
 3814SOL    HW212342   0.042   5.094   1.811  1.1540  0.4014  0.3542
 3815SOL     OW12343   1.843   2.256   1.612 -0.0947 -0.1497  0.3917
 3815SOL    HW112344   1.780   2.269   1.536 -0.9315 -0.8428  0.9477
 3815SOL    HW212345   1.801   2.292   1.696  0.6899  0.3319  0.5856
 3816SOL     OW12346   6.965   5.737   1.948  0.2064  0.3237  0.0172
 3816SOL    HW112347   7.062   5.714   1.947 -0.1331 -1.2149 -0.8724
 3816SOL    HW212348   6.943   5.787   2.032  1.1111 -2.3885  1.9911
 3817SOL     OW12349   4.474   4.445   3.405 -0.9974  0.7171 -0.1252
 3817SOL    HW112350   4.491   4.532   3.359 -0.6637  1.4757  1.3602
 3817SOL    HW212351   4.464   4.461   3.503 -0.2807 -0.9964  0.2608
 3818SOL     OW12352   4.618   6.215   0.176 -0.4897  0.0359 -0.1058
 3818SOL    HW112353   4.697   6.238   0.119 -1.2191 -0.2287 -1.2480
 3818SOL    HW212354   4.649   6.198   0.269  0.3949  3.0950  0.2634
 3819SOL     OW12355   4.735   3.115   0.726  0.0249 -0.2246 -0.3428
 3819SOL    HW112356   4.799   3.183   0.761  0.6826 -0.3313 -1.2862
 3819SOL    HW212357   4.758   3.025   0.762  0.6478 -0.3202 -0.9438
 3820SOL     OW12358   0.906   6.375   4.416  0.1389 -0.4521 -0.7489
 3820SOL    HW112359   0.995   6.413   4.442 -0.8183  1.6690 -0.3474
 3820SOL    HW212360   0.894   6.383   4.317  0.8805 -1.9435 -0.9886
 3821SOL     OW12361   1.599   2.591   1.268 -0.0821 -0.0278  0.2592
 3821SOL    HW112362   1.678   2.647   1.243  0.3137 -0.6969 -0.0072
 3821SOL    HW212363   1.528   2.650   1.307  0.4805  0.6023  0.3544
 3822SOL     OW12364   0.249   3.805   3.698  0.6764  0.0345  0.0639
 3822SOL    HW112365   0.331   3.800   3.642  0.5387 -0.6231 -0.0905
 3822SOL    HW212366   0.202   3.892   3.682  0.6528 -0.1334 -0.8244
 3823SOL     OW12367   4.077   1.680   1.723 -0.6006  0.3427 -0.0346
 3823SOL    HW112368   4.133   1.598   1.728 -1.4110 -0.2726 -0.8105
 3823SOL    HW212369   4.125   1.756   1.769 -0.2201 -0.7423  1.4451
 3824SOL     OW12370   6.216   0.637   4.729 -0.3041  0.4057 -0.2949
 3824SOL    HW112371   6.307   0.595   4.737 -0.4508  0.0410 -0.5055
 3824SOL    HW212372   6.153   0.572   4.688 -0.7531  0.5339  0.1794
 3825SOL     OW12373   0.035   0.734   5.612 -0.2049  0.5915 -0.1053
 3825SOL    HW112374   0.103   0.668   5.646 -0.2630  0.6842  0.1982
 3825SOL    HW212375   0.017   0.802   5.683 -2.2866 -0.7072  0.7144
 3826SOL     OW12376   6.276   3.128   6.677  0.0903  0.3570  0.1830
 3826SOL    HW112377   6.350   3.195   6.680  0.1080  0.3175  0.7166
 3826SOL    HW212378   6.189   3.173   6.700 -0.2867  0.6968 -1.7353
 3827SOL     OW12379   2.056   2.881   0.745  0.2854 -0.1164  0.0000
 3827SOL    HW112380   1.999   2.891   0.827 -0.1388 -2.1733  0.0078
 3827SOL    HW212381   2.012   2.928   0.669 -0.0106  0.6569  0.6261
 3828SOL     OW12382   3.293   3.117   6.996 -0.3959  0.2078  0.1092
 3828SOL    HW112383   3.340   3.205   6.984  0.4452 -0.1508  0.7432
 3828SOL    HW212384   3.315   3.079   7.085 -1.6000 -0.1607  0.2723
 3829SOL     OW12385   2.025   4.089   6.058  0.1685 -0.2068  0.3539
 3829SOL    HW112386   2.106   4.131   6.098  0.7699  1.3706 -2.3079
 3829SOL    HW212387   2.044   4.062   5.964 -2.4453  0.3763 -0.4175
 3830SOL     OW12388   2.708   6.913   5.425 -0.4417  0.2232  0.5879
 3830SOL    HW112389   2.733   6.863   5.508  0.5794  1.5305  1.0917
 3830SOL    HW212390   2.689   7.008   5.447 -1.2505  0.3417 -0.5281
 3831SOL     OW12391   4.021   2.056   1.605 -0.3107 -0.1993 -0.9501
 3831SOL    HW112392   4.004   1.987   1.535 -0.7900 -1.4836  0.3949
 3831SOL    HW212393   3.935   2.082   1.649  0.1823 -0.9592  0.5553
 3832SOL     OW12394   5.329   2.620   3.185 -0.0495 -0.1895 -0.1872
 3832SOL    HW112395   5.244   2.658   3.221  0.3270 -0.4059  0.9723
 3832SOL    HW212396   5.333   2.636   3.087 -0.1584  2.3043  0.1345
 3833SOL     OW12397   4.088   5.486   5.755 -0.2079  0.3582 -0.1921
 3833SOL    HW112398   4.157   5.538   5.805 -0.3756 -0.5932  1.0956
 3833SOL    HW212399   4.131   5.406   5.713 -0.2547  0.6101 -0.7283
 3834SOL     OW12400   4.164   3.535   1.493 -0.3586  0.0018 -0.0388
 3834SOL    HW112401   4.069   3.565   1.494  0.2894  2.2801  1.9795
 3834SOL    HW212402   4.188   3.495   1.581  0.5258 -0.7862 -0.6118
 3835SOL     OW12403   3.136   4.658   5.260  0.3231  0.1166  0.4878
 3835SOL    HW112404   3.212   4.609   5.302  1.4074  0.9090 -0.4651
 3835SOL    HW212405   3.072   4.593   5.220 -0.4387 -0.6305  2.7928
 3836SOL     OW12406   2.161   2.641   0.989 -0.0222 -0.1812 -0.1763
 3836SOL    HW112407   2.081   2.701   0.992  0.4218  0.3874  0.7619
 3836SOL    HW212408   2.186   2.616   1.082  0.3928 -1.0420 -0.5122
 3837SOL     OW12409   5.081   2.769   0.326  0.5457  0.1272  0.0229
 3837SOL    HW112410   5.023   2.722   0.260 -1.1637 -0.9548  2.1962
 3837SOL    HW212411   5.144   2.704   0.368 -1.5221 -0.3178  2.7091
 3838SOL     OW12412   6.354   3.979   3.512  0.2328  0.1205 -0.3845
 3838SOL    HW112413   6.263   3.951   3.543  1.0628 -0.7114  1.4430
 3838SOL    HW212414   6.346   4.024   3.423 -2.0373  0.7116  0.0424
 3839SOL     OW12415   3.781   0.932   6.032  0.0716 -0.3052 -0.0382
 3839SOL    HW112416   3.809   0.883   5.949 -0.8897  0.0619 -0.5927
 3839SOL    HW212417   3.690   0.971   6.018  0.0980  0.1522  1.0315
 3840SOL     OW12418   1.795   0.628   5.846 -0.0742  0.0204 -0.4186
 3840SOL    HW112419   1.842   0.545   5.876  1.7926  0.9623 -0.5932
 3840SOL    HW212420   1.800   0.635   5.746  0.9906  0.9885 -0.3183
 3841SOL     OW12421   6.643   2.383   4.541 -0.5164  0.5355 -0.4158
 3841SOL    HW112422   6.621   2.333   4.458  1.1312 -0.2388 -0.4141
 3841SOL    HW212423   6.712   2.453   4.521 -1.2834  1.4480  0.0011
 3842SOL     OW12424   1.160   3.992   5.051 -0.2623 -0.2086  0.4010
 3842SOL    HW112425   1.234   3.934   5.086 -0.8144 -0.6604  0.8184
 3842SOL    HW212426   1.151   4.074   5.108 -0.2103 -0.2423  0.4568
 3843SOL     OW12427   6.359   5.265   1.654 -0.4001 -0.3599  0.2205
 3843SOL    HW112428   6.458   5.278   1.651 -0.0059 -2.8631 -0.0200
 3843SOL    HW212429   6.337   5.189   1.715 -2.3552  1.1835  1.5660
 3844SOL     OW12430   0.696   2.521   5.295 -0.5022  0.3478 -0.4226
 3844SOL    HW112431   0.665   2.515   5.200  0.2938  1.2151 -0.7632
 3844SOL    HW212432   0.790   2.557   5.296 -1.6114  3.5244  0.8193
 3845SOL     OW12433   3.175   3.346   3.261  0.1982  0.1829  0.1074
 3845SOL    HW112434   3.240   3.408   3.304 -0.0017  0.2094  0.3744
 3845SOL    HW212435   3.138   3.388   3.178  0.3769  0.2438  0.0576
 3846SOL     OW12436   1.729   3.636   3.568 -0.3247 -0.0598 -0.7254
 3846SOL    HW112437   1.795   3.596   3.632 -0.7338  0.0326 -0.2407
 3846SOL    HW212438   1.732   3.587   3.481 -1.0881 -1.3799 -0.0242
 3847SOL     OW12439   0.669   1.834   5.862 -0.7963 -0.1174  0.3224
 3847SOL    HW112440   0.740   1.764   5.861 -0.2636  0.2399  3.2496
 3847SOL    HW212441   0.701   1.913   5.914 -1.9242  1.7570 -1.6461
 3848SOL     OW12442   3.240   4.762   1.693  0.4122  0.0464  0.3379
 3848SOL    HW112443   3.336   4.787   1.706  0.2491  1.1950 -0.4992
 3848SOL    HW212444   3.228   4.722   1.602  0.0306  0.2876  0.2796
 3849SOL     OW12445   0.232   1.480   5.144  0.4721 -0.2395 -0.2852
 3849SOL    HW112446   0.137   1.458   5.168  0.7238 -0.5418  0.4757
 3849SOL    HW212447   0.278   1.397   5.113  0.9153 -0.4347  0.8471
 3850SOL     OW12448   3.938   3.685   0.962  0.0962  0.4575  0.1940
 3850SOL    HW112449   3.861   3.641   0.916  0.3746  1.5580 -1.4061
 3850SOL    HW212450   4.017   3.623   0.960 -0.4021 -0.2254  0.8525
 3851SOL     OW12451   2.678   4.654   3.064 -0.4425  0.1364 -0.5436
 3851SOL    HW112452   2.708   4.673   2.971 -0.9544  1.1454 -0.5148
 3851SOL    HW212453   2.589   4.697   3.080 -0.5388 -0.3537  0.2888
 3852SOL     OW12454   5.978   0.206   4.805 -0.3012  0.3573  0.4013
 3852SOL    HW112455   5.909   0.134   4.793  0.6046 -0.4951  0.1112
 3852SOL    HW212456   6.014   0.202   4.898  2.0375 -1.7367 -0.5018
 3853SOL     OW12457   1.442   1.161   3.639  0.4548  0.1916 -0.3159
 3853SOL    HW112458   1.473   1.086   3.581  1.1959  0.8594 -0.8092
 3853SOL    HW212459   1.512   1.233   3.640  0.0942  0.5500  0.7519
 3854SOL     OW12460   0.683   3.768   4.192  0.0839  0.3636 -0.0938
 3854SOL    HW112461   0.623   3.757   4.271  1.5812  0.1181  1.0492
 3854SOL    HW212462   0.708   3.864   4.182 -3.2217  1.1538 -2.7243
 3855SOL     OW12463   4.950   6.824   4.778 -0.3598 -0.0977  0.4388
 3855SOL    HW112464   5.008   6.786   4.706  0.1901 -1.9700  1.7758
 3855SOL    HW212465   4.855   6.795   4.763 -0.3646  0.0635  0.1386
 3856SOL     OW12466   6.778   6.729   5.274  0.1391  0.2772  0.4354
 3856SOL    HW112467   6.721   6.727   5.192  0.5947 -1.6643  0.0952
 3856SOL    HW212468   6.720   6.730   5.355 -0.3943 -0.4955  0.0793
 3857SOL     OW12469   5.918   6.615   5.702 -0.3844  0.9239  0.7932
 3857SOL    HW112470   5.920   6.624   5.602 -1.7961  2.3114  0.8568
 3857SOL    HW212471   5.866   6.534   5.728  0.4812  0.2285  0.4194
 3858SOL     OW12472   1.630   0.666   6.748 -0.5414  0.1503  0.6448
 3858SOL    HW112473   1.727   0.656   6.723 -0.8186  0.3918 -0.5959
 3858SOL    HW212474   1.623   0.723   6.830  0.2583  2.7266 -0.9517
 3859SOL     OW12475   0.520   3.818   2.311  0.7783 -0.1861 -0.0918
 3859SOL    HW112476   0.613   3.854   2.309  0.5445  0.4163 -0.1559
 3859SOL    HW212477   0.510   3.747   2.241  1.7586 -1.6831  1.2019
 3860SOL     OW12478   0.682   5.769   4.729 -0.5050  0.0077 -0.2700
 3860SOL    HW112479   0.713   5.676   4.712 -1.3872 -0.5786  1.0854
 3860SOL    HW212480   0.681   5.821   4.643 -1.1957 -1.6010 -1.2740
 3861SOL     OW12481   5.292   2.255   2.336 -0.4286  0.2532 -0.5423
 3861SOL    HW112482   5.284   2.186   2.407  0.3213  1.0842  0.3758
 3861SOL    HW212483   5.203   2.296   2.318 -0.8672 -0.9074 -1.0654
 3862SOL     OW12484   6.178   0.675   5.001  0.1257  0.4725  0.2207
 3862SOL    HW112485   6.199   0.773   5.006 -1.3515  0.9465 -1.5751
 3862SOL    HW212486   6.168   0.648   4.905 -0.5134 -1.2133  0.7198
 3863SOL     OW12487   3.714   6.037   6.593  0.0141  0.1541 -0.0673
 3863SOL    HW112488   3.633   6.015   6.647 -0.2365 -0.7229 -0.7765
 3863SOL    HW212489   3.770   6.103   6.642 -0.1650 -0.6774  1.2860
 3864SOL     OW12490   3.459   1.156   5.644  0.1187 -0.3162 -0.2278
 3864SOL    HW112491   3.519   1.231   5.670  1.9383 -0.6867 -2.9306
 3864SOL    HW212492   3.510   1.069   5.646 -1.8214 -1.5379  2.4143
 3865SOL     OW12493   6.136   0.679   3.451  0.0416  0.2682  0.2169
 3865SOL    HW112494   6.107   0.721   3.365  2.1805  1.1133 -0.1559
 3865SOL    HW212495   6.078   0.711   3.526 -1.7524 -0.3634 -0.8371
 3866SOL     OW12496   5.058   0.326   0.995 -0.2059  0.0642  0.4635
 3866SOL    HW112497   5.006   0.373   0.923 -1.0984 -0.6184  0.6454
 3866SOL    HW212498   5.014   0.239   1.017  0.7220 -0.2812  1.0137
 3867SOL     OW12499   1.607   3.864   3.637  0.1787 -0.3973 -0.8366
 3867SOL    HW112500   1.686   3.804   3.643  0.4947 -0.1954 -2.3843
 3867SOL    HW212501   1.634   3.958   3.659 -0.2915 -0.7460  1.4704
 3868SOL     OW12502   2.514   6.360   6.721 -0.7431 -0.0546 -0.1766
 3868SOL    HW112503   2.605   6.372   6.761 -0.0627  0.8165 -1.8906
 3868SOL    HW212504   2.486   6.265   6.730 -0.8227  0.1510  2.6799
 3869SOL     OW12505   5.874   3.204   5.302 -0.1383 -0.6726 -0.1432
 3869SOL    HW112506   5.838   3.288   5.344 -0.4966 -0.3177 -1.1413
 3869SOL    HW212507   5.914   3.147   5.373  1.4532  1.0079  0.4053
 3870SOL     OW12508   2.777   4.025   0.556  0.1183  0.4196  0.6520
 3870SOL    HW112509   2.695   3.967   0.554  1.6637 -1.9048 -0.1195
 3870SOL    HW212510   2.780   4.075   0.642 -3.6148  3.0251 -0.4891
 3871SOL     OW12511   3.746   6.743   3.378  0.0786  0.2068  0.2364
 3871SOL    HW112512   3.721   6.811   3.309 -0.4242 -0.4595 -0.2538
 3871SOL    HW212513   3.682   6.749   3.454 -0.2729 -0.0463 -0.0347
 3872SOL     OW12514   3.433   2.990   1.945  0.0283  0.3079  0.2297
 3872SOL    HW112515   3.525   3.019   1.973 -1.4823  4.1776  1.9403
 3872SOL    HW212516   3.389   3.064   1.894 -2.7224 -0.7154  0.9503
 3873SOL     OW12517   6.308   5.614   6.745  0.1259  0.2325 -0.1505
 3873SOL    HW112518   6.354   5.528   6.767  0.5350 -0.0951 -2.0633
 3873SOL    HW212519   6.209   5.601   6.754  0.1213 -0.7740 -1.3400
 3874SOL     OW12520   4.356   0.758   1.821  0.1307  0.6358 -0.0849
 3874SOL    HW112521   4.295   0.728   1.747  0.3044 -1.1208  0.4552
 3874SOL    HW212522   4.372   0.857   1.812 -1.9104  0.9565 -0.8808
 3875SOL     OW12523   6.827   4.538   1.718  0.7088 -0.3467  0.5044
 3875SOL    HW112524   6.730   4.516   1.727  0.3701  0.1728 -1.4466
 3875SOL    HW212525   6.877   4.497   1.794 -0.9426 -1.1320  1.2301
 3876SOL     OW12526   6.220   6.078   6.984  0.1513 -0.0623 -0.3479
 3876SOL    HW112527   6.305   6.029   6.965 -0.8035 -1.5313 -1.0478
 3876SOL    HW212528   6.194   6.133   6.905  1.0384  1.3655  0.3089
 3877SOL     OW12529   1.261   1.260   0.997 -0.1672 -0.3495  0.4262
 3877SOL    HW112530   1.255   1.323   0.919 -0.4543 -0.8016  0.0812
 3877SOL    HW212531   1.179   1.269   1.053  0.1691  0.1844  0.8402
 3878SOL     OW12532   2.776   5.696   5.377  0.0655 -0.0813  0.3353
 3878SOL    HW112533   2.783   5.684   5.476  0.1563 -0.7610  0.2560
 3878SOL    HW212534   2.699   5.756   5.356  0.8972  1.2162  0.8713
 3879SOL     OW12535   5.033   6.622   1.476  0.0148 -0.0829  0.6651
 3879SOL    HW112536   5.076   6.575   1.399 -0.0921 -0.3206  0.7491
 3879SOL    HW212537   4.961   6.564   1.515 -0.1861  0.1905  0.7080
 3880SOL     OW12538   5.302   4.188   2.226 -0.0456 -0.1000 -0.1538
 3880SOL    HW112539   5.322   4.283   2.202 -0.7754 -0.4931 -2.6044
 3880SOL    HW212540   5.387   4.138   2.241  0.4833  0.3676 -1.4185
 3881SOL     OW12541   1.938   4.655   1.454  0.2039  0.4219 -0.3069
 3881SOL    HW112542   1.866   4.714   1.418  0.3156 -0.1238 -1.4694
 3881SOL    HW212543   1.948   4.671   1.552 -3.1010 -1.1207  0.4004
 3882SOL     OW12544   1.328   1.171   5.367 -0.2760 -0.3001 -0.1627
 3882SOL    HW112545   1.297   1.260   5.335 -0.1384 -0.8007 -1.7531
 3882SOL    HW212546   1.346   1.111   5.289  2.3845 -0.8221  0.7255
 3883SOL     OW12547   4.005   1.009   4.912 -0.3160 -0.3132  0.4851
 3883SOL    HW112548   4.040   0.968   4.828 -0.7086 -0.9068  0.6004
 3883SOL    HW212549   4.081   1.037   4.971  0.0104 -2.1409  1.0159
 3884SOL     OW12550   1.504   6.290   3.412  0.7069  0.2169  0.0329
 3884SOL    HW112551   1.472   6.318   3.503  2.3693 -0.1831  0.7736
 3884SOL    HW212552   1.539   6.370   3.363 -2.3183  0.8847 -1.2470
 3885SOL     OW12553   6.047   0.988   4.343  0.3191 -0.2557  0.0068
 3885SOL    HW112554   6.030   0.944   4.431 -0.1271 -1.7803 -0.8023
 3885SOL    HW212555   6.144   1.012   4.335 -0.0339  2.0522  1.8213
 3886SOL     OW12556   6.197   0.850   5.390  0.0573  0.6750 -0.1764
 3886SOL    HW112557   6.195   0.873   5.293  0.2354  0.4160 -0.2419
 3886SOL    HW212558   6.172   0.754   5.403 -0.1733  0.7622  0.0539
 3887SOL     OW12559   6.168   1.955   4.690  0.4443 -0.4844  0.0802
 3887SOL    HW112560   6.201   2.046   4.715 -0.2535  0.1243 -1.1000
 3887SOL    HW212561   6.088   1.932   4.746 -0.6012  0.5078 -0.9506
 3888SOL     OW12562   6.716   2.439   6.924  0.9687  0.3885 -0.0085
 3888SOL    HW112563   6.676   2.347   6.933 -0.9241  0.7795 -2.8594
 3888SOL    HW212564   6.655   2.506   6.966 -0.3962  0.7565 -2.3902
 3889SOL     OW12565   6.277   5.209   0.559  0.1647  0.0807 -0.5339
 3889SOL    HW112566   6.310   5.115   0.545  1.2067  0.4155 -0.4260
 3889SOL    HW212567   6.354   5.267   0.584 -0.7413  0.6256  1.1300
 3890SOL     OW12568   0.453   6.305   3.623  0.1263  0.1930  0.2442
 3890SOL    HW112569   0.505   6.288   3.539 -0.8121  0.5484 -0.4295
 3890SOL    HW212570   0.482   6.392   3.663  2.2196 -1.0442  1.5974
 3891SOL     OW12571   4.978   4.469   5.000  0.4573  0.5463  0.1932
 3891SOL    HW112572   5.058   4.490   5.056  0.5321 -1.0069  0.7206
 3891SOL    HW212573   4.981   4.373   4.973 -0.6476  0.7581 -0.7614
 3892SOL     OW12574   0.822   1.265   2.626  1.1232 -0.3198  0.4455
 3892SOL    HW112575   0.738   1.277   2.680  2.1454 -1.5266  2.4371
 3892SOL    HW212576   0.856   1.172   2.640  0.7069 -1.2310 -3.4965
 3893SOL     OW12577   3.073   4.919   2.976  0.3406 -0.0401  0.9742
 3893SOL    HW112578   3.143   4.860   3.016 -0.3032 -1.6756 -0.1937
 3893SOL    HW212579   3.015   4.865   2.915 -1.9268  1.2319  1.8587
 3894SOL     OW12580   3.510   2.071   1.149 -0.0725  0.2400 -0.3206
 3894SOL    HW112581   3.585   2.007   1.164  0.2730  0.9883  1.3466
 3894SOL    HW212582   3.427   2.021   1.126  0.3586 -0.7454  0.2394
 3895SOL     OW12583   1.703   6.808   4.466  0.1366 -0.1327 -0.3980
 3895SOL    HW112584   1.649   6.883   4.428  0.4464 -0.2249 -1.0243
 3895SOL    HW212585   1.654   6.722   4.454  0.9402 -0.3891 -2.0780
 3896SOL     OW12586   1.789   3.469   5.157 -0.5709  0.1054 -0.3431
 3896SOL    HW112587   1.761   3.562   5.135  0.0016  0.3010 -0.2579
 3896SOL    HW212588   1.816   3.421   5.073 -1.8480 -0.3326 -0.5349
 3897SOL     OW12589   2.631   5.262   3.634  0.2612  0.1648 -0.1186
 3897SOL    HW112590   2.655   5.233   3.542 -3.5866 -4.4827 -0.0506
 3897SOL    HW212591   2.661   5.194   3.700  0.6281  2.0824  1.8064
 3898SOL     OW12592   3.115   3.104   3.197 -0.2454 -0.9662  0.2392
 3898SOL    HW112593   3.147   3.114   3.102 -1.0653  1.2248  0.1352
 3898SOL    HW212594   3.133   3.188   3.247 -0.7200 -1.7416  1.7753
 3899SOL     OW12595   4.124   0.139   3.962 -0.3588  0.2319  0.4921
 3899SOL    HW112596   4.056   0.120   4.034 -0.6656 -0.6652 -0.0246
 3899SOL    HW212597   4.206   0.177   4.004 -0.1540 -1.2098  1.4510
 3900SOL     OW12598   6.052   2.368   3.330  0.0775 -0.2455 -0.0589
 3900SOL    HW112599   6.069   2.440   3.398 -1.8536  1.3901 -1.2147
 3900SOL    HW212600   6.085   2.280   3.366  1.3828  0.9669  1.9152
 3901SOL     OW12601   1.299   5.525   6.548  0.1285 -0.0616 -0.0511
 3901SOL    HW112602   1.325   5.618   6.576  0.9395  0.0622 -1.1225
 3901SOL    HW212603   1.295   5.520   6.448  0.0196 -1.1648 -0.0074
 3902SOL     OW12604   5.177   5.431   2.277  0.3899 -0.2492 -0.3357
 3902SOL    HW112605   5.174   5.360   2.347 -0.5877  0.3900  0.2920
 3902SOL    HW212606   5.260   5.486   2.289  0.1009  0.0132  0.4712
 3903SOL     OW12607   3.223   2.637   6.419 -0.0922 -0.0962  0.4105
 3903SOL    HW112608   3.183   2.726   6.397 -0.6193 -0.5472 -0.5015
 3903SOL    HW212609   3.261   2.596   6.336 -1.8600 -1.7133  0.3354
 3904SOL     OW12610   0.631   6.048   0.220  0.1718 -0.7280 -0.1219
 3904SOL    HW112611   0.618   5.965   0.274  0.8834  1.2749  3.3948
 3904SOL    HW212612   0.725   6.052   0.187  0.5711 -0.6018  1.0151
 3905SOL     OW12613   5.969   6.592   6.825  0.5752  0.1461  0.1976
 3905SOL    HW112614   6.035   6.531   6.870 -0.0238 -0.9147 -0.3178
 3905SOL    HW212615   6.016   6.650   6.759  1.1579  0.2319  0.6835
 3906SOL     OW12616   1.499   4.646   3.380  0.1404  0.6973  0.2384
 3906SOL    HW112617   1.553   4.731   3.383 -0.7783  1.2900  0.7673
 3906SOL    HW212618   1.402   4.669   3.390 -0.1357 -0.4126  0.1666
 3907SOL     OW12619   0.754   0.253   5.313  0.3708 -0.3346 -0.7472
 3907SOL    HW112620   0.706   0.165   5.304  0.8514 -0.4289 -3.0089
 3907SOL    HW212621   0.687   0.326   5.325 -0.0023 -1.0312  2.0504
 3908SOL     OW12622   1.722   1.300   6.413  0.4919 -0.6629  0.3090
 3908SOL    HW112623   1.688   1.391   6.391  0.7115 -0.8993 -1.0949
 3908SOL    HW212624   1.763   1.301   6.504  0.3120  0.5889  0.3946
 3909SOL     OW12625   5.248   4.777   4.823 -0.4708 -0.0458 -0.6800
 3909SOL    HW112626   5.333   4.765   4.873 -1.3202 -0.0040  0.8439
 3909SOL    HW212627   5.187   4.837   4.875 -1.5317 -0.2703 -1.6155
 3910SOL     OW12628   3.191   4.151   0.885 -0.4987 -0.6197 -0.5645
 3910SOL    HW112629   3.100   4.193   0.889  0.2059  0.9164  0.4904
 3910SOL    HW212630   3.237   4.179   0.801 -0.4177 -0.0791 -0.3463
 3911SOL     OW12631   6.607   0.794   3.525  0.3584  0.2791 -0.1112
 3911SOL    HW112632   6.642   0.745   3.445 -1.3408 -0.9950 -0.1412
 3911SOL    HW212633   6.680   0.806   3.591  1.1166 -1.2798 -0.6185
 3912SOL     OW12634   4.111   1.106   6.406  0.1152  0.0453 -0.1593
 3912SOL    HW112635   4.136   1.174   6.475  0.4074 -0.5038  0.2867
 3912SOL    HW212636   4.182   1.102   6.336 -0.2010  0.6323 -0.5267
 3913SOL     OW12637   2.974   6.236   0.924  0.2498  0.1101 -0.2993
 3913SOL    HW112638   2.912   6.180   0.979  0.3667 -0.1215 -0.4021
 3913SOL    HW212639   2.952   6.225   0.827 -1.9003  2.7563 -0.2362
 3914SOL     OW12640   5.388   2.091   1.829  0.2092  0.2572  0.2952
 3914SOL    HW112641   5.425   2.001   1.852  0.0049  0.5639  1.9196
 3914SOL    HW212642   5.371   2.143   1.913 -1.4790  1.1030 -0.5168
 3915SOL     OW12643   2.636   6.370   0.473 -0.0396  0.1536 -0.0125
 3915SOL    HW112644   2.536   6.381   0.472 -0.3368 -1.8287 -1.7669
 3915SOL    HW212645   2.678   6.442   0.418 -0.9959 -1.4077 -3.0477
 3916SOL     OW12646   3.889   0.611   3.940 -0.1748 -0.2765 -1.1347
 3916SOL    HW112647   3.970   0.584   3.886 -0.0277 -2.9163  0.2289
 3916SOL    HW212648   3.918   0.665   4.018  0.1514 -0.3233 -1.2181
 3917SOL     OW12649   3.678   4.622   5.882 -1.0008  0.7985  0.1638
 3917SOL    HW112650   3.609   4.584   5.820 -0.1195 -0.5148 -0.0600
 3917SOL    HW212651   3.743   4.550   5.907  0.7080  2.1687 -0.1974
 3918SOL     OW12652   4.813   6.622   0.590 -0.6791  0.1874 -0.1400
 3918SOL    HW112653   4.889   6.656   0.646 -1.4822  0.3070  0.9024
 3918SOL    HW212654   4.727   6.652   0.629 -1.3736 -1.8185  0.0022
 3919SOL     OW12655   4.753   6.745   1.805 -0.0432 -0.7026  0.4168
 3919SOL    HW112656   4.755   6.803   1.723  0.8205 -0.9985  0.2176
 3919SOL    HW212657   4.788   6.796   1.883 -1.7490 -0.1085  0.8301
 3920SOL     OW12658   1.744   0.692   2.424  0.3408 -0.0116  0.5015
 3920SOL    HW112659   1.835   0.654   2.405  0.1269  0.4122 -1.6422
 3920SOL    HW212660   1.745   0.737   2.513  1.6877 -1.6287  1.3544
 3921SOL     OW12661   6.239   1.522   5.323 -0.4720  0.2338  0.3058
 3921SOL    HW112662   6.219   1.434   5.280  0.6639  0.2017 -0.1857
 3921SOL    HW212663   6.265   1.508   5.418  0.0352 -0.0042  0.1358
 3922SOL     OW12664   6.100   3.780   2.918 -0.1712 -0.3723 -0.3796
 3922SOL    HW112665   6.198   3.795   2.905 -0.1384 -0.5839 -0.3815
 3922SOL    HW212666   6.084   3.684   2.940 -0.2066  0.0117  1.3554
 3923SOL     OW12667   6.923   6.376   0.304 -0.4044 -0.2048  0.4383
 3923SOL    HW112668   6.975   6.374   0.218 -0.5725  1.7806  0.2314
 3923SOL    HW212669   6.982   6.349   0.380 -0.2633 -2.0241 -0.2876
 3924SOL     OW12670   6.332   4.218   4.496 -0.2878 -0.1596  0.0813
 3924SOL    HW112671   6.372   4.128   4.482  2.8388  1.2342 -0.6484
 3924SOL    HW212672   6.332   4.239   4.594  1.3096  0.0119  0.0613
 3925SOL     OW12673   4.758   4.665   6.219 -0.0849 -0.0269  0.2240
 3925SOL    HW112674   4.690   4.615   6.165 -0.1581  0.0426  0.2509
 3925SOL    HW212675   4.733   4.762   6.221  0.1673  0.0428  0.0028
 3926SOL     OW12676   0.634   0.839   4.841  0.4472 -0.2571 -0.3789
 3926SOL    HW112677   0.647   0.801   4.932 -0.3617 -0.4101 -0.3198
 3926SOL    HW212678   0.627   0.939   4.848  1.6467 -0.1597 -0.4280
 3927SOL     OW12679   6.732   2.665   2.799 -0.1048 -0.0118 -0.2386
 3927SOL    HW112680   6.781   2.611   2.731  0.4726  0.9136 -0.5809
 3927SOL    HW212681   6.647   2.618   2.824  0.5612 -1.2558 -0.2218
 3928SOL     OW12682   1.720   0.396   2.721  0.3007  0.5718  0.1852
 3928SOL    HW112683   1.795   0.456   2.750  0.6346 -0.4750  1.6241
 3928SOL    HW212684   1.727   0.378   2.623  0.7172  2.1191 -0.1027
 3929SOL     OW12685   6.910   4.032   1.483 -0.0585  0.6027 -0.2474
 3929SOL    HW112686   6.829   3.981   1.452  0.9130  0.1802 -2.2950
 3929SOL    HW212687   6.916   4.118   1.432  0.1771  1.1662  0.7169
 3930SOL     OW12688   0.001   1.331   3.945 -0.0635  0.5886  0.3718
 3930SOL    HW112689  -0.093   1.297   3.940  0.0303  0.3337  0.3203
 3930SOL    HW212690   0.042   1.330   3.853  0.3112 -0.2258  0.5391
 3931SOL     OW12691   0.944   0.471   2.172  0.1482  0.8663  0.2882
 3931SOL    HW112692   0.875   0.487   2.243  0.8390  1.2724  0.8883
 3931SOL    HW212693   0.935   0.378   2.137  2.6224 -1.1314  4.1738
 3932SOL     OW12694   2.890   6.384   3.733  0.1657 -0.1658  0.2239
 3932SOL    HW112695   2.972   6.330   3.753  1.1122  0.4548 -1.8086
 3932SOL    HW212696   2.913   6.459   3.671 -1.8053  0.5106  0.2425
 3933SOL     OW12697   2.499   5.674   1.828 -0.1009 -0.1179 -0.3591
 3933SOL    HW112698   2.539   5.625   1.751 -1.0058 -1.3273 -0.0951
 3933SOL    HW212699   2.564   5.676   1.904  0.5410  0.4945 -0.9238
 3934SOL     OW12700   0.423   2.114   3.466  0.5423  0.3062  0.1883
 3934SOL    HW112701   0.491   2.049   3.500  1.1506 -0.0060 -1.5302
 3934SOL    HW212702   0.470   2.196   3.432 -0.0650  0.7712  0.4662
 3935SOL     OW12703   4.472   4.320   6.575 -0.2596 -0.1241  0.3774
 3935SOL    HW112704   4.506   4.339   6.483  1.1452  1.4766  1.1718
 3935SOL    HW212705   4.431   4.403   6.613 -0.9682 -0.8095  1.1409
 3936SOL     OW12706   6.751   4.621   5.147 -0.3718  0.0110  0.0602
 3936SOL    HW112707   6.700   4.707   5.146 -1.3386 -0.5146 -2.1903
 3936SOL    HW212708   6.775   4.598   5.241 -1.0200  2.1826  0.8213
 3937SOL     OW12709   1.365   0.352   4.121  0.2111 -0.1425  0.5062
 3937SOL    HW112710   1.323   0.307   4.042 -2.1714 -0.5679  1.9079
 3937SOL    HW212711   1.303   0.347   4.199  2.2171  0.7979  2.2732
 3938SOL     OW12712   0.506   4.304   5.895 -0.2898  0.2464 -0.1178
 3938SOL    HW112713   0.489   4.242   5.971  0.9183 -0.0510 -0.0631
 3938SOL    HW212714   0.435   4.375   5.892  0.0933  0.7425  1.7685
 3939SOL     OW12715   0.805   2.414   2.908 -0.3206 -0.2113 -0.0241
 3939SOL    HW112716   0.743   2.404   2.986  0.4601 -0.5286  0.5816
 3939SOL    HW212717   0.874   2.341   2.912 -1.0594 -1.0722 -1.7758
 3940SOL     OW12718   3.087   4.758   1.906  0.3596  0.1929  0.4081
 3940SOL    HW112719   3.155   4.750   1.833 -0.7070  1.9641 -0.8551
 3940SOL    HW212720   3.026   4.679   1.905  1.6349 -0.8327  0.8011
 3941SOL     OW12721   5.041   6.889   5.866 -0.4580  0.2005 -0.6737
 3941SOL    HW112722   4.944   6.915   5.858  0.1159  2.1713 -1.7323
 3941SOL    HW212723   5.064   6.822   5.796 -1.2252 -0.8949  0.0938
 3942SOL     OW12724   1.735   6.683   0.195 -0.6956  0.4873  0.1002
 3942SOL    HW112725   1.691   6.619   0.258  1.9130 -1.5152  0.0617
 3942SOL    HW212726   1.677   6.694   0.114 -1.3198 -1.7300  0.1804
 3943SOL     OW12727   6.529   3.865   0.594 -0.0992  0.0212  0.0234
 3943SOL    HW112728   6.461   3.793   0.607 -1.3885  1.1592 -0.2245
 3943SOL    HW212729   6.558   3.900   0.683 -2.3237  1.7602  0.1364
 3944SOL     OW12730   4.834   2.315   6.768 -0.1199 -0.1653 -0.6335
 3944SOL    HW112731   4.794   2.236   6.721 -1.0500  0.3473 -0.7292
 3944SOL    HW212732   4.866   2.288   6.859  0.0136 -0.7554 -0.8519
 3945SOL     OW12733   1.815   2.513   3.893  0.3774  0.3678 -0.8125
 3945SOL    HW112734   1.841   2.589   3.953 -0.4287 -0.8838  1.2282
 3945SOL    HW212735   1.847   2.427   3.933 -1.3997 -0.6432 -1.4710
 3946SOL     OW12736   6.500   3.890   0.861 -0.0825 -0.2090 -0.2498
 3946SOL    HW112737   6.428   3.929   0.803  0.2902 -0.7118 -1.0629
 3946SOL    HW212738   6.459   3.829   0.928 -0.4866  0.1069 -0.2048
 3947SOL     OW12739   0.011   6.813   1.320 -0.4276  0.7090 -0.2416
 3947SOL    HW112740   0.057   6.900   1.333  0.6654 -0.1859  3.1807
 3947SOL    HW212741   0.075   6.746   1.281  0.1211  0.4055  1.1171
 3948SOL     OW12742   0.233   1.003   0.648 -0.0316  0.4311  0.5670
 3948SOL    HW112743   0.213   1.094   0.683  1.2556  0.7473  0.5529
 3948SOL    HW212744   0.260   1.009   0.552 -2.4829 -0.3029 -0.2183
 3949SOL     OW12745   5.423   6.086   2.220 -0.3467  0.0032 -0.4359
 3949SOL    HW112746   5.367   6.021   2.168 -1.3143 -0.2714  0.8903
 3949SOL    HW212747   5.391   6.179   2.202 -0.7282 -0.0957 -0.2942
 3950SOL     OW12748   4.351   3.852   1.704  0.2268 -0.1183 -0.1768
 3950SOL    HW112749   4.318   3.815   1.617 -0.2014 -0.4172  0.1050
 3950SOL    HW212750   4.451   3.853   1.704  0.2712 -1.6493 -0.0560
 3951SOL     OW12751   0.301   3.446   4.035  0.4125  0.2981  0.0791
 3951SOL    HW112752   0.385   3.419   3.987  1.6902  2.0881  1.1732
 3951SOL    HW212753   0.256   3.519   3.983 -0.9451 -1.1478 -0.8893
 3952SOL     OW12754   6.015   2.038   3.744 -0.2379  0.0589  0.3100
 3952SOL    HW112755   6.108   2.074   3.734 -0.8277  1.6119  0.2498
 3952SOL    HW212756   5.983   2.004   3.656  0.4601 -1.0227  0.4468
 3953SOL     OW12757   1.869   2.617   5.740  0.1390  0.3010 -0.6295
 3953SOL    HW112758   1.958   2.625   5.695 -0.5733  2.2140 -1.8292
 3953SOL    HW212759   1.809   2.691   5.709 -2.0728 -1.2394 -0.2742
 3954SOL     OW12760   5.325   2.878   6.366 -0.1402 -0.0116 -0.0445
 3954SOL    HW112761   5.316   2.802   6.431  0.2533 -0.7093 -0.7819
 3954SOL    HW212762   5.399   2.857   6.302 -0.9045  0.3923 -1.0841
 3955SOL     OW12763   5.122   0.556   1.425  0.0283 -0.0794 -0.3135
 3955SOL    HW112764   5.077   0.629   1.476  1.6368 -0.2211  1.4507
 3955SOL    HW212765   5.058   0.515   1.361 -2.0501  0.3023  1.3993
 3956SOL     OW12766   0.285   1.368   5.508  0.3027  0.4918  0.4017
 3956SOL    HW112767   0.320   1.276   5.491  0.8374  0.6666  0.5625
 3956SOL    HW212768   0.185   1.365   5.517  0.3338 -0.0845  0.5245
 3957SOL     OW12769   3.122   6.783   3.399  0.1823  0.4993 -0.6186
 3957SOL    HW112770   3.102   6.821   3.490 -0.5010  0.7043 -0.8486
 3957SOL    HW212771   3.163   6.854   3.342  1.9595 -0.0224 -0.0315
 3958SOL     OW12772   1.610   6.592   1.850 -0.4358  0.2066  0.4775
 3958SOL    HW112773   1.680   6.520   1.843 -0.3517  0.1540  1.6797
 3958SOL    HW212774   1.558   6.580   1.935 -0.3605  1.6323  0.7466
 3959SOL     OW12775   1.854   5.618   1.747 -0.6856  0.2860  0.2067
 3959SOL    HW112776   1.839   5.593   1.843 -2.7992 -0.3271 -0.2176
 3959SOL    HW212777   1.942   5.582   1.717  0.1565  0.7545  1.9856
 3960SOL     OW12778   5.326   1.154   0.614  0.0493 -0.1819  0.1857
 3960SOL    HW112779   5.369   1.087   0.554  0.5059  0.4790 -0.2467
 3960SOL    HW212780   5.317   1.117   0.706 -1.8408 -1.7102 -0.5614
 3961SOL     OW12781   3.838   1.034   1.626  0.2472 -0.4402  0.1681
 3961SOL    HW112782   3.815   0.982   1.709 -0.5440  0.6186  0.6394
 3961SOL    HW212783   3.936   1.055   1.627  0.6812 -2.3060 -0.2786
 3962SOL     OW12784   2.342   5.312   0.801 -0.0027 -0.6564  0.2394
 3962SOL    HW112785   2.330   5.305   0.900  1.0074 -1.7700  0.3137
 3962SOL    HW212786   2.253   5.309   0.755 -0.4235 -1.0197  1.0716
 3963SOL     OW12787   5.026   5.393   3.203  0.3632  0.0937  0.4362
 3963SOL    HW112788   5.122   5.406   3.227  0.4104  0.7671 -0.0768
 3963SOL    HW212789   4.972   5.381   3.286  0.7381  0.8383  0.8009
 3964SOL     OW12790   5.338   6.817   4.432 -0.4652  0.0840 -0.5122
 3964SOL    HW112791   5.398   6.798   4.354 -0.8378  0.7963 -0.9889
 3964SOL    HW212792   5.322   6.916   4.438 -0.4679  0.0290  0.4512
 3965SOL     OW12793   3.641   5.881   5.934 -0.1369 -0.2310 -0.2605
 3965SOL    HW112794   3.576   5.815   5.896 -0.5707 -0.4549  0.8250
 3965SOL    HW212795   3.706   5.833   5.994 -1.3444  0.4526  1.7032
 3966SOL     OW12796   6.137   5.264   5.084  0.2738 -0.0104  0.4682
 3966SOL    HW112797   6.177   5.311   5.006 -1.5855 -0.5021 -0.8257
 3966SOL    HW212798   6.206   5.203   5.124  1.0532 -0.2696 -1.1945
 3967SOL     OW12799   1.018   6.306   6.648  0.1848 -0.1544  0.1418
 3967SOL    HW112800   0.929   6.262   6.660  0.5848 -1.2828 -0.8202
 3967SOL    HW212801   1.033   6.326   6.551 -0.2764  2.8437  0.5779
 3968SOL     OW12802   5.037   5.759   2.916 -0.2339  0.2488 -0.7974
 3968SOL    HW112803   4.951   5.782   2.961 -0.8867 -1.6200 -0.9890
 3968SOL    HW212804   5.102   5.834   2.927 -0.9369  0.5816  1.7436
 3969SOL     OW12805   1.263   4.528   2.630 -0.0818  0.3536  0.0905
 3969SOL    HW112806   1.333   4.600   2.635  1.9294 -1.4606 -0.1038
 3969SOL    HW212807   1.213   4.536   2.544  1.1153  0.6891 -0.6025
 3970SOL     OW12808   0.497   4.459   4.266  0.4793 -0.0717  0.0740
 3970SOL    HW112809   0.580   4.414   4.233 -0.9983 -2.7447 -0.2817
 3970SOL    HW212810   0.501   4.557   4.244  2.0091 -0.7196 -3.0349
 3971SOL     OW12811   0.190   6.735   3.083 -0.7093 -0.2768 -0.4140
 3971SOL    HW112812   0.197   6.665   3.155  1.7395 -0.0941 -0.3840
 3971SOL    HW212813   0.141   6.697   3.004  0.1010 -1.8592 -0.1934
 3972SOL     OW12814   1.029   1.309   1.129  0.5848 -0.1233 -0.1581
 3972SOL    HW112815   0.955   1.280   1.068  1.3932 -2.0431 -0.3057
 3972SOL    HW212816   1.003   1.289   1.224 -0.2365  1.8829  0.0748
 3973SOL     OW12817   3.801   4.110   4.648 -0.2987  0.1930  0.1503
 3973SOL    HW112818   3.797   4.127   4.549  0.5337  0.1282  0.1023
 3973SOL    HW212819   3.732   4.167   4.693  0.7697  1.9192 -0.2652
 3974SOL     OW12820   1.031   1.564   6.885 -0.8619  0.6452  0.2819
 3974SOL    HW112821   1.022   1.645   6.943  1.4180  0.7587  0.5736
 3974SOL    HW212822   1.077   1.588   6.800 -1.2568 -0.1152 -0.1534
 3975SOL     OW12823   0.823   1.407   6.598 -0.4967  0.1363  0.1301
 3975SOL    HW112824   0.801   1.437   6.691 -0.1159  0.0120  0.2646
 3975SOL    HW212825   0.847   1.486   6.542  1.0255  0.0557  0.6280
 3976SOL     OW12826   6.288   5.404   1.947 -0.0477 -0.2573 -0.1486
 3976SOL    HW112827   6.307   5.415   1.850  1.7694 -1.5683  0.0225
 3976SOL    HW212828   6.244   5.316   1.963 -1.8978  0.6535  0.0703
 3977SOL     OW12829   2.127   4.924   5.165  0.1181 -0.3079  0.2127
 3977SOL    HW112830   2.067   4.854   5.202 -0.0670 -0.0526  0.4039
 3977SOL    HW212831   2.198   4.946   5.231  2.3671 -2.8292 -1.1703
 3978SOL     OW12832   5.891   1.862   4.683  0.1746 -0.2883  0.0175
 3978SOL    HW112833   5.829   1.933   4.717  0.8142  0.1447  0.3014
 3978SOL    HW212834   5.840   1.799   4.624 -0.0238  1.4759 -1.7964
 3979SOL     OW12835   1.823   0.856   0.281  0.1211 -0.0483  0.1799
 3979SOL    HW112836   1.783   0.861   0.373 -1.2088  1.1350 -0.4252
 3979SOL    HW212837   1.847   0.948   0.250  0.4234 -0.4180 -0.7175
 3980SOL     OW12838   5.127   5.467   4.420 -0.0572  0.5972  0.0122
 3980SOL    HW112839   5.043   5.421   4.449  1.8651 -3.8082 -0.5808
 3980SOL    HW212840   5.146   5.445   4.325  3.3073 -1.4171  0.9886
 3981SOL     OW12841   0.061   4.440   5.703 -0.0457 -0.1466  0.0565
 3981SOL    HW112842   0.127   4.509   5.674 -1.4972  1.7667  1.0943
 3981SOL    HW212843   0.050   4.372   5.630  1.5328  0.6193 -0.9478
 3982SOL     OW12844   1.644   1.174   5.310  0.1368  0.0393 -0.6756
 3982SOL    HW112845   1.548   1.161   5.336  0.1115  0.2045 -0.6868
 3982SOL    HW212846   1.681   1.256   5.355  0.4638 -0.3853 -0.1565
 3983SOL     OW12847   3.843   2.032   3.375 -0.3088  0.3170 -0.1800
 3983SOL    HW112848   3.848   1.942   3.334  0.0671 -0.1277  0.8043
 3983SOL    HW212849   3.760   2.040   3.430  0.0859  0.2453  0.4440
 3984SOL     OW12850   1.576   6.709   1.323  0.0037  0.2657  0.0184
 3984SOL    HW112851   1.583   6.702   1.422  0.7483 -0.3113 -0.0664
 3984SOL    HW212852   1.529   6.629   1.287 -0.7766  0.7460 -0.0525
 3985SOL     OW12853   6.661   3.642   0.332  0.2139 -0.0371  0.1232
 3985SOL    HW112854   6.728   3.715   0.332 -0.8624  0.9929  1.1136
 3985SOL    HW212855   6.685   3.574   0.262  1.2820  1.1918 -0.7398
 3986SOL     OW12856   1.103   1.526   1.656  0.2651 -0.2178  0.0974
 3986SOL    HW112857   1.198   1.497   1.665  0.5206 -0.4208 -2.5737
 3986SOL    HW212858   1.099   1.626   1.650  0.2710 -0.1972  0.4048
 3987SOL     OW12859   0.828   0.628   6.031  0.4305  0.2647 -0.5782
 3987SOL    HW112860   0.768   0.685   6.088  0.8105  1.1244 -1.0184
 3987SOL    HW212861   0.902   0.590   6.087  1.3803  1.9128 -0.6526
 3988SOL     OW12862   4.592   1.708   0.021 -0.4447 -0.2154  0.5339
 3988SOL    HW112863   4.593   1.642  -0.053 -0.6153  0.5603 -0.1716
 3988SOL    HW212864   4.676   1.700   0.075  0.5799  0.5055 -0.9081
 3989SOL     OW12865   5.663   6.621   6.721 -0.3896 -0.2038  0.1065
 3989SOL    HW112866   5.757   6.622   6.755 -0.2476 -0.8860 -0.2438
 3989SOL    HW212867   5.601   6.598   6.796 -0.0501 -1.9976 -0.1093
 3990SOL     OW12868   6.052   1.337   4.477 -0.0217  0.5447 -0.6964
 3990SOL    HW112869   6.129   1.386   4.519  0.7973 -0.4822 -0.9429
 3990SOL    HW212870   6.066   1.332   4.378  0.1560 -0.5760 -0.6264
 3991SOL     OW12871   0.663   2.012   4.056  0.3588 -0.2577  0.3557
 3991SOL    HW112872   0.571   2.050   4.058  0.7750  0.7961  0.4990
 3991SOL    HW212873   0.718   2.052   4.130  0.7760 -1.2888  0.6193
 3992SOL     OW12874   4.257   1.272   0.500  0.1428  0.1184 -0.3712
 3992SOL    HW112875   4.292   1.207   0.434  1.1266  0.8427 -0.5879
 3992SOL    HW212876   4.269   1.236   0.593  1.3397  0.2855 -0.4513
 3993SOL     OW12877   2.624   2.209   2.445 -0.2222 -0.2416  0.3649
 3993SOL    HW112878   2.605   2.115   2.416  0.8815 -0.1649 -0.6574
 3993SOL    HW212879   2.540   2.263   2.440 -1.7901 -1.9098  4.2571
 3994SOL     OW12880   0.124   2.209   5.221  0.0873 -0.4397  0.0365
 3994SOL    HW112881   0.060   2.176   5.151 -0.5468 -1.4096  1.0261
 3994SOL    HW212882   0.193   2.139   5.239 -0.1057 -0.4486  0.7880
 3995SOL     OW12883   1.853   3.852   3.797 -0.2691 -0.5863  0.1557
 3995SOL    HW112884   1.818   3.785   3.863  0.1831 -0.8528  0.1277
 3995SOL    HW212885   1.953   3.850   3.796 -0.2578 -0.1524 -0.0965
 3996SOL     OW12886   6.773   1.830   4.063 -0.4387  0.5665  0.5157
 3996SOL    HW112887   6.738   1.896   3.997 -0.0136  0.1063 -0.1734
 3996SOL    HW212888   6.760   1.737   4.029 -0.0032  0.3327  0.9647
 3997SOL     OW12889   4.698   4.722   2.679 -0.2890  0.5960 -0.0341
 3997SOL    HW112890   4.750   4.647   2.638 -0.5031  0.7063 -0.5194
 3997SOL    HW212891   4.602   4.715   2.652 -0.1889  1.4308 -0.6647
 3998SOL     OW12892   5.464   3.070   2.616 -0.3968 -0.2605  0.8043
 3998SOL    HW112893   5.491   2.974   2.615 -1.7355 -0.7365  2.6972
 3998SOL    HW212894   5.368   3.077   2.645 -0.4076  1.6280  0.4438
 3999SOL     OW12895   4.964   3.141   4.342  0.4568  0.2814 -0.7280
 3999SOL    HW112896   5.028   3.184   4.405 -0.5819  0.4511  0.2538
 3999SOL    HW212897   4.996   3.049   4.320  0.7296  0.1299  0.2426
 4000SOL     OW12898   2.911   4.793   2.791  0.7514  0.0872 -0.3732
 4000SOL    HW112899   2.837   4.728   2.777  1.1964 -0.0634 -2.2262
 4000SOL    HW212900   2.937   4.834   2.704  1.9299  1.1697  0.4442
 4001SOL     OW12901   2.997   3.020   6.051  0.4511  0.4231 -0.0707
 4001SOL    HW112902   3.064   3.036   5.979  0.0776  1.3235 -0.2343
 4001SOL    HW212903   2.939   2.942   6.027  0.7725  0.2851 -0.4102
 4002SOL     OW12904   3.653   4.115   3.690  0.3767 -0.3263  0.1632
 4002SOL    HW112905   3.719   4.098   3.763  0.4180  0.2284  0.2587
 4002SOL    HW212906   3.566   4.144   3.730  0.3624 -0.1393 -0.0042
 4003SOL     OW12907   2.756   1.351   0.765  0.5975  0.0159  0.5599
 4003SOL    HW112908   2.717   1.365   0.674 -1.3452 -2.1698  0.9582
 4003SOL    HW212909   2.810   1.431   0.790  0.9079  0.8444 -2.3307
 4004SOL     OW12910   5.920   4.193   4.638 -0.1433  0.1426 -0.0094
 4004SOL    HW112911   5.921   4.250   4.557 -3.8595  0.9600  0.3289
 4004SOL    HW212912   5.984   4.117   4.626  1.4068  1.7008 -2.4841
 4005SOL     OW12913   3.549   3.969   6.593 -0.1596  0.1428  0.5643
 4005SOL    HW112914   3.498   4.019   6.523  1.1530  1.1107  0.2659
 4005SOL    HW212915   3.491   3.897   6.632 -1.1205  0.0058 -1.0570
 4006SOL     OW12916   5.312   3.633   3.287  0.4919  0.1072  0.7071
 4006SOL    HW112917   5.341   3.572   3.360 -0.3783  0.5284  1.4324
 4006SOL    HW212918   5.390   3.655   3.228  0.9167 -1.3116  0.6974
 4007SOL     OW12919   0.161   1.904   2.945  0.2607  0.1570 -0.2924
 4007SOL    HW112920   0.109   1.979   2.905 -1.4040  0.3251  1.9553
 4007SOL    HW212921   0.252   1.936   2.971  0.0510  1.0223 -0.5984
 4008SOL     OW12922   2.999   0.504   1.141 -0.5634 -0.6777  0.3585
 4008SOL    HW112923   2.994   0.441   1.063 -1.0157 -1.3485  0.9211
 4008SOL    HW212924   2.912   0.551   1.151 -0.1998  0.1138 -0.1101
 4009SOL     OW12925   5.387   1.979   2.201  0.3284  0.5979  0.2518
 4009SOL    HW112926   5.404   1.966   2.103 -1.0264  0.3681  0.0191
 4009SOL    HW212927   5.420   1.899   2.251 -3.1459 -1.6156 -0.5839
 4010SOL     OW12928   2.512   4.174   1.408 -0.6011  0.0142  0.1010
 4010SOL    HW112929   2.585   4.149   1.346 -0.9098 -1.8167  0.4202
 4010SOL    HW212930   2.505   4.106   1.481 -4.2471 -1.4021 -1.3305
 4011SOL     OW12931   4.622   4.489   1.344 -0.3788  0.6640 -0.4387
 4011SOL    HW112932   4.630   4.523   1.437  1.4557 -0.3913 -0.1449
 4011SOL    HW212933   4.526   4.470   1.323 -0.7254 -0.1958  1.6681
 4012SOL     OW12934   6.359   5.695   2.600 -0.0851  0.8305 -0.1559
 4012SOL    HW112935   6.332   5.748   2.520 -1.7747 -1.5185 -1.2630
 4012SOL    HW212936   6.439   5.639   2.578 -0.6158  0.1005 -0.2627
 4013SOL     OW12937   1.384   1.476   1.712 -0.2002  0.1213  0.7440
 4013SOL    HW112938   1.391   1.526   1.799  0.8752  1.0510  0.1575
 4013SOL    HW212939   1.442   1.395   1.716  1.0417  0.9526  0.4133
 4014SOL     OW12940   3.614   6.035   2.394 -0.0689  0.2461  0.2649
 4014SOL    HW112941   3.550   5.981   2.339  0.2682  0.2729 -0.1632
 4014SOL    HW212942   3.576   6.050   2.485  0.0809 -1.2224  0.5967
 4015SOL     OW12943   2.118   4.540   1.039 -0.5056  0.0320 -0.0740
 4015SOL    HW112944   2.054   4.617   1.030 -0.4445  0.1870  0.7117
 4015SOL    HW212945   2.097   4.489   1.123  0.3235  0.0227  0.1376
 4016SOL     OW12946   2.186   5.488   6.507 -0.0554 -0.8627 -0.7583
 4016SOL    HW112947   2.095   5.447   6.513 -0.2386 -0.3898 -0.1670
 4016SOL    HW212948   2.187   5.574   6.558  0.2085  0.0845 -2.3118
 4017SOL     OW12949   4.087   4.928   4.654  0.3158 -0.0537  0.7353
 4017SOL    HW112950   4.164   4.971   4.700  0.4729  1.7470 -1.0795
 4017SOL    HW212951   4.018   4.900   4.722  1.4629  0.5058  2.1780
 4018SOL     OW12952   3.297   6.297   0.693 -0.2712 -0.1072 -0.4362
 4018SOL    HW112953   3.290   6.393   0.665 -0.0669 -0.0654 -0.3490
 4018SOL    HW212954   3.353   6.247   0.627 -0.7672 -0.2715 -0.7331
 4019SOL     OW12955   6.104   3.392   2.762  0.2687  0.7185  0.4920
 4019SOL    HW112956   6.182   3.441   2.722 -0.6997  3.5118  1.7356
 4019SOL    HW212957   6.054   3.345   2.690  0.9739  2.0685 -0.9385
 4020SOL     OW12958   1.159   2.724   4.913 -0.0630 -0.0844 -0.0105
 4020SOL    HW112959   1.221   2.648   4.894  0.8971  0.8986 -0.9009
 4020SOL    HW212960   1.066   2.700   4.884  0.7060  0.0498 -2.8715
 4021SOL     OW12961   4.160   2.358   5.586 -0.1594 -0.4362 -0.3998
 4021SOL    HW112962   4.161   2.458   5.588  1.2231 -0.4391  1.3903
 4021SOL    HW212963   4.068   2.326   5.608 -0.1358  0.4679  1.1470
 4022SOL     OW12964   4.511   6.512   0.421 -0.6699  0.5820  0.4093
 4022SOL    HW112965   4.597   6.538   0.378  0.1080  1.3323  2.3256
 4022SOL    HW212966   4.466   6.594   0.457 -1.7416  0.0832  0.2416
 4023SOL     OW12967   6.763   0.041   5.938 -0.0133 -0.4042  0.2276
 4023SOL    HW112968   6.825   0.090   5.878 -0.8034 -0.4995 -0.6778
 4023SOL    HW212969   6.734  -0.045   5.895 -1.3699 -0.0030  0.3014
 4024SOL     OW12970   0.956   3.774   3.752 -0.7373  0.0821 -0.1549
 4024SOL    HW112971   0.986   3.782   3.847 -0.7385 -2.3600  0.1053
 4024SOL    HW212972   0.857   3.788   3.747 -0.4640  2.5115 -0.2010
 4025SOL     OW12973   0.191   6.669   5.472 -0.8793  0.1096 -0.3482
 4025SOL    HW112974   0.168   6.754   5.518 -0.3690  0.7927 -1.3281
 4025SOL    HW212975   0.121   6.647   5.404 -1.4504 -0.7123  0.4812
 4026SOL     OW12976   0.767   6.158   4.825 -0.1990 -0.3793 -0.2284
 4026SOL    HW112977   0.764   6.150   4.726 -0.6917  1.1879 -0.3645
 4026SOL    HW212978   0.791   6.070   4.865 -1.4768 -1.4149 -1.6447
 4027SOL     OW12979   2.880   1.825   5.508  0.0472 -0.2854  0.1749
 4027SOL    HW112980   2.819   1.746   5.498 -0.8306  0.5975 -1.8634
 4027SOL    HW212981   2.901   1.838   5.605 -0.2253 -2.6613  0.6249
 4028SOL     OW12982   4.491   1.310   3.131  0.4255 -0.0383  0.6233
 4028SOL    HW112983   4.581   1.274   3.159  0.6048  0.0857  0.2180
 4028SOL    HW212984   4.422   1.239   3.142  0.4764  0.0374  1.4599
 4029SOL     OW12985   2.961   1.950   6.079 -0.1474 -0.7481  0.0578
 4029SOL    HW112986   2.924   1.931   6.170  1.8885  0.1851  1.1724
 4029SOL    HW212987   3.033   1.883   6.058 -0.4704 -0.8369 -0.7915
 4030SOL     OW12988   6.200   6.867   1.806  0.4205  0.0439 -0.1782
 4030SOL    HW112989   6.266   6.848   1.879 -0.0848  0.6468  0.4490
 4030SOL    HW212990   6.206   6.796   1.736  0.6948 -0.7194  0.6031
 4031SOL     OW12991   6.703   6.264   2.734 -0.0387  0.5340 -0.0778
 4031SOL    HW112992   6.746   6.332   2.676 -0.4642  0.2267 -0.7654
 4031SOL    HW212993   6.605   6.285   2.745  0.2034  1.0707  1.2394
 4032SOL     OW12994   1.006   0.634   0.792  0.0275  0.2115  0.2266
 4032SOL    HW112995   1.086   0.614   0.737 -1.1283 -0.2365 -1.3783
 4032SOL    HW212996   1.024   0.612   0.888  2.1907  1.2646  0.1068
 4033SOL     OW12997   1.035   2.564   0.478 -0.0448  0.3347 -0.6370
 4033SOL    HW112998   0.994   2.629   0.414 -2.1937 -0.3115 -0.0077
 4033SOL    HW212999   0.965   2.531   0.541  1.1360 -1.9957 -0.4282
 4034SOL     OW13000   5.707   1.609   6.218  0.0014 -0.6155  0.2928
 4034SOL    HW113001   5.693   1.680   6.149  1.4004 -1.0802 -0.5045
 4034SOL    HW213002   5.647   1.626   6.296 -0.6006  0.7124 -0.4309
 4035SOL     OW13003   0.536   1.659   2.347 -0.1648  0.2156 -0.3312
 4035SOL    HW113004   0.596   1.587   2.382 -1.4009 -1.1923 -1.0396
 4035SOL    HW213005   0.470   1.684   2.418 -0.0502  0.3070 -0.2559
 4036SOL     OW13006   3.590   5.261   4.014  0.0394  0.3405  0.3275
 4036SOL    HW113007   3.668   5.306   4.058  1.2509  0.7211 -2.0711
 4036SOL    HW213008   3.555   5.319   3.941 -1.2052 -0.7459  0.0251
 4037SOL     OW13009   3.909   1.666   6.093 -0.3209 -0.0992 -0.3075
 4037SOL    HW113010   3.886   1.744   6.151 -1.0908  0.4960 -1.3799
 4037SOL    HW213011   3.990   1.686   6.039 -0.3121 -0.1891 -0.3284
 4038SOL     OW13012   4.662   2.324   0.284  0.2841 -0.3354  0.0326
 4038SOL    HW113013   4.626   2.397   0.342 -1.1380 -0.8856 -0.1263
 4038SOL    HW213014   4.755   2.301   0.314  0.1279  0.3988  1.1462
 4039SOL     OW13015   4.388   5.373   0.400  0.1520  0.5291 -0.8693
 4039SOL    HW113016   4.303   5.394   0.353  0.0171  0.0189 -0.8596
 4039SOL    HW213017   4.393   5.426   0.485 -0.4881  0.0550 -0.5204
 4040SOL     OW13018   3.283   6.849   3.018  0.0128  0.5561  0.0176
 4040SOL    HW113019   3.192   6.820   2.989  0.9066 -2.0159 -0.4395
 4040SOL    HW213020   3.275   6.905   3.101 -2.0576  1.8224 -0.9603
 4041SOL     OW13021   0.835   4.790   0.928  0.6230 -0.4500 -0.3756
 4041SOL    HW113022   0.934   4.777   0.935  0.9090  2.1260  1.7084
 4041SOL    HW213023   0.793   4.771   1.016 -0.1239  2.4773 -0.0107
 4042SOL     OW13024   6.010   5.807   4.948 -0.4289 -0.4408 -0.3662
 4042SOL    HW113025   5.965   5.867   4.882 -2.2536  0.8815  1.9206
 4042SOL    HW213026   6.063   5.863   5.012  1.7762 -1.7284 -0.9645
 4043SOL     OW13027   6.655   1.475   4.287 -0.6365 -0.1522 -0.5212
 4043SOL    HW113028   6.637   1.455   4.190  2.7716  3.4586 -2.1837
 4043SOL    HW213029   6.673   1.573   4.298  1.1163 -0.7388  3.4321
 4044SOL     OW13030   3.866   4.996   2.548 -0.0096 -0.1902  0.0115
 4044SOL    HW113031   3.827   5.078   2.590 -1.1013  0.7276 -2.5771
 4044SOL    HW213032   3.965   5.004   2.546 -0.1298  1.4132 -0.7814
 4045SOL     OW13033   3.229   6.858   6.162  0.3062  0.2159 -0.0577
 4045SOL    HW113034   3.209   6.895   6.253  1.4045  1.2869 -0.2320
 4045SOL    HW213035   3.223   6.759   6.165  3.0301 -0.0132  1.9336
 4046SOL     OW13036   0.301   1.862   4.150 -0.0711 -0.7424 -0.6090
 4046SOL    HW113037   0.399   1.881   4.149 -0.3268  0.9615  0.9891
 4046SOL    HW213038   0.281   1.793   4.219 -0.0074 -0.9909 -0.8401
 4047SOL     OW13039   4.453   0.827   6.593 -0.9196 -0.4614 -0.0365
 4047SOL    HW113040   4.406   0.907   6.630 -1.9605 -1.5139  0.9978
 4047SOL    HW213041   4.432   0.819   6.495 -0.5653  0.6808 -0.2149
 4048SOL     OW13042   6.597   1.746   2.595 -0.0812 -0.1763  0.3755
 4048SOL    HW113043   6.687   1.732   2.635  0.0201 -1.3411 -0.2352
 4048SOL    HW213044   6.533   1.775   2.666  0.5898 -0.0797  0.9490
 4049SOL     OW13045   3.145   4.666   0.053  0.3129 -0.8842  0.5723
 4049SOL    HW113046   3.235   4.705   0.032  0.5000 -1.1741  0.8270
 4049SOL    HW213047   3.142   4.638   0.149 -0.4137  0.1062  0.8567
 4050SOL     OW13048   2.347   0.896   2.842 -0.1789  0.0285  0.2759
 4050SOL    HW113049   2.380   0.917   2.934 -0.1513 -2.9340  1.0191
 4050SOL    HW213050   2.294   0.812   2.843 -1.5696  0.7559 -2.1966
 4051SOL     OW13051   5.442   0.600   6.876 -0.3868  0.1671 -0.5000
 4051SOL    HW113052   5.485   0.527   6.929  2.6459  2.2355  0.0964
 4051SOL    HW213053   5.350   0.617   6.911 -1.7335 -4.0447 -1.4384
 4052SOL     OW13054   4.431   2.175   4.076  0.0800  0.5020  0.0831
 4052SOL    HW113055   4.341   2.167   4.033 -0.5908  0.7391  1.3979
 4052SOL    HW213056   4.444   2.269   4.109  0.9471  0.5506 -0.3576
 4053SOL     OW13057   2.903   6.961   6.059  0.2030  0.6436 -0.3661
 4053SOL    HW113058   2.994   6.919   6.067 -0.6974 -1.2850  0.2823
 4053SOL    HW213059   2.855   6.955   6.146 -0.3292  2.2904 -0.4998
 4054SOL     OW13060   5.539   3.436   1.347  0.0127 -0.4561  0.2075
 4054SOL    HW113061   5.539   3.353   1.402 -0.4118  0.3147  1.4151
 4054SOL    HW213062   5.495   3.510   1.399  0.7026  0.6107 -0.6958
 4055SOL     OW13063   2.175   3.794   0.628 -0.6334  0.1948  0.0555
 4055SOL    HW113064   2.180   3.866   0.559  1.0434  0.6210  0.5659
 4055SOL    HW213065   2.230   3.820   0.707 -4.2514  0.7404  2.6070
 4056SOL     OW13066   4.324   4.574   6.930 -0.0658  0.0734 -0.1075
 4056SOL    HW113067   4.345   4.573   6.832 -1.4937 -2.0653 -0.4568
 4056SOL    HW213068   4.239   4.625   6.945  0.2151  0.5004  0.0317
 4057SOL     OW13069   6.365   2.444   4.861 -0.3526  0.2661  0.0948
 4057SOL    HW113070   6.443   2.473   4.805 -0.1191  0.7914  0.6756
 4057SOL    HW213071   6.393   2.438   4.957 -0.7857 -0.4699  0.1799
 4058SOL     OW13072   1.831   5.233   5.786  0.1793  0.3092  0.5265
 4058SOL    HW113073   1.857   5.136   5.792 -2.6155 -0.6984 -1.3642
 4058SOL    HW213074   1.904   5.284   5.741  0.2965 -1.7177 -1.8434
 4059SOL     OW13075   0.660   2.856   4.125 -0.1065 -0.2636  0.0142
 4059SOL    HW113076   0.738   2.899   4.171  0.4318 -0.9100 -0.2695
 4059SOL    HW213077   0.578   2.910   4.140  0.4778  0.6449 -0.0214
 4060SOL     OW13078   5.297   4.651   6.438  0.0173  0.0180  0.1847
 4060SOL    HW113079   5.208   4.640   6.483 -0.2381 -1.1404 -0.5625
 4060SOL    HW213080   5.287   4.711   6.359 -0.3970 -1.0983 -0.6404
 4061SOL     OW13081   6.843   6.121   3.053  0.2278 -0.2385 -0.0023
 4061SOL    HW113082   6.771   6.100   3.118 -1.7201  1.4329 -1.4544
 4061SOL    HW213083   6.821   6.081   2.964  1.2207  0.0750 -0.4091
 4062SOL     OW13084   2.388   2.421   2.887  0.2199  0.2177  0.2711
 4062SOL    HW113085   2.347   2.506   2.921 -0.3878 -0.3874  1.0628
 4062SOL    HW213086   2.396   2.426   2.788 -2.7272 -0.0468 -0.0560
 4063SOL     OW13087   5.767   4.814   6.719 -0.2685 -0.0373  0.4361
 4063SOL    HW113088   5.680   4.765   6.718  0.5124 -1.5236 -0.8100
 4063SOL    HW213089   5.803   4.816   6.812 -0.8369 -0.9316  0.6865
 4064SOL     OW13090   1.140   2.001   4.082  0.1165 -0.1545  0.8663
 4064SOL    HW113091   1.077   2.079   4.083  0.0140 -0.2280  0.3966
 4064SOL    HW213092   1.219   2.022   4.024 -0.1441 -0.5703  0.3431
 4065SOL     OW13093   0.410   1.725   2.596 -0.5083 -0.3565  0.3529
 4065SOL    HW113094   0.330   1.766   2.638  0.1844  1.0997  0.3191
 4065SOL    HW213095   0.458   1.668   2.662 -2.0365 -1.9903  0.1177
 4066SOL     OW13096   6.680   3.093   2.723  0.5379 -0.3711  0.9121
 4066SOL    HW113097   6.699   3.171   2.663  2.8649 -0.4447  1.4961
 4066SOL    HW213098   6.597   3.046   2.690 -0.4157  1.7886  0.0410
 4067SOL     OW13099   6.994   4.745   2.550  0.1168  0.4492 -0.4178
 4067SOL    HW113100   7.042   4.678   2.607  1.3453  1.3204 -0.3978
 4067SOL    HW213101   7.020   4.838   2.577 -0.0507  0.9077 -1.7339
 4068SOL     OW13102   2.411   1.259   7.009 -0.0373 -0.4304  0.5563
 4068SOL    HW113103   2.477   1.238   6.936  1.0170 -1.8638  1.8587
 4068SOL    HW213104   2.356   1.338   6.982  2.0306  0.6815 -0.7125
 4069SOL     OW13105   1.259   3.192   6.597 -0.1449  0.1486 -0.3811
 4069SOL    HW113106   1.175   3.204   6.545 -1.3612  4.1633  2.0159
 4069SOL    HW213107   1.337   3.223   6.543 -0.7085 -0.1274 -1.3660
 4070SOL     OW13108   6.704   3.509   2.181  0.4094 -0.0513  0.3314
 4070SOL    HW113109   6.703   3.523   2.082  1.8730  0.4457  0.3584
 4070SOL    HW213110   6.688   3.412   2.200  0.4081 -0.2092 -0.4086
 4071SOL     OW13111   0.783   0.956   3.775  0.7126 -0.1804  0.1973
 4071SOL    HW113112   0.807   0.952   3.872  0.4793 -1.2022  0.2244
 4071SOL    HW213113   0.699   0.905   3.760  0.7336 -0.0006 -0.5420
 4072SOL     OW13114   6.835   0.145   4.544  0.2615 -0.2756 -0.2150
 4072SOL    HW113115   6.915   0.115   4.493 -0.1857  0.3935 -1.3527
 4072SOL    HW213116   6.853   0.235   4.585 -0.1795  0.2756 -1.1944
 4073SOL     OW13117   1.955   6.160   6.627 -0.3362 -0.4584 -0.2923
 4073SOL    HW113118   1.920   6.076   6.584 -0.0626 -0.0537 -1.3276
 4073SOL    HW213119   2.053   6.149   6.644 -0.5886 -0.9007  0.9348
 4074SOL     OW13120   5.683   4.404   1.503  0.6611  0.0240  0.8477
 4074SOL    HW113121   5.699   4.486   1.558 -1.5206 -1.4278  3.9307
 4074SOL    HW213122   5.586   4.383   1.502  1.0773 -2.1735 -0.4001
 4075SOL     OW13123   4.268   1.960   1.056  0.1899 -0.1672  0.2159
 4075SOL    HW113124   4.225   2.041   1.016  1.0624  0.4666  0.5280
 4075SOL    HW213125   4.281   1.974   1.154  0.5436 -0.6029  0.2333
 4076SOL     OW13126   3.013   2.709   5.570 -1.0064  0.2229  0.5727
 4076SOL    HW113127   2.933   2.722   5.512  0.4230  0.5741 -1.4045
 4076SOL    HW213128   3.074   2.642   5.529  1.5289  2.7066 -0.0240
 4077SOL     OW13129   4.938   2.587   6.792  0.4722  0.4686  0.0493
 4077SOL    HW113130   4.945   2.663   6.857 -1.3528  1.6452 -1.0504
 4077SOL    HW213131   4.856   2.533   6.813  1.2909 -0.7245  0.2880
 4078SOL     OW13132   0.894   6.354   2.736  0.5130  0.1039 -0.6674
 4078SOL    HW113133   0.872   6.319   2.645  1.0810 -0.5224 -0.5659
 4078SOL    HW213134   0.951   6.288   2.785 -0.6413 -0.0428  0.5414
 4079SOL     OW13135   1.031   1.319   3.165  0.1432  0.4101 -0.8265
 4079SOL    HW113136   1.082   1.288   3.245 -1.3588 -0.0412 -0.0074
 4079SOL    HW213137   1.033   1.419   3.160  1.8798  0.3806 -1.3716
 4080SOL     OW13138   5.682   5.340   5.527  0.3153  0.2702 -0.4884
 4080SOL    HW113139   5.753   5.373   5.589  0.4045 -1.4947  0.3875
 4080SOL    HW213140   5.634   5.263   5.568 -1.2438  0.5715 -1.6256
 4081SOL     OW13141   1.311   4.384   4.096  0.0572 -0.6489 -0.1633
 4081SOL    HW113142   1.275   4.435   4.018  2.7599 -1.9997 -2.5022
 4081SOL    HW213143   1.346   4.449   4.165 -2.7260  0.5724  0.2340
 4082SOL     OW13144   0.846   3.492   1.781  0.8819 -0.1400 -0.6836
 4082SOL    HW113145   0.912   3.539   1.723  0.3650 -0.9750 -1.9829
 4082SOL    HW213146   0.772   3.455   1.725 -1.1200  1.3973  0.7802
 4083SOL     OW13147   0.229   2.463   2.279  0.0472  0.3128  0.1834
 4083SOL    HW113148   0.315   2.430   2.239 -0.2312 -0.7567  0.4154
 4083SOL    HW213149   0.248   2.539   2.340  0.8823 -0.1117  0.4730
 4084SOL     OW13150   4.652   6.411   5.247  0.0039 -0.1980  0.0742
 4084SOL    HW113151   4.621   6.493   5.295  1.0118 -0.5470  1.3549
 4084SOL    HW213152   4.653   6.429   5.148 -2.3639  0.4396  0.1038
 4085SOL     OW13153   2.864   6.329   1.273 -0.3822 -0.0380 -0.3494
 4085SOL    HW113154   2.849   6.402   1.207 -1.5749  0.3060  0.2612
 4085SOL    HW213155   2.908   6.251   1.228 -0.4183  0.5000 -1.3390
 4086SOL     OW13156   1.864   0.121   1.292  0.2224 -0.0598  0.2653
 4086SOL    HW113157   1.934   0.176   1.337  0.2280 -0.1260  0.3377
 4086SOL    HW213158   1.895   0.095   1.200 -0.1729  0.8704 -0.1548
 4087SOL     OW13159   1.886   2.046   4.528  0.0609 -0.7964  0.4018
 4087SOL    HW113160   1.863   1.955   4.495 -1.1421 -0.6085  0.6757
 4087SOL    HW213161   1.975   2.044   4.574  0.4730 -1.6211 -0.4114
 4088SOL     OW13162   2.664   0.649   0.378 -0.0093  0.0164  0.1339
 4088SOL    HW113163   2.667   0.634   0.477  1.1742  1.2771  0.3292
 4088SOL    HW213164   2.707   0.573   0.331  2.5877  0.9356  0.8439
 4089SOL     OW13165   1.364   5.922   4.504  0.2357 -0.4215 -0.5904
 4089SOL    HW113166   1.458   5.927   4.472  0.6364  0.3501  0.6332
 4089SOL    HW213167   1.362   5.919   4.604 -1.0545  0.1445 -0.5720
 4090SOL     OW13168   3.352   5.128   5.265 -0.1396 -0.3298  0.2148
 4090SOL    HW113169   3.266   5.087   5.235 -0.3739  0.3168 -0.0336
 4090SOL    HW213170   3.427   5.097   5.207 -0.4971  0.4624 -0.6994
 4091SOL     OW13171   5.773   1.487   0.415 -0.5079 -0.3109  0.7359
 4091SOL    HW113172   5.834   1.470   0.337  0.5187  0.1841  1.3966
 4091SOL    HW213173   5.766   1.404   0.470 -3.3134 -1.5126 -1.1941
 4092SOL     OW13174   5.978   2.755   6.804  0.0746  0.0490  0.0059
 4092SOL    HW113175   5.916   2.731   6.729  0.0026 -1.4583  0.5102
 4092SOL    HW213176   5.926   2.798   6.878 -0.5047 -1.5916  0.6076
 4093SOL     OW13177   4.839   0.145   3.642 -0.0186  0.0975 -0.2962
 4093SOL    HW113178   4.918   0.149   3.703  0.6343  0.2504 -1.1410
 4093SOL    HW213179   4.858   0.197   3.559 -0.4779 -1.0110 -1.1183
 4094SOL     OW13180   2.361   4.789   3.960  0.3940 -0.4520  0.3253
 4094SOL    HW113181   2.426   4.861   3.939 -0.2835  0.4898  1.3583
 4094SOL    HW213182   2.399   4.729   4.030  0.7341 -0.7889 -0.1393
 4095SOL     OW13183   6.845   3.458   0.934 -0.1544  0.1644 -0.1133
 4095SOL    HW113184   6.752   3.494   0.945 -0.5439 -0.4184 -1.3398
 4095SOL    HW213185   6.909   3.515   0.985 -1.3648 -0.3543  2.1193
 4096SOL     OW13186   4.501   4.959   6.351  0.5162 -0.1120 -0.1647
 4096SOL    HW113187   4.449   5.043   6.335 -0.6500 -0.9418 -1.0038
 4096SOL    HW213188   4.578   4.954   6.287 -0.0052 -0.1325 -0.8035
 4097SOL     OW13189   4.244   5.344   5.383 -0.0892 -0.1544  0.0010
 4097SOL    HW113190   4.216   5.431   5.424  0.5568 -0.0651  0.2552
 4097SOL    HW213191   4.244   5.352   5.284  0.1612  0.1941  0.0283
 4098SOL     OW13192   1.324   3.236   2.038  0.2130  0.3170 -0.6014
 4098SOL    HW113193   1.420   3.213   2.055  0.6462  2.7738  0.7246
 4098SOL    HW213194   1.269   3.153   2.043  2.2171 -1.1314 -1.1788
 4099SOL     OW13195   3.999   3.066   2.113  0.3703  0.3054 -0.2627
 4099SOL    HW113196   4.021   3.003   2.188  0.0173  1.0878  0.5128
 4099SOL    HW213197   4.030   3.158   2.137 -0.7627  0.7894 -0.5887
 4100SOL     OW13198   0.287   4.473   3.974  0.0755 -0.1175  0.6163
 4100SOL    HW113199   0.237   4.425   4.045  0.1135 -1.7604 -0.4087
 4100SOL    HW213200   0.377   4.431   3.961  0.9396  1.5109  1.0355
 4101SOL     OW13201   6.646   6.715   6.210  0.2522 -0.0186  0.0284
 4101SOL    HW113202   6.640   6.634   6.267  0.0594 -1.4199 -1.8722
 4101SOL    HW213203   6.715   6.701   6.138  0.8882  1.8768  0.1953
 4102SOL     OW13204   5.400   1.879   0.347 -0.2013  0.3224 -0.0331
 4102SOL    HW113205   5.459   1.949   0.307 -1.5650  1.3188 -0.3723
 4102SOL    HW213206   5.454   1.798   0.368  0.9407  0.5143 -2.0159
 4103SOL     OW13207   0.998   1.054   0.725 -0.0558 -0.0398  0.2454
 4103SOL    HW113208   1.073   1.012   0.777  0.7786 -0.0358 -0.9284
 4103SOL    HW213209   1.035   1.122   0.662 -1.1029  0.2780 -0.0432
 4104SOL     OW13210   0.062   4.151   2.766 -0.2409  0.2803  0.2667
 4104SOL    HW113211   0.002   4.213   2.715 -1.9430 -0.5953  1.1104
 4104SOL    HW213212   0.050   4.058   2.730  0.6700  0.1023  0.4200
 4105SOL     OW13213   5.659   4.989   2.735 -0.7169 -0.1781 -0.6564
 4105SOL    HW113214   5.728   4.942   2.789 -1.7289  0.3949  1.2276
 4105SOL    HW213215   5.594   4.922   2.699 -0.2374 -0.5281 -0.8923
 4106SOL     OW13216   6.457   2.921   3.559 -0.3062 -0.6401  0.3017
 4106SOL    HW113217   6.539   2.978   3.553 -0.0198 -1.1169 -0.3614
 4106SOL    HW213218   6.382   2.965   3.509  0.1206 -1.1923 -0.8482
 4107SOL     OW13219   1.634   4.575   1.585 -0.1706  0.1886 -0.2279
 4107SOL    HW113220   1.644   4.649   1.652  0.8760 -0.3954  0.2873
 4107SOL    HW213221   1.584   4.499   1.626  2.5220 -1.1662  0.7982
 4108SOL     OW13222   0.845   4.645   5.475  0.0796  0.3099 -0.0792
 4108SOL    HW113223   0.940   4.676   5.470  0.3582 -0.6823 -1.9256
 4108SOL    HW213224   0.824   4.589   5.395 -1.9640  0.1748  0.4904
 4109SOL     OW13225   1.118   0.921   6.408 -0.0765  0.3578 -0.2439
 4109SOL    HW113226   1.039   0.873   6.370 -1.7664 -0.2059  3.5619
 4109SOL    HW213227   1.096   1.017   6.420  1.3358  1.0854 -2.6942
 4110SOL     OW13228   3.060   2.858   6.369  0.3971  0.2781  0.8655
 4110SOL    HW113229   2.988   2.857   6.438  0.4476  0.9442  0.9382
 4110SOL    HW213230   3.079   2.953   6.342  1.9043  0.1894  1.5325
 4111SOL     OW13231   3.554   1.965   0.740  0.0381 -0.1131  0.2463
 4111SOL    HW113232   3.621   2.039   0.744 -0.3561  0.2360  0.6389
 4111SOL    HW213233   3.503   1.971   0.654 -0.2297  0.2939  0.4282
 4112SOL     OW13234   5.109   1.893   4.546  0.4135 -0.3482  0.0989
 4112SOL    HW113235   5.084   1.801   4.579 -0.8128  0.2824  1.0299
 4112SOL    HW213236   5.102   1.958   4.621 -2.1046  1.0890 -1.2307
 4113SOL     OW13237   3.786   5.142   2.974  0.1323  0.2726 -0.0044
 4113SOL    HW113238   3.776   5.064   2.911 -0.6406 -1.5495  2.2378
 4113SOL    HW213239   3.879   5.143   3.011 -0.4270 -0.9514  1.5522
 4114SOL     OW13240   3.560   2.075   4.346  0.5721 -0.5773 -0.1236
 4114SOL    HW113241   3.579   2.170   4.319 -0.1655 -0.2352  0.5080
 4114SOL    HW213242   3.481   2.074   4.407 -0.5676 -1.7829 -1.5444
 4115SOL     OW13243   3.565   5.049   5.097 -0.1931  0.3521 -0.2500
 4115SOL    HW113244   3.547   5.019   5.003  1.1372  2.1609 -1.1455
 4115SOL    HW213245   3.661   5.076   5.106  0.1599 -1.3815  2.1288
 4116SOL     OW13246   5.403   1.780   2.509 -0.0027  0.2554 -0.2943
 4116SOL    HW113247   5.424   1.718   2.584  0.3851  2.8140  1.8682
 4116SOL    HW213248   5.386   1.872   2.545  1.1350  1.8631 -3.4228
 4117SOL     OW13249   6.878   5.548   3.110  0.5515  0.0743 -0.1674
 4117SOL    HW113250   6.872   5.461   3.061  2.0971  0.1657 -0.5895
 4117SOL    HW213251   6.810   5.551   3.183  0.9433 -1.7996  0.3164
 4118SOL     OW13252   2.512   4.212   0.069  0.2503 -0.2265 -0.3443
 4118SOL    HW113253   2.593   4.264   0.097 -1.1418  1.8899  0.0091
 4118SOL    HW213254   2.503   4.215  -0.030 -0.2370  0.8885 -0.2717
 4119SOL     OW13255   3.874   0.587   4.837  0.4304  0.4104  0.1769
 4119SOL    HW113256   3.907   0.651   4.906  1.3132  1.3987 -1.1247
 4119SOL    HW213257   3.907   0.495   4.859  4.8445  1.3703 -1.3484
 4120SOL     OW13258   3.170   5.704   1.008 -0.3494 -0.3371 -0.0176
 4120SOL    HW113259   3.245   5.769   1.021  0.0644 -0.1023 -2.8899
 4120SOL    HW213260   3.083   5.748   1.032  0.1046  0.6194 -0.0715
 4121SOL     OW13261   6.033   1.210   5.090 -0.6096  0.7280  0.2947
 4121SOL    HW113262   5.990   1.157   5.018 -0.7548  2.5781 -1.0431
 4121SOL    HW213263   6.124   1.239   5.060 -1.0550  2.3426  0.4296
 4122SOL     OW13264   1.724   5.957   4.785 -0.5274 -0.4945  0.2666
 4122SOL    HW113265   1.663   6.034   4.768  0.9459  0.4887 -0.8593
 4122SOL    HW213266   1.766   5.928   4.699 -1.2543 -2.7937  0.6027
 4123SOL     OW13267   4.809   5.263   6.210  0.2226 -0.0629 -0.2882
 4123SOL    HW113268   4.712   5.268   6.187  0.0675 -3.6253 -0.9496
 4123SOL    HW213269   4.858   5.215   6.137  1.6109 -2.3722  2.0022
 4124SOL     OW13270   6.323   5.300   6.561  0.3493  0.2116  0.6141
 4124SOL    HW113271   6.344   5.392   6.528 -1.3827  0.5155  0.2426
 4124SOL    HW213272   6.317   5.300   6.660 -0.5273  0.7433  0.5786
 4125SOL     OW13273   4.349   2.419   2.589 -0.0287 -0.3552 -0.3240
 4125SOL    HW113274   4.362   2.393   2.493 -2.0161 -2.1688 -0.1710
 4125SOL    HW213275   4.305   2.509   2.593  2.8159  1.1789 -0.9686
 4126SOL     OW13276   1.033   3.899   3.288 -0.2348  0.1127  1.0283
 4126SOL    HW113277   1.090   3.817   3.284  0.0410  0.3482 -1.1576
 4126SOL    HW213278   0.953   3.881   3.346 -0.7311 -2.0862 -0.2118
 4127SOL     OW13279   3.866   3.924   5.452  0.2760  0.3424  0.1267
 4127SOL    HW113280   3.804   3.956   5.381  0.2024  1.5433  0.7239
 4127SOL    HW213281   3.902   3.834   5.426 -1.1076 -0.0302 -0.5795
 4128SOL     OW13282   6.183   4.480   3.121 -0.3831 -0.4328 -0.0764
 4128SOL    HW113283   6.198   4.579   3.114  1.1911 -0.4804  1.7334
 4128SOL    HW213284   6.171   4.442   3.029  0.6781  1.2136 -0.9596
 4129SOL     OW13285   4.470   0.545   6.051 -0.0821 -0.2897 -0.6578
 4129SOL    HW113286   4.485   0.591   6.139  0.8723 -0.4611 -0.7132
 4129SOL    HW213287   4.502   0.605   5.977  0.2528 -0.6322 -0.7949
 4130SOL     OW13288   0.718   4.272   6.487  0.2691 -0.1247  0.1267
 4130SOL    HW113289   0.630   4.311   6.515 -0.0612  0.3031 -1.4223
 4130SOL    HW213290   0.703   4.202   6.417  1.0429 -1.4422  1.2128
 4131SOL     OW13291   2.698   6.718   4.110 -0.0711 -0.2898 -0.5592
 4131SOL    HW113292   2.785   6.726   4.158 -0.6078 -1.4848  0.6561
 4131SOL    HW213293   2.708   6.656   4.032  0.5346  0.8420 -1.4220
 4132SOL     OW13294   4.197   5.122   3.349 -0.7307 -0.1512 -0.3325
 4132SOL    HW113295   4.124   5.185   3.323 -0.0025  0.1337 -1.7525
 4132SOL    HW213296   4.231   5.146   3.440 -1.5829  0.4408 -0.1544
 4133SOL     OW13297   2.286   4.351   1.453  0.3723  0.2464  0.3716
 4133SOL    HW113298   2.376   4.314   1.430 -0.0772 -0.4853 -0.2424
 4133SOL    HW213299   2.238   4.286   1.511 -0.6893 -0.4782 -1.2608
 4134SOL     OW13300   2.451   2.686   0.409 -0.2491 -0.1254 -0.1511
 4134SOL    HW113301   2.399   2.756   0.360  0.5988  0.5952 -0.0495
 4134SOL    HW213302   2.472   2.719   0.501 -1.3349 -1.2350  0.5208
 4135SOL     OW13303   0.045   1.251   3.703  0.3196  0.1686 -0.2786
 4135SOL    HW113304   0.011   1.251   3.609  0.5754  1.8764 -0.3980
 4135SOL    HW213305  -0.019   1.201   3.762  0.0618 -0.7611 -1.3028
 4136SOL     OW13306   2.030   1.157   3.705  0.6704 -0.0691  0.3730
 4136SOL    HW113307   2.003   1.245   3.664 -0.7144 -0.3700  0.6105
 4136SOL    HW213308   1.990   1.082   3.652  0.1015 -0.5018  1.3869
 4137SOL     OW13309   0.941   5.167   2.117  0.7275 -1.1220  0.0210
 4137SOL    HW113310   1.021   5.159   2.176  0.6378  0.3178  0.3733
 4137SOL    HW213311   0.906   5.260   2.121  0.2494 -1.1880 -1.7187
 4138SOL     OW13312   2.970   4.800   3.777 -0.0806  0.1299 -1.0207
 4138SOL    HW113313   2.923   4.733   3.834 -2.0884  2.1086 -0.2117
 4138SOL    HW213314   3.054   4.830   3.823 -0.8808  0.5668  0.2125
 4139SOL     OW13315   1.265   2.054   5.557 -0.0531  0.2332  0.3997
 4139SOL    HW113316   1.176   2.088   5.587 -0.3223  0.1213 -0.2630
 4139SOL    HW213317   1.316   2.021   5.636  0.0352  1.7308  1.0090
 4140SOL     OW13318   4.619   1.211   5.361 -0.6357 -0.6475 -0.0351
 4140SOL    HW113319   4.578   1.201   5.270  0.4508 -0.8530 -0.5136
 4140SOL    HW213320   4.547   1.207   5.430 -1.6912  1.0936 -0.9585
 4141SOL     OW13321   0.871   0.006   2.594 -0.3546  0.6476  0.2004
 4141SOL    HW113322   0.924  -0.037   2.667 -1.1713  1.3197  1.2079
 4141SOL    HW213323   0.867  -0.056   2.516  1.0854  0.1913  0.4655
 4142SOL     OW13324   6.158   3.605   1.963 -0.2475 -0.0096 -0.1176
 4142SOL    HW113325   6.210   3.681   2.002  1.9079 -1.9097  0.9180
 4142SOL    HW213326   6.067   3.601   2.006  1.5284 -1.2222  3.9898
 4143SOL     OW13327   5.756   3.245   1.625 -0.1603  0.0399 -0.4335
 4143SOL    HW113328   5.797   3.242   1.534 -1.6119 -0.1255 -1.1285
 4143SOL    HW213329   5.671   3.191   1.624 -0.1646 -0.0054  1.0357
 4144SOL     OW13330   4.312   3.863   5.647 -0.3418 -0.2055 -0.0891
 4144SOL    HW113331   4.214   3.873   5.635 -0.1249  0.1551 -1.9021
 4144SOL    HW213332   4.340   3.770   5.624 -0.1072  0.0552 -0.8931
 4145SOL     OW13333   6.025   1.692   1.754  0.2048  0.2487  0.4058
 4145SOL    HW113334   6.034   1.768   1.690 -2.0223 -0.4629 -0.8954
 4145SOL    HW213335   6.069   1.611   1.715 -0.2832  0.0636  0.2352
 4146SOL     OW13336   0.058   3.478   6.269 -0.1287  1.2184  0.4527
 4146SOL    HW113337  -0.034   3.463   6.233  0.6862 -2.4578 -0.4948
 4146SOL    HW213338   0.126   3.465   6.196  1.2533  1.3468  1.6562
 4147SOL     OW13339   4.092   2.831   5.339  0.1584  0.0444 -0.2743
 4147SOL    HW113340   4.131   2.739   5.336  0.3117  0.0575  0.8803
 4147SOL    HW213341   4.128   2.880   5.418  1.0887  1.5838 -1.6029
 4148SOL     OW13342   0.594   0.553   6.875  0.0419 -0.4367 -0.4584
 4148SOL    HW113343   0.671   0.496   6.846 -1.3610 -1.5804 -2.2151
 4148SOL    HW213344   0.596   0.640   6.826 -0.4442 -0.9879 -1.4937
 4149SOL     OW13345   0.736   5.901   5.421  0.1995  0.1608  0.3283
 4149SOL    HW113346   0.735   5.863   5.514  2.5771  0.8468  0.7072
 4149SOL    HW213347   0.658   5.963   5.409 -1.9970 -2.3652  0.7176
 4150SOL     OW13348   1.619   1.803   0.332  0.0592 -0.5978 -0.4279
 4150SOL    HW113349   1.530   1.832   0.299  0.0957  0.8361  0.6515
 4150SOL    HW213350   1.688   1.819   0.260 -0.3255 -0.3235 -0.7398
 4151SOL     OW13351   2.802   6.609   4.761 -0.5192 -0.0461 -0.3747
 4151SOL    HW113352   2.851   6.678   4.815 -0.3114  0.6945 -1.4768
 4151SOL    HW213353   2.713   6.592   4.802 -0.3003  0.3695  0.2971
 4152SOL     OW13354   3.542   0.122   0.624 -0.0171 -0.0189  0.4191
 4152SOL    HW113355   3.537   0.130   0.524  0.9168 -0.2616  0.3427
 4152SOL    HW213356   3.459   0.159   0.664 -0.1052  0.7290 -0.4147
 4153SOL     OW13357   1.766   4.400   6.447  0.7922  0.6519  0.1979
 4153SOL    HW113358   1.826   4.424   6.371 -2.9960  2.9111 -2.4429
 4153SOL    HW213359   1.746   4.302   6.446 -0.0703  0.7942 -2.5772
 4154SOL     OW13360   0.449   5.384   4.594  0.6577 -0.5785  0.0014
 4154SOL    HW113361   0.413   5.474   4.621 -1.6338 -0.8499 -1.8105
 4154SOL    HW213362   0.399   5.312   4.642  3.0688 -0.9738  2.1069
 4155SOL     OW13363   6.510   0.727   2.026  0.5520  0.1738  0.5480
 4155SOL    HW113364   6.451   0.748   1.948  0.5435 -0.9631  0.2349
 4155SOL    HW213365   6.519   0.628   2.035 -0.3137  0.2256  2.6387
 4156SOL     OW13366   6.529   0.200   4.962  0.3070  0.2011  0.0052
 4156SOL    HW113367   6.473   0.201   5.045 -0.5768 -1.1052 -0.5422
 4156SOL    HW213368   6.560   0.293   4.943 -1.0222  0.8457  0.7791
 4157SOL     OW13369   4.006   5.272   5.521 -0.2002  0.2018 -0.2229
 4157SOL    HW113370   3.937   5.235   5.458 -0.3547  0.5364 -0.2519
 4157SOL    HW213371   4.091   5.288   5.471 -0.0675 -0.3003 -0.1674
 4158SOL     OW13372   1.667   4.844   3.455 -0.1773  0.8598 -0.1562
 4158SOL    HW113373   1.724   4.808   3.382 -0.1540 -0.3473  0.4333
 4158SOL    HW213374   1.724   4.887   3.525  0.1244 -0.9183  0.7525
 4159SOL     OW13375   0.602   2.669   3.639 -0.1669  0.4124  0.0150
 4159SOL    HW113376   0.584   2.660   3.737  1.0618 -0.3773  0.2002
 4159SOL    HW213377   0.641   2.759   3.620  1.1616 -0.0273  0.5435
 4160SOL     OW13378   6.448   0.094   1.130  0.1409  0.2534 -0.0000
 4160SOL    HW113379   6.546   0.082   1.114  0.3752  1.4506  0.4757
 4160SOL    HW213380   6.403   0.004   1.128  1.1574 -0.2602 -0.7358
 4161SOL     OW13381   0.152   6.621   0.220 -0.4138  0.9936 -0.1005
 4161SOL    HW113382   0.193   6.700   0.174 -1.6808  0.6911 -1.8710
 4161SOL    HW213383   0.053   6.632   0.222 -0.4727  0.4065  1.5516
 4162SOL     OW13384   0.461   6.481   4.990 -0.5317 -0.3091  0.3091
 4162SOL    HW113385   0.411   6.489   4.904  1.0169 -0.1687 -0.6176
 4162SOL    HW213386   0.470   6.385   5.015  2.0455 -0.6846 -1.6211
 4163SOL     OW13387   0.120   6.553   4.189 -0.0709  0.2363 -0.0700
 4163SOL    HW113388   0.083   6.539   4.281 -1.4357  0.2492 -0.5859
 4163SOL    HW213389   0.122   6.465   4.141  1.1427  0.1379  0.1345
 4164SOL     OW13390   2.337   1.761   1.280  0.6025 -0.2309 -0.2643
 4164SOL    HW113391   2.300   1.847   1.315  1.7767  0.7051 -1.2731
 4164SOL    HW213392   2.342   1.695   1.355 -0.0200  0.6649  0.5957
 4165SOL     OW13393   2.031   1.308   1.662  0.4581  0.3577  0.1525
 4165SOL    HW113394   2.041   1.212   1.689  0.1618  0.4180  0.4874
 4165SOL    HW213395   1.937   1.337   1.679 -0.0121  0.1375 -1.7938
 4166SOL     OW13396   5.082   4.691   6.003  0.2481 -0.1730 -0.3832
 4166SOL    HW113397   5.021   4.613   6.021 -0.1640  0.0596 -0.7298
 4166SOL    HW213398   5.176   4.667   6.027 -0.1454 -0.1303  1.3509
 4167SOL     OW13399   1.662   2.086   1.882  0.1057 -0.3397 -0.2321
 4167SOL    HW113400   1.632   2.164   1.827  1.8811  1.2250  0.8772
 4167SOL    HW213401   1.713   2.022   1.824 -0.7003 -0.2985 -1.0029
 4168SOL     OW13402   6.120   0.935   6.849 -0.2649  0.0985 -0.2147
 4168SOL    HW113403   6.030   0.953   6.888 -0.3669 -0.1014 -0.3573
 4168SOL    HW213404   6.110   0.902   6.755 -0.0266  0.4800 -0.3789
 4169SOL     OW13405   1.363   5.575   3.955 -0.0248  0.5325  0.3642
 4169SOL    HW113406   1.365   5.526   3.868  3.4553  1.6678 -0.3620
 4169SOL    HW213407   1.311   5.660   3.944 -0.2001  0.3347 -0.4086
 4170SOL     OW13408   3.136   3.153   5.497 -0.1426  0.1072  0.1318
 4170SOL    HW113409   3.196   3.077   5.522  0.1980  0.5333  0.6211
 4170SOL    HW213410   3.041   3.123   5.501  0.0212 -0.5431 -0.5408
 4171SOL     OW13411   5.746   5.415   1.197 -0.1770 -0.2137 -0.2580
 4171SOL    HW113412   5.705   5.506   1.198 -0.9721 -0.5662  0.0959
 4171SOL    HW213413   5.794   5.400   1.111 -1.7222 -0.1973 -1.1509
 4172SOL     OW13414   0.675   3.991   5.238  0.3073 -0.4397 -0.3737
 4172SOL    HW113415   0.730   4.073   5.218  0.4581 -0.0925  1.3398
 4172SOL    HW213416   0.582   4.018   5.261 -0.0160 -0.8748 -1.1230
 4173SOL     OW13417   4.748   4.930   0.082 -0.2921 -0.8649  0.1760
 4173SOL    HW113418   4.754   4.950  -0.016 -1.9718 -0.2226  0.1581
 4173SOL    HW213419   4.690   4.849   0.095 -1.8609  0.2811  0.6809
 4174SOL     OW13420   5.820   0.378   3.349  0.1318  0.2005  0.6514
 4174SOL    HW113421   5.914   0.368   3.381  0.2955  1.1638  0.4920
 4174SOL    HW213422   5.804   0.473   3.321 -0.0564 -0.5039 -1.8992
 4175SOL     OW13423   1.308   6.703   6.274 -0.6466 -0.0980  0.3760
 4175SOL    HW113424   1.293   6.716   6.372 -0.1840  0.0312  0.4333
 4175SOL    HW213425   1.387   6.757   6.245 -1.1054  0.2914 -0.1803
 4176SOL     OW13426   5.871   1.038   3.043  0.4043  0.1954 -0.3383
 4176SOL    HW113427   5.889   0.956   2.990 -0.7943  0.2893 -0.9370
 4176SOL    HW213428   5.860   1.116   2.981 -0.4194  0.4238  0.0799
 4177SOL     OW13429   5.601   6.591   5.502 -0.2770 -0.0360  1.0024
 4177SOL    HW113430   5.553   6.505   5.521 -1.5208  0.6842  1.2321
 4177SOL    HW213431   5.550   6.643   5.433  0.8298  0.2237  0.3494
 4178SOL     OW13432   3.367   0.413   3.898  0.2056 -0.4807 -0.4662
 4178SOL    HW113433   3.327   0.444   3.812  0.0862  1.4619  0.2173
 4178SOL    HW213434   3.435   0.480   3.929  0.3641 -1.2130  0.8586
 4179SOL     OW13435   6.464   0.911   4.437  0.1846 -0.4922  0.4709
 4179SOL    HW113436   6.502   1.002   4.458 -1.4459  0.0730  1.1781
 4179SOL    HW213437   6.474   0.852   4.517 -0.8720 -0.1627  0.8640
 4180SOL     OW13438   5.311   5.048   2.824 -0.0768  0.0458  0.2108
 4180SOL    HW113439   5.215   5.056   2.853  0.5470  0.4179  2.2807
 4180SOL    HW213440   5.339   5.133   2.779 -0.9923 -0.4566 -1.3881
 4181SOL     OW13441   3.437   1.585   0.486  0.0695 -0.3122 -0.2081
 4181SOL    HW113442   3.474   1.558   0.575  0.7184  1.1635 -0.0093
 4181SOL    HW213443   3.351   1.536   0.470  0.0319 -0.7353  1.1430
 4182SOL     OW13444   0.628   0.130   4.018  0.4010  0.0434  0.1674
 4182SOL    HW113445   0.591   0.087   3.936 -0.4611 -0.0237  0.5854
 4182SOL    HW213446   0.586   0.090   4.099  0.7001  0.6231  0.6206
 4183SOL     OW13447   5.386   6.642   0.775  0.4340 -0.5492 -0.1809
 4183SOL    HW113448   5.337   6.666   0.691 -0.6302 -0.5467  0.4295
 4183SOL    HW213449   5.441   6.720   0.805  0.7392 -0.5144 -0.8049
 4184SOL     OW13450   5.208   1.168   1.143  0.4270 -0.2946  0.0657
 4184SOL    HW113451   5.118   1.194   1.111  0.7175  1.2259  0.3750
 4184SOL    HW213452   5.200   1.109   1.223 -0.2876 -0.2147  0.0516
 4185SOL     OW13453   0.727   6.244   2.366  0.4727 -0.2522  0.2988
 4185SOL    HW113454   0.648   6.184   2.372 -0.9509  1.6942  2.4274
 4185SOL    HW213455   0.803   6.205   2.419  0.1070 -0.9227  0.3316
 4186SOL     OW13456   3.577   5.801   1.584  0.3215 -0.0200 -0.6384
 4186SOL    HW113457   3.551   5.868   1.514  2.1476 -1.8100 -3.2021
 4186SOL    HW213458   3.532   5.714   1.565  1.0004 -0.5888  0.2991
 4187SOL     OW13459   2.382   4.322   5.682  0.3597 -0.1229 -0.1178
 4187SOL    HW113460   2.442   4.270   5.621  0.5246  0.1764 -0.2142
 4187SOL    HW213461   2.303   4.355   5.631  0.9726  0.9385 -0.4113
 4188SOL     OW13462   4.198   6.905   4.461  0.0967 -0.3606  0.3223
 4188SOL    HW113463   4.169   6.869   4.372  0.8386 -0.9787  0.3184
 4188SOL    HW213464   4.154   6.993   4.477 -0.7503 -0.6694 -0.2507
 4189SOL     OW13465   4.075   1.438   4.398 -0.4386 -0.4577  0.3352
 4189SOL    HW113466   4.168   1.428   4.436 -0.5096  0.6621  0.8390
 4189SOL    HW213467   4.015   1.475   4.469 -0.9281  0.2206 -0.4244
 4190SOL     OW13468   1.344   1.454   6.562  0.4519  0.3940  0.1069
 4190SOL    HW113469   1.439   1.482   6.547 -0.5313  3.1586 -1.5969
 4190SOL    HW213470   1.320   1.383   6.495  1.3714 -0.5915  0.7856
 4191SOL     OW13471   4.433   2.435   3.432 -0.3254 -0.1506  0.3144
 4191SOL    HW113472   4.515   2.378   3.435 -0.2039  0.0044  0.0281
 4191SOL    HW213473   4.405   2.458   3.525 -0.6048 -0.9977  0.4460
 4192SOL     OW13474   2.849   5.935   3.333 -0.0348  0.0607 -0.8448
 4192SOL    HW113475   2.948   5.939   3.326 -0.0599  2.1580 -0.8004
 4192SOL    HW213476   2.821   5.945   3.428 -0.2799 -0.8415 -0.8208
 4193SOL     OW13477   2.543   1.918   1.550 -0.2118  0.5907  0.0152
 4193SOL    HW113478   2.459   1.970   1.566 -0.1546  1.2099 -1.5946
 4193SOL    HW213479   2.579   1.939   1.460  1.0598 -0.5512  0.2271
 4194SOL     OW13480   6.004   0.196   6.052  0.4766  0.2382 -0.3824
 4194SOL    HW113481   5.922   0.142   6.071  0.3924  0.6921  0.6311
 4194SOL    HW213482   6.042   0.170   5.963  0.4466 -1.4760  0.0874
 4195SOL     OW13483   4.536   0.935   1.414 -0.6157  0.2379 -0.3144
 4195SOL    HW113484   4.497   0.892   1.333  0.0100  0.5239 -0.7713
 4195SOL    HW213485   4.540   0.868   1.488 -3.4367  0.5893  0.2686
 4196SOL     OW13486   6.982   3.715   2.950  0.1560 -0.0974  0.6525
 4196SOL    HW113487   6.973   3.719   2.850 -0.8136  2.2843  0.7778
 4196SOL    HW213488   7.046   3.786   2.980  0.0510 -0.4677  1.7847
 4197SOL     OW13489   5.594   5.668   5.237 -0.0622  0.0522  0.2867
 4197SOL    HW113490   5.580   5.581   5.190 -0.3326  0.9869 -1.4283
 4197SOL    HW213491   5.651   5.728   5.181  1.2569  0.5417  2.0263
 4198SOL     OW13492   3.772   3.581   5.227 -0.4488 -0.1622  0.1097
 4198SOL    HW113493   3.798   3.497   5.178  0.4987  0.2135 -0.0465
 4198SOL    HW213494   3.708   3.633   5.171 -1.6995 -1.1450  0.5439
 4199SOL     OW13495   0.514   3.869   5.853 -0.1119  0.1654 -0.0906
 4199SOL    HW113496   0.572   3.894   5.776 -1.9105  2.4394 -0.8030
 4199SOL    HW213497   0.471   3.780   5.835  2.0862 -0.9615 -0.0921
 4200SOL     OW13498   2.037   5.315   5.048  0.4590  0.2279 -0.3945
 4200SOL    HW113499   1.990   5.283   5.131 -1.6611  1.1318 -1.1817
 4200SOL    HW213500   2.110   5.251   5.024 -0.5485 -1.4009  0.7335
 4201SOL     OW13501   0.553   6.682   2.777 -0.0748 -0.2951  0.0635
 4201SOL    HW113502   0.637   6.647   2.819 -0.4191 -0.2383  0.8073
 4201SOL    HW213503   0.538   6.777   2.807  0.0927  0.0155 -0.8143
 4202SOL     OW13504   2.675   5.550   6.335  0.2049  0.0659  0.4757
 4202SOL    HW113505   2.682   5.466   6.389  0.8527 -0.4491 -0.3886
 4202SOL    HW213506   2.579   5.565   6.309  0.1899 -0.8411 -0.0277
 4203SOL     OW13507   3.361   4.874   0.743  0.2776 -0.5796 -0.0413
 4203SOL    HW113508   3.401   4.821   0.668 -0.2389 -1.4058  0.2447
 4203SOL    HW213509   3.311   4.812   0.804 -0.6987  0.3022  0.0798
 4204SOL     OW13510   3.383   2.918   2.233 -0.2961 -0.4760  0.5455
 4204SOL    HW113511   3.345   2.932   2.141  0.9581 -1.3037 -0.1240
 4204SOL    HW213512   3.324   2.962   2.300 -0.5273  1.3235 -0.7721
 4205SOL     OW13513   3.779   4.901   3.889 -0.4003  0.3280  0.3651
 4205SOL    HW113514   3.730   4.934   3.808 -0.5765 -2.0184 -0.5541
 4205SOL    HW213515   3.876   4.892   3.868 -0.1230  1.4900  1.0450
 4206SOL     OW13516   4.889   0.582   6.533 -0.3652  0.0940 -0.7518
 4206SOL    HW113517   4.860   0.555   6.442 -1.7669 -0.1216 -0.2751
 4206SOL    HW213518   4.810   0.616   6.584  0.2597 -0.3922  0.5934
 4207SOL     OW13519   0.909   0.470   2.663  0.0349  0.1873  0.3469
 4207SOL    HW113520   0.910   0.548   2.726 -2.2064  0.1872  0.4545
 4207SOL    HW213521   0.828   0.475   2.605  0.7720 -1.1450 -0.8695
 4208SOL     OW13522   6.852   2.855   0.060 -0.2002  0.2759  0.3887
 4208SOL    HW113523   6.810   2.924   0.119  0.4139  1.9800 -1.0973
 4208SOL    HW213524   6.928   2.895   0.009 -0.8152 -1.0630 -1.7104
 4209SOL     OW13525   1.037   1.979   4.950 -0.1789  0.6181  0.4136
 4209SOL    HW113526   1.085   1.902   4.991 -1.9952 -1.0669 -0.4996
 4209SOL    HW213527   1.102   2.036   4.900  1.2307 -0.1918  1.2593
 4210SOL     OW13528   3.795   3.417   2.245 -0.6327 -0.6051 -0.5756
 4210SOL    HW113529   3.826   3.399   2.152 -1.3963 -0.8344 -0.7909
 4210SOL    HW213530   3.791   3.331   2.296  1.9832 -0.2460  0.3958
 4211SOL     OW13531   2.858   6.657   6.857 -0.2334 -0.1995 -0.5311
 4211SOL    HW113532   2.921   6.652   6.934 -0.7365  0.8215 -0.0245
 4211SOL    HW213533   2.895   6.719   6.788 -1.0780  1.1654  0.1927
 4212SOL     OW13534   4.729   2.821   2.735  0.4523  0.2311  0.3451
 4212SOL    HW113535   4.751   2.914   2.707  1.1796  0.1539  0.6555
 4212SOL    HW213536   4.751   2.808   2.832 -2.0178  0.4922  1.0070
 4213SOL     OW13537   2.349   2.250   2.237 -0.1628 -0.4125  0.7364
 4213SOL    HW113538   2.378   2.170   2.184  1.9836  0.7344  0.0776
 4213SOL    HW213539   2.337   2.224   2.333  0.6634 -1.4873  0.5656
 4214SOL     OW13540   6.485   2.126   5.504 -0.0657 -0.2238  0.0933
 4214SOL    HW113541   6.434   2.120   5.590  0.4762 -2.0927  0.3169
 4214SOL    HW213542   6.444   2.198   5.447 -1.8435 -0.4615  0.9769
 4215SOL     OW13543   6.910   6.141   3.934 -0.5265 -0.0503  0.1709
 4215SOL    HW113544   6.976   6.214   3.916 -1.6756  1.4132  1.6245
 4215SOL    HW213545   6.865   6.157   4.022 -2.0855 -1.5692 -0.2855
 4216SOL     OW13546   2.305   2.661   2.261  0.2334 -0.0501  0.7527
 4216SOL    HW113547   2.382   2.616   2.216  0.4834  0.7810  0.3304
 4216SOL    HW213548   2.236   2.686   2.194 -0.7907 -1.4989  1.2314
 4217SOL     OW13549   0.374   6.481   1.719  0.1434 -0.2916 -0.5554
 4217SOL    HW113550   0.367   6.566   1.667  1.9337 -1.8776 -3.6593
 4217SOL    HW213551   0.329   6.407   1.669 -0.7178 -1.4029  1.7074
 4218SOL     OW13552   5.134   5.207   6.979 -0.4960  0.0676 -0.3016
 4218SOL    HW113553   5.045   5.168   7.000  0.2530 -1.4327  0.2119
 4218SOL    HW213554   5.124   5.276   6.907 -2.3473  1.4515  1.1794
 4219SOL     OW13555   2.595   6.121   5.246 -0.7110 -0.1166  0.1593
 4219SOL    HW113556   2.663   6.186   5.211 -0.1283 -1.2106 -0.8345
 4219SOL    HW213557   2.517   6.171   5.283 -0.7695  1.1535 -1.5447
 4220SOL     OW13558   0.543   1.181   3.619 -0.9946  0.3648  0.1732
 4220SOL    HW113559   0.450   1.203   3.650 -1.3331 -0.4291 -0.2302
 4220SOL    HW213560   0.568   1.240   3.543 -2.2607 -1.1900 -1.5376
 4221SOL     OW13561   5.762   0.096   6.138  0.0193  0.5559 -0.1552
 4221SOL    HW113562   5.671   0.117   6.176 -0.0940  1.4830 -0.9275
 4221SOL    HW213563   5.815   0.046   6.207 -0.5757  1.2398  0.8302
 4222SOL     OW13564   6.019   2.999   3.052 -0.0700  0.3375  0.0302
 4222SOL    HW113565   6.083   3.045   2.991  0.8578 -0.5391  0.3157
 4222SOL    HW213566   6.065   2.922   3.097 -1.4361 -0.5761 -0.0656
 4223SOL     OW13567   2.445   2.225   5.594 -0.0147  0.7192 -0.2604
 4223SOL    HW113568   2.544   2.209   5.600 -0.2062 -0.3165  0.5353
 4223SOL    HW213569   2.401   2.142   5.560 -0.8265  0.3052  1.6470
 4224SOL     OW13570   5.606   0.819   5.196  0.2358 -0.4763 -0.5790
 4224SOL    HW113571   5.629   0.722   5.199  0.4802 -0.5237 -2.5696
 4224SOL    HW213572   5.578   0.849   5.287 -0.7153 -2.6114 -0.0872
 4225SOL     OW13573   5.364   0.612   3.263 -0.4602 -0.5534  0.2422
 4225SOL    HW113574   5.275   0.651   3.238  1.0729  2.2608 -1.3471
 4225SOL    HW213575   5.395   0.652   3.349  0.0036 -0.1995 -0.0842
 4226SOL     OW13576   1.889   6.465   3.224 -0.2622  0.1621  0.6898
 4226SOL    HW113577   1.942   6.380   3.231  0.0663  0.3456  0.4591
 4226SOL    HW213578   1.948   6.538   3.191 -0.8614  0.1778 -0.4068
 4227SOL     OW13579   3.431   3.747   6.708 -0.1748  0.5068  0.1903
 4227SOL    HW113580   3.402   3.653   6.693 -0.0109  0.3419  0.9033
 4227SOL    HW213581   3.514   3.749   6.763 -0.5366  1.0916  0.7329
 4228SOL     OW13582   6.611   4.337   4.465 -0.2392 -0.2096 -0.1422
 4228SOL    HW113583   6.520   4.298   4.459  0.2782 -1.5213  0.2353
 4228SOL    HW213584   6.678   4.271   4.432  0.6702  0.3228  0.5822
 4229SOL     OW13585   3.887   5.173   4.185  0.1065  0.4984 -0.0254
 4229SOL    HW113586   3.832   5.093   4.159  0.8789  0.2742 -1.0297
 4229SOL    HW213587   3.937   5.152   4.270 -0.0914  0.0992 -0.0024
 4230SOL     OW13588   2.250   6.347   3.281 -0.7221 -0.5708  0.3107
 4230SOL    HW113589   2.336   6.352   3.332 -0.4405  0.2747 -0.2248
 4230SOL    HW213590   2.267   6.312   3.189 -1.0147 -0.7811  0.3345
 4231SOL     OW13591   4.556   5.735   4.669  0.9451  0.5878 -0.0485
 4231SOL    HW113592   4.649   5.751   4.636  0.6494  0.1684 -1.1362
 4231SOL    HW213593   4.526   5.643   4.641  0.1098  0.8279  0.0314
 4232SOL     OW13594   1.815   5.318   1.614  0.1649 -0.3119  0.0438
 4232SOL    HW113595   1.808   5.278   1.706 -0.1125  0.4717  0.3679
 4232SOL    HW213596   1.739   5.381   1.599 -1.9455 -3.1240 -2.1092
 4233SOL     OW13597   6.612   0.189   5.335  0.5162  0.8719 -0.2622
 4233SOL    HW113598   6.679   0.138   5.281 -1.3658  0.1231 -2.0158
 4233SOL    HW213599   6.653   0.214   5.423  2.3420 -1.4996 -0.3243
 4234SOL     OW13600   1.455   0.466   0.434 -0.0087 -0.5221  0.2701
 4234SOL    HW113601   1.482   0.443   0.527 -0.8136  0.5564  0.7949
 4234SOL    HW213602   1.535   0.501   0.384  0.7616 -2.4727  0.0675
 4235SOL     OW13603   6.184   4.611   4.300 -0.3312  0.5022 -0.0299
 4235SOL    HW113604   6.145   4.652   4.383  1.0593  0.4625  0.6737
 4235SOL    HW213605   6.191   4.680   4.228  0.5658  1.1324  0.6436
 4236SOL     OW13606   1.490   2.694   3.131  0.8197  0.5043 -0.0743
 4236SOL    HW113607   1.427   2.770   3.147  0.4388  0.1523  0.1095
 4236SOL    HW213608   1.553   2.686   3.207 -0.9688 -1.1504  1.3388
 4237SOL     OW13609   1.715   5.183   3.201 -0.3539 -0.0529 -0.2169
 4237SOL    HW113610   1.656   5.223   3.271 -2.4420 -3.0161 -0.0940
 4237SOL    HW213611   1.788   5.130   3.246 -0.1927  0.0608 -0.3415
 4238SOL     OW13612   5.002   4.126   3.797  0.0667 -0.4477  0.3978
 4238SOL    HW113613   4.905   4.147   3.784 -0.4211 -2.3616  0.5202
 4238SOL    HW213614   5.015   4.080   3.884  1.1891  0.2368  0.6163
 4239SOL     OW13615   5.558   0.428   3.504  0.0433 -0.2992 -0.8313
 4239SOL    HW113616   5.636   0.440   3.442 -0.5770  0.5817 -1.4678
 4239SOL    HW213617   5.496   0.506   3.495 -0.6926 -0.7714 -0.0066
 4240SOL     OW13618   2.104   0.011   1.145 -0.0495 -0.2296  0.0751
 4240SOL    HW113619   2.178  -0.012   1.208  0.8840 -2.5605 -1.7260
 4240SOL    HW213620   2.121   0.101   1.104 -0.0933  0.8113  2.2134
 4241SOL     OW13621   4.901   1.076   1.546 -0.2056 -0.2902 -0.6850
 4241SOL    HW113622   4.973   1.146   1.540  0.7643 -1.1626  0.1615
 4241SOL    HW213623   4.812   1.119   1.537  0.2996  1.2692  1.0118
 4242SOL     OW13624   2.501   0.083   4.239  0.1596 -0.0413 -0.1701
 4242SOL    HW113625   2.458   0.068   4.328 -1.2746  3.7388 -0.0574
 4242SOL    HW213626   2.433   0.067   4.167  0.6535 -0.8736 -0.4583
 4243SOL     OW13627   0.710   4.341   2.902 -0.0770 -0.2181  0.0063
 4243SOL    HW113628   0.797   4.336   2.950 -0.0474  0.8937  0.0860
 4243SOL    HW213629   0.708   4.423   2.845 -1.9883  1.0822  1.8261
 4244SOL     OW13630   4.088   5.974   0.565  0.2766 -0.1518 -0.2385
 4244SOL    HW113631   4.184   6.001   0.562  0.5041 -0.9703 -0.4500
 4244SOL    HW213632   4.064   5.946   0.658 -1.1113  4.7563  1.2093
 4245SOL     OW13633   5.167   1.857   6.657  0.1396  0.6106  0.2138
 4245SOL    HW113634   5.249   1.830   6.707 -0.4563 -0.0199  0.8762
 4245SOL    HW213635   5.184   1.944   6.610  0.8779  0.9896  1.1351
 4246SOL     OW13636   5.936   3.354   3.565  0.0481  0.1949  0.0311
 4246SOL    HW113637   5.856   3.414   3.556  0.4575  0.6808 -0.4359
 4246SOL    HW213638   6.004   3.397   3.625  0.2976  0.1552 -0.2194
 4247SOL     OW13639   3.903   5.224   2.354 -0.0557  0.5241  0.0041
 4247SOL    HW113640   3.886   5.186   2.263  0.4307 -0.0920  0.1649
 4247SOL    HW213641   3.889   5.152   2.422  1.2765  0.5062  0.2868
 4248SOL     OW13642   0.845   0.224   3.493  0.2987  0.7850  0.1750
 4248SOL    HW113643   0.853   0.323   3.495 -0.8052  0.9044 -0.6154
 4248SOL    HW213644   0.871   0.190   3.402  1.2087  0.2841  0.6032
 4249SOL     OW13645   0.266   1.766   3.369  0.0670  0.1853 -0.3040
 4249SOL    HW113646   0.203   1.691   3.389 -1.4777  1.0746 -1.6866
 4249SOL    HW213647   0.354   1.728   3.339 -0.8681 -1.0999 -1.5313
 4250SOL     OW13648   2.499   6.101   6.211 -0.1696  0.2639  0.1109
 4250SOL    HW113649   2.454   6.157   6.142 -1.5017 -1.1168 -0.2099
 4250SOL    HW213650   2.534   6.159   6.284 -2.2263  1.4588  0.2134
 4251SOL     OW13651   0.659   2.973   6.699  0.3617  0.2666 -0.2907
 4251SOL    HW113652   0.752   2.950   6.671  0.5229  1.1147 -0.4709
 4251SOL    HW213653   0.652   2.966   6.799  0.7942  0.8089 -0.2194
 4252SOL     OW13654   6.903   6.857   6.542 -0.0280  0.0615  0.3884
 4252SOL    HW113655   6.932   6.851   6.637  1.2196  1.5430  0.1315
 4252SOL    HW213656   6.879   6.952   6.520  1.1778  0.0323 -1.1790
 4253SOL     OW13657   3.000   6.019   2.627 -0.2892  0.2619  0.2706
 4253SOL    HW113658   3.035   5.929   2.603  1.2863  0.7926  0.4354
 4253SOL    HW213659   2.916   6.009   2.681  0.6954 -1.1717  1.6447
 4254SOL     OW13660   2.448   4.463   2.335 -0.1753  0.2093  0.4292
 4254SOL    HW113661   2.356   4.503   2.344  0.4743  2.0210 -0.4490
 4254SOL    HW213662   2.441   4.364   2.332 -2.1440  0.3162  0.0959
 4255SOL     OW13663   0.603   2.436   4.167 -0.1612  0.0253 -0.6832
 4255SOL    HW113664   0.505   2.416   4.169  0.1210 -1.4561  0.8822
 4255SOL    HW213665   0.621   2.515   4.225 -0.0126 -2.3930  2.9001
 4256SOL     OW13666   1.498   0.419   6.866 -0.4442  0.1058  0.4911
 4256SOL    HW113667   1.503   0.483   6.789 -3.0664 -1.5445 -1.2293
 4256SOL    HW213668   1.539   0.332   6.839 -1.6832 -0.5934  0.8126
 4257SOL     OW13669   4.425   1.155   5.530 -0.6894  0.1132  0.5814
 4257SOL    HW113670   4.328   1.134   5.519 -0.5458 -0.6812  0.7728
 4257SOL    HW213671   4.453   1.133   5.623  0.1763 -1.7971 -0.0836
 4258SOL     OW13672   3.957   6.208   1.516  0.3263  0.7804  0.2573
 4258SOL    HW113673   3.898   6.128   1.506 -0.3076  1.0532  1.5691
 4258SOL    HW213674   4.030   6.205   1.448  1.4874 -1.9206  1.4892
 4259SOL     OW13675   0.739   1.957   0.774 -0.2623  0.3661  0.6446
 4259SOL    HW113676   0.705   1.866   0.798 -0.0157  0.0151 -0.2920
 4259SOL    HW213677   0.734   2.017   0.854 -1.0499 -0.2799  1.0952
 4260SOL     OW13678   4.250   6.790   4.684  0.0998  0.5153 -0.2904
 4260SOL    HW113679   4.203   6.836   4.759 -3.0073 -1.6432 -0.7540
 4260SOL    HW213680   4.221   6.832   4.597 -1.4500 -1.1200 -0.6081
 4261SOL     OW13681   2.056   2.231   5.796 -0.5037 -0.4552 -0.0673
 4261SOL    HW113682   2.039   2.136   5.822 -4.1219  0.1035  0.0085
 4261SOL    HW213683   1.978   2.267   5.746  0.8729  2.4726 -0.3256
 4262SOL     OW13684   1.929   4.526   5.800  0.8205  0.3710  0.1460
 4262SOL    HW113685   1.874   4.557   5.722  1.6101  0.3016 -0.4638
 4262SOL    HW213686   1.882   4.451   5.847  0.0274  0.8573  0.1413
 4263SOL     OW13687   1.510   1.900   6.048 -0.4623  0.1326 -0.3327
 4263SOL    HW113688   1.461   1.837   5.988  0.6091 -0.1180 -0.9786
 4263SOL    HW213689   1.497   1.873   6.143  1.6608 -2.4041 -0.6484
 4264SOL     OW13690   1.212   6.845   5.678 -0.1258 -0.4474  1.4975
 4264SOL    HW113691   1.274   6.921   5.697 -0.5777  1.0622 -2.2271
 4264SOL    HW213692   1.258   6.778   5.619 -1.1712 -0.7290  0.9784
 4265SOL     OW13693   5.283   0.988   1.376  0.0429 -0.3869 -0.0918
 4265SOL    HW113694   5.345   0.910   1.381  0.4850 -0.1174 -1.0233
 4265SOL    HW213695   5.194   0.958   1.340  0.1651 -0.4955 -0.3083
 4266SOL     OW13696   0.832   0.534   0.270 -0.3292  0.0425  0.1605
 4266SOL    HW113697   0.805   0.458   0.212 -1.6530  1.7673 -1.6490
 4266SOL    HW213698   0.814   0.512   0.366 -1.2059 -1.6748 -0.3601
 4267SOL     OW13699   0.730   3.761   3.562 -0.4232  0.8132  0.5673
 4267SOL    HW113700   0.727   3.666   3.595  0.2237  1.0104  1.2273
 4267SOL    HW213701   0.781   3.764   3.476  0.0902  0.6411  0.8593
 4268SOL     OW13702   1.378   5.956   0.621  0.2908  0.2551  0.2465
 4268SOL    HW113703   1.433   5.994   0.695 -0.7116  2.9074 -0.2655
 4268SOL    HW213704   1.310   5.893   0.659  0.4288  0.8119  1.4605
 4269SOL     OW13705   2.785   1.994   3.994 -0.7599  0.2822 -0.4545
 4269SOL    HW113706   2.693   2.006   3.957 -0.9628 -1.0945 -0.4494
 4269SOL    HW213707   2.800   2.058   4.069 -1.8330  0.2943 -0.2392
 4270SOL     OW13708   2.692   3.192   1.681 -0.3997  0.0963  0.0842
 4270SOL    HW113709   2.761   3.137   1.729 -0.6667 -0.1083  0.2308
 4270SOL    HW213710   2.612   3.136   1.660 -0.5076  0.3237 -0.1261
 4271SOL     OW13711   6.986   0.950   1.395  0.6841 -0.0062  0.3364
 4271SOL    HW113712   7.009   0.959   1.492 -2.2707  1.5267  1.0398
 4271SOL    HW213713   7.047   1.009   1.341 -0.5004  2.8836  1.8915
 4272SOL     OW13714   6.155   3.532   3.703 -0.4218  0.0051 -0.1750
 4272SOL    HW113715   6.207   3.617   3.710  1.1253 -1.0040  1.4069
 4272SOL    HW213716   6.199   3.461   3.758 -1.5980 -1.8802 -1.5337
 4273SOL     OW13717   4.663   6.543   5.627  0.5593  0.2842 -0.0203
 4273SOL    HW113718   4.732   6.562   5.557  2.1279  0.0860  1.4182
 4273SOL    HW213719   4.692   6.466   5.683 -0.9699  0.0342  0.4841
 4274SOL     OW13720   1.538   2.082   2.798 -0.1132  0.3779 -0.2432
 4274SOL    HW113721   1.572   2.080   2.703  2.4196 -0.3906  0.5943
 4274SOL    HW213722   1.526   1.989   2.831 -0.4999  0.6355  0.3503
 4275SOL     OW13723   2.002   2.504   3.425 -0.0534 -0.1768 -0.5302
 4275SOL    HW113724   2.060   2.434   3.383  1.1535  0.1360  0.5415
 4275SOL    HW213725   1.971   2.472   3.514 -0.5441  0.1482 -0.5837
 4276SOL     OW13726   2.963   6.008   4.453  0.0464 -0.6661 -0.4224
 4276SOL    HW113727   2.930   6.100   4.472 -2.6094 -1.8398  1.2321
 4276SOL    HW213728   3.049   5.992   4.501  0.0197  0.6171  0.0750
 4277SOL     OW13729   6.456   4.578   3.397  0.2325  0.8341  0.1248
 4277SOL    HW113730   6.523   4.615   3.332 -0.6320  1.0310 -0.6720
 4277SOL    HW213731   6.417   4.494   3.359  1.7473 -0.6307  1.6475
 4278SOL     OW13732   2.289   5.273   3.480  0.2168  0.1018 -0.4803
 4278SOL    HW113733   2.338   5.351   3.518  0.0824 -0.5659  1.1487
 4278SOL    HW213734   2.350   5.193   3.480 -0.6008 -0.5472  0.8431
 4279SOL     OW13735   0.591   1.617   3.809  0.2415  0.7349 -0.1018
 4279SOL    HW113736   0.495   1.607   3.783  0.1683 -2.1336  0.8209
 4279SOL    HW213737   0.649   1.598   3.729  0.0729  2.2095 -0.5958
 4280SOL     OW13738   6.209   6.467   3.927  0.5620  0.0639 -0.0108
 4280SOL    HW113739   6.135   6.531   3.947  1.9100  1.5412  0.5262
 4280SOL    HW213740   6.204   6.438   3.832 -2.0241 -1.7327  0.5840
 4281SOL     OW13741   3.246   4.234   1.702  0.2576 -0.2366 -0.5986
 4281SOL    HW113742   3.238   4.149   1.650 -0.8161 -0.5558  0.0633
 4281SOL    HW213743   3.339   4.270   1.692  0.1244 -0.3270 -2.6449
 4282SOL     OW13744   3.578   5.131   6.918 -0.3550 -0.1765 -0.6841
 4282SOL    HW113745   3.513   5.150   6.844 -0.4115 -1.0178 -0.8580
 4282SOL    HW213746   3.602   5.034   6.917 -0.2927 -0.1773  0.3547
 4283SOL     OW13747   4.011   0.830   1.301  0.1023 -0.6652  0.6370
 4283SOL    HW113748   4.087   0.820   1.237 -0.3267  1.1747 -0.2107
 4283SOL    HW213749   4.042   0.877   1.383 -0.7231  3.5270 -1.2004
 4284SOL     OW13750   3.755   3.497   6.039 -1.0397 -0.3541 -0.3848
 4284SOL    HW113751   3.754   3.561   5.962 -0.5721 -0.8595 -0.8199
 4284SOL    HW213752   3.846   3.456   6.047 -1.6271 -1.8045 -0.8180
 4285SOL     OW13753   2.778   1.559   5.276 -0.3808 -0.0836 -0.2371
 4285SOL    HW113754   2.722   1.532   5.354  1.4725 -0.0772  1.1527
 4285SOL    HW213755   2.852   1.494   5.263  0.5172  0.9977 -0.7208
 4286SOL     OW13756   6.757   1.708   5.313  0.0419  0.6660 -0.3715
 4286SOL    HW113757   6.786   1.680   5.404  1.3346  2.4669 -0.1723
 4286SOL    HW213758   6.780   1.637   5.247  1.2389  0.3135  0.3915
 4287SOL     OW13759   3.284   0.412   5.656 -0.1061 -0.0316 -0.8107
 4287SOL    HW113760   3.345   0.356   5.600 -1.4366 -2.7995  0.3117
 4287SOL    HW213761   3.201   0.432   5.604  0.4352  1.1217 -1.2687
 4288SOL     OW13762   0.726   0.211   2.697 -0.6287 -0.0598  0.1524
 4288SOL    HW113763   0.779   0.128   2.676 -1.0434 -0.7423  1.6958
 4288SOL    HW213764   0.788   0.281   2.731 -0.5788 -0.5622  1.1261
 4289SOL     OW13765   3.057   2.437   1.441 -0.0096  0.0294  0.0603
 4289SOL    HW113766   3.130   2.458   1.376  0.3627 -0.9944  0.1326
 4289SOL    HW213767   3.097   2.405   1.527 -0.4160  2.8417  1.4202
 4290SOL     OW13768   5.704   1.554   4.694 -0.8421 -0.4679 -0.2773
 4290SOL    HW113769   5.673   1.470   4.649 -1.0323  0.2026 -1.4473
 4290SOL    HW213770   5.801   1.545   4.718 -0.0971 -0.0645 -2.8576
 4291SOL     OW13771   0.193   4.933   5.777 -0.1409 -0.5581 -0.1404
 4291SOL    HW113772   0.274   4.886   5.811 -0.1291  0.8957  2.0079
 4291SOL    HW213773   0.111   4.884   5.805 -0.0794 -0.9807 -0.6658
 4292SOL     OW13774   4.837   3.575   6.669 -0.1311  0.3256 -0.0976
 4292SOL    HW113775   4.924   3.548   6.628 -0.2368  1.9452 -1.5144
 4292SOL    HW213776   4.766   3.509   6.644  0.2761  0.1106 -0.7106
 4293SOL     OW13777   2.100   6.754   5.640 -0.1453 -0.6019 -0.2821
 4293SOL    HW113778   2.004   6.782   5.640 -0.2632 -0.9828 -0.9745
 4293SOL    HW213779   2.125   6.720   5.549 -0.4916 -4.2822  0.8526
 4294SOL     OW13780   3.685   1.410   4.941  0.1335  0.2611 -0.0090
 4294SOL    HW113781   3.776   1.405   4.900  0.1065 -0.2044 -0.0126
 4294SOL    HW213782   3.652   1.505   4.936  0.1729  0.2365 -0.9754
 4295SOL     OW13783   4.117   6.149   3.376 -0.6334 -0.3027 -0.3333
 4295SOL    HW113784   4.185   6.212   3.339 -0.0198 -0.2393  0.8672
 4295SOL    HW213785   4.162   6.079   3.432 -1.2445 -2.1050 -1.9561
 4296SOL     OW13786   3.274   0.627   0.289  0.1493  0.5498 -0.3272
 4296SOL    HW113787   3.313   0.625   0.381  0.1662 -1.6321 -0.3215
 4296SOL    HW213788   3.279   0.535   0.249 -2.0504  0.9060 -1.5815
 4297SOL     OW13789   6.331   1.915   2.603 -0.4264  0.3248  1.0727
 4297SOL    HW113790   6.321   1.900   2.701 -1.3999 -0.8836  0.8102
 4297SOL    HW213791   6.312   1.830   2.554 -0.0178  0.9272 -0.1775
 4298SOL     OW13792   2.468   5.323   1.936 -1.1155 -0.5698 -0.6373
 4298SOL    HW113793   2.509   5.337   1.846 -0.1229  1.8336  0.0931
 4298SOL    HW213794   2.420   5.236   1.938 -1.5843 -0.4765 -3.6322
 4299SOL     OW13795   2.773   3.754   5.982 -0.9380  0.0791 -0.3977
 4299SOL    HW113796   2.774   3.850   6.010  0.1482 -0.4355  1.5366
 4299SOL    HW213797   2.704   3.705   6.034 -0.1741 -0.5456  0.0522
 4300SOL     OW13798   3.422   0.356   2.379 -0.4232 -0.4238  0.1179
 4300SOL    HW113799   3.423   0.377   2.476  0.5649 -2.5566  0.6142
 4300SOL    HW213800   3.506   0.389   2.336  0.8760 -2.6726  0.7866
 4301SOL     OW13801   3.043   5.570   1.989 -0.3011  0.1806  0.2667
 4301SOL    HW113802   3.033   5.476   2.022  0.1350 -0.1525 -0.5328
 4301SOL    HW213803   3.065   5.569   1.892 -0.0134  1.1072  0.3173
 4302SOL     OW13804   6.274   0.001   5.691 -0.3152  0.4193 -0.2003
 4302SOL    HW113805   6.334  -0.041   5.759 -0.2681 -0.5712 -0.8405
 4302SOL    HW213806   6.329   0.054   5.627 -0.3723  1.4745  0.5880
 4303SOL     OW13807   6.614   5.302   1.717  0.0523 -0.3591 -0.0714
 4303SOL    HW113808   6.699   5.349   1.739 -0.3452  0.1155  0.4879
 4303SOL    HW213809   6.605   5.221   1.775 -0.8247  0.6966  1.3184
 4304SOL     OW13810   2.895   3.433   0.936  0.0827 -0.9631  0.0465
 4304SOL    HW113811   2.828   3.403   0.868  0.3744 -0.9916 -0.2258
 4304SOL    HW213812   2.888   3.374   1.017 -1.4321  0.0986  0.7516
 4305SOL     OW13813   6.767   6.408   6.336 -0.3370  0.1041  0.2107
 4305SOL    HW113814   6.694   6.462   6.378  0.1786  1.4675 -0.5834
 4305SOL    HW213815   6.762   6.416   6.236  0.9333  0.3095  0.1370
 4306SOL     OW13816   4.521   5.525   2.774  0.3993  0.2126 -0.0338
 4306SOL    HW113817   4.515   5.454   2.704  1.0543  0.0139  0.1030
 4306SOL    HW213818   4.471   5.497   2.855 -0.3119  0.4163 -0.3936
 4307SOL     OW13819   4.734   4.231   3.853 -0.2602 -0.0022  0.1038
 4307SOL    HW113820   4.709   4.261   3.945 -0.2187  0.2347  0.0394
 4307SOL    HW213821   4.659   4.252   3.790 -0.3591 -0.3218  0.1153
 4308SOL     OW13822   3.905   5.642   0.557 -0.2877 -0.5003 -0.2028
 4308SOL    HW113823   3.854   5.562   0.528 -0.7009 -1.1848  2.2422
 4308SOL    HW213824   3.856   5.689   0.630 -0.4314  2.4718 -2.0215
 4309SOL     OW13825   6.365   2.569   6.091 -0.5355 -0.1017 -0.3463
 4309SOL    HW113826   6.271   2.537   6.084 -0.1113 -1.5482  0.2585
 4309SOL    HW213827   6.424   2.515   6.032 -0.2246  1.5737 -1.6530
 4310SOL     OW13828   6.982   2.995   0.767 -0.6955 -0.6148  0.5737
 4310SOL    HW113829   7.024   2.939   0.839 -1.5065 -2.5331 -0.3763
 4310SOL    HW213830   6.897   2.953   0.737 -0.8961  0.6805 -0.8230
 4311SOL     OW13831   2.161   1.023   4.509 -0.4684  0.0240  0.3842
 4311SOL    HW113832   2.213   0.948   4.548  0.4171  0.5277  0.1847
 4311SOL    HW213833   2.154   1.011   4.410  1.2683  1.1396  0.0920
 4312SOL     OW13834   3.545   5.249   2.755 -0.2380  0.3437  0.3112
 4312SOL    HW113835   3.630   5.297   2.778 -0.5922  0.8714  0.5353
 4312SOL    HW213836   3.551   5.215   2.661  0.1861  0.4624  0.2912
 4313SOL     OW13837   5.271   3.152   4.988 -0.7135 -0.7371  0.5684
 4313SOL    HW113838   5.254   3.243   5.027 -0.2288 -0.7128  0.7228
 4313SOL    HW213839   5.349   3.110   5.033 -1.0853 -1.3371  0.6701
 4314SOL     OW13840   5.387   0.645   5.739  0.1931  0.0891  0.3036
 4314SOL    HW113841   5.307   0.652   5.680 -0.2291 -0.6163  0.7752
 4314SOL    HW213842   5.357   0.632   5.834  0.8689 -0.3329  0.4645
 4315SOL     OW13843   3.478   1.058   4.602  0.0252  0.1459  0.2556
 4315SOL    HW113844   3.518   0.975   4.564 -0.5603 -0.7401  1.5341
 4315SOL    HW213845   3.533   1.137   4.573  0.3004 -0.6098 -1.3694
 4316SOL     OW13846   3.583   0.663   2.146  0.0905 -0.0182  0.3228
 4316SOL    HW113847   3.523   0.721   2.201 -2.5609 -1.2854 -1.0850
 4316SOL    HW213848   3.633   0.720   2.080  1.4485  1.1958  2.2899
 4317SOL     OW13849   5.067   0.243   5.243  0.2784  0.1322 -0.2982
 4317SOL    HW113850   5.162   0.236   5.212  0.0149 -0.7215 -0.9892
 4317SOL    HW213851   5.063   0.229   5.342  0.9593  1.1086 -0.1159
 4318SOL     OW13852   0.318   2.354   4.698  0.0234 -0.3672 -0.3696
 4318SOL    HW113853   0.401   2.381   4.649  0.3196 -0.1919  0.2275
 4318SOL    HW213854   0.270   2.436   4.731  0.0935 -0.5008  0.0732
 4319SOL     OW13855   0.489   2.832   1.644 -0.3300 -0.3398  0.6521
 4319SOL    HW113856   0.400   2.808   1.606 -0.0206  0.2500 -0.4861
 4319SOL    HW213857   0.496   2.931   1.653  0.5317 -0.3225 -0.0938
 4320SOL     OW13858   3.875   6.810   0.957 -0.5827 -0.3131 -0.3152
 4320SOL    HW113859   3.897   6.726   1.006  2.8349  0.8900  0.4868
 4320SOL    HW213860   3.840   6.878   1.021 -0.3323 -0.1184 -0.3866
 4321SOL     OW13861   6.415   3.273   4.286 -0.0024 -0.0620 -0.4544
 4321SOL    HW113862   6.513   3.253   4.286 -0.1894 -1.0435  0.1731
 4321SOL    HW213863   6.377   3.255   4.195  0.4245  0.5114 -0.7544
 4322SOL     OW13864   4.935   3.037   6.824  0.1286 -0.5201 -0.0879
 4322SOL    HW113865   5.027   3.005   6.801  1.3351  2.0457  0.7330
 4322SOL    HW213866   4.926   3.133   6.797 -2.8466 -1.0540 -1.4062
 4323SOL     OW13867   5.133   5.584   0.433  0.3624  0.6818 -0.9013
 4323SOL    HW113868   5.063   5.521   0.400  0.1593  0.3485  0.1355
 4323SOL    HW213869   5.222   5.558   0.394  0.0415  0.6640 -1.6397
 4324SOL     OW13870   0.443   4.836   5.876 -0.1806 -0.4220  0.0796
 4324SOL    HW113871   0.508   4.876   5.811 -0.4718 -1.6810 -1.0446
 4324SOL    HW213872   0.476   4.851   5.969  0.6945  0.6869 -0.3767
 4325SOL     OW13873   4.523   0.663   2.708 -0.5508 -0.2346  0.1622
 4325SOL    HW113874   4.519   0.576   2.757  0.1777 -0.2968  0.1198
 4325SOL    HW213875   4.437   0.713   2.722 -0.4148 -0.3126  1.3786
 4326SOL     OW13876   3.805   4.574   0.754 -0.6544 -0.4523  0.0180
 4326SOL    HW113877   3.896   4.581   0.712 -0.0218  0.2020  1.4261
 4326SOL    HW213878   3.735   4.577   0.682  0.4336 -1.4337 -1.1285
 4327SOL     OW13879   3.845   5.560   3.246  0.2530  0.0676  0.0516
 4327SOL    HW113880   3.887   5.617   3.175 -0.6633 -0.9168 -1.3284
 4327SOL    HW213881   3.828   5.615   3.327 -0.3404  1.6955 -1.1312
 4328SOL     OW13882   6.212   4.292   4.996  0.3542  0.2191  0.2855
 4328SOL    HW113883   6.288   4.313   5.058  1.0562  0.2260 -0.5495
 4328SOL    HW213884   6.174   4.377   4.959  0.6864  0.1900 -0.1465
 4329SOL     OW13885   6.274   1.781   4.526 -0.4606 -0.4768  0.5571
 4329SOL    HW113886   6.192   1.770   4.470 -0.8996  1.8529  0.6430
 4329SOL    HW213887   6.259   1.852   4.594  1.6121 -0.0211  0.6219
 4330SOL     OW13888   2.120   5.718   2.099  0.4062 -0.0773  0.0814
 4330SOL    HW113889   2.134   5.733   2.001 -1.8319 -0.3111 -0.3262
 4330SOL    HW213890   2.208   5.702   2.143  1.3209 -2.5569 -2.3390
 4331SOL     OW13891   0.211   6.758   2.114  0.3263  0.2682 -0.0099
 4331SOL    HW113892   0.248   6.816   2.187 -0.1698 -0.2618  0.6692
 4331SOL    HW213893   0.279   6.750   2.041 -0.5547  3.8874 -1.4162
 4332SOL     OW13894   0.331   4.846   1.609  0.5294 -0.0735  0.6858
 4332SOL    HW113895   0.267   4.894   1.669  0.6535 -0.4462  1.1227
 4332SOL    HW213896   0.381   4.912   1.553 -1.1804  0.1609 -0.6361
 4333SOL     OW13897   3.326   2.120   3.094 -0.0425  0.5210  0.0530
 4333SOL    HW113898   3.381   2.152   3.171  1.1778  1.0252 -0.9769
 4333SOL    HW213899   3.382   2.122   3.011 -1.4370  0.3663 -0.9198
 4334SOL     OW13900   6.395   3.288   2.176 -0.0684  0.2437 -0.8325
 4334SOL    HW113901   6.416   3.347   2.098  0.4387  0.2709 -0.6792
 4334SOL    HW213902   6.474   3.231   2.197  0.2063  1.0154  0.3543
 4335SOL     OW13903   2.770   2.716   0.645  0.0973  0.1367 -0.1459
 4335SOL    HW113904   2.823   2.665   0.713  0.4705  1.9499  0.9784
 4335SOL    HW213905   2.673   2.702   0.662  0.1897  0.0695  0.3470
 4336SOL     OW13906   1.230   5.238   6.834  0.5302 -0.2786 -0.3613
 4336SOL    HW113907   1.265   5.144   6.835 -0.6819 -0.7501 -0.3402
 4336SOL    HW213908   1.180   5.255   6.920  1.1923  0.5670 -0.1363
 4337SOL     OW13909   1.848   5.054   0.863 -0.7901 -0.0985  0.0489
 4337SOL    HW113910   1.815   5.147   0.847 -0.6632  0.0854  0.8119
 4337SOL    HW213911   1.783   5.005   0.922 -1.7932 -1.1074 -1.7883
 4338SOL     OW13912   5.181   0.618   7.004 -0.5292 -0.2568  0.3207
 4338SOL    HW113913   5.212   0.524   7.023 -0.5872 -0.0633  1.4462
 4338SOL    HW213914   5.213   0.678   7.077  1.9531  1.1725 -1.7737
 4339SOL     OW13915   4.346   3.183   6.830  0.0866  0.2586 -0.1331
 4339SOL    HW113916   4.289   3.116   6.782  1.5765 -0.2035 -1.3686
 4339SOL    HW213917   4.442   3.160   6.816  0.6296  2.2181  0.0781
 4340SOL     OW13918   4.637   4.300   6.992 -0.0897 -0.2488 -0.2992
 4340SOL    HW113919   4.585   4.369   7.042  0.1167 -1.1005  1.1290
 4340SOL    HW213920   4.672   4.232   7.056  2.6429  0.1829 -1.2296
 4341SOL     OW13921   0.740   4.281   1.785  0.3635  0.1325  0.2096
 4341SOL    HW113922   0.820   4.295   1.842 -0.2824 -0.0625  1.1901
 4341SOL    HW213923   0.663   4.335   1.820  0.4085  1.4260 -1.5275
 4342SOL     OW13924   6.117   3.571   3.135  0.0311 -0.5304 -0.2315
 4342SOL    HW113925   6.198   3.513   3.131 -0.0109 -0.5735 -0.5479
 4342SOL    HW213926   6.134   3.649   3.195  0.4587 -0.3156 -0.6234
 4343SOL     OW13927   3.537   0.050   4.461  0.1016  0.0359  0.3976
 4343SOL    HW113928   3.623   0.001   4.469  0.2666  0.1617 -0.5546
 4343SOL    HW213929   3.463  -0.015   4.445  0.3954  0.1071 -1.4191
 4344SOL     OW13930   6.893   3.703   4.479 -0.1081 -0.1872  0.3425
 4344SOL    HW113931   6.876   3.640   4.403  0.0713 -1.3517  1.2372
 4344SOL    HW213932   6.925   3.791   4.443  2.4591 -1.5128 -0.8632
 4345SOL     OW13933   3.397   3.510   6.242 -0.2877 -0.4347  0.0770
 4345SOL    HW113934   3.339   3.481   6.166 -1.0614 -0.4785  0.6746
 4345SOL    HW213935   3.478   3.556   6.206  0.0172 -1.6312 -0.8175
 4346SOL     OW13936   1.551   3.455   2.705 -0.0525 -0.2670  0.3980
 4346SOL    HW113937   1.570   3.430   2.800 -1.5057 -0.5151  0.6383
 4346SOL    HW213938   1.473   3.402   2.671  0.2293  0.0707 -0.8319
 4347SOL     OW13939   6.349   6.154   2.302  0.2797 -0.4892  0.0579
 4347SOL    HW113940   6.422   6.149   2.371  0.2152  0.6297  0.2305
 4347SOL    HW213941   6.387   6.193   2.218  0.0589 -0.6355 -0.1071
 4348SOL     OW13942   1.391   5.602   5.417  0.1512  0.6483 -0.0189
 4348SOL    HW113943   1.480   5.623   5.376  0.4647 -0.5268  0.0098
 4348SOL    HW213944   1.342   5.538   5.358  1.0016 -1.8159  1.8050
 4349SOL     OW13945   5.710   1.886   4.019  0.2130  0.3115 -0.6072
 4349SOL    HW113946   5.686   1.864   4.113  0.9005 -0.6581 -0.6457
 4349SOL    HW213947   5.809   1.879   4.007  0.0763 -0.2445 -1.5644
 4350SOL     OW13948   4.929   2.537   4.311 -0.0735 -0.0784  0.2275
 4350SOL    HW113949   4.905   2.441   4.305  0.7167 -0.3636  1.3209
 4350SOL    HW213950   4.846   2.593   4.308 -0.5072 -0.7562 -0.8005
 4351SOL     OW13951   1.372   4.855   1.144  0.1169  0.6102 -0.2955
 4351SOL    HW113952   1.285   4.805   1.139  0.6102 -0.6220  2.2598
 4351SOL    HW213953   1.439   4.802   1.195  1.5555  2.7131  0.1471
 4352SOL     OW13954   6.056   2.963   2.605 -0.6893 -0.2957  0.1719
 4352SOL    HW113955   6.101   2.901   2.669  0.8059 -0.2351 -0.7828
 4352SOL    HW213956   5.996   3.025   2.655  0.3741 -0.3127  1.4981
 4353SOL     OW13957   3.204   3.478   1.469  0.1784  0.1932 -0.0869
 4353SOL    HW113958   3.259   3.559   1.451 -2.2166  1.7220 -0.9570
 4353SOL    HW213959   3.240   3.401   1.416  1.0637  1.3019 -1.1580
 4354SOL     OW13960   0.875   1.174   0.284 -0.3348  0.0788  0.4734
 4354SOL    HW113961   0.895   1.101   0.350  0.7318  0.1516  0.2565
 4354SOL    HW213962   0.947   1.244   0.290  0.8225 -0.7770 -1.9845
 4355SOL     OW13963   2.024   1.720   4.218 -0.4110 -0.7011  0.0926
 4355SOL    HW113964   2.009   1.710   4.316 -0.7674  0.1259  0.1278
 4355SOL    HW213965   2.026   1.630   4.175  0.0330 -1.0834  0.8993
 4356SOL     OW13966   3.642   2.884   3.819  0.1475  0.6291  0.2778
 4356SOL    HW113967   3.691   2.930   3.745  1.2614 -0.1557  0.5078
 4356SOL    HW213968   3.615   2.793   3.789  0.2399  0.4639  0.6966
 4357SOL     OW13969   0.892   1.852   3.347  0.0333  0.5315 -0.4110
 4357SOL    HW113970   0.907   1.837   3.445 -1.1023  0.0023 -0.3033
 4357SOL    HW213971   0.839   1.776   3.309 -0.7683  1.4230 -1.1282
 4358SOL     OW13972   6.008   5.818   0.501 -0.3629  0.1243  0.7701
 4358SOL    HW113973   5.983   5.835   0.596  0.9676  2.3939  0.8107
 4358SOL    HW213974   5.971   5.891   0.443  0.0408 -0.4341 -0.2184
 4359SOL     OW13975   1.688   1.528   6.815  0.4052 -0.6032 -0.3136
 4359SOL    HW113976   1.631   1.609   6.832  2.5740  0.7051  1.2603
 4359SOL    HW213977   1.655   1.452   6.870 -0.1199 -0.0430  0.1698
 4360SOL     OW13978   1.113   4.229   5.231 -0.2467  0.1088  0.0212
 4360SOL    HW113979   1.079   4.268   5.317  3.2129  2.2627  0.5977
 4360SOL    HW213980   1.101   4.295   5.157 -1.6943 -1.0904 -0.8696
 4361SOL     OW13981   3.314   3.823   0.400 -0.5458  0.1834  0.2850
 4361SOL    HW113982   3.273   3.783   0.483 -0.4081 -1.6345 -0.4745
 4361SOL    HW213983   3.244   3.829   0.329 -0.3682  0.5809  0.1446
 4362SOL     OW13984   0.848   5.483   5.083  0.1909 -0.0018  0.6054
 4362SOL    HW113985   0.760   5.524   5.058 -0.2695 -0.5632  1.2918
 4362SOL    HW213986   0.912   5.556   5.108  0.2831  0.4904 -0.9388
 4363SOL     OW13987   4.191   6.753   2.212 -0.2729  0.0444 -0.4132
 4363SOL    HW113988   4.176   6.785   2.118  3.0133 -0.9516 -1.4413
 4363SOL    HW213989   4.143   6.812   2.276 -2.9320  0.5419 -2.6994
 4364SOL     OW13990   3.506   3.925   3.277 -0.4958  0.4875 -0.1135
 4364SOL    HW113991   3.533   3.995   3.344  0.4168 -0.3891  0.4748
 4364SOL    HW213992   3.419   3.885   3.305 -1.3492  1.7829 -0.7918
 4365SOL     OW13993   2.342   2.729   3.947 -0.1659 -0.3330  0.0852
 4365SOL    HW113994   2.391   2.644   3.929 -2.7174 -1.7365 -0.7848
 4365SOL    HW213995   2.341   2.747   4.045  0.0756 -1.5670  0.3285
 4366SOL     OW13996   5.095   5.664   6.198  0.6377  0.2523  0.6384
 4366SOL    HW113997   5.147   5.727   6.256  0.5995 -0.7935  1.8679
 4366SOL    HW213998   5.155   5.594   6.160  1.4291  2.9723 -3.7841
 4367SOL     OW13999   3.779   5.591   2.195  0.2935 -0.6028 -0.1257
 4367SOL    HW114000   3.725   5.538   2.260 -0.4290 -0.7216 -0.8219
 4367SOL    HW214001   3.774   5.549   2.105 -1.1096  1.1767 -0.9293
 4368SOL     OW14002   2.882   7.009   2.957 -0.6660  0.0853 -0.7303
 4368SOL    HW114003   2.795   6.998   2.910  0.6821 -2.0806 -2.9564
 4368SOL    HW214004   2.915   6.920   2.989  1.2532  0.6428 -0.9978
 4369SOL     OW14005   5.736   5.329   4.385 -0.3227  0.0118  0.2254
 4369SOL    HW114006   5.765   5.289   4.298  1.0902 -0.9143  1.0760
 4369SOL    HW214007   5.637   5.323   4.393 -0.5864  1.0344 -1.7373
 4370SOL     OW14008   2.922   2.627   6.248  0.2160 -0.7746  0.1934
 4370SOL    HW114009   2.886   2.551   6.301  0.4999 -0.4319  0.8862
 4370SOL    HW214010   2.990   2.676   6.302 -1.6773  1.4412  0.7555
 4371SOL     OW14011   1.522   2.581   2.888 -0.6234 -0.2214 -0.7795
 4371SOL    HW114012   1.498   2.602   2.982 -1.1064 -2.0816 -0.4543
 4371SOL    HW214013   1.441   2.587   2.830 -0.3915  0.5915 -1.0382
 4372SOL     OW14014   1.792   3.594   2.944  0.1380  0.1718 -0.3354
 4372SOL    HW114015   1.731   3.531   2.896  0.4657 -0.3409 -0.0776
 4372SOL    HW214016   1.879   3.549   2.963  1.6822  1.7170 -3.1359
 4373SOL     OW14017   5.653   0.362   5.948 -0.1131  0.4618 -0.4433
 4373SOL    HW114018   5.657   0.407   6.037 -0.3261  1.9193 -1.1483
 4373SOL    HW214019   5.558   0.352   5.919 -0.0565 -0.2328 -0.4096
 4374SOL     OW14020   1.512   2.569   6.495 -0.2047  0.0552  0.0742
 4374SOL    HW114021   1.559   2.617   6.570  0.8136 -0.6054 -0.1170
 4374SOL    HW214022   1.418   2.549   6.522  0.1548 -0.2093  1.1985
 4375SOL     OW14023   5.423   0.575   2.208  0.4771  0.3279 -0.6418
 4375SOL    HW114024   5.486   0.589   2.284  1.2139 -0.2112 -1.1496
 4375SOL    HW214025   5.333   0.549   2.243  0.6821  0.5564  0.0589
 4376SOL     OW14026   0.300   1.284   1.551 -0.3658  0.1124 -0.0713
 4376SOL    HW114027   0.203   1.306   1.558 -0.3144  0.2501  0.2220
 4376SOL    HW214028   0.347   1.357   1.500 -0.3801  0.1515 -0.0288
 4377SOL     OW14029   0.193   6.008   6.478 -0.0848  0.4338 -0.5623
 4377SOL    HW114030   0.213   5.985   6.383  0.7153  0.0680 -0.3160
 4377SOL    HW214031   0.163   6.103   6.484 -0.5864  0.3228 -1.2343
 4378SOL     OW14032   0.448   5.900   3.011  0.0984  0.1245  0.2456
 4378SOL    HW114033   0.443   5.936   3.104  2.3302  2.4164 -0.4199
 4378SOL    HW214034   0.541   5.911   2.976 -0.0283 -3.0685 -1.3959
 4379SOL     OW14035   1.821   0.819   3.436  0.4190  0.4524 -0.1440
 4379SOL    HW114036   1.817   0.739   3.495 -1.0505 -1.9354 -3.1534
 4379SOL    HW214037   1.742   0.818   3.373  2.4238  2.0486 -2.9268
 4380SOL     OW14038   3.530   5.121   1.796  0.1103 -0.1943 -0.0531
 4380SOL    HW114039   3.447   5.164   1.760  1.1872  0.3319 -2.0513
 4380SOL    HW214040   3.609   5.179   1.776  1.0751 -1.0306  1.1704
 4381SOL     OW14041   2.384   4.739   5.216 -0.3804  0.0436  0.0133
 4381SOL    HW114042   2.330   4.693   5.146 -1.2028  1.1413 -0.0997
 4381SOL    HW214043   2.323   4.779   5.285  0.3753 -0.2728  0.8860
 4382SOL     OW14044   5.470   3.015   4.393 -0.1598 -0.5247 -0.2317
 4382SOL    HW114045   5.404   3.039   4.322 -1.0307  1.0723  1.0395
 4382SOL    HW214046   5.422   2.966   4.467 -0.4530  2.2571  1.5796
 4383SOL     OW14047   6.381   2.348   5.406  0.2681 -0.5415 -0.1207
 4383SOL    HW114048   6.383   2.389   5.497  2.2145  2.6152 -1.4279
 4383SOL    HW214049   6.291   2.362   5.365 -0.0283 -0.2837  0.6078
 4384SOL     OW14050   6.027   1.719   0.112  0.4814  0.2288 -0.3561
 4384SOL    HW114051   6.109   1.668   0.139  0.8321  0.2629 -1.3225
 4384SOL    HW214052   6.054   1.811   0.083  0.2601 -0.1158 -1.7498
 4385SOL     OW14053   0.112   3.147   4.426  0.5622  0.0867 -0.4142
 4385SOL    HW114054   0.187   3.187   4.372  0.3804 -0.9324 -1.4545
 4385SOL    HW214055   0.143   3.061   4.467 -0.6002 -1.4523 -2.5701
 4386SOL     OW14056   6.270   4.099   6.804  0.4826  0.0827 -0.0322
 4386SOL    HW114057   6.333   4.072   6.877 -0.5495  0.1109  0.8852
 4386SOL    HW214058   6.215   4.177   6.835  0.4380  0.4858 -1.0702
 4387SOL     OW14059   6.424   1.027   0.195 -0.3006 -0.3315 -1.0507
 4387SOL    HW114060   6.422   1.052   0.099 -2.4024  1.6006 -0.5614
 4387SOL    HW214061   6.477   1.094   0.246  0.8486 -1.3742 -0.8075
 4388SOL     OW14062   4.865   0.018   0.672 -0.0722 -0.0367 -0.0436
 4388SOL    HW114063   4.809  -0.027   0.603 -1.3099  1.1435  0.1381
 4388SOL    HW214064   4.932   0.078   0.627  0.8703 -1.2253 -0.2561
 4389SOL     OW14065   6.297   1.745   6.627 -0.3543  0.3382 -0.6497
 4389SOL    HW114066   6.397   1.739   6.626 -0.2700  1.4054  0.0956
 4389SOL    HW214067   6.261   1.679   6.693 -0.2501 -1.0260 -1.9016
 4390SOL     OW14068   2.453   1.505   1.501 -0.1002 -0.3203  0.4198
 4390SOL    HW114069   2.394   1.425   1.489 -2.1049  1.1720 -0.3921
 4390SOL    HW214070   2.532   1.498   1.441 -0.9275 -1.1020 -0.6206
 4391SOL     OW14071   0.900   5.162   6.807  0.2933  0.2064 -0.3728
 4391SOL    HW114072   0.977   5.219   6.777  0.2572  0.9273  0.8204
 4391SOL    HW214073   0.835   5.219   6.857  0.5202 -0.9483  1.3233
 4392SOL     OW14074   0.334   2.435   4.120  0.1808 -0.2519 -0.1967
 4392SOL    HW114075   0.241   2.424   4.154  1.1142  0.3581  2.8615
 4392SOL    HW214076   0.336   2.509   4.054 -1.1474  1.5130  1.6159
 4393SOL     OW14077   4.961   7.005   2.965 -0.2543  0.1616  0.2475
 4393SOL    HW114078   5.006   6.930   2.916  0.0141 -0.3650  1.2803
 4393SOL    HW214079   4.919   6.970   3.049 -2.5831  0.6221 -0.6372
 4394SOL     OW14080   6.374   5.686   3.121 -0.3111  0.3212 -0.0627
 4394SOL    HW114081   6.318   5.632   3.058  1.5072 -1.1584 -0.4861
 4394SOL    HW214082   6.365   5.783   3.097 -0.6613 -0.0928 -1.7921
 4395SOL     OW14083   6.004   2.264   1.583 -0.0809 -0.4135  0.1782
 4395SOL    HW114084   6.050   2.177   1.567  0.2109  0.1478 -2.4726
 4395SOL    HW214085   6.051   2.313   1.657  1.8019 -1.1024 -0.5062
 4396SOL     OW14086   1.870   1.293   5.556  0.6703  0.4720 -0.1051
 4396SOL    HW114087   1.907   1.253   5.639  4.6812  2.1862 -0.8196
 4396SOL    HW214088   1.817   1.375   5.579  1.0950  0.4951  0.8235
 4397SOL     OW14089   6.516   1.170   4.871  0.3583  0.1234 -0.3772
 4397SOL    HW114090   6.580   1.134   4.803  0.9588 -0.1626  0.3311
 4397SOL    HW214091   6.558   1.248   4.918 -0.3047  0.7362 -0.7686
 4398SOL     OW14092   1.635   4.003   5.138 -0.0691 -0.4537  0.8843
 4398SOL    HW114093   1.665   4.098   5.148  0.9251 -0.8008  1.3208
 4398SOL    HW214094   1.547   3.992   5.185 -0.9915  0.5968 -0.5015
 4399SOL     OW14095   1.922   0.516   2.885 -0.3195  0.2564  0.6605
 4399SOL    HW114096   1.937   0.560   2.973 -1.5609  0.4608  0.7956
 4399SOL    HW214097   1.930   0.584   2.812 -1.5125  0.6002  0.8141
 4400SOL     OW14098   0.626   5.296   5.733  0.1736 -1.2087 -0.0686
 4400SOL    HW114099   0.565   5.268   5.659 -1.9328  0.6084  0.8476
 4400SOL    HW214100   0.598   5.251   5.818 -0.7119  0.5074  0.5953
 4401SOL     OW14101   4.476   6.623   0.109 -0.0571 -0.1812 -0.4199
 4401SOL    HW114102   4.517   6.576   0.030 -0.2329 -1.3958  0.1771
 4401SOL    HW214103   4.446   6.554   0.176 -1.0782  0.7747  0.1329
 4402SOL     OW14104   2.843   5.613   3.015 -0.2318 -0.3571 -1.0261
 4402SOL    HW114105   2.755   5.567   3.008 -1.1819  1.3637 -0.6966
 4402SOL    HW214106   2.877   5.604   3.109 -1.4919  1.4549 -0.3522
 4403SOL     OW14107   1.354   6.963   4.586 -0.2511 -0.1061  0.3344
 4403SOL    HW114108   1.269   6.988   4.632 -0.8206 -0.2163 -0.6167
 4403SOL    HW214109   1.427   7.025   4.615 -0.2494 -1.0042  2.3823
 4404SOL     OW14110   0.045   2.699   5.553  0.4213 -0.2943 -0.2124
 4404SOL    HW114111   0.139   2.665   5.562  0.6480  0.2083 -0.5838
 4404SOL    HW214112   0.021   2.706   5.456 -0.2373 -1.0389 -0.1093
 4405SOL     OW14113   3.164   2.263   0.376  0.5698 -0.6894 -0.4072
 4405SOL    HW114114   3.258   2.270   0.342  0.6833 -0.1232  0.0043
 4405SOL    HW214115   3.129   2.355   0.395 -0.1712 -0.8712 -0.8345
 4406SOL     OW14116   5.996   4.688   1.991 -0.3592 -0.1132  0.0083
 4406SOL    HW114117   5.899   4.700   2.014  0.1125  0.1088  2.1331
 4406SOL    HW214118   6.051   4.707   2.072  1.4818 -0.1865 -1.1834
 4407SOL     OW14119   1.531   3.902   5.966 -0.6793 -0.0566 -0.4136
 4407SOL    HW114120   1.612   3.867   5.920 -0.3201  2.1568 -1.6451
 4407SOL    HW214121   1.470   3.945   5.898 -0.4806  2.6772  1.0116
 4408SOL     OW14122   4.395   2.367   2.329  0.2397 -0.0235 -0.0390
 4408SOL    HW114123   4.326   2.333   2.264 -0.5275  0.7980  0.3210
 4408SOL    HW214124   4.472   2.405   2.278 -0.9579  1.8647 -0.5617
 4409SOL     OW14125   4.888   6.856   2.025 -0.4756  0.2159  0.1184
 4409SOL    HW114126   4.850   6.945   1.998  1.3686  0.8605 -0.5094
 4409SOL    HW214127   4.824   6.809   2.086 -3.1631  0.3360 -2.4068
 4410SOL     OW14128   2.702   4.912   5.844  0.5179 -0.0231 -0.7247
 4410SOL    HW114129   2.632   4.867   5.899  0.8587  1.2321  0.8089
 4410SOL    HW214130   2.700   4.876   5.751 -0.3636 -1.9148 -0.0187
 4411SOL     OW14131   2.947   3.324   4.290 -0.4468 -0.0443 -0.1092
 4411SOL    HW114132   2.931   3.342   4.193  1.4486 -0.5518 -0.5582
 4411SOL    HW214133   3.019   3.256   4.300 -1.1705 -0.6019  1.6654
 4412SOL     OW14134   2.624   3.434   5.943 -0.4110  0.5023 -0.2579
 4412SOL    HW114135   2.651   3.461   5.851 -0.1153  0.2776 -0.2401
 4412SOL    HW214136   2.584   3.342   5.941  0.6650  0.0016 -0.0131
 4413SOL     OW14137   5.082   5.898   3.249 -0.2230  0.1447 -0.3084
 4413SOL    HW114138   5.159   5.883   3.186  1.0536 -1.5745  1.5525
 4413SOL    HW214139   5.042   5.988   3.231  2.5192  1.3271 -1.0552
 4414SOL     OW14140   3.639   4.206   0.668 -0.6896 -0.1700 -0.2445
 4414SOL    HW114141   3.596   4.215   0.758  0.0507  1.0028  0.0138
 4414SOL    HW214142   3.594   4.133   0.617 -3.7191  1.6284 -0.3931
 4415SOL     OW14143   3.469   2.578   5.592  0.1203  0.0054  0.2722
 4415SOL    HW114144   3.447   2.666   5.634 -1.1361  0.3634 -1.0587
 4415SOL    HW214145   3.486   2.510   5.663  0.0186  1.0623  1.3261
 4416SOL     OW14146   3.126   1.151   5.141 -0.0106  0.4832 -0.3479
 4416SOL    HW114147   3.103   1.056   5.120 -3.1052  0.7409  1.3634
 4416SOL    HW214148   3.226   1.161   5.141  0.3911 -2.2648 -2.4194
 4417SOL     OW14149   5.730   5.394   0.550  0.4613  0.5817 -0.2690
 4417SOL    HW114150   5.650   5.358   0.501  2.1203 -1.7640 -1.4507
 4417SOL    HW214151   5.712   5.393   0.648 -0.0064 -2.7772 -0.2569
 4418SOL     OW14152   4.894   6.959   3.876 -0.1637 -0.5172  0.2747
 4418SOL    HW114153   4.804   6.954   3.918  0.0138 -1.0110  0.6048
 4418SOL    HW214154   4.934   7.049   3.893 -0.9403  0.0041 -0.6026
 4419SOL     OW14155   6.836   0.356   0.808  0.4981 -0.0888  0.8884
 4419SOL    HW114156   6.912   0.399   0.857  1.2667  1.1501 -1.2587
 4419SOL    HW214157   6.867   0.272   0.765  1.3042  1.3415 -1.5437
 4420SOL     OW14158   5.463   2.985   0.307 -0.8079 -0.1881 -0.2706
 4420SOL    HW114159   5.440   3.073   0.350 -1.1112  0.1092 -1.0298
 4420SOL    HW214160   5.427   2.911   0.363 -1.3477  0.1980 -0.0965
 4421SOL     OW14161   1.799   6.953   4.018  0.3288 -0.0265  0.5075
 4421SOL    HW114162   1.789   6.861   4.056 -0.7138 -0.2990 -0.3768
 4421SOL    HW214163   1.854   6.949   3.935 -2.4440 -0.4435 -1.4447
 4422SOL     OW14164   2.416   3.786   0.331  0.1238 -0.2775 -0.2649
 4422SOL    HW114165   2.480   3.831   0.393 -0.7310  1.3582 -0.5210
 4422SOL    HW214166   2.413   3.835   0.245 -1.0799 -0.6439 -0.4514
 4423SOL     OW14167   2.651   0.672   3.141  0.3927 -0.3744  0.2241
 4423SOL    HW114168   2.663   0.618   3.224  0.7297 -1.6832 -0.6471
 4423SOL    HW214169   2.740   0.685   3.097  0.1454 -0.1751 -0.2258
 4424SOL     OW14170   6.196   6.666   4.362 -0.0028  0.1321  0.5974
 4424SOL    HW114171   6.204   6.701   4.455  3.3848  1.1949  0.0560
 4424SOL    HW214172   6.287   6.647   4.326 -1.3115 -2.0573 -1.8849
 4425SOL     OW14173   3.179   0.742   5.424 -0.5093  0.1019 -0.5592
 4425SOL    HW114174   3.170   0.744   5.325  1.0216  0.2816 -0.7156
 4425SOL    HW214175   3.189   0.835   5.459 -0.6638  0.0094 -0.2628
 4426SOL     OW14176   0.015   3.085   5.114 -0.3811  0.5157 -0.0774
 4426SOL    HW114177   0.014   3.040   5.025 -1.0060 -0.5166  0.4386
 4426SOL    HW214178   0.109   3.089   5.148 -0.2558  0.0795 -0.3671
 4427SOL     OW14179   1.409   0.579   2.207  0.0134  0.0625  0.6830
 4427SOL    HW114180   1.469   0.651   2.172 -0.7853  0.2717 -0.2994
 4427SOL    HW214181   1.334   0.620   2.260  0.0570 -0.1177  0.8889
 4428SOL     OW14182   2.108   4.008   3.224 -0.9025  0.7521 -0.0423
 4428SOL    HW114183   2.043   3.941   3.259 -1.2394 -0.0279 -2.0217
 4428SOL    HW214184   2.162   4.045   3.300  0.8060 -3.3090  1.0051
 4429SOL     OW14185   1.954   6.264   0.510  0.0055 -0.0312  0.2601
 4429SOL    HW114186   1.978   6.186   0.453  0.2069  0.4103 -0.2662
 4429SOL    HW214187   1.857   6.259   0.535  0.2529 -0.9851  1.0888
 4430SOL     OW14188   6.137   3.904   4.930 -0.0983 -0.2842  0.5635
 4430SOL    HW114189   6.048   3.861   4.948  1.2082 -3.7589 -0.5121
 4430SOL    HW214190   6.185   3.919   5.016 -0.6195 -1.0327  0.9948
 4431SOL     OW14191   2.092   1.693   1.455  0.0397 -0.2714  0.3015
 4431SOL    HW114192   2.061   1.693   1.360 -1.7624 -0.1071  0.8583
 4431SOL    HW214193   2.034   1.754   1.509  2.5355  1.5692  1.0807
 4432SOL     OW14194   3.848   3.443   5.002  0.0534  0.3334 -0.4002
 4432SOL    HW114195   3.923   3.379   4.983 -0.8783 -0.7813 -0.4273
 4432SOL    HW214196   3.865   3.528   4.953  0.6362 -0.3850 -1.5075
 4433SOL     OW14197   6.686   6.444   4.450 -0.1816 -0.1029 -0.6702
 4433SOL    HW114198   6.732   6.532   4.463  0.4674 -0.0551 -2.7723
 4433SOL    HW214199   6.590   6.452   4.476  0.6067  0.1820  2.5016
 4434SOL     OW14200   4.915   1.065   3.642  0.0693 -0.1834  0.5267
 4434SOL    HW114201   4.844   1.109   3.588  1.2644 -0.0796 -1.0358
 4434SOL    HW214202   4.983   1.134   3.671 -1.0434 -0.0479  3.0844
 4435SOL     OW14203   4.643   3.659   6.422  0.1693  0.2444  0.2997
 4435SOL    HW114204   4.549   3.627   6.427 -0.2413  1.3758  0.0430
 4435SOL    HW214205   4.698   3.611   6.490 -0.4728 -0.8000  0.0981
 4436SOL     OW14206   2.241   3.254   1.304  0.3249  0.3297  0.5912
 4436SOL    HW114207   2.171   3.287   1.367 -0.6804 -0.9777  0.1895
 4436SOL    HW214208   2.219   3.283   1.211  0.4340  0.1086  0.4952
 4437SOL     OW14209   6.662   2.244   3.168 -0.0166  0.5053  0.1725
 4437SOL    HW114210   6.660   2.286   3.259 -0.5604  0.5929  0.1280
 4437SOL    HW214211   6.619   2.306   3.102  1.8870  1.1902 -0.4861
 4438SOL     OW14212   4.886   1.105   5.359  0.2542  0.0572  0.4023
 4438SOL    HW114213   4.912   1.029   5.420  1.5827  1.4947  1.7148
 4438SOL    HW214214   4.794   1.136   5.381  0.9523  0.9661  2.1512
 4439SOL     OW14215   6.006   5.665   1.198  0.5072 -0.6194 -0.3689
 4439SOL    HW114216   6.066   5.645   1.275  0.1805 -0.9026 -0.1818
 4439SOL    HW214217   5.982   5.580   1.152 -0.8222 -0.6750  0.3744
 4440SOL     OW14218   0.266   3.670   1.152 -0.2779 -0.6596  0.1357
 4440SOL    HW114219   0.317   3.702   1.231 -0.5403 -1.0196  0.4551
 4440SOL    HW214220   0.316   3.692   1.068  0.5088 -1.1942  0.4508
 4441SOL     OW14221   6.381   1.583   1.608 -0.0000  0.5102  0.3511
 4441SOL    HW114222   6.374   1.675   1.648 -0.9808 -0.0069  1.4411
 4441SOL    HW214223   6.292   1.538   1.612  0.5959 -0.7168  0.4205
 4442SOL     OW14224   5.112   6.279   3.629 -0.0552 -0.1379  0.3851
 4442SOL    HW114225   5.188   6.249   3.571  0.3309  0.6735  0.4580
 4442SOL    HW214226   5.083   6.370   3.601  0.3197  0.3826  1.6400
 4443SOL     OW14227   1.517   3.907   4.616  0.0933 -0.0712  0.1882
 4443SOL    HW114228   1.561   3.910   4.706 -0.2131 -1.3346  0.4025
 4443SOL    HW214229   1.504   3.812   4.589 -2.3177  0.2269  0.0654
 4444SOL     OW14230   2.161   5.178   6.037 -0.4431 -0.0131 -0.5924
 4444SOL    HW114231   2.208   5.224   6.112 -2.5867  0.7936  0.3336
 4444SOL    HW214232   2.124   5.091   6.070 -0.0642 -0.3991 -1.1672
 4445SOL     OW14233   1.202   0.690   6.606 -0.3762 -0.0578  0.2466
 4445SOL    HW114234   1.210   0.653   6.699  2.7414  0.6754  0.3962
 4445SOL    HW214235   1.165   0.783   6.611 -1.6079 -0.5546  0.5830
 4446SOL     OW14236   4.348   7.002   2.990 -0.3833 -0.0743  0.0634
 4446SOL    HW114237   4.384   6.913   3.017  0.5933 -0.5181 -2.4306
 4446SOL    HW214238   4.423   7.058   2.955 -1.1560  1.3925  0.6685
 4447SOL     OW14239   5.284   3.824   0.181  0.9834  0.3325 -1.0907
 4447SOL    HW114240   5.359   3.885   0.155 -0.6477  2.9642  0.0618
 4447SOL    HW214241   5.216   3.822   0.108 -0.0383  1.7592 -0.2149
 4448SOL     OW14242   4.808   2.909   0.430  0.2303  0.2128  0.4851
 4448SOL    HW114243   4.841   2.832   0.375 -0.3339 -0.1929  0.7101
 4448SOL    HW214244   4.721   2.942   0.394  0.2252  0.4282  0.6898
 4449SOL     OW14245   3.267   0.368   0.210 -0.2746  0.4761  0.4696
 4449SOL    HW114246   3.360   0.334   0.194 -0.0969 -0.5970  3.2363
 4449SOL    HW214247   3.203   0.292   0.210 -1.2176  1.2044 -1.3680
 4450SOL     OW14248   3.657   2.960   3.541 -0.3859 -0.1496 -0.4540
 4450SOL    HW114249   3.700   2.917   3.462 -0.3314  1.8905 -1.5966
 4450SOL    HW214250   3.566   2.993   3.517 -0.7554 -0.3171  0.6246
 4451SOL     OW14251   5.187   3.723   2.122  0.5015 -0.0463 -0.2224
 4451SOL    HW114252   5.136   3.797   2.077 -0.7222 -0.1459  0.9518
 4451SOL    HW214253   5.229   3.758   2.206 -0.3940 -0.7658  0.5331
 4452SOL     OW14254   5.873   6.266   5.229  0.6155  0.4349 -0.3969
 4452SOL    HW114255   5.800   6.246   5.163  0.6287 -0.2031 -0.2265
 4452SOL    HW214256   5.950   6.309   5.183  0.2396  0.8757 -0.6264
 4453SOL     OW14257   4.028   0.931   2.674  0.3458 -0.1272  0.2732
 4453SOL    HW114258   3.966   0.998   2.633  1.4643 -0.1195 -1.5354
 4453SOL    HW214259   4.051   0.959   2.767 -1.7208  0.2568  0.7134
 4454SOL     OW14260   5.220   2.269   0.680 -0.0530  0.5131  0.4216
 4454SOL    HW114261   5.307   2.258   0.632 -0.1813  0.6076  0.1627
 4454SOL    HW214262   5.151   2.210   0.638 -0.9585  2.7713 -1.5039
 4455SOL     OW14263   2.267   1.449   6.852 -0.3060  0.0511  0.9440
 4455SOL    HW114264   2.313   1.532   6.884 -1.7683  0.7169  1.4307
 4455SOL    HW214265   2.171   1.452   6.881 -0.5819 -1.4294  0.2427
 4456SOL     OW14266   3.596   5.688   1.269  0.2345  0.0566  0.0923
 4456SOL    HW114267   3.529   5.614   1.272 -0.0444  0.2285 -1.1775
 4456SOL    HW214268   3.676   5.659   1.217  0.8828  0.0678  1.0717
 4457SOL     OW14269   3.381   1.271   1.927 -0.7345 -0.3046  0.2215
 4457SOL    HW114270   3.315   1.325   1.875  1.4999  1.0637 -1.3717
 4457SOL    HW214271   3.388   1.307   2.020 -2.0476 -0.3424  0.3508
 4458SOL     OW14272   6.748   2.140   5.414  0.1057 -0.3827 -0.2874
 4458SOL    HW114273   6.659   2.148   5.459  0.0420 -0.4966 -0.3924
 4458SOL    HW214274   6.814   2.198   5.460 -0.5550  1.4949 -1.6096
 4459SOL     OW14275   5.945   5.946   1.721 -0.0060 -0.2056  0.1824
 4459SOL    HW114276   6.018   5.880   1.738  1.7015  1.8247  1.2665
 4459SOL    HW214277   5.861   5.915   1.765  1.0227 -1.1851  1.5592
 4460SOL     OW14278   3.079   1.851   6.881  0.7622 -0.6435 -0.3460
 4460SOL    HW114279   3.074   1.874   6.784  2.2198 -1.6433 -0.6978
 4460SOL    HW214280   3.159   1.895   6.922 -0.2275  0.3362  0.5965
 4461SOL     OW14281   1.445   1.672   6.843  0.1456 -0.0799  0.4946
 4461SOL    HW114282   1.401   1.754   6.878 -0.7189 -0.5110  0.4465
 4461SOL    HW214283   1.376   1.612   6.802  0.8648 -0.4937 -0.1338
 4462SOL     OW14284   1.515   4.698   0.848 -0.2501  0.3716  0.1437
 4462SOL    HW114285   1.566   4.778   0.815 -0.2008  0.0624 -0.5555
 4462SOL    HW214286   1.548   4.672   0.938  0.3720  0.5808 -0.0158
 4463SOL     OW14287   2.621   1.518   0.226 -0.1819 -0.2079 -0.1158
 4463SOL    HW114288   2.688   1.524   0.152  1.2267 -1.0500  1.0355
 4463SOL    HW214289   2.587   1.424   0.231  0.7714 -0.5220  1.1250
 4464SOL     OW14290   6.594   4.348   5.492  0.3576  0.0656  0.1842
 4464SOL    HW114291   6.618   4.289   5.416  0.7124 -1.1874  1.2276
 4464SOL    HW214292   6.549   4.294   5.564  0.0832  1.1901  0.8971
 4465SOL     OW14293   2.497   4.759   3.443  0.0550 -0.4113 -0.2031
 4465SOL    HW114294   2.562   4.698   3.397  0.1812 -0.4627  0.0410
 4465SOL    HW214295   2.546   4.816   3.508 -0.2368 -0.9323  0.4863
 4466SOL     OW14296   1.369   1.374   3.207 -0.1387  0.0788  0.0196
 4466SOL    HW114297   1.327   1.459   3.240 -0.2386 -0.2932  0.8763
 4466SOL    HW214298   1.462   1.393   3.175  0.2944  0.3146  1.3571
 4467SOL     OW14299   0.690   5.256   4.650 -0.0387  0.1532  0.3914
 4467SOL    HW114300   0.678   5.166   4.609 -0.6906  1.3167 -2.1704
 4467SOL    HW214301   0.603   5.304   4.651  0.3471  0.8731  1.5094
 4468SOL     OW14302   1.216   1.583   0.175  0.3640 -0.4228  0.0028
 4468SOL    HW114303   1.239   1.521   0.100 -2.2172 -1.9429  0.3755
 4468SOL    HW214304   1.296   1.595   0.235  1.6778 -1.2437 -1.5231
 4469SOL     OW14305   3.826   1.154   3.257 -0.1662 -0.7515  0.5972
 4469SOL    HW114306   3.837   1.192   3.165 -2.6849 -1.4499 -0.0827
 4469SOL    HW214307   3.787   1.225   3.317 -1.3017 -1.1023  0.3096
 4470SOL     OW14308   5.483   4.858   3.088 -0.4043  0.1983  0.4813
 4470SOL    HW114309   5.419   4.818   3.154 -0.3924  1.2592  1.1531
 4470SOL    HW214310   5.545   4.920   3.136 -0.2987  0.8702 -0.5127
 4471SOL     OW14311   0.221   1.949   1.119 -0.6934 -0.0454  0.2005
 4471SOL    HW114312   0.185   1.882   1.055  1.2192 -0.0770 -0.9170
 4471SOL    HW214313   0.303   1.912   1.164  0.8936  1.7488 -1.0404
 4472SOL     OW14314   1.074   2.542   5.647 -0.2190  0.0114  0.2887
 4472SOL    HW114315   0.989   2.495   5.671 -1.4873  2.8081  1.8214
 4472SOL    HW214316   1.149   2.504   5.701 -1.7020  1.3058  3.5583
 4473SOL     OW14317   6.112   2.801   3.692  0.1005 -0.1927 -0.0273
 4473SOL    HW114318   6.096   2.885   3.639  0.6973  1.8480  2.7957
 4473SOL    HW214319   6.087   2.816   3.787  4.2986 -1.7036  1.5417
 4474SOL     OW14320   1.514   5.262   2.541  0.0425 -0.1070  0.0396
 4474SOL    HW114321   1.442   5.320   2.577 -0.9394 -1.0011 -0.4408
 4474SOL    HW214322   1.577   5.237   2.614  0.4181  1.4466  0.2744
 4475SOL     OW14323   1.963   3.764   2.263  0.0020  0.7211 -0.0534
 4475SOL    HW114324   2.041   3.822   2.286  0.2934  0.7578 -1.0990
 4475SOL    HW214325   1.989   3.668   2.272  0.3207  0.7259 -0.8469
 4476SOL     OW14326   6.573   5.911   4.023 -0.5122  0.5337  0.3629
 4476SOL    HW114327   6.552   5.939   4.117 -3.4610 -0.3674  0.0927
 4476SOL    HW214328   6.599   5.815   4.022 -0.4563  0.5495  0.2528
 4477SOL     OW14329   2.203   1.149   6.121  0.8768  0.4608 -0.2191
 4477SOL    HW114330   2.193   1.208   6.201 -1.1844 -0.4231  0.2638
 4477SOL    HW214331   2.175   1.198   6.039  2.0623  1.0644 -0.2788
 4478SOL     OW14332   1.114   4.068   2.401  0.5379  0.4303  0.4349
 4478SOL    HW114333   1.210   4.076   2.427  1.5567 -0.8934 -2.5168
 4478SOL    HW214334   1.097   4.125   2.320 -0.3556 -1.5751 -0.8606
 4479SOL     OW14335   6.941   1.298   0.868 -0.3101  0.2591  0.1630
 4479SOL    HW114336   6.966   1.240   0.946 -1.7868 -0.6141  0.0151
 4479SOL    HW214337   6.851   1.338   0.885  0.6801  2.6040  0.2883
 4480SOL     OW14338   2.039   3.652   5.614 -0.4001  0.8871  0.0975
 4480SOL    HW114339   2.016   3.653   5.517 -2.1528 -0.5178  0.4564
 4480SOL    HW214340   2.010   3.566   5.655  3.3296  0.0060  1.2218
 4481SOL     OW14341   3.391   0.118   4.863 -0.1933  0.3302  0.4335
 4481SOL    HW114342   3.343   0.123   4.775 -2.4969  1.2166  1.6367
 4481SOL    HW214343   3.366   0.033   4.909  0.6862  0.0591  0.4261
 4482SOL     OW14344   0.684   5.725   5.676 -0.4735 -0.0524  0.3200
 4482SOL    HW114345   0.706   5.750   5.771  0.6769  0.3259 -0.0350
 4482SOL    HW214346   0.738   5.646   5.648 -2.4337 -1.6064  0.6733
 4483SOL     OW14347   5.272   2.590   1.198 -0.0866  0.3497 -0.3038
 4483SOL    HW114348   5.304   2.615   1.107  0.3942  0.6345 -0.0575
 4483SOL    HW214349   5.223   2.667   1.238 -2.2333 -0.4773 -1.1750
 4484SOL     OW14350   3.028   4.057   4.999  0.3509 -0.4475 -0.5700
 4484SOL    HW114351   3.072   4.138   5.039  0.8674 -1.3148  0.6699
 4484SOL    HW214352   3.048   3.977   5.055  0.8193 -1.6821 -2.4223
 4485SOL     OW14353   4.896   3.318   4.833  0.3429 -0.2034  0.1113
 4485SOL    HW114354   4.812   3.352   4.875 -0.0094 -0.3920 -0.4319
 4485SOL    HW214355   4.969   3.386   4.844  0.4332 -0.5221  1.5763
 4486SOL     OW14356   5.353   1.441   5.673  0.1774 -0.1082 -0.1677
 4486SOL    HW114357   5.424   1.401   5.732 -0.7186  1.4105  2.0555
 4486SOL    HW214358   5.396   1.503   5.607  1.0637 -0.4722  0.0465
 4487SOL     OW14359   1.898   2.197   0.179  0.0162 -0.2473 -0.7135
 4487SOL    HW114360   1.904   2.097   0.183 -3.5187 -0.5565  1.7716
 4487SOL    HW214361   1.965   2.236   0.243 -0.3155 -1.2160  0.2733
 4488SOL     OW14362   5.174   3.854   5.379  0.2396 -0.0350 -0.2529
 4488SOL    HW114363   5.268   3.820   5.381  0.2875  0.1198  0.1854
 4488SOL    HW214364   5.123   3.805   5.308  0.8357  0.3839 -0.9955
 4489SOL     OW14365   4.312   5.509   4.057 -0.4318  0.3597 -0.3395
 4489SOL    HW114366   4.319   5.591   4.113 -2.1006  0.0528  0.3529
 4489SOL    HW214367   4.239   5.450   4.091  0.4090 -1.2129 -1.0994
 4490SOL     OW14368   5.376   3.277   1.002 -0.1640  0.0623  0.7231
 4490SOL    HW114369   5.391   3.225   1.086  0.1641 -1.4164 -0.2284
 4490SOL    HW214370   5.449   3.344   0.991  0.3804 -0.4659  1.0762
 4491SOL     OW14371   1.653   4.945   4.761  0.2567  0.2641 -0.5482
 4491SOL    HW114372   1.675   4.924   4.856  0.8300  0.5701 -0.6107
 4491SOL    HW214373   1.735   4.977   4.714  0.2278 -0.9006 -1.4377
 4492SOL     OW14374   4.172   0.989   0.912 -0.2858 -0.3533  0.8929
 4492SOL    HW114375   4.093   1.047   0.893  0.6438  0.3322 -1.1434
 4492SOL    HW214376   4.141   0.903   0.953 -1.8721  0.6949  2.0372
 4493SOL     OW14377   5.485   0.011   6.252 -0.0366  0.5231  0.1557
 4493SOL    HW114378   5.481  -0.021   6.346 -2.3979 -2.4991 -0.8023
 4493SOL    HW214379   5.394   0.042   6.224  0.4057  0.4713 -1.4237
 4494SOL     OW14380   6.910   1.447   6.986  0.0736 -0.2178 -0.2851
 4494SOL    HW114381   6.859   1.472   6.904 -1.9474 -0.4251  0.8555
 4494SOL    HW214382   6.938   1.351   6.979  0.5370 -0.0493 -0.9933
 4495SOL     OW14383   4.912   6.306   2.310  0.1108  0.2992  0.5891
 4495SOL    HW114384   4.990   6.264   2.357 -0.6745 -0.9856  0.8082
 4495SOL    HW214385   4.921   6.290   2.211 -0.7426 -1.4870  0.7484
 4496SOL     OW14386   3.249   5.844   6.810  0.3499 -0.2988 -0.0477
 4496SOL    HW114387   3.291   5.890   6.889 -0.4135 -0.3760  0.4129
 4496SOL    HW214388   3.296   5.757   6.794  0.7544 -0.1078  0.0873
 4497SOL     OW14389   4.644   1.188   6.810  0.3304  0.4075  0.1585
 4497SOL    HW114390   4.585   1.141   6.877 -0.3830 -1.6357 -1.7936
 4497SOL    HW214391   4.740   1.164   6.828 -0.0869 -3.4474 -1.7761
 4498SOL     OW14392   6.293   3.024   6.406 -0.2530  0.5384 -0.4913
 4498SOL    HW114393   6.263   3.025   6.502 -0.6039  2.9221 -0.5774
 4498SOL    HW214394   6.388   3.053   6.401  0.0894 -0.5963 -0.8022
 4499SOL     OW14395   1.091   3.389   2.559 -0.4424  0.0435  0.0726
 4499SOL    HW114396   1.004   3.426   2.592 -0.7396  1.2699 -1.9100
 4499SOL    HW214397   1.074   3.322   2.486  0.1857 -2.6760  2.2722
 4500SOL     OW14398   3.638   4.148   4.408  0.1475  0.1988 -0.1709
 4500SOL    HW114399   3.615   4.136   4.311  2.3916 -1.7941 -0.5505
 4500SOL    HW214400   3.603   4.070   4.460  0.0316  0.6410  0.4188
 4501SOL     OW14401   6.845   4.938   5.024 -0.5409  0.3171  0.1693
 4501SOL    HW114402   6.762   4.914   5.074 -1.2792  1.5267 -0.4311
 4501SOL    HW214403   6.821   4.964   4.930  0.5272  0.6239 -0.0336
 4502SOL     OW14404   1.496   1.902   0.642  0.2134 -0.1674  0.2954
 4502SOL    HW114405   1.455   1.889   0.732  1.0857  0.0702  0.7414
 4502SOL    HW214406   1.582   1.851   0.637  0.2089 -0.1140 -0.3750
 4503SOL     OW14407   3.510   0.060   1.551  0.1767  0.5572  0.6521
 4503SOL    HW114408   3.524   0.102   1.461 -0.3652  1.0362  0.7825
 4503SOL    HW214409   3.490  -0.037   1.540  1.0528  0.4036  0.3186
 4504SOL     OW14410   5.173   1.111   4.894  0.3286  0.3887 -0.2964
 4504SOL    HW114411   5.194   1.053   4.972  0.5208  1.2234  0.2847
 4504SOL    HW214412   5.256   1.156   4.861  0.4187 -0.6475 -1.5689
 4505SOL     OW14413   0.244   6.225   3.189  0.1507 -0.0337  0.1437
 4505SOL    HW114414   0.185   6.212   3.269  0.2942  1.4923  0.5286
 4505SOL    HW214415   0.333   6.183   3.207 -0.4807 -1.5620 -0.0880
 4506SOL     OW14416   4.601   2.666   3.771  0.3649 -0.6575 -0.1438
 4506SOL    HW114417   4.530   2.606   3.735  0.3640 -1.3571  0.9624
 4506SOL    HW214418   4.628   2.634   3.862  0.7065  0.7432  0.2747
 4507SOL     OW14419   4.681   3.649   1.516  0.3651 -0.3987 -0.2509
 4507SOL    HW114420   4.618   3.572   1.510  2.0907 -1.8320 -0.8930
 4507SOL    HW214421   4.765   3.627   1.465  2.0909  0.7262  1.9564
 4508SOL     OW14422   0.960   4.204   6.003  0.0961 -0.5494 -0.4970
 4508SOL    HW114423   0.880   4.223   6.060 -0.0593 -1.5611 -0.3748
 4508SOL    HW214424   1.043   4.230   6.053 -0.1747  3.1780 -1.6235
 4509SOL     OW14425   0.001   1.947   4.070  0.3940  0.1069 -0.0324
 4509SOL    HW114426  -0.078   1.887   4.057 -0.5454  1.1210  0.7999
 4509SOL    HW214427   0.067   1.901   4.129 -0.7430  0.2051  1.3870
 4510SOL     OW14428   5.612   0.269   5.308 -0.7216  0.1482  0.3489
 4510SOL    HW114429   5.622   0.220   5.221 -0.9524  0.9274 -0.1198
 4510SOL    HW214430   5.616   0.203   5.383 -0.4340 -0.5238 -0.2427
 4511SOL     OW14431   1.506   5.431   5.032  0.2107 -0.4074 -0.5648
 4511SOL    HW114432   1.582   5.388   5.081  0.1661  0.9369  0.7588
 4511SOL    HW214433   1.420   5.408   5.077  0.0378 -0.1918 -0.7814
 4512SOL     OW14434   0.958   6.795   5.547 -0.1683 -0.0231  0.4173
 4512SOL    HW114435   1.047   6.825   5.583  0.6024  0.4981 -1.7645
 4512SOL    HW214436   0.885   6.849   5.589  0.9243  2.6995 -0.9628
 4513SOL     OW14437   5.981   6.382   0.657 -0.2968  0.1969  0.4586
 4513SOL    HW114438   5.989   6.364   0.755 -0.4452  2.2128  0.8678
 4513SOL    HW214439   5.997   6.479   0.639 -2.0999  0.2325 -1.2963
 4514SOL     OW14440   4.926   2.827   4.923 -0.1945 -0.4961  0.1169
 4514SOL    HW114441   4.954   2.913   4.966 -0.1632 -0.6693  0.4461
 4514SOL    HW214442   4.960   2.824   4.829  0.0146 -0.2556  0.1854
 4515SOL     OW14443   0.991   4.537   5.882 -0.0037 -0.5702 -0.0493
 4515SOL    HW114444   0.950   4.494   5.801 -2.3499  0.3090  0.5811
 4515SOL    HW214445   0.919   4.580   5.937  2.0086  4.8543 -0.9636
 4516SOL     OW14446   2.328   1.313   5.618  0.0908  0.1907 -0.0190
 4516SOL    HW114447   2.340   1.396   5.673  2.9751 -1.1979  1.6950
 4516SOL    HW214448   2.339   1.233   5.676 -0.0613 -1.4246 -2.0939
 4517SOL     OW14449   1.101   0.724   1.710  0.3556 -1.0683 -0.3219
 4517SOL    HW114450   1.092   0.744   1.613  1.5136  1.3051  0.0000
 4517SOL    HW214451   1.010   0.724   1.753 -0.1602 -2.1447 -1.3600
 4518SOL     OW14452   0.552   0.451   4.158  0.2103 -0.1657  0.3764
 4518SOL    HW114453   0.563   0.415   4.251 -1.2055 -0.2529  0.5243
 4518SOL    HW214454   0.622   0.411   4.099  0.2473 -1.2077  1.0955
 4519SOL     OW14455   4.859   7.005   2.336 -0.2503 -0.3723  0.1485
 4519SOL    HW114456   4.897   7.090   2.300 -2.4191  0.5844 -0.0363
 4519SOL    HW214457   4.835   7.017   2.432 -0.6536 -0.7340  0.0971
 4520SOL     OW14458   5.254   4.445   3.139 -0.6827 -0.5153  1.2226
 4520SOL    HW114459   5.312   4.407   3.211 -0.0050  1.7889  1.9512
 4520SOL    HW214460   5.312   4.487   3.069 -1.4016 -1.1504  0.2245
 4521SOL     OW14461   5.512   1.741   2.271  0.0467  0.0418  0.0274
 4521SOL    HW114462   5.569   1.659   2.275 -2.3608 -1.7473  1.0060
 4521SOL    HW214463   5.480   1.763   2.363  0.3620  1.9324 -0.2735
 4522SOL     OW14464   0.752   6.445   5.373  0.1574  0.3587 -0.5283
 4522SOL    HW114465   0.726   6.469   5.466 -0.5369  0.2090 -0.6791
 4522SOL    HW214466   0.784   6.350   5.371  0.3895  0.4333 -0.4046
 4523SOL     OW14467   0.741   5.357   6.970 -0.3148  0.3581 -0.6828
 4523SOL    HW114468   0.751   5.361   7.070 -2.4837 -1.5400 -0.3096
 4523SOL    HW214469   0.785   5.437   6.929  2.5578  0.0970  1.5785
 4524SOL     OW14470   5.650   2.191   4.992 -0.4286 -0.4323 -0.1875
 4524SOL    HW114471   5.574   2.255   4.985 -0.0286  0.1359  0.5368
 4524SOL    HW214472   5.615   2.099   5.014 -0.8733 -0.0839  0.5962
 4525SOL     OW14473   0.136   1.415   2.722 -0.2396 -0.4020 -0.6999
 4525SOL    HW114474   0.090   1.460   2.798 -0.9951 -0.4115 -1.1348
 4525SOL    HW214475   0.085   1.432   2.637  0.1808 -0.9954 -1.0851
 4526SOL     OW14476   4.387   6.726   0.518 -0.1173 -0.0314  0.1271
 4526SOL    HW114477   4.360   6.807   0.571  0.2404 -0.0195  0.2956
 4526SOL    HW214478   4.308   6.691   0.467 -0.3574  0.2193  0.3256
 4527SOL     OW14479   4.892   0.729   2.278  1.3526 -0.7200  0.9741
 4527SOL    HW114480   4.819   0.739   2.346  1.0387 -2.4993  0.9438
 4527SOL    HW214481   4.883   0.640   2.233  0.4215  1.0581 -2.7566
 4528SOL     OW14482   3.884   6.139   2.459  0.0407 -0.4734 -0.3722
 4528SOL    HW114483   3.883   6.194   2.542 -1.9227  1.8357 -1.8087
 4528SOL    HW214484   3.803   6.080   2.457  1.0033 -1.8647  0.1242
 4529SOL     OW14485   3.448   2.020   3.725  0.6945  0.4918  0.5888
 4529SOL    HW114486   3.493   2.061   3.804  1.2606  1.4550 -0.2176
 4529SOL    HW214487   3.359   1.984   3.752  1.0195  0.5069  1.7292
 4530SOL     OW14488   5.889   2.286   5.390  0.0434 -0.6429  0.7246
 4530SOL    HW114489   5.805   2.272   5.338  0.7782 -1.9100 -0.1979
 4530SOL    HW214490   5.931   2.197   5.409  2.3008  0.0319 -0.7379
 4531SOL     OW14491   2.155   3.656   2.539  0.3382  0.7204 -0.0876
 4531SOL    HW114492   2.184   3.614   2.452 -0.7610 -0.7969  0.2323
 4531SOL    HW214493   2.156   3.755   2.529  0.2296  0.5897 -1.8501
 4532SOL     OW14494   2.663   6.945   4.957  0.0799  0.2390 -0.7917
 4532SOL    HW114495   2.737   6.880   4.974 -0.1624  0.1088 -0.2211
 4532SOL    HW214496   2.620   6.969   5.043 -1.1461 -0.3983 -1.2035
 4533SOL     OW14497   1.727   1.028   2.243  0.1259  0.1599 -0.2754
 4533SOL    HW114498   1.768   1.061   2.327  1.7591 -1.7900 -0.2445
 4533SOL    HW214499   1.670   0.948   2.262  0.1299 -0.0150 -0.9660
 4534SOL     OW14500   6.978   5.036   4.491  0.0665  0.1446  0.9820
 4534SOL    HW114501   7.026   5.099   4.430  1.3656 -0.4176  1.3908
 4534SOL    HW214502   7.041   4.965   4.522 -1.0264 -0.5878  1.5969
 4535SOL     OW14503   3.366   1.813   1.185  0.6306 -0.5273  0.1659
 4535SOL    HW114504   3.320   1.728   1.213  0.2078 -0.5733 -0.6434
 4535SOL    HW214505   3.315   1.891   1.220  1.0550 -0.5932  0.9678
 4536SOL     OW14506   4.673   2.571   4.018  0.0070  0.0362 -0.4075
 4536SOL    HW114507   4.744   2.507   3.990  0.6927  0.3355  0.5921
 4536SOL    HW214508   4.691   2.603   4.111 -2.2079 -0.9675  0.4373
 4537SOL     OW14509   2.951   2.525   5.988  0.4489  0.7336 -0.2670
 4537SOL    HW114510   3.015   2.583   5.938 -0.4229  0.0302 -2.2916
 4537SOL    HW214511   2.909   2.578   6.062  2.3797  1.5656  0.3149
 4538SOL     OW14512   5.099   0.663   5.068 -0.7329  0.6733  0.7029
 4538SOL    HW114513   5.049   0.699   4.989  1.0552 -4.0322 -3.0210
 4538SOL    HW214514   5.172   0.727   5.092 -0.7846  1.9015 -2.0416
 4539SOL     OW14515   2.594   0.678   5.249  0.5721 -0.4272  0.6002
 4539SOL    HW114516   2.555   0.759   5.292  1.0827  0.7841 -1.0932
 4539SOL    HW214517   2.546   0.596   5.281 -0.5504  0.6135  1.6715
 4540SOL     OW14518   2.622   3.383   5.386  0.6135  0.0375 -0.0110
 4540SOL    HW114519   2.699   3.425   5.337  0.4773 -1.0356 -1.2134
 4540SOL    HW214520   2.638   3.284   5.394  0.0168  0.0136  0.9961
 4541SOL     OW14521   5.003   1.681   0.636 -0.0332  0.2612 -0.3132
 4541SOL    HW114522   5.007   1.747   0.561  0.9913  0.0558 -0.4576
 4541SOL    HW214523   4.965   1.725   0.717 -1.1388  0.4883 -0.9452
 4542SOL     OW14524   5.527   4.478   0.314  0.6251 -0.4796 -0.0318
 4542SOL    HW114525   5.453   4.411   0.316  0.1104 -0.0216 -1.9970
 4542SOL    HW214526   5.612   4.434   0.344 -0.0315 -1.5444  0.3198
 4543SOL     OW14527   4.188   1.412   5.812 -0.0182 -0.8832  0.2542
 4543SOL    HW114528   4.256   1.387   5.881  0.8237 -0.3336 -0.3609
 4543SOL    HW214529   4.229   1.473   5.744 -1.4595  0.5077  0.5571
 4544SOL     OW14530   2.713   0.602   3.954  0.9590 -0.0859  0.4888
 4544SOL    HW114531   2.776   0.647   3.891  2.8245 -3.1868 -0.0951
 4544SOL    HW214532   2.647   0.548   3.902  0.8442 -0.5908  1.1426
 4545SOL     OW14533   5.813   1.404   4.075  0.2219  0.4303  0.0562
 4545SOL    HW114534   5.898   1.365   4.110  0.2599  1.8555  1.6800
 4545SOL    HW214535   5.833   1.490   4.028 -0.3927  1.2610  1.2691
 4546SOL     OW14536   0.984   2.026   0.059  0.1205 -0.0180 -0.2998
 4546SOL    HW114537   1.059   2.074   0.013  0.4819 -1.3638 -1.1909
 4546SOL    HW214538   0.917   1.995  -0.009 -1.0046  0.7161  0.4325
 4547SOL     OW14539   6.730   1.875   2.376  0.0126 -0.6786 -0.1971
 4547SOL    HW114540   6.669   1.931   2.321 -1.9559 -2.2003  0.2893
 4547SOL    HW214541   6.676   1.825   2.445  2.0072 -1.0683  1.1783
 4548SOL     OW14542   1.110   3.122   4.834  0.1528  0.0533 -0.6619
 4548SOL    HW114543   1.077   3.028   4.827 -0.8142  0.4255 -1.3486
 4548SOL    HW214544   1.209   3.123   4.827  0.2566 -1.0030  0.3640
 4549SOL     OW14545   5.728   4.643   2.379  0.0163  0.2975  0.1313
 4549SOL    HW114546   5.640   4.624   2.423 -0.0431 -1.2044 -0.5988
 4549SOL    HW214547   5.767   4.727   2.418 -1.4873  0.7062  0.8221
 4550SOL     OW14548   2.103   6.076   3.081 -0.3602  0.0288 -0.2787
 4550SOL    HW114549   2.054   6.139   3.141 -0.2306 -0.6027  0.5054
 4550SOL    HW214550   2.154   6.010   3.136 -1.9433 -1.9442 -1.0487
 4551SOL     OW14551   5.601   2.453   6.440 -0.1695 -1.0769  0.3380
 4551SOL    HW114552   5.690   2.476   6.478 -0.1540 -0.8866  0.1909
 4551SOL    HW214553   5.608   2.368   6.388  0.3357 -0.2040 -1.1015
 4552SOL     OW14554   6.707   5.083   5.456 -0.0800  0.2558 -0.1189
 4552SOL    HW114555   6.611   5.063   5.475 -0.0178 -0.2171 -0.2814
 4552SOL    HW214556   6.716   5.115   5.361 -0.1411  0.7766  0.0506
 4553SOL     OW14557   3.409   6.239   2.109  0.0857 -0.1870 -0.1342
 4553SOL    HW114558   3.329   6.183   2.131 -0.3238 -0.8161 -2.9629
 4553SOL    HW214559   3.492   6.192   2.140 -0.5136  0.0537  2.0064
 4554SOL     OW14560   5.406   6.872   1.757 -0.4119  0.0437 -1.2270
 4554SOL    HW114561   5.338   6.943   1.774  0.8844  1.1563 -0.4947
 4554SOL    HW214562   5.411   6.812   1.837 -1.1321 -0.5835 -1.6361
 4555SOL     OW14563   2.318   2.343   6.675 -0.2328  0.2719 -0.3572
 4555SOL    HW114564   2.323   2.437   6.644  0.4715 -0.3403 -2.2526
 4555SOL    HW214565   2.254   2.336   6.751  1.3031  2.6162  1.3014
 4556SOL     OW14566   6.178   2.573   4.019  0.8922  0.0439 -0.0717
 4556SOL    HW114567   6.225   2.590   3.932  2.3215 -1.8497  0.2402
 4556SOL    HW214568   6.117   2.495   4.009  0.9191 -0.0647  0.5627
 4557SOL     OW14569   6.504   0.867   5.619 -0.7633  0.3347 -0.6040
 4557SOL    HW114570   6.407   0.849   5.632 -0.4371 -0.7873  0.5384
 4557SOL    HW214571   6.556   0.823   5.693  0.9730 -2.7398 -3.3628
 4558SOL     OW14572   6.703   4.844   4.572 -0.1544  0.1993 -0.4757
 4558SOL    HW114573   6.782   4.784   4.589 -0.6180 -0.1346  0.6368
 4558SOL    HW214574   6.645   4.803   4.502 -0.2919 -0.5039  0.0317
 4559SOL     OW14575   6.985   6.586   6.483 -0.0207 -0.3422  0.1117
 4559SOL    HW114576   6.925   6.513   6.452 -0.5818 -0.9509  2.4237
 4559SOL    HW214577   6.934   6.672   6.485 -0.4632 -0.6096  0.8246
 4560SOL     OW14578   6.136   4.660   1.110  0.4157 -0.1827  0.1675
 4560SOL    HW114579   6.135   4.565   1.079  0.2309  0.1847 -0.9903
 4560SOL    HW214580   6.117   4.721   1.033 -0.6216  0.7396  1.1192
 4561SOL     OW14581   4.540   1.546   1.780 -0.1789  0.3477  0.0803
 4561SOL    HW114582   4.468   1.606   1.744 -0.6491 -0.8188 -0.9889
 4561SOL    HW214583   4.502   1.486   1.849  0.1883  0.9362  0.8096
 4562SOL     OW14584   2.755   5.538   5.031 -0.2647  0.0304  0.3161
 4562SOL    HW114585   2.818   5.559   4.956  0.1590 -0.8827  0.4011
 4562SOL    HW214586   2.798   5.473   5.093 -1.4108 -0.8763  0.1875
 4563SOL     OW14587   1.182   3.814   2.541  0.3821  0.0635  0.1003
 4563SOL    HW114588   1.207   3.737   2.600 -0.2363 -0.6680 -0.5608
 4563SOL    HW214589   1.265   3.861   2.511  0.7257  0.2352  1.2483
 4564SOL     OW14590   6.870   5.810   0.573  0.3343 -0.6026  0.1605
 4564SOL    HW114591   6.807   5.825   0.496  0.7159  1.2313  0.1542
 4564SOL    HW214592   6.822   5.764   0.647 -0.9165  0.3439 -0.0270
 4565SOL     OW14593   1.291   2.154   6.925  0.4010 -0.3736 -0.3310
 4565SOL    HW114594   1.299   2.253   6.931  0.1192 -0.4218  1.2355
 4565SOL    HW214595   1.381   2.114   6.909  0.7627  0.0445  0.6165
 4566SOL     OW14596   5.632   6.959   6.924 -0.9082 -0.6464 -0.4834
 4566SOL    HW114597   5.669   6.898   6.993  1.7851 -0.1533 -1.3420
 4566SOL    HW214598   5.590   7.039   6.968  2.6027  0.7259  0.7605
 4567SOL     OW14599   0.435   0.296   0.839 -0.3756  0.5688  0.7576
 4567SOL    HW114600   0.361   0.336   0.784  0.8628  2.8131  0.6048
 4567SOL    HW214601   0.488   0.234   0.781 -0.7147  0.7863  0.1964
 4568SOL     OW14602   1.619   4.322   5.094  0.5932 -1.0078  0.0241
 4568SOL    HW114603   1.675   4.323   5.011  3.3253 -1.4906  1.7503
 4568SOL    HW214604   1.531   4.280   5.073  0.1847  1.0552 -3.1549
 4569SOL     OW14605   0.801   2.575   2.065  0.6362 -0.4164  0.5791
 4569SOL    HW114606   0.761   2.660   2.033 -0.4471 -0.5901  1.4297
 4569SOL    HW214607   0.751   2.498   2.025  2.8215 -0.7525 -1.7841
 4570SOL     OW14608   1.245   5.683   1.908 -0.2157  0.1308  0.2563
 4570SOL    HW114609   1.278   5.773   1.937  0.7066 -0.3121  0.6270
 4570SOL    HW214610   1.271   5.614   1.976 -0.2778 -0.5357 -0.3750
 4571SOL     OW14611   2.717   1.179   6.361  0.8700  0.4845  0.1323
 4571SOL    HW114612   2.637   1.227   6.397  0.2072 -0.3964 -0.1396
 4571SOL    HW214613   2.797   1.239   6.368 -0.1116  2.0642 -1.1482
 4572SOL     OW14614   1.187   0.111   1.605  0.2572 -0.1393  0.4362
 4572SOL    HW114615   1.109   0.093   1.544 -1.3045 -1.4565  2.6837
 4572SOL    HW214616   1.154   0.127   1.697  2.6417  0.1023  1.3063
 4573SOL     OW14617   5.500   6.086   1.412 -0.1757 -0.3130 -0.0879
 4573SOL    HW114618   5.483   6.054   1.505  0.0416  1.4335  0.5937
 4573SOL    HW214619   5.458   6.022   1.347 -0.8992 -1.2249  1.2106
 4574SOL     OW14620   1.082   6.040   0.356 -0.8514  0.1957  1.0280
 4574SOL    HW114621   1.024   6.028   0.436 -0.1030 -2.4419  1.2610
 4574SOL    HW214622   1.121   5.952   0.329  1.3445  1.5091 -0.4148
 4575SOL     OW14623   6.407   3.972   6.611  0.3251  0.0626  0.0701
 4575SOL    HW114624   6.359   4.036   6.671 -1.2440 -1.9823  1.1149
 4575SOL    HW214625   6.502   4.001   6.601 -0.3598  2.6725  0.2381
 4576SOL     OW14626   2.921   0.924   6.032 -0.0241  0.2043 -0.2418
 4576SOL    HW114627   2.824   0.909   6.012 -0.3751  0.5185  1.1446
 4576SOL    HW214628   2.961   0.981   5.960 -1.4281  1.9776  0.3236
 4577SOL     OW14629   1.109   3.803   3.004  0.0583  0.3006 -0.3438
 4577SOL    HW114630   1.160   3.740   3.062  0.6044  0.0955 -1.0280
 4577SOL    HW214631   1.173   3.852   2.945 -0.5298  0.0444 -1.2076
 4578SOL     OW14632   0.134   2.883   4.508  0.5095 -0.3761  0.0050
 4578SOL    HW114633   0.187   2.803   4.481 -0.3179 -0.5202 -1.3017
 4578SOL    HW214634   0.043   2.878   4.465  0.2988  1.0538  0.2501
 4579SOL     OW14635   4.789   1.468   1.305 -0.2484 -0.1179 -0.7630
 4579SOL    HW114636   4.764   1.497   1.398  0.5729  1.4671 -1.0028
 4579SOL    HW214637   4.872   1.514   1.277  0.0507 -1.3104 -1.9570
 4580SOL     OW14638   4.289   5.794   5.325  0.3561  0.6204  0.1837
 4580SOL    HW114639   4.296   5.756   5.418 -0.1143 -0.6019 -0.2615
 4580SOL    HW214640   4.201   5.768   5.285  0.9319  0.3352 -0.9436
 4581SOL     OW14641   1.182   4.528   2.377  0.4339  0.2116 -0.5848
 4581SOL    HW114642   1.275   4.508   2.346  0.6167 -0.3987  0.3174
 4581SOL    HW214643   1.150   4.613   2.334  0.8090 -0.3891 -2.1031
 4582SOL     OW14644   0.080   0.162   6.574  0.3357  0.1592 -0.2708
 4582SOL    HW114645   0.137   0.198   6.500 -1.6521  0.3979 -1.7531
 4582SOL    HW214646   0.064   0.233   6.642  0.3398  0.6435 -0.7672
 4583SOL     OW14647   3.165   6.811   4.902  0.1755  0.1603  0.4395
 4583SOL    HW114648   3.219   6.848   4.977 -0.6365  0.9922  0.6302
 4583SOL    HW214649   3.165   6.876   4.825 -0.9268  0.4018  0.6217
 4584SOL     OW14650   0.393   6.300   5.523  0.2446 -0.0107 -0.5206
 4584SOL    HW114651   0.306   6.300   5.573 -0.2298 -0.3737 -1.3262
 4584SOL    HW214652   0.401   6.384   5.470  0.9194  0.5475  0.4257
 4585SOL     OW14653   3.120   6.646   1.259 -0.5438 -0.2206 -0.0442
 4585SOL    HW114654   3.167   6.634   1.172 -2.2047  0.3775 -1.0862
 4585SOL    HW214655   3.048   6.715   1.249 -1.2135 -0.6076  1.6277
 4586SOL     OW14656   1.671   0.613   0.339  0.6734 -0.0943 -0.6643
 4586SOL    HW114657   1.677   0.710   0.317 -0.5607 -0.1174 -1.1880
 4586SOL    HW214658   1.731   0.592   0.416  0.2982  1.2585  0.0220
 4587SOL     OW14659   4.254   3.828   1.182  0.1540  0.1531  0.4088
 4587SOL    HW114660   4.280   3.760   1.113 -1.0413 -1.9633  1.9087
 4587SOL    HW214661   4.156   3.847   1.174  0.3558  1.2332  0.4319
 4588SOL     OW14662   2.311   1.841   5.749 -0.2164 -0.1757  0.0289
 4588SOL    HW114663   2.404   1.856   5.716 -0.2015 -0.7194 -0.1725
 4588SOL    HW214664   2.249   1.905   5.703  0.3340  1.6230  1.6338
 4589SOL     OW14665   4.543   0.669   1.992  0.4319  0.4594  0.0642
 4589SOL    HW114666   4.635   0.650   1.956 -0.2344 -1.1058 -0.8977
 4589SOL    HW214667   4.503   0.745   1.941  0.6626  0.2398 -0.4481
 4590SOL     OW14668   4.366   6.024   0.482 -0.0158  0.2396  0.2775
 4590SOL    HW114669   4.325   6.051   0.395  2.5261 -1.2793 -1.5193
 4590SOL    HW214670   4.425   6.098   0.514  0.1868  0.2275 -0.0622
 4591SOL     OW14671   0.656   0.783   6.195  0.6363  0.6331  0.2203
 4591SOL    HW114672   0.663   0.766   6.293  0.3576  0.3496  0.1930
 4591SOL    HW214673   0.564   0.819   6.175  0.0421 -1.0037 -0.1754
 4592SOL     OW14674   6.211   2.727   0.512  0.2797  0.0731 -0.0331
 4592SOL    HW114675   6.282   2.706   0.445 -0.5177  2.4565 -1.7689
 4592SOL    HW214676   6.121   2.722   0.468 -0.5235 -0.9109  1.6046
 4593SOL     OW14677   2.924   0.069   3.461  0.0104  0.4316  0.1672
 4593SOL    HW114678   2.960   0.007   3.530  0.2880  0.2794 -0.1133
 4593SOL    HW214679   2.836   0.034   3.428 -1.4350  1.8304  2.2921
 4594SOL     OW14680   4.699   1.987   2.251  0.0761  0.4586  0.2772
 4594SOL    HW114681   4.650   2.041   2.319 -0.1276  0.8165 -0.1524
 4594SOL    HW214682   4.798   2.000   2.263  0.0745 -0.1048  1.0087
 4595SOL     OW14683   4.132   2.454   0.101 -0.1615  0.0210 -0.3994
 4595SOL    HW114684   4.060   2.411   0.047 -0.3937  0.9847 -0.8817
 4595SOL    HW214685   4.143   2.549   0.072  1.0861 -0.0154 -0.1085
 4596SOL     OW14686   6.440   6.474   1.083 -0.1486  0.3172 -0.1644
 4596SOL    HW114687   6.360   6.513   1.037  0.6721  1.6059 -0.5832
 4596SOL    HW214688   6.523   6.509   1.040  0.6647 -1.6198 -0.2603
 4597SOL     OW14689   4.703   2.490   6.399  0.3004 -0.6142  0.1429
 4597SOL    HW114690   4.619   2.444   6.429 -0.0298  0.4759  0.9481
 4597SOL    HW214691   4.691   2.524   6.306 -0.4851  0.3100  0.5736
 4598SOL     OW14692   0.396   4.967   6.926  0.3372 -0.2716 -0.2167
 4598SOL    HW114693   0.382   5.046   6.986  0.3897 -1.2607  1.1302
 4598SOL    HW214694   0.394   4.998   6.831  3.6033  1.9241  0.2627
 4599SOL     OW14695   5.974   4.395   0.213  0.2198 -0.5442 -0.2347
 4599SOL    HW114696   6.040   4.330   0.251 -0.7351 -0.3559  1.8572
 4599SOL    HW214697   5.919   4.434   0.286 -0.9882  0.7057 -1.7298
 4600SOL     OW14698   2.108   1.512   6.238  0.1667  0.3485 -0.6306
 4600SOL    HW114699   2.014   1.543   6.225 -0.2044 -1.1071 -1.6576
 4600SOL    HW214700   2.157   1.515   6.151  0.8375  0.3289 -0.2664
 4601SOL     OW14701   3.018   0.427   3.763 -0.1307 -0.0741 -0.8285
 4601SOL    HW114702   3.109   0.451   3.732  0.6252 -0.5069  0.9212
 4601SOL    HW214703   2.984   0.497   3.826 -0.0939 -0.9450  0.1955
 4602SOL     OW14704   1.811   5.886   2.354 -0.2423  0.4777 -0.1018
 4602SOL    HW114705   1.763   5.969   2.384 -0.1783  0.9049 -1.1510
 4602SOL    HW214706   1.909   5.906   2.348 -0.3407  0.6519 -1.3744
 4603SOL     OW14707   3.116   4.866   1.134 -0.2163  0.5703 -0.1552
 4603SOL    HW114708   3.018   4.868   1.152 -0.4113  0.5015 -1.1429
 4603SOL    HW214709   3.148   4.960   1.117 -0.2732  0.5094 -0.6169
 4604SOL     OW14710   5.529   1.843   2.953  0.2819 -0.3159  0.2106
 4604SOL    HW114711   5.508   1.898   3.034 -1.4741 -0.6730  0.0388
 4604SOL    HW214712   5.447   1.793   2.925  1.3279 -1.5552 -0.7664
 4605SOL     OW14713   4.797   1.393   3.189 -0.3845  0.0943  0.1068
 4605SOL    HW114714   4.834   1.351   3.271  2.9916 -1.4328 -1.9645
 4605SOL    HW214715   4.808   1.492   3.193 -1.1057  0.1377  1.7679
 4606SOL     OW14716   0.793   4.670   1.998  0.1410  0.4010 -0.2235
 4606SOL    HW114717   0.878   4.719   1.976 -0.1506  0.3579 -1.5499
 4606SOL    HW214718   0.726   4.735   2.034  0.2662  0.7070 -0.5328
 4607SOL     OW14719   2.861   2.495   0.024 -0.1389  0.0762  0.0616
 4607SOL    HW114720   2.848   2.399   0.049  1.8030 -0.4928 -0.9397
 4607SOL    HW214721   2.791   2.551   0.070 -1.0515 -1.7359  0.9958
 4608SOL     OW14722   3.186   5.820   3.000  0.2192  0.5981  0.5935
 4608SOL    HW114723   3.095   5.845   2.966  0.8762  1.3086 -0.6994
 4608SOL    HW214724   3.177   5.747   3.068 -1.1319 -1.1556 -1.3579
 4609SOL     OW14725   3.512   6.984   6.146 -0.4246  1.5596 -0.0818
 4609SOL    HW114726   3.425   6.936   6.135 -0.3828  1.3400  0.5266
 4609SOL    HW214727   3.562   6.984   6.059  0.3978 -1.0909  0.3058
 4610SOL     OW14728   6.699   2.703   1.158 -0.1029 -0.3614  0.1631
 4610SOL    HW114729   6.601   2.689   1.143  0.1995 -0.3337 -2.3145
 4610SOL    HW214730   6.715   2.796   1.191 -0.7985  0.2869 -1.2385
 4611SOL     OW14731   5.458   6.174   5.308 -0.3379  0.2383  0.3083
 4611SOL    HW114732   5.448   6.181   5.209  0.8614 -1.6649 -0.0054
 4611SOL    HW214733   5.433   6.082   5.338  2.4432 -0.3033  1.2660
 4612SOL     OW14734   1.927   1.646   1.831  0.1077 -0.4808 -0.2477
 4612SOL    HW114735   1.917   1.695   1.918 -0.7433 -0.0198 -0.5923
 4612SOL    HW214736   1.981   1.701   1.768  0.1268 -0.5006 -0.2486
 4613SOL     OW14737   2.134   5.325   3.218  0.6224  0.0370 -0.2078
 4613SOL    HW114738   2.106   5.383   3.141  1.9403  1.4209  0.3132
 4613SOL    HW214739   2.156   5.383   3.296  1.1520 -1.2457  0.6136
 4614SOL     OW14740   0.112   5.331   5.227 -0.3903 -0.3242 -0.1088
 4614SOL    HW114741   0.182   5.403   5.221 -2.0128  1.3197 -0.0568
 4614SOL    HW214742   0.113   5.291   5.318  1.2267 -1.1424 -0.4486
 4615SOL     OW14743   0.931   6.987   0.408  0.0705  0.3138 -0.1852
 4615SOL    HW114744   1.009   7.000   0.470  0.7956 -0.5069 -0.8870
 4615SOL    HW214745   0.849   7.027   0.449  0.9429  1.6118  0.3632
 4616SOL     OW14746   6.468   1.654   5.064 -0.0709 -0.2393  0.2710
 4616SOL    HW114747   6.567   1.651   5.051 -0.0078 -0.1159  0.6989
 4616SOL    HW214748   6.429   1.734   5.018  0.0161 -0.3346  0.0318
 4617SOL     OW14749   0.458   4.110   2.334  0.1245  0.4646 -0.4995
 4617SOL    HW114750   0.483   4.013   2.346 -0.5093  0.4539  1.0519
 4617SOL    HW214751   0.458   4.133   2.237 -0.3138 -1.2668 -0.9536
 4618SOL     OW14752   2.919   1.050   0.522 -0.0780  0.0413 -0.8377
 4618SOL    HW114753   3.018   1.041   0.514  0.0959  1.8393 -1.1381
 4618SOL    HW214754   2.885   1.109   0.449 -1.0025  1.5721  0.7470
 4619SOL     OW14755   2.966   6.591   3.578  0.2090  0.3235 -0.0712
 4619SOL    HW114756   2.887   6.652   3.578 -0.3509 -0.3429  1.7362
 4619SOL    HW214757   3.042   6.636   3.531 -0.6121  1.8273 -0.0426
 4620SOL     OW14758   1.982   4.581   0.444  0.4945 -0.3946 -0.3542
 4620SOL    HW114759   2.071   4.597   0.401  1.0263 -0.2337  0.7512
 4620SOL    HW214760   1.920   4.537   0.379  1.0480  0.4153 -1.4599
 4621SOL     OW14761   5.481   2.617   4.987  0.6684  0.5125  0.6911
 4621SOL    HW114762   5.549   2.584   5.053  0.8656  1.7484  1.1292
 4621SOL    HW214763   5.506   2.584   4.896  0.3261 -1.3125  1.2219
 4622SOL     OW14764   1.552   3.196   6.734 -0.1186  0.0450 -0.1022
 4622SOL    HW114765   1.480   3.144   6.690 -1.9110  2.6511 -0.4711
 4622SOL    HW214766   1.516   3.240   6.817  1.7219 -0.4302  1.0308
 4623SOL     OW14767   1.447   6.205   1.026  0.2959  0.0993 -0.2823
 4623SOL    HW114768   1.494   6.214   1.114 -0.3825 -1.0756  0.2249
 4623SOL    HW214769   1.430   6.296   0.988 -0.7851  0.7173  1.5471
 4624SOL     OW14770   6.903   6.666   3.975 -0.6906 -0.6742 -0.1347
 4624SOL    HW114771   6.999   6.643   3.983 -0.6933 -0.1399  2.3887
 4624SOL    HW214772   6.847   6.584   3.986 -0.5625 -0.8492 -0.7377
 4625SOL     OW14773   1.169   4.014   1.965 -0.1070 -0.1566  0.3001
 4625SOL    HW114774   1.215   3.947   2.023 -1.5813 -1.4090  0.1128
 4625SOL    HW214775   1.070   3.999   1.971 -0.5374  2.4857  0.8019
 4626SOL     OW14776   4.811   4.246   1.399  0.3189  0.0684  0.2647
 4626SOL    HW114777   4.740   4.306   1.362  1.0507  0.6743 -0.1926
 4626SOL    HW214778   4.769   4.168   1.446 -0.6416  0.7487  0.5519
 4627SOL     OW14779   4.716   6.766   2.219  0.2003  0.5209 -0.2553
 4627SOL    HW114780   4.746   6.837   2.283 -0.5007  1.2232 -0.6958
 4627SOL    HW214781   4.619   6.746   2.232  0.1551  0.3525 -0.7966
 4628SOL     OW14782   6.695   4.944   3.863  0.3219  0.6218 -0.1014
 4628SOL    HW114783   6.649   4.941   3.774  1.4002  0.7793 -0.6693
 4628SOL    HW214784   6.681   4.857   3.910  0.8034  0.0616 -0.9704
 4629SOL     OW14785   1.820   0.162   5.381 -0.2923 -0.5142 -0.2584
 4629SOL    HW114786   1.784   0.087   5.326 -1.2574 -0.4254  0.2487
 4629SOL    HW214787   1.847   0.128   5.471 -3.5492  0.2005  1.1228
 4630SOL     OW14788   5.563   4.516   3.963 -0.9213  0.5251  0.2002
 4630SOL    HW114789   5.469   4.552   3.963 -0.7256  1.0817  1.2513
 4630SOL    HW214790   5.597   4.514   4.057  0.9429  2.5082 -0.3614
 4631SOL     OW14791   4.406   5.286   2.931 -0.1563 -0.6020 -0.7094
 4631SOL    HW114792   4.327   5.325   2.978 -0.0179 -0.9316 -0.1861
 4631SOL    HW214793   4.381   5.257   2.839 -0.2399  0.8105 -1.1506
 4632SOL     OW14794   4.465   5.639   3.824 -0.1423 -0.4256 -0.3298
 4632SOL    HW114795   4.423   5.592   3.901  1.4599 -0.0127  0.8598
 4632SOL    HW214796   4.535   5.581   3.784  0.1763  0.0043 -0.4052
 4633SOL     OW14797   4.001   0.804   3.649  0.5488 -0.3026  0.4267
 4633SOL    HW114798   3.972   0.756   3.566  1.0109 -0.0277  0.1053
 4633SOL    HW214799   4.034   0.737   3.715  1.6881 -0.4036 -0.2216
 4634SOL     OW14800   2.663   4.922   6.235 -0.6205  0.2432  0.1929
 4634SOL    HW114801   2.615   4.837   6.216  0.5570  0.1264 -2.8127
 4634SOL    HW214802   2.606   5.000   6.208 -0.2268  0.2110 -0.7772
 4635SOL     OW14803   5.005   2.767   6.325  0.0561 -0.4059  0.1980
 4635SOL    HW114804   5.022   2.752   6.422  1.8535  0.0239 -0.0264
 4635SOL    HW214805   5.015   2.864   6.303 -0.3578 -0.4944 -0.4138
 4636SOL     OW14806   6.693   4.370   0.277  0.3242 -0.0146  0.1263
 4636SOL    HW114807   6.771   4.315   0.245  0.1955 -0.4826  0.6064
 4636SOL    HW214808   6.720   4.466   0.282  1.3691 -0.3625  1.7983
 4637SOL     OW14809   0.008   5.950   0.302 -0.1292 -0.2800 -0.2591
 4637SOL    HW114810  -0.023   6.025   0.360 -0.4809  0.8153 -1.8021
 4637SOL    HW214811  -0.061   5.877   0.302 -0.3305 -0.0927  0.3214
 4638SOL     OW14812   3.483   3.137   5.647  0.0967 -0.2468  0.1017
 4638SOL    HW114813   3.483   3.050   5.697  0.3178 -2.3405 -3.2192
 4638SOL    HW214814   3.413   3.197   5.686 -0.4836 -2.1114  2.1670
 4639SOL     OW14815   2.778   5.163   4.497 -1.1401  0.8725  0.3918
 4639SOL    HW114816   2.873   5.149   4.524 -0.8933  0.2368 -0.7521
 4639SOL    HW214817   2.721   5.090   4.536 -0.7830 -0.0498 -0.7610
 4640SOL     OW14818   5.074   4.828   3.421 -0.0448 -0.1387  0.1107
 4640SOL    HW114819   5.156   4.880   3.401 -0.2148 -0.2865 -1.0223
 4640SOL    HW214820   5.063   4.821   3.520  1.0135  0.3260  0.2786
 4641SOL     OW14821   4.255   6.570   4.974  0.1649  0.0159 -0.0223
 4641SOL    HW114822   4.160   6.582   4.946  0.6284  1.8923 -1.0097
 4641SOL    HW214823   4.281   6.474   4.966 -1.5891 -0.4900  0.1167
 4642SOL     OW14824   0.216   6.601   6.673 -0.1183  0.2830 -0.2131
 4642SOL    HW114825   0.182   6.652   6.594  0.1087  1.0429  0.1716
 4642SOL    HW214826   0.219   6.503   6.651  0.4377  0.5367 -1.3238
 4643SOL     OW14827   6.326   2.497   0.942 -0.3531  0.3066  0.6976
 4643SOL    HW114828   6.418   2.514   0.907 -0.6442 -0.2344 -0.4149
 4643SOL    HW214829   6.260   2.552   0.891 -0.8628 -0.9915 -0.1115
 4644SOL     OW14830   0.490   4.515   5.623  0.0693 -0.5666 -0.0962
 4644SOL    HW114831   0.495   4.534   5.721  0.0510 -0.5106 -0.1062
 4644SOL    HW214832   0.492   4.417   5.608 -1.3076 -0.6314  0.0451
 4645SOL     OW14833   2.174   6.807   4.167  0.7859  0.1959 -0.1918
 4645SOL    HW114834   2.155   6.817   4.265  3.0431 -2.3032  0.6160
 4645SOL    HW214835   2.234   6.881   4.137  2.4447 -0.5598  1.0962
 4646SOL     OW14836   2.657   5.453   2.922  0.0300 -0.0352 -0.1275
 4646SOL    HW114837   2.609   5.411   2.845 -0.5198  0.2624  0.0503
 4646SOL    HW214838   2.672   5.384   2.993 -0.3766 -0.0670 -0.0696
 4647SOL     OW14839   1.359   5.026   2.529  0.1357  0.5817 -0.4449
 4647SOL    HW114840   1.314   5.023   2.617 -0.6080  1.9021 -0.7673
 4647SOL    HW214841   1.402   5.115   2.515  1.0751  0.0674 -1.0272
 4648SOL     OW14842   6.067   0.177   1.169 -0.2589 -0.0139 -0.7805
 4648SOL    HW114843   6.051   0.174   1.267 -2.3230  1.2779 -1.0223
 4648SOL    HW214844   6.137   0.246   1.149  3.3736 -3.1479  0.0020
 4649SOL     OW14845   4.628   6.665   5.990  0.3339  0.2087  0.1461
 4649SOL    HW114846   4.710   6.611   5.973  1.1229  1.3759  0.1443
 4649SOL    HW214847   4.594   6.702   5.904 -0.0526 -0.0543  0.1824
 4650SOL     OW14848   3.405   5.435   4.253 -0.5204 -0.9065 -0.7310
 4650SOL    HW114849   3.352   5.513   4.220 -0.5613 -0.9906 -0.8633
 4650SOL    HW214850   3.485   5.421   4.194 -0.4083 -0.8465 -0.5946
 4651SOL     OW14851   6.516   3.257   6.654  0.3955 -0.1900 -0.0250
 4651SOL    HW114852   6.584   3.283   6.585  0.0114 -2.2489 -1.2456
 4651SOL    HW214853   6.562   3.208   6.728  0.5827  0.6558  0.4299
 4652SOL     OW14854   0.290   6.536   4.773  0.4742 -0.2326 -0.0357
 4652SOL    HW114855   0.195   6.559   4.795  0.7837  0.5048  0.5777
 4652SOL    HW214856   0.302   6.536   4.674 -0.1686 -0.3461 -0.1197
 4653SOL     OW14857   6.704   4.798   5.615  0.2112 -0.4809 -0.0349
 4653SOL    HW114858   6.661   4.887   5.627 -0.2218 -0.8061  0.9140
 4653SOL    HW214859   6.760   4.799   5.532 -3.3088 -0.6546 -2.6664
 4654SOL     OW14860   5.923   6.016   0.678  0.3941 -0.1054 -0.1723
 4654SOL    HW114861   5.875   5.974   0.754  0.3405 -0.6070 -0.4791
 4654SOL    HW214862   6.002   6.067   0.711 -0.0958  0.3591  0.2949
 4655SOL     OW14863   6.897   1.269   2.390 -0.5986 -0.1420  0.0264
 4655SOL    HW114864   6.981   1.261   2.336 -0.4644 -1.6099  0.4017
 4655SOL    HW214865   6.874   1.180   2.428 -2.6821  0.1025 -0.5723
 4656SOL     OW14866   2.387   0.298   3.546 -0.3879 -0.2444 -0.4178
 4656SOL    HW114867   2.345   0.279   3.457 -1.4690  0.6033 -0.1258
 4656SOL    HW214868   2.315   0.309   3.614  0.2517  1.8750 -0.0061
 4657SOL     OW14869   4.936   5.985   0.541  0.1723  0.0300  0.6131
 4657SOL    HW114870   4.976   5.895   0.524  1.5101  0.5000  1.0796
 4657SOL    HW214871   4.901   6.023   0.456  3.2242  0.7287 -0.4422
 4658SOL     OW14872   3.322   1.944   2.503  0.6177 -0.2422 -0.2427
 4658SOL    HW114873   3.416   1.953   2.537  0.1021 -1.2587  1.5981
 4658SOL    HW214874   3.305   2.014   2.434  1.4616  2.7122  2.3185
 4659SOL     OW14875   1.994   3.244   6.061  0.4246  0.1782  0.0803
 4659SOL    HW114876   1.991   3.147   6.086 -0.5836  0.1995  0.0732
 4659SOL    HW214877   2.089   3.276   6.064  0.8187 -0.8968 -0.2753
 4660SOL     OW14878   1.525   2.425   5.830  0.7029  0.0460 -0.5097
 4660SOL    HW114879   1.603   2.422   5.768  0.3995 -0.4293 -0.8829
 4660SOL    HW214880   1.521   2.514   5.874  2.9068 -0.7290  1.4415
 4661SOL     OW14881   2.303   5.117   6.534  0.0857 -0.0655  0.4691
 4661SOL    HW114882   2.204   5.111   6.521  0.0388 -0.1482  0.8465
 4661SOL    HW214883   2.349   5.110   6.446 -0.2286 -0.3888  0.3318
 4662SOL     OW14884   5.189   0.708   4.184  0.5258 -0.2994  0.2548
 4662SOL    HW114885   5.203   0.764   4.101 -1.8615 -2.8064 -2.0519
 4662SOL    HW214886   5.108   0.740   4.232  1.5927  0.8014  1.3793
 4663SOL     OW14887   5.493   2.023   3.173  0.1098 -0.3270  0.1391
 4663SOL    HW114888   5.435   1.983   3.244  0.3925 -0.7596  0.1242
 4663SOL    HW214889   5.578   2.056   3.214  1.3382 -2.7168 -0.3244
 4664SOL     OW14890   2.607   1.265   1.715 -0.0780  0.2193  0.1151
 4664SOL    HW114891   2.675   1.220   1.657 -0.0393 -0.2828  0.5437
 4664SOL    HW214892   2.608   1.363   1.697  0.1928  0.1144 -0.4649
 4665SOL     OW14893   3.947   5.153   1.483  0.0822  0.1875 -0.3727
 4665SOL    HW114894   4.030   5.209   1.482 -0.1898  0.7240  1.6649
 4665SOL    HW214895   3.968   5.063   1.520  0.0047 -0.1607 -1.1581
 4666SOL     OW14896   0.200   1.556   6.147  0.2219  0.4026  0.3581
 4666SOL    HW114897   0.160   1.529   6.059 -0.0957 -0.8390  0.8686
 4666SOL    HW214898   0.275   1.621   6.131  0.4072 -0.0893 -0.8543
 4667SOL     OW14899   5.416   4.131   2.782  0.1076  0.1969 -0.8726
 4667SOL    HW114900   5.489   4.180   2.830  0.0040 -0.4186 -0.0757
 4667SOL    HW214901   5.374   4.064   2.843 -1.1038  0.5080 -1.3321
 4668SOL     OW14902   6.418   2.437   4.270 -0.1419 -0.2346 -0.2651
 4668SOL    HW114903   6.454   2.344   4.277 -0.4697 -0.4369 -1.1409
 4668SOL    HW214904   6.491   2.498   4.238 -0.0893 -0.3105 -0.2926
 4669SOL     OW14905   1.929   5.367   0.346  0.1228 -0.2300 -0.4098
 4669SOL    HW114906   1.889   5.290   0.395 -0.3236  0.0330 -0.3510
 4669SOL    HW214907   1.916   5.354   0.248 -0.2375 -0.0810 -0.3849
 4670SOL     OW14908   4.393   1.286   3.893 -0.7693 -0.4107 -0.3643
 4670SOL    HW114909   4.425   1.239   3.975 -0.2582 -1.5357 -1.1856
 4670SOL    HW214910   4.317   1.346   3.916 -1.8513 -2.1102  0.6255
 4671SOL     OW14911   5.457   2.848   3.317 -0.3144  0.9424  0.0162
 4671SOL    HW114912   5.470   2.915   3.244 -1.0409 -0.6603 -1.6722
 4671SOL    HW214913   5.429   2.761   3.277  0.6031 -0.3984  2.1263
 4672SOL     OW14914   2.113   4.066   3.687 -0.6384 -0.2610  0.1639
 4672SOL    HW114915   2.057   4.029   3.613  0.9664 -1.9744 -0.2940
 4672SOL    HW214916   2.110   4.004   3.765 -0.3715  0.2692  0.6002
 4673SOL     OW14917   3.327   5.599   1.541 -0.2155  0.8379  0.1681
 4673SOL    HW114918   3.263   5.603   1.464 -0.8628 -0.7436  0.5768
 4673SOL    HW214919   3.396   5.529   1.524  1.8793  2.9291 -0.5411
 4674SOL     OW14920   3.285   5.433   0.026  0.0759  0.3236  0.3052
 4674SOL    HW114921   3.266   5.382   0.110  1.1238 -0.9068 -0.1769
 4674SOL    HW214922   3.238   5.389  -0.050  0.1436  0.7026  0.0442
 4675SOL     OW14923   0.703   3.378   0.947  0.1794 -0.4320 -0.3205
 4675SOL    HW114924   0.666   3.441   1.015  0.8586 -2.2968  1.9292
 4675SOL    HW214925   0.802   3.372   0.958  0.5524  0.5029 -2.6885
 4676SOL     OW14926   0.969   5.570   2.895  0.2130  0.4055  0.7288
 4676SOL    HW114927   0.917   5.485   2.882 -0.3026  0.5749  1.5688
 4676SOL    HW214928   0.905   5.645   2.912  0.7040  0.8130  0.7753
 4677SOL     OW14929   1.302   0.467   1.503  0.3608 -0.2008  0.1905
 4677SOL    HW114930   1.211   0.458   1.462  1.1043 -0.1557 -1.5639
 4677SOL    HW214931   1.340   0.376   1.519 -0.3487 -0.2484  1.8843
 4678SOL     OW14932   0.202   5.653   2.404 -0.3682  0.0896  0.0698
 4678SOL    HW114933   0.171   5.720   2.472 -0.0110 -0.4191  0.7458
 4678SOL    HW214934   0.187   5.689   2.312 -1.4296  0.5427  0.4021
 4679SOL     OW14935   3.794   0.537   1.510  0.2253  0.5210 -0.3551
 4679SOL    HW114936   3.812   0.604   1.438 -0.5224  0.9127 -0.1900
 4679SOL    HW214937   3.863   0.465   1.507  0.5525  0.8575 -1.0720
 4680SOL     OW14938   6.112   6.543   0.236 -0.2811 -0.2250  0.3212
 4680SOL    HW114939   6.144   6.503   0.150  2.1408  0.7602  0.6785
 4680SOL    HW214940   6.068   6.631   0.216 -0.7388 -0.5272 -0.0086
 4681SOL     OW14941   5.688   3.865   1.638  0.3614 -0.0247  0.0153
 4681SOL    HW114942   5.667   3.908   1.726  2.8631  2.9457 -0.6644
 4681SOL    HW214943   5.618   3.890   1.571 -0.0504  0.0750  0.4806
 4682SOL     OW14944   5.263   3.641   5.965  0.1704  0.0285 -0.0497
 4682SOL    HW114945   5.342   3.580   5.977  1.4579  1.9677  2.2701
 4682SOL    HW214946   5.192   3.593   5.914  0.9052 -3.6081  1.9418
 4683SOL     OW14947   4.566   5.031   4.687 -0.1593  0.2072  0.1768
 4683SOL    HW114948   4.613   4.955   4.731  1.3548  1.9554  1.7976
 4683SOL    HW214949   4.629   5.078   4.625 -1.2132 -0.0997 -1.1637
 4684SOL     OW14950   4.738   6.992   5.803 -0.9283  0.1932  0.7756
 4684SOL    HW114951   4.694   6.994   5.892 -0.2380 -1.1155  1.1776
 4684SOL    HW214952   4.706   6.912   5.751 -0.1554  0.0481  0.4989
 4685SOL     OW14953   1.817   4.342   6.752 -0.0430 -0.0340  0.3066
 4685SOL    HW114954   1.880   4.387   6.815 -2.1351  0.3543  2.2719
 4685SOL    HW214955   1.797   4.404   6.676  1.8717 -0.1676 -0.3565
 4686SOL     OW14956   5.446   4.160   0.548 -0.3391 -0.1769  0.0085
 4686SOL    HW114957   5.544   4.151   0.563 -0.3207 -0.3001 -0.1777
 4686SOL    HW214958   5.409   4.072   0.518 -0.2792  0.1805 -1.1803
 4687SOL     OW14959   5.217   2.820   4.162  0.3059  0.5496 -0.1513
 4687SOL    HW114960   5.264   2.745   4.210  0.7868  1.5115  0.9238
 4687SOL    HW214961   5.133   2.785   4.120  0.0876 -0.4305  1.0393
 4688SOL     OW14962   6.032   2.801   3.979 -0.2648 -0.2097 -0.1768
 4688SOL    HW114963   5.964   2.825   4.048  0.7323 -0.3216  0.8707
 4688SOL    HW214964   6.058   2.705   3.989 -0.0115 -0.1952 -0.6298
 4689SOL     OW14965   6.878   0.266   2.739  0.2631 -0.6653  0.1829
 4689SOL    HW114966   6.974   0.257   2.764  0.3718 -1.0219 -0.3386
 4689SOL    HW214967   6.871   0.290   2.642 -0.1750 -0.8007  0.1781
 4690SOL     OW14968   3.299   0.185   0.710  0.4311  0.2004  0.7434
 4690SOL    HW114969   3.249   0.198   0.795 -0.1493 -1.3057  0.6697
 4690SOL    HW214970   3.258   0.240   0.638 -1.7611 -1.6254  0.4707
 4691SOL     OW14971   0.617   2.448   6.034  0.0949 -0.3224  1.1314
 4691SOL    HW114972   0.638   2.528   5.977  0.0584 -0.0615  1.4800
 4691SOL    HW214973   0.655   2.462   6.125 -1.3063  0.0100  1.6836
 4692SOL     OW14974   5.573   6.329   4.044  0.4350  0.4481 -0.5477
 4692SOL    HW114975   5.626   6.256   4.087 -1.1941  0.1702  1.1892
 4692SOL    HW214976   5.575   6.320   3.945  1.9966 -0.6752 -0.4309
 4693SOL     OW14977   2.857   0.935   2.563 -0.0985  0.1404  0.5348
 4693SOL    HW114978   2.863   0.950   2.464  0.7432 -1.1707  0.3594
 4693SOL    HW214979   2.895   0.845   2.585 -2.1740 -0.4925  1.8061
 4694SOL     OW14980   3.712   0.714   0.792 -0.3418 -0.1371  0.1021
 4694SOL    HW114981   3.646   0.787   0.812 -0.7120 -0.4313 -0.0381
 4694SOL    HW214982   3.671   0.625   0.811  0.2231 -0.2985  0.5873
 4695SOL     OW14983   0.097   4.815   1.359  0.7644 -0.1657 -0.1775
 4695SOL    HW114984   0.019   4.864   1.319 -0.0881 -0.8110  0.6474
 4695SOL    HW214985   0.070   4.775   1.447  2.2133  0.1008  0.4172
 4696SOL     OW14986   6.924   4.660   0.034  0.3789 -0.1597 -0.3264
 4696SOL    HW114987   6.929   4.666  -0.065 -0.5871  0.3968 -0.3615
 4696SOL    HW214988   6.854   4.724   0.067  0.2990 -0.7399  0.6590
 4697SOL     OW14989   1.924   4.308   1.155 -0.2759 -0.0049 -0.0364
 4697SOL    HW114990   1.968   4.271   1.073 -0.2859 -0.3663  0.1164
 4697SOL    HW214991   1.989   4.361   1.208 -0.3199  0.3899 -0.3779
 4698SOL     OW14992   5.342   0.536   2.505  0.1997 -0.1212  0.0034
 4698SOL    HW114993   5.422   0.596   2.505  0.2841 -0.2301 -0.4483
 4698SOL    HW214994   5.261   0.588   2.532 -0.0221  0.6006 -1.9222
 4699SOL     OW14995   1.541   5.921   2.179  0.8229  0.8115  0.3009
 4699SOL    HW114996   1.489   5.917   2.094  1.1395 -0.9351  0.1505
 4699SOL    HW214997   1.636   5.897   2.162  0.6701 -0.6517  1.2764
 4700SOL     OW14998   0.553   2.425   4.524 -0.4151  0.2180 -0.0746
 4700SOL    HW114999   0.566   2.502   4.461 -0.3543 -1.5879 -2.4039
 4700SOL    HW215000   0.599   2.344   4.488 -2.1824 -1.4602  1.2121
 4701SOL     OW15001   3.426   1.321   0.926  0.7989  0.5076 -0.7049
 4701SOL    HW115002   3.441   1.418   0.940 -0.3834  0.5638  0.3233
 4701SOL    HW215003   3.403   1.304   0.830  1.5872  1.1444 -1.0148
 4702SOL     OW15004   4.038   3.999   6.479  0.2348  0.2410  0.0201
 4702SOL    HW115005   3.998   3.921   6.432  1.0909 -0.3432  0.2403
 4702SOL    HW215006   4.065   3.972   6.571  1.5733  0.4933 -0.2881
 4703SOL     OW15007   2.844   1.521   2.797  0.1756 -0.2904 -0.3510
 4703SOL    HW115008   2.864   1.610   2.757  2.2114 -0.3846  0.3261
 4703SOL    HW215009   2.800   1.533   2.886 -1.6416 -0.0380 -1.2466
 4704SOL     OW15010   5.042   5.390   4.784 -0.3944 -0.0859  0.2818
 4704SOL    HW115011   5.112   5.385   4.855  0.3499 -2.5169 -0.5220
 4704SOL    HW215012   5.011   5.484   4.775  1.5659  0.7921  1.8235
 4705SOL     OW15013   3.867   1.303   1.846 -0.2843  0.0247  0.3364
 4705SOL    HW115014   3.932   1.277   1.775  1.1522 -1.2495  2.0242
 4705SOL    HW215015   3.915   1.348   1.921 -1.7774  1.4413  0.5055
 4706SOL     OW15016   2.618   0.515   6.859  0.0826  0.1276 -0.7658
 4706SOL    HW115017   2.568   0.503   6.945 -0.4825  0.2486 -1.0747
 4706SOL    HW215018   2.578   0.457   6.789 -0.1869  0.8797 -1.2469
 4707SOL     OW15019   1.725   0.157   6.849  0.6828 -0.5777 -0.4342
 4707SOL    HW115020   1.737   0.237   6.790  0.4699  0.2272  0.5778
 4707SOL    HW215021   1.794   0.159   6.922 -0.3422 -0.4151  0.5627
 4708SOL     OW15022   6.967   2.741   5.843 -0.4444 -0.4678  0.0430
 4708SOL    HW115023   6.970   2.738   5.743  0.9258 -0.0435  0.0536
 4708SOL    HW215024   7.016   2.822   5.875  0.4184 -1.3833  1.1098
 4709SOL     OW15025   4.112   5.558   5.482 -0.5920 -0.0283  0.0978
 4709SOL    HW115026   4.132   5.648   5.520 -3.0825  1.0342 -0.8937
 4709SOL    HW215027   4.047   5.511   5.542  0.8821 -1.3352  0.7389
 4710SOL     OW15028   5.061   1.350   5.981 -0.3176  0.7046 -0.8993
 4710SOL    HW115029   5.066   1.330   5.883 -0.5689  0.6634 -0.9038
 4710SOL    HW215030   5.154   1.355   6.018 -0.2346  0.0540 -1.0035
 4711SOL     OW15031   0.258   3.311   2.116  0.8438 -0.2464 -0.2428
 4711SOL    HW115032   0.237   3.400   2.157  2.5266 -0.5968  1.4666
 4711SOL    HW215033   0.179   3.281   2.062 -1.3818  0.4163  2.3886
 4712SOL     OW15034   2.319   5.032   0.004 -0.2556 -0.7838  0.3903
 4712SOL    HW115035   2.417   5.021  -0.011 -0.3150 -2.7677  1.2079
 4712SOL    HW215036   2.294   5.000   0.095 -1.5095  0.8760  0.6916
 4713SOL     OW15037   4.104   3.679   2.171 -0.0414 -0.2966 -0.1432
 4713SOL    HW115038   4.148   3.677   2.261  0.0893  0.6455 -0.1688
 4713SOL    HW215039   4.005   3.689   2.182  0.0695  0.8713 -0.0967
 4714SOL     OW15040   0.457   0.716   5.831  0.1425  0.1245  0.4193
 4714SOL    HW115041   0.437   0.813   5.837 -0.7117 -0.1226  1.7611
 4714SOL    HW215042   0.532   0.702   5.766 -0.6010  1.5369 -0.7935
 4715SOL     OW15043   5.078   3.509   2.859  0.0687 -0.7051  0.4052
 4715SOL    HW115044   5.089   3.477   2.953  2.6942 -0.6166  0.1988
 4715SOL    HW215045   5.099   3.607   2.855  1.5438 -1.0325 -0.4885
 4716SOL     OW15046   4.378   4.528   5.619  0.6159 -0.0832  0.1997
 4716SOL    HW115047   4.310   4.540   5.691  2.6250  0.2619  2.1531
 4716SOL    HW215048   4.333   4.529   5.530 -2.2286 -2.3771  1.4547
 4717SOL     OW15049   1.512   5.240   4.794  0.4743 -0.2509 -0.4791
 4717SOL    HW115050   1.483   5.328   4.833 -1.1404  0.1222 -2.3835
 4717SOL    HW215051   1.587   5.256   4.730 -0.5267 -0.0725 -1.6362
 4718SOL     OW15052   5.385   0.478   3.762 -0.0367 -0.1138  0.8627
 4718SOL    HW115053   5.441   0.396   3.779  0.6911 -0.1992 -1.5520
 4718SOL    HW215054   5.289   0.456   3.777 -0.1985 -2.3620 -2.3870
 4719SOL     OW15055   5.405   2.856   3.663  0.3740 -0.0380  0.6466
 4719SOL    HW115056   5.434   2.864   3.567 -0.0335  0.5534  0.5670
 4719SOL    HW215057   5.324   2.798   3.668 -0.1639  0.6997  0.5194
 4720SOL     OW15058   1.453   6.547   6.830  0.0089  1.1481 -0.3258
 4720SOL    HW115059   1.477   6.553   6.733 -1.3523 -0.5378 -0.8295
 4720SOL    HW215060   1.480   6.458   6.866 -1.1556  1.0337  0.3236
 4721SOL     OW15061   0.041   2.954   2.158 -0.0886 -0.0272 -1.4872
 4721SOL    HW115062  -0.025   2.892   2.200  1.3856  0.3073  1.5564
 4721SOL    HW215063  -0.008   3.021   2.102 -2.4518  0.5242  1.0081
 4722SOL     OW15064   0.476   6.520   0.268  0.1670  0.1453 -0.2996
 4722SOL    HW115065   0.480   6.613   0.305 -1.6716  0.4528 -0.7853
 4722SOL    HW215066   0.384   6.500   0.236  0.0810 -2.4248  1.2090
 4723SOL     OW15067   1.575   3.961   5.455 -0.2225  0.4652 -0.5790
 4723SOL    HW115068   1.553   3.871   5.491 -0.1763 -0.4539 -2.7390
 4723SOL    HW215069   1.491   4.008   5.427 -0.0302 -0.6750 -3.3658
 4724SOL     OW15070   6.209   6.443   4.853  0.1954 -0.0101 -0.7166
 4724SOL    HW115071   6.234   6.353   4.888 -0.3493 -0.0291 -0.3708
 4724SOL    HW215072   6.293   6.494   4.831  0.5213 -0.3470 -0.2780
 4725SOL     OW15073   5.524   4.548   6.175  0.7280 -0.0268 -0.4205
 4725SOL    HW115074   5.579   4.545   6.259  1.1510 -1.3279 -0.7191
 4725SOL    HW215075   5.427   4.556   6.199  0.6809 -2.1818  0.2981
 4726SOL     OW15076   1.171   4.732   5.649 -0.4902 -0.5203  0.0102
 4726SOL    HW115077   1.124   4.788   5.581 -0.9526 -0.6806  0.1954
 4726SOL    HW215078   1.206   4.649   5.606  1.3157  0.4815 -0.5524
 4727SOL     OW15079   6.647   0.302   0.322  0.7698  0.2222  0.4714
 4727SOL    HW115080   6.727   0.246   0.344  0.8612  0.6505  1.3068
 4727SOL    HW215081   6.657   0.341   0.231  0.5952 -1.2828 -0.2220
 4728SOL     OW15082   6.996   1.099   2.657  0.7312  0.0410  0.4939
 4728SOL    HW115083   6.941   1.039   2.600  1.6034  0.3479 -0.7077
 4728SOL    HW215084   6.938   1.167   2.701  0.1505  0.3206 -0.6850
 4729SOL     OW15085   4.879   0.296   0.325  0.2056  0.5896 -0.1781
 4729SOL    HW115086   4.874   0.212   0.271 -0.1656  0.3014  0.2959
 4729SOL    HW215087   4.852   0.373   0.268 -0.7903  0.2086 -0.2451
 4730SOL     OW15088   4.142   6.596   0.083  0.6212  0.4272 -0.0820
 4730SOL    HW115089   4.082   6.518   0.099  1.0938  0.3225  1.3486
 4730SOL    HW215090   4.134   6.626  -0.012  0.7187 -1.6019 -0.7782
 4731SOL     OW15091   3.139   0.841   0.174  0.6048 -0.0861  0.3840
 4731SOL    HW115092   3.197   0.762   0.192 -0.9781 -1.9947 -2.0748
 4731SOL    HW215093   3.044   0.817   0.193  0.0447  1.0590 -0.7985
 4732SOL     OW15094   2.609   1.945   6.931 -0.0711 -0.6435  0.0654
 4732SOL    HW115095   2.561   2.009   6.870 -1.3385  0.2533  1.9071
 4732SOL    HW215096   2.671   1.888   6.877 -1.1144  0.1025 -2.0397
 4733SOL     OW15097   1.227   6.545   3.488 -0.0337  0.2009  0.1096
 4733SOL    HW115098   1.287   6.526   3.566 -0.6986  1.8610  1.0794
 4733SOL    HW215099   1.251   6.635   3.449  0.9794 -1.0232 -2.3034
 4734SOL     OW15100   4.122   1.551   1.332 -0.3851  0.1046 -0.1444
 4734SOL    HW115101   4.202   1.610   1.338 -0.2066 -0.1289 -0.1819
 4734SOL    HW215102   4.093   1.543   1.236  0.0074 -0.4085 -0.2274
 4735SOL     OW15103   1.187   5.785   3.943 -0.1938 -0.1667 -0.1990
 4735SOL    HW115104   1.106   5.741   3.983 -0.1818  0.1632  0.1989
 4735SOL    HW215105   1.184   5.883   3.962  0.3068 -0.1543 -0.1725
 4736SOL     OW15106   6.679   1.737   4.296  0.0190  0.2654 -0.4221
 4736SOL    HW115107   6.626   1.805   4.347 -0.6547  0.3419 -1.2129
 4736SOL    HW215108   6.719   1.780   4.215 -0.1044 -0.1870 -0.7291
 4737SOL     OW15109   3.427   3.632   6.989  0.7167 -0.1829 -0.0280
 4737SOL    HW115110   3.511   3.674   6.955 -0.1073  0.8437 -0.8816
 4737SOL    HW215111   3.434   3.618   7.088  1.4358  0.9574  0.0951
 4738SOL     OW15112   3.687   5.372   3.054  0.0721  0.3919 -0.0563
 4738SOL    HW115113   3.710   5.279   3.027  0.2686  0.2293  0.6375
 4738SOL    HW215114   3.766   5.415   3.097 -0.0535  0.8409 -0.2636
 4739SOL     OW15115   4.261   1.903   1.735  0.1263  0.0809  0.2437
 4739SOL    HW115116   4.172   1.946   1.718 -0.0880 -0.5658 -0.3343
 4739SOL    HW215117   4.306   1.948   1.811 -0.4409  0.8063  0.1593
 4740SOL     OW15118   1.496   1.555   1.978 -0.1127  0.0864 -0.1491
 4740SOL    HW115119   1.561   1.629   1.961 -0.7600  0.6561 -0.1790
 4740SOL    HW215120   1.535   1.492   2.045 -0.5181  1.7610  1.7641
 4741SOL     OW15121   6.238   3.994   2.529 -0.2477  0.0571  0.3407
 4741SOL    HW115122   6.229   3.919   2.464  0.8906 -2.1561  2.5477
 4741SOL    HW215123   6.178   3.976   2.608  1.2797  0.5693  1.6680
 4742SOL     OW15124   1.802   0.299   0.572 -0.3198 -0.3690 -0.6787
 4742SOL    HW115125   1.776   0.283   0.477 -0.3453  0.7223 -0.8647
 4742SOL    HW215126   1.728   0.268   0.633 -0.3639 -0.9315 -1.0149
 4743SOL     OW15127   1.679   2.882   6.494  0.0700 -0.1490 -0.0658
 4743SOL    HW115128   1.657   2.810   6.560 -0.3672 -0.1990 -0.2585
 4743SOL    HW215129   1.719   2.841   6.412  0.1133 -0.1413 -0.0484
 4744SOL     OW15130   2.970   5.224   6.025  0.0572 -0.4617 -0.3069
 4744SOL    HW115131   2.994   5.168   6.104  0.2335  1.1918  0.8657
 4744SOL    HW215132   2.908   5.297   6.054 -1.4393 -0.9493 -2.0947
 4745SOL     OW15133   0.214   5.139   6.022 -0.2845 -0.7105  0.4659
 4745SOL    HW115134   0.133   5.196   6.028  0.5161  0.8157 -1.7493
 4745SOL    HW215135   0.212   5.086   5.937  0.4592 -1.6181  0.9875
 4746SOL     OW15136   4.760   0.443   0.557  0.1098  0.0159  0.3808
 4746SOL    HW115137   4.724   0.530   0.523  0.2064 -0.7138 -1.7553
 4746SOL    HW215138   4.830   0.409   0.494  1.1680 -0.8818  1.9825
 4747SOL     OW15139   0.570   2.710   6.269 -0.0471  0.1104 -0.4877
 4747SOL    HW115140   0.647   2.686   6.329 -0.1091  0.6037 -0.2026
 4747SOL    HW215141   0.517   2.784   6.311 -0.1671  0.3745 -1.0894
 4748SOL     OW15142   1.494   4.411   1.748  0.5767 -0.0851  0.1315
 4748SOL    HW115143   1.489   4.318   1.711  1.3597  0.6872 -2.1245
 4748SOL    HW215144   1.435   4.418   1.829  0.6597 -2.5658  0.4940
 4749SOL     OW15145   2.923   5.842   5.704  0.2230 -0.0812 -0.1448
 4749SOL    HW115146   3.013   5.879   5.679 -0.0679  1.0476  0.4040
 4749SOL    HW215147   2.853   5.879   5.642 -0.0867  0.3731  0.4679
 4750SOL     OW15148   6.207   2.683   5.469 -0.1398  0.5273  0.0114
 4750SOL    HW115149   6.113   2.690   5.437 -0.6176  0.9501  1.4305
 4750SOL    HW215150   6.210   2.629   5.553  0.7547  1.2704  0.4791
 4751SOL     OW15151   3.357   1.602   1.590  0.3110  0.5248  0.4781
 4751SOL    HW115152   3.279   1.600   1.653 -0.8199 -1.4994 -0.8843
 4751SOL    HW215153   3.324   1.603   1.496  1.9359 -0.5748 -0.1371
 4752SOL     OW15154   2.931   1.720   0.771 -0.0652 -0.2538  0.0086
 4752SOL    HW115155   3.017   1.757   0.808 -0.7456  0.7250  0.6651
 4752SOL    HW215156   2.949   1.632   0.727  1.1217 -0.5209  0.9684
 4753SOL     OW15157   6.370   1.482   3.964 -0.4701  0.3615 -0.3430
 4753SOL    HW115158   6.428   1.546   3.914 -0.5739  0.5901 -0.1753
 4753SOL    HW215159   6.423   1.437   4.035 -0.5950  0.8826  0.0877
 4754SOL     OW15160   6.075   1.445   5.908 -0.3108  0.0771 -0.1137
 4754SOL    HW115161   6.162   1.455   5.956 -0.2236  0.1531 -0.2843
 4754SOL    HW215162   6.062   1.524   5.847 -0.9283  0.5270  0.5888
 4755SOL     OW15163   4.041   1.547   1.081 -0.5527  0.4080 -0.0998
 4755SOL    HW115164   4.057   1.624   1.019  1.5057 -1.6944 -2.3901
 4755SOL    HW215165   3.948   1.513   1.070  0.2111 -0.9709 -3.5375
 4756SOL     OW15166   3.286   2.976   1.028 -0.5798 -0.1364  0.0742
 4756SOL    HW115167   3.199   2.969   1.076 -0.6042  1.2730  0.2748
 4756SOL    HW215168   3.294   2.901   0.962 -1.5742 -0.7438  0.6272
 4757SOL     OW15169   5.795   3.947   2.648 -0.0998  0.1301 -0.1879
 4757SOL    HW115170   5.780   3.889   2.567  0.9949 -1.3633  0.6382
 4757SOL    HW215171   5.720   3.934   2.712  0.9110 -1.6783  0.7017
 4758SOL     OW15172   1.447   4.728   2.640 -0.2490  0.0772 -0.2857
 4758SOL    HW115173   1.453   4.768   2.548 -0.1459 -0.5868 -0.5693
 4758SOL    HW215174   1.483   4.794   2.707  1.7337 -0.2634 -0.9557
 4759SOL     OW15175   5.042   5.403   5.644  0.3936 -0.4142 -0.5955
 4759SOL    HW115176   5.095   5.422   5.727  3.1085 -0.3918 -2.1979
 4759SOL    HW215177   5.095   5.432   5.564 -1.1723 -2.3539 -2.4589
 4760SOL     OW15178   3.194   1.358   1.738 -0.1068 -0.2744 -0.1646
 4760SOL    HW115179   3.170   1.452   1.762  0.3767 -0.4132  0.9457
 4760SOL    HW215180   3.195   1.348   1.638 -5.5795 -0.5407 -0.4586
 4761SOL     OW15181   1.318   6.094   6.110  0.1027 -0.5819 -0.1750
 4761SOL    HW115182   1.252   6.121   6.180 -0.0672 -0.9648 -0.1856
 4761SOL    HW215183   1.321   6.165   6.038 -1.9733 -1.5719 -1.3468
 4762SOL     OW15184   2.184   5.008   2.911  0.4257 -0.1331 -0.1448
 4762SOL    HW115185   2.125   4.996   2.991 -0.3246 -0.1464 -0.6901
 4762SOL    HW215186   2.280   5.002   2.939  0.1668 -0.4156  0.7079
 4763SOL     OW15187   0.407   1.235   3.314  0.0933  0.3518  0.2600
 4763SOL    HW115188   0.458   1.164   3.265  1.3080  1.5250 -0.2469
 4763SOL    HW215189   0.409   1.320   3.261 -0.7452  0.9642  1.1754
 4764SOL     OW15190   6.504   4.618   5.469 -0.0201 -0.4230  0.1222
 4764SOL    HW115191   6.577   4.679   5.497  0.6299 -0.6013 -1.1146
 4764SOL    HW215192   6.512   4.531   5.517  1.0382 -0.7106 -0.5604
 4765SOL     OW15193   0.942   0.539   4.028  0.5489  1.1583  0.1369
 4765SOL    HW115194   1.038   0.566   4.026  0.9066 -0.0825 -0.9345
 4765SOL    HW215195   0.887   0.614   4.063  2.2197  0.9265  3.7621
 4766SOL     OW15196   4.778   5.113   4.538 -0.0532  0.2478 -0.4738
 4766SOL    HW115197   4.795   5.201   4.493  0.0953  0.6199  0.2884
 4766SOL    HW215198   4.768   5.042   4.469  2.0637  0.4532 -1.0680
 4767SOL     OW15199   4.505   4.597   6.049 -0.1326 -0.2256  0.0669
 4767SOL    HW115200   4.434   4.528   6.046 -0.7196  0.3854 -0.6037
 4767SOL    HW215201   4.482   4.672   5.986  0.6542  0.4133  0.5098
 4768SOL     OW15202   5.450   1.084   4.995  0.9801  0.4482 -0.1473
 4768SOL    HW115203   5.501   1.155   4.946 -0.1445  0.8294 -0.8058
 4768SOL    HW215204   5.498   0.996   4.986 -0.1910 -0.0027 -3.7945
 4769SOL     OW15205   5.336   5.294   5.520  0.6998  0.5445 -0.3584
 4769SOL    HW115206   5.433   5.308   5.501  1.2488 -0.1390  1.7074
 4769SOL    HW215207   5.309   5.202   5.491  0.9786  0.2996  0.1499
 4770SOL     OW15208   0.904   6.528   5.033  0.6279  0.2730 -0.2919
 4770SOL    HW115209   0.990   6.526   5.083  1.5056 -2.5192 -1.6848
 4770SOL    HW215210   0.918   6.488   4.942 -2.0395  0.2445 -0.7612
 4771SOL     OW15211   4.097   3.213   5.889  0.2748  0.3556  0.3677
 4771SOL    HW115212   4.136   3.146   5.951  0.9934  1.2062  0.8533
 4771SOL    HW215213   4.169   3.253   5.832 -0.4382 -0.8303 -1.4772
 4772SOL     OW15214   2.757   4.193   1.645 -0.2130  0.5116 -0.5781
 4772SOL    HW115215   2.703   4.277   1.657 -0.8588 -0.1227  1.3251
 4772SOL    HW215216   2.849   4.217   1.615 -0.3005  1.9303  0.1963
 4773SOL     OW15217   6.228   4.111   4.790  0.2424  0.1194  0.3274
 4773SOL    HW115218   6.205   4.187   4.851  1.0300 -0.9241  1.9940
 4773SOL    HW215219   6.199   4.025   4.833  0.6943 -0.6380 -0.8486
 4774SOL     OW15220   1.201   2.406   2.811  0.1377 -0.1189 -0.7598
 4774SOL    HW115221   1.282   2.374   2.762 -1.3157 -0.9558 -2.7241
 4774SOL    HW215222   1.176   2.339   2.881  0.6424 -0.2532 -0.7016
 4775SOL     OW15223   6.530   0.515   3.146  0.3914 -0.5037  0.4935
 4775SOL    HW115224   6.565   0.422   3.132 -1.3773 -0.9960 -1.0541
 4775SOL    HW215225   6.489   0.521   3.236  1.5403 -0.8584  1.0633
 4776SOL     OW15226   1.364   1.016   6.340  0.2762 -0.0887  0.1881
 4776SOL    HW115227   1.398   1.074   6.414 -1.5342  0.7782  0.4108
 4776SOL    HW215228   1.276   0.977   6.368 -0.0945 -0.3148 -1.2378
 4777SOL     OW15229   1.024   4.004   6.385 -0.3053 -0.3440 -0.3673
 4777SOL    HW115230   1.042   3.906   6.395  1.4411 -0.1897 -1.5529
 4777SOL    HW215231   0.989   4.040   6.472  0.6929 -1.6806  0.6324
 4778SOL     OW15232   6.968   3.340   2.426  0.6784  0.3368 -0.1630
 4778SOL    HW115233   7.034   3.268   2.448  0.7731  0.6302  0.5597
 4778SOL    HW215234   7.017   3.425   2.406  0.6461 -0.1539 -2.5732
 4779SOL     OW15235   6.731   0.038   2.705  0.5875 -0.1244 -0.1557
 4779SOL    HW115236   6.785   0.117   2.733 -0.2925  0.9055 -1.2808
 4779SOL    HW215237   6.697   0.051   2.612  0.1374 -1.6884 -0.2469
 4780SOL     OW15238   5.099   0.664   5.644  0.4584  0.5445  0.2311
 4780SOL    HW115239   5.082   0.692   5.549 -0.6100 -1.5923 -0.2607
 4780SOL    HW215240   5.015   0.676   5.698  0.5089 -0.0309  0.4403
 4781SOL     OW15241   2.217   6.838   1.386  0.2316  0.5744  0.1490
 4781SOL    HW115242   2.188   6.917   1.441  0.6978  0.7504  0.1404
 4781SOL    HW215243   2.162   6.759   1.411  0.2723  0.7156  0.6906
 4782SOL     OW15244   2.928   6.086   1.598  0.9491  0.0330  0.0745
 4782SOL    HW115245   3.007   6.146   1.608  1.7741 -0.5739 -2.0398
 4782SOL    HW215246   2.896   6.091   1.503 -2.0378  0.7969  1.0362
 4783SOL     OW15247   4.657   6.974   0.469 -0.3725  0.0677  0.5615
 4783SOL    HW115248   4.570   6.924   0.476 -0.7439  0.7559  0.9733
 4783SOL    HW215249   4.692   6.967   0.376 -2.4804  2.3631 -0.5182
 4784SOL     OW15250   5.359   4.594   5.897  0.3478  0.7153  0.2153
 4784SOL    HW115251   5.318   4.522   5.840 -1.6230  2.9876 -1.4475
 4784SOL    HW215252   5.450   4.565   5.927 -0.5280 -2.6082  0.0384
 4785SOL     OW15253   3.505   5.413   1.378 -0.3482  0.1631  0.4579
 4785SOL    HW115254   3.423   5.384   1.327 -0.8311 -1.3582  2.0030
 4785SOL    HW215255   3.518   5.353   1.457  0.7473  2.0396  1.7764
 4786SOL     OW15256   3.773   1.827   2.358 -0.5448  0.1892  0.2463
 4786SOL    HW115257   3.783   1.778   2.272 -2.1328  0.3153 -0.0361
 4786SOL    HW215258   3.808   1.771   2.433  0.4191 -0.1097 -0.4014
 4787SOL     OW15259   4.933   2.799   5.459  0.1678  0.1242  0.0760
 4787SOL    HW115260   4.853   2.812   5.519  0.6949  0.8189  0.6575
 4787SOL    HW215261   4.927   2.863   5.383  1.3052  1.8796  1.3776
 4788SOL     OW15262   1.389   5.513   6.239  0.5480 -0.0895  0.0777
 4788SOL    HW115263   1.406   5.611   6.251 -2.3396  0.2227  2.7041
 4788SOL    HW215264   1.355   5.497   6.146 -3.2773  2.2832  0.8291
 4789SOL     OW15265   3.733   0.322   0.575 -0.5811 -0.2154  0.2722
 4789SOL    HW115266   3.801   0.282   0.636 -0.5123  1.3690  1.2810
 4789SOL    HW215267   3.657   0.259   0.565 -0.7739 -0.3770  2.3140
 4790SOL     OW15268   5.500   2.835   5.775 -0.1024 -0.2045 -0.1313
 4790SOL    HW115269   5.576   2.847   5.840  0.0200  3.4195 -0.7203
 4790SOL    HW215270   5.414   2.851   5.823 -0.4215 -2.1779  0.0501
 4791SOL     OW15271   6.198   2.461   1.812  0.0963  1.1081 -0.2887
 4791SOL    HW115272   6.100   2.481   1.813  0.2451  1.8477  0.3343
 4791SOL    HW215273   6.233   2.471   1.718 -0.6509 -0.4115 -0.7616
 4792SOL     OW15274   2.208   1.665   2.538 -0.3921 -0.7140  0.4150
 4792SOL    HW115275   2.154   1.591   2.576 -3.8811  1.5058  0.2019
 4792SOL    HW215276   2.240   1.725   2.611 -0.9964 -0.2996  0.3458
 4793SOL     OW15277   3.295   3.345   5.762  0.5452 -0.4410  0.5102
 4793SOL    HW115278   3.210   3.374   5.717  0.9976  1.5801  0.8578
 4793SOL    HW215279   3.343   3.425   5.796  1.6973 -1.7089  1.9808
 4794SOL     OW15280   4.890   1.678   3.643 -0.4898  0.2989 -0.1343
 4794SOL    HW115281   4.916   1.730   3.562 -0.0476 -0.1858 -0.3077
 4794SOL    HW215282   4.839   1.596   3.615 -1.6058  0.8657  0.1597
 4795SOL     OW15283   6.215   3.746   4.625 -0.7314  0.2130 -0.6513
 4795SOL    HW115284   6.262   3.674   4.678 -1.0405  1.8925  2.1262
 4795SOL    HW215285   6.117   3.741   4.641 -0.5916  2.7984  1.9581
 4796SOL     OW15286   5.019   3.162   5.527  0.2607  0.0413 -0.5803
 4796SOL    HW115287   4.996   3.178   5.431 -2.7836 -1.7926 -0.2893
 4796SOL    HW215288   5.086   3.088   5.534  0.0470 -0.2227 -1.2878
 4797SOL     OW15289   2.643   3.535   6.225  0.1950 -0.2171  0.1426
 4797SOL    HW115290   2.688   3.502   6.143 -0.5033 -0.6315 -0.0781
 4797SOL    HW215291   2.608   3.628   6.209  1.6592  0.4264  0.5796
 4798SOL     OW15292   4.959   4.448   3.785 -0.7352  0.5463  0.6446
 4798SOL    HW115293   5.045   4.499   3.779  0.1646 -0.8304  1.3180
 4798SOL    HW215294   4.970   4.372   3.849 -2.0776 -0.4000 -0.1989
 4799SOL     OW15295   4.495   1.650   5.522 -0.2345  0.1899  0.6942
 4799SOL    HW115296   4.424   1.627   5.588  0.4088  0.1426  1.3815
 4799SOL    HW215297   4.584   1.647   5.567  0.4047 -1.6391 -0.6014
 4800SOL     OW15298   1.528   5.519   5.863  0.0215 -0.0693  0.6219
 4800SOL    HW115299   1.513   5.617   5.874 -0.8764 -0.0701 -0.4243
 4800SOL    HW215300   1.446   5.469   5.891 -0.1774 -0.4060 -0.5315
 4801SOL     OW15301   3.829   0.627   1.234  0.0920 -0.1196  0.2161
 4801SOL    HW115302   3.899   0.698   1.235 -0.5452  0.5205  0.6884
 4801SOL    HW215303   3.739   0.670   1.234 -0.3083 -0.9181  1.1623
 4802SOL     OW15304   0.989   5.319   4.911  0.8540  0.0515  0.4303
 4802SOL    HW115305   0.916   5.350   4.973  0.1407  0.5833 -0.6451
 4802SOL    HW215306   1.037   5.399   4.874  0.9889 -0.2495 -0.0427
 4803SOL     OW15307   0.848   5.200   1.186 -0.0200  0.2558 -0.2560
 4803SOL    HW115308   0.899   5.199   1.101  1.4820  0.9818  0.5973
 4803SOL    HW215309   0.843   5.294   1.221  2.0445 -0.3405  1.9401
 4804SOL     OW15310   5.642   0.629   5.622  0.4598 -0.3792  0.1119
 4804SOL    HW115311   5.657   0.701   5.555  0.2518 -2.6395 -2.5557
 4804SOL    HW215312   5.551   0.640   5.663  0.0118  0.3064 -1.0224
 4805SOL     OW15313   5.791   0.066   1.673 -0.4352 -0.5629  0.0133
 4805SOL    HW115314   5.736   0.133   1.723  0.2945  0.0650 -0.0124
 4805SOL    HW215315   5.762   0.064   1.577 -0.8259 -0.6897  0.1303
 4806SOL     OW15316   0.718   5.220   2.767  0.5325  0.2214  0.3238
 4806SOL    HW115317   0.724   5.136   2.821  2.3095  1.0482  1.4940
 4806SOL    HW215318   0.704   5.298   2.828  0.3349  0.9379 -0.6161
 4807SOL     OW15319   6.815   3.891   0.342 -0.4513 -0.2760 -0.6145
 4807SOL    HW115320   6.890   3.920   0.402  0.3579 -0.7670 -1.3509
 4807SOL    HW215321   6.752   3.967   0.327 -0.6396 -0.1371  0.8051
 4808SOL     OW15322   6.243   3.955   0.120  0.0534  0.4541  0.2122
 4808SOL    HW115323   6.164   3.894   0.111 -0.5489  1.1627  0.6062
 4808SOL    HW215324   6.326   3.900   0.136 -0.9160 -0.2027  3.9557
 4809SOL     OW15325   2.315   4.219   0.693  0.0234  0.1876  0.8018
 4809SOL    HW115326   2.232   4.221   0.637 -0.2114 -3.0203  0.8642
 4809SOL    HW215327   2.320   4.303   0.748 -2.8405  0.7700  0.3488
 4810SOL     OW15328   0.470   6.041   3.271  0.0408 -0.0660  0.0250
 4810SOL    HW115329   0.539   6.107   3.302 -0.5546  1.0187 -0.8694
 4810SOL    HW215330   0.476   5.958   3.326  1.3430  0.4222  0.6646
 4811SOL     OW15331   0.868   4.214   2.718  0.1216 -0.5104  0.7577
 4811SOL    HW115332   0.816   4.223   2.633 -1.1978  0.2431  1.6094
 4811SOL    HW215333   0.808   4.233   2.796  1.6838  0.4003  1.7809
 4812SOL     OW15334   6.280   4.913   4.968 -0.3889  0.1579  0.4838
 4812SOL    HW115335   6.312   4.991   4.914 -0.0170 -0.4205 -0.1421
 4812SOL    HW215336   6.244   4.946   5.055  0.0677  1.0021  0.3676
 4813SOL     OW15337   6.197   1.527   0.907  0.0780  0.5434  0.4894
 4813SOL    HW115338   6.200   1.460   0.982  0.1204 -0.1544 -0.1228
 4813SOL    HW215339   6.143   1.606   0.935  0.4994  0.5146  1.4328
 4814SOL     OW15340   5.782   4.199   6.573 -0.1039 -0.3383 -0.7130
 4814SOL    HW115341   5.827   4.122   6.528 -0.3826 -1.9508  1.5877
 4814SOL    HW215342   5.846   4.276   6.580  1.1560 -1.3769 -0.5450
 4815SOL     OW15343   6.379   3.735   2.910 -0.0366  0.2852  0.0964
 4815SOL    HW115344   6.447   3.753   2.981  0.0861  2.1780 -0.4463
 4815SOL    HW215345   6.425   3.717   2.823 -0.1704 -2.4973  0.5089
 4816SOL     OW15346   6.894   5.409   0.554  0.1197 -0.1444 -0.2172
 4816SOL    HW115347   6.987   5.376   0.535 -0.1870 -1.2610  0.1188
 4816SOL    HW215348   6.893   5.453   0.643  0.2462 -0.5245 -0.0225
 4817SOL     OW15349   1.192   1.198   0.099  0.2017 -0.2269 -0.0881
 4817SOL    HW115350   1.117   1.263   0.115 -0.8565 -1.3556 -0.3636
 4817SOL    HW215351   1.212   1.193   0.001  0.3865 -0.2114 -0.0523
 4818SOL     OW15352   1.147   6.170   3.393  0.2026  0.5762  0.4227
 4818SOL    HW115353   1.218   6.197   3.327  0.4760 -1.3897 -0.1513
 4818SOL    HW215354   1.119   6.076   3.375 -1.0050  0.5865  2.0347
 4819SOL     OW15355   0.841   2.408   5.673 -0.7074  0.0728  0.1506
 4819SOL    HW115356   0.809   2.320   5.708 -0.8099 -0.9254 -2.2348
 4819SOL    HW215357   0.763   2.462   5.641 -0.5155  0.3674  0.1735
 4820SOL     OW15358   6.146   2.131   2.650 -0.3787  0.6110 -0.2223
 4820SOL    HW115359   6.214   2.070   2.608 -1.9489 -1.0736 -0.4604
 4820SOL    HW215360   6.090   2.079   2.714 -2.9404  1.2986 -1.7398
 4821SOL     OW15361   1.527   5.920   2.476  0.4496 -0.4455 -0.1031
 4821SOL    HW115362   1.579   6.004   2.468  2.3458 -1.3227  1.9984
 4821SOL    HW215363   1.506   5.885   2.384  2.6328  0.5247 -1.0412
 4822SOL     OW15364   0.746   1.998   4.662 -0.6847  0.2193 -0.4057
 4822SOL    HW115365   0.681   1.988   4.737 -0.0004 -1.8139 -0.0199
 4822SOL    HW215366   0.765   1.908   4.622  0.4434  1.0155 -1.7450
 4823SOL     OW15367   2.337   1.943   2.952  0.0071  0.0728  0.1111
 4823SOL    HW115368   2.268   1.947   3.024 -0.4196 -1.1535 -0.1954
 4823SOL    HW215369   2.400   2.020   2.961 -2.4326  2.3178 -0.6754
 4824SOL     OW15370   5.890   2.534   5.535 -0.3372 -0.0022 -0.2721
 4824SOL    HW115371   5.915   2.605   5.469 -1.5673 -0.6902 -1.5474
 4824SOL    HW215372   5.895   2.444   5.490 -0.2168 -0.5998  0.8910
 4825SOL     OW15373   0.695   2.028   5.144 -0.3155  0.4170  0.6010
 4825SOL    HW115374   0.676   2.052   5.239  1.9337  0.4915  1.0811
 4825SOL    HW215375   0.758   1.951   5.140  1.2111  1.6521 -0.7634
 4826SOL     OW15376   6.851   1.918   1.173 -0.5030 -0.1271  0.2199
 4826SOL    HW115377   6.765   1.924   1.122  1.3981 -0.3234 -3.3073
 4826SOL    HW215378   6.859   1.828   1.215 -0.5940 -1.4093 -2.3504
 4827SOL     OW15379   5.702   2.014   2.059 -0.0656  0.7906  0.4903
 4827SOL    HW115380   5.782   2.049   2.108 -0.4201  1.0705  0.8776
 4827SOL    HW215381   5.694   1.916   2.073  0.6081  0.6341 -0.1272
 4828SOL     OW15382   6.751   6.438   1.349 -0.0137  0.0716  0.1261
 4828SOL    HW115383   6.779   6.406   1.259  0.1729  0.3842  0.0707
 4828SOL    HW215384   6.733   6.537   1.345  1.1450  0.3279  0.6924
 4829SOL     OW15385   5.375   0.071   0.431  0.6682 -0.2981  0.1682
 4829SOL    HW115386   5.336   0.006   0.495  1.0353 -1.0079 -0.3191
 4829SOL    HW215387   5.342   0.163   0.452 -0.3866 -0.7300  0.4399
 4830SOL     OW15388   3.877   0.302   4.069  0.2798 -0.4760 -0.7419
 4830SOL    HW115389   3.817   0.382   4.068 -0.4819 -0.9775  1.0400
 4830SOL    HW215390   3.959   0.322   4.123 -0.0792 -0.9668  0.0177
 4831SOL     OW15391   1.793   4.994   4.417 -0.3334  0.1733 -0.1023
 4831SOL    HW115392   1.789   4.895   4.404 -0.9995  0.2747 -0.7374
 4831SOL    HW215393   1.888   5.024   4.416 -0.0483 -0.5784  1.1005
 4832SOL     OW15394   4.014   3.167   4.767  0.1623 -0.3339 -0.2488
 4832SOL    HW115395   4.046   3.199   4.856  1.1019  1.3983 -1.1637
 4832SOL    HW215396   3.917   3.143   4.773 -0.1648  1.1352  0.8972
 4833SOL     OW15397   0.982   0.900   3.500  0.7647  0.0401  0.5754
 4833SOL    HW115398   0.884   0.902   3.521  0.5557  1.7746 -0.3642
 4833SOL    HW215399   1.033   0.873   3.582 -0.4323  0.1608  1.3928
 4834SOL     OW15400   4.138   6.207   1.272  0.1778  0.4922 -0.1071
 4834SOL    HW115401   4.194   6.125   1.286  0.6577  0.7165 -0.6770
 4834SOL    HW215402   4.198   6.286   1.259 -0.2531  1.2082  1.8430
 4835SOL     OW15403   6.091   4.049   3.115 -0.7821 -0.9610 -0.7118
 4835SOL    HW115404   6.062   3.954   3.112 -0.4361 -1.0313 -2.0290
 4835SOL    HW215405   6.072   4.094   3.028 -1.0382  0.2131 -0.0832
 4836SOL     OW15406   5.600   1.300   4.924 -0.1559  0.2380 -0.2571
 4836SOL    HW115407   5.610   1.372   4.993 -2.4570 -0.3143  0.7629
 4836SOL    HW215408   5.682   1.297   4.866  1.0216  2.0214  1.2011
 4837SOL     OW15409   5.463   2.155   2.929 -0.1871 -0.3040 -0.0528
 4837SOL    HW115410   5.460   2.108   3.017 -1.1890 -2.3036 -1.0942
 4837SOL    HW215411   5.466   2.088   2.855 -2.2376  1.2472 -1.6548
 4838SOL     OW15412   2.942   5.021   0.477  0.5215 -0.1006  0.5805
 4838SOL    HW115413   2.916   5.100   0.421 -2.5556 -2.7611 -2.1415
 4838SOL    HW215414   2.868   4.998   0.540  0.2893 -2.1435 -0.3597
 4839SOL     OW15415   0.659   5.470   0.444  0.4200  0.6054  0.4015
 4839SOL    HW115416   0.588   5.466   0.374  2.0389 -0.5765 -1.2783
 4839SOL    HW215417   0.620   5.445   0.532 -1.1212 -0.6375 -0.5746
 4840SOL     OW15418   0.622   3.793   5.033  0.4307 -0.1857  0.7406
 4840SOL    HW115419   0.645   3.890   5.044  1.6780 -0.4261  0.4361
 4840SOL    HW215420   0.582   3.759   5.117  1.1856  0.2940  1.3124
 4841SOL     OW15421   1.287   5.067   2.145 -0.1269  0.1553  0.2818
 4841SOL    HW115422   1.226   4.988   2.147 -1.0894  0.8953  1.1077
 4841SOL    HW215423   1.307   5.096   2.239  1.6164 -0.1402  0.0402
 4842SOL     OW15424   2.964   5.222   2.560 -0.4542 -0.0787  0.7330
 4842SOL    HW115425   2.927   5.239   2.652 -0.0944 -0.8106  1.0184
 4842SOL    HW215426   3.062   5.207   2.565 -0.2146  1.0876  0.0627
 4843SOL     OW15427   5.406   3.388   0.635 -0.0634 -0.3500  0.1330
 4843SOL    HW115428   5.482   3.357   0.693 -0.4647 -0.3667  0.6575
 4843SOL    HW215429   5.329   3.416   0.693 -0.6166 -0.7444 -0.4003
 4844SOL     OW15430   4.675   2.885   5.187  0.0191  0.0514 -0.0674
 4844SOL    HW115431   4.591   2.920   5.228  0.9169 -1.3723  3.3330
 4844SOL    HW215432   4.654   2.805   5.131 -1.1202  1.3267 -1.5590
 4845SOL     OW15433   3.566   3.946   4.563  0.0934 -0.4056 -0.0069
 4845SOL    HW115434   3.630   3.874   4.537 -0.6241 -0.5649 -1.4479
 4845SOL    HW215435   3.475   3.907   4.578  0.0247  0.0031  0.7091
 4846SOL     OW15436   6.663   3.323   3.293 -0.0479  0.2226 -0.2332
 4846SOL    HW115437   6.584   3.382   3.315 -0.5873  0.2346 -2.0051
 4846SOL    HW215438   6.741   3.381   3.270  0.7345  0.2171  2.1521
 4847SOL     OW15439   1.598   1.529   6.281  0.0812 -0.3081 -0.0675
 4847SOL    HW115440   1.560   1.508   6.192 -2.5901  1.0279  0.6654
 4847SOL    HW215441   1.593   1.628   6.298  0.2202 -0.5599  1.6773
 4848SOL     OW15442   2.643   0.209   3.830 -0.1392  0.1420  0.1500
 4848SOL    HW115443   2.548   0.235   3.845  0.5043  2.0584  1.2410
 4848SOL    HW215444   2.655   0.179   3.735 -1.6279  0.7755 -0.2664
 4849SOL     OW15445   2.826   5.650   0.810  0.3813  0.2029 -0.1299
 4849SOL    HW115446   2.813   5.557   0.775 -0.4924  0.9049 -1.7629
 4849SOL    HW215447   2.909   5.689   0.771  1.5268 -0.3204  1.6282
 4850SOL     OW15448   4.475   6.489   1.831 -0.0408  0.1368  0.1656
 4850SOL    HW115449   4.529   6.512   1.912 -1.6284  1.5841  0.8847
 4850SOL    HW215450   4.516   6.411   1.784  1.3018 -0.3128  1.9774
 4851SOL     OW15451   4.550   5.740   5.206 -0.5803 -0.1062  0.2172
 4851SOL    HW115452   4.568   5.776   5.115 -0.3655  0.1151  0.3456
 4851SOL    HW215453   4.455   5.759   5.231  0.1414  2.5689  1.2565
 4852SOL     OW15454   2.621   5.926   3.150  0.4160 -0.2511  0.5438
 4852SOL    HW115455   2.583   6.000   3.205  0.7601 -0.3233  0.8852
 4852SOL    HW215456   2.720   5.935   3.146  0.3324  0.3673 -0.9619
 4853SOL     OW15457   6.924   1.926   3.189 -0.1855 -0.1447 -0.6330
 4853SOL    HW115458   7.009   1.945   3.237 -0.7165  0.0952  0.2407
 4853SOL    HW215459   6.918   1.828   3.170 -0.7750 -0.5658  1.4500
 4854SOL     OW15460   5.628   1.340   2.945 -0.2544  0.1144  0.4611
 4854SOL    HW115461   5.553   1.295   2.994 -1.3403  0.7742 -0.5521
 4854SOL    HW215462   5.633   1.436   2.972 -0.1072  0.1949  0.1536
 4855SOL     OW15463   4.861   4.059   4.569 -0.8371 -0.1695  0.7590
 4855SOL    HW115464   4.866   4.155   4.540  0.8421  0.1579  2.0053
 4855SOL    HW215465   4.857   4.000   4.488 -0.1882  0.8810 -0.0630
 4856SOL     OW15466   1.992   2.301   4.064 -0.0111 -0.4399  0.0741
 4856SOL    HW115467   1.973   2.216   4.014 -0.0879 -0.5449  0.2819
 4856SOL    HW215468   1.960   2.292   4.158  2.3153 -1.1709  0.8731
 4857SOL     OW15469   4.594   1.722   2.992 -0.3857 -0.0846 -0.3187
 4857SOL    HW115470   4.523   1.668   3.036 -0.5675  0.7561  0.4345
 4857SOL    HW215471   4.680   1.710   3.041 -0.7962  1.5989  0.9199
 4858SOL     OW15472   1.913   0.344   6.164  0.2986  0.1490  0.1320
 4858SOL    HW115473   1.976   0.303   6.229  0.8702  1.3471  0.3574
 4858SOL    HW215474   1.823   0.299   6.171  0.9721 -1.2549  0.1229
 4859SOL     OW15475   6.024   4.264   2.386  0.7064  0.0361  0.2751
 4859SOL    HW115476   5.967   4.230   2.462 -3.9219 -3.2708 -3.9736
 4859SOL    HW215477   5.992   4.355   2.359  1.8954  0.9126  1.6243
 4860SOL     OW15478   4.639   2.583   0.343 -0.2982  0.2102  0.2166
 4860SOL    HW115479   4.646   2.629   0.432 -0.4357  2.3047 -0.7962
 4860SOL    HW215480   4.596   2.644   0.277 -3.2214 -2.4047 -0.5818
 4861SOL     OW15481   5.592   5.024   6.814  0.0620  0.3656 -0.5293
 4861SOL    HW115482   5.530   4.977   6.751 -0.7541  0.1089  0.4467
 4861SOL    HW215483   5.656   4.958   6.853 -0.4528  0.2243  0.0957
 4862SOL     OW15484   2.947   5.341   5.757  0.0749  0.0036 -0.2600
 4862SOL    HW115485   3.011   5.321   5.683 -0.7853 -0.7012 -0.8372
 4862SOL    HW215486   2.974   5.291   5.839 -1.4169 -2.8184 -1.3639
 4863SOL     OW15487   4.984   2.721   4.093 -0.9192  0.1691  0.0535
 4863SOL    HW115488   4.967   2.667   4.175 -0.2943  1.3298  0.9710
 4863SOL    HW215489   4.897   2.744   4.050 -1.2994  0.2213  0.8334
 4864SOL     OW15490   1.431   1.978   5.761  0.1186 -0.2745 -0.0590
 4864SOL    HW115491   1.467   2.042   5.830  0.1432 -0.8584  0.4845
 4864SOL    HW215492   1.495   1.972   5.685  1.0880 -1.0941  0.7787
 4865SOL     OW15493   3.172   5.135   4.925  0.0930 -0.1157  0.2783
 4865SOL    HW115494   3.103   5.078   4.880  0.5613  0.4410 -1.1870
 4865SOL    HW215495   3.128   5.190   4.996 -0.8018 -0.4728  0.0156
 4866SOL     OW15496   5.164   3.568   6.419  0.4749  0.1937 -0.3376
 4866SOL    HW115497   5.212   3.630   6.481 -0.8433 -0.4759  1.4485
 4866SOL    HW215498   5.217   3.557   6.335  2.9699  0.2518  1.1170
 4867SOL     OW15499   5.290   5.533   1.010  0.1062  0.1219 -0.0799
 4867SOL    HW115500   5.339   5.600   0.954  0.6787 -1.0223 -0.9821
 4867SOL    HW215501   5.192   5.549   1.002  0.2458  2.4629  1.7801
 4868SOL     OW15502   6.592   5.215   1.084  0.2988  0.4963  0.0736
 4868SOL    HW115503   6.679   5.264   1.089  0.3462  0.4522 -0.2408
 4868SOL    HW215504   6.569   5.177   1.173  1.3879 -0.8415 -0.1815
 4869SOL     OW15505   5.686   5.545   0.289 -0.3556  0.2402  0.4659
 4869SOL    HW115506   5.680   5.458   0.337  0.7632  0.1646  0.4952
 4869SOL    HW215507   5.782   5.564   0.266 -0.6083  1.3582  0.2716
 4870SOL     OW15508   4.370   4.352   1.421 -0.2546  0.3003  0.5341
 4870SOL    HW115509   4.390   4.259   1.391 -1.2436  0.5793 -1.1445
 4870SOL    HW215510   4.275   4.374   1.398 -0.6699  1.0598  2.7315
 4871SOL     OW15511   1.517   1.784   3.982 -0.2425  0.2577  1.0505
 4871SOL    HW115512   1.605   1.742   4.002  0.5235  0.7646 -1.0154
 4871SOL    HW215513   1.471   1.732   3.910  0.3452  2.3199 -0.9605
 4872SOL     OW15514   6.926   0.212   5.247  0.1319 -0.9537  0.1500
 4872SOL    HW115515   6.937   0.149   5.170 -0.2809 -0.8058 -0.0292
 4872SOL    HW215516   7.008   0.268   5.256  0.1426 -0.9067 -0.2405
 4873SOL     OW15517   5.032   4.420   2.219 -0.2665 -0.8584 -0.6023
 4873SOL    HW115518   5.094   4.499   2.225 -1.3408 -0.1169  2.6587
 4873SOL    HW215519   4.943   4.450   2.186 -0.8872 -0.5113  1.3162
 4874SOL     OW15520   6.335   4.833   2.521  0.1614 -0.0330 -0.2007
 4874SOL    HW115521   6.432   4.841   2.543  0.1187 -0.4288  0.1552
 4874SOL    HW215522   6.317   4.743   2.480 -0.1398 -0.1581  0.1995
 4875SOL     OW15523   3.800   1.173   5.737 -0.0422 -0.2097  0.2812
 4875SOL    HW115524   3.734   1.148   5.808  1.7364 -0.8478  1.7956
 4875SOL    HW215525   3.836   1.264   5.755 -1.6085  0.8077 -1.4462
 4876SOL     OW15526   6.576   0.722   5.837 -0.3020  0.5000  0.3257
 4876SOL    HW115527   6.563   0.629   5.801 -0.3546  0.3856  0.6305
 4876SOL    HW215528   6.661   0.725   5.890 -1.6005 -0.0955  2.5534
 4877SOL     OW15529   5.756   1.770   0.996  0.2292  0.1505 -0.4357
 4877SOL    HW115530   5.805   1.709   0.934  1.8455  0.5713  0.3747
 4877SOL    HW215531   5.810   1.785   1.078 -1.6568 -0.0041  0.8864
 4878SOL     OW15532   6.868   3.646   4.201  0.0235 -0.0655  0.1985
 4878SOL    HW115533   6.946   3.680   4.148  1.3046 -1.9902  0.7548
 4878SOL    HW215534   6.789   3.635   4.140  0.7629  0.0105 -0.8011
 4879SOL     OW15535   3.632   5.288   2.208  0.0827  0.3657  0.3885
 4879SOL    HW115536   3.705   5.245   2.155 -0.2372  1.2277 -0.7720
 4879SOL    HW215537   3.565   5.328   2.147 -2.1854 -1.6492  1.3941
 4880SOL     OW15538   5.565   2.352   5.977 -0.3280  0.2219  0.2036
 4880SOL    HW115539   5.505   2.335   5.899  1.0839 -0.4518 -0.7880
 4880SOL    HW215540   5.591   2.448   5.978 -0.6990  0.3257  0.0966
 4881SOL     OW15541   3.628   3.703   6.236 -0.1376 -0.6382  0.0430
 4881SOL    HW115542   3.550   3.739   6.185 -0.6822 -0.7714  0.7555
 4881SOL    HW215543   3.682   3.643   6.177 -0.0739  0.1416 -0.7148
 4882SOL     OW15544   6.212   0.137   3.999  0.1628 -0.1593  0.6004
 4882SOL    HW115545   6.201   0.165   4.094  0.0067  1.4849  0.1365
 4882SOL    HW215546   6.132   0.083   3.971  0.0719 -0.4036  1.3058
 4883SOL     OW15547   5.777   4.465   2.695  0.1137  0.3083  0.1658
 4883SOL    HW115548   5.739   4.553   2.668  2.0745  0.6580 -1.7936
 4883SOL    HW215549   5.859   4.480   2.750 -0.2679 -0.3190  0.9065
 4884SOL     OW15550   4.805   6.522   1.196 -0.0714  0.3961 -0.7350
 4884SOL    HW115551   4.771   6.615   1.213  1.6031  1.0151 -0.5531
 4884SOL    HW215552   4.729   6.458   1.199 -1.1062  1.6052  0.3455
 4885SOL     OW15553   2.241   0.117   0.679  0.5088  0.1187  0.2257
 4885SOL    HW115554   2.278   0.120   0.586  1.2387 -0.2610  0.4973
 4885SOL    HW215555   2.183   0.197   0.694  0.7043  0.3880 -0.4259
 4886SOL     OW15556   0.317   5.197   3.971  0.5205  0.5169  0.4508
 4886SOL    HW115557   0.227   5.238   3.978  0.4447  0.1699  2.0928
 4886SOL    HW215558   0.336   5.172   3.876 -0.7976  1.2538 -0.0287
 4887SOL     OW15559   0.273   2.074   2.011  0.3814 -0.1879 -0.1208
 4887SOL    HW115560   0.176   2.061   2.032  0.1531 -1.0176 -1.5898
 4887SOL    HW215561   0.283   2.147   1.943  0.7595 -0.3279 -0.2138
 4888SOL     OW15562   2.592   6.232   5.955 -0.0533  0.0108  0.2238
 4888SOL    HW115563   2.677   6.223   6.007  1.8460  2.3712 -2.1984
 4888SOL    HW215564   2.527   6.288   6.007  0.3339 -0.7283  1.5547
 4889SOL     OW15565   0.348   2.892   6.419 -0.3261  0.0344  0.4434
 4889SOL    HW115566   0.359   2.840   6.504 -1.6512 -0.2104  0.4900
 4889SOL    HW215567   0.289   2.971   6.435 -1.1557 -0.3969 -0.3764
 4890SOL     OW15568   0.425   3.491   5.067 -0.0727  0.1582  0.1017
 4890SOL    HW115569   0.487   3.500   4.989 -0.1765 -0.1116 -0.0127
 4890SOL    HW215570   0.467   3.531   5.148 -0.2494  1.0840 -0.2474
 4891SOL     OW15571   1.847   6.657   1.197  0.1412 -0.1794 -0.2271
 4891SOL    HW115572   1.778   6.655   1.270 -1.2711 -1.0588 -1.5263
 4891SOL    HW215573   1.909   6.580   1.208  0.0471 -0.2025  0.1520
 4892SOL     OW15574   1.413   4.897   4.641  0.0434  0.6367 -0.1989
 4892SOL    HW115575   1.356   4.941   4.572  0.3163  1.2872 -0.0201
 4892SOL    HW215576   1.500   4.947   4.650  0.8269 -0.5772 -0.7627
 4893SOL     OW15577   6.536   5.027   5.724 -0.6400  0.1244  0.0055
 4893SOL    HW115578   6.440   5.006   5.738 -0.8026  1.4620  1.1628
 4893SOL    HW215579   6.551   5.125   5.738  0.6958  0.1492 -1.3210
 4894SOL     OW15580   3.039   1.945   0.933 -0.3866 -0.3067 -0.0370
 4894SOL    HW115581   3.042   2.031   0.984  0.8048  0.8537 -1.9556
 4894SOL    HW215582   3.130   1.903   0.932 -0.3089 -0.1624 -1.3659
 4895SOL     OW15583   0.005   4.769   2.111  0.4541  0.0867  0.1337
 4895SOL    HW115584  -0.052   4.775   2.194  1.8246  0.1281  1.1055
 4895SOL    HW215585   0.059   4.685   2.113 -0.0459 -0.2869 -1.1084
 4896SOL     OW15586   1.949   4.358   1.685 -0.2489  0.4352 -0.4381
 4896SOL    HW115587   1.879   4.361   1.613 -0.1395 -3.2985 -0.9234
 4896SOL    HW215588   1.904   4.362   1.775 -1.0433 -0.8530 -0.7476
 4897SOL     OW15589   3.282   3.941   0.697  0.1759  0.1845 -0.1102
 4897SOL    HW115590   3.245   4.009   0.761  0.3784  0.3536 -0.1720
 4897SOL    HW215591   3.347   3.985   0.635  3.5478 -0.7117  2.4443
 4898SOL     OW15592   4.981   2.722   3.750 -0.3596  0.3000 -0.1646
 4898SOL    HW115593   5.043   2.735   3.673  1.7891 -1.1785  1.1861
 4898SOL    HW215594   5.020   2.765   3.832 -1.9665  0.7578  0.4018
 4899SOL     OW15595   6.502   5.158   2.339  0.2327 -0.2143  0.1885
 4899SOL    HW115596   6.508   5.258   2.345 -0.1442 -0.0402 -1.7356
 4899SOL    HW215597   6.408   5.130   2.358 -0.0258 -0.0411 -0.7760
 4900SOL     OW15598   2.303   6.137   0.387 -0.3725 -0.0154 -0.0264
 4900SOL    HW115599   2.231   6.078   0.424 -0.3189 -0.2315 -0.2636
 4900SOL    HW215600   2.345   6.189   0.461 -1.9739  1.4480 -0.0936
 4901SOL     OW15601   3.627   0.752   3.269 -0.0788 -0.2186  0.4425
 4901SOL    HW115602   3.643   0.831   3.209 -1.1827 -1.1154 -1.1228
 4901SOL    HW215603   3.669   0.671   3.228 -1.7705 -1.0570  0.2820
 4902SOL     OW15604   3.173   1.714   3.356  0.2138 -0.1697  0.0887
 4902SOL    HW115605   3.245   1.729   3.424 -0.6083 -0.3953  1.0258
 4902SOL    HW215606   3.193   1.768   3.274  1.2906 -0.0018  0.4407
 4903SOL     OW15607   4.325   6.026   4.906 -0.2963  0.0289  0.2850
 4903SOL    HW115608   4.288   6.106   4.859 -1.3889 -0.7663 -0.2348
 4903SOL    HW215609   4.270   6.006   4.987  1.0416  0.8466  1.4644
 4904SOL     OW15610   1.078   0.881   2.158  0.0550  0.0926 -0.4862
 4904SOL    HW115611   1.135   0.833   2.092 -0.1613 -0.2247 -0.4413
 4904SOL    HW215612   0.997   0.918   2.111  0.6209  1.1332 -0.6924
 4905SOL     OW15613   4.803   3.004   2.256 -0.1976 -0.2850  0.0376
 4905SOL    HW115614   4.750   2.938   2.310 -0.7886  0.4711  0.3910
 4905SOL    HW215615   4.759   3.020   2.168 -0.5706  0.3525  0.3359
 4906SOL     OW15616   5.343   2.183   6.318  0.2383  0.4970 -0.1212
 4906SOL    HW115617   5.281   2.186   6.239  0.5768  2.2293 -0.3669
 4906SOL    HW215618   5.293   2.210   6.400  0.5947  1.6858 -0.2833
 4907SOL     OW15619   3.801   6.974   2.100 -0.4502  0.6080 -0.1598
 4907SOL    HW115620   3.767   6.880   2.098  1.2561 -0.0746  0.9643
 4907SOL    HW215621   3.767   7.020   2.181  1.5259 -0.2393  1.2486
 4908SOL     OW15622   5.802   5.474   6.121  0.2670 -0.6141 -0.1724
 4908SOL    HW115623   5.821   5.465   6.219  2.5029  0.3197 -0.4709
 4908SOL    HW215624   5.865   5.417   6.069  0.2584  0.2242 -1.1324
 4909SOL     OW15625   5.759   0.584   6.424 -0.1349 -0.6415  0.0988
 4909SOL    HW115626   5.681   0.639   6.458  1.3866  0.8390  1.3967
 4909SOL    HW215627   5.788   0.620   6.335 -0.2288 -0.4579  0.1397
 4910SOL     OW15628   0.423   0.094   4.602  0.2143 -0.0584 -0.0853
 4910SOL    HW115629   0.383   0.131   4.686  0.2309  0.6257 -0.3736
 4910SOL    HW215630   0.399   0.152   4.524 -1.5000 -1.7713 -0.9132
 4911SOL     OW15631   0.603   1.912   6.275 -0.3429 -0.0354 -0.0988
 4911SOL    HW115632   0.534   1.845   6.303 -1.2159  0.4648 -1.0006
 4911SOL    HW215633   0.563   2.003   6.274 -0.5262 -0.0506 -3.3012
 4912SOL     OW15634   0.546   2.737   2.665  0.1743  0.0810  0.1971
 4912SOL    HW115635   0.519   2.823   2.621 -0.6800  0.1305  0.7998
 4912SOL    HW215636   0.553   2.665   2.596 -0.9895  0.1970 -0.0610
 4913SOL     OW15637   3.561   4.045   4.171  0.2811 -0.1599  0.1264
 4913SOL    HW115638   3.464   4.067   4.165  0.2800 -0.1061  0.3294
 4913SOL    HW215639   3.573   3.947   4.189  0.2958 -0.4324 -1.2431
 4914SOL     OW15640   3.197   6.539   4.855  0.6386  0.2557 -0.1581
 4914SOL    HW115641   3.159   6.465   4.911  0.0054  0.4981 -0.2563
 4914SOL    HW215642   3.204   6.622   4.910 -0.2138  0.5618 -0.4852
 4915SOL     OW15643   5.038   1.492   4.842  0.5146 -0.5450  0.2305
 4915SOL    HW115644   4.986   1.413   4.813 -0.8904  0.9610 -1.6036
 4915SOL    HW215645   5.134   1.468   4.851 -0.1769 -2.9836  2.0666
 4916SOL     OW15646   3.848   6.683   3.012 -0.2848 -0.6433 -0.5255
 4916SOL    HW115647   3.801   6.638   3.087 -0.9302 -0.6206 -0.9093
 4916SOL    HW215648   3.884   6.772   3.042  1.6175 -1.6827  0.4365
 4917SOL     OW15649   0.352   4.715   1.292  0.0778 -0.0242 -0.1699
 4917SOL    HW115650   0.373   4.635   1.349  0.8211 -1.3507 -2.1573
 4917SOL    HW215651   0.261   4.749   1.313  0.5653 -0.0545  2.1904
 4918SOL     OW15652   4.860   6.500   2.808  0.2912  0.5280 -0.3286
 4918SOL    HW115653   4.799   6.514   2.730 -0.0376 -1.0034 -0.3687
 4918SOL    HW215654   4.950   6.471   2.775 -0.5924 -2.8486 -0.1596
 4919SOL     OW15655   3.092   1.560   2.341 -0.1833 -0.5326 -0.1420
 4919SOL    HW115656   3.159   1.487   2.353  0.4721  0.2512  1.1619
 4919SOL    HW215657   3.005   1.521   2.308  0.5027 -1.7184 -0.6084
 4920SOL     OW15658   2.453   6.985   1.659 -0.1746  0.2577  0.1340
 4920SOL    HW115659   2.458   7.053   1.732 -2.0982  0.1694  0.3855
 4920SOL    HW215660   2.508   6.905   1.685  2.2396  1.6877 -0.2325
 4921SOL     OW15661   1.783   4.382   1.457  0.1841 -0.0294  0.3402
 4921SOL    HW115662   1.840   4.388   1.375 -0.8060 -1.0077 -0.4532
 4921SOL    HW215663   1.763   4.474   1.491  0.0867  0.4305 -0.9025
 4922SOL     OW15664   6.831   2.493   4.790  0.1138  0.0193 -0.6257
 4922SOL    HW115665   6.877   2.502   4.878 -1.0059 -2.8757  0.3750
 4922SOL    HW215666   6.878   2.423   4.735 -1.4300 -1.0262 -0.6815
 4923SOL     OW15667   4.746   1.467   0.112 -0.5296 -0.9080 -0.3623
 4923SOL    HW115668   4.822   1.410   0.081 -0.4006 -1.7018  1.2823
 4923SOL    HW215669   4.782   1.549   0.155 -0.5603 -1.4122  0.6605
 4924SOL     OW15670   1.726   3.114   6.312  1.1035  0.2402  0.3613
 4924SOL    HW115671   1.755   3.074   6.225  1.2481  2.5964 -0.7679
 4924SOL    HW215672   1.720   3.043   6.382 -0.1149 -1.9449 -1.8252
 4925SOL     OW15673   6.454   6.346   0.710  1.1888 -0.1327  0.0887
 4925SOL    HW115674   6.457   6.325   0.807 -1.2089  0.2712  0.3070
 4925SOL    HW215675   6.542   6.383   0.681  1.2531  1.9786  2.6472
 4926SOL     OW15676   5.613   3.994   6.305  0.5916  0.2625  0.3134
 4926SOL    HW115677   5.528   3.986   6.357 -0.8158 -0.9229 -1.9807
 4926SOL    HW215678   5.610   4.078   6.250  1.4372  0.8028  1.0811
 4927SOL     OW15679   2.996   3.991   5.399  0.7782 -0.0507 -0.2434
 4927SOL    HW115680   2.991   4.084   5.363 -0.4214 -0.0258 -0.0670
 4927SOL    HW215681   3.090   3.958   5.394  0.5672 -0.5769 -4.6565
 4928SOL     OW15682   1.242   0.229   0.149 -0.2053 -0.4300  0.1362
 4928SOL    HW115683   1.280   0.138   0.131  3.0131  0.8260 -0.2429
 4928SOL    HW215684   1.251   0.250   0.246  2.8916  0.8442 -0.2906
 4929SOL     OW15685   6.482   5.896   5.236  0.1425  0.2740 -0.5291
 4929SOL    HW115686   6.523   5.810   5.207 -0.4553  0.0270 -0.6669
 4929SOL    HW215687   6.554   5.962   5.259  0.6039 -0.3174 -0.2423
 4930SOL     OW15688   1.417   0.021   0.863 -0.0759 -0.1987 -0.0515
 4930SOL    HW115689   1.409  -0.079   0.871 -0.2201 -0.3112 -1.2784
 4930SOL    HW215690   1.431   0.061   0.953  0.8946 -1.4129  0.3652
 4931SOL     OW15691   0.092   1.070   6.678 -0.0556 -0.1739  0.0230
 4931SOL    HW115692   0.089   1.002   6.605  0.3073 -0.1981  0.0286
 4931SOL    HW215693   0.141   1.032   6.757 -0.1210 -0.0153  0.1403
 4932SOL     OW15694   1.342   4.213   0.794  0.2989 -0.0536 -0.0774
 4932SOL    HW115695   1.332   4.114   0.782 -2.7426  0.0590  0.6223
 4932SOL    HW215696   1.282   4.260   0.729  2.1243  1.4068 -0.7793
 4933SOL     OW15697   2.556   1.675   4.195  0.1954 -0.2864 -0.1574
 4933SOL    HW115698   2.607   1.671   4.109  0.5729 -2.0475  0.1125
 4933SOL    HW215699   2.492   1.753   4.192  2.9179  2.1236 -0.4285
 4934SOL     OW15700   1.107   5.254   5.136 -0.1811 -0.4447 -0.3108
 4934SOL    HW115701   1.175   5.182   5.119 -0.4838 -0.6507 -0.6556
 4934SOL    HW215702   1.062   5.278   5.050 -1.4124 -1.1771  0.1099
 4935SOL     OW15703   1.680   0.317   2.019 -0.0140  0.2082 -0.2105
 4935SOL    HW115704   1.772   0.299   2.052 -0.5318 -0.6046  0.8581
 4935SOL    HW215705   1.670   0.414   1.998  0.6561  0.5633  1.0358
 4936SOL     OW15706   0.103   4.422   1.194  0.1362  0.1874  0.1416
 4936SOL    HW115707   0.146   4.434   1.283 -0.0799  1.5078  0.0904
 4936SOL    HW215708   0.058   4.507   1.167 -0.1312 -0.3115 -1.0533
 4937SOL     OW15709   1.471   4.330   5.891  0.2177  0.7072  0.5131
 4937SOL    HW115710   1.375   4.351   5.911  0.3324  0.6867  1.1043
 4937SOL    HW215711   1.527   4.353   5.970  0.6480  0.3537  0.3140
 4938SOL     OW15712   4.062   5.830   2.066 -0.5537 -0.1755  0.0277
 4938SOL    HW115713   4.018   5.891   2.131 -1.4746 -0.4212 -0.3529
 4938SOL    HW215714   4.036   5.735   2.085 -1.6222 -0.1720 -1.2611
 4939SOL     OW15715   0.278   3.109   2.757  0.4811  0.0800 -0.1153
 4939SOL    HW115716   0.199   3.168   2.773 -1.1566 -1.2398 -2.6546
 4939SOL    HW215717   0.266   3.022   2.805  1.3138  0.5276  0.9530
 4940SOL     OW15718   5.388   1.401   4.267 -0.2551 -0.2327 -0.2249
 4940SOL    HW115719   5.453   1.467   4.303 -0.2173 -0.5269  0.2657
 4940SOL    HW215720   5.433   1.343   4.199  1.6673 -3.9219  3.7514
 4941SOL     OW15721   5.951   2.158   5.013 -0.0671  0.3202 -0.4611
 4941SOL    HW115722   5.986   2.251   5.019  2.2138 -0.4291 -1.0076
 4941SOL    HW215723   5.852   2.158   5.026  0.0011  2.6907  0.4747
 4942SOL     OW15724   5.377   2.858   4.599 -0.2658 -0.3751  0.0691
 4942SOL    HW115725   5.467   2.825   4.627  0.3556  2.4737  1.7849
 4942SOL    HW215726   5.306   2.795   4.632  0.8939 -0.6487  2.1776
 4943SOL     OW15727   6.565   4.227   6.525 -0.1116 -0.3039  0.1801
 4943SOL    HW115728   6.488   4.229   6.461  0.1849  0.5230 -0.1641
 4943SOL    HW215729   6.606   4.318   6.529 -0.1617 -0.3273  1.5886
 4944SOL     OW15730   0.548   5.665   2.097  0.0900 -0.1275 -0.5320
 4944SOL    HW115731   0.600   5.750   2.093  0.3778 -0.2472  0.5959
 4944SOL    HW215732   0.521   5.639   2.004  0.9752  0.5870 -1.0072
 4945SOL     OW15733   1.540   1.352   4.656  0.0170  0.3754 -0.4393
 4945SOL    HW115734   1.578   1.283   4.594  0.4163  0.0975  0.1126
 4945SOL    HW215735   1.599   1.362   4.736 -0.7729  0.3424  0.1629
 4946SOL     OW15736   1.309   5.593   1.226  0.1554  0.6772 -0.1200
 4946SOL    HW115737   1.393   5.552   1.262 -0.4450 -1.0995 -0.6394
 4946SOL    HW215738   1.275   5.662   1.291  0.7036 -0.3144  1.2632
 4947SOL     OW15739   2.622   1.066   2.540 -0.6261  0.7329 -0.3892
 4947SOL    HW115740   2.694   0.996   2.547 -1.6330 -0.2492  0.5313
 4947SOL    HW215741   2.628   1.111   2.451  0.9468  0.4797 -0.4432
 4948SOL     OW15742   1.202   2.938   4.614  0.3349  0.4237 -0.4337
 4948SOL    HW115743   1.186   2.875   4.539 -0.3826 -0.9325  0.8017
 4948SOL    HW215744   1.268   2.898   4.678  0.3061  1.1829  0.0884
 4949SOL     OW15745   6.737   3.933   5.262  0.3851  0.9940  0.4309
 4949SOL    HW115746   6.724   3.944   5.164  0.9560  0.7740  0.3271
 4949SOL    HW215747   6.834   3.920   5.282  0.1161 -0.6257  0.8518
 4950SOL     OW15748   2.133   4.783   4.084  0.9490  0.3743  0.5624
 4950SOL    HW115749   2.144   4.846   4.161  0.2264  0.1376  0.8681
 4950SOL    HW215750   2.221   4.770   4.038  1.4487  0.2663  1.5368
 4951SOL     OW15751   0.837   5.919   4.934  0.3888  0.1616  0.2829
 4951SOL    HW115752   0.790   5.857   4.871  1.1068  0.3320 -0.4455
 4951SOL    HW215753   0.785   5.927   5.019 -0.1873 -0.7068  0.0254
 4952SOL     OW15754   6.733   5.249   5.876 -0.6284  0.1728  0.7413
 4952SOL    HW115755   6.792   5.247   5.957 -0.0386  0.2159  0.3165
 4952SOL    HW215756   6.781   5.207   5.799 -1.3935 -0.3562  0.5500
 4953SOL     OW15757   2.973   1.361   2.610 -0.6154 -0.8135  0.2009
 4953SOL    HW115758   2.932   1.413   2.684  0.4204  0.4832 -0.0980
 4953SOL    HW215759   2.921   1.376   2.526 -0.7891 -0.9201  0.2882
 4954SOL     OW15760   4.047   3.616   5.638  0.6829  0.2114  0.1685
 4954SOL    HW115761   4.031   3.634   5.542  0.3108 -0.3531  0.1207
 4954SOL    HW215762   4.051   3.703   5.688 -3.7305  0.5023  0.3948
 4955SOL     OW15763   2.829   0.008   0.695  0.0808  0.0537 -0.5339
 4955SOL    HW115764   2.769  -0.005   0.616  0.4915  1.6937 -1.1496
 4955SOL    HW215765   2.904  -0.057   0.690 -0.7075 -0.8750 -0.6616
 4956SOL     OW15766   2.056   0.533   4.876 -0.2141  0.0073  0.3884
 4956SOL    HW115767   2.048   0.631   4.891  1.4497  0.1224  0.7704
 4956SOL    HW215768   2.126   0.496   4.937  0.7410 -1.0205 -1.2441
 4957SOL     OW15769   6.677   1.977   0.774 -0.1791  0.0876  0.6195
 4957SOL    HW115770   6.774   1.953   0.772  0.0175  0.5911  2.5811
 4957SOL    HW215771   6.664   2.066   0.730 -0.0675 -0.8065 -1.3399
 4958SOL     OW15772   1.791   6.565   6.126 -0.1277 -0.1574  0.1068
 4958SOL    HW115773   1.712   6.513   6.094  0.9205 -0.6674 -1.8559
 4958SOL    HW215774   1.786   6.659   6.091  0.1372 -0.2073 -0.0749
 4959SOL     OW15775   1.491   0.500   4.435 -0.3678 -0.4960 -0.4525
 4959SOL    HW115776   1.579   0.503   4.389 -0.0671 -0.0583  0.1374
 4959SOL    HW215777   1.433   0.574   4.402 -0.6621 -1.0169 -1.1211
 4960SOL     OW15778   4.051   4.863   3.830  0.0851  0.6461  0.6943
 4960SOL    HW115779   4.058   4.795   3.756 -0.2372  0.6254  0.6840
 4960SOL    HW215780   4.112   4.940   3.810  1.9034 -0.4733  1.6160
 4961SOL     OW15781   4.026   5.258   6.679 -0.1173 -0.4278 -0.2897
 4961SOL    HW115782   3.951   5.197   6.654 -1.4351  0.2058  1.8946
 4961SOL    HW215783   4.005   5.305   6.764  2.4818  0.3155  0.0508
 4962SOL     OW15784   5.621   3.269   0.788  0.1346  0.4091 -0.0238
 4962SOL    HW115785   5.630   3.343   0.856 -1.7213 -0.3133  1.1013
 4962SOL    HW215786   5.677   3.192   0.815 -1.3096 -0.2393  1.2981
 4963SOL     OW15787   0.023   6.149   0.491  0.2998 -0.0664 -0.8363
 4963SOL    HW115788   0.085   6.223   0.519  0.5389  0.7543 -3.3257
 4963SOL    HW215789   0.035   6.071   0.553 -0.5905  2.1907  2.4494
 4964SOL     OW15790   1.513   0.159   5.999 -0.7926  0.5336  0.3294
 4964SOL    HW115791   1.560   0.183   6.083 -1.6349  2.3432  0.3310
 4964SOL    HW215792   1.532   0.228   5.929 -1.5761  0.0464 -0.3857
 4965SOL     OW15793   0.671   7.000   3.241 -0.0481  0.3249 -0.2732
 4965SOL    HW115794   0.580   6.996   3.198 -1.2938 -0.6952  2.2573
 4965SOL    HW215795   0.707   6.907   3.250 -1.6833 -0.1298  4.2953
 4966SOL     OW15796   3.889   0.094   6.332  0.0319 -0.5206  0.0116
 4966SOL    HW115797   3.933   0.092   6.242  0.6648  0.4822  0.2812
 4966SOL    HW215798   3.801   0.141   6.325  1.1253  1.7016  0.3131
 4967SOL     OW15799   3.253   5.995   6.519  0.2867  0.4733  0.1558
 4967SOL    HW115800   3.178   5.943   6.560  1.5185 -1.5318  0.0192
 4967SOL    HW215801   3.243   5.996   6.420 -0.7490  2.1998  0.2450
 4968SOL     OW15802   0.197   2.021   3.341  0.0050  0.4718  0.5669
 4968SOL    HW115803   0.215   1.923   3.331 -0.3628  0.5316 -1.0597
 4968SOL    HW215804   0.277   2.066   3.379  1.7464  0.0649 -2.3066
 4969SOL     OW15805   2.721   6.285   2.675 -0.2295  0.0601  0.2600
 4969SOL    HW115806   2.808   6.336   2.670  0.6075 -1.1628  1.6860
 4969SOL    HW215807   2.668   6.317   2.753 -0.7464  0.2978 -0.1831
 4970SOL     OW15808   2.674   1.688   2.282 -0.6209  0.0025 -0.4091
 4970SOL    HW115809   2.589   1.644   2.309 -0.8405 -1.3809 -3.0994
 4970SOL    HW215810   2.750   1.624   2.292 -0.3762  0.2047 -0.9442
 4971SOL     OW15811   5.976   4.960   1.527 -0.3989 -0.5466 -0.0131
 4971SOL    HW115812   5.933   5.048   1.548 -0.3867 -0.2331 -1.2241
 4971SOL    HW215813   5.993   4.910   1.612  0.6271  1.1091  0.8049
 4972SOL     OW15814   2.624   5.833   0.900  0.0591  0.5640 -0.1375
 4972SOL    HW115815   2.595   5.884   0.819  0.0249 -0.1099 -0.5624
 4972SOL    HW215816   2.661   5.745   0.872 -0.8841 -0.1067  0.6275
 4973SOL     OW15817   0.281   5.549   0.842  0.7187  0.1451 -0.0683
 4973SOL    HW115818   0.277   5.575   0.746 -2.2902 -1.7973 -0.6057
 4973SOL    HW215819   0.311   5.454   0.850  0.4928  0.1405  0.8923
 4974SOL     OW15820   5.090   4.659   1.147  0.1919 -0.4042  0.2980
 4974SOL    HW115821   5.025   4.731   1.172  0.3523 -0.3551  0.5766
 4974SOL    HW215822   5.044   4.592   1.089 -0.3021 -0.7206  1.0359
 4975SOL     OW15823   0.371   4.689   5.281 -0.5545 -0.4807  0.0752
 4975SOL    HW115824   0.289   4.667   5.229 -0.4536 -0.4474 -0.0983
 4975SOL    HW215825   0.365   4.784   5.314 -1.3384 -0.9979  1.4836
 4976SOL     OW15826   0.343   1.257   2.644 -0.4891  0.7046  0.6233
 4976SOL    HW115827   0.270   1.323   2.659 -1.1790  0.0505  0.2376
 4976SOL    HW215828   0.311   1.186   2.581  0.8308  0.9869 -0.4117
 4977SOL     OW15829   4.275   4.902   0.601 -0.3300  0.3265  0.0699
 4977SOL    HW115830   4.323   4.967   0.543  0.0404 -0.0313 -0.0292
 4977SOL    HW215831   4.232   4.832   0.544  0.1587 -0.1087  0.2269
 4978SOL     OW15832   4.567   5.058   5.078 -0.4262 -0.4658  0.4611
 4978SOL    HW115833   4.573   4.981   5.013 -0.1446 -1.1186  1.2405
 4978SOL    HW215834   4.619   5.136   5.042  0.6661 -1.1929  0.4018
 4979SOL     OW15835   4.834   5.871   5.659 -0.7487 -0.1656 -0.5155
 4979SOL    HW115836   4.778   5.808   5.606 -1.3149 -1.8538  1.9330
 4979SOL    HW215837   4.922   5.829   5.679 -0.4116  0.5835 -0.3859
 4980SOL     OW15838   4.421   6.218   3.950 -0.2342 -0.6763  0.6173
 4980SOL    HW115839   4.417   6.275   3.867  0.5259  0.3059  1.2263
 4980SOL    HW215840   4.393   6.125   3.928 -2.0734  0.0447 -0.3062
 4981SOL     OW15841   3.745   5.853   2.105 -0.1593  0.2593  0.0083
 4981SOL    HW115842   3.781   5.779   2.163 -0.5779  0.3786  0.4287
 4981SOL    HW215843   3.753   5.826   2.009 -0.6919 -0.5274  0.1674
 4982SOL     OW15844   2.056   3.358   6.539 -0.1014 -0.0583  0.3757
 4982SOL    HW115845   2.129   3.349   6.471 -0.5790  1.3971 -0.3603
 4982SOL    HW215846   1.969   3.333   6.497 -0.3801  0.7151  0.4925
 4983SOL     OW15847   4.961   3.323   3.348 -0.0935 -0.3417 -0.0537
 4983SOL    HW115848   4.911   3.240   3.321 -1.8531  0.4860  0.5002
 4983SOL    HW215849   4.926   3.354   3.437  0.9135  0.7041 -0.0162
 4984SOL     OW15850   5.451   3.558   0.428  0.7990 -0.7062 -0.2047
 4984SOL    HW115851   5.459   3.517   0.519  0.7070 -1.2721 -0.4460
 4984SOL    HW215852   5.355   3.578   0.408  0.9509  0.7956  0.4037
 4985SOL     OW15853   6.114   0.653   4.291  0.3057 -0.6951  0.0547
 4985SOL    HW115854   6.108   0.749   4.318 -0.7340 -0.3215 -1.4074
 4985SOL    HW215855   6.100   0.645   4.192 -0.5246 -2.4461  0.2816
 4986SOL     OW15856   0.321   6.012   1.673  0.0461 -0.3964 -0.5326
 4986SOL    HW115857   0.297   5.922   1.637  1.2981 -1.3161  0.7863
 4986SOL    HW215858   0.421   6.023   1.671  0.2936 -0.7387  2.8921
 4987SOL     OW15859   2.280   0.328   3.293 -0.0808  0.3651 -0.1369
 4987SOL    HW115860   2.187   0.364   3.300  0.2854  1.2308  0.4441
 4987SOL    HW215861   2.281   0.251   3.230 -0.8048  1.6421 -1.7769
 4988SOL     OW15862   5.819   6.583   1.579  0.3690  0.6025  0.1876
 4988SOL    HW115863   5.819   6.639   1.497 -0.6016  0.5835  0.1652
 4988SOL    HW215864   5.832   6.487   1.554  0.9948  0.6947  0.1409
 4989SOL     OW15865   4.782   5.066   1.910  0.2245  0.2244 -0.1961
 4989SOL    HW115866   4.828   5.100   1.992 -1.5159  2.9492 -0.2249
 4989SOL    HW215867   4.821   4.977   1.885  4.0569  1.3957  0.8347
 4990SOL     OW15868   2.718   2.239   5.939  0.2886  0.0167  0.2369
 4990SOL    HW115869   2.653   2.290   5.884  1.1344  0.1994 -0.6026
 4990SOL    HW215870   2.810   2.251   5.904  0.5602 -1.8579  0.1654
 4991SOL     OW15871   5.906   6.609   5.423  0.5911  0.3202 -0.5261
 4991SOL    HW115872   5.811   6.582   5.417  0.8101 -0.3730 -0.8908
 4991SOL    HW215873   5.950   6.599   5.334  1.7506 -2.1745  0.2578
 4992SOL     OW15874   3.773   6.187   0.599 -0.5573 -0.5836 -0.1335
 4992SOL    HW115875   3.794   6.134   0.681 -2.5379 -2.0457 -0.5137
 4992SOL    HW215876   3.835   6.160   0.525  1.1374  0.6370  0.7675
 4993SOL     OW15877   3.216   5.841   5.511 -0.0657  0.4617  0.2251
 4993SOL    HW115878   3.305   5.805   5.536  0.2916  1.6173  0.6605
 4993SOL    HW215879   3.167   5.773   5.456  1.5329  0.2467 -1.0127
 4994SOL     OW15880   2.697   5.620   3.413  0.1371  0.3805 -0.2027
 4994SOL    HW115881   2.767   5.623   3.341  0.0102  3.2940 -0.3268
 4994SOL    HW215882   2.741   5.606   3.502  0.7124  0.7162 -0.4325
 4995SOL     OW15883   6.257   1.234   5.681  0.1140 -0.6485  0.5327
 4995SOL    HW115884   6.213   1.212   5.768  0.4065 -0.0085  0.8471
 4995SOL    HW215885   6.218   1.177   5.609 -0.7471 -0.5698  0.9255
 4996SOL     OW15886   6.630   0.881   4.235 -0.1386  0.2974 -0.3098
 4996SOL    HW115887   6.556   0.892   4.302 -0.8178  2.6376 -1.3629
 4996SOL    HW215888   6.675   0.969   4.220  2.1049 -0.8280 -0.6205
 4997SOL     OW15889   4.833   2.945   3.981  0.0058 -0.6220  0.3320
 4997SOL    HW115890   4.923   2.987   3.976  0.1013 -0.8178  0.4130
 4997SOL    HW215891   4.778   2.975   3.903  0.2874 -0.8459  0.0475
 4998SOL     OW15892   0.851   1.757   3.624 -0.0386  0.4879 -0.3046
 4998SOL    HW115893   0.858   1.657   3.615  1.8003  0.4124  1.2514
 4998SOL    HW215894   0.909   1.787   3.700 -0.3253  2.7893 -0.9401
 4999SOL     OW15895   0.906   4.470   5.260 -0.1525  0.0728  0.6519
 4999SOL    HW115896   0.831   4.422   5.215 -0.1571 -0.2656  1.0125
 4999SOL    HW215897   0.976   4.495   5.192 -0.3923  0.0176  0.3836
 5000SOL     OW15898   4.800   0.079   2.578  0.0013  0.7936  0.0644
 5000SOL    HW115899   4.778  -0.009   2.620  0.5489 -0.0404 -1.3110
 5000SOL    HW215900   4.856   0.133   2.641  0.0376 -0.0312  0.7595
 5001SOL     OW15901   1.263   3.589   1.707 -0.0693 -0.4613 -0.3450
 5001SOL    HW115902   1.172   3.629   1.700  0.5403  1.5289  1.9630
 5001SOL    HW215903   1.275   3.549   1.798  1.1234 -1.4056 -0.8840
 5002SOL     OW15904   4.890   5.538   1.994  0.5281  0.5169 -0.5141
 5002SOL    HW115905   4.937   5.621   1.963 -0.8558  0.8888 -1.7236
 5002SOL    HW215906   4.826   5.562   2.067 -0.1848  0.6199 -1.1562
 5003SOL     OW15907   2.191   3.902   2.767  0.2025 -0.4899  1.1397
 5003SOL    HW115908   2.158   3.965   2.697  0.8554  0.3951  1.6059
 5003SOL    HW215909   2.217   3.953   2.849  1.1513 -1.3136  1.3834
 5004SOL     OW15910   0.214   5.021   6.290  0.3582 -0.6576  0.4156
 5004SOL    HW115911   0.258   5.041   6.377 -1.6934  0.8403  1.1762
 5004SOL    HW215912   0.248   5.084   6.220 -0.5465  0.5343  1.0135
 5005SOL     OW15913   2.195   2.444   1.853 -0.1505 -0.2229  0.2013
 5005SOL    HW115914   2.133   2.521   1.866  0.5597  0.4432 -0.3064
 5005SOL    HW215915   2.279   2.460   1.905 -0.2367 -0.9479  0.5848
 5006SOL     OW15916   4.667   2.633   2.019 -0.1212  0.4324  0.9666
 5006SOL    HW115917   4.748   2.691   2.011  0.9113 -1.1122 -0.3823
 5006SOL    HW215918   4.615   2.636   1.933 -0.2096 -0.3836  0.9825
 5007SOL     OW15919   1.334   7.000   1.914  0.0205  0.1695  0.4073
 5007SOL    HW115920   1.364   7.071   1.978  1.0151 -0.6002  0.8188
 5007SOL    HW215921   1.406   6.932   1.903 -0.7549 -0.5632 -0.3057
 5008SOL     OW15922   5.928   5.992   1.189  0.0898  0.3211  0.3881
 5008SOL    HW115923   6.010   5.985   1.246 -0.0664  0.4901  0.6373
 5008SOL    HW215924   5.877   6.074   1.215  0.0981  0.4839 -0.1033
 5009SOL     OW15925   0.900   1.623   0.482  0.1167 -0.0296 -0.7993
 5009SOL    HW115926   0.838   1.669   0.418 -1.1920  1.6897  1.5199
 5009SOL    HW215927   0.973   1.686   0.509 -1.2172  0.5535  1.7807
 5010SOL     OW15928   3.868   3.399   1.486  0.5625  0.2647 -0.5389
 5010SOL    HW115929   3.814   3.315   1.481  0.9117 -0.0725  0.8493
 5010SOL    HW215930   3.960   3.378   1.520 -0.0179  1.4212  2.0293
 5011SOL     OW15931   1.290   3.478   1.976  0.2268  0.3717  0.6054
 5011SOL    HW115932   1.272   3.523   2.064  0.2415 -1.1182  1.3956
 5011SOL    HW215933   1.299   3.380   1.990  2.8880  0.3556 -0.6636
 5012SOL     OW15934   4.462   5.020   3.738  0.6168  0.0635  0.3215
 5012SOL    HW115935   4.515   5.104   3.748  0.5463  0.4011 -1.8194
 5012SOL    HW215936   4.508   4.959   3.674 -1.1645  0.0480 -0.9969
 5013SOL     OW15937   5.880   2.798   0.392  0.3732 -0.8373  0.5989
 5013SOL    HW115938   5.897   2.699   0.384 -0.6249 -0.8812 -2.2400
 5013SOL    HW215939   5.788   2.814   0.425 -0.4258 -0.9758 -1.4222
 5014SOL     OW15940   3.637   4.824   1.032  0.0181  0.1789 -0.3833
 5014SOL    HW115941   3.544   4.841   1.064 -0.0625  1.7124 -1.3108
 5014SOL    HW215942   3.701   4.835   1.109 -0.5065 -0.4242  0.1525
 5015SOL     OW15943   5.165   0.600   6.622 -0.1969 -0.1401  0.5049
 5015SOL    HW115944   5.077   0.621   6.581 -0.1134 -0.2491  0.2701
 5015SOL    HW215945   5.221   0.683   6.626 -0.6844  0.1563  1.5805
 5016SOL     OW15946   3.194   1.562   3.684  0.2303 -0.6857 -0.0408
 5016SOL    HW115947   3.204   1.640   3.622  0.8104 -2.0044 -1.7154
 5016SOL    HW215948   3.272   1.560   3.747 -0.0374  0.3407  0.3325
 5017SOL     OW15949   3.612   4.270   0.925  0.0599  0.1274 -0.0164
 5017SOL    HW115950   3.702   4.253   0.966 -0.7813 -0.6575  1.6377
 5017SOL    HW215951   3.588   4.366   0.936  1.1544  0.5893 -1.4885
 5018SOL     OW15952   1.926   5.435   2.817  0.9603 -0.1011  0.2162
 5018SOL    HW115953   1.905   5.416   2.913  0.6875  0.1984  0.2159
 5018SOL    HW215954   1.951   5.531   2.807 -0.8020  0.3307 -0.3064
 5019SOL     OW15955   3.156   5.685   6.323 -0.0981  0.5928  0.4197
 5019SOL    HW115956   3.074   5.628   6.319  0.6747 -0.5576  0.3947
 5019SOL    HW215957   3.165   5.725   6.414 -0.0673 -0.2357  0.7875
 5020SOL     OW15958   4.272   6.122   6.370  0.2915 -0.1492 -0.0234
 5020SOL    HW115959   4.324   6.056   6.423  1.2622  2.0974  1.9972
 5020SOL    HW215960   4.332   6.168   6.304 -0.6958 -2.2029 -2.5394
 5021SOL     OW15961   0.443   1.672   6.327  0.0144 -0.5295  0.0979
 5021SOL    HW115962   0.466   1.574   6.330 -0.7085 -0.7101  0.0403
 5021SOL    HW215963   0.375   1.692   6.398 -1.0139 -0.4043 -0.8855
 5022SOL     OW15964   2.816   1.956   2.494  0.3050 -0.0287  0.4218
 5022SOL    HW115965   2.814   2.035   2.556  1.0944 -0.0451  0.4735
 5022SOL    HW215966   2.820   1.988   2.399  0.5043 -0.0056  0.4377
 5023SOL     OW15967   6.560   2.282   6.374 -0.2715  0.4020 -0.2586
 5023SOL    HW115968   6.553   2.309   6.278  1.1681  1.8411  0.0022
 5023SOL    HW215969   6.528   2.356   6.432 -0.9642 -0.3916  0.3938
 5024SOL     OW15970   6.841   5.440   1.483  0.6708  0.2983  0.1885
 5024SOL    HW115971   6.778   5.516   1.468  0.1337  0.0862  1.1995
 5024SOL    HW215972   6.916   5.444   1.418 -0.3975  0.5575 -1.0579
 5025SOL     OW15973   4.432   1.448   2.562  0.0967 -0.6570  0.7252
 5025SOL    HW115974   4.374   1.436   2.482  1.2114  0.4007 -0.2938
 5025SOL    HW215975   4.450   1.545   2.576  0.9909 -0.9129  1.4585
 5026SOL     OW15976   6.094   5.260   6.869  0.3492  0.5398  0.0748
 5026SOL    HW115977   6.029   5.323   6.827 -1.1475 -1.0472 -0.0838
 5026SOL    HW215978   6.082   5.168   6.831  2.4649  0.1143  0.3036
 5027SOL     OW15979   6.977   1.503   2.495  0.3669 -0.0405  0.3666
 5027SOL    HW115980   7.003   1.560   2.417  2.3566 -0.2890  0.8013
 5027SOL    HW215981   6.943   1.415   2.463  0.7338  0.0346 -0.2388
 5028SOL     OW15982   6.458   2.256   1.598 -0.1432 -0.7279  0.2624
 5028SOL    HW115983   6.546   2.303   1.607  0.1141 -1.0667 -0.3829
 5028SOL    HW215984   6.453   2.181   1.664  0.0776 -0.7445  0.2610
 5029SOL     OW15985   6.565   4.331   2.362  0.0231 -0.1475 -0.2113
 5029SOL    HW115986   6.650   4.380   2.378 -0.0028  0.1081 -0.8302
 5029SOL    HW215987   6.514   4.324   2.448  1.0582 -1.0660  0.3511
 5030SOL     OW15988   1.321   3.213   6.187 -0.1769 -0.1282 -0.3786
 5030SOL    HW115989   1.291   3.120   6.164  0.8332 -0.8125  0.9290
 5030SOL    HW215990   1.245   3.276   6.173 -0.6358 -1.0046 -2.1053
 5031SOL     OW15991   5.533   1.898   0.712 -0.0218 -0.4464  0.2682
 5031SOL    HW115992   5.549   1.918   0.809  1.0185 -2.0189  0.4507
 5031SOL    HW215993   5.510   1.802   0.701  2.2197 -0.8864 -1.2621
 5032SOL     OW15994   2.119   2.139   4.761  0.1329  0.0624  0.1091
 5032SOL    HW115995   2.060   2.220   4.771 -0.1489 -0.0791 -0.3633
 5032SOL    HW215996   2.192   2.143   4.828  0.3610  0.9212 -0.1726
 5033SOL     OW15997   2.817   0.617   6.407  0.0498  0.1561  0.3153
 5033SOL    HW115998   2.828   0.589   6.311 -1.9487 -0.5175  0.2430
 5033SOL    HW215999   2.889   0.682   6.431  0.5656  0.3787 -1.6693
 5034SOL     OW16000   6.325   1.310   3.715  0.1001  0.7216 -0.8167
 5034SOL    HW116001   6.322   1.407   3.740  0.3867  0.2266  1.3049
 5034SOL    HW216002   6.272   1.257   3.780  2.4073 -0.8653 -0.0903
 5035SOL     OW16003   5.185   5.434   4.153  0.3924 -1.0164 -0.3943
 5035SOL    HW116004   5.275   5.458   4.117 -0.5464  1.2752 -1.4003
 5035SOL    HW216005   5.120   5.508   4.133 -1.3755 -1.9069  1.6492
 5036SOL     OW16006   0.161   3.851   0.607 -0.2396  0.2874  0.0490
 5036SOL    HW116007   0.136   3.929   0.663  1.8968  1.7329 -0.8618
 5036SOL    HW216008   0.088   3.783   0.609 -1.1748  1.2552  2.7252
 5037SOL     OW16009   3.873   4.460   0.996  0.3105  0.0627 -0.4450
 5037SOL    HW116010   3.910   4.371   0.972 -0.8091 -0.2085 -1.2512
 5037SOL    HW216011   3.845   4.508   0.913  3.4923  2.3997 -0.3489
 5038SOL     OW16012   3.636   2.569   6.637 -0.4538  0.5791 -0.2794
 5038SOL    HW116013   3.557   2.619   6.673 -1.4398  0.0792 -1.6534
 5038SOL    HW216014   3.645   2.588   6.539 -1.1457 -2.1872 -0.9747
 5039SOL     OW16015   1.974   4.515   5.190 -0.1435 -0.1953  0.1563
 5039SOL    HW116016   1.912   4.448   5.150 -0.7736  0.3299  0.2244
 5039SOL    HW216017   2.069   4.485   5.178 -0.4353 -1.4844  0.9245
 5040SOL     OW16018   0.755   0.434   5.855  0.6176 -0.2164 -0.4851
 5040SOL    HW116019   0.815   0.354   5.854  1.0081  0.0717 -0.3040
 5040SOL    HW216020   0.771   0.487   5.938 -0.8398 -0.8453  0.2477
 5041SOL     OW16021   1.267   1.510   2.569  0.0449 -0.0865 -0.3125
 5041SOL    HW116022   1.335   1.482   2.637  0.4478  0.5654 -0.4400
 5041SOL    HW216023   1.258   1.438   2.499  0.5326 -0.2136 -0.2452
 5042SOL     OW16024   5.091   3.822   6.994  0.2874 -0.2555 -0.4628
 5042SOL    HW116025   5.087   3.784   6.901 -2.0620 -1.0485 -0.0930
 5042SOL    HW216026   5.035   3.904   6.998 -0.3122 -0.6986  0.4496
 5043SOL     OW16027   3.772   5.673   5.553 -0.0337 -0.1227 -0.1205
 5043SOL    HW116028   3.708   5.605   5.517 -0.1223  0.4867 -1.1627
 5043SOL    HW216029   3.814   5.639   5.637 -1.9298 -0.4255  0.7446
 5044SOL     OW16030   2.146   5.169   2.433  0.0035 -0.6167 -0.0049
 5044SOL    HW116031   2.129   5.260   2.471 -1.1434 -0.6658 -0.3631
 5044SOL    HW216032   2.084   5.103   2.475  1.8294 -1.5707  1.3814
 5045SOL     OW16033   3.759   6.308   0.154 -0.2094  0.0236 -0.2740
 5045SOL    HW116034   3.836   6.325   0.093 -0.9567  2.5111 -0.6640
 5045SOL    HW216035   3.792   6.301   0.248  0.4665  2.8276 -0.1921
 5046SOL     OW16036   3.256   2.714   1.700  0.8361  0.4634 -0.3751
 5046SOL    HW116037   3.223   2.621   1.714  0.1399  0.9350  1.3728
 5046SOL    HW216038   3.178   2.775   1.683  0.9311  1.2331  1.6755
 5047SOL     OW16039   1.914   4.165   0.729 -0.7549 -0.3050 -0.0896
 5047SOL    HW116040   1.972   4.202   0.802 -0.7315 -0.4617 -0.0296
 5047SOL    HW216041   1.818   4.166   0.758 -0.6602 -1.1614  0.2764
 5048SOL     OW16042   6.425   2.038   1.380  0.9044 -0.1831 -0.5733
 5048SOL    HW116043   6.401   2.129   1.414  1.3289  0.2487 -1.4024
 5048SOL    HW216044   6.490   1.995   1.442  0.5479 -0.0061 -0.0719
 5049SOL     OW16045   6.668   3.877   1.447  0.4847  0.0981  0.2001
 5049SOL    HW116046   6.580   3.850   1.487  0.8894  1.2064  1.9586
 5049SOL    HW216047   6.659   3.881   1.348 -1.9814  1.7305  0.3796
 5050SOL     OW16048   1.609   0.778   3.278  0.1507 -0.4091 -0.3916
 5050SOL    HW116049   1.608   0.679   3.264 -0.2586 -0.3411 -0.8695
 5050SOL    HW216050   1.542   0.821   3.217  1.6849  0.3480 -1.6276
 5051SOL     OW16051   3.768   2.149   5.968 -0.7223  0.1758 -0.0880
 5051SOL    HW116052   3.677   2.191   5.963 -0.6980  0.0808 -1.8434
 5051SOL    HW216053   3.835   2.218   5.992 -0.9021  0.8323 -1.4201
 5052SOL     OW16054   2.813   2.302   6.800  0.1926 -0.1435  0.6378
 5052SOL    HW116055   2.735   2.253   6.840  0.5310 -2.6533 -1.4859
 5052SOL    HW216056   2.898   2.260   6.831  0.6273  0.9629  0.9752
 5053SOL     OW16057   2.243   4.658   3.476  0.4396 -0.1529 -0.3573
 5053SOL    HW116058   2.325   4.714   3.468 -0.5129  1.5812  1.2143
 5053SOL    HW216059   2.228   4.635   3.573  1.2234 -3.8949 -0.9709
 5054SOL     OW16060   3.163   5.122   3.674 -0.3138  0.6626  0.5538
 5054SOL    HW116061   3.144   5.039   3.727 -0.9683  0.6117  0.2576
 5054SOL    HW216062   3.112   5.118   3.588  0.4624  0.9019  0.0757
 5055SOL     OW16063   1.237   2.269   5.376  0.0792  0.2228  0.7654
 5055SOL    HW116064   1.247   2.180   5.421 -1.1369 -0.6677 -0.6513
 5055SOL    HW216065   1.140   2.291   5.367  0.3686  1.6898  1.0389
 5056SOL     OW16066   4.194   2.102   5.889  1.0630 -0.2404 -0.3782
 5056SOL    HW116067   4.234   2.028   5.942  2.6394  0.2516 -0.8403
 5056SOL    HW216068   4.175   2.180   5.949 -0.5192 -0.9512  0.0917
 5057SOL     OW16069   1.068   6.765   4.195 -0.5917  0.2202 -0.1349
 5057SOL    HW116070   1.140   6.795   4.258  1.2147  2.4980 -3.0249
 5057SOL    HW216071   0.996   6.835   4.191 -2.3430 -1.3562  1.5955
 5058SOL     OW16072   2.745   2.818   5.783  0.5822  0.1333 -0.1073
 5058SOL    HW116073   2.789   2.889   5.729  1.5003 -0.1827  0.2033
 5058SOL    HW216074   2.766   2.832   5.880 -0.7546  0.4918  0.1477
 5059SOL     OW16075   1.213   1.403   5.286 -0.2470  0.3086 -0.5839
 5059SOL    HW116076   1.210   1.477   5.354 -2.4946 -1.6479  1.6890
 5059SOL    HW216077   1.186   1.439   5.197 -2.0267  2.1586  0.5867
 5060SOL     OW16078   5.764   3.199   6.062  0.4000 -0.1863 -0.5962
 5060SOL    HW116079   5.800   3.116   6.104 -0.7135 -0.4923 -0.2041
 5060SOL    HW216080   5.745   3.267   6.133  0.6995  0.1716 -0.8513
 5061SOL     OW16081   4.474   2.075   0.329 -0.0470 -0.3977 -0.0590
 5061SOL    HW116082   4.509   2.151   0.273 -0.4674 -0.3086 -0.2029
 5061SOL    HW216083   4.394   2.036   0.284 -0.8595  0.1720  0.8746
 5062SOL     OW16084   4.167   6.537   4.615 -0.6037 -0.0245 -0.0648
 5062SOL    HW116085   4.195   6.630   4.636  0.0397 -0.3352  0.5053
 5062SOL    HW216086   4.076   6.537   4.574 -0.7187  0.8250  0.1874
 5063SOL     OW16087   1.181   0.663   2.620  0.5733  0.1098  0.1398
 5063SOL    HW116088   1.198   0.570   2.653  2.1993  0.1007 -0.6461
 5063SOL    HW216089   1.183   0.663   2.520 -1.1391  0.7081  0.0757
 5064SOL     OW16090   5.070   2.748   6.588 -0.2363 -0.1092 -0.5270
 5064SOL    HW116091   5.028   2.665   6.623 -0.0641 -0.4143 -1.0287
 5064SOL    HW216092   5.102   2.804   6.664 -0.2122 -0.5753 -0.1911
 5065SOL     OW16093   1.499   0.938   3.456 -0.3239  0.1040  0.8013
 5065SOL    HW116094   1.541   0.871   3.395  1.0476  1.6632 -0.0682
 5065SOL    HW216095   1.402   0.947   3.435 -0.0173  0.0904 -0.7152
 5066SOL     OW16096   5.207   4.630   2.210 -0.5932 -0.2065  0.6104
 5066SOL    HW116097   5.277   4.642   2.139 -1.2152  0.7193  0.1292
 5066SOL    HW216098   5.250   4.639   2.300  0.3115 -1.9711  0.4002
 5067SOL     OW16099   4.594   0.410   2.224 -0.2914 -0.0332 -0.1701
 5067SOL    HW116100   4.633   0.387   2.313 -1.0036  1.7358  0.6504
 5067SOL    HW216101   4.668   0.431   2.160  0.3874 -3.7038 -0.8444
 5068SOL     OW16102   3.581   1.508   0.697  0.2325 -0.1409 -0.2455
 5068SOL    HW116103   3.628   1.596   0.695  0.6950 -0.3634 -3.0002
 5068SOL    HW216104   3.644   1.437   0.729  1.0510 -0.0418 -1.5798
 5069SOL     OW16105   2.090   3.462   4.187  0.0499  0.4614  0.0229
 5069SOL    HW116106   2.122   3.520   4.262 -1.6696  0.1233  1.0633
 5069SOL    HW216107   2.021   3.398   4.221  0.6618 -1.0724 -1.4461
 5070SOL     OW16108   4.698   5.504   3.515  0.3577 -0.4645  0.2077
 5070SOL    HW116109   4.760   5.436   3.476  0.8650 -0.9850  1.8626
 5070SOL    HW216110   4.741   5.594   3.512  0.4848 -0.5328 -0.1762
 5071SOL     OW16111   4.955   1.959   5.277  0.7702  0.0479  0.2916
 5071SOL    HW116112   4.969   1.874   5.226  0.4367 -0.0232  0.3147
 5071SOL    HW216113   4.983   1.946   5.372  0.4695 -0.1197  0.3598
 5072SOL     OW16114   2.092   5.777   1.180  0.2733 -0.0159 -0.4033
 5072SOL    HW116115   2.022   5.788   1.250  0.4329 -2.5100  0.2574
 5072SOL    HW216116   2.114   5.866   1.139 -1.6724  1.1191  0.8879
 5073SOL     OW16117   5.144   4.210   1.749 -0.3118  0.3829 -0.4080
 5073SOL    HW116118   5.082   4.248   1.817 -0.6969 -0.3455 -0.3399
 5073SOL    HW216119   5.128   4.255   1.661 -1.6827 -0.4779 -0.6475
 5074SOL     OW16120   4.511   2.763   0.188 -0.1938  0.4885 -0.3328
 5074SOL    HW116121   4.422   2.721   0.174 -1.0463  2.1340 -0.0641
 5074SOL    HW216122   4.548   2.793   0.099 -0.0918  0.1714 -0.3981
 5075SOL     OW16123   1.308   4.330   0.401  0.5293  0.3991  0.2063
 5075SOL    HW116124   1.329   4.236   0.373  1.7871  0.6442  0.2462
 5075SOL    HW216125   1.230   4.364   0.348 -0.6950 -1.0499  1.0174
 5076SOL     OW16126   2.519   0.637   1.810 -0.5724  0.5921 -0.3860
 5076SOL    HW116127   2.480   0.701   1.744 -0.6726  0.4553 -0.4608
 5076SOL    HW216128   2.617   0.653   1.819 -0.5992  0.7651 -0.3931
 5077SOL     OW16129   0.607   4.861   6.450  0.1293 -0.0827 -0.5833
 5077SOL    HW116130   0.648   4.928   6.512 -1.9332  0.8479 -0.1459
 5077SOL    HW216131   0.580   4.780   6.502  1.6407 -0.8620 -0.9347
 5078SOL     OW16132   1.693   4.197   3.540 -0.2245  0.4194 -0.9646
 5078SOL    HW116133   1.759   4.148   3.483 -0.5207  0.3660 -1.2654
 5078SOL    HW216134   1.740   4.241   3.616 -0.0810 -1.1936 -0.0957
 5079SOL     OW16135   2.875   3.125   6.502  0.4646  0.0246 -0.0142
 5079SOL    HW116136   2.785   3.110   6.543  0.1092 -1.9466 -1.3933
 5079SOL    HW216137   2.931   3.180   6.564 -0.7707 -0.9829  2.1035
 5080SOL     OW16138   6.048   5.046   4.450 -0.4782  0.0911 -0.2366
 5080SOL    HW116139   6.131   4.991   4.450 -0.4633  0.1134 -0.1676
 5080SOL    HW216140   6.042   5.098   4.535 -1.1677 -0.8335  0.3093
 5081SOL     OW16141   3.294   4.061   3.811 -0.0251  0.6362  0.5764
 5081SOL    HW116142   3.295   4.109   3.899  0.0603  0.3243  0.7478
 5081SOL    HW216143   3.369   3.995   3.809 -0.6505 -0.0797  0.6733
 5082SOL     OW16144   6.241   5.978   0.471 -0.1544  0.0519  0.5738
 5082SOL    HW116145   6.219   6.024   0.385  0.5592  1.2537  1.0018
 5082SOL    HW216146   6.182   5.898   0.482  0.0847 -0.4075 -1.2447
 5083SOL     OW16147   3.458   0.070   2.439 -0.7902  0.5853 -0.0342
 5083SOL    HW116148   3.446   0.167   2.415  0.5022  0.9308  0.6186
 5083SOL    HW216149   3.459   0.061   2.539  0.2688  0.0709 -0.0817
 5084SOL     OW16150   0.771   3.570   3.981 -0.7584  0.3748 -0.1989
 5084SOL    HW116151   0.766   3.652   4.037 -0.7432 -0.6488  1.3788
 5084SOL    HW216152   0.859   3.524   3.997 -0.8826 -0.1047 -0.8438
 5085SOL     OW16153   4.236   3.435   5.729 -0.2677 -0.0720 -0.7155
 5085SOL    HW116154   4.280   3.383   5.655  0.1482  0.9899 -1.2525
 5085SOL    HW216155   4.158   3.486   5.692 -0.1661  0.3274 -0.3920
 5086SOL     OW16156   1.018   5.225   3.817 -0.2509  0.2559 -0.2415
 5086SOL    HW116157   1.074   5.181   3.887 -0.0178 -1.5413 -1.4745
 5086SOL    HW216158   1.075   5.279   3.756 -0.4132  1.5557  0.7085
 5087SOL     OW16159   5.214   3.034   2.752 -0.2231  0.0027 -0.0968
 5087SOL    HW116160   5.274   3.101   2.795 -0.1329 -1.3616  2.1308
 5087SOL    HW216161   5.128   3.077   2.726  0.1866  1.1685  0.4113
 5088SOL     OW16162   6.865   1.691   2.680  0.2633 -0.2621  0.4574
 5088SOL    HW116163   6.886   1.606   2.632  1.9768 -0.1715  0.9735
 5088SOL    HW216164   6.898   1.685   2.775  1.8002  1.4935  0.0864
 5089SOL     OW16165   4.382   2.406   4.464  0.4967 -0.6116  0.4591
 5089SOL    HW116166   4.402   2.351   4.545  0.1439 -0.7148  0.4786
 5089SOL    HW216167   4.375   2.502   4.491  1.7053 -0.4688  0.3270
 5090SOL     OW16168   2.509   4.634   4.158  0.0678 -0.0804  0.6406
 5090SOL    HW116169   2.489   4.547   4.205 -0.2260  0.4476  1.5095
 5090SOL    HW216170   2.608   4.651   4.162  0.1409 -0.4254  0.3738
 5091SOL     OW16171   2.091   5.873   2.335  0.4573 -0.3847  0.3137
 5091SOL    HW116172   2.170   5.885   2.395  0.3241 -1.2629  0.6765
 5091SOL    HW216173   2.120   5.828   2.250  0.5078  0.1317  0.0580
 5092SOL     OW16174   4.147   3.527   1.943 -0.7519 -0.3959 -0.8447
 5092SOL    HW116175   4.155   3.613   1.992 -0.1558 -0.4345 -0.8648
 5092SOL    HW216176   4.085   3.538   1.865 -1.6608 -0.3244 -0.1214
 5093SOL     OW16177   3.060   0.711   5.934  0.0742 -0.0411 -0.3529
 5093SOL    HW116178   2.989   0.693   5.866 -0.4976  0.7504  0.0164
 5093SOL    HW216179   3.030   0.785   5.995  0.7077 -0.5235  0.5621
 5094SOL     OW16180   1.609   5.291   4.010  0.1495  0.0024 -0.3732
 5094SOL    HW116181   1.627   5.379   4.053  0.6136 -0.0543 -0.4518
 5094SOL    HW216182   1.675   5.275   3.936  1.2607 -1.2266  0.8285
 5095SOL     OW16183   6.196   2.631   4.757  0.3038  0.0553 -0.1316
 5095SOL    HW116184   6.191   2.644   4.658  0.2379 -0.0150 -0.1384
 5095SOL    HW216185   6.254   2.552   4.777  0.8541  0.4709 -0.0839
 5096SOL     OW16186   4.105   2.706   6.225  0.3862 -0.1976  0.4819
 5096SOL    HW116187   4.006   2.713   6.233  0.6023  1.8665  2.7824
 5096SOL    HW216188   4.138   2.634   6.286  0.2773 -1.6610 -1.1238
 5097SOL     OW16189   2.649   3.074   6.657  0.0845 -0.0273  0.3725
 5097SOL    HW116190   2.556   3.100   6.685  0.1624  0.3084  0.3118
 5097SOL    HW216191   2.688   3.014   6.727  0.8422  2.0057  1.7747
 5098SOL     OW16192   1.530   0.454   2.451 -0.6572 -0.1199  0.5932
 5098SOL    HW116193   1.486   0.505   2.377 -3.3741 -0.8409  1.5937
 5098SOL    HW216194   1.630   0.456   2.438 -0.9640  0.5262 -2.5456
 5099SOL     OW16195   0.402   0.897   6.181  0.4519  0.5475 -0.1350
 5099SOL    HW116196   0.387   0.995   6.167  2.3149  1.3543  2.5654
 5099SOL    HW216197   0.331   0.861   6.241  0.3438  0.4836 -0.3007
 5100SOL     OW16198   4.066   6.029   4.405  0.3775 -0.6166 -0.3159
 5100SOL    HW116199   4.137   6.007   4.472 -0.3682  0.2540  0.7951
 5100SOL    HW216200   3.992   5.963   4.412 -0.0032 -0.1414  0.1887
 5101SOL     OW16201   2.729   5.066   1.591  0.4693  0.5427 -0.3017
 5101SOL    HW116202   2.769   5.145   1.638 -3.3675  1.2646  2.1796
 5101SOL    HW216203   2.735   5.080   1.492  1.0653  3.3046  0.0369
 5102SOL     OW16204   6.387   6.197   2.912  0.1121 -0.4251 -0.1816
 5102SOL    HW116205   6.442   6.280   2.902 -0.9615  0.1514 -1.5032
 5102SOL    HW216206   6.303   6.219   2.962 -0.5571 -0.5095 -1.2394
 5103SOL     OW16207   6.053   0.491   5.192 -0.8466 -0.3598 -0.0230
 5103SOL    HW116208   6.087   0.559   5.128  1.3234 -1.4253 -0.0894
 5103SOL    HW216209   6.076   0.518   5.286 -0.5676 -0.6696  0.0005
 5104SOL     OW16210   1.631   0.260   1.301  0.1580 -0.0487 -0.2913
 5104SOL    HW116211   1.715   0.215   1.273  0.4904  0.6983 -0.5292
 5104SOL    HW216212   1.575   0.197   1.355  1.4308 -0.1624  0.9456
 5105SOL     OW16213   3.114   2.801   6.891  0.4709 -0.2375  0.0921
 5105SOL    HW116214   3.068   2.722   6.850 -3.5093  0.6175  2.4501
 5105SOL    HW216215   3.114   2.877   6.826 -0.2801 -0.6662 -0.4173
 5106SOL     OW16216   4.527   2.020   3.834 -0.2777 -0.6509  0.0893
 5106SOL    HW116217   4.433   1.989   3.819 -1.1719  2.4119 -1.4639
 5106SOL    HW216218   4.533   2.069   3.921  0.6172 -3.1114  1.4995
 5107SOL     OW16219   5.681   1.117   0.196  0.1054  0.0567  0.0784
 5107SOL    HW116220   5.645   1.026   0.176 -0.2239 -0.2554  1.8782
 5107SOL    HW216221   5.774   1.110   0.230 -0.1749  0.2982  0.9329
 5108SOL     OW16222   3.037   3.955   4.477  0.0371  0.6337  0.4193
 5108SOL    HW116223   3.006   3.966   4.571  0.5788  2.5738  0.4098
 5108SOL    HW216224   2.957   3.950   4.416 -0.3191  1.3993  0.8056
 5109SOL     OW16225   0.198   1.085   1.294  0.4333  0.2068 -0.0227
 5109SOL    HW116226   0.209   1.149   1.370 -1.5179  1.7188 -0.9369
 5109SOL    HW216227   0.288   1.066   1.253  1.0951  2.1752  0.4177
 5110SOL     OW16228   0.190   1.106   2.473 -0.1433  0.2961  0.0338
 5110SOL    HW116229   0.133   1.068   2.400  0.4476  2.9275 -1.9548
 5110SOL    HW216230   0.135   1.117   2.556 -1.8586  0.4549 -1.0736
 5111SOL     OW16231   3.400   0.730   5.649 -0.9199  0.3182 -0.3936
 5111SOL    HW116232   3.368   0.695   5.737 -0.4420 -0.9854 -0.7191
 5111SOL    HW216233   3.326   0.725   5.582 -0.7559 -0.4214 -0.5268
 5112SOL     OW16234   2.425   2.064   1.992 -0.2781  0.1104 -0.2691
 5112SOL    HW116235   2.435   1.984   1.933  2.6290 -0.4845  0.8258
 5112SOL    HW216236   2.503   2.126   1.978 -0.4099  0.7961  1.6566
 5113SOL     OW16237   3.459   6.817   1.503  0.1288  0.4638 -0.4050
 5113SOL    HW116238   3.555   6.809   1.528  0.3851 -0.2928 -1.5342
 5113SOL    HW216239   3.408   6.736   1.534  0.5917 -0.8315 -2.7567
 5114SOL     OW16240   2.568   1.946   0.723 -0.2632  0.0904  0.1606
 5114SOL    HW116241   2.633   1.936   0.799 -1.0928 -2.0815  0.6456
 5114SOL    HW216242   2.519   1.861   0.710  0.0279  0.3104 -3.0395
 5115SOL     OW16243   2.361   6.600   5.067 -0.5274 -1.0011 -0.6356
 5115SOL    HW116244   2.394   6.635   5.154  1.7879 -1.0120 -1.4414
 5115SOL    HW216245   2.331   6.505   5.077 -2.2167 -0.4088  0.5134
 5116SOL     OW16246   6.146   6.334   5.527 -0.5954 -0.5317  0.2351
 5116SOL    HW116247   6.179   6.405   5.465  0.7690 -1.3235 -0.0083
 5116SOL    HW216248   6.047   6.342   5.539 -0.3409  2.1272  1.1662
 5117SOL     OW16249   1.145   4.491   5.075 -0.2276 -0.2404  0.3725
 5117SOL    HW116250   1.215   4.478   5.005  0.6118 -0.3558  1.2096
 5117SOL    HW216251   1.085   4.566   5.049 -0.6211 -1.0045 -0.9982
 5118SOL     OW16252   3.031   1.608   6.985  0.2200  0.9598  0.0982
 5118SOL    HW116253   3.016   1.540   6.914  2.5229  0.0611  0.4054
 5118SOL    HW216254   3.049   1.697   6.942  2.7070  0.2032 -0.5595
 5119SOL     OW16255   6.597   1.876   1.505  0.7396  0.4646 -0.3312
 5119SOL    HW116256   6.675   1.871   1.568  0.7973 -0.4979 -0.4580
 5119SOL    HW216257   6.596   1.794   1.447  1.1188  1.6683 -2.1155
 5120SOL     OW16258   5.178   1.740   4.930 -0.0441  0.3731 -0.1446
 5120SOL    HW116259   5.252   1.757   4.864  3.2663 -0.5875  2.9807
 5120SOL    HW216260   5.108   1.683   4.888  1.0718  1.0748 -3.2304
 5121SOL     OW16261   1.573   2.908   0.491 -0.3727 -0.0907 -0.6189
 5121SOL    HW116262   1.540   2.838   0.428  1.4281 -0.7666 -0.8648
 5121SOL    HW216263   1.574   2.996   0.444  0.6912 -0.5407 -1.4763
 5122SOL     OW16264   1.574   6.624   2.760 -0.5030 -0.1442 -0.2581
 5122SOL    HW116265   1.625   6.709   2.776  0.8919 -1.2889  1.7641
 5122SOL    HW216266   1.477   6.646   2.750 -0.3229  1.6084  1.2318
 5123SOL     OW16267   5.439   0.801   4.691 -0.0491  0.4500  0.7672
 5123SOL    HW116268   5.475   0.862   4.761  1.9165 -1.2047  1.2898
 5123SOL    HW216269   5.514   0.770   4.632 -1.4973  1.0292 -1.4842
 5124SOL     OW16270   2.832   0.027   4.728 -0.8992  0.4045  0.3470
 5124SOL    HW116271   2.734   0.030   4.745 -0.8304 -0.5024  0.9834
 5124SOL    HW216272   2.882   0.042   4.813 -0.5280 -1.4751  0.5160
 5125SOL     OW16273   0.972   2.530   5.339 -0.2346 -0.0484  0.2465
 5125SOL    HW116274   1.034   2.534   5.418 -0.0642 -0.0083  0.1106
 5125SOL    HW216275   0.980   2.614   5.286 -0.0419 -0.2512 -0.0451
 5126SOL     OW16276   5.349   6.256   6.241 -0.3550 -0.2008 -0.5577
 5126SOL    HW116277   5.276   6.237   6.176 -0.8623 -2.3305  0.5325
 5126SOL    HW216278   5.433   6.209   6.211  0.1954  1.0969 -1.0910
 5127SOL     OW16279   7.002   5.649   6.763  0.2227 -0.0959 -0.5283
 5127SOL    HW116280   7.066   5.684   6.695 -0.4885  0.2171 -1.0461
 5127SOL    HW216281   7.011   5.550   6.770  0.3016 -0.1280 -1.0819
 5128SOL     OW16282   0.947   6.897   0.070 -0.3862 -1.0336  0.4677
 5128SOL    HW116283   1.043   6.887   0.043  0.1967 -0.1245  2.0533
 5128SOL    HW216284   0.893   6.825   0.028  0.9671 -1.5001 -0.5494
 5129SOL     OW16285   3.405   0.196   2.959  0.2196 -0.2680 -0.0943
 5129SOL    HW116286   3.336   0.266   2.980 -0.6369 -1.3032  0.6117
 5129SOL    HW216287   3.375   0.143   2.880  1.9096  1.5186 -2.0576
 5130SOL     OW16288   2.072   4.906   6.068 -0.5607  0.3948  0.0755
 5130SOL    HW116289   2.165   4.883   6.094 -1.0762  0.4402  2.1454
 5130SOL    HW216290   2.008   4.856   6.126 -1.8022  1.5090 -0.2789
 5131SOL     OW16291   2.814   5.071   3.165 -0.4608  0.1425  0.4579
 5131SOL    HW116292   2.858   5.153   3.201  0.2522  0.8713 -1.9137
 5131SOL    HW216293   2.856   5.046   3.078 -2.2026 -1.4082  0.0028
 5132SOL     OW16294   3.951   1.166   0.913 -0.2228 -0.5473  0.2634
 5132SOL    HW116295   4.017   1.212   0.973 -0.4322  1.9194 -1.2833
 5132SOL    HW216296   3.861   1.206   0.926 -0.8281 -1.8103  0.1417
 5133SOL     OW16297   1.837   5.573   2.023 -0.8397 -0.4275  0.6194
 5133SOL    HW116298   1.792   5.582   2.112 -0.3421 -0.8652  0.9245
 5133SOL    HW216299   1.936   5.586   2.035 -0.9755  1.7008 -0.2173
 5134SOL     OW16300   0.352   0.205   4.356  0.6856  0.2239  0.0128
 5134SOL    HW116301   0.339   0.137   4.284  2.7543 -0.7271  0.4786
 5134SOL    HW216302   0.324   0.295   4.322 -1.0324 -0.6164 -0.9943
 5135SOL     OW16303   5.479   2.755   3.977 -0.7021  0.2560 -0.4090
 5135SOL    HW116304   5.403   2.774   4.039 -0.5769 -0.2989 -0.0779
 5135SOL    HW216305   5.559   2.727   4.030 -0.8164 -0.9549 -0.8469
 5136SOL     OW16306   4.980   6.976   6.407 -0.4427  0.3945  0.3688
 5136SOL    HW116307   5.013   6.945   6.318 -1.3607  0.8835 -0.1559
 5136SOL    HW216308   5.011   6.913   6.478  3.3463  1.8685  0.2383
 5137SOL     OW16309   5.477   3.927   4.679 -0.3633  0.3410  0.6757
 5137SOL    HW116310   5.393   3.875   4.668 -0.1183  0.0553  0.0773
 5137SOL    HW216311   5.554   3.864   4.689 -0.0661  0.5777 -0.0343
 5138SOL     OW16312   5.204   4.203   5.570  0.2697 -0.2544 -0.1693
 5138SOL    HW116313   5.222   4.138   5.644  0.9116  1.4466  1.2215
 5138SOL    HW216314   5.229   4.161   5.482  1.6534 -1.4884  0.7716
 5139SOL     OW16315   1.716   0.052   3.379  0.1547 -0.6461  0.4866
 5139SOL    HW116316   1.807   0.079   3.411  0.6552  0.6020 -1.7061
 5139SOL    HW216317   1.722   0.024   3.283 -1.8459  0.0757  0.0957
 5140SOL     OW16318   3.737   1.594   3.975  0.2380 -0.5848 -0.0834
 5140SOL    HW116319   3.705   1.511   4.021 -0.4791 -0.2815 -0.0361
 5140SOL    HW216320   3.692   1.603   3.887  0.0581 -0.0600  0.0609
 5141SOL     OW16321   3.542   4.537   0.078 -0.2089 -0.6267 -0.0499
 5141SOL    HW116322   3.478   4.480   0.028  0.2764 -0.6891 -0.6145
 5141SOL    HW216323   3.632   4.493   0.081 -0.7395 -1.7466  2.8834
 5142SOL     OW16324   4.100   6.145   4.766  0.2972 -0.0141  0.2679
 5142SOL    HW116325   4.036   6.118   4.838  1.2448 -0.8804  0.8261
 5142SOL    HW216326   4.124   6.065   4.711  0.7547  0.3346 -0.0467
 5143SOL     OW16327   0.312   5.042   4.418 -0.6250  0.0109  0.4367
 5143SOL    HW116328   0.316   5.028   4.319 -2.0238 -1.0685  0.5077
 5143SOL    HW216329   0.381   4.986   4.463  2.5615  3.1304 -0.0570
 5144SOL     OW16330   2.188   4.719   5.469  0.4253  0.5011  0.0392
 5144SOL    HW116331   2.166   4.647   5.536  0.2241  0.2342 -0.3101
 5144SOL    HW216332   2.119   4.718   5.397  0.1223  1.3943  0.3072
 5145SOL     OW16333   4.121   5.108   0.335  0.1147  0.6065 -0.0019
 5145SOL    HW116334   4.064   5.035   0.298 -0.0077  0.5488  0.2987
 5145SOL    HW216335   4.103   5.193   0.285  1.5862  0.0341 -1.5856
 5146SOL     OW16336   4.209   4.215   5.622 -0.1361 -0.2845 -0.5614
 5146SOL    HW116337   4.302   4.193   5.653  0.3844  0.0412 -1.8188
 5146SOL    HW216338   4.144   4.197   5.695  0.9733 -0.0668  0.5050
 5147SOL     OW16339   5.533   2.429   2.920  0.2004 -0.1855 -0.2682
 5147SOL    HW116340   5.521   2.330   2.910 -1.3971  0.1416 -2.0194
 5147SOL    HW216341   5.504   2.475   2.837  1.6796  1.7486  0.2074
 5148SOL     OW16342   1.807   0.544   3.915 -0.1802 -0.0115  0.3910
 5148SOL    HW116343   1.715   0.511   3.896  0.2485 -1.3573  0.5989
 5148SOL    HW216344   1.809   0.589   4.004 -0.7355  0.5067  0.1544
 5149SOL     OW16345   4.596   6.122   5.637  0.5754 -0.0452 -0.1658
 5149SOL    HW116346   4.635   6.208   5.668 -1.6548  0.0888  2.6910
 5149SOL    HW216347   4.497   6.123   5.650  0.5641 -3.3995  1.1274
 5150SOL     OW16348   6.746   3.348   4.739 -0.2927  0.3878  0.0999
 5150SOL    HW116349   6.842   3.323   4.753 -0.0852  1.4091  0.6466
 5150SOL    HW216350   6.717   3.320   4.648  1.2062  2.0483 -0.9387
 5151SOL     OW16351   0.514   4.830   2.263 -0.1506 -0.0731 -0.0996
 5151SOL    HW116352   0.563   4.894   2.204  1.2378  0.1475  1.2438
 5151SOL    HW216353   0.422   4.865   2.281 -0.6146 -0.1477 -2.0759
 5152SOL     OW16354   2.265   5.284   6.903  0.1373 -0.1276 -0.3964
 5152SOL    HW116355   2.327   5.312   6.830 -0.4830  2.3354 -0.0926
 5152SOL    HW216356   2.294   5.196   6.941  0.3275 -1.6084 -3.7051
 5153SOL     OW16357   0.208   0.585   1.406  0.2850  0.1843 -0.2076
 5153SOL    HW116358   0.116   0.624   1.397  0.5947  0.7819 -0.8759
 5153SOL    HW216359   0.247   0.614   1.493  0.0212  0.3252 -0.1324
 5154SOL     OW16360   0.967   2.623   0.093  0.4221  0.1081 -0.9146
 5154SOL    HW116361   0.878   2.644   0.134  0.2042  1.5869 -2.0555
 5154SOL    HW216362   0.986   2.525   0.103 -1.4152 -0.2744 -0.8051
 5155SOL     OW16363   1.862   0.697   1.971 -0.6605  0.0286 -0.5046
 5155SOL    HW116364   1.854   0.659   1.879 -2.0617  1.5348 -1.0547
 5155SOL    HW216365   1.817   0.787   1.974 -2.1675 -0.7081  2.0575
 5156SOL     OW16366   0.274   5.202   4.652  0.1225  0.2012 -0.4998
 5156SOL    HW116367   0.287   5.154   4.566  1.6879 -1.1765  0.4526
 5156SOL    HW216368   0.177   5.228   4.661  0.1359  1.6194 -3.2339
 5157SOL     OW16369   4.455   0.256   1.986 -0.1639  0.1121 -0.1188
 5157SOL    HW116370   4.427   0.181   2.046 -2.0309  1.4080  0.7602
 5157SOL    HW216371   4.488   0.332   2.042  0.4424  0.4343 -0.9040
 5158SOL     OW16372   4.309   2.515   1.526 -0.0483 -0.2746  0.9357
 5158SOL    HW116373   4.325   2.426   1.568  2.2891 -0.3243  0.0746
 5158SOL    HW216374   4.324   2.509   1.428  0.4008  1.1056  0.8920
 5159SOL     OW16375   6.043   4.267   5.843 -0.3617 -0.1030  0.0297
 5159SOL    HW116376   5.965   4.205   5.857 -0.9294  0.3731 -0.8913
 5159SOL    HW216377   6.125   4.228   5.885 -1.2284 -0.2838  1.6584
 5160SOL     OW16378   0.084   5.650   3.493 -0.3058 -0.0625 -0.3069
 5160SOL    HW116379   0.018   5.577   3.479 -1.8914  1.1070  0.7247
 5160SOL    HW216380   0.084   5.712   3.415 -0.5923  0.0583 -0.2104
 5161SOL     OW16381   1.421   5.783   6.269  0.6119  0.0238  0.3283
 5161SOL    HW116382   1.444   5.778   6.366  0.7548 -1.7812  0.2405
 5161SOL    HW216383   1.475   5.856   6.226  0.8749  0.5543  1.5039
 5162SOL     OW16384   0.964   4.356   3.017  0.2674  0.1698 -0.0860
 5162SOL    HW116385   0.948   4.451   3.042 -0.1346  0.4650 -1.3759
 5162SOL    HW216386   1.050   4.349   2.965  0.7637 -0.3219  0.7745
 5163SOL     OW16387   4.169   6.785   1.836  0.3235 -0.1474  0.2248
 5163SOL    HW116388   4.085   6.733   1.818 -0.1165  0.4965  0.3752
 5163SOL    HW216389   4.155   6.845   1.914  0.8018  0.2417  0.0197
 5164SOL     OW16390   4.569   3.003   6.281 -0.4619 -0.2655 -0.0958
 5164SOL    HW116391   4.567   2.935   6.208  0.1642 -1.8703  1.3323
 5164SOL    HW216392   4.662   3.012   6.316 -1.1149 -1.2811  2.0655
 5165SOL     OW16393   6.460   3.805   0.126  0.6068  0.3010 -0.3258
 5165SOL    HW116394   6.515   3.832   0.047  1.2116  1.0224  0.3377
 5165SOL    HW216395   6.498   3.721   0.166  1.7045  1.2096  0.5864
 5166SOL     OW16396   0.868   6.835   2.391 -0.4691  0.1460  0.0945
 5166SOL    HW116397   0.902   6.745   2.364 -2.4556 -1.4027  2.4302
 5166SOL    HW216398   0.812   6.873   2.317  0.4266 -0.4409 -0.9313
 5167SOL     OW16399   6.894   4.173   4.675 -0.0969 -0.5259  0.1922
 5167SOL    HW116400   6.991   4.187   4.658 -0.1713 -0.3576 -0.0956
 5167SOL    HW216401   6.850   4.139   4.592 -0.0633 -1.7679  0.6672
 5168SOL     OW16402   5.388   3.485   3.492  0.1859 -0.0180  0.0081
 5168SOL    HW116403   5.488   3.474   3.488  0.1933 -1.8141  2.6203
 5168SOL    HW216404   5.362   3.519   3.582 -1.5389  1.4942 -1.0163
 5169SOL     OW16405   4.296   1.911   4.213  0.2355  0.0800  0.0014
 5169SOL    HW116406   4.354   1.951   4.141 -0.4339  0.2165 -0.4739
 5169SOL    HW216407   4.256   1.825   4.180 -1.4632  1.0066 -0.4721
 5170SOL     OW16408   1.072   3.379   6.255  0.2628  0.0801  0.3175
 5170SOL    HW116409   1.105   3.381   6.350  0.0538 -0.7065  0.4157
 5170SOL    HW216410   1.012   3.300   6.243  2.3020 -1.3406 -1.1334
 5171SOL     OW16411   6.380   5.835   5.482 -0.1816  0.2449  0.4564
 5171SOL    HW116412   6.397   5.837   5.384 -0.3735  1.3980  0.4333
 5171SOL    HW216413   6.362   5.928   5.515  0.1078 -0.0914  1.6215
 5172SOL     OW16414   1.245   5.514   2.154  0.0067  0.4766  0.0416
 5172SOL    HW116415   1.233   5.540   2.249  2.2731 -1.1391  0.8724
 5172SOL    HW216416   1.343   5.509   2.133 -0.2297 -3.7755 -0.9399
 5173SOL     OW16417   5.272   5.770   5.910 -0.1549  0.0380 -0.0913
 5173SOL    HW116418   5.185   5.814   5.890  0.9399  2.0207 -0.7712
 5173SOL    HW216419   5.310   5.807   5.995  0.7602  0.4037 -0.6436
 5174SOL     OW16420   1.306   3.631   3.884  0.3858 -0.0106  0.8136
 5174SOL    HW116421   1.343   3.570   3.955  1.5713  0.6446  0.7874
 5174SOL    HW216422   1.338   3.724   3.901 -0.5626  0.4234  0.2625
 5175SOL     OW16423   3.298   1.557   0.090  0.2657 -0.3610  0.5576
 5175SOL    HW116424   3.336   1.606   0.168  0.4940 -0.1570  0.3230
 5175SOL    HW216425   3.198   1.565   0.090  0.0876 -1.9546  1.8881
 5176SOL     OW16426   2.454   5.137   6.130  0.3018  0.6952 -0.2015
 5176SOL    HW116427   2.410   5.213   6.179 -0.6540  0.2959 -0.4126
 5176SOL    HW216428   2.507   5.172   6.053 -2.1091  1.0545 -1.8226
 5177SOL     OW16429   3.848   6.985   0.545  0.0488  0.0953 -0.3428
 5177SOL    HW116430   3.910   7.034   0.606  0.7943 -0.3917 -0.6968
 5177SOL    HW216431   3.798   6.915   0.597  0.3539 -0.0203 -0.2027
 5178SOL     OW16432   0.854   3.946   2.601 -0.0058  0.1761 -0.1209
 5178SOL    HW116433   0.878   4.026   2.656  0.2823  0.5582 -0.7918
 5178SOL    HW216434   0.859   3.864   2.658  0.9956  0.4748  0.2431
 5179SOL     OW16435   4.117   4.740   2.675  0.5639 -0.1877  0.0122
 5179SOL    HW116436   4.142   4.703   2.586 -0.1092 -1.8726  0.4961
 5179SOL    HW216437   4.077   4.668   2.732 -1.6048  1.4325  0.7035
 5180SOL     OW16438   4.442   1.009   1.828  0.7844 -0.1062 -0.6727
 5180SOL    HW116439   4.540   1.006   1.845  0.4775 -3.2054  1.3780
 5180SOL    HW216440   4.393   1.028   1.914 -0.4832  1.0292 -1.5862
 5181SOL     OW16441   0.715   0.918   1.310  0.6119  0.4373 -0.0593
 5181SOL    HW116442   0.757   0.866   1.236  1.2224  1.6697 -0.6002
 5181SOL    HW216443   0.683   1.006   1.275 -0.2437  0.5244  0.8795
 5182SOL     OW16444   3.102   5.143   1.494 -0.2653 -0.0042  0.2551
 5182SOL    HW116445   3.053   5.057   1.507  0.2173 -0.1370  1.3670
 5182SOL    HW216446   3.042   5.209   1.450 -1.3141 -0.2893  1.2047
 5183SOL     OW16447   5.119   2.886   4.421  0.0209 -0.0904  0.2848
 5183SOL    HW116448   5.149   2.861   4.329 -2.3418 -0.0945 -0.5548
 5183SOL    HW216449   5.051   2.820   4.453  1.4112 -0.5617  2.4211
 5184SOL     OW16450   2.305   2.852   2.821  0.1415  0.2608  0.5179
 5184SOL    HW116451   2.345   2.923   2.879 -1.0484  0.6928  0.8253
 5184SOL    HW216452   2.277   2.892   2.734  1.9235 -0.3830 -0.4232
 5185SOL     OW16453   6.061   6.582   1.232 -0.2533  0.3207 -0.1549
 5185SOL    HW116454   6.139   6.640   1.210  0.1509 -0.7218 -1.5933
 5185SOL    HW216455   5.983   6.606   1.175 -0.6222  0.5679  0.4426
 5186SOL     OW16456   4.988   3.253   6.055 -0.1836 -0.6873  0.1275
 5186SOL    HW116457   5.035   3.246   5.967  2.8621 -0.4336  1.5859
 5186SOL    HW216458   4.938   3.340   6.059 -1.2813 -1.1751 -1.6688
 5187SOL     OW16459   2.116   6.900   6.315  0.5140 -0.3535 -0.3321
 5187SOL    HW116460   2.148   6.852   6.234 -0.9043 -0.8145 -0.6471
 5187SOL    HW216461   2.018   6.915   6.308  0.7394  1.6662  0.2582
 5188SOL     OW16462   5.673   5.740   0.662  0.4409  0.0731 -0.3333
 5188SOL    HW116463   5.663   5.791   0.576  0.7357 -0.3404 -0.6158
 5188SOL    HW216464   5.721   5.654   0.645  0.1361 -0.2054  0.1770
 5189SOL     OW16465   4.911   5.178   5.987 -0.1799  0.1700 -0.6320
 5189SOL    HW116466   4.952   5.091   6.016  0.1232  0.2910 -0.6919
 5189SOL    HW216467   4.932   5.194   5.890 -0.6517  0.0747 -0.7537
 5190SOL     OW16468   6.337   4.164   4.117  0.6446  0.7448  0.3362
 5190SOL    HW116469   6.263   4.222   4.150  0.0932  0.4039 -0.2845
 5190SOL    HW216470   6.360   4.095   4.186 -2.6176 -2.0030 -1.0759
 5191SOL     OW16471   5.152   0.040   1.734 -0.4562 -0.8185 -0.3114
 5191SOL    HW116472   5.068   0.088   1.759 -1.0429 -2.2721  0.6641
 5191SOL    HW216473   5.129  -0.051   1.700  0.7349 -1.2978  0.1201
 5192SOL     OW16474   1.354   5.298   0.697 -0.0050  0.4774 -0.6632
 5192SOL    HW116475   1.271   5.243   0.684 -0.3695  0.6170  0.8664
 5192SOL    HW216476   1.350   5.377   0.636 -0.3276 -0.2293 -1.5945
 5193SOL     OW16477   4.420   4.672   6.334 -0.1449  0.5324  0.2062
 5193SOL    HW116478   4.415   4.660   6.235 -1.2935 -0.2909  0.3464
 5193SOL    HW216479   4.450   4.765   6.355  2.3250  0.0940 -0.9089
 5194SOL     OW16480   3.299   2.486   5.901 -0.8311  0.0921 -0.2368
 5194SOL    HW116481   3.241   2.404   5.909 -0.0299 -0.5220 -0.5676
 5194SOL    HW216482   3.246   2.560   5.860 -1.0019 -0.8844 -1.8642
 5195SOL     OW16483   0.979   5.756   5.438  0.4124  0.5238  0.0730
 5195SOL    HW116484   1.021   5.794   5.521  0.1709  2.3714 -0.5936
 5195SOL    HW216485   0.890   5.798   5.423  0.4550  0.2384 -1.1212
 5196SOL     OW16486   5.413   1.027   2.114 -0.1182 -0.2174  0.4171
 5196SOL    HW116487   5.495   1.084   2.102 -0.4952  0.2314 -0.1087
 5196SOL    HW216488   5.332   1.082   2.093 -0.5087 -0.8728  0.1879
 5197SOL     OW16489   3.683   2.932   0.236  0.1219  0.5045  0.5892
 5197SOL    HW116490   3.739   2.881   0.301  0.7824  0.5297  0.0594
 5197SOL    HW216491   3.686   2.887   0.147  1.2553  1.7937 -0.0650
 5198SOL     OW16492   5.451   5.723   3.636  0.0615  0.0550  0.0959
 5198SOL    HW116493   5.384   5.663   3.591 -0.5686  0.2860  0.7153
 5198SOL    HW216494   5.503   5.670   3.703  1.2472 -0.3756 -1.1124
 5199SOL     OW16495   0.756   6.709   1.528 -0.2087 -0.5305 -0.8030
 5199SOL    HW116496   0.835   6.698   1.589 -1.2602 -0.2101  0.6483
 5199SOL    HW216497   0.789   6.737   1.437  1.2288  3.7724  0.7586
 5200SOL     OW16498   1.310   5.049   5.072  1.6919  0.2718  0.2397
 5200SOL    HW116499   1.392   5.017   5.118  2.3381  0.0160 -1.0595
 5200SOL    HW216500   1.300   5.002   4.984 -1.0691 -1.3900  1.3185
 5201SOL     OW16501   2.331   0.419   2.994  0.0114  1.0229  0.0252
 5201SOL    HW116502   2.384   0.370   3.063  0.6922  0.7397 -0.6806
 5201SOL    HW216503   2.379   0.504   2.971 -1.2343  2.1328  1.3529
 5202SOL     OW16504   5.104   2.907   0.959  0.1691 -0.2248  0.1287
 5202SOL    HW116505   5.128   2.998   0.927  0.7120 -0.8890 -1.4401
 5202SOL    HW216506   5.007   2.890   0.943 -0.7105  1.1494  3.2323
 5203SOL     OW16507   4.529   0.538   6.421  0.1777 -1.0969  0.3058
 5203SOL    HW116508   4.473   0.604   6.372  0.3463 -0.7820  0.5382
 5203SOL    HW216509   4.616   0.580   6.447  0.3544 -1.4591  0.3072
 5204SOL     OW16510   3.393   4.474   0.662 -0.0888 -0.0420 -0.2941
 5204SOL    HW116511   3.428   4.484   0.755  0.1293  0.3753 -0.4198
 5204SOL    HW216512   3.467   4.488   0.596 -0.1575 -0.7217 -0.5252
 5205SOL     OW16513   1.624   6.035   1.783 -0.6884 -0.0721 -0.3227
 5205SOL    HW116514   1.601   6.128   1.810 -2.3838 -0.5040 -0.1932
 5205SOL    HW216515   1.719   6.016   1.808 -0.7805  1.1012  1.0729
 5206SOL     OW16516   4.396   5.191   4.338  0.4623  0.0688 -0.4353
 5206SOL    HW116517   4.305   5.199   4.296  1.3000 -0.8180 -2.4996
 5206SOL    HW216518   4.388   5.137   4.422 -1.1402  1.3435  0.3171
 5207SOL     OW16519   1.741   6.847   2.511  0.1616 -0.4562  0.4510
 5207SOL    HW116520   1.753   6.804   2.600  2.5728 -2.1671 -0.5688
 5207SOL    HW216521   1.646   6.839   2.482 -0.9457  1.1506  3.2685
 5208SOL     OW16522   3.089   2.045   6.426  0.2132 -0.1136 -0.0877
 5208SOL    HW116523   3.066   2.125   6.482  0.6193  0.8266 -1.2213
 5208SOL    HW216524   3.179   2.058   6.385  1.6730 -2.5183  2.0808
 5209SOL     OW16525   5.318   6.554   2.460  0.4707  0.4191 -0.2108
 5209SOL    HW116526   5.346   6.637   2.509  1.2779 -0.2308  0.4742
 5209SOL    HW216527   5.309   6.574   2.363  1.5681  1.1088 -0.1942
 5210SOL     OW16528   6.252   1.529   4.615  0.3351  0.4445 -0.1752
 5210SOL    HW116529   6.254   1.629   4.611  0.2131  0.5237  1.1470
 5210SOL    HW216530   6.265   1.500   4.710 -0.0262 -0.7833 -0.4903
 5211SOL     OW16531   3.145   3.489   3.657  0.1121  0.2996  0.5099
 5211SOL    HW116532   3.123   3.572   3.707 -1.6852  0.5358 -0.5591
 5211SOL    HW216533   3.178   3.419   3.720 -1.3812  0.8116  1.9398
 5212SOL     OW16534   6.628   1.564   0.712 -0.5618 -0.4980  0.8646
 5212SOL    HW116535   6.712   1.550   0.661 -0.0733 -2.3176  2.0625
 5212SOL    HW216536   6.586   1.651   0.686 -0.4388 -1.3786 -2.7007
 5213SOL     OW16537   4.389   3.519   6.445  0.3926  0.0127  0.0340
 5213SOL    HW116538   4.298   3.551   6.419  0.7738  0.1055 -1.2680
 5213SOL    HW216539   4.395   3.420   6.429  1.1126  0.3187 -1.7630
 5214SOL     OW16540   5.383   1.096   5.855  0.1924 -0.0465  0.0871
 5214SOL    HW116541   5.371   1.177   5.913  2.3955 -0.2980  0.9999
 5214SOL    HW216542   5.427   1.123   5.769 -0.6326 -0.0606 -0.3515
 5215SOL     OW16543   5.108   4.360   3.452  0.6991 -0.1058 -0.5542
 5215SOL    HW116544   5.035   4.426   3.436  0.2902 -0.4972 -0.3376
 5215SOL    HW216545   5.197   4.402   3.433  0.4014  0.2951 -1.0585
 5216SOL     OW16546   4.669   4.079   1.571 -0.2667 -0.5500  0.5399
 5216SOL    HW116547   4.625   4.160   1.609 -0.1206 -0.4913  0.5843
 5216SOL    HW216548   4.642   3.998   1.623 -3.8052 -1.2164 -1.9929
 5217SOL     OW16549   3.320   4.497   5.380  0.8244 -0.5432 -0.2708
 5217SOL    HW116550   3.314   4.413   5.327 -0.1654 -1.7789  1.6819
 5217SOL    HW216551   3.390   4.489   5.450  1.3422  0.6285 -0.6207
 5218SOL     OW16552   2.290   1.625   3.472  0.1037  0.0159  0.1208
 5218SOL    HW116553   2.283   1.718   3.436  0.3050  0.6300  1.5837
 5218SOL    HW216554   2.332   1.565   3.404 -0.3458  0.9173 -0.9673
 5219SOL     OW16555   3.599   5.944   5.608 -0.1597  0.3075 -0.1106
 5219SOL    HW116556   3.691   5.907   5.604  0.3576  1.6820 -2.6635
 5219SOL    HW216557   3.533   5.870   5.596  0.6717 -0.4186 -0.3227
 5220SOL     OW16558   2.036   6.184   2.744 -0.5990 -0.1524 -0.1063
 5220SOL    HW116559   2.055   6.268   2.795 -0.4920  1.5866 -2.8210
 5220SOL    HW216560   2.101   6.113   2.771  2.0625  1.9258 -0.6387
 5221SOL     OW16561   5.113   2.500   3.937  0.4471 -0.3664 -0.0170
 5221SOL    HW116562   5.083   2.578   3.993  1.7588 -0.1666  0.4459
 5221SOL    HW216563   5.042   2.478   3.870  0.1064  1.3249 -0.2636
 5222SOL     OW16564   2.499   5.359   2.702 -0.4725 -0.2740  0.1205
 5222SOL    HW116565   2.404   5.328   2.701 -0.4418 -0.3651  0.0004
 5222SOL    HW216566   2.532   5.365   2.608 -0.7596  0.9611  0.0741
 5223SOL     OW16567   3.980   1.792   0.336  0.3533 -0.2585  0.0334
 5223SOL    HW116568   3.941   1.775   0.246  0.3822  1.8700 -0.4268
 5223SOL    HW216569   4.069   1.748   0.343 -0.3044 -1.6990 -0.4073
 5224SOL     OW16570   0.318   3.405   3.144 -0.8641  0.0237  0.5026
 5224SOL    HW116571   0.361   3.469   3.208 -1.7542  0.0839  1.0542
 5224SOL    HW216572   0.305   3.317   3.189 -0.2475 -0.3614 -0.0458
 5225SOL     OW16573   0.226   6.326   2.596  0.4042  0.3849 -0.2668
 5225SOL    HW116574   0.305   6.375   2.634  0.1104 -0.7257  1.9220
 5225SOL    HW216575   0.179   6.385   2.530  1.4986  2.0957  0.4071
 5226SOL     OW16576   6.409   0.138   5.520  0.0011 -0.5450  0.1669
 5226SOL    HW116577   6.397   0.075   5.443 -0.5289 -0.0793 -0.1368
 5226SOL    HW216578   6.448   0.224   5.488 -0.0070 -0.4340  0.4520
 5227SOL     OW16579   1.110   4.397   7.003 -0.1334 -0.0324  0.3372
 5227SOL    HW116580   1.088   4.465   7.072  2.5394  0.1540  1.1283
 5227SOL    HW216581   1.193   4.348   7.029 -0.4487 -1.7159 -1.5424
 5228SOL     OW16582   0.190   4.007   1.257  0.8326 -0.5929 -0.1866
 5228SOL    HW116583   0.266   3.992   1.194  0.9518  2.4376 -0.8931
 5228SOL    HW216584   0.127   4.074   1.217  0.9254  1.4919  2.8839
 5229SOL     OW16585   0.999   5.564   2.608  0.5093  0.0951 -0.1189
 5229SOL    HW116586   1.033   5.575   2.701 -1.1642 -2.4759  0.8991
 5229SOL    HW216587   0.964   5.471   2.596 -0.3101  0.6716 -3.0126
 5230SOL     OW16588   0.107   0.526   2.741 -0.3997  0.2840 -0.2620
 5230SOL    HW116589   0.014   0.557   2.724 -0.4048  0.2926 -0.2185
 5230SOL    HW216590   0.149   0.583   2.811 -0.0948  0.7693 -0.8368
 5231SOL     OW16591   3.446   3.354   4.083  0.3476 -0.1588 -0.1862
 5231SOL    HW116592   3.396   3.310   4.009  0.3234 -0.7718  0.1931
 5231SOL    HW216593   3.382   3.402   4.143 -0.1512 -2.9085  1.6753
 5232SOL     OW16594   3.643   2.051   4.926  0.2919 -0.4051 -0.0359
 5232SOL    HW116595   3.658   2.085   5.018 -0.1331 -0.2600 -0.0145
 5232SOL    HW216596   3.547   2.067   4.900  0.8387  1.2489 -1.1970
 5233SOL     OW16597   6.865   5.301   1.124  0.1497  0.3628 -0.6817
 5233SOL    HW116598   6.826   5.246   1.198  0.2808 -0.7306 -1.4031
 5233SOL    HW216599   6.904   5.385   1.161 -0.5896  0.2558  0.3716
 5234SOL     OW16600   1.501   1.035   0.727  0.1027 -0.2234  0.1703
 5234SOL    HW116601   1.562   0.980   0.670  0.2335 -0.4599  0.5300
 5234SOL    HW216602   1.510   1.005   0.823 -0.6401 -0.3124  0.2149
 5235SOL     OW16603   1.819   2.486   6.785  0.3779 -0.0696  0.8169
 5235SOL    HW116604   1.888   2.441   6.842  0.6487 -0.5474  0.1370
 5235SOL    HW216605   1.848   2.483   6.689 -0.3062  0.2587  0.5891
 5236SOL     OW16606   6.406   2.509   1.992  0.2647  0.2857  0.1056
 5236SOL    HW116607   6.469   2.435   2.015 -0.1647 -0.1120  0.0059
 5236SOL    HW216608   6.346   2.481   1.918 -0.4163  0.4481  0.5836
 5237SOL     OW16609   4.872   0.737   4.919 -0.1363 -0.1869  0.2756
 5237SOL    HW116610   4.852   0.760   5.014  2.5064 -1.1237  1.1602
 5237SOL    HW216611   4.882   0.821   4.866 -2.6807  0.3435  0.4991
 5238SOL     OW16612   1.654   4.140   6.854 -0.4556  0.4266  0.3045
 5238SOL    HW116613   1.690   4.208   6.790 -0.8623  0.5576  0.2126
 5238SOL    HW216614   1.561   4.167   6.882 -0.7352 -0.2444  0.0377
 5239SOL     OW16615   4.124   3.370   4.608  0.2968  0.2955  0.0151
 5239SOL    HW116616   4.053   3.311   4.646  0.3183  0.6335  0.5801
 5239SOL    HW216617   4.214   3.340   4.640  0.5195 -0.7065 -1.4247
 5240SOL     OW16618   1.866   1.840   6.230  0.0912 -0.7878 -0.2451
 5240SOL    HW116619   1.846   1.878   6.140 -0.7077 -1.3021 -0.2955
 5240SOL    HW216620   1.955   1.873   6.261 -0.5493  1.0710 -0.2925
 5241SOL     OW16621   2.627   4.454   0.883 -0.0289 -0.4210  0.0103
 5241SOL    HW116622   2.628   4.464   0.982  1.7290 -0.5306  0.0397
 5241SOL    HW216623   2.708   4.499   0.844 -1.7433  1.4901 -1.5915
 5242SOL     OW16624   0.440   6.655   6.844 -0.3748  0.5568  0.1051
 5242SOL    HW116625   0.510   6.627   6.777  0.0353 -1.4101  1.2674
 5242SOL    HW216626   0.349   6.632   6.808 -0.1173 -1.1319  0.4626
 5243SOL     OW16627   1.360   6.906   1.583 -0.0844 -0.4699 -0.1130
 5243SOL    HW116628   1.298   6.953   1.646 -0.4153 -0.7106 -0.2564
 5243SOL    HW216629   1.399   6.973   1.519  1.2817  0.0027  1.1657
 5244SOL     OW16630   2.705   4.343   5.312  0.0782  0.2729  0.8727
 5244SOL    HW116631   2.648   4.425   5.308  0.1263  0.2755 -2.1996
 5244SOL    HW216632   2.796   4.364   5.275  0.3973 -0.9581  0.9312
 5245SOL     OW16633   3.732   2.818   5.101 -0.5731  0.4112  0.7483
 5245SOL    HW116634   3.805   2.808   5.034 -1.7063  0.9480 -0.6173
 5245SOL    HW216635   3.736   2.743   5.166  1.2124  0.4560  0.7574
 5246SOL     OW16636   4.855   3.692   2.170 -0.1291 -0.0540  0.1301
 5246SOL    HW116637   4.903   3.644   2.096 -0.2086  1.7781 -1.1932
 5246SOL    HW216638   4.809   3.773   2.132 -1.9008 -0.1763  1.8503
 5247SOL     OW16639   2.045   6.217   1.122 -0.3170 -0.1867 -0.0881
 5247SOL    HW116640   1.968   6.193   1.063 -0.1132  1.1731 -0.9580
 5247SOL    HW216641   2.120   6.152   1.106 -1.5110 -2.0701  1.4143
 5248SOL     OW16642   6.276   5.445   4.918  0.1607  0.0844 -0.0352
 5248SOL    HW116643   6.267   5.542   4.896  1.6295  0.4282  0.7112
 5248SOL    HW216644   6.297   5.394   4.835 -0.9271  0.3456 -0.4835
 5249SOL     OW16645   6.225   4.043   5.579 -0.2222 -0.0800 -0.4819
 5249SOL    HW116646   6.324   4.049   5.593 -0.2764  2.2458 -0.7081
 5249SOL    HW216647   6.183   4.130   5.603 -2.1124 -0.6986 -1.3682
 5250SOL     OW16648   1.194   1.341   5.742  0.0076  0.0428  0.6311
 5250SOL    HW116649   1.165   1.261   5.689 -0.8015  0.0955  0.9692
 5250SOL    HW216650   1.123   1.411   5.737  0.9882  1.0055 -0.1830
 5251SOL     OW16651   1.002   3.438   1.389  0.4048 -0.2124  0.1887
 5251SOL    HW116652   0.973   3.342   1.393 -2.3698  0.5527  0.3756
 5251SOL    HW216653   1.097   3.442   1.358  1.0756 -3.0603  1.4690
 5252SOL     OW16654   1.553   4.389   0.486 -0.0055  0.3318  0.2668
 5252SOL    HW116655   1.456   4.365   0.485 -0.3538  1.6601  0.1961
 5252SOL    HW216656   1.584   4.399   0.581 -0.2209  0.9670  0.2728
 5253SOL     OW16657   5.834   4.303   6.237  0.1372 -0.7733 -0.1027
 5253SOL    HW116658   5.907   4.348   6.184 -0.7546 -0.3446 -1.0028
 5253SOL    HW216659   5.874   4.229   6.292  1.3180 -0.2441 -0.2139
 5254SOL     OW16660   0.678   0.988   3.474 -0.5518  0.3679 -0.3958
 5254SOL    HW116661   0.640   1.030   3.556 -0.3007  0.6084 -0.4012
 5254SOL    HW216662   0.674   0.888   3.482  1.2310  0.3438  0.7570
 5255SOL     OW16663   3.586   0.847   4.476 -0.0156  0.5450  0.2067
 5255SOL    HW116664   3.488   0.830   4.471  0.2675 -1.0626 -0.9075
 5255SOL    HW216665   3.624   0.848   4.383  1.2942 -0.9496  0.6761
 5256SOL     OW16666   4.491   1.783   2.449  0.3921  0.0429 -0.3368
 5256SOL    HW116667   4.402   1.821   2.475 -1.7777 -3.1620 -2.2737
 5256SOL    HW216668   4.540   1.756   2.531 -1.4426 -0.0857  0.7895
 5257SOL     OW16669   4.593   6.147   0.946 -0.1606  0.6761  0.6969
 5257SOL    HW116670   4.643   6.167   0.862 -1.1246 -0.1881 -0.0986
 5257SOL    HW216671   4.607   6.222   1.011  0.7492  1.2665 -0.1429
 5258SOL     OW16672   6.918   3.327   0.688 -0.3873  0.2637 -0.5388
 5258SOL    HW116673   6.964   3.408   0.651 -2.6222  1.3105 -1.2196
 5258SOL    HW216674   6.892   3.344   0.783  0.6033 -0.3349 -0.1467
 5259SOL     OW16675   3.726   0.024   2.398  0.5937  0.4464  0.3117
 5259SOL    HW116676   3.743  -0.075   2.394  0.8767  0.4825  0.6519
 5259SOL    HW216677   3.628   0.040   2.391  0.6983  0.3308 -3.7219
 5260SOL     OW16678   5.345   3.482   1.600  0.5397  0.3142  0.5399
 5260SOL    HW116679   5.433   3.480   1.648  0.7376 -0.3340  0.1645
 5260SOL    HW216680   5.318   3.388   1.578  0.1081  0.5600  0.0092
 5261SOL     OW16681   2.009   3.827   6.454 -0.3277 -0.0062  0.8162
 5261SOL    HW116682   1.953   3.868   6.382  0.8012  0.8652  0.4090
 5261SOL    HW216683   2.053   3.744   6.418  1.1638  1.0580  0.0772
 5262SOL     OW16684   3.316   5.331   1.813 -0.3717 -0.1348 -0.2416
 5262SOL    HW116685   3.365   5.311   1.898  2.5933 -0.4580 -1.8857
 5262SOL    HW216686   3.266   5.249   1.783 -3.2214  0.5690  2.1149
 5263SOL     OW16687   0.957   1.042   6.024 -1.0693 -0.1035  0.3497
 5263SOL    HW116688   1.049   1.006   6.042 -1.1519  0.2937  1.6328
 5263SOL    HW216689   0.940   1.040   5.925 -0.0824 -1.1395  0.1696
 5264SOL     OW16690   6.891   0.640   1.636  0.2090  0.1381 -0.2369
 5264SOL    HW116691   6.948   0.637   1.718  2.4477  0.9099 -1.6835
 5264SOL    HW216692   6.810   0.697   1.654  0.4072 -0.0812  1.5412
 5265SOL     OW16693   3.182   4.293   0.215 -0.2863 -0.2284 -0.2948
 5265SOL    HW116694   3.119   4.219   0.238 -0.8762  0.2945 -0.1890
 5265SOL    HW216695   3.208   4.287   0.119 -0.8888 -0.1612 -0.4613
 5266SOL     OW16696   4.027   1.450   3.140  0.2257  0.2708  0.1163
 5266SOL    HW116697   3.934   1.469   3.173  0.1707 -0.5795  0.4742
 5266SOL    HW216698   4.021   1.394   3.057  0.4344 -1.5496  1.2845
 5267SOL     OW16699   4.466   4.597   4.799  0.3096 -0.1728 -0.5104
 5267SOL    HW116700   4.396   4.613   4.728 -0.6733 -0.2889  0.4058
 5267SOL    HW216701   4.428   4.538   4.869  1.1232  0.3049  0.3446
 5268SOL     OW16702   6.150   3.738   6.389 -0.3308 -0.0648  0.6255
 5268SOL    HW116703   6.090   3.815   6.409  0.2916  0.1035  1.9941
 5268SOL    HW216704   6.140   3.668   6.459  0.5268 -0.3605  0.4712
 5269SOL     OW16705   1.573   6.088   3.237 -0.6452 -0.2167 -0.0360
 5269SOL    HW116706   1.643   6.142   3.191  0.1903 -0.8775  0.4423
 5269SOL    HW216707   1.539   6.138   3.317 -0.5677  0.0068 -0.1426
 5270SOL     OW16708   0.812   1.481   3.629 -0.1728  0.0613  0.0606
 5270SOL    HW116709   0.837   1.400   3.681  4.2989  0.9282 -0.3740
 5270SOL    HW216710   0.794   1.455   3.534 -0.7081 -0.6121  0.3378
 5271SOL     OW16711   2.795   5.190   4.827  0.2169  0.6081  0.0526
 5271SOL    HW116712   2.785   5.275   4.775  0.2026  0.7987  0.3634
 5271SOL    HW216713   2.870   5.136   4.789 -0.5289  0.2212 -0.8718
 5272SOL     OW16714   2.161   5.262   1.971 -0.7053  0.0020 -0.2035
 5272SOL    HW116715   2.175   5.343   2.029  0.7705 -0.8043  0.6279
 5272SOL    HW216716   2.160   5.290   1.875  0.7718  0.9344  0.0075
 5273SOL     OW16717   5.464   3.670   2.799 -0.3767 -0.1989  0.2661
 5273SOL    HW116718   5.539   3.682   2.734 -0.6935  1.3298  0.1261
 5273SOL    HW216719   5.480   3.590   2.855  1.5987  0.3433  0.5281
 5274SOL     OW16720   5.483   5.638   3.333 -0.0139 -0.5888 -0.2889
 5274SOL    HW116721   5.420   5.587   3.390 -0.6078  0.5198  0.0849
 5274SOL    HW216722   5.545   5.692   3.391 -0.7997  0.7561 -0.6368
 5275SOL     OW16723   4.733   2.532   5.561  0.6143 -0.3585  0.2221
 5275SOL    HW116724   4.691   2.562   5.475  1.5215  1.3105  0.3226
 5275SOL    HW216725   4.784   2.608   5.602  1.3250 -1.5072  1.5602
 5276SOL     OW16726   1.904   1.396   1.961  0.2615 -0.1295  0.5333
 5276SOL    HW116727   1.889   1.494   1.948  0.9548  0.2312  2.1693
 5276SOL    HW216728   1.984   1.382   2.020  1.1157 -1.7414 -0.9063
 5277SOL     OW16729   1.200   2.880   4.314 -0.1295  0.0226  0.5757
 5277SOL    HW116730   1.193   2.780   4.318  1.0772 -0.2850 -2.3527
 5277SOL    HW216731   1.145   2.914   4.238  0.2826  1.4749  0.9007
 5278SOL     OW16732   5.276   6.246   3.258 -0.1679  0.4894  0.2933
 5278SOL    HW116733   5.312   6.229   3.349  0.2917 -0.9124 -0.1313
 5278SOL    HW216734   5.348   6.236   3.190 -1.1750 -1.9698 -0.5334
 5279SOL     OW16735   0.296   6.201   5.995  0.0456  0.1831  0.1924
 5279SOL    HW116736   0.208   6.192   5.947 -0.4808 -2.9629  1.4988
 5279SOL    HW216737   0.358   6.256   5.940 -2.2309  1.2482 -1.4904
 5280SOL     OW16738   2.005   5.426   6.890  0.4503 -0.2436  0.1867
 5280SOL    HW116739   2.099   5.402   6.912  0.8223 -0.3021 -1.3045
 5280SOL    HW216740   1.991   5.417   6.791 -1.0869 -0.1028  0.3646
 5281SOL     OW16741   0.612   6.398   4.344  0.0134  0.0240  0.3110
 5281SOL    HW116742   0.541   6.348   4.393 -0.5711  2.1556  1.7853
 5281SOL    HW216743   0.591   6.400   4.246  0.4576 -3.1142  0.0440
 5282SOL     OW16744   0.116   2.129   4.738 -0.0738 -0.3268  0.2078
 5282SOL    HW116745   0.134   2.223   4.710  0.4544 -0.0759  1.3541
 5282SOL    HW216746   0.017   2.112   4.739 -0.1731  0.2531  0.1404
 5283SOL     OW16747   3.930   0.673   2.284  0.1003  0.3499 -0.2932
 5283SOL    HW116748   3.922   0.610   2.208  0.6751  0.4534 -0.4447
 5283SOL    HW216749   3.986   0.632   2.357 -1.9823 -0.5077  0.8929
 5284SOL     OW16750   4.933   4.693   2.385 -0.7229  0.7334  0.6213
 5284SOL    HW116751   4.959   4.752   2.461 -0.6515  1.0606  0.3423
 5284SOL    HW216752   4.873   4.620   2.419  0.9598 -0.3560  1.3758
 5285SOL     OW16753   0.799   5.934   6.515 -0.2496 -0.0183 -0.1127
 5285SOL    HW116754   0.838   5.907   6.603  0.4913  0.7163 -0.1995
 5285SOL    HW216755   0.812   5.861   6.449 -0.3453 -0.3696  0.2532
 5286SOL     OW16756   5.361   3.209   0.449 -0.7270 -0.4063 -0.0061
 5286SOL    HW116757   5.370   3.278   0.520  0.2005 -1.0853  0.5545
 5286SOL    HW216758   5.276   3.158   0.462 -1.0954  0.1904 -0.0396
 5287SOL     OW16759   0.298   5.397   3.056 -0.2635  0.2655  0.1114
 5287SOL    HW116760   0.302   5.482   3.004  0.3629  0.1687 -0.0163
 5287SOL    HW216761   0.243   5.330   3.006 -1.2535  0.7751  0.4986
 5288SOL     OW16762   5.341   0.770   2.830  0.2877  0.3038 -0.1543
 5288SOL    HW116763   5.387   0.856   2.810 -0.5421  0.9335  0.5970
 5288SOL    HW216764   5.284   0.743   2.752 -0.2122  0.9495 -0.0193
 5289SOL     OW16765   1.396   4.060   6.768 -0.1481  0.6581  0.4067
 5289SOL    HW116766   1.438   4.009   6.693  1.7231  1.6996  0.6828
 5289SOL    HW216767   1.348   4.139   6.731  1.4570  1.6267  0.3170
 5290SOL     OW16768   0.880   3.781   5.229  0.0479  0.3244  0.0773
 5290SOL    HW116769   0.808   3.846   5.252  0.2081  0.7939 -0.7340
 5290SOL    HW216770   0.873   3.701   5.289 -1.0969  0.3896  0.0515
 5291SOL     OW16771   3.784   5.322   6.371 -0.6454  0.0319  0.5391
 5291SOL    HW116772   3.737   5.404   6.403 -0.3342  0.1309  0.7462
 5291SOL    HW216773   3.824   5.340   6.281  0.2085  0.4123  0.9803
 5292SOL     OW16774   0.467   4.080   6.062 -0.0452  0.2781 -0.2269
 5292SOL    HW116775   0.482   3.988   6.026  0.5754  1.3351 -2.8949
 5292SOL    HW216776   0.370   4.104   6.053 -0.1089  0.1001 -0.0291
 5293SOL     OW16777   3.254   6.028   4.904 -0.2057  0.1780 -0.1228
 5293SOL    HW116778   3.194   6.086   4.848 -1.5401 -0.4515  0.6200
 5293SOL    HW216779   3.341   6.015   4.856 -0.1453  2.1597 -0.6541
 5294SOL     OW16780   5.131   2.400   4.720 -0.1059  0.2452 -0.6748
 5294SOL    HW116781   5.125   2.405   4.820  0.3499  0.3091 -0.6511
 5294SOL    HW216782   5.039   2.387   4.682 -0.2445 -0.0696 -0.2345
 5295SOL     OW16783   5.084   0.345   2.062  0.6296 -0.3398  0.3342
 5295SOL    HW116784   5.101   0.273   1.994 -0.0328 -0.6961  0.5273
 5295SOL    HW216785   5.162   0.407   2.066  0.1988  0.3920 -1.6205
 5296SOL     OW16786   3.002   4.303   6.325 -0.2407 -0.1033  0.1561
 5296SOL    HW116787   3.044   4.387   6.360  1.9941 -1.0313 -0.1456
 5296SOL    HW216788   3.057   4.266   6.251 -1.7360 -1.3209 -0.4059
 5297SOL     OW16789   1.452   3.191   1.245  0.1224 -0.1472  0.4656
 5297SOL    HW116790   1.464   3.203   1.343  0.7615 -0.8258  0.4737
 5297SOL    HW216791   1.371   3.135   1.228 -0.2463  0.3473  0.5882
 5298SOL     OW16792   2.224   5.296   1.072  0.6894  0.5241  0.1836
 5298SOL    HW116793   2.146   5.237   1.096  0.6743 -0.0368 -1.1837
 5298SOL    HW216794   2.218   5.381   1.125 -1.3729  0.8909 -0.5541
 5299SOL     OW16795   2.392   3.075   0.091  0.2199 -0.4618 -0.5306
 5299SOL    HW116796   2.408   3.127   0.007  0.1376 -1.7935 -1.3999
 5299SOL    HW216797   2.422   2.981   0.078  2.1734 -0.2256  1.6461
 5300SOL     OW16798   1.146   6.407   2.469  0.0746 -0.0966  0.0895
 5300SOL    HW116799   1.109   6.469   2.538  2.3624  0.8401  0.5454
 5300SOL    HW216800   1.097   6.421   2.382 -1.6408 -0.0512  1.0236
 5301SOL     OW16801   4.392   2.339   6.985 -0.6071  0.3347 -0.4338
 5301SOL    HW116802   4.335   2.407   7.032 -0.7777 -0.3028  0.2954
 5301SOL    HW216803   4.335   2.286   6.921 -0.3063  1.4400 -1.6670
 5302SOL     OW16804   6.413   6.321   4.506  0.3247  0.4610 -0.0459
 5302SOL    HW116805   6.470   6.240   4.520  0.9199  0.8850 -0.0029
 5302SOL    HW216806   6.353   6.306   4.428  1.6467  0.6348 -1.1341
 5303SOL     OW16807   5.760   4.926   3.166 -0.2254  0.0731  0.0913
 5303SOL    HW116808   5.717   5.011   3.198 -0.8732 -0.9061  1.9375
 5303SOL    HW216809   5.859   4.933   3.177 -0.4294 -0.2901  2.6407
 5304SOL     OW16810   4.179   2.310   6.812  0.2924  0.0078 -0.4209
 5304SOL    HW116811   4.148   2.405   6.815  0.5531  0.1200 -1.1011
 5304SOL    HW216812   4.109   2.251   6.852 -0.1674  0.4194 -0.6017
 5305SOL     OW16813   1.525   6.763   3.240 -0.0350  0.1077 -0.5312
 5305SOL    HW116814   1.585   6.683   3.231 -1.7996 -1.3231 -0.2471
 5305SOL    HW216815   1.559   6.823   3.313 -0.7232 -2.4019  2.0349
 5306SOL     OW16816   1.334   5.773   5.615 -0.2338 -1.0338 -0.3922
 5306SOL    HW116817   1.351   5.716   5.535 -1.3519 -1.7659 -0.1317
 5306SOL    HW216818   1.269   5.727   5.676 -1.5432  0.6874 -0.3933
 5307SOL     OW16819   5.186   3.389   6.930  0.2094  0.2107  0.6583
 5307SOL    HW116820   5.242   3.405   6.848  0.0082 -0.8782  0.2981
 5307SOL    HW216821   5.237   3.419   7.011 -0.3093  3.1063  0.0470
 5308SOL     OW16822   2.529   5.811   2.760 -0.0912 -0.5539 -0.2435
 5308SOL    HW116823   2.467   5.773   2.692 -0.4462  0.2541 -0.3798
 5308SOL    HW216824   2.551   5.741   2.827  0.1296 -1.3161 -1.0871
 5309SOL     OW16825   5.726   5.887   0.915  0.2553 -0.4314  0.1112
 5309SOL    HW116826   5.683   5.977   0.918  1.6832  0.4258 -2.3547
 5309SOL    HW216827   5.693   5.837   0.835  4.0275  0.4924 -2.2489
 5310SOL     OW16828   5.809   4.357   2.127  0.4509 -0.0826  0.0555
 5310SOL    HW116829   5.713   4.375   2.147  0.4088 -0.5734  0.3188
 5310SOL    HW216830   5.866   4.406   2.193  0.3422 -0.7332  0.6513
 5311SOL     OW16831   4.976   4.633   6.867 -0.3317  0.2753  0.1827
 5311SOL    HW116832   4.961   4.555   6.927  0.8547 -0.3306 -0.2772
 5311SOL    HW216833   4.987   4.716   6.923  0.2350 -0.1898  0.7869
 5312SOL     OW16834   6.223   4.272   1.712 -0.4827 -0.0256  0.1999
 5312SOL    HW116835   6.257   4.365   1.700  1.6306 -0.7647  0.1080
 5312SOL    HW216836   6.213   4.253   1.810 -1.3203  0.4079  0.2104
 5313SOL     OW16837   0.267   4.219   6.442 -0.2230  0.0903 -0.4774
 5313SOL    HW116838   0.171   4.193   6.433 -0.4980  0.3508  1.3518
 5313SOL    HW216839   0.306   4.175   6.523  0.6229  1.5652 -0.0409
 5314SOL     OW16840   3.689   5.430   2.452  0.0800  0.0730 -0.0296
 5314SOL    HW116841   3.597   5.440   2.490 -0.0872  1.4184 -0.7323
 5314SOL    HW216842   3.688   5.361   2.380 -0.5123  0.4941 -0.4363
 5315SOL     OW16843   3.755   2.634   1.159 -0.3088 -0.0483 -0.7936
 5315SOL    HW116844   3.787   2.630   1.253 -2.0350 -1.1084 -0.2123
 5315SOL    HW216845   3.675   2.694   1.153  0.2062  0.5709 -1.7264
 5316SOL     OW16846   0.253   3.034   4.700  0.1541 -0.1915 -0.2636
 5316SOL    HW116847   0.280   3.122   4.659 -2.0752  0.3958 -0.5705
 5316SOL    HW216848   0.222   2.972   4.628  0.8946 -0.9529  0.0532
 5317SOL     OW16849   1.757   0.296   5.734  0.0432  0.4905 -0.2710
 5317SOL    HW116850   1.827   0.360   5.767  0.5856 -0.8657  1.3592
 5317SOL    HW216851   1.667   0.328   5.761  0.3003  0.6470  0.4144
 5318SOL     OW16852   6.527   2.574   0.126  0.0428 -0.2784 -0.0975
 5318SOL    HW116853   6.478   2.642   0.179  0.5729 -0.1210  0.1916
 5318SOL    HW216854   6.573   2.509   0.188  0.8476  0.0389 -0.3495
 5319SOL     OW16855   3.846   4.887   6.293 -0.4101 -0.1339  0.2948
 5319SOL    HW116856   3.909   4.842   6.230 -0.9515 -0.5196  0.0221
 5319SOL    HW216857   3.752   4.872   6.263 -0.6396  0.3595  0.7484
 5320SOL     OW16858   4.966   4.596   0.534 -0.5512 -0.2241  1.0269
 5320SOL    HW116859   4.923   4.674   0.580  0.4735  1.3425 -0.5531
 5320SOL    HW216860   5.029   4.629   0.464  0.3794 -2.4921  0.7018
 5321SOL     OW16861   1.592   4.960   4.104 -0.2081  0.2541 -0.2418
 5321SOL    HW116862   1.533   5.034   4.135 -0.1359 -0.1899  1.0140
 5321SOL    HW216863   1.687   4.990   4.104 -0.1948  0.2168  0.1183
 5322SOL     OW16864   5.785   0.964   4.208  0.0495 -0.0963  0.5061
 5322SOL    HW116865   5.877   0.996   4.230  1.0762 -1.1725 -1.8426
 5322SOL    HW216866   5.773   0.871   4.241  1.8598 -1.9984 -3.5377
 5323SOL     OW16867   5.536   2.469   4.762 -0.2550  0.7904 -0.1434
 5323SOL    HW116868   5.476   2.407   4.713 -0.2331 -0.5845  1.4921
 5323SOL    HW216869   5.616   2.419   4.795 -0.8582  1.3231  2.3322
 5324SOL     OW16870   3.047   2.549   0.689 -0.6994 -0.1958 -0.0222
 5324SOL    HW116871   3.052   2.540   0.788  0.6743 -0.1574 -0.0673
 5324SOL    HW216872   3.068   2.461   0.646  0.9076  0.2857 -0.2869
 5325SOL     OW16873   4.200   0.576   4.947  0.4878  0.6537 -0.2517
 5325SOL    HW116874   4.106   0.586   4.980 -0.0652  0.4007 -1.6801
 5325SOL    HW216875   4.222   0.652   4.886  0.9296  0.2836 -0.5596
 5326SOL     OW16876   1.566   4.391   3.354 -0.0691  0.2596 -0.4933
 5326SOL    HW116877   1.544   4.488   3.364 -1.4526 -0.1309  0.7089
 5326SOL    HW216878   1.619   4.360   3.433  0.6029  0.0875 -1.0032
 5327SOL     OW16879   0.055   4.928   4.115  0.0855 -0.0631 -0.0210
 5327SOL    HW116880  -0.003   4.990   4.062  1.7104  1.3893 -0.1998
 5327SOL    HW216881   0.104   4.980   4.185  1.2442 -1.2040  0.0555
 5328SOL     OW16882   4.153   1.597   4.790 -0.6180 -0.0654  0.5190
 5328SOL    HW116883   4.162   1.675   4.728 -1.7471 -0.0926  0.3163
 5328SOL    HW216884   4.238   1.543   4.788  0.6605  1.7688  1.5306
 5329SOL     OW16885   0.059   6.171   1.009  0.3355  0.0222  0.2126
 5329SOL    HW116886   0.113   6.095   0.973 -0.1781  0.2121 -1.0177
 5329SOL    HW216887   0.095   6.257   0.974 -0.2933  0.1975 -0.0253
 5330SOL     OW16888   2.861   4.009   5.995 -0.4558  0.7773 -0.4546
 5330SOL    HW116889   2.783   4.050   5.948  0.6830  0.2050 -2.9763
 5330SOL    HW216890   2.939   4.073   5.991 -0.2545  0.6016  0.4531
 5331SOL     OW16891   4.681   1.880   0.399  0.3954  0.5647 -0.4622
 5331SOL    HW116892   4.607   1.817   0.422  0.5094  0.2184 -1.0091
 5331SOL    HW216893   4.643   1.969   0.377  0.2267  0.6738  0.2493
 5332SOL     OW16894   1.263   4.176   1.358  0.1276  0.0818 -0.2913
 5332SOL    HW116895   1.332   4.166   1.429 -0.3287  0.3049  0.1918
 5332SOL    HW216896   1.287   4.118   1.280  0.5671 -0.2706  0.0983
 5333SOL     OW16897   1.859   6.681   2.198 -0.4223  0.5678 -0.6709
 5333SOL    HW116898   1.856   6.600   2.256 -0.4426  0.3163 -1.0183
 5333SOL    HW216899   1.768   6.724   2.196 -0.5640  0.2635 -0.9505
 5334SOL     OW16900   4.748   0.020   5.369 -0.3019 -0.1065  0.5606
 5334SOL    HW116901   4.823  -0.047   5.372  0.6107  0.8484 -0.3143
 5334SOL    HW216902   4.689  -0.000   5.291 -0.0210  0.1037  0.2910
 5335SOL     OW16903   6.109   6.143   3.015 -0.3564  0.2068  0.1060
 5335SOL    HW116904   6.012   6.166   3.014 -0.2866  0.5629  0.8453
 5335SOL    HW216905   6.142   6.141   3.110  0.3127 -0.1072 -0.1229
 5336SOL     OW16906   3.527   0.382   2.696  0.6914 -0.0365 -0.2732
 5336SOL    HW116907   3.500   0.414   2.787 -1.2310 -0.5146 -0.6190
 5336SOL    HW216908   3.588   0.304   2.705 -0.8586 -1.1978  0.6733
 5337SOL     OW16909   5.378   2.270   1.621 -0.0210 -0.1137  0.8080
 5337SOL    HW116910   5.379   2.187   1.676  1.5872  0.6151  1.9542
 5337SOL    HW216911   5.456   2.268   1.557  0.3015  0.6942  1.1600
 5338SOL     OW16912   5.374   2.293   5.796 -0.0773 -0.4095 -0.3142
 5338SOL    HW116913   5.370   2.380   5.747 -1.0469 -0.7375 -0.8410
 5338SOL    HW216914   5.297   2.286   5.859 -0.6128 -1.3244 -1.0501
 5339SOL     OW16915   0.913   0.827   3.256  0.1754  0.6214 -0.3100
 5339SOL    HW116916   0.912   0.902   3.190  1.9595  2.3491  1.5025
 5339SOL    HW216917   0.934   0.863   3.347 -1.8438 -1.7212  1.1859
 5340SOL     OW16918   5.338   3.416   6.732  0.3935 -0.5343 -0.3324
 5340SOL    HW116919   5.378   3.503   6.703  0.7922 -0.6201 -0.0621
 5340SOL    HW216920   5.410   3.346   6.736  0.0744 -0.8770 -0.5552
 5341SOL     OW16921   2.583   4.436   6.891  0.0120  0.3658  0.2918
 5341SOL    HW116922   2.651   4.381   6.939 -0.8058 -1.3592 -0.4122
 5341SOL    HW216923   2.616   4.456   6.799 -1.0864 -2.1276 -0.7595
 5342SOL     OW16924   3.034   0.786   3.586  0.0418 -0.2806 -0.2110
 5342SOL    HW116925   2.947   0.756   3.625 -1.1396  1.2639 -1.4794
 5342SOL    HW216926   3.054   0.732   3.504 -0.2987  0.0511 -0.5214
 5343SOL     OW16927   3.939   3.322   3.739  0.0509 -0.1344 -0.6168
 5343SOL    HW116928   3.850   3.322   3.785 -0.4468  1.7513 -1.4952
 5343SOL    HW216929   3.946   3.240   3.681 -0.5946 -0.9166  0.3679
 5344SOL     OW16930   2.761   1.506   1.693  0.6575  0.3273 -0.0580
 5344SOL    HW116931   2.823   1.451   1.637 -1.4663 -0.4954 -1.7292
 5344SOL    HW216932   2.730   1.586   1.641 -1.0800 -0.2682 -0.0088
 5345SOL     OW16933   6.671   6.629   0.424 -0.5730  0.2547 -0.2163
 5345SOL    HW116934   6.661   6.721   0.386 -1.1413 -0.1246 -1.0170
 5345SOL    HW216935   6.662   6.561   0.350 -2.2498 -0.5379  0.6634
 5346SOL     OW16936   1.379   0.284   5.358  0.1318  0.4008 -0.5070
 5346SOL    HW116937   1.313   0.359   5.364 -0.2729 -0.0064  4.1987
 5346SOL    HW216938   1.472   0.320   5.372  0.4056  0.3576 -2.0045
 5347SOL     OW16939   0.052   3.565   0.198 -0.2809  0.0866 -0.1594
 5347SOL    HW116940   0.029   3.468   0.196  0.1673 -0.0865 -3.6056
 5347SOL    HW216941   0.147   3.577   0.169 -0.1666  1.5541  0.7157
 5348SOL     OW16942   6.330   0.929   6.519 -0.1855 -0.5594  0.0307
 5348SOL    HW116943   6.333   1.026   6.544 -1.2439 -0.1857 -1.1883
 5348SOL    HW216944   6.327   0.921   6.419 -1.0162 -1.8218  0.1438
 5349SOL     OW16945   1.968   4.055   6.842 -0.2148  0.4975 -0.6437
 5349SOL    HW116946   1.908   4.126   6.806 -1.5711 -0.3894 -0.2096
 5349SOL    HW216947   1.918   3.968   6.847  1.5906 -0.6852 -1.8209
 5350SOL     OW16948   2.390   6.980   4.021  0.2250 -0.2951  0.1961
 5350SOL    HW116949   2.374   7.045   3.945 -1.8160  0.5585  1.2603
 5350SOL    HW216950   2.480   6.939   4.011  1.0510  1.6856 -1.2974
 5351SOL     OW16951   6.236   3.295   4.510 -0.1297  0.1813 -0.2914
 5351SOL    HW116952   6.201   3.201   4.515 -0.1894  0.2584  1.3266
 5351SOL    HW216953   6.305   3.302   4.439 -0.5204 -0.9514 -0.7983
 5352SOL     OW16954   2.219   4.621   3.755  0.3597  0.1697  0.0787
 5352SOL    HW116955   2.174   4.536   3.781  0.3981  0.1561  0.1018
 5352SOL    HW216956   2.276   4.653   3.830 -0.7993  1.0015  0.6340
 5353SOL     OW16957   2.720   6.398   5.707 -0.8398  0.0960 -0.2772
 5353SOL    HW116958   2.632   6.385   5.661 -0.9339 -1.3054  0.2454
 5353SOL    HW216959   2.709   6.462   5.783 -1.1200  0.8853 -0.9678
 5354SOL     OW16960   2.101   4.257   0.959  0.2356 -0.2434 -0.1582
 5354SOL    HW116961   2.114   4.353   0.933  0.2618 -0.5172 -1.1973
 5354SOL    HW216962   2.187   4.222   0.997  0.2772  0.0876  0.0660
 5355SOL     OW16963   6.157   2.499   4.304 -0.1219 -0.0907 -0.8365
 5355SOL    HW116964   6.256   2.485   4.294 -0.1559 -0.4131 -0.7303
 5355SOL    HW216965   6.118   2.527   4.217  0.4965  2.7436 -0.3046
 5356SOL     OW16966   5.971   4.034   1.611  0.6071  0.3107 -0.1454
 5356SOL    HW116967   5.984   3.993   1.701 -0.7490 -0.2478 -0.1730
 5356SOL    HW216968   5.926   4.123   1.621  0.1169  0.0842 -0.2712
 5357SOL     OW16969   2.842   5.249   0.340  0.8087 -0.0067 -0.2732
 5357SOL    HW116970   2.906   5.271   0.267  0.3343 -2.0694 -1.4039
 5357SOL    HW216971   2.755   5.219   0.300  0.1394 -0.0918  1.1688
 5358SOL     OW16972   5.306   1.416   6.438  0.2096  0.0038  0.2229
 5358SOL    HW116973   5.241   1.460   6.377 -0.3788  1.9773  2.1588
 5358SOL    HW216974   5.389   1.473   6.444  0.6923 -0.7155  0.4731
 5359SOL     OW16975   0.590   1.251   6.545  0.2549 -0.4012  0.0557
 5359SOL    HW116976   0.653   1.316   6.588 -0.5798  1.2101 -1.0381
 5359SOL    HW216977   0.580   1.273   6.448 -1.9725 -0.5740  0.1880
 5360SOL     OW16978   4.462   6.087   4.620  0.2635 -0.4584 -0.5191
 5360SOL    HW116979   4.546   6.119   4.663  0.1243 -0.3710 -0.3092
 5360SOL    HW216980   4.417   6.164   4.575 -2.1181  0.6472  3.2970
 5361SOL     OW16981   3.277   0.235   4.602 -0.2536  0.1090  0.8237
 5361SOL    HW116982   3.205   0.303   4.590 -1.1452 -0.9963 -0.3889
 5361SOL    HW216983   3.367   0.280   4.596 -0.8114  1.2176  0.4440
 5362SOL     OW16984   0.151   6.495   2.389  0.1562  0.4936 -0.1722
 5362SOL    HW116985   0.167   6.577   2.444 -0.3706 -1.3734  3.0218
 5362SOL    HW216986   0.230   6.478   2.330  1.6940  1.5432  1.4828
 5363SOL     OW16987   1.277   7.005   4.926  0.1658  0.1839  0.1258
 5363SOL    HW116988   1.224   7.052   4.855  0.8619  0.4151 -0.2500
 5363SOL    HW216989   1.223   6.930   4.964  0.1577 -0.5960 -1.3639
 5364SOL     OW16990   1.072   6.587   2.947 -0.2818  0.0112  0.0272
 5364SOL    HW116991   1.121   6.575   3.033  0.0212  0.7851 -0.0280
 5364SOL    HW216992   1.137   6.608   2.874 -0.3558 -2.1036 -0.7313
 5365SOL     OW16993   1.667   4.385   5.379  0.6497 -0.4610 -0.0869
 5365SOL    HW116994   1.634   4.370   5.286  0.7193 -0.4240 -0.1176
 5365SOL    HW216995   1.609   4.335   5.443 -0.1002  0.4122 -0.0562
 5366SOL     OW16996   5.859   6.299   6.543  0.2432 -0.2984 -0.2520
 5366SOL    HW116997   5.895   6.391   6.530 -0.4399  0.1406  0.8628
 5366SOL    HW216998   5.802   6.274   6.465  0.0393  0.4062 -0.3341
 5367SOL     OW16999   6.610   6.940   6.969  0.2476 -0.0853  0.1449
 5367SOL    HW117000   6.532   6.918   6.910 -0.4820 -0.4432  1.2214
 5367SOL    HW217001   6.675   6.996   6.918 -1.8251  2.2840 -0.0832
 5368SOL     OW17002   6.053   6.395   2.605 -0.3056 -0.6023 -0.4206
 5368SOL    HW117003   5.973   6.349   2.565 -0.7273 -0.8070  0.6232
 5368SOL    HW217004   6.038   6.407   2.703  0.7101 -0.1188 -0.3197
 5369SOL     OW17005   3.289   6.433   2.235 -0.2437  0.0956  0.0329
 5369SOL    HW117006   3.214   6.398   2.291 -0.6144  0.6284 -0.1227
 5369SOL    HW217007   3.326   6.359   2.178 -0.1448 -0.3439  0.6650
 5370SOL     OW17008   4.931   3.133   1.910  0.7068 -0.5465 -0.4355
 5370SOL    HW117009   4.852   3.077   1.933 -0.8870  2.1124  1.1492
 5370SOL    HW217010   4.946   3.200   1.984  2.3281  1.2243 -2.2636
 5371SOL     OW17011   1.566   3.002   5.937 -0.4307  0.6680  0.5204
 5371SOL    HW117012   1.611   3.070   5.995 -0.5141  0.6080  0.6556
 5371SOL    HW217013   1.499   2.952   5.990  0.3534 -0.2299  0.7000
 5372SOL     OW17014   6.828   5.605   4.970  0.2567  0.2671 -0.0783
 5372SOL    HW117015   6.749   5.666   4.960 -0.2161 -0.1671  0.8127
 5372SOL    HW217016   6.832   5.542   4.893 -1.2324 -0.7498  0.6089
 5373SOL     OW17017   2.155   5.878   5.022 -0.9125  0.1179 -0.7030
 5373SOL    HW117018   2.067   5.910   5.058 -0.8774 -1.2754  0.7171
 5373SOL    HW217019   2.154   5.778   5.017  0.6843  0.0675 -0.4027
 5374SOL     OW17020   1.926   4.753   0.993  0.6341  0.1209 -0.1282
 5374SOL    HW117021   1.919   4.686   0.919  0.1466 -0.5168  0.4830
 5374SOL    HW217022   1.942   4.844   0.954 -1.3078  0.0784 -1.1248
 5375SOL     OW17023   6.987   5.905   5.874 -0.4082  0.6618  0.1659
 5375SOL    HW117024   6.889   5.903   5.893 -0.7182 -0.8159 -1.3593
 5375SOL    HW217025   7.037   5.865   5.951 -1.3208 -1.6583 -0.3516
 5376SOL     OW17026   1.744   2.437   2.763 -0.4631  0.6035  0.2821
 5376SOL    HW117027   1.676   2.475   2.826 -0.2630  1.5652 -0.0535
 5376SOL    HW217028   1.835   2.470   2.789 -0.2431  0.0925  0.1629
 5377SOL     OW17029   6.329   6.370   2.548  0.0155  0.5821  0.0605
 5377SOL    HW117030   6.234   6.403   2.551 -0.7346 -1.4256  0.1097
 5377SOL    HW217031   6.384   6.430   2.490 -1.5855  1.0484 -1.0311
 5378SOL     OW17032   6.630   0.870   5.343 -0.1851  0.1213 -0.0480
 5378SOL    HW117033   6.669   0.782   5.315  0.5154 -0.0401  1.3390
 5378SOL    HW217034   6.570   0.855   5.422 -2.1302  0.5465 -1.3873
 5379SOL     OW17035   1.650   3.107   4.385  0.1017  0.8256 -0.4498
 5379SOL    HW117036   1.582   3.050   4.339 -0.7785  2.5279 -1.3650
 5379SOL    HW217037   1.741   3.069   4.369 -0.5704 -2.9409  2.8248
 5380SOL     OW17038   1.090   3.160   4.484  0.4804  0.1585  0.0315
 5380SOL    HW117039   1.133   3.078   4.521 -1.8478 -1.1961 -0.0592
 5380SOL    HW217040   0.992   3.157   4.503 -0.0941  1.6086 -2.3136
 5381SOL     OW17041   6.748   5.019   0.315  0.2069  0.2473  0.6645
 5381SOL    HW117042   6.672   5.005   0.378  0.7524 -1.2735  1.0385
 5381SOL    HW217043   6.754   5.116   0.290 -0.8628  0.6454  1.8627
 5382SOL     OW17044   3.057   2.224   1.112  0.5542  0.1051 -0.2727
 5382SOL    HW117045   2.988   2.287   1.077  1.2052  1.0350  0.0821
 5382SOL    HW217046   3.140   2.275   1.136  0.5139 -0.6236  1.6130
 5383SOL     OW17047   3.220   1.601   4.830  0.2490 -0.4083 -0.4967
 5383SOL    HW117048   3.251   1.549   4.909  1.0340  0.7449 -0.0200
 5383SOL    HW217049   3.130   1.640   4.848  0.6858  0.3483  0.0704
 5384SOL     OW17050   6.021   0.595   5.466  0.1744  0.3052 -0.1974
 5384SOL    HW117051   6.039   0.579   5.563  0.0342  1.4945  0.0419
 5384SOL    HW217052   5.935   0.550   5.440  1.1567 -1.6409 -0.2686
 5385SOL     OW17053   3.470   4.086   5.465 -0.1042  0.0932  0.4260
 5385SOL    HW117054   3.459   4.145   5.385  3.2703  1.5139  0.8797
 5385SOL    HW217055   3.466   4.140   5.548  0.3354 -0.7605  1.0181
 5386SOL     OW17056   5.711   1.494   5.103  0.2186  0.0790 -0.2078
 5386SOL    HW117057   5.806   1.525   5.096  0.5012 -0.9032 -0.8857
 5386SOL    HW217058   5.675   1.518   5.193  1.4347 -0.3849  0.4321
 5387SOL     OW17059   2.505   6.048   2.911 -0.2878 -0.1546 -0.0013
 5387SOL    HW117060   2.557   6.014   2.989 -0.7002 -0.9142 -0.0462
 5387SOL    HW217061   2.496   5.976   2.842 -1.8950 -0.2635  0.2667
 5388SOL     OW17062   7.001   0.003   5.054 -0.4421 -0.0979 -0.0159
 5388SOL    HW117063   7.024   0.072   4.985 -0.0099  0.3752  0.5942
 5388SOL    HW217064   6.992  -0.086   5.010  2.5233 -0.3458 -0.3619
 5389SOL     OW17065   6.328   0.359   3.628  0.1274  0.0088  0.7069
 5389SOL    HW117066   6.361   0.453   3.618 -0.3386  0.0002 -1.3355
 5389SOL    HW217067   6.279   0.351   3.715 -0.4943  1.8804  0.5862
 5390SOL     OW17068   4.251   5.159   2.140 -0.5808 -0.1671  0.2532
 5390SOL    HW117069   4.259   5.190   2.045 -1.7588  0.1369  0.2382
 5390SOL    HW217070   4.189   5.219   2.190  0.2536 -0.1531  1.3072
 5391SOL     OW17071   2.799   1.397   0.475 -0.1955  0.3084  0.3421
 5391SOL    HW117072   2.749   1.456   0.412  0.5712  1.5797  0.9022
 5391SOL    HW217073   2.806   1.305   0.436  0.1962  1.0388 -1.3831
 5392SOL     OW17074   4.500   4.598   0.983 -0.2218 -1.2822  0.8784
 5392SOL    HW117075   4.454   4.514   1.012 -1.9140 -0.5892  0.3218
 5392SOL    HW217076   4.440   4.676   0.999  1.0381 -0.2410  0.7173
 5393SOL     OW17077   3.730   5.760   6.828 -0.4525 -0.5591 -0.2047
 5393SOL    HW117078   3.699   5.684   6.772 -0.9921 -0.4282 -0.0946
 5393SOL    HW217079   3.701   5.846   6.786  0.3174 -0.4038 -0.4291
 5394SOL     OW17080   4.851   5.942   5.906 -0.2139 -0.3138  0.3956
 5394SOL    HW117081   4.831   5.864   5.966  0.6872 -1.4803 -0.7730
 5394SOL    HW217082   4.845   5.913   5.810  1.0396  0.8238 -0.0563
 5395SOL     OW17083   6.277   1.882   2.885  0.4459 -0.6821 -0.4098
 5395SOL    HW117084   6.352   1.945   2.906  0.7722 -1.2946  0.3257
 5395SOL    HW217085   6.189   1.928   2.900  0.6444  0.2351 -1.8632
 5396SOL     OW17086   3.970   4.325   1.624 -0.0210 -0.2988  0.0260
 5396SOL    HW117087   4.001   4.416   1.650 -0.8743  0.5991 -1.8815
 5396SOL    HW217088   4.046   4.260   1.634  0.4580  0.4747  1.8945
 5397SOL     OW17089   0.248   4.140   6.799  0.5408  0.4538 -0.1471
 5397SOL    HW117090   0.215   4.057   6.755  0.6955 -0.3475  1.1828
 5397SOL    HW217091   0.346   4.131   6.817  0.4274  0.6376  0.6035
 5398SOL     OW17092   3.426   1.793   4.021 -1.0970 -0.6467  0.0778
 5398SOL    HW117093   3.361   1.869   4.019 -0.9076 -0.4498 -2.8521
 5398SOL    HW217094   3.519   1.828   4.025 -1.0342 -0.7023 -0.6450
 5399SOL     OW17095   3.298   3.764   5.748  0.0943  0.1338  0.3012
 5399SOL    HW117096   3.305   3.766   5.648  2.2928  0.6195  0.4146
 5399SOL    HW217097   3.249   3.846   5.780  2.0996  1.6259 -0.2654
 5400SOL     OW17098   3.813   5.071   6.488 -0.8309  0.0676 -0.6313
 5400SOL    HW117099   3.796   5.157   6.439 -0.2370 -1.2032 -3.1887
 5400SOL    HW217100   3.821   4.996   6.423  0.3109 -1.7057  1.4283
 5401SOL     OW17101   6.114   5.409   1.121  0.4005 -0.1446 -0.0509
 5401SOL    HW117102   6.085   5.314   1.106 -0.7206 -0.0212  1.1468
 5401SOL    HW217103   6.178   5.413   1.197  2.2218 -0.1782 -1.5155
 5402SOL     OW17104   1.622   4.808   1.739 -0.0737  0.1176  0.1526
 5402SOL    HW117105   1.543   4.829   1.796  0.2942  1.0186  0.3368
 5402SOL    HW217106   1.653   4.890   1.691  1.0198 -0.1103  0.4325
 5403SOL     OW17107   6.499   2.540   6.433 -0.0790 -0.3270  0.4792
 5403SOL    HW117108   6.412   2.568   6.392 -0.2465 -0.8249  0.4918
 5403SOL    HW217109   6.520   2.600   6.510 -0.8053 -0.6800  0.9671
 5404SOL     OW17110   6.188   0.640   1.832  0.0560  0.0948 -0.5455
 5404SOL    HW117111   6.097   0.649   1.789 -0.1557  1.5513  0.1268
 5404SOL    HW217112   6.246   0.716   1.801  1.2253 -1.0851 -1.3318
 5405SOL     OW17113   1.205   6.283   6.879  0.3556 -0.4400  0.4380
 5405SOL    HW117114   1.206   6.183   6.890 -0.8229 -0.4484  0.5373
 5405SOL    HW217115   1.193   6.305   6.782  0.1815 -0.3880  0.4724
 5406SOL     OW17116   2.482   0.320   5.898  0.2141 -0.1558  1.0047
 5406SOL    HW117117   2.423   0.311   5.979  2.1531  1.2801  2.7028
 5406SOL    HW217118   2.577   0.332   5.928  0.8121  2.0286 -1.4056
 5407SOL     OW17119   3.659   1.129   0.597 -0.0067 -0.9684  0.0367
 5407SOL    HW117120   3.650   1.052   0.534  0.7233 -0.7840 -0.2926
 5407SOL    HW217121   3.755   1.156   0.604 -0.2942  0.1288 -0.1033
 5408SOL     OW17122   4.516   0.767   5.118  0.5500  0.2684 -0.0399
 5408SOL    HW117123   4.488   0.821   5.197 -1.1268 -0.7167  0.0889
 5408SOL    HW217124   4.535   0.827   5.041  4.0555  1.4257  1.5294
 5409SOL     OW17125   6.016   1.989   2.861 -0.5889 -0.1063  0.1807
 5409SOL    HW117126   5.977   1.897   2.853  0.9067 -0.7141 -0.7054
 5409SOL    HW217127   5.947   2.052   2.896 -1.5549 -1.6322  1.1550
 5410SOL     OW17128   1.212   2.733   5.883  0.2126 -0.4876 -0.3532
 5410SOL    HW117129   1.169   2.787   5.811  1.4960 -0.2781 -0.9985
 5410SOL    HW217130   1.221   2.638   5.853 -1.0643 -0.8594  0.3553
 5411SOL     OW17131   4.750   5.043   3.937  0.1981  0.2965  0.5532
 5411SOL    HW117132   4.675   5.086   3.986  1.4297  1.0717  1.8317
 5411SOL    HW217133   4.818   5.010   4.002  0.7064 -0.9380 -0.5428
 5412SOL     OW17134   5.396   0.850   1.081 -0.1786 -0.0185 -0.2908
 5412SOL    HW117135   5.484   0.828   1.038  0.3689  0.0007  0.7828
 5412SOL    HW217136   5.396   0.818   1.176 -2.0575 -1.7222 -0.8014
 5413SOL     OW17137   0.262   5.409   1.144 -0.5706 -0.0669 -0.7452
 5413SOL    HW117138   0.211   5.421   1.059  1.3718  0.7242 -1.8518
 5413SOL    HW217139   0.325   5.486   1.157  1.0919 -1.4813  0.0104
 5414SOL     OW17140   1.418   2.175   4.892  0.0833  0.5244  0.3680
 5414SOL    HW117141   1.487   2.248   4.890  0.8041 -0.1144  0.9351
 5414SOL    HW217142   1.447   2.101   4.831  0.5248 -0.2730  1.5096
 5415SOL     OW17143   1.986   6.429   1.301 -0.3604  0.2644 -0.0077
 5415SOL    HW117144   2.016   6.383   1.217 -0.5488  3.7822 -2.2138
 5415SOL    HW217145   1.899   6.390   1.331 -0.6865 -0.6209 -1.9303
 5416SOL     OW17146   4.078   5.181   5.753  0.5120  0.2151 -0.0865
 5416SOL    HW117147   4.011   5.187   5.827  0.0626 -2.2073 -0.2406
 5416SOL    HW217148   4.036   5.213   5.668 -0.4929 -1.2449 -0.1735
 5417SOL     OW17149   2.801   1.175   4.599  0.5875  0.2932 -0.0051
 5417SOL    HW117150   2.869   1.102   4.591 -1.2862 -1.8946  2.3752
 5417SOL    HW217151   2.735   1.167   4.524  0.1236 -0.8356  0.5003
 5418SOL     OW17152   5.040   1.466   3.822 -0.0856  0.9348 -0.2106
 5418SOL    HW117153   5.041   1.548   3.765 -0.3358 -0.2714 -2.0063
 5418SOL    HW217154   4.951   1.457   3.867 -0.4512  1.0412 -0.9159
 5419SOL     OW17155   2.334   3.940   0.787  0.0256  0.6456  0.6690
 5419SOL    HW117156   2.345   4.032   0.749  1.2686  0.0244 -0.6035
 5419SOL    HW217157   2.333   3.945   0.887 -0.4133  2.0722  0.6171
 5420SOL     OW17158   1.922   3.752   1.594 -0.4126  0.4915  0.2160
 5420SOL    HW117159   1.957   3.832   1.643 -0.6011  0.3075  0.6528
 5420SOL    HW217160   1.887   3.685   1.659  1.0884 -0.5952 -0.0344
 5421SOL     OW17161   1.757   4.005   2.562 -0.0799  0.0170  0.1384
 5421SOL    HW117162   1.797   3.965   2.479 -0.0318  0.2615  0.0437
 5421SOL    HW217163   1.755   3.936   2.634  1.3044  0.2288  0.4055
 5422SOL     OW17164   0.853   0.117   6.962  0.0600  0.0896  0.1519
 5422SOL    HW117165   0.870   0.035   7.017 -0.8009 -0.2924 -0.1269
 5422SOL    HW217166   0.763   0.109   6.919  0.6188  0.4868 -1.1195
 5423SOL     OW17167   4.997   3.961   0.315  0.3392  0.1634  0.2085
 5423SOL    HW117168   5.067   3.926   0.252  0.6269 -0.0198  0.6275
 5423SOL    HW217169   4.964   3.887   0.374 -0.3951  0.1900 -0.1527
 5424SOL     OW17170   4.771   4.638   2.951  0.2221 -0.0582  0.3545
 5424SOL    HW117171   4.813   4.549   2.971  3.1091  1.3300  0.9389
 5424SOL    HW217172   4.745   4.640   2.854  2.4164 -0.7451 -0.3250
 5425SOL     OW17173   2.151   1.821   3.881 -0.4319  0.3017 -0.3352
 5425SOL    HW117174   2.222   1.823   3.952 -0.3822 -1.5066 -0.2771
 5425SOL    HW217175   2.077   1.884   3.905  0.4899  1.1489  0.3286
 5426SOL     OW17176   6.981   5.497   2.298 -0.5591 -0.2513  0.0317
 5426SOL    HW117177   7.068   5.536   2.330 -0.3855 -0.3122 -0.3706
 5426SOL    HW217178   6.998   5.433   2.223 -0.9454 -0.3196  0.0002
 5427SOL     OW17179   4.071   3.013   0.929 -0.1106 -0.5107  0.8767
 5427SOL    HW117180   4.152   3.064   0.961 -0.5235  0.0601  1.0216
 5427SOL    HW217181   4.098   2.951   0.855 -0.0108  1.6385 -0.9768
 5428SOL     OW17182   0.362   0.878   3.260 -0.4612  0.2469 -0.2123
 5428SOL    HW117183   0.381   0.784   3.287 -0.4470  0.1316 -0.6206
 5428SOL    HW217184   0.268   0.902   3.288 -1.0125 -0.3968 -1.4604
 5429SOL     OW17185   1.147   0.080   5.378  0.0729  0.4409  0.2038
 5429SOL    HW117186   1.236   0.127   5.377  2.5502 -3.8037 -0.2849
 5429SOL    HW217187   1.102   0.092   5.290  0.8775  1.3354 -0.1071
 5430SOL     OW17188   3.309   2.197   5.554  0.4099  0.0835 -0.2732
 5430SOL    HW117189   3.406   2.190   5.578  1.2095  0.5324 -2.9771
 5430SOL    HW217190   3.297   2.170   5.458 -1.8806  1.5982 -0.4890
 5431SOL     OW17191   4.170   4.167   1.183  0.2136 -0.7030  0.5358
 5431SOL    HW117192   4.099   4.100   1.203 -0.8103 -0.0424 -0.7852
 5431SOL    HW217193   4.138   4.259   1.207  0.9040 -0.4707  0.6135
 5432SOL     OW17194   3.519   6.476   0.123 -0.1211  0.3092  0.3815
 5432SOL    HW117195   3.596   6.417   0.149  0.1627  1.0512  1.2826
 5432SOL    HW217196   3.483   6.447   0.035 -0.5062 -1.7345  1.1551
 5433SOL     OW17197   6.241   1.447   2.349  0.4117 -0.0193 -0.2845
 5433SOL    HW117198   6.152   1.411   2.376  0.4923 -0.2375 -0.3070
 5433SOL    HW217199   6.275   1.395   2.271  0.6040 -0.0030 -0.2117
 5434SOL     OW17200   3.843   0.907   6.602 -0.1758 -0.1964  0.0647
 5434SOL    HW117201   3.930   0.905   6.553 -0.0029  0.4064  0.3377
 5434SOL    HW217202   3.782   0.974   6.559 -0.4116 -0.4328  0.0294
 5435SOL     OW17203   6.022   1.675   0.418 -0.5337 -0.2862 -0.2416
 5435SOL    HW117204   5.932   1.675   0.375 -1.0484  1.0523  0.7453
 5435SOL    HW217205   6.052   1.581   0.433 -0.5363 -0.7999 -2.9905
 5436SOL     OW17206   4.194   6.313   4.264 -0.1613 -0.6596 -0.0923
 5436SOL    HW117207   4.130   6.259   4.209  0.0741 -1.5701  0.5046
 5436SOL    HW217208   4.279   6.325   4.213 -0.5468 -0.0531 -0.6004
 5437SOL     OW17209   2.314   4.220   5.922 -0.0259 -0.1426 -0.7775
 5437SOL    HW117210   2.265   4.140   5.886  0.0504  0.2565 -1.7999
 5437SOL    HW217211   2.364   4.264   5.848  2.2522 -0.7719  0.2957
 5438SOL     OW17212   6.467   3.122   3.003 -0.0150 -0.0452 -0.5494
 5438SOL    HW117213   6.483   3.117   3.101  2.9507  1.8856 -0.8006
 5438SOL    HW217214   6.547   3.162   2.958 -1.3297 -0.6850 -3.7670
 5439SOL     OW17215   6.301   1.566   0.140 -0.4088  0.0758  0.0631
 5439SOL    HW117216   6.332   1.561   0.235  1.1991 -0.7192 -0.4692
 5439SOL    HW217217   6.379   1.581   0.080 -1.0403 -1.8369 -1.3444
 5440SOL     OW17218   0.982   6.753   2.114  0.5355 -0.3322  0.0515
 5440SOL    HW117219   0.979   6.655   2.137  2.7549 -1.4006 -3.4453
 5440SOL    HW217220   1.064   6.772   2.060 -1.1618  2.9432 -1.6537
 5441SOL     OW17221   5.190   3.523   4.727  0.0562  0.2212  0.1569
 5441SOL    HW117222   5.109   3.557   4.772  0.1952  0.6426  0.0908
 5441SOL    HW217223   5.185   3.543   4.629 -0.4540 -1.0855 -0.0999
 5442SOL     OW17224   3.902   6.090   2.927 -0.3633  0.0501  0.7482
 5442SOL    HW117225   3.858   6.178   2.911 -1.0659 -0.0866  1.8392
 5442SOL    HW217226   3.833   6.022   2.953  0.1313 -0.9029 -0.3125
 5443SOL     OW17227   2.481   5.783   3.368  0.2549 -0.1593  0.4830
 5443SOL    HW117228   2.531   5.848   3.311 -1.2588 -0.2117 -0.9677
 5443SOL    HW217229   2.541   5.708   3.393  0.8758 -0.3454 -1.4024
 5444SOL     OW17230   6.074   2.240   2.394 -0.0427 -0.1356  0.0784
 5444SOL    HW117231   6.155   2.299   2.395 -1.5968  2.1607  1.7152
 5444SOL    HW217232   6.062   2.200   2.485 -1.9379  1.4661  0.6120
 5445SOL     OW17233   6.302   6.219   4.045  0.7423  0.2562  0.6344
 5445SOL    HW117234   6.390   6.218   3.997  1.0072  1.9720  0.9781
 5445SOL    HW217235   6.253   6.303   4.022 -0.3747 -0.2173  1.2155
 5446SOL     OW17236   5.899   3.505   5.227 -0.0202 -0.5042  0.3988
 5446SOL    HW117237   5.992   3.480   5.201 -0.6557 -0.7757 -1.8316
 5446SOL    HW217238   5.902   3.582   5.291  1.7253 -0.4229  0.2603
 5447SOL     OW17239   1.182   1.658   6.689  0.2409  0.0384 -0.7117
 5447SOL    HW117240   1.211   1.584   6.628 -2.5753  0.8835 -3.2655
 5447SOL    HW217241   1.243   1.736   6.677  2.2963 -1.2048  0.8705
 5448SOL     OW17242   0.651   5.033   4.531 -0.4208 -0.1577 -0.4438
 5448SOL    HW117243   0.736   4.998   4.493  0.4679 -1.3123  2.3131
 5448SOL    HW217244   0.581   4.961   4.527 -0.2757 -0.3402  0.1860
 5449SOL     OW17245   1.772   2.023   0.788  0.3423 -0.0359  0.5856
 5449SOL    HW117246   1.852   2.080   0.804 -0.0143  0.6845 -0.1255
 5449SOL    HW217247   1.789   1.961   0.712  0.0416  0.5058  0.0670
 5450SOL     OW17248   4.007   1.303   2.922 -0.3204 -1.0020 -0.5846
 5450SOL    HW117249   4.028   1.363   2.844 -1.4035 -2.2984 -1.9482
 5450SOL    HW217250   3.911   1.276   2.917 -0.3001 -1.4357  1.0147
 5451SOL     OW17251   1.879   0.627   1.684  0.4786  0.5674  0.3491
 5451SOL    HW117252   1.832   0.714   1.670  0.7387  0.4175 -1.8761
 5451SOL    HW217253   1.876   0.573   1.599  2.8922 -0.3021  0.7307
 5452SOL     OW17254   0.269   6.304   6.627 -0.1901  0.2023  0.1985
 5452SOL    HW117255   0.331   6.250   6.684  0.8995  0.2364 -0.9029
 5452SOL    HW217256   0.321   6.375   6.579 -1.1142  0.3532 -0.6189
 5453SOL     OW17257   5.911   2.782   0.839  0.4941 -0.8652 -0.3031
 5453SOL    HW117258   5.984   2.725   0.803  1.0561 -1.7691  2.0698
 5453SOL    HW217259   5.876   2.742   0.924 -2.6397 -0.3490 -1.1984
 5454SOL     OW17260   5.152   3.729   5.002 -0.2156  0.4063 -0.2881
 5454SOL    HW117261   5.096   3.699   4.924  0.3452  0.6338 -0.7885
 5454SOL    HW217262   5.244   3.691   4.993  0.7102  2.6905 -1.2675
 5455SOL     OW17263   6.057   3.963   2.716  0.3807 -0.1230  0.3167
 5455SOL    HW117264   5.961   3.942   2.695  0.3962 -0.4828  0.5931
 5455SOL    HW217265   6.089   3.902   2.788  1.2551 -1.0305 -0.7891
 5456SOL     OW17266   2.733   1.259   2.026 -0.0067 -0.0222 -0.0169
 5456SOL    HW117267   2.700   1.299   1.940  1.9477  0.5976 -0.5309
 5456SOL    HW217268   2.810   1.199   2.008  2.5103  2.4888  1.4673
 5457SOL     OW17269   6.796   3.346   6.566 -0.1345 -0.1256 -0.0495
 5457SOL    HW117270   6.752   3.435   6.555 -1.1733 -0.7943 -1.7720
 5457SOL    HW217271   6.883   3.345   6.517 -0.8672 -0.5061 -1.4037
 5458SOL     OW17272   0.369   4.850   0.342 -0.3280  0.0074  0.3908
 5458SOL    HW117273   0.364   4.944   0.308 -1.4011 -0.2031 -0.0542
 5458SOL    HW217274   0.415   4.850   0.431 -0.0220  0.9100  0.2465
 5459SOL     OW17275   2.180   2.544   1.255 -0.0673  0.2833  0.6235
 5459SOL    HW117276   2.197   2.634   1.295  1.6491  0.9790 -1.5117
 5459SOL    HW217277   2.235   2.476   1.304  0.5270  0.7983  0.6899
 5460SOL     OW17278   6.114   1.056   3.388 -0.8654 -0.4681  0.5084
 5460SOL    HW117279   6.129   1.008   3.474 -1.0125  0.2777  0.9568
 5460SOL    HW217280   6.173   1.016   3.317  1.0445  0.4299  1.5187
 5461SOL     OW17281   0.340   0.437   6.641  0.3233  0.5643  0.1638
 5461SOL    HW117282   0.287   0.477   6.716 -0.5999  1.8286 -1.1071
 5461SOL    HW217283   0.419   0.495   6.622  0.4009  0.3995 -0.0127
 5462SOL     OW17284   5.435   5.706   1.213  0.4588  0.0599  0.2962
 5462SOL    HW117285   5.429   5.661   1.124 -1.9072 -3.0912  1.8838
 5462SOL    HW217286   5.352   5.759   1.230  0.1321 -0.7196  1.2503
 5463SOL     OW17287   5.595   2.600   2.123 -0.2587  0.2367  0.1223
 5463SOL    HW117288   5.579   2.524   2.187  0.4062 -0.4526 -0.5200
 5463SOL    HW217289   5.685   2.639   2.140 -0.4587  0.6674  0.2152
 5464SOL     OW17290   6.789   0.684   4.382 -0.6405  0.2464  0.1923
 5464SOL    HW117291   6.756   0.590   4.386  0.3348 -0.1615 -0.9046
 5464SOL    HW217292   6.716   0.743   4.348 -0.8839 -0.3185 -0.2799
 5465SOL     OW17293   3.058   6.912   3.638 -0.5394 -0.5241 -0.1491
 5465SOL    HW117294   3.042   6.854   3.719  0.1472  2.2177  2.0892
 5465SOL    HW217295   3.122   6.985   3.662  1.1787 -0.6679 -3.7722
 5466SOL     OW17296   6.503   3.047   4.580 -0.2231  0.3171 -0.6782
 5466SOL    HW117297   6.422   3.097   4.609  0.4784  1.2001 -0.1962
 5466SOL    HW217298   6.501   2.955   4.621 -0.7432  0.5003 -0.2761
 5467SOL     OW17299   2.876   5.627   4.798 -0.6103 -0.2180 -0.0480
 5467SOL    HW117300   2.946   5.593   4.735  0.5145 -0.0705  1.0954
 5467SOL    HW217301   2.862   5.725   4.782  0.3343  0.0139  0.5475
 5468SOL     OW17302   6.018   2.354   3.978 -0.4700 -0.0546 -1.0827
 5468SOL    HW117303   5.956   2.358   3.900 -1.9334  0.0524  0.0562
 5468SOL    HW217304   5.982   2.292   4.047  0.3803  0.4820 -0.1204
 5469SOL     OW17305   0.487   6.094   4.593  0.4111 -0.7342 -0.2353
 5469SOL    HW117306   0.583   6.115   4.612  0.5480 -0.5099 -1.1450
 5469SOL    HW217307   0.442   6.174   4.554  0.4162 -1.4758 -1.8217
 5470SOL     OW17308   5.570   4.911   3.768 -0.3774  0.3663  0.3030
 5470SOL    HW117309   5.613   4.826   3.738 -0.1567  0.4922  0.2596
 5470SOL    HW217310   5.598   4.931   3.862 -0.3608  0.4335  0.2840
 5471SOL     OW17311   6.446   5.942   2.735 -0.3393 -0.2002  0.2256
 5471SOL    HW117312   6.448   5.846   2.707  0.3353 -0.5922  1.5180
 5471SOL    HW217313   6.357   5.963   2.776 -0.8489  0.0134 -0.9719
 5472SOL     OW17314   1.880   2.457   6.496 -0.1251 -0.5720  0.2870
 5472SOL    HW117315   1.858   2.360   6.506 -2.2127 -0.2912 -1.1247
 5472SOL    HW217316   1.966   2.467   6.446 -1.5145 -1.7637 -2.5681
 5473SOL     OW17317   0.146   4.487   1.652 -0.4404 -0.2387  1.2092
 5473SOL    HW117318   0.101   4.573   1.627  2.2222  0.4858 -1.7491
 5473SOL    HW217319   0.196   4.500   1.738  1.4909  1.9360 -0.1238
 5474SOL     OW17320   2.229   5.166   4.937 -0.0855  0.0156 -0.4508
 5474SOL    HW117321   2.286   5.123   5.007 -2.5769  0.2393  1.8785
 5474SOL    HW217322   2.152   5.107   4.915 -0.5614  0.9296 -1.3332
 5475SOL     OW17323   1.754   3.536   6.962 -0.1284  0.0882 -0.0896
 5475SOL    HW117324   1.770   3.458   6.902 -1.4020  0.9194 -1.5964
 5475SOL    HW217325   1.786   3.515   7.054 -0.5432 -2.2484 -0.4218
 5476SOL     OW17326   2.560   4.676   5.676 -0.0403  0.4976 -0.4281
 5476SOL    HW117327   2.620   4.598   5.657 -0.1470 -0.0215  1.2135
 5476SOL    HW217328   2.468   4.644   5.698 -0.2608  1.1347 -0.3837
 5477SOL     OW17329   1.218   3.019   1.248  0.7037 -0.7046  0.4524
 5477SOL    HW117330   1.199   3.005   1.346 -0.2430  0.3869  0.4525
 5477SOL    HW217331   1.210   2.932   1.200 -2.7647 -0.6967  0.7585
 5478SOL     OW17332   2.855   4.813   4.933 -0.2535  0.3639 -0.4275
 5478SOL    HW117333   2.862   4.728   4.986  0.4445  0.5317 -0.2310
 5478SOL    HW217334   2.812   4.794   4.845 -1.3763  0.0704  0.1641
 5479SOL     OW17335   5.327   0.403   6.551 -0.0539  0.0278  0.1607
 5479SOL    HW117336   5.384   0.385   6.631  0.2478  1.5775  0.3193
 5479SOL    HW217337   5.257   0.471   6.574 -0.2774  0.1255 -0.7641
 5480SOL     OW17338   5.648   4.665   3.708 -0.1081  0.2410 -1.0733
 5480SOL    HW117339   5.738   4.623   3.702 -0.2319 -0.3771  0.7711
 5480SOL    HW217340   5.598   4.626   3.785 -1.6628  1.1365 -1.5849
 5481SOL     OW17341   4.777   0.269   5.186 -0.4883 -0.2509  0.2529
 5481SOL    HW117342   4.738   0.177   5.191 -1.5499  0.1405 -0.4342
 5481SOL    HW217343   4.877   0.263   5.185 -0.5449 -1.4121 -0.0637
 5482SOL     OW17344   1.938   4.836   2.106 -0.2812  0.0285  0.0125
 5482SOL    HW117345   1.948   4.933   2.128  2.1384  0.2397 -1.5948
 5482SOL    HW217346   1.894   4.789   2.182  0.7382  1.9649  1.9181
 5483SOL     OW17347   1.182   3.593   4.660  0.6516  0.3326 -0.1035
 5483SOL    HW117348   1.151   3.663   4.595  0.7353  1.1038  0.6614
 5483SOL    HW217349   1.219   3.638   4.741  2.9065 -0.5717 -0.5576
 5484SOL     OW17350   5.692   0.174   5.048  0.1988  0.6206  0.1431
 5484SOL    HW117351   5.612   0.171   4.989 -0.4443  0.0055  1.0058
 5484SOL    HW217352   5.745   0.089   5.037 -0.0995  0.3607  0.6715
 5485SOL     OW17353   4.693   6.060   1.853  0.2651 -0.7100  0.0825
 5485SOL    HW117354   4.793   6.051   1.853  0.2704 -0.8916 -1.0711
 5485SOL    HW217355   4.654   6.003   1.925  0.9585 -1.1522  0.1139
 5486SOL     OW17356   2.517   5.952   4.340 -0.6465  0.5452  1.0332
 5486SOL    HW117357   2.527   6.046   4.373  0.4523  0.1530  1.8692
 5486SOL    HW217358   2.475   5.896   4.411 -0.1431  0.1407  1.0191
 5487SOL     OW17359   5.511   4.027   5.949  0.2157  0.4872 -0.0707
 5487SOL    HW117360   5.544   4.109   5.994  1.3630 -0.7805  1.5417
 5487SOL    HW217361   5.462   3.970   6.016  1.2207 -1.0627 -0.5805
 5488SOL     OW17362   0.125   0.871   6.521  0.3064 -0.6084  0.0762
 5488SOL    HW117363   0.051   0.830   6.574  0.4350 -0.2098  0.5758
 5488SOL    HW217364   0.123   0.835   6.428  0.1106 -1.3641  0.3632
 5489SOL     OW17365   5.799   5.528   1.901 -0.5690 -0.4457 -0.2046
 5489SOL    HW117366   5.794   5.619   1.942 -0.8328  0.8061 -2.7918
 5489SOL    HW217367   5.891   5.513   1.864 -1.6564  0.8190 -3.8497
 5490SOL     OW17368   5.861   6.226   2.973  0.4513 -0.0531  0.3524
 5490SOL    HW117369   5.790   6.156   2.975 -0.0854  0.4918  1.5027
 5490SOL    HW217370   5.844   6.288   2.897  1.1949 -1.4028 -0.9644
 5491SOL     OW17371   0.517   1.894   5.651 -0.6676 -0.1023  0.4715
 5491SOL    HW117372   0.568   1.861   5.731 -1.7246 -0.3412  1.0651
 5491SOL    HW217373   0.421   1.867   5.660 -0.6824 -0.6822 -1.1878
 5492SOL     OW17374   6.134   2.056   4.422  0.5239 -0.1157 -0.2510
 5492SOL    HW117375   6.163   2.020   4.510 -1.5702  1.1462  1.0254
 5492SOL    HW217376   6.036   2.078   4.424  0.9888  2.7088 -1.8790
 5493SOL     OW17377   3.751   3.038   4.153 -0.9371  0.4508 -0.3113
 5493SOL    HW117378   3.679   2.981   4.115 -0.6060  0.5136 -1.0504
 5493SOL    HW217379   3.817   3.062   4.081 -1.0454  1.7315 -0.0175
 5494SOL     OW17380   1.570   2.825   6.985  0.2859 -0.4451 -0.4640
 5494SOL    HW117381   1.651   2.872   6.951 -0.3087 -0.9103 -2.6470
 5494SOL    HW217382   1.597   2.739   7.028  1.0566  0.1333  0.2319
 5495SOL     OW17383   4.963   2.790   6.951 -0.1559  0.3523 -0.7439
 5495SOL    HW117384   4.967   2.801   7.050  0.8481  1.6793 -0.9068
 5495SOL    HW217385   4.954   2.879   6.908  0.0556 -0.1536 -1.8807
 5496SOL     OW17386   4.204   0.201   4.783 -0.2687  0.3136 -0.3033
 5496SOL    HW117387   4.300   0.223   4.797 -0.3422  0.6444 -0.3049
 5496SOL    HW217388   4.182   0.205   4.685  0.2055 -1.8310 -0.5609
 5497SOL     OW17389   0.210   6.839   4.691 -0.1400 -0.2422  0.6451
 5497SOL    HW117390   0.257   6.925   4.708 -1.9794  0.7450  0.9375
 5497SOL    HW217391   0.277   6.769   4.664  1.5503  0.8749  1.7882
 5498SOL     OW17392   6.864   5.107   3.154 -0.1943  0.5122  0.1564
 5498SOL    HW117393   6.924   5.028   3.150 -1.6474 -0.6090 -0.7325
 5498SOL    HW217394   6.878   5.164   3.073 -0.9620 -0.2588 -0.5359
 5499SOL     OW17395   5.342   0.237   5.181  0.4163  0.0756 -0.3615
 5499SOL    HW117396   5.318   0.304   5.111  2.4142  1.5229  0.2500
 5499SOL    HW217397   5.421   0.269   5.232 -1.2689 -0.6516  2.9778
 5500SOL     OW17398   0.049   1.695   0.336 -0.0228 -0.2412 -0.2469
 5500SOL    HW117399   0.099   1.615   0.369  1.1388  0.4141 -0.4046
 5500SOL    HW217400  -0.038   1.664   0.295 -0.2435 -1.2856  0.9443
 5501SOL     OW17401   3.806   2.056   4.704  0.3817 -0.0241  0.1211
 5501SOL    HW117402   3.828   2.144   4.663  0.8921  0.1181  0.6952
 5501SOL    HW217403   3.734   2.068   4.773  0.9768  0.0749  0.7380
 5502SOL     OW17404   5.206   3.600   0.340 -0.3722 -0.3288  0.3327
 5502SOL    HW117405   5.207   3.519   0.282  0.9603 -0.4826  0.5385
 5502SOL    HW217406   5.202   3.682   0.284  0.8352 -0.4780  0.0086
 5503SOL     OW17407   0.960   5.011   3.485  0.1678 -0.8235 -0.0154
 5503SOL    HW117408   0.949   5.010   3.386 -0.7755 -2.7219  0.0619
 5503SOL    HW217409   0.885   5.063   3.527  2.1214  2.5565 -0.3450
 5504SOL     OW17410   6.362   3.281   5.317  0.4807 -0.2502 -0.1123
 5504SOL    HW117411   6.363   3.190   5.275  1.8731 -0.6495  0.7122
 5504SOL    HW217412   6.421   3.281   5.398  0.0519  1.2446  0.2346
 5505SOL     OW17413   2.793   4.715   3.965  0.3131  0.0171  0.2372
 5505SOL    HW117414   2.793   4.680   4.058  1.1160  0.0630  0.2625
 5505SOL    HW217415   2.747   4.803   3.961 -0.5281 -0.4076  0.4211
 5506SOL     OW17416   6.935   4.392   0.004 -0.3175 -0.3865 -0.3798
 5506SOL    HW117417   6.937   4.492   0.006 -0.5318 -0.3723 -0.8327
 5506SOL    HW217418   6.840   4.361  -0.005 -0.2941 -0.6425  0.2045
 5507SOL     OW17419   6.046   5.307   0.692  0.5133  0.1005  0.0141
 5507SOL    HW117420   6.130   5.264   0.658  0.9729  0.9989 -0.0338
 5507SOL    HW217421   6.037   5.398   0.650 -0.6850 -0.1362 -0.2629
 5508SOL     OW17422   2.613   1.769   5.676  0.2438  0.1984 -0.3581
 5508SOL    HW117423   2.631   1.675   5.706  0.4922  0.0865 -0.8537
 5508SOL    HW217424   2.652   1.833   5.743  2.2691 -0.0392 -1.2379
 5509SOL     OW17425   0.774   6.061   5.664 -0.3493  0.5463  0.0710
 5509SOL    HW117426   0.674   6.056   5.661 -0.3295  0.4189 -1.0739
 5509SOL    HW217427   0.801   6.154   5.690 -0.8618  2.5085 -5.1149
 5510SOL     OW17428   4.884   5.801   0.829  0.2317 -0.1774 -0.7469
 5510SOL    HW117429   4.972   5.812   0.782  0.1166  0.0217 -0.9193
 5510SOL    HW217430   4.824   5.877   0.805  0.3033  0.1395  0.0201
 5511SOL     OW17431   6.868   0.362   4.745  0.7672 -0.1159  0.4355
 5511SOL    HW117432   6.941   0.315   4.794 -0.9399 -1.1280  2.1578
 5511SOL    HW217433   6.788   0.371   4.805 -0.5304  0.9740 -1.3492
 5512SOL     OW17434   5.998   1.482   5.030 -0.1180 -0.0965  0.8374
 5512SOL    HW117435   6.002   1.389   5.069 -2.7461 -0.0216  1.5098
 5512SOL    HW217436   6.009   1.477   4.931  0.3144 -1.0795  0.9268
 5513SOL     OW17437   3.981   4.125   5.830  0.2044  0.0796 -0.3672
 5513SOL    HW117438   3.939   4.143   5.919  0.8179 -0.9815  0.1499
 5513SOL    HW217439   3.933   4.177   5.760 -1.1209 -0.0787  0.3911
 5514SOL     OW17440   3.176   6.186   4.181 -0.1867 -0.2643  0.0586
 5514SOL    HW117441   3.221   6.123   4.244  0.0076 -0.4879 -0.3015
 5514SOL    HW217442   3.082   6.157   4.166 -0.8969  0.9393  1.8461
 5515SOL     OW17443   1.757   5.626   2.299  0.5797  0.6442 -0.6398
 5515SOL    HW117444   1.797   5.556   2.359 -1.7444 -0.3990 -0.2310
 5515SOL    HW217445   1.787   5.716   2.330  1.1488  0.0131  0.7614
 5516SOL     OW17446   1.769   3.253   5.914 -0.1221 -0.4440 -0.0517
 5516SOL    HW117447   1.854   3.242   5.965 -0.7959  1.0724  1.4998
 5516SOL    HW217448   1.779   3.329   5.849 -0.2264 -0.3699  0.0184
 5517SOL     OW17449   1.810   3.321   1.486  0.1428 -0.6167 -0.3564
 5517SOL    HW117450   1.736   3.351   1.546 -0.4935 -1.5721 -0.6474
 5517SOL    HW217451   1.862   3.249   1.531 -0.1046 -1.0766 -0.8000
 5518SOL     OW17452   4.165   6.473   4.009  0.4693 -0.1177  0.6236
 5518SOL    HW117453   4.201   6.476   4.102  2.4131  1.1838 -0.0846
 5518SOL    HW217454   4.236   6.503   3.945 -1.1593  0.1363 -1.1768
 5519SOL     OW17455   4.696   2.822   3.273  0.3195  0.2242 -0.3161
 5519SOL    HW117456   4.617   2.760   3.269  1.1118 -0.7213 -2.3453
 5519SOL    HW217457   4.703   2.861   3.365 -2.1188 -0.1586  0.0961
 5520SOL     OW17458   5.890   5.271   0.892 -0.0828 -0.4429 -0.1239
 5520SOL    HW117459   5.938   5.266   0.804 -0.8903 -2.6105 -0.5059
 5520SOL    HW217460   5.953   5.245   0.966  0.0039 -0.8635 -0.3403
 5521SOL     OW17461   5.305   4.595   1.287 -0.1035 -0.5226 -0.2518
 5521SOL    HW117462   5.309   4.496   1.275  1.1353 -0.5184 -0.0786
 5521SOL    HW217463   5.228   4.632   1.236  0.5916 -1.3479 -1.9697
 5522SOL     OW17464   5.565   2.906   2.010 -0.5197 -0.1522  0.4898
 5522SOL    HW117465   5.468   2.916   1.987 -0.2811  0.6520 -0.2271
 5522SOL    HW217466   5.579   2.930   2.106 -0.8941  0.5984  0.3606
 5523SOL     OW17467   5.781   0.596   2.812  0.4159  0.5642  0.2416
 5523SOL    HW117468   5.685   0.624   2.807  1.1776  3.3402 -1.7493
 5523SOL    HW217469   5.790   0.518   2.873 -3.0482  0.3287  0.6731
 5524SOL     OW17470   4.330   6.279   3.273  0.6065 -0.4350  0.3536
 5524SOL    HW117471   4.346   6.258   3.176  0.3715 -1.7697  0.5948
 5524SOL    HW217472   4.410   6.250   3.326  0.8425  0.5288  0.5410
 5525SOL     OW17473   6.704   1.538   0.430 -0.4212 -0.4345  0.2633
 5525SOL    HW117474   6.752   1.457   0.394 -0.3110 -0.1568 -0.2344
 5525SOL    HW217475   6.733   1.618   0.378 -0.1601  0.0043  1.0790
 5526SOL     OW17476   6.439   4.423   2.580  0.1991 -0.0305  0.0272
 5526SOL    HW117477   6.356   4.377   2.612  0.0663  0.3575  0.2483
 5526SOL    HW217478   6.493   4.452   2.659  0.8030 -0.7409 -0.1189
 5527SOL     OW17479   5.072   3.310   2.665  0.1652  0.1576 -0.0177
 5527SOL    HW117480   5.009   3.337   2.592 -0.4044  0.4247  0.5625
 5527SOL    HW217481   5.078   3.384   2.732  1.0462  0.1071 -0.0285
 5528SOL     OW17482   0.282   0.695   0.664  0.2706  0.7151  0.5646
 5528SOL    HW117483   0.321   0.638   0.737 -0.5086  0.0887  0.5014
 5528SOL    HW217484   0.308   0.791   0.680  0.6017  0.5079  1.3383
 5529SOL     OW17485   4.108   5.542   6.288  0.0257 -0.6761 -0.8781
 5529SOL    HW117486   4.080   5.638   6.290  1.9199 -0.1028 -0.4578
 5529SOL    HW217487   4.031   5.486   6.258 -1.6656  0.7715  0.5252
 5530SOL     OW17488   5.355   1.418   1.356  0.0879 -0.1924 -0.3064
 5530SOL    HW117489   5.284   1.372   1.303  0.6790 -0.1924 -1.1124
 5530SOL    HW217490   5.323   1.509   1.382  0.1517  0.1918 -1.5158
 5531SOL     OW17491   3.994   3.890   1.230  0.1202  0.1776  0.3655
 5531SOL    HW117492   3.933   3.814   1.206 -0.0371 -0.5741  2.7735
 5531SOL    HW217493   3.997   3.899   1.330  2.4254  1.4676  0.2578
 5532SOL     OW17494   1.711   3.864   1.325 -0.3044 -0.3863 -0.1269
 5532SOL    HW117495   1.680   3.907   1.410 -0.5374 -1.9016  0.5847
 5532SOL    HW217496   1.769   3.928   1.275 -0.9251  0.8721  0.7082
 5533SOL     OW17497   4.325   1.901   2.832  0.3615 -0.0523  0.3707
 5533SOL    HW117498   4.228   1.922   2.846  0.4807  0.8548 -0.0810
 5533SOL    HW217499   4.380   1.979   2.863  0.8388  0.2836 -1.2252
 5534SOL     OW17500   6.924   2.449   6.731 -0.2712 -0.7639  0.7557
 5534SOL    HW117501   6.923   2.450   6.631 -1.9755 -0.6229  0.7541
 5534SOL    HW217502   6.832   2.467   6.766  0.3825 -0.3959  2.3640
 5535SOL     OW17503   1.779   0.786   4.671  0.0182 -0.1359  0.1237
 5535SOL    HW117504   1.683   0.814   4.668 -0.4107 -1.4707 -3.3282
 5535SOL    HW217505   1.800   0.731   4.590  3.4734 -0.7792  1.2908
 5536SOL     OW17506   4.278   0.425   4.045  0.0989 -0.3749 -0.1270
 5536SOL    HW117507   4.345   0.381   3.985 -1.5146 -1.3950 -1.2969
 5536SOL    HW217508   4.292   0.524   4.044  0.5372 -0.4234 -1.7104
 5537SOL     OW17509   4.591   1.667   2.227 -0.6066 -0.2718 -0.2259
 5537SOL    HW117510   4.569   1.729   2.303 -1.6695 -0.9446  0.0485
 5537SOL    HW217511   4.619   1.720   2.147  1.7474  0.4208  0.9656
 5538SOL     OW17512   3.037   5.112   5.304 -0.1174 -0.0977  0.2625
 5538SOL    HW117513   3.017   5.036   5.241 -0.9281 -0.0737  0.4752
 5538SOL    HW217514   3.055   5.195   5.251 -1.5741  0.1097  0.0570
 5539SOL     OW17515   0.729   4.212   0.356 -0.0651  0.3088 -0.2534
 5539SOL    HW117516   0.674   4.284   0.399  0.8968  2.7147 -2.6906
 5539SOL    HW217517   0.675   4.169   0.283 -0.4555 -1.1394  0.8549
 5540SOL     OW17518   4.981   5.211   3.016  0.0511 -0.0722 -0.2564
 5540SOL    HW117519   4.906   5.154   3.051  0.2129 -1.8823 -2.5457
 5540SOL    HW217520   5.023   5.261   3.091 -1.3211 -1.5660  1.6123
 5541SOL     OW17521   5.524   0.215   7.009  0.4676 -0.0777 -0.3492
 5541SOL    HW117522   5.437   0.194   7.054  0.6392  2.3195  1.3212
 5541SOL    HW217523   5.600   0.193   7.070  0.7694  1.9147  0.0890
 5542SOL     OW17524   4.919   2.298   6.232  0.0740 -0.0592 -0.0022
 5542SOL    HW117525   4.967   2.334   6.313  0.6358  0.4739 -0.5614
 5542SOL    HW217526   4.856   2.368   6.197  0.9830  0.3075 -0.9462
 5543SOL     OW17527   4.728   1.705   5.939  0.3452  0.1439 -0.2814
 5543SOL    HW117528   4.669   1.780   5.907 -2.2340 -1.0854  1.2974
 5543SOL    HW217529   4.782   1.736   6.017  0.7716  0.8624 -0.8405
 5544SOL     OW17530   5.780   4.899   6.444  0.2677 -0.0869 -0.1212
 5544SOL    HW117531   5.788   4.893   6.544  0.6322 -0.8479 -0.1886
 5544SOL    HW217532   5.869   4.925   6.406  0.9756 -2.7672 -0.4523
 5545SOL     OW17533   5.992   0.349   2.484  0.9390  0.2587 -0.1076
 5545SOL    HW117534   5.970   0.296   2.402 -0.6496  1.6862 -0.6875
 5545SOL    HW217535   5.995   0.289   2.564 -1.7659 -0.6219 -0.5671
 5546SOL     OW17536   6.874   2.360   4.162 -0.4326  0.0353  0.2147
 5546SOL    HW117537   6.899   2.456   4.148  0.7579 -0.2301  0.4107
 5546SOL    HW217538   6.957   2.304   4.164 -1.2015 -1.3875 -2.6080
 5547SOL     OW17539   2.492   7.003   4.730  0.3721 -0.1319  0.0542
 5547SOL    HW117540   2.536   6.971   4.814  0.9572  0.8165  0.1212
 5547SOL    HW217541   2.521   6.944   4.654  2.3830  0.8743 -0.0368
 5548SOL     OW17542   5.256   3.376   5.126  0.2462 -0.4877 -0.2770
 5548SOL    HW117543   5.316   3.422   5.061  1.6018 -1.1023  0.5178
 5548SOL    HW217544   5.288   3.392   5.219 -1.3181 -0.1348  0.2368
 5549SOL     OW17545   4.311   2.501   6.339 -0.7120 -0.0910 -0.3909
 5549SOL    HW117546   4.384   2.567   6.355  1.6568 -2.8174  1.0699
 5549SOL    HW217547   4.282   2.462   6.427 -1.8082 -1.2064 -1.2087
 5550SOL     OW17548   3.218   6.626   2.465  0.5825 -0.1689 -0.3555
 5550SOL    HW117549   3.125   6.626   2.501  1.6922 -1.6447  2.8341
 5550SOL    HW217550   3.258   6.536   2.474  2.2987  0.3589 -1.9543
 5551SOL     OW17551   2.302   1.642   1.025  0.7211  0.0767 -0.7558
 5551SOL    HW117552   2.282   1.731   0.985  0.4652  0.9814  1.2492
 5551SOL    HW217553   2.289   1.646   1.124 -1.6170 -2.8089 -0.7775
 5552SOL     OW17554   2.149   0.809   5.948  0.6958 -0.0015  1.1678
 5552SOL    HW117555   2.188   0.884   5.895  3.8362 -1.2937  1.4652
 5552SOL    HW217556   2.123   0.734   5.887  1.7576 -0.4140  1.2114
 5553SOL     OW17557   3.875   6.319   1.179  0.1782 -0.0280  0.3449
 5553SOL    HW117558   3.962   6.269   1.177  0.2236  0.0380  0.7278
 5553SOL    HW217559   3.887   6.404   1.229  0.0972  0.3729 -0.2998
 5554SOL     OW17560   3.237   1.442   5.824 -0.0108  0.7177 -0.4306
 5554SOL    HW117561   3.302   1.425   5.898 -0.2217 -0.4973 -0.5102
 5554SOL    HW217562   3.273   1.513   5.763  1.3225 -0.0659 -0.5820
 5555SOL     OW17563   1.551   4.680   4.130 -0.0184  0.1172  0.0954
 5555SOL    HW117564   1.596   4.764   4.100 -1.8499  0.8903 -0.6751
 5555SOL    HW217565   1.594   4.601   4.085  1.5733  0.6294  0.6513
 5556SOL     OW17566   1.093   3.555   3.621  0.5694  0.0827  0.7011
 5556SOL    HW117567   1.064   3.631   3.678 -0.7947  0.2082 -0.1038
 5556SOL    HW217568   1.159   3.587   3.553 -0.3469  0.6898  0.0644
 5557SOL     OW17569   2.439   3.817   1.420 -0.1993  0.6255  0.1288
 5557SOL    HW117570   2.422   3.738   1.479  1.4491  1.0948  1.3212
 5557SOL    HW217571   2.354   3.845   1.376 -0.9258 -1.4431  0.1224
 5558SOL     OW17572   5.900   4.314   5.341 -1.1602  0.5019 -0.1777
 5558SOL    HW117573   5.954   4.241   5.299 -1.8642  0.4155 -0.9438
 5558SOL    HW217574   5.813   4.324   5.293 -0.5830  2.6615 -0.8785
 5559SOL     OW17575   5.054   5.334   2.046  0.4920  0.0781  0.2873
 5559SOL    HW117576   5.106   5.363   2.127 -1.2588 -1.0473  1.9197
 5559SOL    HW217577   4.992   5.407   2.019 -1.0253 -0.5377  1.8765
 5560SOL     OW17578   2.346   6.732   3.297 -0.4497  0.3974 -0.1100
 5560SOL    HW117579   2.276   6.716   3.228  0.1364  0.4328 -0.7206
 5560SOL    HW217580   2.436   6.735   3.254  0.3052 -2.5633  0.9739
 5561SOL     OW17581   1.736   2.831   5.299  0.3212  0.4123 -0.0121
 5561SOL    HW117582   1.806   2.842   5.229  2.7840 -0.3125  2.1407
 5561SOL    HW217583   1.766   2.875   5.384 -3.5588  3.3211  0.1341
 5562SOL     OW17584   2.508   2.825   5.622 -0.5493 -0.3073 -0.1317
 5562SOL    HW117585   2.596   2.871   5.628 -1.2585  1.4148 -1.7628
 5562SOL    HW217586   2.466   2.821   5.713  0.6207  0.0700  0.4404
 5563SOL     OW17587   4.695   5.615   3.245 -0.7716 -0.2277  0.0719
 5563SOL    HW117588   4.737   5.559   3.173  0.5144  1.1620 -0.3312
 5563SOL    HW217589   4.709   5.572   3.334 -2.2820 -1.9181 -0.4344
 5564SOL     OW17590   0.404   1.715   6.061  0.5290  0.0540 -0.2219
 5564SOL    HW117591   0.452   1.701   6.147  0.4472 -2.0052 -0.4592
 5564SOL    HW217592   0.470   1.736   5.989  0.7838 -0.0204 -0.0116
 5565SOL     OW17593   4.468   2.326   6.189 -0.4822 -0.2022 -0.3734
 5565SOL    HW117594   4.384   2.379   6.201 -1.0199 -1.3362  1.2746
 5565SOL    HW217595   4.546   2.388   6.180 -1.1300  0.9076  1.1714
 5566SOL     OW17596   0.985   4.299   1.020 -0.1194 -0.1311  0.0210
 5566SOL    HW117597   0.932   4.360   0.963 -0.0723 -0.0356  0.0790
 5566SOL    HW217598   1.010   4.218   0.968  0.3977  0.2082 -0.2652
 5567SOL     OW17599   6.729   4.248   0.566 -0.1726 -0.4041  0.3109
 5567SOL    HW117600   6.753   4.344   0.578  2.1242 -0.8958  0.1236
 5567SOL    HW217601   6.805   4.200   0.522 -1.7579 -2.0750 -0.7580
 5568SOL     OW17602   4.545   2.594   3.241 -0.2470  0.0926 -0.2224
 5568SOL    HW117603   4.480   2.531   3.284  1.3670 -2.4747 -1.2814
 5568SOL    HW217604   4.549   2.576   3.143  1.3659  0.8051 -0.3185
 5569SOL     OW17605   2.353   0.684   3.141 -0.5332 -0.4218  0.5377
 5569SOL    HW117606   2.322   0.592   3.166 -0.2887 -1.0531 -1.3666
 5569SOL    HW217607   2.453   0.688   3.151 -0.6515  0.0043  1.6845
 5570SOL     OW17608   5.805   4.704   5.144  0.0018 -0.3928 -0.2111
 5570SOL    HW117609   5.891   4.665   5.178  0.0038 -0.0754  0.1509
 5570SOL    HW217610   5.826   4.772   5.072  0.1354  0.5382  0.6798
 5571SOL     OW17611   0.598   4.473   0.429  0.3449  0.6046 -0.3899
 5571SOL    HW117612   0.520   4.509   0.378 -0.1492 -1.5729 -1.2904
 5571SOL    HW217613   0.574   4.464   0.525 -0.2200  0.7504 -0.5135
 5572SOL     OW17614   2.513   1.330   6.467  0.1261 -1.0406  0.1085
 5572SOL    HW117615   2.528   1.344   6.565  0.2146 -0.6097  0.0337
 5572SOL    HW217616   2.449   1.398   6.432 -0.9950 -2.0455  0.1459
 5573SOL     OW17617   0.885   2.927   5.660  0.0131 -0.5282 -0.4563
 5573SOL    HW117618   0.814   2.856   5.656  0.6627 -1.1512 -1.6295
 5573SOL    HW217619   0.973   2.887   5.636  0.5882  0.4605 -0.0355
 5574SOL     OW17620   6.840   1.267   2.987 -0.2371  0.1885  0.0227
 5574SOL    HW117621   6.813   1.291   2.894  1.4898  1.1445 -0.2766
 5574SOL    HW217622   6.785   1.317   3.053 -1.3153 -0.3217 -0.4673
 5575SOL     OW17623   2.430   1.019   0.806 -0.1581 -0.5855 -1.0717
 5575SOL    HW117624   2.375   1.061   0.733  1.0279 -0.0893 -1.7160
 5575SOL    HW217625   2.431   1.079   0.886  0.3793 -0.0265 -1.4838
 5576SOL     OW17626   4.418   5.427   3.470  0.7922 -0.0927 -0.1251
 5576SOL    HW117627   4.508   5.471   3.467  0.3978  0.9383  1.9978
 5576SOL    HW217628   4.364   5.455   3.391  1.9487  0.0923 -0.8704
 5577SOL     OW17629   2.957   1.890   5.764  0.7914  0.4524  0.3299
 5577SOL    HW117630   2.905   1.865   5.846 -4.9197  2.7893 -2.0309
 5577SOL    HW217631   2.982   1.987   5.770  1.6192  0.2670 -0.1123
 5578SOL     OW17632   3.693   3.623   1.464 -0.3569 -0.3387  1.1804
 5578SOL    HW117633   3.728   3.701   1.516  0.9760  0.6496 -1.0880
 5578SOL    HW217634   3.762   3.551   1.462  0.2638  0.2673 -0.4896
 5579SOL     OW17635   5.603   4.412   5.548  0.0647 -0.3763  0.4148
 5579SOL    HW117636   5.664   4.466   5.489 -0.4788 -0.7836 -0.5511
 5579SOL    HW217637   5.513   4.455   5.550  0.2268 -0.0493  1.4422
 5580SOL     OW17638   6.048   2.139   0.910  0.5024  0.0397 -0.4537
 5580SOL    HW117639   6.053   2.101   1.003  0.2213 -0.1157 -0.5014
 5580SOL    HW217640   6.139   2.138   0.869  0.9709  1.6308  0.4231
 5581SOL     OW17641   2.118   0.574   3.589 -0.4456  0.2719  0.0713
 5581SOL    HW117642   2.077   0.662   3.609 -0.5482  0.5677 -1.3736
 5581SOL    HW217643   2.212   0.587   3.556 -0.0809 -0.2373  0.8658
 5582SOL     OW17644   3.542   3.772   4.227 -0.4292  0.2872  0.1591
 5582SOL    HW117645   3.526   3.725   4.313  1.2268  0.3477  0.5285
 5582SOL    HW217646   3.583   3.709   4.161 -2.6494 -0.0662 -1.0072
 5583SOL     OW17647   5.878   1.733   2.943 -0.2329  0.3231 -0.5209
 5583SOL    HW117648   5.799   1.672   2.938 -0.7718  1.0792 -1.6893
 5583SOL    HW217649   5.912   1.736   3.037 -1.8594  0.3296  0.0968
 5584SOL     OW17650   3.868   5.512   4.890 -0.1288 -0.3057 -0.6564
 5584SOL    HW117651   3.811   5.434   4.864 -0.1636 -0.6477  0.3922
 5584SOL    HW217652   3.915   5.491   4.975 -0.5410  1.0191 -0.0795
 5585SOL     OW17653   5.300   6.786   3.923  0.2727  0.1781 -0.2854
 5585SOL    HW117654   5.214   6.749   3.957 -0.5214  2.7281  0.7282
 5585SOL    HW217655   5.371   6.715   3.928 -1.3423 -1.4715  0.5154
 5586SOL     OW17656   0.832   2.590   5.901  0.1193  0.4647 -0.1821
 5586SOL    HW117657   0.930   2.607   5.916  0.3071  1.1654 -1.9514
 5586SOL    HW217658   0.821   2.516   5.834 -0.5694  0.3485  0.0507
 5587SOL     OW17659   6.341   0.203   3.113  0.6622  0.3201  0.1462
 5587SOL    HW117660   6.440   0.214   3.103  0.3930  1.4948 -1.7351
 5587SOL    HW217661   6.296   0.231   3.029 -1.3810  1.3670  1.5039
 5588SOL     OW17662   1.697   6.471   3.849 -0.0206  0.3513 -0.1637
 5588SOL    HW117663   1.709   6.372   3.836 -2.7123  0.2525 -2.9351
 5588SOL    HW217664   1.781   6.519   3.824  0.4546 -1.0953 -1.4843
 5589SOL     OW17665   4.001   1.539   5.437 -0.2119  0.0608 -0.0750
 5589SOL    HW117666   3.919   1.484   5.420 -0.3462 -1.3194  3.9788
 5589SOL    HW217667   4.081   1.479   5.443  0.0481  0.5298  1.9269
 5590SOL     OW17668   0.484   6.476   3.011 -0.0072  0.0912  0.2560
 5590SOL    HW117669   0.413   6.497   3.079  0.2700  2.8264 -0.1907
 5590SOL    HW217670   0.461   6.518   2.924  0.4126 -2.0876 -0.9718
 5591SOL     OW17671   6.473   6.033   0.616  0.1334 -0.1252 -0.1977
 5591SOL    HW117672   6.385   6.013   0.574  0.2959 -1.0471 -0.1328
 5591SOL    HW217673   6.470   6.122   0.660 -0.0661  0.8422 -2.0767
 5592SOL     OW17674   2.162   1.992   1.920  0.5769  0.2526  0.3875
 5592SOL    HW117675   2.150   2.055   1.844  0.6596  1.6588  1.5030
 5592SOL    HW217676   2.242   2.019   1.974  0.2022 -0.3823  1.2882
 5593SOL     OW17677   1.237   0.628   4.842  0.8175  0.4577  0.4328
 5593SOL    HW117678   1.326   0.622   4.798  0.8909 -1.0185  0.7229
 5593SOL    HW217679   1.172   0.567   4.795  0.5862 -0.2298  1.5973
 5594SOL     OW17680   3.507   1.566   1.022  0.4155  0.3928  0.2348
 5594SOL    HW117681   3.440   1.541   1.092  1.1525 -0.6428  0.6130
 5594SOL    HW217682   3.531   1.662   1.031  0.8532  0.1696  1.7464
 5595SOL     OW17683   6.682   0.024   5.098  0.0066  0.4162  0.2042
 5595SOL    HW117684   6.766   0.007   5.047  0.2053 -0.2795  0.7486
 5595SOL    HW217685   6.622   0.083   5.044  1.0238  1.2893  0.0019
 5596SOL     OW17686   5.237   5.951   2.984  0.3550  0.2777  0.3355
 5596SOL    HW117687   5.324   5.920   3.021  0.0594 -1.1564 -0.1036
 5596SOL    HW217688   5.245   6.046   2.954  1.4411  0.5150  1.2831
 5597SOL     OW17689   5.369   2.125   3.878  0.0970 -0.2052  0.1197
 5597SOL    HW117690   5.443   2.192   3.870 -0.6848  0.6395 -0.2459
 5597SOL    HW217691   5.407   2.033   3.882  1.2066  0.2630  0.7842
 5598SOL     OW17692   6.627   2.720   3.919 -0.1634  0.1398  0.1092
 5598SOL    HW117693   6.642   2.727   3.821  1.2505 -2.7972  0.0193
 5598SOL    HW217694   6.715   2.721   3.967 -0.7636  0.3537  1.2671
 5599SOL     OW17695   4.558   4.038   0.887 -0.1239 -0.0454 -0.3778
 5599SOL    HW117696   4.596   4.094   0.961  0.3807 -1.8405  0.7932
 5599SOL    HW217697   4.465   4.009   0.911  0.0582 -0.6736 -0.4256
 5600SOL     OW17698   4.543   0.019   3.320  0.0746 -0.0157 -0.2300
 5600SOL    HW117699   4.500  -0.024   3.241  1.1877 -1.0143 -0.3222
 5600SOL    HW217700   4.475   0.035   3.391 -0.5738 -0.8857 -0.6438
 5601SOL     OW17701   4.651   4.350   6.077 -0.1987 -0.3939 -0.3323
 5601SOL    HW117702   4.746   4.322   6.059 -0.1912 -0.8133  0.3179
 5601SOL    HW217703   4.618   4.406   6.002  0.4381 -0.5741 -0.7548
 5602SOL     OW17704   0.825   2.522   2.358 -0.1625 -0.0211  0.6373
 5602SOL    HW117705   0.839   2.483   2.449 -0.3372 -0.1589  0.6055
 5602SOL    HW217706   0.794   2.451   2.295 -0.2493  0.1165  0.5218
 5603SOL     OW17707   4.863   1.356   5.649 -0.4793  0.2745  0.3434
 5603SOL    HW117708   4.851   1.346   5.550 -2.6896  1.6062  0.4123
 5603SOL    HW217709   4.956   1.329   5.674 -0.3773 -1.6815 -1.8300
 5604SOL     OW17710   2.612   6.227   4.361  0.0725 -0.2159  0.4046
 5604SOL    HW117711   2.567   6.242   4.273  0.7230  1.2567  0.2755
 5604SOL    HW217712   2.628   6.316   4.405  2.3198 -0.6945  0.6783
 5605SOL     OW17713   0.377   6.884   6.079  0.3086 -0.1401  0.3779
 5605SOL    HW117714   0.382   6.824   6.160  0.3624  0.7689  1.0588
 5605SOL    HW217715   0.291   6.933   6.079  0.4225  0.0603  0.0131
 5606SOL     OW17716   3.656   0.233   0.879  0.1454 -0.0545 -0.2107
 5606SOL    HW117717   3.670   0.171   0.801  1.4507 -0.2053  0.1176
 5606SOL    HW217718   3.720   0.209   0.952 -0.6671  0.4640  0.6861
 5607SOL     OW17719   6.057   1.500   3.455 -0.3352  0.1426 -0.3273
 5607SOL    HW117720   6.076   1.591   3.418 -1.9667  0.0762 -1.4333
 5607SOL    HW217721   6.092   1.431   3.392  1.4057 -0.0502  0.7805
 5608SOL     OW17722   6.497   0.453   4.135  0.4146  0.0676 -0.2078
 5608SOL    HW117723   6.567   0.485   4.200  1.0013 -1.3089 -0.1306
 5608SOL    HW217724   6.408   0.451   4.180  0.6491  0.0618  0.2594
 5609SOL     OW17725   3.053   5.998   6.290  0.4087  0.6203 -0.0034
 5609SOL    HW117726   3.038   6.059   6.368  0.9636  1.6970 -0.7187
 5609SOL    HW217727   3.044   6.050   6.205 -0.3347 -0.5650 -0.6790
 5610SOL     OW17728   4.213   4.392   6.263 -0.6024 -0.2748  0.1867
 5610SOL    HW117729   4.197   4.294   6.273  0.0497 -0.2721  1.5358
 5610SOL    HW217730   4.249   4.411   6.172  1.5819 -1.6466  0.6892
 5611SOL     OW17731   0.676   5.727   3.823 -0.1445  0.2847 -0.2770
 5611SOL    HW117732   0.629   5.724   3.911  1.2905  0.7399  0.5405
 5611SOL    HW217733   0.647   5.650   3.767 -1.1515  0.0433  0.5424
 5612SOL     OW17734   4.016   2.491   0.746 -0.0833  0.3284 -0.0942
 5612SOL    HW117735   4.095   2.468   0.803 -0.6072 -1.2796  0.0242
 5612SOL    HW217736   4.048   2.523   0.657  0.7171 -0.9037 -0.2757
 5613SOL     OW17737   5.840   6.805   4.237  0.4384  0.3877  0.0825
 5613SOL    HW117738   5.927   6.803   4.188 -0.0035 -1.5046 -0.7051
 5613SOL    HW217739   5.766   6.827   4.174 -0.5208 -4.7260 -0.9848
 5614SOL     OW17740   6.218   1.997   3.561 -0.8008  0.5451 -0.3305
 5614SOL    HW117741   6.266   2.062   3.620  0.8551  0.7041 -1.7972
 5614SOL    HW217742   6.191   1.917   3.615  0.5582  0.7310  0.6676
 5615SOL     OW17743   6.771   1.374   1.423 -0.0259 -0.4775 -0.2077
 5615SOL    HW117744   6.740   1.325   1.342  0.7941 -1.3064 -0.0274
 5615SOL    HW217745   6.870   1.368   1.431  0.0142  0.5498  0.2524
 5616SOL     OW17746   0.609   3.018   6.087 -0.2402  0.6421 -0.1058
 5616SOL    HW117747   0.609   2.918   6.078  0.2498  0.6261  0.0440
 5616SOL    HW217748   0.603   3.059   5.996 -2.2746  0.4862 -0.0892
 5617SOL     OW17749   2.219   4.108   4.643 -0.0237  0.3325 -0.1910
 5617SOL    HW117750   2.150   4.103   4.570 -0.1704 -0.0466 -0.0301
 5617SOL    HW217751   2.214   4.025   4.698  0.6275  0.2628 -0.2353
 5618SOL     OW17752   2.034   1.665   4.486 -0.3452  0.2197 -0.0366
 5618SOL    HW117753   1.978   1.696   4.563  0.9427  0.7232  0.7357
 5618SOL    HW217754   2.126   1.642   4.519  0.2064  0.3597 -1.4147
 5619SOL     OW17755   3.417   4.157   3.131  0.4744 -0.3775  0.2099
 5619SOL    HW117756   3.428   4.059   3.151  1.1797 -0.0922  1.2952
 5619SOL    HW217757   3.423   4.209   3.216  0.8443  0.6766 -0.4463
 5620SOL     OW17758   5.001   4.558   5.396 -0.3064  0.2019 -0.3319
 5620SOL    HW117759   4.918   4.518   5.356  0.4477 -0.3989 -1.3277
 5620SOL    HW217760   5.082   4.514   5.357  0.4900  0.0879  1.3626
 5621SOL     OW17761   1.451   3.438   4.020  0.7036 -0.2892  0.1085
 5621SOL    HW117762   1.544   3.453   3.986  0.5002 -1.3754 -0.9841
 5621SOL    HW217763   1.455   3.377   4.099  0.8194 -1.5935 -0.8786
 5622SOL     OW17764   4.639   4.350   4.926  0.0177  0.5298  0.4269
 5622SOL    HW117765   4.634   4.271   4.865  0.8033 -1.0375  2.2540
 5622SOL    HW217766   4.549   4.391   4.937 -0.0818  1.0879 -1.9848
 5623SOL     OW17767   6.730   0.341   3.719  0.3363  0.2505 -0.0066
 5623SOL    HW117768   6.802   0.273   3.710 -0.0450  0.0519 -2.0581
 5623SOL    HW217769   6.734   0.382   3.810  2.8826  0.0800  0.0265
 5624SOL     OW17770   0.294   5.581   2.859  0.2297 -0.3359  0.6251
 5624SOL    HW117771   0.358   5.652   2.829  1.3875 -2.2599 -1.8167
 5624SOL    HW217772   0.203   5.600   2.821  0.1278  0.6541  1.3306
 5625SOL     OW17773   0.409   5.630   5.783 -0.6835 -0.0744  0.0572
 5625SOL    HW117774   0.475   5.700   5.759 -0.7917 -0.0573 -0.2038
 5625SOL    HW217775   0.419   5.552   5.721  0.1210 -0.7294  0.9870
 5626SOL     OW17776   6.465   6.502   5.183 -0.2028  0.2376 -0.9124
 5626SOL    HW117777   6.506   6.443   5.114 -0.8461  0.7065 -1.7154
 5626SOL    HW217778   6.502   6.595   5.175  3.3350 -0.6317  2.4761
 5627SOL     OW17779   1.602   6.116   6.474  0.6985  0.1775  0.2884
 5627SOL    HW117780   1.624   6.191   6.536  0.0220 -1.6954  2.9779
 5627SOL    HW217781   1.675   6.047   6.479  0.3222 -0.2884 -0.5431
 5628SOL     OW17782   2.049   2.344   0.388 -1.0185 -0.3995 -0.7359
 5628SOL    HW117783   1.981   2.400   0.437  0.8799  1.3048  0.1173
 5628SOL    HW217784   2.130   2.399   0.371  0.7162 -2.7377 -0.4824
 5629SOL     OW17785   2.247   3.559   0.212 -0.4507 -0.9632  0.8170
 5629SOL    HW117786   2.264   3.468   0.251 -0.0458 -0.8480  0.9117
 5629SOL    HW217787   2.260   3.556   0.113  0.0319 -0.8971  0.8778
 5630SOL     OW17788   1.578   2.780   5.058  0.0551 -0.0970  0.4477
 5630SOL    HW117789   1.510   2.853   5.055 -0.1725 -0.2963  0.7033
 5630SOL    HW217790   1.656   2.809   5.114  0.5179  0.4100 -0.4297
 5631SOL     OW17791   5.768   0.628   3.302  0.0566  0.1893 -0.1077
 5631SOL    HW117792   5.804   0.707   3.353 -0.9051  0.8529 -0.4319
 5631SOL    HW217793   5.707   0.660   3.230 -0.2836 -0.8611 -0.3003
 5632SOL     OW17794   5.586   6.683   5.754 -0.0904 -0.5983  0.2270
 5632SOL    HW117795   5.547   6.603   5.800 -0.9136 -0.6176 -0.4870
 5632SOL    HW217796   5.596   6.663   5.656 -1.0126  0.4376 -0.0930
 5633SOL     OW17797   0.720   4.684   4.603 -0.3092  0.0193  0.1652
 5633SOL    HW117798   0.812   4.672   4.566  0.7227  1.9640  1.8787
 5633SOL    HW217799   0.664   4.605   4.579  1.0918 -0.2064 -2.8910
 5634SOL     OW17800   1.076   3.561   0.035  0.4460  0.4952  0.2803
 5634SOL    HW117801   1.054   3.653   0.070  0.8237  0.7476 -0.1406
 5634SOL    HW217802   0.993   3.507   0.030  0.3091  0.6111  1.1202
 5635SOL     OW17803   4.404   5.707   6.294 -0.2105  0.0426 -0.5160
 5635SOL    HW117804   4.395   5.743   6.201  1.6276  0.2275 -0.6654
 5635SOL    HW217805   4.374   5.776   6.359 -0.4560  0.3413 -0.9427
 5636SOL     OW17806   5.128   0.302   4.362  0.4686 -0.5875 -0.1490
 5636SOL    HW117807   5.049   0.352   4.327  0.4805 -0.0531  0.5650
 5636SOL    HW217808   5.172   0.355   4.434  1.3353 -0.9926 -0.3585
 5637SOL     OW17809   5.404   0.451   4.531  0.2975  0.0345  0.0896
 5637SOL    HW117810   5.374   0.515   4.601 -1.0973  0.7721 -1.1357
 5637SOL    HW217811   5.504   0.451   4.527  0.3609  0.8892  1.2337
 5638SOL     OW17812   4.419   5.194   0.726 -0.3228  0.3177 -0.5952
 5638SOL    HW117813   4.425   5.164   0.821 -0.2492  1.2930 -0.2868
 5638SOL    HW217814   4.341   5.150   0.682 -1.3198  1.0753  0.3690
 5639SOL     OW17815   1.723   1.739   1.389  0.0418 -0.4943  0.2625
 5639SOL    HW117816   1.702   1.676   1.315 -1.1235  1.3466 -1.0435
 5639SOL    HW217817   1.812   1.782   1.372  0.4287 -1.1043  0.6968
 5640SOL     OW17818   2.102   0.232   1.386 -0.0004  0.4658  0.0240
 5640SOL    HW117819   2.171   0.302   1.372  0.9378 -0.7016 -1.5739
 5640SOL    HW217820   2.135   0.166   1.453  0.6100 -0.2312 -0.9244
 5641SOL     OW17821   6.825   4.169   5.871  0.7048 -0.2676  0.0717
 5641SOL    HW117822   6.767   4.131   5.799  0.5829 -0.5283  0.3073
 5641SOL    HW217823   6.898   4.223   5.829 -1.0429  2.0801 -0.2187
 5642SOL     OW17824   0.894   5.693   6.966  0.1663 -0.1455 -0.2882
 5642SOL    HW117825   0.883   5.699   7.066 -1.4205 -1.3024 -0.3486
 5642SOL    HW217826   0.991   5.687   6.943  0.5018 -1.6003  1.3250
 5643SOL     OW17827   3.191   6.153   5.128 -0.0376 -0.2532  0.6184
 5643SOL    HW117828   3.210   6.098   5.210 -0.4720  0.0736  0.9438
 5643SOL    HW217829   3.194   6.094   5.047  1.5447 -0.3534  0.7324
 5644SOL     OW17830   4.178   6.174   2.795  0.2480  0.2442  0.2320
 5644SOL    HW117831   4.155   6.150   2.701 -0.4308  0.5494  0.3130
 5644SOL    HW217832   4.094   6.188   2.848  0.5952 -1.3047  1.2586
 5645SOL     OW17833   5.517   3.335   2.348 -0.1561  0.2522  0.1286
 5645SOL    HW117834   5.560   3.249   2.321 -1.1189 -0.0200 -0.5686
 5645SOL    HW217835   5.428   3.316   2.391  0.6819  0.7517  2.2490
 5646SOL     OW17836   2.161   4.667   2.940 -0.2175  0.5730  0.7599
 5646SOL    HW117837   2.106   4.749   2.953  0.2573  0.7665  1.6595
 5646SOL    HW217838   2.117   4.589   2.985 -0.8133  0.2644 -0.3408
 5647SOL     OW17839   6.008   6.134   6.077  0.1133 -0.3655 -0.6388
 5647SOL    HW117840   5.999   6.226   6.041  1.1690 -0.3949 -1.0119
 5647SOL    HW217841   6.102   6.101   6.064 -0.0635 -1.2363  0.0984
 5648SOL     OW17842   2.303   1.917   3.346 -0.2119  0.3697  0.3454
 5648SOL    HW117843   2.398   1.948   3.356  0.1189 -0.4452 -0.2187
 5648SOL    HW217844   2.253   1.939   3.430  0.5301  0.6009  0.7412
 5649SOL     OW17845   1.597   6.465   3.223  0.5805 -0.0756 -0.1803
 5649SOL    HW117846   1.574   6.445   3.128  0.6136 -1.0490  0.0087
 5649SOL    HW217847   1.697   6.460   3.235  0.5089 -1.0290  0.1267
 5650SOL     OW17848   0.005   5.996   6.842  0.7260  0.0324  0.3401
 5650SOL    HW117849  -0.048   5.946   6.774  1.5686 -0.8983  0.3502
 5650SOL    HW217850  -0.050   6.008   6.925 -0.2048  0.9229 -0.3723
 5651SOL     OW17851   7.003   2.056   3.821  0.5326  0.6496  0.0732
 5651SOL    HW117852   7.016   2.024   3.915 -2.3463 -0.2690  0.2710
 5651SOL    HW217853   7.042   1.989   3.758 -1.3268 -0.9995  0.5882
 5652SOL     OW17854   6.227   4.633   1.875  0.3113 -1.1341 -0.5753
 5652SOL    HW117855   6.263   4.579   1.951  0.6729 -0.0751  0.0161
 5652SOL    HW217856   6.133   4.662   1.896  0.5949 -0.4005 -0.2906
 5653SOL     OW17857   1.641   6.047   0.280 -0.1555  0.5646  0.8334
 5653SOL    HW117858   1.567   6.088   0.332  1.2638  1.0446  2.6083
 5653SOL    HW217859   1.624   6.057   0.182 -1.8957  1.5651  1.2092
 5654SOL     OW17860   0.483   6.752   0.409 -0.2424 -0.4215  0.4166
 5654SOL    HW117861   0.571   6.795   0.386 -0.6483  0.5303  0.5983
 5654SOL    HW217862   0.486   6.717   0.502 -0.1187 -0.2208  0.4885
 5655SOL     OW17863   1.839   4.753   3.912 -0.3173  0.1671 -0.3502
 5655SOL    HW117864   1.939   4.748   3.909 -0.3144 -0.8638  0.6276
 5655SOL    HW217865   1.811   4.841   3.950  0.1870  0.8766 -1.5926
 5656SOL     OW17866   3.011   4.351   0.893  0.5971  0.7181  0.5437
 5656SOL    HW117867   2.941   4.416   0.862  0.0636 -0.1446 -0.1318
 5656SOL    HW217868   3.098   4.399   0.906  0.6127  1.3105 -1.4246
 5657SOL     OW17869   5.597   6.366   2.351 -0.0188  0.3590  0.3832
 5657SOL    HW117870   5.607   6.463   2.329 -1.0888  0.5633  0.7470
 5657SOL    HW217871   5.507   6.334   2.322  1.0092 -1.0243 -1.4995
 5658SOL     OW17872   3.963   5.841   5.434  0.3696 -0.1426 -0.2304
 5658SOL    HW117873   3.881   5.803   5.476 -0.3823  0.6206 -0.9697
 5658SOL    HW217874   4.032   5.859   5.504 -0.6816  0.6939  0.6173
 5659SOL     OW17875   4.141   3.632   2.842  0.3867 -0.6684  0.3774
 5659SOL    HW117876   4.108   3.634   2.936 -0.8079  0.9770 -0.0370
 5659SOL    HW217877   4.237   3.660   2.840  0.4030 -0.6595  1.1135
 5660SOL     OW17878   6.871   0.173   0.347 -0.1165  0.4173 -0.0422
 5660SOL    HW117879   6.849   0.107   0.275 -0.0252  0.2529  0.0785
 5660SOL    HW217880   6.931   0.244   0.310 -0.1418  0.3816 -0.1506
 5661SOL     OW17881   6.988   4.715   5.566  0.0036 -0.5342 -0.1083
 5661SOL    HW117882   7.077   4.687   5.530 -0.0910  0.9245 -1.5974
 5661SOL    HW217883   7.001   4.775   5.645  0.2930 -1.2937  0.4299
 5662SOL     OW17884   1.371   4.846   3.100 -0.1434 -0.0316  0.2079
 5662SOL    HW117885   1.406   4.913   3.035 -1.9017 -0.8900 -1.7142
 5662SOL    HW217886   1.419   4.759   3.088 -0.3570 -0.1477  0.1941
 5663SOL     OW17887   6.927   4.750   6.183  0.1923 -0.2970  0.1957
 5663SOL    HW117888   6.888   4.826   6.132 -0.7126 -0.8614  0.0260
 5663SOL    HW217889   7.027   4.752   6.175  0.1044  0.0566 -0.9706
 5664SOL     OW17890   6.288   2.941   5.552 -0.1399  0.2378  0.0572
 5664SOL    HW117891   6.252   2.854   5.520  1.2372  0.3897 -2.1241
 5664SOL    HW217892   6.386   2.931   5.570  0.2331  1.5006 -1.1030
 5665SOL     OW17893   0.832   1.657   6.443 -0.0170  0.5186 -0.1500
 5665SOL    HW117894   0.793   1.618   6.360 -0.2278 -0.3760  0.3508
 5665SOL    HW217895   0.896   1.730   6.419  1.2622 -0.8889 -1.1995
 5666SOL     OW17896   3.430   4.138   6.378  0.2557 -0.3255 -0.1044
 5666SOL    HW117897   3.515   4.172   6.338 -0.1970  1.1488  0.1191
 5666SOL    HW217898   3.403   4.197   6.455 -1.0232 -0.7008 -0.2387
 5667SOL     OW17899   1.110   6.042   4.026  0.1311 -0.1854 -0.2836
 5667SOL    HW117900   1.164   6.115   3.985  0.6209 -0.6921 -0.5608
 5667SOL    HW217901   1.130   6.037   4.124 -1.2825  1.2360  0.1112
 5668SOL     OW17902   4.049   1.829   5.468 -0.4207  0.6679 -0.1590
 5668SOL    HW117903   4.067   1.733   5.449  0.2077  1.1574 -2.2621
 5668SOL    HW217904   4.110   1.862   5.540  0.2038 -0.1838 -0.2992
 5669SOL     OW17905   1.226   3.869   5.596 -0.3843 -0.0459 -0.1096
 5669SOL    HW117906   1.182   3.957   5.611  0.0346  0.2833 -0.7370
 5669SOL    HW217907   1.309   3.863   5.650  1.0058  1.0481 -1.9954
 5670SOL     OW17908   6.094   4.035   3.828  0.5754  0.5440  1.0103
 5670SOL    HW117909   6.152   4.107   3.866 -0.1020  1.2217  0.7637
 5670SOL    HW217910   5.998   4.057   3.843  0.3554 -0.2526  0.8299
 5671SOL     OW17911   1.173   0.955   0.216 -0.1062  0.6827  0.2376
 5671SOL    HW117912   1.083   0.956   0.261 -1.0153 -0.0677 -1.5037
 5671SOL    HW217913   1.184   1.039   0.163  0.5605  1.1097  1.0169
 5672SOL     OW17914   3.962   2.591   6.498 -0.1384  0.0265 -0.2175
 5672SOL    HW117915   3.916   2.512   6.458 -0.2333  1.2414 -2.7617
 5672SOL    HW217916   3.893   2.657   6.529 -0.0924  0.3738 -0.8476
 5673SOL     OW17917   1.084   0.104   1.181  0.4100  0.9102  0.2345
 5673SOL    HW117918   1.180   0.104   1.153 -0.1118 -1.7519 -1.9860
 5673SOL    HW217919   1.029   0.153   1.113 -0.1635 -0.4769 -0.3420
 5674SOL     OW17920   6.221   3.783   2.344 -0.1818 -0.1435 -1.2790
 5674SOL    HW117921   6.257   3.690   2.356 -0.7228 -0.2574 -0.4320
 5674SOL    HW217922   6.127   3.778   2.309 -0.2646  0.0801 -1.0911
 5675SOL     OW17923   3.238   0.444   6.065 -0.4531 -0.7314  0.6263
 5675SOL    HW117924   3.242   0.348   6.038  0.6967 -1.0072  1.6447
 5675SOL    HW217925   3.270   0.501   5.990  2.5802 -1.4623  1.2110
 5676SOL     OW17926   0.817   1.424   1.545  0.0363 -0.0317 -0.1940
 5676SOL    HW117927   0.899   1.428   1.603  0.2964 -1.4828 -0.4072
 5676SOL    HW217928   0.736   1.415   1.603  0.2232 -0.6880 -0.0250
 5677SOL     OW17929   1.120   3.067   2.018 -0.0900  0.4780  0.0875
 5677SOL    HW117930   1.093   2.976   2.048  0.5254 -0.1696 -1.2240
 5677SOL    HW217931   1.039   3.126   2.013 -0.6227 -0.2286  0.1782
 5678SOL     OW17932   4.625   5.330   2.427 -0.9457  0.6820  0.3753
 5678SOL    HW117933   4.541   5.378   2.451 -2.0849 -1.7879  1.7460
 5678SOL    HW217934   4.618   5.294   2.334 -2.5534 -1.5564  1.2633
 5679SOL     OW17935   3.127   0.575   4.038  0.2308 -0.9062 -0.6042
 5679SOL    HW117936   3.208   0.577   3.979  0.1749  1.5139 -0.6919
 5679SOL    HW217937   3.111   0.481   4.069  2.1750 -1.6929 -1.7852
 5680SOL     OW17938   0.740   5.711   0.629 -0.2098  0.1867  0.3536
 5680SOL    HW117939   0.693   5.624   0.614  1.0139 -0.3079 -0.7951
 5680SOL    HW217940   0.838   5.699   0.617  0.0838  1.5385  1.1339
 5681SOL     OW17941   5.864   3.707   5.406 -0.6801  0.2733  0.1974
 5681SOL    HW117942   5.870   3.806   5.416  1.7851  0.2229 -0.2040
 5681SOL    HW217943   5.809   3.669   5.481 -0.2189  1.7829  1.3469
 5682SOL     OW17944   2.303   4.827   4.789  0.5935 -0.2057 -0.8533
 5682SOL    HW117945   2.364   4.841   4.867  0.3623 -2.1456 -0.2766
 5682SOL    HW217946   2.356   4.794   4.711  0.7535  1.3137 -1.4288
 5683SOL     OW17947   5.959   1.627   6.807 -0.2324  0.2113  0.1598
 5683SOL    HW117948   6.057   1.609   6.821 -0.5161 -0.5826  1.2789
 5683SOL    HW217949   5.938   1.720   6.837  0.2366  0.5090 -0.4140
 5684SOL     OW17950   3.613   3.548   3.090 -0.2021 -0.4111  0.3898
 5684SOL    HW117951   3.687   3.512   3.033 -1.3513 -0.0154 -1.4479
 5684SOL    HW217952   3.637   3.538   3.186  1.4650 -1.9005 -0.1235
 5685SOL     OW17953   1.781   5.225   3.800 -0.2375  0.0783  0.6302
 5685SOL    HW117954   1.879   5.221   3.776 -0.3113  0.9164  0.1435
 5685SOL    HW217955   1.751   5.135   3.831  0.2144 -0.7168 -1.1019
 5686SOL     OW17956   2.785   0.943   4.899  1.1762  0.1250  0.1892
 5686SOL    HW117957   2.752   1.037   4.887  0.5515  0.0786  1.3808
 5686SOL    HW217958   2.880   0.944   4.930  1.8745  0.2945 -1.8133
 5687SOL     OW17959   0.300   4.181   5.706  0.0573 -0.4412 -0.1708
 5687SOL    HW117960   0.395   4.200   5.733 -0.0837  0.4916 -0.2789
 5687SOL    HW217961   0.265   4.104   5.758  0.2171  0.4787  1.3853
 5688SOL     OW17962   5.023   0.769   0.435 -0.1161  0.5363  0.0405
 5688SOL    HW117963   4.991   0.757   0.529 -0.9506  3.9911  0.3426
 5688SOL    HW217964   4.945   0.762   0.372  0.3230 -1.0546 -0.3657
 5689SOL     OW17965   4.103   1.115   1.884  0.5276 -0.1365  0.2783
 5689SOL    HW117966   4.075   1.185   1.950  1.6661  0.1595  0.4661
 5689SOL    HW217967   4.086   1.149   1.791  1.4902  0.5862  0.3538
 5690SOL     OW17968   3.072   6.621   7.008 -0.1289 -0.2601  0.2361
 5690SOL    HW117969   3.055   6.526   7.035  1.0342 -1.0715 -1.7128
 5690SOL    HW217970   3.149   6.657   7.062  0.7845 -1.1460 -0.4358
 5691SOL     OW17971   4.733   6.720   3.082 -0.3540 -0.0177 -0.3137
 5691SOL    HW117972   4.791   6.654   3.035 -1.1551 -0.1714 -1.1023
 5691SOL    HW217973   4.774   6.743   3.170  0.6128 -0.5464 -0.6118
 5692SOL     OW17974   6.775   2.611   4.460  0.0187 -0.3100 -0.7241
 5692SOL    HW117975   6.709   2.654   4.398 -1.3650  1.3824  1.7522
 5692SOL    HW217976   6.867   2.639   4.434 -0.7402  4.0261  0.3859
 5693SOL     OW17977   6.151   3.065   1.693 -0.1178  0.4935 -0.8323
 5693SOL    HW117978   6.223   3.064   1.624 -1.2825 -0.1726 -2.0830
 5693SOL    HW217979   6.129   3.160   1.716  1.5368  0.7087  0.0190
 5694SOL     OW17980   0.442   1.017   4.465 -0.6012  0.5887 -0.2767
 5694SOL    HW117981   0.515   0.996   4.401 -0.1346  0.4920  0.2812
 5694SOL    HW217982   0.432   1.116   4.474  0.8260  0.6227  1.1712
 5695SOL     OW17983   6.622   2.283   2.357 -0.3480  0.5825  0.2290
 5695SOL    HW117984   6.572   2.224   2.420 -0.0179  1.7045  1.5993
 5695SOL    HW217985   6.629   2.375   2.396 -1.5482  1.7974 -2.1858
 5696SOL     OW17986   2.442   2.414   3.171  0.2394 -0.1710 -0.1207
 5696SOL    HW117987   2.527   2.367   3.195 -2.4999 -4.1737  3.2467
 5696SOL    HW217988   2.400   2.369   3.092  0.0658  0.1490 -0.2131
 5697SOL     OW17989   4.296   1.190   0.760  0.3449  0.2782  0.2541
 5697SOL    HW117990   4.296   1.269   0.820 -0.4914 -0.6798  1.5651
 5697SOL    HW217991   4.245   1.115   0.803  1.4781 -1.1215 -0.7513
 5698SOL     OW17992   6.266   2.247   2.021  0.5489 -0.3950  0.2243
 5698SOL    HW117993   6.316   2.209   2.099  0.9290 -0.4613 -0.0463
 5698SOL    HW217994   6.256   2.345   2.032  1.6619 -0.2186 -0.2138
 5699SOL     OW17995   6.039   3.953   4.563  0.4460 -0.0551 -0.6145
 5699SOL    HW117996   6.127   3.919   4.595  0.0474 -1.3899 -0.8645
 5699SOL    HW217997   6.008   3.899   4.485 -0.7194  0.2248 -0.3738
 5700SOL     OW17998   3.061   5.714   5.351  0.2720  0.5595 -0.8114
 5700SOL    HW117999   2.963   5.727   5.368 -0.1956  0.7754 -3.3258
 5700SOL    HW218000   3.078   5.709   5.253  2.5965 -1.2303 -0.4155
 5701SOL     OW18001   2.392   7.004   3.321  0.2296 -0.0504  0.0581
 5701SOL    HW118002   2.405   7.021   3.223  0.7792  0.4302  0.2100
 5701SOL    HW218003   2.367   6.908   3.335 -2.3051  0.4078 -0.7679
 5702SOL     OW18004   1.895   6.888   0.163  0.3319 -0.5579  0.0765
 5702SOL    HW118005   1.835   6.808   0.167  0.2330 -0.4427  1.2017
 5702SOL    HW218006   1.929   6.909   0.255  2.5404 -0.9441 -0.5914
 5703SOL     OW18007   3.619   4.096   0.162  0.4276  0.4205  0.4340
 5703SOL    HW118008   3.559   4.157   0.214 -0.8062 -0.2550 -0.1493
 5703SOL    HW218009   3.674   4.042   0.225 -1.5455 -0.9010  1.1293
 5704SOL     OW18010   3.775   5.055   1.309  0.7517  0.5142 -0.2979
 5704SOL    HW118011   3.846   5.090   1.369 -1.0967 -1.8752  3.7116
 5704SOL    HW218012   3.801   4.964   1.275 -0.0706 -0.1466  0.7696
 5705SOL     OW18013   0.057   6.524   1.092 -0.4457 -0.1395  0.0449
 5705SOL    HW118014   0.123   6.568   1.153 -0.0491 -2.0194  1.0738
 5705SOL    HW218015   0.086   6.536   0.997  0.8456 -0.0746  0.4251
 5706SOL     OW18016   1.538   3.404   6.106 -0.2871 -0.2695  0.1731
 5706SOL    HW118017   1.510   3.484   6.159 -0.5482  0.3128 -0.8125
 5706SOL    HW218018   1.476   3.328   6.126 -1.7440  0.5844 -0.8989
 5707SOL     OW18019   1.143   1.296   0.537 -0.5795  0.0067 -0.7385
 5707SOL    HW118020   1.114   1.344   0.455  2.2275  2.5266 -0.4254
 5707SOL    HW218021   1.190   1.211   0.512  0.7817  1.0470 -1.8358
 5708SOL     OW18022   5.502   6.149   3.119  0.2120  0.0530 -0.5711
 5708SOL    HW118023   5.574   6.184   3.178  0.4297  0.7635 -1.2430
 5708SOL    HW218024   5.487   6.052   3.139  0.8615  0.0714  0.0566
 5709SOL     OW18025   1.973   0.149   3.561 -0.1951  0.4470  0.3790
 5709SOL    HW118026   1.923   0.233   3.541  0.8711  0.7500 -1.2377
 5709SOL    HW218027   2.027   0.123   3.481  1.0674 -0.6784  1.5402
 5710SOL     OW18028   3.414   2.702   6.717  0.1913 -0.0003 -0.6472
 5710SOL    HW118029   3.389   2.721   6.812  0.0418 -2.6250 -0.0957
 5710SOL    HW218030   3.358   2.758   6.656 -0.3224  1.0926  0.7611
 5711SOL     OW18031   5.675   5.185   3.206  0.0534 -0.4127  0.4800
 5711SOL    HW118032   5.654   5.223   3.297 -1.0576 -0.1421  0.1253
 5711SOL    HW218033   5.727   5.252   3.153 -2.9061  1.2431 -0.5736
 5712SOL     OW18034   0.939   6.996   4.511  0.3299 -0.3138 -0.4620
 5712SOL    HW118035   1.022   7.020   4.562 -0.5396  0.5267  0.6121
 5712SOL    HW218036   0.937   6.898   4.495  0.9505 -0.5093  0.5526
 5713SOL     OW18037   1.329   2.208   1.157 -0.3131 -0.0470  0.0164
 5713SOL    HW118038   1.333   2.307   1.172 -1.3710  0.1289 -0.7524
 5713SOL    HW218039   1.400   2.163   1.211 -1.2147  0.9155  2.1217
 5714SOL     OW18040   1.710   6.330   6.625 -0.6007 -0.0711 -0.4708
 5714SOL    HW118041   1.740   6.388   6.701  0.6984 -0.3765 -0.7274
 5714SOL    HW218042   1.775   6.255   6.612 -1.8138 -1.1419 -0.6654
 5715SOL     OW18043   2.335   1.338   2.316 -0.1307  0.0842 -0.3533
 5715SOL    HW118044   2.305   1.332   2.411  0.9573  0.8561  0.0643
 5715SOL    HW218045   2.393   1.259   2.294  0.0407  0.1702 -0.2111
 5716SOL     OW18046   1.491   2.907   4.267 -0.0572 -0.3138 -1.0591
 5716SOL    HW118047   1.400   2.905   4.307 -0.9055  1.3681 -2.7408
 5716SOL    HW218048   1.531   2.815   4.269 -1.4960 -0.9436  0.2981
 5717SOL     OW18049   2.101   5.695   6.055  0.3376  0.0304  1.0172
 5717SOL    HW118050   2.167   5.640   6.003  1.0370  0.2069  1.6878
 5717SOL    HW218051   2.014   5.646   6.061  0.8689 -0.9105  1.3823
 5718SOL     OW18052   0.589   4.496   6.196  0.0274 -0.0379  0.1839
 5718SOL    HW118053   0.496   4.460   6.206  0.5441 -1.1932  1.0182
 5718SOL    HW218054   0.655   4.429   6.230  1.2238  0.4961 -1.0055
 5719SOL     OW18055   2.803   1.476   6.718 -0.2786 -0.0942 -0.7419
 5719SOL    HW118056   2.891   1.432   6.738 -0.0121  0.8051  0.1824
 5719SOL    HW218057   2.803   1.509   6.624  0.8724  0.9702 -0.4026
 5720SOL     OW18058   1.450   6.212   5.502  0.0454  0.4269 -0.8199
 5720SOL    HW118059   1.395   6.135   5.470 -2.0388  1.0640  0.9941
 5720SOL    HW218060   1.546   6.184   5.509 -0.2926 -1.3067 -2.2483
 5721SOL     OW18061   1.145   3.257   1.174 -0.1067 -0.0417 -0.1238
 5721SOL    HW118062   1.170   3.164   1.199  3.2036  0.0706 -2.3065
 5721SOL    HW218063   1.218   3.320   1.200 -0.6744  1.3847 -1.7395
 5722SOL     OW18064   5.867   1.307   5.748  0.5724  0.1267 -0.0200
 5722SOL    HW118065   5.925   1.352   5.815  2.5270 -1.1328 -0.7507
 5722SOL    HW218066   5.837   1.219   5.784  3.3887 -1.5527 -1.4158
 5723SOL     OW18067   4.801   4.192   6.551  0.3270  0.6088 -0.1407
 5723SOL    HW118068   4.767   4.253   6.479  0.2848  0.5611 -0.1611
 5723SOL    HW218069   4.733   4.185   6.624 -0.3673 -0.6561 -0.8636
 5724SOL     OW18070   5.149   2.208   6.141 -0.4903 -0.3264 -0.1395
 5724SOL    HW118071   5.062   2.220   6.191  0.3486  0.4187  1.2061
 5724SOL    HW218072   5.156   2.277   6.069 -0.3001  0.7133  0.8413
 5725SOL     OW18073   6.074   0.373   3.458 -0.2440 -0.0757 -0.2731
 5725SOL    HW118074   6.102   0.469   3.456 -1.0608  0.1765 -0.2333
 5725SOL    HW218075   6.144   0.318   3.503  0.3682  0.4550 -0.5702
 5726SOL     OW18076   0.541   0.450   4.807 -0.2928  0.4570  0.5529
 5726SOL    HW118077   0.629   0.483   4.771 -0.3279 -0.0218  0.0193
 5726SOL    HW218078   0.468   0.470   4.741 -0.5478  0.6595  0.8976
 5727SOL     OW18079   6.421   3.554   3.564  0.0929 -0.3946  0.0340
 5727SOL    HW118080   6.385   3.466   3.592 -1.5569  0.2704  0.1287
 5727SOL    HW218081   6.418   3.562   3.464  0.6245 -0.5892 -0.0013
 5728SOL     OW18082   4.624   6.984   6.044  0.4954 -0.3881  0.3628
 5728SOL    HW118083   4.549   7.038   6.084  0.1702 -0.6129  0.0663
 5728SOL    HW218084   4.613   6.888   6.069  0.1217 -0.5768 -0.5026
 5729SOL     OW18085   1.058   2.539   1.564 -1.0654 -0.0892  0.2034
 5729SOL    HW118086   1.033   2.570   1.656 -0.5335 -0.5051  0.4952
 5729SOL    HW218087   0.981   2.489   1.524 -1.7847  1.2229 -0.1126
 5730SOL     OW18088   6.871   5.165   5.635 -0.1617  0.3586 -0.5331
 5730SOL    HW118089   6.803   5.148   5.564 -1.2277  1.1750  0.2789
 5730SOL    HW218090   6.886   5.263   5.646 -1.1432  0.3347  1.3996
 5731SOL     OW18091   2.378   0.936   4.058  0.2379 -0.9489 -0.1079
 5731SOL    HW118092   2.358   0.996   3.980 -0.4279 -0.2596  0.5771
 5731SOL    HW218093   2.476   0.917   4.061  0.3583 -0.4710 -0.7428
 5732SOL     OW18094   0.565   3.405   3.945  0.6379  0.5101 -0.0389
 5732SOL    HW118095   0.630   3.477   3.967  2.0953 -0.2134 -1.7107
 5732SOL    HW218096   0.610   3.316   3.951 -0.1956 -0.0181 -1.2154
 5733SOL     OW18097   3.410   0.094   6.410  0.1575 -0.0086  0.1543
 5733SOL    HW118098   3.419   0.047   6.497 -0.2743 -0.5134 -0.0656
 5733SOL    HW218099   3.431   0.031   6.335  0.1304  0.3041 -0.1220
 5734SOL     OW18100   2.029   1.831   0.667 -0.2430  0.7739  0.4051
 5734SOL    HW118101   2.110   1.890   0.663  0.2982  0.0822  1.0973
 5734SOL    HW218102   2.040   1.763   0.739  0.3817 -1.9679 -2.0782
 5735SOL     OW18103   5.299   1.985   2.700  0.3313 -0.2259 -0.2698
 5735SOL    HW118104   5.315   2.080   2.674  0.9412 -0.7951 -2.1744
 5735SOL    HW218105   5.210   1.956   2.667  0.6001 -0.6208 -0.6538
 5736SOL     OW18106   4.648   4.235   0.461 -0.1975 -0.1791  0.5878
 5736SOL    HW118107   4.731   4.181   0.479 -0.4495 -1.8326 -2.6162
 5736SOL    HW218108   4.674   4.324   0.425  0.1497  0.3491  2.0461
 5737SOL     OW18109   6.688   6.511   1.638  0.1678 -0.4493 -0.0164
 5737SOL    HW118110   6.754   6.509   1.563 -1.2677 -2.1937 -1.3414
 5737SOL    HW218111   6.731   6.475   1.721  1.4751  0.4795 -0.2584
 5738SOL     OW18112   3.649   0.459   6.649 -0.2616 -0.2780 -0.2431
 5738SOL    HW118113   3.683   0.441   6.557  0.7701 -1.0773  0.2706
 5738SOL    HW218114   3.692   0.541   6.685  1.5153 -1.4824  0.5420
 5739SOL     OW18115   1.243   0.398   6.934 -0.3588 -0.3098  0.2347
 5739SOL    HW118116   1.232   0.351   7.022 -1.3982 -1.1755 -0.3358
 5739SOL    HW218117   1.340   0.409   6.914 -0.1052 -0.5650  1.2458
 5740SOL     OW18118   3.516   3.000   6.734 -0.6858  0.0626 -0.3419
 5740SOL    HW118119   3.439   2.957   6.685 -0.9584  0.1402  0.0134
 5740SOL    HW218120   3.548   3.079   6.682  1.9092 -2.3073 -2.7024
 5741SOL     OW18121   2.102   4.355   3.805  0.2354 -0.6959 -0.1075
 5741SOL    HW118122   2.064   4.268   3.773  0.3635 -1.5314  1.8274
 5741SOL    HW218123   2.066   4.375   3.896  0.5537  1.0783 -0.3373
 5742SOL     OW18124   5.495   5.886   1.635  0.3837  0.2928  0.3592
 5742SOL    HW118125   5.403   5.848   1.627  0.5563 -0.2526  0.8784
 5742SOL    HW218126   5.557   5.835   1.576  0.2630  0.9746 -0.3621
 5743SOL     OW18127   2.756   5.806   4.419 -0.0589 -0.1736 -0.4214
 5743SOL    HW118128   2.687   5.843   4.356 -1.3268 -0.4449  0.7723
 5743SOL    HW218129   2.833   5.870   4.424 -1.0155  1.0354 -0.4287
 5744SOL     OW18130   6.758   0.776   3.745 -0.1015  0.0654  0.2455
 5744SOL    HW118131   6.845   0.728   3.758  1.1961  1.7047 -1.7415
 5744SOL    HW218132   6.700   0.762   3.825  1.3891 -2.2508  1.0250
 5745SOL     OW18133   2.247   0.561   4.336  0.3311  1.1484  0.2110
 5745SOL    HW118134   2.289   0.470   4.332 -0.7868  0.6322 -0.2835
 5745SOL    HW218135   2.310   0.625   4.379  0.9439  0.0298  1.0276
 5746SOL     OW18136   6.143   0.650   0.324 -0.3946  0.2705  0.9440
 5746SOL    HW118137   6.159   0.595   0.406 -0.8493 -1.0882  0.1630
 5746SOL    HW218138   6.103   0.592   0.252  1.0219  1.1476 -0.6239
 5747SOL     OW18139   0.912   3.884   1.574 -0.5291  0.0699  0.1902
 5747SOL    HW118140   0.858   3.885   1.659  0.6202  0.7803  0.9394
 5747SOL    HW218141   0.977   3.959   1.575  1.2060 -1.3501 -0.2070
 5748SOL     OW18142   0.134   5.261   5.528  0.5034  0.2141  0.3452
 5748SOL    HW118143   0.078   5.321   5.585 -0.6570  0.3096 -0.8295
 5748SOL    HW218144   0.101   5.167   5.537  0.3860  0.2144 -0.0700
 5749SOL     OW18145   3.220   6.002   4.540  0.0643  0.2578 -0.3265
 5749SOL    HW118146   3.215   6.101   4.557  2.2806  0.5001 -0.7023
 5749SOL    HW218147   3.276   5.986   4.459 -2.9668 -1.2265 -2.2753
 5750SOL     OW18148   5.384   4.328   4.904  0.1841  0.4712  0.0699
 5750SOL    HW118149   5.419   4.302   4.994 -1.4556 -0.2088  0.5665
 5750SOL    HW218150   5.432   4.277   4.833  1.8760  1.4183  0.4829
 5751SOL     OW18151   0.629   2.759   5.990  0.4072 -0.2263 -0.5632
 5751SOL    HW118152   0.704   2.731   5.929  1.1509 -0.4061  0.4113
 5751SOL    HW218153   0.649   2.730   6.083 -0.2872  0.8252 -0.0647
 5752SOL     OW18154   0.725   6.354   6.739  0.4706 -0.3018  0.3202
 5752SOL    HW118155   0.667   6.281   6.702 -1.3991  0.5746  1.3793
 5752SOL    HW218156   0.737   6.340   6.837  0.7512  0.3861  0.3849
 5753SOL     OW18157   4.023   3.786   4.459 -0.0266 -0.7334 -0.5069
 5753SOL    HW118158   4.009   3.837   4.374  0.2498 -0.1263 -0.1937
 5753SOL    HW218159   4.080   3.706   4.440  0.9528 -0.0141 -0.7150
 5754SOL     OW18160   0.702   6.974   1.408  0.1808  0.4391 -0.3934
 5754SOL    HW118161   0.645   7.042   1.455  1.2114 -0.1840  1.9344
 5754SOL    HW218162   0.686   6.884   1.449  1.2987 -0.1150 -1.1269
 5755SOL     OW18163   1.319   2.840   6.825  0.1672  0.1255 -0.1005
 5755SOL    HW118164   1.373   2.912   6.781 -0.2950 -0.1751 -1.1863
 5755SOL    HW218165   1.377   2.789   6.889  1.1884 -0.2336 -1.2764
 5756SOL     OW18166   6.766   2.553   3.067 -0.0320  0.1710  0.0478
 5756SOL    HW118167   6.691   2.576   3.128  1.2469  1.0732  1.3548
 5756SOL    HW218168   6.761   2.610   2.984 -0.7906  0.1940  0.1054
 5757SOL     OW18169   0.202   4.148   6.030 -0.5514  0.4957  0.3831
 5757SOL    HW118170   0.157   4.071   5.985  0.2412 -0.6062  1.4181
 5757SOL    HW218171   0.174   4.233   5.986 -2.0835 -0.3037 -0.2693
 5758SOL     OW18172   3.891   2.134   3.110 -0.2147 -0.7754  0.0054
 5758SOL    HW118173   3.986   2.134   3.080 -0.0143  3.0344  0.1114
 5758SOL    HW218174   3.887   2.120   3.209  0.2925 -0.4554  0.0711
 5759SOL     OW18175   5.819   2.043   6.423 -0.5195  0.1665 -0.0504
 5759SOL    HW118176   5.719   2.050   6.432 -0.4738 -0.1441  0.7288
 5759SOL    HW218177   5.856   1.994   6.502 -0.0235 -2.0119 -1.5350
 5760SOL     OW18178   5.062   4.300   1.500  0.1089  0.3455  0.4002
 5760SOL    HW118179   5.122   4.349   1.437  0.5229 -1.7050 -0.9076
 5760SOL    HW218180   4.978   4.274   1.453 -0.3837  0.3704  1.2451
 5761SOL     OW18181   6.262   5.330   5.943 -0.4283  0.0902  0.1375
 5761SOL    HW118182   6.341   5.275   5.972 -0.8775 -0.9447 -0.5519
 5761SOL    HW218183   6.284   5.427   5.952  1.2553 -0.1641 -0.8916
 5762SOL     OW18184   4.596   6.355   1.124 -0.3691  0.1492  0.1512
 5762SOL    HW118185   4.597   6.427   1.056 -0.6170 -0.5837 -0.6466
 5762SOL    HW218186   4.505   6.350   1.166 -0.8887 -0.8190 -1.0361
 5763SOL     OW18187   6.801   4.930   0.603  0.2948  0.3087 -0.0054
 5763SOL    HW118188   6.745   5.001   0.561  1.8357  1.7367  0.2786
 5763SOL    HW218189   6.753   4.892   0.682 -1.1276  0.0446 -0.9533
 5764SOL     OW18190   3.787   5.770   5.051  0.6352 -0.2331  0.2278
 5764SOL    HW118191   3.790   5.677   5.015  0.7343 -0.0533 -0.2459
 5764SOL    HW218192   3.879   5.800   5.075  0.9773  0.5684 -1.8398
 5765SOL     OW18193   5.979   3.801   0.604 -0.1561  0.1561 -0.5343
 5765SOL    HW118194   5.958   3.709   0.568 -0.8954  0.4754 -0.9420
 5765SOL    HW218195   5.906   3.830   0.665 -0.2694  0.7628 -0.9557
 5766SOL     OW18196   2.101   1.362   3.918 -0.0213  0.2649  0.2386
 5766SOL    HW118197   2.150   1.417   3.985  0.5518  1.0209 -0.7804
 5766SOL    HW218198   2.141   1.375   3.828  0.1012 -1.7843 -0.0642
 5767SOL     OW18199   3.439   0.893   1.079 -0.0851 -0.0622 -0.2128
 5767SOL    HW118200   3.450   0.814   1.140  1.8085  1.5047  1.6686
 5767SOL    HW218201   3.385   0.963   1.125 -2.3015 -0.4127 -2.1088
 5768SOL     OW18202   3.076   0.070   2.705  0.3289  0.5308  0.0118
 5768SOL    HW118203   3.045   0.041   2.795 -0.6440  0.4120 -0.3501
 5768SOL    HW218204   3.004   0.124   2.661  1.5393  2.3048  0.0942
 5769SOL     OW18205   2.553   5.100   5.592  0.0676 -0.6343  0.5544
 5769SOL    HW118206   2.513   5.021   5.546  0.3805 -0.7715  0.5096
 5769SOL    HW218207   2.650   5.106   5.566 -0.3777  0.8530 -0.9476
 5770SOL     OW18208   0.787   5.512   4.731 -0.0627 -0.3067  0.6413
 5770SOL    HW118209   0.745   5.423   4.713  1.3943 -0.7866 -0.5873
 5770SOL    HW218210   0.886   5.501   4.738  0.0673  1.1016  1.3692
 5771SOL     OW18211   2.010   6.264   3.692 -0.8185 -0.1883 -0.0868
 5771SOL    HW118212   2.071   6.186   3.705 -0.7917 -0.4098 -1.3784
 5771SOL    HW218213   1.932   6.255   3.752  0.1095 -0.2217  1.1502
 5772SOL     OW18214   4.370   1.413   1.933  0.2878  0.4379  0.1401
 5772SOL    HW118215   4.345   1.503   1.969 -0.4034  1.0148 -1.6588
 5772SOL    HW218216   4.334   1.342   1.993 -0.0138  1.3418  1.0592
 5773SOL     OW18217   4.778   0.422   1.684 -0.4792  0.3433 -0.2857
 5773SOL    HW118218   4.685   0.429   1.721 -0.8735 -0.3918 -1.0955
 5773SOL    HW218219   4.787   0.483   1.606 -0.3226  0.3270 -0.2790
 5774SOL     OW18220   3.965   6.174   4.100 -0.1194 -0.0473 -0.3130
 5774SOL    HW118221   3.907   6.255   4.087 -1.7617 -1.1406 -0.1411
 5774SOL    HW218222   3.997   6.142   4.011 -2.1713 -1.0588 -0.7533
 5775SOL     OW18223   1.676   1.633   3.209 -0.1594 -0.3385  0.3170
 5775SOL    HW118224   1.683   1.732   3.224 -1.2145 -0.3540  0.9839
 5775SOL    HW218225   1.678   1.586   3.297 -0.7349 -0.8326  0.0718
 5776SOL     OW18226   1.586   6.660   4.082 -0.2098 -0.0864  0.0556
 5776SOL    HW118227   1.547   6.621   3.999 -0.9293 -2.9346  1.6034
 5776SOL    HW218228   1.685   6.646   4.082 -0.3040 -0.7940 -0.0006
 5777SOL     OW18229   6.840   0.418   6.295  0.2595  0.5280 -0.0955
 5777SOL    HW118230   6.931   0.408   6.334 -0.3632 -0.4730  1.1878
 5777SOL    HW218231   6.846   0.416   6.195  1.4455 -1.8289 -0.0528
 5778SOL     OW18232   2.090   0.961   0.456 -0.2336  0.7045  0.3918
 5778SOL    HW118233   2.154   0.947   0.380  0.6746  0.3559  1.1956
 5778SOL    HW218234   2.017   1.023   0.427 -2.3772 -2.6280 -2.1983
 5779SOL     OW18235   6.233   0.866   2.391 -0.2405 -0.5390 -0.1775
 5779SOL    HW118236   6.269   0.856   2.483  0.4849  0.5976 -0.3132
 5779SOL    HW218237   6.302   0.837   2.325  0.7921  2.2277 -0.4611
 5780SOL     OW18238   0.887   6.449   4.141  0.2360  0.0917 -0.7968
 5780SOL    HW118239   0.925   6.511   4.073 -0.6576 -0.2044 -1.5869
 5780SOL    HW218240   0.790   6.471   4.155  0.1214 -0.5915 -0.4798
 5781SOL     OW18241   0.119   6.008   2.165  0.0995 -0.6577 -0.1312
 5781SOL    HW118242   0.116   6.052   2.256 -1.5283 -1.7714  0.4020
 5781SOL    HW218243   0.095   6.076   2.095  0.3577 -0.0351  0.3676
 5782SOL     OW18244   1.391   1.958   0.900 -0.1458 -0.5143 -0.2573
 5782SOL    HW118245   1.486   1.944   0.929  0.4193  0.3423 -1.6157
 5782SOL    HW218246   1.368   2.055   0.906 -1.3751 -0.8621  1.2732
 5783SOL     OW18247   5.493   1.861   1.871  0.0668  0.1681 -0.0192
 5783SOL    HW118248   5.588   1.830   1.884  0.0379  0.1522  0.1576
 5783SOL    HW218249   5.431   1.793   1.911 -0.0185  0.1817 -0.1310
 5784SOL     OW18250   6.699   6.100   5.300  0.2897  0.3797 -0.1377
 5784SOL    HW118251   6.775   6.101   5.235  0.6689 -0.9034  0.2676
 5784SOL    HW218252   6.733   6.086   5.392 -0.4347 -0.1449  0.0562
 5785SOL     OW18253   2.142   1.972   6.614 -0.2091 -0.3030 -0.0624
 5785SOL    HW118254   2.201   2.050   6.595 -0.8490  0.2948  0.3401
 5785SOL    HW218255   2.175   1.892   6.565  1.7178 -0.3266  1.1768
 5786SOL     OW18256   1.629   4.260   0.242  0.3759  0.5465  0.0464
 5786SOL    HW118257   1.616   4.294   0.335  0.3074 -1.5420  0.8608
 5786SOL    HW218258   1.644   4.161   0.244  0.0345  0.3795 -2.1944
 5787SOL     OW18259   3.400   0.598   6.285 -0.0057  0.4875 -0.1400
 5787SOL    HW118260   3.346   0.581   6.202 -2.0670  1.5339  0.9051
 5787SOL    HW218261   3.439   0.512   6.318  1.0857  0.0746 -2.2822
 5788SOL     OW18262   5.701   0.197   2.284  0.2790 -0.1633 -0.2382
 5788SOL    HW118263   5.663   0.117   2.236  1.3672 -1.7057  1.3601
 5788SOL    HW218264   5.629   0.240   2.338 -0.3372  0.0056 -1.1648
 5789SOL     OW18265   2.772   3.089   6.232  0.5134 -0.8786 -0.3779
 5789SOL    HW118266   2.767   2.997   6.194  1.6962 -1.4358  0.7423
 5789SOL    HW218267   2.849   3.095   6.295  0.5999  0.9610 -0.6044
 5790SOL     OW18268   0.522   3.887   4.732  0.1375  0.0913  0.1285
 5790SOL    HW118269   0.608   3.934   4.748  0.8305 -0.3133 -2.0779
 5790SOL    HW218270   0.536   3.788   4.738 -0.0017  0.0002 -0.8268
 5791SOL     OW18271   5.087   1.169   2.560  0.8891 -0.3662 -0.2274
 5791SOL    HW118272   5.130   1.080   2.575  0.3121 -0.7071 -0.5435
 5791SOL    HW218273   5.001   1.173   2.610  1.7381  0.6852  1.2126
 5792SOL     OW18274   5.375   2.832   0.522  0.3575  0.0425  0.0022
 5792SOL    HW118275   5.330   2.743   0.526 -0.6771  0.5750  0.4328
 5792SOL    HW218276   5.319   2.900   0.569  1.4223  0.8080  0.2047
 5793SOL     OW18277   4.836   1.224   5.090  0.1968 -0.3492  0.2061
 5793SOL    HW118278   4.861   1.169   5.170  0.3861  1.2901  1.3198
 5793SOL    HW218279   4.755   1.186   5.047 -0.6668 -0.5455  1.9452
 5794SOL     OW18280   1.632   2.046   6.609  0.0488 -0.0038  0.1999
 5794SOL    HW118281   1.660   2.083   6.521  0.4112 -0.1034  0.2703
 5794SOL    HW218282   1.684   1.963   6.628  0.1167  0.1265  0.5950
 5795SOL     OW18283   6.590   0.266   6.551  0.0349 -0.0193  0.4713
 5795SOL    HW118284   6.502   0.309   6.570  0.1264  0.3374  0.0989
 5795SOL    HW218285   6.606   0.265   6.452  0.8765  0.8015  0.5788
 5796SOL     OW18286   4.247   1.700   0.377  0.0738  0.0910  0.4764
 5796SOL    HW118287   4.256   1.605   0.347  0.0498  0.4667 -0.7746
 5796SOL    HW218288   4.318   1.720   0.445  0.7639 -0.5213 -0.0429
 5797SOL     OW18289   5.560   2.343   0.260 -0.6406 -0.5213 -0.3185
 5797SOL    HW118290   5.620   2.418   0.288  3.2615 -3.0516 -0.9920
 5797SOL    HW218291   5.483   2.379   0.208 -0.9899  3.1759  2.3489
 5798SOL     OW18292   6.997   5.472   4.455 -0.5851  0.0935 -0.5657
 5798SOL    HW118293   7.074   5.509   4.402 -1.0414  3.5640  0.8870
 5798SOL    HW218294   7.031   5.434   4.541 -0.3008 -0.5964 -0.9791
 5799SOL     OW18295   1.762   0.511   3.233 -0.0380 -0.1990  0.0452
 5799SOL    HW118296   1.793   0.591   3.285 -1.6194 -0.5533  1.6168
 5799SOL    HW218297   1.813   0.505   3.147  0.0488  2.5383 -0.1653
 5800SOL     OW18298   5.801   5.378   2.150 -0.9232 -0.3095 -0.3935
 5800SOL    HW118299   5.803   5.394   2.051 -0.5220 -0.9114 -0.4899
 5800SOL    HW218300   5.722   5.320   2.173  0.5566 -2.5674 -0.7611
 5801SOL     OW18301   2.158   2.042   3.180  0.0726  0.0760  0.0820
 5801SOL    HW118302   2.139   2.125   3.232 -0.7623  0.2752 -0.5311
 5801SOL    HW218303   2.226   1.987   3.230  2.3824  2.1421 -0.5745
 5802SOL     OW18304   6.828   5.768   2.726 -0.5036  0.3773 -0.4459
 5802SOL    HW118305   6.754   5.834   2.717  0.8537  2.2630  1.4712
 5802SOL    HW218306   6.886   5.792   2.804  0.5241 -2.6514 -0.1331
 5803SOL     OW18307   6.887   4.766   0.357  0.1699 -0.0743  0.0701
 5803SOL    HW118308   6.878   4.840   0.424 -0.5976  1.4004 -1.5878
 5803SOL    HW218309   6.798   4.746   0.317  0.6876 -0.5717 -0.8716
 5804SOL     OW18310   0.183   4.125   3.607 -0.7423 -0.3944 -0.2696
 5804SOL    HW118311   0.260   4.140   3.546  0.4654  0.7476  1.4705
 5804SOL    HW218312   0.098   4.139   3.556  0.1717 -0.7395 -1.9838
 5805SOL     OW18313   1.301   2.987   0.077 -0.1387  0.1724 -0.0528
 5805SOL    HW118314   1.399   3.002   0.070 -0.1124 -0.0068 -0.0648
 5805SOL    HW218315   1.283   2.900   0.124 -0.2959  1.2554  2.0096
 5806SOL     OW18316   0.493   6.808   6.395  0.2035  0.4131  0.0509
 5806SOL    HW118317   0.424   6.748   6.354  1.0668 -0.1105 -0.6520
 5806SOL    HW218318   0.578   6.803   6.343  1.0314  0.4676  1.3387
 5807SOL     OW18319   6.606   2.921   0.414  0.3986  0.7569 -0.2723
 5807SOL    HW118320   6.679   2.963   0.361  0.9798  0.0257 -0.0730
 5807SOL    HW218321   6.611   2.952   0.509 -0.5368  1.9323 -0.5868
 5808SOL     OW18322   5.737   6.745   5.984  0.4489 -0.2135  0.0968
 5808SOL    HW118323   5.701   6.732   5.892  0.9298 -2.0205  0.1235
 5808SOL    HW218324   5.814   6.809   5.981 -0.4402  0.8540 -0.5137
 5809SOL     OW18325   5.226   0.872   3.973 -0.1315 -0.3544 -0.0583
 5809SOL    HW118326   5.252   0.933   3.898  0.5468 -0.5619  0.0031
 5809SOL    HW218327   5.291   0.796   3.978 -0.9449 -1.0761 -0.1175
 5810SOL     OW18328   4.115   1.088   4.413 -0.1776  0.1480  0.1601
 5810SOL    HW118329   4.117   1.071   4.314  1.0473  0.9997  0.0162
 5810SOL    HW218330   4.201   1.130   4.441  0.0186 -1.2542  1.8292
 5811SOL     OW18331   4.222   1.386   5.469  0.1155 -0.2850 -0.5815
 5811SOL    HW118332   4.321   1.400   5.460  0.0806 -0.8652 -2.1587
 5811SOL    HW218333   4.204   1.324   5.545  1.0517 -1.0620 -0.9754
 5812SOL     OW18334   6.851   4.565   3.060 -0.3716  0.3773  0.0394
 5812SOL    HW118335   6.855   4.469   3.088  1.2478  0.6845  0.9858
 5812SOL    HW218336   6.941   4.608   3.074 -1.2286  2.1997  0.2789
 5813SOL     OW18337   1.313   1.882   6.632  0.0596  0.3788 -0.1780
 5813SOL    HW118338   1.252   1.955   6.601  0.1730 -0.8099 -3.6069
 5813SOL    HW218339   1.408   1.910   6.617  0.2425  0.5304  1.1072
 5814SOL     OW18340   5.315   4.837   0.999 -0.1356 -0.3031 -0.5910
 5814SOL    HW118341   5.250   4.771   1.038  0.7824 -0.5627  0.5720
 5814SOL    HW218342   5.372   4.873   1.073  0.3492  0.6974 -1.4465
 5815SOL     OW18343   4.699   2.891   4.225  0.0281  0.5157 -0.7134
 5815SOL    HW118344   4.722   2.960   4.294  0.7929 -0.0797 -0.3606
 5815SOL    HW218345   4.725   2.925   4.134 -1.1435  1.3748 -0.7577
 5816SOL     OW18346   3.561   6.457   1.649  0.4761  0.3215 -0.0480
 5816SOL    HW118347   3.589   6.520   1.721 -3.3501  0.9499  1.1045
 5816SOL    HW218348   3.581   6.363   1.677  1.5212  0.6985  0.5366
 5817SOL     OW18349   6.144   3.637   4.384 -0.5978 -0.0606  0.1951
 5817SOL    HW118350   6.135   3.545   4.422 -1.4116 -0.5095 -1.0250
 5817SOL    HW218351   6.216   3.686   4.432  0.2990 -1.5629  0.4466
 5818SOL     OW18352   6.238   0.083   6.477 -0.1226  0.0926 -0.7244
 5818SOL    HW118353   6.177   0.042   6.544  0.4591  0.1088 -0.1759
 5818SOL    HW218354   6.200   0.072   6.385 -1.2126  0.5736 -0.3421
 5819SOL     OW18355   4.606   0.537   0.758  0.4932  0.5041 -0.2112
 5819SOL    HW118356   4.527   0.476   0.761  0.8199  0.1130  1.2824
 5819SOL    HW218357   4.658   0.521   0.674 -0.3904 -0.0253 -0.6657
 5820SOL     OW18358   3.226   6.858   5.645 -0.8289  0.6688  0.3475
 5820SOL    HW118359   3.145   6.916   5.632 -2.6406 -1.7962 -0.0137
 5820SOL    HW218360   3.242   6.845   5.743 -1.1847  0.7668  0.4213
 5821SOL     OW18361   1.840   1.362   2.693  0.2663  0.4215 -0.6564
 5821SOL    HW118362   1.930   1.399   2.671  0.0636 -0.5408 -3.5356
 5821SOL    HW218363   1.850   1.268   2.726  0.3749  0.8041  0.4350
 5822SOL     OW18364   0.764   2.270   1.669 -0.2610  0.4254  0.2496
 5822SOL    HW118365   0.742   2.365   1.692 -1.3157 -0.0012  1.1277
 5822SOL    HW218366   0.726   2.248   1.579  0.6915  1.0542 -0.3222
 5823SOL     OW18367   2.089   6.439   0.745  0.4697  0.4630 -0.7218
 5823SOL    HW118368   2.043   6.361   0.703  1.7799 -0.6678 -0.1438
 5823SOL    HW218369   2.021   6.510   0.766 -0.6456 -0.1953 -1.9132
 5824SOL     OW18370   0.096   5.318   0.912  0.1748 -0.2134 -0.0112
 5824SOL    HW118371   0.191   5.293   0.890 -0.6519 -2.5405 -1.3100
 5824SOL    HW218372   0.048   5.238   0.947 -1.0515  1.2240  1.7798
 5825SOL     OW18373   1.911   1.489   4.845 -0.1898 -0.4807 -0.2566
 5825SOL    HW118374   1.908   1.586   4.820  2.3375 -0.1186  0.6076
 5825SOL    HW218375   1.974   1.441   4.784  0.8591 -0.9419  1.1434
 5826SOL     OW18376   0.499   4.524   4.547  0.0197 -0.6362 -0.1544
 5826SOL    HW118377   0.479   4.501   4.452 -0.2994 -1.3292  0.0757
 5826SOL    HW218378   0.515   4.440   4.599 -0.0413 -0.2753  0.4593
 5827SOL     OW18379   2.047   2.774   4.510 -0.5594 -1.0021 -0.0668
 5827SOL    HW118380   2.082   2.838   4.579 -0.6632  0.1030 -1.0062
 5827SOL    HW218381   2.029   2.686   4.553  1.6439 -1.0696  0.8164
 5828SOL     OW18382   6.299   2.453   1.555 -0.3488 -0.4036 -0.2517
 5828SOL    HW118383   6.356   2.523   1.512  1.4859 -1.2083  0.7640
 5828SOL    HW218384   6.355   2.375   1.581 -2.2113 -1.9161 -0.5747
 5829SOL     OW18385   1.458   1.568   3.836  0.4724  0.1783  0.5203
 5829SOL    HW118386   1.390   1.500   3.865 -0.0647  0.5853  0.2462
 5829SOL    HW218387   1.549   1.539   3.864  0.2045 -0.4723  0.7300
 5830SOL     OW18388   6.095   0.277   5.486 -0.4006  0.1551  0.1028
 5830SOL    HW118389   6.036   0.330   5.546 -0.2835  0.8564 -0.3889
 5830SOL    HW218390   6.051   0.266   5.397 -0.5869 -0.9025  0.3112
 5831SOL     OW18391   2.630   0.998   5.998  0.1136 -0.2498 -0.1840
 5831SOL    HW118392   2.646   0.906   5.964 -0.3397 -0.0741 -0.8979
 5831SOL    HW218393   2.579   0.994   6.084  2.2680 -0.7458  1.1342
 5832SOL     OW18394   3.148   3.104   6.266 -0.0295 -0.5033 -0.3418
 5832SOL    HW118395   3.120   3.064   6.179 -0.2361  0.6277 -0.8216
 5832SOL    HW218396   3.243   3.135   6.260 -0.1024 -0.2527 -0.2361
 5833SOL     OW18397   3.993   3.908   4.728  0.1574 -0.1329  0.0256
 5833SOL    HW118398   3.950   3.998   4.728  3.1220  1.4279  1.9396
 5833SOL    HW218399   4.019   3.883   4.635 -2.2510  0.0842 -0.7819
 5834SOL     OW18400   0.468   4.617   0.222  0.1668  0.1290 -0.6596
 5834SOL    HW118401   0.419   4.700   0.248 -1.8702 -1.3872  0.6359
 5834SOL    HW218402   0.415   4.567   0.154  0.0201 -1.3760  0.5110
 5835SOL     OW18403   4.617   0.905   3.061 -0.4152 -0.1900 -0.2299
 5835SOL    HW118404   4.666   0.907   2.973 -0.4828  2.5716 -0.2841
 5835SOL    HW218405   4.529   0.858   3.049  1.4159 -3.8399 -0.4898
 5836SOL     OW18406   4.491   0.128   1.733 -0.4664 -0.1646 -0.6236
 5836SOL    HW118407   4.480   0.174   1.822 -2.8509  1.0862 -1.4719
 5836SOL    HW218408   4.477   0.030   1.745  0.6301 -0.1974  0.5897
 5837SOL     OW18409   4.809   3.853   5.930 -0.5692  0.3729 -0.4048
 5837SOL    HW118410   4.779   3.939   5.972 -0.8634 -0.0957  0.3868
 5837SOL    HW218411   4.905   3.861   5.902 -0.8636  1.2618 -1.2109
 5838SOL     OW18412   2.543   0.790   1.018 -0.0310 -0.1043 -0.1219
 5838SOL    HW118413   2.593   0.711   1.055 -0.6361 -0.0582  0.8115
 5838SOL    HW218414   2.598   0.832   0.946 -0.0865 -1.9080 -1.2718
 5839SOL     OW18415   0.594   1.894   0.522  0.0723  0.1090 -0.1549
 5839SOL    HW118416   0.660   1.912   0.449  0.0350 -2.1620 -0.8145
 5839SOL    HW218417   0.638   1.907   0.611  2.2376 -3.5425 -0.5081
 5840SOL     OW18418   0.009   5.053   3.723  0.3296 -0.2216 -0.1261
 5840SOL    HW118419  -0.023   5.057   3.818 -1.5505 -2.0931 -0.5931
 5840SOL    HW218420  -0.018   4.965   3.683 -1.5349  1.5932 -3.2759
 5841SOL     OW18421   5.469   2.567   2.691  0.2157 -0.3811  0.6581
 5841SOL    HW118422   5.388   2.532   2.644  0.0004 -1.0332  1.4769
 5841SOL    HW218423   5.547   2.567   2.628 -0.3179 -0.1411 -0.0175
 5842SOL     OW18424   4.633   3.197   0.150 -0.2734  0.1694  0.3658
 5842SOL    HW118425   4.567   3.126   0.174  0.8237 -0.4361  1.8304
 5842SOL    HW218426   4.707   3.157   0.096  0.3057  0.1829  1.1221
 5843SOL     OW18427   1.855   5.189   2.685 -0.0284 -0.9161  0.0062
 5843SOL    HW118428   1.895   5.269   2.729  0.0028 -1.5446  1.1611
 5843SOL    HW218429   1.799   5.218   2.608 -0.0002  0.2203  0.3962
 5844SOL     OW18430   1.713   0.315   6.638 -0.2737 -0.0786  0.5557
 5844SOL    HW118431   1.789   0.253   6.617  0.1352  0.0531  1.6212
 5844SOL    HW218432   1.691   0.368   6.556 -1.0902 -2.0785 -0.5927
 5845SOL     OW18433   0.812   0.877   2.145  0.1453  0.3927 -0.1534
 5845SOL    HW118434   0.744   0.883   2.071 -1.2900 -0.7539  1.0020
 5845SOL    HW218435   0.804   0.788   2.190  0.9479  1.0754  1.4127
 5846SOL     OW18436   0.402   2.689   5.555 -0.0458  0.4061 -0.3652
 5846SOL    HW118437   0.432   2.593   5.555 -1.2875 -0.0421 -2.3328
 5846SOL    HW218438   0.411   2.727   5.647 -0.7701 -1.9988  0.7806
 5847SOL     OW18439   0.808   2.481   0.609  0.7869 -0.0014 -0.4917
 5847SOL    HW118440   0.767   2.565   0.574 -1.7551 -1.4819 -1.3308
 5847SOL    HW218441   0.744   2.436   0.671  2.2594 -1.1209  0.2822
 5848SOL     OW18442   1.521   3.295   3.517 -0.7292  0.1489  0.6462
 5848SOL    HW118443   1.455   3.260   3.449  1.5329  1.4098 -2.4198
 5848SOL    HW218444   1.490   3.384   3.550 -2.4873 -1.0244  2.3754
 5849SOL     OW18445   6.976   0.189   0.040  0.3263 -0.0381  0.4426
 5849SOL    HW118446   6.909   0.263   0.050  0.1139 -0.1631 -0.0123
 5849SOL    HW218447   6.929   0.101   0.050  0.4355 -0.1245  0.2082
 5850SOL     OW18448   6.730   3.729   2.379 -0.5910  0.1850 -0.0629
 5850SOL    HW118449   6.829   3.725   2.369 -0.5829  1.8181 -0.9609
 5850SOL    HW218450   6.687   3.657   2.325  0.0997 -0.4729  0.2649
 5851SOL     OW18451   5.074   4.099   3.533  0.4007 -0.0782  0.2066
 5851SOL    HW118452   5.074   4.194   3.500 -2.4504 -0.3083 -0.7137
 5851SOL    HW218453   5.040   4.096   3.627  0.6266 -0.1794  0.2853
 5852SOL     OW18454   1.625   6.875   3.780 -0.6685 -0.0931  0.6965
 5852SOL    HW118455   1.556   6.862   3.851  0.1969 -1.1350  1.3683
 5852SOL    HW218456   1.716   6.875   3.822 -0.1594 -0.5194 -0.3912
 5853SOL     OW18457   4.548   4.905   3.058 -0.0912 -0.3825  0.1413
 5853SOL    HW118458   4.481   4.841   3.019 -0.7856  0.2744  0.2337
 5853SOL    HW218459   4.500   4.983   3.099  0.6260 -0.9287  2.1284
 5854SOL     OW18460   6.603   4.613   6.044  0.1761 -0.0202  0.4461
 5854SOL    HW118461   6.510   4.643   6.064  0.0245  0.3217 -0.7019
 5854SOL    HW218462   6.604   4.562   5.958  0.9819 -0.3850  0.6624
 5855SOL     OW18463   1.682   1.335   4.910 -0.1899  0.3198  0.1147
 5855SOL    HW118464   1.629   1.363   4.990  0.3074  1.3285  0.1093
 5855SOL    HW218465   1.760   1.396   4.899  0.4394 -0.5577 -0.4383
 5856SOL     OW18466   1.725   6.893   2.833 -0.5939 -0.1534  0.1375
 5856SOL    HW118467   1.817   6.924   2.812 -0.8481  0.9529  0.6020
 5856SOL    HW218468   1.663   6.971   2.837 -2.0413 -1.0605 -2.4590
 5857SOL     OW18469   4.756   1.638   5.584  0.1378  0.1037 -0.1122
 5857SOL    HW118470   4.836   1.682   5.623 -0.2462 -0.2055  1.0781
 5857SOL    HW218471   4.784   1.576   5.510  1.0240 -0.1932  0.4563
 5858SOL     OW18472   1.582   2.126   6.923 -0.0899  0.4692  0.4465
 5858SOL    HW118473   1.582   2.061   6.999 -1.2652  0.1233  0.1718
 5858SOL    HW218474   1.604   2.077   6.838 -0.1042  0.6012  0.3670
 5859SOL     OW18475   6.385   5.813   1.680 -0.4596 -0.2773  0.7125
 5859SOL    HW118476   6.336   5.746   1.624  1.0552 -1.2266  0.4760
 5859SOL    HW218477   6.464   5.769   1.722  0.8020  1.4703  0.2533
 5860SOL     OW18478   1.526   2.813   1.936  0.0374 -0.4807  0.2272
 5860SOL    HW118479   1.506   2.752   2.012  2.4720 -1.4777  0.1719
 5860SOL    HW218480   1.463   2.794   1.861 -2.0608  0.1665  1.7372
 5861SOL     OW18481   3.809   1.026   4.235  0.2928  0.1359  0.5291
 5861SOL    HW118482   3.754   1.044   4.316 -0.0591 -1.1674  0.6021
 5861SOL    HW218483   3.857   1.110   4.208  0.6481  0.5373  2.2448
 5862SOL     OW18484   4.829   2.903   0.964 -0.1955  0.2428  0.0042
 5862SOL    HW118485   4.778   2.986   0.987 -1.1837  0.2866 -2.0923
 5862SOL    HW218486   4.767   2.839   0.918  0.7990 -1.2709  0.7031
 5863SOL     OW18487   3.209   1.752   4.226 -0.1385  0.3159  0.3915
 5863SOL    HW118488   3.308   1.741   4.217  0.2205  3.5162 -1.0160
 5863SOL    HW218489   3.185   1.759   4.323  0.9448 -0.7073  0.7624
 5864SOL     OW18490   4.088   3.685   3.118  0.6062  0.3364  0.1923
 5864SOL    HW118491   4.075   3.618   3.191 -1.3901  1.4420  0.9478
 5864SOL    HW218492   4.165   3.744   3.140 -0.4515  1.1679  1.9001
 5865SOL     OW18493   5.383   1.723   4.345  0.1888 -0.0834  0.1041
 5865SOL    HW118494   5.347   1.816   4.336  1.9770  0.6447  0.0554
 5865SOL    HW218495   5.308   1.657   4.338 -1.2425  1.3806  1.0019
 5866SOL     OW18496   3.411   2.063   5.838  0.1210  0.6597 -0.3689
 5866SOL    HW118497   3.482   2.001   5.803  0.4339  1.8230 -1.9434
 5866SOL    HW218498   3.448   2.115   5.915 -0.3031 -1.3692  1.2985
 5867SOL     OW18499   2.074   4.467   1.314 -0.0891 -0.5425  0.2162
 5867SOL    HW118500   2.036   4.539   1.371 -1.4841 -0.4140 -0.8260
 5867SOL    HW218501   2.155   4.428   1.358 -0.8689 -0.1584  2.0506
 5868SOL     OW18502   0.770   3.248   6.153 -0.2789  0.1298  0.4009
 5868SOL    HW118503   0.730   3.156   6.161  1.0327 -0.4118  0.9716
 5868SOL    HW218504   0.761   3.279   6.059  0.7277 -1.3002 -0.2084
 5869SOL     OW18505   1.636   0.673   2.861  0.2897  0.5158 -0.0371
 5869SOL    HW118506   1.657   0.584   2.821 -0.3007 -0.1150  1.0072
 5869SOL    HW218507   1.543   0.672   2.897 -0.0065  1.8309 -0.7216
 5870SOL     OW18508   0.103   6.011   5.288 -0.3129  0.5249  0.0492
 5870SOL    HW118509   0.047   6.077   5.237  0.2347  1.2834  0.4115
 5870SOL    HW218510   0.048   5.931   5.310 -0.4491 -0.0567 -2.1530
 5871SOL     OW18511   2.217   3.201   1.721  0.3762 -0.1256 -0.2231
 5871SOL    HW118512   2.276   3.186   1.642  0.0953  1.5731 -0.7991
 5871SOL    HW218513   2.251   3.281   1.773  0.1438 -0.7770  0.9784
 5872SOL     OW18514   3.300   0.989   0.338 -0.3683 -0.0443 -0.6593
 5872SOL    HW118515   3.291   0.977   0.437  0.7670 -2.0476 -0.7596
 5872SOL    HW218516   3.239   0.926   0.291 -0.4073  0.4290 -1.2559
 5873SOL     OW18517   0.826   3.000   0.625  0.2746 -0.2466  0.1808
 5873SOL    HW118518   0.908   2.996   0.683 -1.2523  0.4689  2.5538
 5873SOL    HW218519   0.764   3.069   0.662 -0.7514  0.3665 -2.4974
 5874SOL     OW18520   5.017   2.692   1.731 -0.1886  0.3280  0.7142
 5874SOL    HW118521   4.974   2.655   1.648  0.8141 -1.6957  1.0403
 5874SOL    HW218522   4.955   2.757   1.775 -1.5433 -0.0590 -0.5576
 5875SOL     OW18523   5.237   1.522   0.648  0.2354 -0.2299  0.0251
 5875SOL    HW118524   5.190   1.434   0.641  1.3289 -0.7352 -1.2335
 5875SOL    HW218525   5.168   1.595   0.652 -0.6781 -1.0923  0.5525
 5876SOL     OW18526   3.181   1.470   0.430  0.6151 -0.6106 -0.2236
 5876SOL    HW118527   3.198   1.387   0.378 -0.0199 -0.8251 -0.1043
 5876SOL    HW218528   3.148   1.542   0.367 -4.7054 -2.1602  0.2615
 5877SOL     OW18529   1.238   6.396   1.377 -0.0004 -0.5818  0.0246
 5877SOL    HW118530   1.200   6.484   1.350 -0.4452 -0.4675  0.9889
 5877SOL    HW218531   1.335   6.392   1.352 -0.4912 -0.6888 -2.0176
 5878SOL     OW18532   5.413   5.893   5.264 -0.0493  0.0138  0.5829
 5878SOL    HW118533   5.314   5.885   5.274 -0.2146  2.4017  1.7765
 5878SOL    HW218534   5.456   5.803   5.275 -2.0661 -1.0777 -0.0684
 5879SOL     OW18535   1.378   2.761   1.073 -0.1732 -0.1415 -0.0515
 5879SOL    HW118536   1.447   2.722   1.011  1.8588  1.5696  1.0158
 5879SOL    HW218537   1.296   2.784   1.020  1.1471  0.4262 -1.9833
 5880SOL     OW18538   4.025   3.441   6.049 -0.1784  0.3359  0.1881
 5880SOL    HW118539   4.026   3.537   6.022  0.9484  0.0655 -0.7987
 5880SOL    HW218540   4.064   3.385   5.976  1.5687 -0.5970  1.7413
 5881SOL     OW18541   1.236   6.535   3.169  0.9367 -0.0808  0.5274
 5881SOL    HW118542   1.294   6.598   3.117  0.8839  0.2017  0.8097
 5881SOL    HW218543   1.247   6.551   3.267 -0.4194  0.7304  0.5716
 5882SOL     OW18544   2.097   0.842   6.237  0.6671  0.1249  0.1546
 5882SOL    HW118545   2.043   0.927   6.237  1.6221  0.7744  1.9368
 5882SOL    HW218546   2.121   0.818   6.143 -2.2346  0.0909 -0.6753
 5883SOL     OW18547   6.377   2.864   3.020 -0.8000 -0.7986 -0.0126
 5883SOL    HW118548   6.354   2.829   2.929 -0.7472 -0.7675 -0.0380
 5883SOL    HW218549   6.421   2.954   3.011 -0.3018 -1.0359  0.0113
 5884SOL     OW18550   5.359   6.366   4.205 -0.3575  0.0420  0.5625
 5884SOL    HW118551   5.442   6.340   4.155  0.7540  1.7712  1.3983
 5884SOL    HW218552   5.308   6.434   4.152 -0.9331 -0.5480  0.3396
 5885SOL     OW18553   0.948   0.272   2.928  0.1187 -0.1661  0.1832
 5885SOL    HW118554   1.015   0.217   2.878 -0.1427 -0.5246  0.2218
 5885SOL    HW218555   0.866   0.217   2.945  0.1297  0.0116  0.8441
 5886SOL     OW18556   1.336   3.997   3.173 -0.1221 -0.3406  0.0869
 5886SOL    HW118557   1.400   3.942   3.226 -1.3471 -1.1648  0.7754
 5886SOL    HW218558   1.252   3.944   3.157 -1.0373  1.0484  0.0976
 5887SOL     OW18559   2.534   2.653   1.258  0.1276 -0.0493  0.1683
 5887SOL    HW118560   2.625   2.677   1.292 -0.4195 -2.2867  3.6815
 5887SOL    HW218561   2.530   2.555   1.238 -1.3576  0.1433 -0.6868
 5888SOL     OW18562   2.274   0.273   2.759 -0.8678 -0.4076  0.6712
 5888SOL    HW118563   2.287   0.175   2.743  0.6556 -0.2106  0.5834
 5888SOL    HW218564   2.299   0.294   2.854 -0.3727  0.0313  0.4446
 5889SOL     OW18565   5.635   1.805   4.253 -0.1561  0.8948  0.4575
 5889SOL    HW118566   5.542   1.792   4.287  0.0016  1.2813  1.0417
 5889SOL    HW218567   5.686   1.863   4.316 -0.0307  2.1106 -0.7212
 5890SOL     OW18568   4.994   0.122   4.687  0.3898  0.1333 -0.1530
 5890SOL    HW118569   4.966   0.063   4.763 -1.2125  1.3653  0.2615
 5890SOL    HW218570   5.083   0.161   4.707  1.0329 -1.3260  0.0108
 5891SOL     OW18571   1.451   2.301   6.641 -0.2126  0.0115 -0.6921
 5891SOL    HW118572   1.487   2.323   6.731 -1.0332  1.6751 -0.7312
 5891SOL    HW218573   1.500   2.222   6.604  0.1968 -0.6482  1.1482
 5892SOL     OW18574   0.878   6.891   2.967  0.3814  0.6629 -0.7325
 5892SOL    HW118575   0.815   6.820   2.999  1.7540 -0.9288 -1.3934
 5892SOL    HW218576   0.844   6.980   2.995 -1.2711 -0.2519  0.3878
 5893SOL     OW18577   1.826   3.288   2.383  0.1447 -0.1331  0.4997
 5893SOL    HW118578   1.824   3.353   2.459 -1.0896 -0.9735  1.2086
 5893SOL    HW218579   1.741   3.296   2.331 -0.4051 -1.7293  1.0912
 5894SOL     OW18580   0.682   6.496   5.632 -0.2556  0.2367  0.7471
 5894SOL    HW118581   0.700   6.555   5.711 -0.7141 -1.6596  2.3556
 5894SOL    HW218582   0.655   6.405   5.664 -3.6695  0.2474 -1.5596
 5895SOL     OW18583   6.753   5.322   4.011  0.0744 -0.3379 -0.1831
 5895SOL    HW118584   6.669   5.270   4.022  0.3305 -0.9498 -1.0672
 5895SOL    HW218585   6.737   5.399   3.949 -0.4604  1.0354  1.5823
 5896SOL     OW18586   5.381   0.740   1.803 -0.6458 -0.3096  0.1507
 5896SOL    HW118587   5.403   0.838   1.805 -0.5991 -0.1771 -2.6969
 5896SOL    HW218588   5.435   0.695   1.733 -2.8909 -1.7528 -0.7738
 5897SOL     OW18589   5.333   1.086   0.913 -0.4867  0.0425 -0.2234
 5897SOL    HW118590   5.287   1.155   0.968 -1.7418 -0.2500 -0.8658
 5897SOL    HW218591   5.410   1.048   0.964 -1.2955  0.1564  1.1058
 5898SOL     OW18592   3.863   6.685   4.722  0.4745  0.3969 -0.3257
 5898SOL    HW118593   3.830   6.775   4.692 -1.5921 -0.6738 -1.4798
 5898SOL    HW218594   3.877   6.626   4.643  1.7785 -0.3325  0.4192
 5899SOL     OW18595   6.439   6.987   5.990 -0.1430 -0.3512 -0.1289
 5899SOL    HW118596   6.513   6.952   5.932  0.5561  1.1751 -0.2082
 5899SOL    HW218597   6.434   6.934   6.075  0.8424 -0.6708 -0.2659
 5900SOL     OW18598   6.528   5.365   2.928  0.3527 -0.4671  0.5762
 5900SOL    HW118599   6.554   5.370   3.024 -1.2173 -2.6565  1.2056
 5900SOL    HW218600   6.524   5.270   2.900  3.2642  0.1297 -2.4813
 5901SOL     OW18601   2.836   5.613   1.749  0.2167 -0.1225  0.4120
 5901SOL    HW118602   2.924   5.573   1.724  0.1143  1.1272 -2.2882
 5901SOL    HW218603   2.834   5.709   1.722 -2.3142 -0.3854 -0.6241
 5902SOL     OW18604   6.064   3.224   6.797 -0.1460 -0.6408  0.2530
 5902SOL    HW118605   6.114   3.287   6.857 -1.0939  0.6086 -0.2165
 5902SOL    HW218606   6.075   3.131   6.830  1.9311 -0.3498  0.5486
 5903SOL     OW18607   3.683   2.945   5.436 -0.2118  0.0591 -0.1995
 5903SOL    HW118608   3.586   2.967   5.450 -0.0091  1.2845 -0.6211
 5903SOL    HW218609   3.690   2.854   5.396 -1.1881 -0.0323 -0.2040
 5904SOL     OW18610   0.747   3.551   1.388 -0.3519 -0.0453  0.0988
 5904SOL    HW118611   0.707   3.580   1.475 -0.7411 -2.2541  0.6985
 5904SOL    HW218612   0.817   3.482   1.405  2.4073  2.2518 -1.0850
 5905SOL     OW18613   1.267   1.684   4.747 -0.1519 -0.3116  0.3272
 5905SOL    HW118614   1.182   1.733   4.769 -1.0278  0.3247 -3.6443
 5905SOL    HW218615   1.245   1.597   4.703  1.1777  0.1113 -1.2859
 5906SOL     OW18616   3.444   6.429   3.271 -0.2676  0.0295  0.6440
 5906SOL    HW118617   3.344   6.441   3.270 -0.2025  0.6223 -0.0762
 5906SOL    HW218618   3.488   6.519   3.274  0.2426 -0.1715 -0.3181
 5907SOL     OW18619   1.658   5.784   1.608  0.4967  0.4280 -0.3269
 5907SOL    HW118620   1.731   5.735   1.657  0.0096 -0.4537 -0.4526
 5907SOL    HW218621   1.627   5.862   1.662  0.9637  0.3205  0.1001
 5908SOL     OW18622   6.491   5.183   5.997 -0.7854 -0.1154 -0.3675
 5908SOL    HW118623   6.580   5.196   5.953 -0.8576 -2.2284 -1.2515
 5908SOL    HW218624   6.477   5.086   6.016 -1.7205  0.4780  2.3792
 5909SOL     OW18625   0.100   6.954   5.820 -0.1638  0.6650 -0.2395
 5909SOL    HW118626   0.033   6.880   5.821  0.8688 -0.3187 -0.8880
 5909SOL    HW218627   0.168   6.936   5.749  2.0666  0.4611  1.8271
 5910SOL     OW18628   3.547   5.457   0.332  0.4007 -0.0848  0.1403
 5910SOL    HW118629   3.566   5.554   0.319 -0.8920  0.1983  0.2569
 5910SOL    HW218630   3.514   5.418   0.246 -3.1517  0.5917  1.0608
 5911SOL     OW18631   5.292   5.415   6.447 -0.8068  0.2875 -0.4010
 5911SOL    HW118632   5.324   5.322   6.434 -1.1946 -0.0420  0.8679
 5911SOL    HW218633   5.280   5.459   6.358  1.1610 -0.2367 -0.9600
 5912SOL     OW18634   4.872   2.605   0.651 -0.3056 -0.9678  0.8165
 5912SOL    HW118635   4.964   2.582   0.682  0.3837  1.1642  0.5164
 5912SOL    HW218636   4.851   2.700   0.677 -1.3066 -0.4732 -1.5588
 5913SOL     OW18637   3.287   1.827   0.929 -0.0725 -0.2167 -0.1471
 5913SOL    HW118638   3.324   1.895   0.866  0.0463 -1.0000 -0.9403
 5913SOL    HW218639   3.347   1.820   1.009  1.5218 -1.4155 -1.3782
 5914SOL     OW18640   3.151   6.187   6.049 -0.1271  0.1016  0.2591
 5914SOL    HW118641   3.159   6.230   5.959 -1.2570 -1.6656 -0.7516
 5914SOL    HW218642   3.238   6.144   6.073  0.5861  1.6903  0.6569
 5915SOL     OW18643   4.460   3.172   0.604 -0.0927  0.4562 -0.0680
 5915SOL    HW118644   4.547   3.123   0.605 -0.5817 -0.5136 -1.8117
 5915SOL    HW218645   4.474   3.263   0.564  0.4391  1.0228  1.3485
 5916SOL     OW18646   4.279   6.055   5.384  0.0344 -0.0388  0.9017
 5916SOL    HW118647   4.290   5.960   5.355 -0.1452 -0.1293  1.1289
 5916SOL    HW218648   4.352   6.110   5.345 -0.9523  0.1010 -0.8302
 5917SOL     OW18649   3.208   3.894   3.375 -0.1683 -0.0369  0.2887
 5917SOL    HW118650   3.248   3.921   3.462  0.3599  1.2880 -0.3295
 5917SOL    HW218651   3.133   3.831   3.390 -0.8177  1.0387  1.7849
 5918SOL     OW18652   2.114   3.723   2.968 -0.9038 -0.4684  0.3474
 5918SOL    HW118653   2.050   3.798   2.985  0.5321  0.3436  2.6612
 5918SOL    HW218654   2.157   3.735   2.879 -1.3271  1.0058  0.3229
 5919SOL     OW18655   3.723   2.767   1.719  0.2817  0.0544 -0.0003
 5919SOL    HW118656   3.678   2.792   1.633  0.3741  2.9266  0.6768
 5919SOL    HW218657   3.655   2.732   1.783  0.1210 -1.5795 -1.0265
 5920SOL     OW18658   4.086   5.370   0.580  0.2285 -0.0678 -0.0723
 5920SOL    HW118659   4.015   5.359   0.650 -0.4764 -1.3692 -0.9491
 5920SOL    HW218660   4.176   5.375   0.625 -0.1821 -1.1178  0.9471
 5921SOL     OW18661   1.936   6.006   5.168 -0.2077 -0.1794  0.2433
 5921SOL    HW118662   1.940   6.012   5.268  1.4963  0.0615  0.1767
 5921SOL    HW218663   1.842   5.985   5.141 -0.4754 -1.5461  1.9669
 5922SOL     OW18664   0.182   7.010   2.711 -0.0441  0.2045  0.7162
 5922SOL    HW118665   0.102   6.952   2.697  0.4865 -0.8315  1.8124
 5922SOL    HW218666   0.153   7.104   2.730 -0.8926  0.6473 -2.2338
 5923SOL     OW18667   6.069   1.614   1.277  0.1925 -0.4025  0.5592
 5923SOL    HW118668   6.139   1.684   1.272  0.3281 -0.3306  2.7181
 5923SOL    HW218669   6.106   1.527   1.246  1.9534 -0.8161  3.4420
 5924SOL     OW18670   6.202   0.143   4.663  0.1262 -0.0593  0.0012
 5924SOL    HW118671   6.113   0.173   4.699  0.1217  0.6404 -0.5673
 5924SOL    HW218672   6.191   0.116   4.568  0.6768  0.8691 -0.3401
 5925SOL     OW18673   4.365   6.012   2.149  0.1737  0.2669  0.0060
 5925SOL    HW118674   4.355   5.932   2.207  0.1800  0.9454  0.9622
 5925SOL    HW218675   4.290   6.076   2.167  0.4418  0.6963 -0.3853
 5926SOL     OW18676   4.064   5.031   1.168  0.5202 -0.6882 -0.2598
 5926SOL    HW118677   4.035   4.940   1.199  1.3535 -0.6172  0.7752
 5926SOL    HW218678   4.163   5.038   1.172  0.4937  0.1438 -0.7241
 5927SOL     OW18679   6.475   4.026   2.694 -0.4949  0.0156 -0.1953
 5927SOL    HW118680   6.518   4.101   2.644 -0.8878  0.9386  0.7969
 5927SOL    HW218681   6.394   3.995   2.645 -2.0227  2.2407  0.7455
 5928SOL     OW18682   3.238   0.911   1.773  0.2116 -0.4921  0.0338
 5928SOL    HW118683   3.173   0.985   1.786 -0.1687 -0.8164  0.0150
 5928SOL    HW218684   3.240   0.884   1.677  2.1339  1.0957 -0.4527
 5929SOL     OW18685   1.338   1.154   6.844  0.5575 -0.0555 -0.2210
 5929SOL    HW118686   1.358   1.071   6.896  0.9285  0.3138  0.2370
 5929SOL    HW218687   1.391   1.153   6.759 -0.2467 -0.7826 -0.7231
 5930SOL     OW18688   0.463   2.956   2.546 -0.3265  0.0557 -0.0531
 5930SOL    HW118689   0.422   2.961   2.455 -1.4359 -0.5430  0.3995
 5930SOL    HW218690   0.395   2.980   2.615 -0.1512 -1.6226  0.7648
 5931SOL     OW18691   0.264   6.954   2.310  0.2690 -0.5837  0.3631
 5931SOL    HW118692   0.323   7.023   2.352  0.6392  0.3545 -1.6104
 5931SOL    HW218693   0.169   6.987   2.311  0.2651 -0.5988  0.5318
 5932SOL     OW18694   3.404   5.315   2.069 -0.0255 -0.0563  0.3598
 5932SOL    HW118695   3.349   5.232   2.062 -1.8231  1.2006 -1.5497
 5932SOL    HW218696   3.348   5.390   2.104  1.4302  0.5062  1.6016
 5933SOL     OW18697   1.168   5.502   3.062  0.0021 -0.7132  0.3815
 5933SOL    HW118698   1.092   5.534   3.005 -0.0668 -0.6993  0.4807
 5933SOL    HW218699   1.146   5.412   3.100  0.6767 -1.4319 -0.8440
 5934SOL     OW18700   3.328   4.142   4.070  0.1606  0.4455 -0.2713
 5934SOL    HW118701   3.314   4.123   4.167 -0.4368 -0.6149 -0.5484
 5934SOL    HW218702   3.353   4.238   4.058 -3.2954  1.5925  0.6454
 5935SOL     OW18703   2.971   3.219   4.813 -0.4452 -0.0038 -0.1983
 5935SOL    HW118704   2.990   3.121   4.814 -0.0885  0.0621  1.0956
 5935SOL    HW218705   2.960   3.250   4.719 -0.5280 -1.2758 -0.6245
 5936SOL     OW18706   5.209   3.252   6.205 -0.4097  0.1726  0.0236
 5936SOL    HW118707   5.290   3.207   6.168 -0.6033 -0.3920  0.2744
 5936SOL    HW218708   5.154   3.289   6.129 -0.0433  0.3458 -0.1576
 5937SOL     OW18709   2.568   0.280   1.826 -1.0321  0.2482 -0.3196
 5937SOL    HW118710   2.580   0.377   1.808 -0.8393  1.4040  4.5542
 5937SOL    HW218711   2.471   0.257   1.825 -1.1277  0.6766 -0.7809
 5938SOL     OW18712   0.159   6.962   5.486 -0.1058  0.1015 -0.1965
 5938SOL    HW118713   0.078   7.018   5.505 -0.7764 -0.5689 -1.0117
 5938SOL    HW218714   0.176   6.960   5.388  0.0068 -0.9799 -0.1666
 5939SOL     OW18715   3.455   0.604   2.563  0.3462  0.0342  0.6966
 5939SOL    HW118716   3.485   0.538   2.631 -0.5846 -1.5054 -0.3202
 5939SOL    HW218717   3.534   0.657   2.531  1.3903 -1.4821  0.6277
 5940SOL     OW18718   6.011   5.531   0.551  0.0198  0.3334 -0.7681
 5940SOL    HW118719   5.950   5.478   0.491 -0.0083  0.7183 -1.0861
 5940SOL    HW218720   6.020   5.623   0.515 -0.6607  0.8260  0.2826
 5941SOL     OW18721   5.874   2.078   1.826  0.1169  0.1851 -0.8199
 5941SOL    HW118722   5.832   2.022   1.898  1.5048 -1.1895 -1.0397
 5941SOL    HW218723   5.808   2.092   1.753 -0.4934 -0.5362 -0.4190
 5942SOL     OW18724   5.101   2.793   5.981  0.1180 -0.8733  0.6635
 5942SOL    HW118725   5.158   2.866   5.944  0.4124 -1.0933  0.6786
 5942SOL    HW218726   5.028   2.833   6.036  1.2898 -0.6380  2.1035
 5943SOL     OW18727   2.769   5.464   0.491 -0.5722 -0.1361 -0.4989
 5943SOL    HW118728   2.807   5.380   0.453 -0.0287 -0.3681  0.5396
 5943SOL    HW218729   2.685   5.443   0.541  1.2146 -0.6322  2.5246
 5944SOL     OW18730   6.352   2.947   0.134  0.1766 -0.2722 -0.2627
 5944SOL    HW118731   6.393   3.024   0.184 -0.3513  1.7417 -2.7278
 5944SOL    HW218732   6.253   2.954   0.138  0.1220  0.3949 -2.1966
 5945SOL     OW18733   6.586   4.847   5.106  0.0083 -0.1582  0.4690
 5945SOL    HW118734   6.539   4.853   5.194  0.0183 -1.7148  0.5975
 5945SOL    HW218735   6.522   4.816   5.036  0.2949 -0.0543  0.1577
 5946SOL     OW18736   0.906   2.866   6.609 -0.3125  0.2115 -0.2304
 5946SOL    HW118737   0.988   2.919   6.591 -1.1423  3.3833  3.8560
 5946SOL    HW218738   0.922   2.806   6.687 -1.7272  0.6117  0.3918
 5947SOL     OW18739   2.862   3.531   0.443 -0.0922 -0.0814 -0.2792
 5947SOL    HW118740   2.816   3.583   0.371 -3.2465 -1.0100  0.9281
 5947SOL    HW218741   2.873   3.436   0.414  0.5599 -0.0020 -0.3150
 5948SOL     OW18742   3.208   5.255   2.351 -0.2367  0.4086  0.1488
 5948SOL    HW118743   3.234   5.158   2.351  1.3520  0.7898 -0.8242
 5948SOL    HW218744   3.120   5.266   2.305 -0.3366 -0.5426  0.0849
 5949SOL     OW18745   3.084   3.060   1.547 -0.2590  0.3990 -0.4796
 5949SOL    HW118746   3.023   3.138   1.537 -0.0486  0.5894 -0.3087
 5949SOL    HW218747   3.063   3.012   1.633 -2.8992 -1.9704 -2.2754
 5950SOL     OW18748   3.885   1.596   6.409 -0.6982  0.0871 -0.3290
 5950SOL    HW118749   3.840   1.523   6.358 -1.4220  0.1924  0.1287
 5950SOL    HW218750   3.982   1.574   6.421 -1.1971 -1.5646  1.1000
 5951SOL     OW18751   0.479   5.450   4.220 -0.2717 -0.1800  0.1323
 5951SOL    HW118752   0.525   5.370   4.258  1.6081  1.8808  2.5275
 5951SOL    HW218753   0.493   5.451   4.120 -0.5285 -2.8502 -0.0091
 5952SOL     OW18754   6.553   5.379   6.215  0.1865 -0.4155 -0.5119
 5952SOL    HW118755   6.517   5.286   6.207 -0.3280 -0.2284 -0.4141
 5952SOL    HW218756   6.557   5.421   6.124  1.3415 -0.8690 -0.6788
 5953SOL     OW18757   6.515   2.117   5.045  0.4310  0.3435  0.2994
 5953SOL    HW118758   6.597   2.097   5.097 -0.2713 -2.0075  0.6039
 5953SOL    HW218759   6.540   2.161   4.959  1.9470  0.2116  0.6507
 5954SOL     OW18760   0.260   4.503   3.517 -0.3639  0.0040 -0.3809
 5954SOL    HW118761   0.353   4.473   3.539 -0.3225  0.6259  0.3048
 5954SOL    HW218762   0.215   4.537   3.599 -1.4104 -0.8145 -0.5843
 5955SOL     OW18763   3.603   5.027   3.347 -0.1385  0.4716  0.6293
 5955SOL    HW118764   3.695   4.997   3.368  0.3190  1.4683  0.1397
 5955SOL    HW218765   3.543   5.009   3.425  0.4043 -0.4091  0.8533
 5956SOL     OW18766   4.580   1.152   6.156 -0.2724  0.5140  0.7117
 5956SOL    HW118767   4.645   1.124   6.085 -1.0467 -1.5239  0.7509
 5956SOL    HW218768   4.630   1.177   6.239  0.6065  2.2984 -0.2746
 5957SOL     OW18769   4.544   5.276   6.107 -0.0680 -0.1872 -0.1427
 5957SOL    HW118770   4.480   5.312   6.175 -0.6264 -0.9917 -0.2292
 5957SOL    HW218771   4.497   5.210   6.049  0.8064 -0.6728 -0.3127
 5958SOL     OW18772   5.020   5.661   2.277 -0.9678 -0.3353  0.0192
 5958SOL    HW118773   5.062   5.574   2.253 -0.2579 -0.0822  0.3313
 5958SOL    HW218774   4.927   5.665   2.239 -1.2320 -1.4706  0.5219
 5959SOL     OW18775   4.525   0.592   6.975  0.7064  0.1026 -0.0028
 5959SOL    HW118776   4.560   0.554   7.061 -1.0090 -1.1931  0.1872
 5959SOL    HW218777   4.460   0.666   6.996  1.4463  0.8450 -0.2662
 5960SOL     OW18778   3.613   5.339   4.579 -0.6683  0.3516 -0.1096
 5960SOL    HW118779   3.552   5.417   4.562 -2.3865 -0.6686  1.0111
 5960SOL    HW218780   3.652   5.347   4.670 -1.0317 -0.1942  0.0974
 5961SOL     OW18781   4.811   1.408   5.365  0.3310  0.2889  0.7043
 5961SOL    HW118782   4.840   1.465   5.288  1.0973  0.4189  1.0737
 5961SOL    HW218783   4.733   1.353   5.338 -0.2118  1.2619  0.2337
 5962SOL     OW18784   3.461   4.467   1.438  0.1295  0.1216  0.3793
 5962SOL    HW118785   3.489   4.502   1.528  0.3998  0.0054  0.3400
 5962SOL    HW218786   3.481   4.370   1.432 -2.2496 -0.5002  1.1579
 5963SOL     OW18787   2.836   4.033   5.624  0.6935 -0.2222 -0.2946
 5963SOL    HW118788   2.747   4.031   5.579  0.9979 -0.7484 -0.8731
 5963SOL    HW218789   2.909   4.030   5.555  1.1623  0.0385  0.1808
 5964SOL     OW18790   5.190   4.594   3.662 -0.0243  0.8138  0.3104
 5964SOL    HW118791   5.154   4.686   3.647 -0.6044  0.4296 -0.7632
 5964SOL    HW218792   5.235   4.562   3.579 -1.3508 -0.5384  0.0849
 5965SOL     OW18793   0.841   3.674   6.271  0.1671 -0.3804  0.2330
 5965SOL    HW118794   0.929   3.660   6.226 -0.5982  0.7411 -1.7531
 5965SOL    HW218795   0.768   3.666   6.204 -1.1918 -0.4425  1.6710
 5966SOL     OW18796   3.568   4.859   2.280 -0.1195  0.1358 -0.0493
 5966SOL    HW118797   3.575   4.763   2.253 -1.7150  0.0171 -0.1186
 5966SOL    HW218798   3.582   4.917   2.200 -1.5151 -0.1217 -0.5013
 5967SOL     OW18799   5.259   6.492   1.987 -0.1808 -0.0221 -0.0247
 5967SOL    HW118800   5.305   6.573   1.951 -3.3178  2.5889  1.3833
 5967SOL    HW218801   5.197   6.455   1.917 -2.7096  2.1616  0.9116
 5968SOL     OW18802   6.829   1.141   0.624 -0.1034  0.2815  0.6704
 5968SOL    HW118803   6.821   1.163   0.721  1.9391 -0.1617  0.9805
 5968SOL    HW218804   6.898   1.069   0.612  1.9444  2.4385 -1.3597
 5969SOL     OW18805   0.356   2.536   1.369  0.2351  0.0121 -0.7138
 5969SOL    HW118806   0.443   2.583   1.381  0.3016 -0.0657 -0.8863
 5969SOL    HW218807   0.293   2.562   1.442 -0.3652  1.8048 -1.8130
 5970SOL     OW18808   6.073   4.595   1.526 -0.2793 -0.2490 -0.4792
 5970SOL    HW118809   6.024   4.639   1.450 -0.6564  0.0450 -0.0699
 5970SOL    HW218810   6.105   4.505   1.496  0.8712  0.4471 -1.4610
 5971SOL     OW18811   0.537   1.129   4.130 -0.0087 -0.0504 -0.1766
 5971SOL    HW118812   0.540   1.182   4.045 -0.3476  0.7279  0.2892
 5971SOL    HW218813   0.609   1.160   4.191 -0.0647 -0.2834  0.0084
 5972SOL     OW18814   5.334   6.205   6.873 -0.2981  0.0237  0.2162
 5972SOL    HW118815   5.268   6.143   6.831 -1.2195  0.9337  0.2753
 5972SOL    HW218816   5.317   6.209   6.972 -0.0884  0.1806  0.2464
 5973SOL     OW18817   0.801   3.740   3.307 -0.2766  0.2751  0.4387
 5973SOL    HW118818   0.776   3.656   3.259 -0.6482 -0.9982  2.6891
 5973SOL    HW218819   0.744   3.815   3.274 -1.6070 -0.8845 -0.0040
 5974SOL     OW18820   4.193   5.628   0.001 -0.4874  0.3576  0.2935
 5974SOL    HW118821   4.250   5.587  -0.070  1.5483  2.0969  0.8443
 5974SOL    HW218822   4.107   5.658  -0.040  0.0135 -0.0208 -1.1157
 5975SOL     OW18823   2.754   1.600   1.306 -0.2777 -0.4606 -0.2502
 5975SOL    HW118824   2.701   1.542   1.244  0.7949 -1.4652 -0.2695
 5975SOL    HW218825   2.806   1.667   1.253 -1.3573  0.4215 -0.2406
 5976SOL     OW18826   3.259   3.522   4.249 -0.2111  0.5807 -0.5414
 5976SOL    HW118827   3.179   3.507   4.307  1.1573 -3.5910  0.6369
 5976SOL    HW218828   3.341   3.533   4.306  0.8306 -1.2266 -1.5766
 5977SOL     OW18829   1.581   3.687   5.561 -0.4485  0.3948 -0.2228
 5977SOL    HW118830   1.637   3.623   5.510  0.0955  0.6810  0.0027
 5977SOL    HW218831   1.603   3.682   5.658 -0.9785  0.3488 -0.0988
 5978SOL     OW18832   5.582   6.648   2.868 -0.4876 -0.1505  0.2841
 5978SOL    HW118833   5.665   6.669   2.815 -1.0832  1.3221 -0.1122
 5978SOL    HW218834   5.561   6.551   2.859  2.8587 -1.3248  2.8059
 5979SOL     OW18835   6.871   6.295   3.696 -0.1087  0.8757  0.1650
 5979SOL    HW118836   6.873   6.213   3.753 -0.9395  0.2508 -0.6828
 5979SOL    HW218837   6.941   6.359   3.728  1.8971 -0.9583 -0.3327
 5980SOL     OW18838   6.310   1.448   6.024  0.1698  0.3608  0.5548
 5980SOL    HW118839   6.310   1.437   6.123 -0.4117 -0.0396  0.5221
 5980SOL    HW218840   6.379   1.514   5.997  2.9130 -2.1284  0.9353
 5981SOL     OW18841   0.680   0.937   1.901  0.1769  0.1065 -0.2039
 5981SOL    HW118842   0.593   0.918   1.855  0.8166 -1.1891 -0.9564
 5981SOL    HW218843   0.702   1.034   1.893 -0.0721  0.0491 -2.0854
 5982SOL     OW18844   4.922   3.820   0.522 -0.2095 -0.2998  0.3906
 5982SOL    HW118845   4.988   3.829   0.597  0.7916 -0.7594 -0.4168
 5982SOL    HW218846   4.832   3.803   0.560  0.5692 -2.2634  1.4791
 5983SOL     OW18847   1.622   6.824   3.529  0.9623 -0.0694 -0.3305
 5983SOL    HW118848   1.638   6.920   3.504  0.1725 -0.1043 -1.0076
 5983SOL    HW218849   1.613   6.817   3.628  0.6427  0.6215 -0.2999
 5984SOL     OW18850   6.948   6.224   5.235 -0.1423  0.5654 -0.4688
 5984SOL    HW118851   6.957   6.302   5.173 -0.5605  0.2368 -0.9506
 5984SOL    HW218852   6.926   6.257   5.327 -1.5350  0.9661 -0.9197
 5985SOL     OW18853   4.791   4.905   1.219  0.0179 -0.2306 -0.3692
 5985SOL    HW118854   4.855   4.949   1.156 -0.3139  0.3405 -0.3176
 5985SOL    HW218855   4.766   4.815   1.185 -1.3786  0.6891 -1.8812
 5986SOL     OW18856   2.928   3.318   4.557 -0.2218 -0.0154 -0.5103
 5986SOL    HW118857   2.883   3.398   4.598 -0.4202 -0.2897 -0.1927
 5986SOL    HW218858   2.921   3.324   4.458 -2.3656 -0.8420 -0.4534
 5987SOL     OW18859   6.365   0.246   5.984  0.0371  0.5725  0.5519
 5987SOL    HW118860   6.379   0.151   6.011 -0.2411  0.2061 -0.5171
 5987SOL    HW218861   6.278   0.254   5.936 -0.1221  1.4503  0.9692
 5988SOL     OW18862   4.817   6.855   5.056 -0.1033  0.0490  0.5684
 5988SOL    HW118863   4.727   6.893   5.079 -1.2616 -1.9579 -0.3784
 5988SOL    HW218864   4.829   6.857   4.956  0.7057 -0.1447  0.6558
 5989SOL     OW18865   2.716   4.242   6.312  0.1556  0.1388 -0.4923
 5989SOL    HW118866   2.814   4.243   6.331  0.4462 -1.3691 -1.7288
 5989SOL    HW218867   2.674   4.326   6.347  1.6521  0.2427  1.1563
 5990SOL     OW18868   4.197   6.119   6.945 -0.6449 -0.7043 -0.3896
 5990SOL    HW118869   4.278   6.082   6.991 -1.3344 -0.5510  1.0190
 5990SOL    HW218870   4.117   6.064   6.969 -1.2153  0.0660 -0.4935
 5991SOL     OW18871   3.151   4.669   6.738 -0.0265  0.0436  0.2648
 5991SOL    HW118872   3.177   4.731   6.812 -1.4420  0.9422  0.0397
 5991SOL    HW218873   3.081   4.605   6.770 -0.8992  0.6618 -0.3676
 5992SOL     OW18874   4.502   2.145   5.190 -0.0049 -0.1960  0.5011
 5992SOL    HW118875   4.455   2.147   5.277 -1.3141 -0.7574 -0.1725
 5992SOL    HW218876   4.502   2.052   5.153  3.0076 -0.5700  1.1700
 5993SOL     OW18877   4.222   0.242   6.626 -0.5800 -0.3449  0.0456
 5993SOL    HW118878   4.311   0.287   6.636  0.2199 -2.0689  1.1749
 5993SOL    HW218879   4.161   0.272   6.699 -0.2493 -0.6308  0.4435
 5994SOL     OW18880   5.219   3.592   1.084 -0.6878  0.2915 -0.4203
 5994SOL    HW118881   5.244   3.689   1.085  0.5852 -0.0006 -1.1370
 5994SOL    HW218882   5.222   3.556   1.177 -0.3823  0.7611 -0.2432
 5995SOL     OW18883   6.758   5.744   3.474 -0.3032 -0.4183 -0.4866
 5995SOL    HW118884   6.816   5.741   3.555 -1.9709  3.0252  1.0388
 5995SOL    HW218885   6.703   5.661   3.470  0.7269 -1.2411  1.1689
 5996SOL     OW18886   6.639   5.625   6.847 -0.2809 -0.1910  0.0500
 5996SOL    HW118887   6.568   5.627   6.918 -0.5735  1.7544 -0.2421
 5996SOL    HW218888   6.597   5.602   6.759 -0.0498 -1.8083  0.3354
 5997SOL     OW18889   0.754   5.785   3.129 -0.1224 -0.0822 -0.0433
 5997SOL    HW118890   0.833   5.844   3.113 -1.6656  1.5968 -2.1244
 5997SOL    HW218891   0.735   5.732   3.046 -1.5112 -0.0069  0.2018
 5998SOL     OW18892   5.528   2.553   3.546  0.3106  0.5225 -0.2234
 5998SOL    HW118893   5.434   2.520   3.539  0.7879 -0.6342 -1.7780
 5998SOL    HW218894   5.554   2.561   3.642 -0.6098 -1.4197  0.2283
 5999SOL     OW18895   1.998   3.171   1.038  0.1618 -0.3248  0.4469
 5999SOL    HW118896   2.008   3.162   1.137  1.0836  0.4233  0.4425
 5999SOL    HW218897   1.916   3.223   1.017 -1.3234 -2.4635  0.7116
 6000SOL     OW18898   4.281   4.803   1.664 -0.0548 -0.2204  0.1374
 6000SOL    HW118899   4.336   4.724   1.640  0.4571  0.0527  0.3855
 6000SOL    HW218900   4.333   4.887   1.644  0.1093  0.0269  1.4862
 6001SOL     OW18901   0.167   4.277   5.481 -0.1745  0.1520  0.1807
 6001SOL    HW118902   0.225   4.295   5.402 -0.4784 -1.1661 -0.3790
 6001SOL    HW218903   0.223   4.250   5.559  0.0053 -1.0417 -0.3363
 6002SOL     OW18904   6.371   1.284   2.530  0.7714  0.0291 -0.2334
 6002SOL    HW118905   6.324   1.336   2.458 -0.6750  0.0000  0.6541
 6002SOL    HW218906   6.330   1.194   2.537 -0.0674  0.5172  1.5655
 6003SOL     OW18907   6.218   2.369   3.659  0.2296 -0.6061 -0.2820
 6003SOL    HW118908   6.248   2.279   3.689  0.0845 -0.0000  1.8623
 6003SOL    HW218909   6.119   2.367   3.641  0.2890 -0.9473 -0.5772
 6004SOL     OW18910   5.515   3.747   2.310  0.2551 -0.1973  0.8290
 6004SOL    HW118911   5.461   3.708   2.385 -0.3648 -0.7855  0.0979
 6004SOL    HW218912   5.540   3.675   2.246 -0.3871  0.4983 -0.2369
 6005SOL     OW18913   2.682   6.077   6.888  0.2282 -0.2840  0.1573
 6005SOL    HW118914   2.599   6.068   6.943  1.1807  0.8923  1.8797
 6005SOL    HW218915   2.752   6.015   6.924  1.1769  1.1921  0.9557
 6006SOL     OW18916   2.014   2.117   1.363 -0.0577 -0.0573  0.1040
 6006SOL    HW118917   1.998   2.175   1.283 -0.0302  1.5582  1.2197
 6006SOL    HW218918   1.926   2.094   1.405  0.0145  0.8739  0.7976
 6007SOL     OW18919   3.752   5.392   4.171  0.3130 -0.6497  0.5737
 6007SOL    HW118920   3.804   5.476   4.191  1.1009 -0.6241 -1.3413
 6007SOL    HW218921   3.805   5.312   4.199 -0.2511 -0.5438  2.0056
 6008SOL     OW18922   2.820   5.312   5.211 -0.0422  0.1401  0.5331
 6008SOL    HW118923   2.741   5.344   5.264  0.3838 -0.5242  1.6037
 6008SOL    HW218924   2.802   5.220   5.177  0.3071 -0.0737  0.9043
 6009SOL     OW18925   4.913   0.467   4.518 -0.4213  0.2079 -0.0289
 6009SOL    HW118926   4.957   0.479   4.607 -1.8515  1.6828  0.5128
 6009SOL    HW218927   4.915   0.370   4.494  1.2142 -0.0474  0.9344
 6010SOL     OW18928   0.660   2.348   1.974 -0.1176  1.3778  0.0910
 6010SOL    HW118929   0.708   2.262   1.959  0.0192  1.2584  1.1250
 6010SOL    HW218930   0.599   2.367   1.897  0.7085  0.9405 -0.6771
 6011SOL     OW18931   4.681   2.637   4.286  0.1165 -0.0265  0.3826
 6011SOL    HW118932   4.632   2.621   4.371  0.1775 -0.0012  0.4229
 6011SOL    HW218933   4.677   2.734   4.262 -0.1876 -0.0893  0.1785
 6012SOL     OW18934   0.315   1.158   6.113 -0.0377 -0.1193  0.2935
 6012SOL    HW118935   0.280   1.216   6.188  1.6667  0.8839  0.3592
 6012SOL    HW218936   0.398   1.199   6.075 -0.2843 -1.1544 -1.4853
 6013SOL     OW18937   6.373   2.155   2.232  0.2682 -0.6958 -0.1570
 6013SOL    HW118938   6.301   2.095   2.266  1.0348 -1.5450  0.0061
 6013SOL    HW218939   6.457   2.102   2.217  2.0334  0.8042  3.1822
 6014SOL     OW18940   4.383   1.766   0.885  0.0476 -0.0058  0.1624
 6014SOL    HW118941   4.341   1.778   0.795  0.2276  1.7580  0.2734
 6014SOL    HW218942   4.326   1.811   0.954  0.0907 -1.0400  0.8889
 6015SOL     OW18943   5.665   0.570   5.175  0.2007  0.3103 -0.3348
 6015SOL    HW118944   5.721   0.547   5.254 -0.1959 -0.5185 -0.2880
 6015SOL    HW218945   5.573   0.532   5.186 -0.4323  1.7588 -0.3510
 6016SOL     OW18946   6.063   2.940   0.161 -0.0689 -0.0628  0.2854
 6016SOL    HW118947   6.091   2.976   0.250  0.7948 -0.8778  0.3582
 6016SOL    HW218948   5.970   2.906   0.167 -0.6363  1.4462  0.4108
 6017SOL     OW18949   1.231   4.185   1.766 -0.3820 -0.4264 -0.4642
 6017SOL    HW118950   1.307   4.156   1.708  0.5770 -0.9626  0.9971
 6017SOL    HW218951   1.214   4.116   1.837 -1.1462  0.4394  0.2372
 6018SOL     OW18952   3.621   1.549   0.127  0.0952 -0.5173 -0.6506
 6018SOL    HW118953   3.541   1.489   0.125 -0.9913  0.8668 -0.1656
 6018SOL    HW218954   3.632   1.586   0.219 -0.0655  1.0614 -1.2462
 6019SOL     OW18955   5.224   1.284   3.170 -0.3394 -0.0573  0.0268
 6019SOL    HW118956   5.313   1.238   3.175 -0.4027 -0.1834 -0.0146
 6019SOL    HW218957   5.204   1.307   3.075 -0.5448 -0.4071 -0.0157
 6020SOL     OW18958   2.435   4.717   0.652 -0.0913  0.3143 -0.6170
 6020SOL    HW118959   2.355   4.657   0.655 -0.0687  0.3376  0.5341
 6020SOL    HW218960   2.506   4.673   0.595 -1.6047  1.2091 -3.3564
 6021SOL     OW18961   5.509   0.572   2.860 -0.2943  0.1639  0.1787
 6021SOL    HW118962   5.433   0.636   2.846 -1.1569 -0.5430  1.4920
 6021SOL    HW218963   5.497   0.493   2.800  0.7355  1.1414 -1.3952
 6022SOL     OW18964   1.231   2.515   4.200  0.9122  0.1734  0.2682
 6022SOL    HW118965   1.302   2.568   4.248  2.2077 -0.6540 -0.6638
 6022SOL    HW218966   1.237   2.533   4.102 -1.4313  1.5141  0.3226
 6023SOL     OW18967   3.418   1.442   3.488 -0.0058  0.1050 -0.1942
 6023SOL    HW118968   3.475   1.362   3.467  1.6061  1.3785 -0.9061
 6023SOL    HW218969   3.361   1.423   3.568  1.6299 -1.1431  0.7263
 6024SOL     OW18970   5.353   3.971   2.994 -0.3948  0.2047  0.2734
 6024SOL    HW118971   5.330   4.036   3.067  1.4717  0.8504  0.3446
 6024SOL    HW218972   5.420   3.905   3.029 -0.8985 -0.6449 -0.3401
 6025SOL     OW18973   5.039   0.976   3.304 -0.2450  0.4073  0.3894
 6025SOL    HW118974   5.005   1.054   3.251  0.2064 -0.6732 -1.5695
 6025SOL    HW218975   5.123   0.942   3.262  0.3014 -0.3197  2.0147
 6026SOL     OW18976   6.863   3.735   3.359  0.2717 -0.1011  0.7342
 6026SOL    HW118977   6.842   3.669   3.431 -1.3978  1.0922  1.3950
 6026SOL    HW218978   6.785   3.795   3.345  0.3257 -0.5965 -2.4591
 6027SOL     OW18979   0.720   2.432   3.632 -0.4575 -0.3286 -0.1294
 6027SOL    HW118980   0.656   2.507   3.651 -1.1525 -1.3871  1.9528
 6027SOL    HW218981   0.766   2.405   3.716 -0.0402 -2.0911 -0.8843
 6028SOL     OW18982   1.803   3.492   6.096 -0.3081  0.4195 -0.2386
 6028SOL    HW118983   1.709   3.461   6.083 -0.2111  0.6702 -1.6924
 6028SOL    HW218984   1.864   3.412   6.099 -0.6750  0.1457  2.2250
 6029SOL     OW18985   4.540   5.997   4.360  0.7193 -0.5962 -0.8760
 6029SOL    HW118986   4.448   5.969   4.329  0.6276  0.5326 -1.6827
 6029SOL    HW218987   4.536   6.022   4.456  0.7795 -3.1487 -0.1299
 6030SOL     OW18988   6.308   4.468   5.861  0.0667 -1.0372  0.2160
 6030SOL    HW118989   6.399   4.429   5.848  1.5471  2.6509 -2.6213
 6030SOL    HW218990   6.258   4.466   5.774 -1.0853  0.1430  0.8143
 6031SOL     OW18991   2.661   4.973   4.008  0.4795 -0.0834 -0.3732
 6031SOL    HW118992   2.664   5.014   4.099 -0.5758 -0.9414  0.0772
 6031SOL    HW218993   2.722   5.023   3.946  1.8381  0.0196  0.9941
 6032SOL     OW18994   1.910   5.045   4.695 -0.7392  0.3518  0.5355
 6032SOL    HW118995   1.955   5.074   4.610 -2.5525 -1.1356 -1.0191
 6032SOL    HW218996   1.975   4.997   4.753  0.6914  1.9265  0.2939
 6033SOL     OW18997   3.752   2.065   2.895  0.2704  0.1095 -0.3825
 6033SOL    HW118998   3.800   2.102   2.815  1.6654 -1.4244 -0.3116
 6033SOL    HW218999   3.800   2.093   2.978  0.0457 -0.0341 -0.2051
 6034SOL     OW19000   2.050   5.948   5.698 -0.2094  0.5086  0.4247
 6034SOL    HW119001   2.016   5.854   5.693  0.4827  0.3122 -0.9356
 6034SOL    HW219002   2.005   5.996   5.774 -0.7346 -0.8447  0.9931
 6035SOL     OW19003   0.336   1.348   4.030  0.1031  0.1303 -0.0375
 6035SOL    HW119004   0.424   1.391   4.051  0.4970 -0.0591 -1.2238
 6035SOL    HW219005   0.268   1.376   4.097  1.4914 -1.1669  2.0444
 6036SOL     OW19006   1.570   0.414   3.884  0.0051  0.3631 -0.1184
 6036SOL    HW119007   1.538   0.325   3.852 -1.1566  0.9666 -0.7157
 6036SOL    HW219008   1.524   0.437   3.970  0.0294  0.5435 -0.1535
 6037SOL     OW19009   5.495   3.899   5.541  0.0048 -0.3668  0.3107
 6037SOL    HW119010   5.480   3.804   5.513  0.5693 -0.6528  0.9613
 6037SOL    HW219011   5.586   3.908   5.583 -0.6446  0.1345  1.6655
 6038SOL     OW19012   6.418   2.475   5.126 -0.0855  0.7335  0.2946
 6038SOL    HW119013   6.378   2.566   5.138  1.3912  1.2526  1.7180
 6038SOL    HW219014   6.432   2.433   5.216  1.2460  0.0161 -0.2179
 6039SOL     OW19015   3.082   3.103   2.092 -0.1544  0.2827  0.7909
 6039SOL    HW119016   3.067   3.146   2.003  0.1169  0.3266  0.7639
 6039SOL    HW219017   3.171   3.132   2.128  0.9749 -1.8260 -0.1560
 6040SOL     OW19018   0.316   2.014   0.139 -0.3650  0.3627 -0.4138
 6040SOL    HW119019   0.221   1.984   0.132 -0.1397 -1.1255  1.7796
 6040SOL    HW219020   0.376   1.934   0.142  0.8739  1.2494 -0.7989
 6041SOL     OW19021   2.418   1.300   3.476  0.2921  0.1880  0.3735
 6041SOL    HW119022   2.373   1.336   3.558 -1.4441  0.1130 -0.4934
 6041SOL    HW219023   2.505   1.258   3.501  0.3691  1.2390  1.9937
 6042SOL     OW19024   0.781   6.131   3.216 -0.3459 -0.5979 -0.3760
 6042SOL    HW119025   0.764   6.200   3.146  1.0233 -0.1911 -0.3247
 6042SOL    HW219026   0.860   6.076   3.190 -1.9466 -2.7873 -0.8689
 6043SOL     OW19027   0.755   4.794   3.460 -0.1752 -0.3906 -0.1899
 6043SOL    HW119028   0.827   4.759   3.521  0.7671  0.7334 -0.6225
 6043SOL    HW219029   0.796   4.855   3.393 -1.5635  0.3355 -0.3992
 6044SOL     OW19030   0.786   1.168   2.142  0.5002 -0.5354 -0.1198
 6044SOL    HW119031   0.709   1.174   2.206  0.3007 -1.1399 -0.2904
 6044SOL    HW219032   0.804   1.072   2.121  1.2585 -0.3959 -0.1384
 6045SOL     OW19033   6.924   5.500   0.812  0.1819  0.3952  0.1031
 6045SOL    HW119034   6.931   5.587   0.861 -0.2053 -0.1136  1.0880
 6045SOL    HW219035   6.984   5.433   0.855 -1.2193 -0.4625  0.7911
 6046SOL     OW19036   3.697   1.235   2.233 -0.5578  0.2700 -0.2918
 6046SOL    HW119037   3.734   1.322   2.199 -1.2198 -0.1142 -2.0680
 6046SOL    HW219038   3.611   1.253   2.280  0.4289  0.8194  1.4102
 6047SOL     OW19039   5.516   1.886   1.578  0.0435  0.4979  0.3246
 6047SOL    HW119040   5.483   1.898   1.672  0.6758 -1.0068  0.7741
 6047SOL    HW219041   5.438   1.881   1.516 -0.4889 -0.5547  1.0451
 6048SOL     OW19042   6.076   6.980   3.719 -0.4553  0.0603  0.0630
 6048SOL    HW119043   6.054   6.915   3.792  1.5366  0.2182  0.8820
 6048SOL    HW219044   6.168   6.962   3.685 -1.6522 -0.6478 -3.1778
 6049SOL     OW19045   5.028   4.007   6.530 -0.4374  0.0066 -0.3709
 6049SOL    HW119046   4.940   4.048   6.505  0.0059  0.5771 -1.0183
 6049SOL    HW219047   5.044   3.926   6.474 -0.9198 -0.5759  0.3169
 6050SOL     OW19048   1.196   4.176   4.827  0.2595  0.2982 -0.0666
 6050SOL    HW119049   1.172   4.105   4.893  1.1456 -0.8454 -0.9242
 6050SOL    HW219050   1.113   4.217   4.790 -0.2535  0.1286  0.8659
 6051SOL     OW19051   2.152   3.003   6.205 -0.0903  0.6183  0.5221
 6051SOL    HW119052   2.247   3.031   6.192 -0.6840  2.2823 -0.6181
 6051SOL    HW219053   2.133   2.995   6.302  1.3996 -0.4702  0.7500
 6052SOL     OW19054   0.159   1.068   5.906 -0.3355  0.3785  0.2472
 6052SOL    HW119055   0.215   1.108   5.979  1.1835 -0.3055 -0.4967
 6052SOL    HW219056   0.105   1.140   5.863  0.8417  1.2906  0.2376
 6053SOL     OW19057   2.673   1.446   5.765 -0.2672 -0.3493 -0.8826
 6053SOL    HW119058   2.724   1.455   5.679  0.2661  2.9641 -0.3360
 6053SOL    HW219059   2.737   1.443   5.841 -0.6626  3.3812 -0.2222
 6054SOL     OW19060   1.875   3.936   6.251 -0.4086 -0.3631  0.7679
 6054SOL    HW119061   1.805   3.991   6.298 -3.5842 -1.6794 -2.0402
 6054SOL    HW219062   1.919   3.992   6.181 -1.5534 -0.5372 -0.1201
 6055SOL     OW19063   5.222   0.312   3.514  0.2274  0.7276  0.2339
 6055SOL    HW119064   5.176   0.366   3.584  0.1909 -0.1035  0.8679
 6055SOL    HW219065   5.176   0.325   3.426 -1.6946 -0.6021  0.9721
 6056SOL     OW19066   5.847   2.959   5.526  0.0420  0.2044  0.3211
 6056SOL    HW119067   5.946   2.971   5.527 -0.0070  0.6564  1.1514
 6056SOL    HW219068   5.803   3.044   5.558 -0.6122  0.0409 -0.1323
 6057SOL     OW19069   5.033   2.275   4.310  0.5170  0.1100  0.6186
 6057SOL    HW119070   5.130   2.297   4.297  0.2727  0.0572 -1.7407
 6057SOL    HW219071   5.015   2.184   4.272 -0.4900  0.1798  0.9172
 6058SOL     OW19072   3.718   3.017   0.826  0.4395  0.8086  0.2544
 6058SOL    HW119073   3.763   2.972   0.904 -0.2877 -1.2084 -0.4133
 6058SOL    HW219074   3.783   3.026   0.751  0.0047 -1.6414 -0.5304
 6059SOL     OW19075   3.434   5.251   4.885 -0.1183 -0.1064 -0.5296
 6059SOL    HW119076   3.361   5.183   4.883  0.3038 -0.5499 -1.3057
 6059SOL    HW219077   3.439   5.292   4.976 -1.9402  0.6025 -0.6869
 6060SOL     OW19078   1.932   4.007   4.878  0.0382 -0.5544 -0.2656
 6060SOL    HW119079   1.954   4.004   4.976 -0.4950 -0.5806 -0.1418
 6060SOL    HW219080   2.002   3.959   4.826  0.0285 -1.0349  0.1606
 6061SOL     OW19081   5.999   0.899   1.967  0.5617  0.1194  0.0801
 6061SOL    HW119082   5.977   0.811   2.010  0.5985  0.6129  1.1254
 6061SOL    HW219083   5.939   0.970   2.003 -0.2097  0.3390 -1.5710
 6062SOL     OW19084   1.342   2.263   3.405 -0.1025 -0.1117 -0.0152
 6062SOL    HW119085   1.247   2.235   3.388 -0.2212  1.1319 -1.6523
 6062SOL    HW219086   1.382   2.297   3.320  1.8266 -0.5846  0.6528
 6063SOL     OW19087   3.157   0.349   6.611  0.1922 -0.0613  0.4564
 6063SOL    HW119088   3.239   0.363   6.555 -0.1706 -2.6156 -0.8451
 6063SOL    HW219089   3.181   0.295   6.691 -0.3422 -1.8399 -0.5272
 6064SOL     OW19090   4.145   1.451   2.680  0.4279 -0.3655  0.3527
 6064SOL    HW119091   4.205   1.513   2.730  0.4741  0.8039 -1.0805
 6064SOL    HW219092   4.057   1.495   2.664  0.8211 -0.1876 -1.6096
 6065SOL     OW19093   0.130   1.096   1.032 -0.5468  0.5296  0.3711
 6065SOL    HW119094   0.133   1.108   1.131  0.8365  0.3077  0.3646
 6065SOL    HW219095   0.190   1.021   1.005 -2.4059 -0.7525 -0.4604
 6066SOL     OW19096   3.743   1.542   6.705  0.5411  0.1347  0.2032
 6066SOL    HW119097   3.709   1.635   6.714 -1.3285 -0.4366 -0.2811
 6066SOL    HW219098   3.796   1.533   6.621 -0.0962  0.5597 -0.2562
 6067SOL     OW19099   3.986   1.913   6.759  0.3897  0.3180 -0.4462
 6067SOL    HW119100   3.962   2.008   6.776  0.5546  0.4317 -0.8338
 6067SOL    HW219101   3.904   1.862   6.731  0.2357  0.2659  0.0983
 6068SOL     OW19102   5.256   4.716   2.479 -0.6607  0.2971  0.0087
 6068SOL    HW119103   5.172   4.769   2.474 -0.8750 -0.0319  0.1127
 6068SOL    HW219104   5.316   4.755   2.548 -1.2186 -0.1630  0.7628
 6069SOL     OW19105   6.343   1.979   5.253 -0.1777 -0.3228 -0.2364
 6069SOL    HW119106   6.328   2.055   5.316 -3.2030 -1.1838  0.2402
 6069SOL    HW219107   6.431   1.991   5.206  1.8246  0.8723  3.3885
 6070SOL     OW19108   2.469   1.712   0.658  0.7233  0.4995 -0.1714
 6070SOL    HW119109   2.379   1.696   0.617  0.6859  0.0671  0.0831
 6070SOL    HW219110   2.540   1.696   0.590  0.6456  0.0711 -0.1509
 6071SOL     OW19111   5.995   5.179   3.459 -0.3218  0.3012  0.2514
 6071SOL    HW119112   6.000   5.205   3.363 -2.6740  2.1261  0.5319
 6071SOL    HW219113   5.925   5.109   3.472 -0.2526  0.3043  0.6709
 6072SOL     OW19114   0.582   1.054   3.208  0.2401  0.3574 -0.0591
 6072SOL    HW119115   0.649   1.046   3.282  0.1862  0.1636 -0.0324
 6072SOL    HW219116   0.527   0.971   3.203 -0.3089  0.6994  0.2197
 6073SOL     OW19117   4.199   3.490   0.798  0.3189 -0.5580 -0.0580
 6073SOL    HW119118   4.257   3.409   0.800 -0.1323 -0.9169 -1.1689
 6073SOL    HW219119   4.199   3.533   0.889 -1.9777 -3.5894  1.5520
 6074SOL     OW19120   1.288   6.402   4.953 -0.8150 -0.0621  0.4510
 6074SOL    HW119121   1.292   6.501   4.939 -0.2281  0.0018  1.0550
 6074SOL    HW219122   1.247   6.359   4.872 -0.2600  0.5852 -0.1914
 6075SOL     OW19123   6.877   2.221   4.948 -0.5089  0.5988  0.2055
 6075SOL    HW119124   6.927   2.139   4.978  0.3256  0.8948 -0.3583
 6075SOL    HW219125   6.920   2.302   4.986 -0.7927  0.8373  0.0212
 6076SOL     OW19126   2.876   0.372   4.863 -0.0387  0.1824 -0.1731
 6076SOL    HW119127   2.778   0.365   4.880 -0.1363 -0.7613 -1.0666
 6076SOL    HW219128   2.919   0.282   4.879  0.7861  0.7168  0.7864
 6077SOL     OW19129   3.619   5.901   0.894 -0.3805 -0.3129  0.0775
 6077SOL    HW119130   3.540   5.883   0.836 -0.6761 -0.9557  0.6606
 6077SOL    HW219131   3.589   5.918   0.988  0.0403  1.2967 -0.0369
 6078SOL     OW19132   4.990   5.743   1.838 -0.1285 -0.3093 -0.1366
 6078SOL    HW119133   5.044   5.823   1.812 -0.3104 -0.1966 -0.1688
 6078SOL    HW219134   4.939   5.709   1.759 -0.8236  0.1437  0.1052
 6079SOL     OW19135   2.723   2.030   6.624 -0.0310 -0.1947  0.0278
 6079SOL    HW119136   2.755   1.961   6.689  1.3282 -1.3955 -1.7962
 6079SOL    HW219137   2.633   2.004   6.589 -1.2698  1.0010  2.0739
 6080SOL     OW19138   1.455   1.244   2.870 -0.8200 -0.3086  0.1987
 6080SOL    HW119139   1.452   1.147   2.847 -1.4058 -0.3923  0.6072
 6080SOL    HW219140   1.369   1.271   2.913 -0.6347  0.3757  0.1519
 6081SOL     OW19141   5.376   2.408   3.999 -0.4065 -0.2543  0.0832
 6081SOL    HW119142   5.363   2.346   4.076 -0.5533  0.0149  0.2744
 6081SOL    HW219143   5.288   2.444   3.970 -0.0957  2.1485  1.8485
 6082SOL     OW19144   2.515   2.179   2.908  0.5086 -0.1767  0.0923
 6082SOL    HW119145   2.605   2.208   2.876 -0.5446  1.0499 -1.9781
 6082SOL    HW219146   2.450   2.255   2.899 -1.1541 -1.5848 -0.3013
 6083SOL     OW19147   0.212   5.335   6.599 -0.2885 -0.9184 -0.1812
 6083SOL    HW119148   0.238   5.239   6.598  0.4522 -0.7311  0.7570
 6083SOL    HW219149   0.294   5.392   6.600 -0.7150 -0.2550 -1.2629
 6084SOL     OW19150   6.341   5.423   4.267  0.5353  0.0462 -0.4985
 6084SOL    HW119151   6.390   5.337   4.251 -0.2104 -0.7656  1.2707
 6084SOL    HW219152   6.242   5.405   4.270  0.4595  0.4597  2.2540
 6085SOL     OW19153   5.754   4.323   0.389 -0.1452  0.5802  0.5857
 6085SOL    HW119154   5.791   4.278   0.307  0.7942  0.6077  0.9794
 6085SOL    HW219155   5.743   4.255   0.462 -3.0848  0.0898 -0.1945
 6086SOL     OW19156   3.403   1.570   3.851  0.0567 -0.4688 -0.0016
 6086SOL    HW119157   3.483   1.591   3.794 -0.1443 -2.2564 -0.9886
 6086SOL    HW219158   3.403   1.632   3.930  0.6384  1.7319 -1.6107
 6087SOL     OW19159   2.413   5.806   6.590  0.1617  0.6977  0.0315
 6087SOL    HW119160   2.364   5.776   6.509 -0.4758 -1.1264  1.0293
 6087SOL    HW219161   2.423   5.729   6.653  1.2308  1.8954  1.3943
 6088SOL     OW19162   6.761   5.041   4.755  0.2586 -0.3296  0.3642
 6088SOL    HW119163   6.838   5.094   4.721 -0.0123 -0.4411 -0.4506
 6088SOL    HW219164   6.742   4.965   4.692 -2.0176  1.0915 -0.7964
 6089SOL     OW19165   0.258   3.456   0.552  0.1866  0.1401 -0.3881
 6089SOL    HW119166   0.317   3.376   0.538 -0.1357  0.0900 -1.6166
 6089SOL    HW219167   0.209   3.446   0.639  0.5099 -0.7642 -0.2976
 6090SOL     OW19168   2.119   1.766   6.046  0.3505 -0.1549  0.1529
 6090SOL    HW119169   2.198   1.793   5.991  0.5019  0.6055  0.7285
 6090SOL    HW219170   2.109   1.667   6.044  1.5779 -0.3018  0.4271
 6091SOL     OW19171   2.101   0.026   3.364  0.0691  0.5152 -0.0924
 6091SOL    HW119172   2.067  -0.004   3.275 -1.6773  0.8066  0.4293
 6091SOL    HW219173   2.200   0.040   3.359  0.1314 -0.2392 -1.7527
 6092SOL     OW19174   3.366   0.035   2.731 -0.5935 -0.4186  0.2924
 6092SOL    HW119175   3.270   0.057   2.718 -0.3781  1.2615  1.1760
 6092SOL    HW219176   3.384  -0.059   2.703 -2.2786 -0.4443 -0.7965
 6093SOL     OW19177   6.862   2.303   0.858 -0.3189 -0.4387  0.3821
 6093SOL    HW119178   6.835   2.387   0.906 -1.6823 -0.5113 -0.2085
 6093SOL    HW219179   6.951   2.317   0.815  0.6384 -0.1465  2.3384
 6094SOL     OW19180   3.306   6.916   1.017 -0.4944  0.4227 -0.2220
 6094SOL    HW119181   3.374   6.926   0.945  0.9677  0.8520  1.1592
 6094SOL    HW219182   3.286   6.819   1.032  0.4455  0.2332 -0.1061
 6095SOL     OW19183   6.033   3.328   6.484 -0.0155  0.3670 -0.1989
 6095SOL    HW119184   5.991   3.252   6.533 -0.2354  1.2788  1.0596
 6095SOL    HW219185   6.123   3.348   6.523 -0.2701  1.2246 -0.0451
 6096SOL     OW19186   5.615   0.405   6.209  0.1591  0.5233  0.0147
 6096SOL    HW119187   5.644   0.398   6.304  0.4591 -0.3006 -0.1364
 6096SOL    HW219188   5.525   0.450   6.205  0.5025  1.2921  0.6163
 6097SOL     OW19189   4.402   0.485   2.910  0.0704 -0.3069  0.9142
 6097SOL    HW119190   4.326   0.457   2.851  0.6521 -1.6565  0.7767
 6097SOL    HW219191   4.380   0.464   3.005 -0.3109  0.6466  1.0529
 6098SOL     OW19192   0.650   3.258   5.251  0.3392 -0.3459  0.1593
 6098SOL    HW119193   0.585   3.241   5.177  0.3182 -2.7765  0.6622
 6098SOL    HW219194   0.743   3.256   5.215  0.2725 -0.0790 -0.0297
 6099SOL     OW19195   6.749   6.417   5.583 -0.5295 -0.0727 -0.4642
 6099SOL    HW119196   6.696   6.480   5.641 -0.3468  0.8169 -1.2538
 6099SOL    HW219197   6.695   6.392   5.503 -0.1362  0.0267 -0.7593
 6100SOL     OW19198   4.921   0.955   5.592 -0.0642  0.7017 -0.3337
 6100SOL    HW119199   5.004   0.920   5.634  0.7342  0.9689 -1.6408
 6100SOL    HW219200   4.874   1.016   5.656  0.1686 -0.2754  0.8015
 6101SOL     OW19201   0.331   1.503   5.818 -0.3246  0.1431  0.7989
 6101SOL    HW119202   0.235   1.481   5.835 -0.9657  1.6204 -0.6365
 6101SOL    HW219203   0.386   1.420   5.824 -1.8184 -0.8878  0.7225
 6102SOL     OW19204   2.702   1.666   3.956 -0.2369  0.0421  0.4732
 6102SOL    HW119205   2.691   1.764   3.943 -1.5366 -0.2895 -1.3993
 6102SOL    HW219206   2.799   1.642   3.945 -0.0029  1.0283  0.2865
 6103SOL     OW19207   0.713   3.513   3.120 -0.0861 -0.0573  0.4456
 6103SOL    HW119208   0.644   3.478   3.057  0.9793 -0.2219 -0.6557
 6103SOL    HW219209   0.789   3.553   3.069  0.1782  1.0446  1.6493
 6104SOL     OW19210   6.633   2.339   3.720  0.2354 -0.2182 -0.1067
 6104SOL    HW119211   6.573   2.390   3.782  0.3247  0.6545 -0.7301
 6104SOL    HW219212   6.714   2.309   3.771 -0.6505 -1.3106  0.7129
 6105SOL     OW19213   2.382   0.396   6.973 -0.5492 -0.3107 -0.7196
 6105SOL    HW119214   2.289   0.371   6.947 -1.5032  0.3890  1.7255
 6105SOL    HW219215   2.382   0.436   7.065  2.3684 -1.6846  0.0302
 6106SOL     OW19216   2.782   5.075   5.437 -0.4353 -0.5511  0.5408
 6106SOL    HW119217   2.874   5.108   5.414  0.4275 -2.0336  1.6174
 6106SOL    HW219218   2.759   4.998   5.378 -2.4821  1.8423 -2.0465
 6107SOL     OW19219   0.974   5.301   5.970  0.4899  0.2407 -0.1386
 6107SOL    HW119220   1.040   5.261   6.034 -0.9296 -0.4803  0.9422
 6107SOL    HW219221   0.997   5.272   5.877  1.4413 -0.3583  0.2647
 6108SOL     OW19222   5.950   3.825   4.331 -0.0270  0.2918 -0.2619
 6108SOL    HW119223   5.966   3.848   4.234 -0.7604 -0.1077 -0.4802
 6108SOL    HW219224   5.999   3.741   4.353 -1.1424 -0.4926 -0.7195
 6109SOL     OW19225   4.878   1.490   5.066  0.4614  0.6389 -0.0623
 6109SOL    HW119226   4.935   1.497   4.984 -0.7490 -0.3330 -1.0322
 6109SOL    HW219227   4.859   1.394   5.086 -1.5843  0.9343 -0.3476
 6110SOL     OW19228   3.368   1.015   6.019  0.4356 -0.4539  0.0743
 6110SOL    HW119229   3.308   1.040   6.095  1.6051  1.2649  0.5145
 6110SOL    HW219230   3.419   0.932   6.042 -2.3837 -2.5606 -0.7271
 6111SOL     OW19231   1.233   4.786   2.182  0.5585 -0.7482  0.5728
 6111SOL    HW119232   1.288   4.819   2.259  0.2865  1.9092 -0.2796
 6111SOL    HW219233   1.292   4.737   2.118  0.9557 -2.1877  1.9666
 6112SOL     OW19234   2.545   1.970   3.868  0.0577  0.6864 -0.3279
 6112SOL    HW119235   2.458   2.019   3.867 -1.7255 -2.2449 -0.1940
 6112SOL    HW219236   2.536   1.886   3.814  2.5121 -0.2063  0.5312
 6113SOL     OW19237   2.124   0.603   5.731 -0.3141 -0.6392  0.0732
 6113SOL    HW119238   2.093   0.531   5.794 -0.5515 -1.7096 -1.2196
 6113SOL    HW219239   2.091   0.583   5.639 -0.8159  1.4078 -0.2519
 6114SOL     OW19240   6.249   4.879   5.546 -0.0333 -0.5289 -0.5126
 6114SOL    HW119241   6.222   4.974   5.565  0.5235 -0.3123 -0.7963
 6114SOL    HW219242   6.261   4.830   5.632 -2.6430 -1.0169 -0.3482
 6115SOL     OW19243   0.686   5.084   4.053 -0.1006  0.1413 -0.1607
 6115SOL    HW119244   0.640   5.136   4.125  1.3299  1.1560  0.0555
 6115SOL    HW219245   0.741   5.012   4.096  1.1780  1.0836 -0.1664
 6116SOL     OW19246   1.597   0.688   0.711  0.7358 -0.2333 -0.8239
 6116SOL    HW119247   1.513   0.671   0.659  1.1654 -1.3122 -1.1983
 6116SOL    HW219248   1.675   0.649   0.661  1.3764  0.2072 -0.1809
 6117SOL     OW19249   6.477   6.583   1.372  0.0245  1.2375  0.2143
 6117SOL    HW119250   6.533   6.522   1.428 -0.2770  0.9172  0.1637
 6117SOL    HW219251   6.465   6.544   1.281  1.5896  2.3511 -0.5087
 6118SOL     OW19252   0.879   2.203   1.000  0.1283 -1.0859 -0.7436
 6118SOL    HW119253   0.939   2.275   1.035 -0.4665 -1.5590  1.4085
 6118SOL    HW219254   0.922   2.114   1.014 -1.1171 -1.4535  1.0934
 6119SOL     OW19255   0.450   2.749   5.286  0.3700  0.4120 -0.4414
 6119SOL    HW119256   0.532   2.805   5.278  0.4809  0.4141  0.5736
 6119SOL    HW219257   0.443   2.714   5.380 -1.1759  0.9942 -0.3282
 6120SOL     OW19258   3.922   6.986   5.442 -0.3727 -0.1801  0.2373
 6120SOL    HW119259   3.880   7.075   5.429 -0.3391 -0.1011  0.6694
 6120SOL    HW219260   3.888   6.923   5.371 -2.8010 -0.6866  1.7162
 6121SOL     OW19261   6.829   4.578   4.101 -0.0372 -0.2117  0.1358
 6121SOL    HW119262   6.824   4.539   4.193  0.3341 -2.4547 -0.7073
 6121SOL    HW219263   6.924   4.593   4.075 -0.1033 -0.1919 -0.1033
 6122SOL     OW19264   3.770   6.019   1.482 -0.3500  0.4573  0.1168
 6122SOL    HW119265   3.829   5.967   1.421 -1.0725 -0.3060  0.0557
 6122SOL    HW219266   3.728   5.958   1.549  0.9079  1.3589  1.8040
 6123SOL     OW19267   4.533   0.992   6.984  0.5936  0.0194 -0.0015
 6123SOL    HW119268   4.476   1.056   7.035  1.1995  2.2561 -1.9688
 6123SOL    HW219269   4.477   0.915   6.952 -0.2551 -0.2610  1.9943
 6124SOL     OW19270   2.407   1.467   5.828  0.2390 -0.1116  0.1789
 6124SOL    HW119271   2.501   1.487   5.799  0.6167 -1.2722  0.5579
 6124SOL    HW219272   2.408   1.392   5.894 -1.0624 -0.9967 -0.7608
 6125SOL     OW19273   3.921   4.579   6.775 -0.5433 -0.1098 -0.5231
 6125SOL    HW119274   3.930   4.601   6.678 -0.0102  0.8781 -0.2710
 6125SOL    HW219275   3.984   4.637   6.827 -0.2920 -1.1520  0.3483
 6126SOL     OW19276   1.092   6.939   3.674 -0.6994 -0.5233  0.1164
 6126SOL    HW119277   1.129   6.879   3.746 -0.9745 -1.7203 -0.7156
 6126SOL    HW219278   1.168   6.975   3.619 -0.5412 -0.1714  0.5533
 6127SOL     OW19279   2.814   0.144   2.319  0.0191  0.9852  0.4484
 6127SOL    HW119280   2.758   0.196   2.255 -0.9570  1.8065  1.9250
 6127SOL    HW219281   2.768   0.059   2.344  0.0826  0.9871  0.5767
 6128SOL     OW19282   4.826   3.109   6.293 -0.3919 -0.0568  0.5329
 6128SOL    HW119283   4.916   3.073   6.316  0.7288  2.1073 -0.1366
 6128SOL    HW219284   4.829   3.151   6.202 -1.5594  1.6308  1.2236
 6129SOL     OW19285   5.762   4.434   3.479  0.3280  0.4658 -0.3063
 6129SOL    HW119286   5.821   4.390   3.412  0.2456  0.6487 -0.5023
 6129SOL    HW219287   5.723   4.517   3.439 -2.9972 -1.5081 -1.5600
 6130SOL     OW19288   1.264   0.954   4.410 -0.2779  0.8331  0.0558
 6130SOL    HW119289   1.259   0.955   4.510 -1.6425  2.0064  0.0203
 6130SOL    HW219290   1.327   1.025   4.379  1.4167 -0.6040  0.0848
 6131SOL     OW19291   1.328   6.417   6.312  0.3261 -0.0447 -0.1144
 6131SOL    HW119292   1.338   6.367   6.225 -0.8832 -0.0099 -0.2860
 6131SOL    HW219293   1.306   6.512   6.292 -1.0396 -0.2773  0.2230
 6132SOL     OW19294   4.169   0.185   5.561 -0.3748  0.2052  0.1173
 6132SOL    HW119295   4.118   0.210   5.479  0.3224 -0.9346 -0.6945
 6132SOL    HW219296   4.267   0.186   5.541 -0.1350  0.9383  1.2439
 6133SOL     OW19297   2.370   2.693   2.601  0.9118 -0.4027  0.1769
 6133SOL    HW119298   2.292   2.651   2.555 -0.6899  2.3908  0.1184
 6133SOL    HW219299   2.343   2.723   2.693  0.9363  2.9816 -0.7683
 6134SOL     OW19300   2.352   3.614   1.571  0.4739 -0.4733  0.8488
 6134SOL    HW119301   2.415   3.537   1.577  0.5774 -0.4163  0.5149
 6134SOL    HW219302   2.271   3.596   1.627  0.9058 -0.4287  1.5002
 6135SOL     OW19303   0.912   7.001   2.020  0.5948 -0.5814  0.5907
 6135SOL    HW119304   0.978   7.032   1.951 -1.0710  1.9237  0.0066
 6135SOL    HW219305   0.940   6.911   2.053  0.8988 -2.5213 -4.1382
 6136SOL     OW19306   5.627   2.188   2.601  0.0221 -0.1213  0.2020
 6136SOL    HW119307   5.624   2.149   2.509  0.7668 -1.5428  0.7494
 6136SOL    HW219308   5.625   2.115   2.669 -0.1677  0.8848  1.3288
 6137SOL     OW19309   5.556   0.149   4.332  0.2108 -0.5656  0.1441
 6137SOL    HW119310   5.469   0.137   4.381  1.1815 -0.9612  1.8611
 6137SOL    HW219311   5.549   0.107   4.242 -2.0373  1.1891 -0.6233
 6138SOL     OW19312   3.293   6.241   1.844  0.3566 -0.2570 -0.1669
 6138SOL    HW119313   3.197   6.220   1.866  0.5225 -0.4623  0.3761
 6138SOL    HW219314   3.346   6.244   1.928  0.9873 -0.9572 -0.5271
 6139SOL     OW19315   2.051   3.187   2.957 -0.3149  0.6504 -0.2215
 6139SOL    HW119316   2.017   3.094   2.941 -0.1058  0.2886  1.3444
 6139SOL    HW219317   2.078   3.227   2.869 -2.7620  0.2049 -1.2621
 6140SOL     OW19318   6.617   6.793   2.684  0.1016  0.1342  0.0722
 6140SOL    HW119319   6.679   6.871   2.687 -0.8478  0.9720 -1.0536
 6140SOL    HW219320   6.566   6.787   2.770  1.9725 -0.8119  1.1746
 6141SOL     OW19321   5.994   6.369   5.953 -0.2421 -0.0434  0.3735
 6141SOL    HW119322   5.917   6.359   5.890 -0.7377 -1.4485  1.1490
 6141SOL    HW219323   5.968   6.429   6.028 -0.2603  0.2317  0.1469
 6142SOL     OW19324   6.892   4.476   6.120  0.4163 -0.4188  0.2164
 6142SOL    HW119325   6.803   4.470   6.165  1.1222 -0.5874  1.6614
 6142SOL    HW219326   6.938   4.560   6.150  0.8331 -0.4477 -0.3359
 6143SOL     OW19327   6.017   4.252   0.800 -0.2498 -0.1384 -0.0722
 6143SOL    HW119328   5.918   4.257   0.810 -0.2092 -0.2456  0.4086
 6143SOL    HW219329   6.046   4.156   0.803  0.1488 -0.0097  2.7699
 6144SOL     OW19330   6.143   4.987   1.303  0.2643 -0.2155 -1.3375
 6144SOL    HW119331   6.059   5.002   1.252  0.7095  1.5665 -1.6302
 6144SOL    HW219332   6.121   4.970   1.399 -0.4512 -0.5684 -1.5576
 6145SOL     OW19333   6.016   4.740   4.499  0.1560  0.2220  0.3753
 6145SOL    HW119334   5.935   4.756   4.442 -0.0951 -0.9123  0.3831
 6145SOL    HW219335   6.007   4.791   4.584 -1.5108 -1.3645  1.2394
 6146SOL     OW19336   5.039   6.183   4.054  0.0078  0.6230  0.1304
 6146SOL    HW119337   5.052   6.275   4.016 -0.8712  1.3661  1.5074
 6146SOL    HW219338   4.947   6.151   4.031 -0.5272  1.0711  1.4984
 6147SOL     OW19339   1.830   3.853   4.549 -0.0589 -0.2045 -0.8043
 6147SOL    HW119340   1.816   3.764   4.591 -0.1148  0.3604  0.4194
 6147SOL    HW219341   1.744   3.884   4.507 -0.7109  0.2729  0.7984
 6148SOL     OW19342   1.251   5.531   5.746 -0.5209 -0.8658  0.3230
 6148SOL    HW119343   1.159   5.568   5.753 -0.8162 -1.9093  2.7765
 6148SOL    HW219344   1.250   5.447   5.692 -0.7201 -0.1526 -0.8259
 6149SOL     OW19345   5.795   5.501   3.362 -0.7369 -0.6223  0.2270
 6149SOL    HW119346   5.732   5.571   3.397  1.3425  1.9845 -0.9042
 6149SOL    HW219347   5.886   5.517   3.399  0.0442 -2.0993 -0.9545
 6150SOL     OW19348   3.204   3.856   0.021 -0.3072  0.0204  0.3546
 6150SOL    HW119349   3.292   3.903   0.012 -0.6639  1.0600  1.9856
 6150SOL    HW219350   3.134   3.906  -0.029 -0.7019  1.3684  2.1480
 6151SOL     OW19351   4.366   4.016   6.887  0.5731 -0.0004 -0.4081
 6151SOL    HW119352   4.351   4.020   6.986 -0.9953  0.3656 -0.6405
 6151SOL    HW219353   4.323   4.095   6.844  0.5777 -0.5607 -1.4600
 6152SOL     OW19354   0.647   4.165   4.325  0.3226 -0.0215  0.0243
 6152SOL    HW119355   0.660   4.245   4.266  2.4215  1.6470  2.5145
 6152SOL    HW219356   0.552   4.134   4.318 -0.2650  1.9268 -1.8976
 6153SOL     OW19357   4.331   5.994   1.369 -0.7370  0.1978  0.9383
 6153SOL    HW119358   4.410   6.055   1.368 -0.7721  0.2659  1.5372
 6153SOL    HW219359   4.341   5.929   1.445 -0.9708 -0.1756  0.6514
 6154SOL     OW19360   0.562   2.585   2.450 -0.8434 -0.5784 -0.0241
 6154SOL    HW119361   0.523   2.492   2.444 -1.3205 -0.3697 -0.1834
 6154SOL    HW219362   0.642   2.592   2.391  0.0048 -1.2889  0.9887
 6155SOL     OW19363   3.023   2.199   4.109  0.3318  0.5834  0.6379
 6155SOL    HW119364   3.055   2.180   4.201  1.0836  2.8091  0.8905
 6155SOL    HW219365   2.938   2.252   4.113 -0.8034 -1.1114 -0.0016
 6156SOL     OW19366   4.489   4.454   2.755 -0.0669  0.2041  0.0267
 6156SOL    HW119367   4.499   4.483   2.850  1.1831  1.2858 -0.4116
 6156SOL    HW219368   4.563   4.391   2.732  1.1521  1.9081 -0.9230
 6157SOL     OW19369   1.713   2.490   5.274 -0.2652 -0.5811  0.7337
 6157SOL    HW119370   1.643   2.455   5.336 -0.6769  1.5860  1.5860
 6157SOL    HW219371   1.718   2.589   5.283  2.7441 -0.6227  0.5042
 6158SOL     OW19372   4.046   0.810   4.672  0.4337 -0.3924  0.2032
 6158SOL    HW119373   4.132   0.759   4.677  0.4646 -0.3892 -0.2033
 6158SOL    HW219374   3.970   0.751   4.702  0.6200 -0.2747  0.9182
 6159SOL     OW19375   5.605   2.352   1.483  0.1720 -0.4916 -0.1995
 6159SOL    HW119376   5.611   2.379   1.387  0.6501 -1.1441 -0.3621
 6159SOL    HW219377   5.579   2.431   1.538  0.7837  0.1093 -0.7464
 6160SOL     OW19378   5.971   6.322   0.273 -0.0667 -0.0615  0.2268
 6160SOL    HW119379   5.942   6.305   0.368 -0.6951  1.2072  0.2870
 6160SOL    HW219380   6.034   6.399   0.271 -0.4831  0.2740 -0.4391
 6161SOL     OW19381   6.816   1.868   4.538  0.7186  0.3474  0.4229
 6161SOL    HW119382   6.848   1.872   4.632  0.1338  1.0521  0.5965
 6161SOL    HW219383   6.760   1.785   4.525  0.8012  0.2508  0.6934
 6162SOL     OW19384   6.563   1.013   3.311 -1.2252 -0.0803  0.1699
 6162SOL    HW119385   6.621   0.964   3.246 -2.6956 -1.9441  0.1673
 6162SOL    HW219386   6.522   0.949   3.375 -1.5955  1.4455  1.5365
 6163SOL     OW19387   5.610   6.446   1.275  0.3839 -0.8061  0.5358
 6163SOL    HW119388   5.563   6.391   1.206  0.4108 -0.0611 -0.0872
 6163SOL    HW219389   5.673   6.509   1.230  0.1891 -0.1078  1.2250
 6164SOL     OW19390   3.317   3.130   2.504  0.1239 -0.1684 -0.0270
 6164SOL    HW119391   3.319   3.045   2.558 -0.6606 -0.6610 -0.7577
 6164SOL    HW219392   3.223   3.152   2.480  0.4549  0.0609 -1.1602
 6165SOL     OW19393   5.235   0.361   0.053  0.4786  0.1462 -0.9898
 6165SOL    HW119394   5.268   0.279   0.100  1.3664  0.8987 -0.2439
 6165SOL    HW219395   5.200   0.336  -0.037  0.0775 -1.1404 -0.5081
 6166SOL     OW19396   3.259   0.221   6.839 -0.4947 -0.0652  0.5151
 6166SOL    HW119397   3.336   0.283   6.821  0.1503 -0.8894  0.4090
 6166SOL    HW219398   3.274   0.173   6.925 -0.9128 -0.2066  0.5107
 6167SOL     OW19399   1.353   3.658   3.455 -0.3720  0.0998 -0.1029
 6167SOL    HW119400   1.396   3.607   3.528 -1.7799 -0.1838  0.5558
 6167SOL    HW219401   1.416   3.729   3.423 -0.1821  1.1158  2.2892
 6168SOL     OW19402   4.718   3.912   0.655  0.0032 -0.1064  0.4294
 6168SOL    HW119403   4.748   4.006   0.645 -0.9637  0.2354  0.5782
 6168SOL    HW219404   4.653   3.905   0.730 -1.2408 -0.5536 -0.6349
 6169SOL     OW19405   2.130   3.567   1.244  0.1223 -0.2455 -0.1166
 6169SOL    HW119406   2.156   3.518   1.161  1.9258  1.6386 -0.7431
 6169SOL    HW219407   2.127   3.503   1.320  3.2153 -1.3019 -0.7136
 6170SOL     OW19408   1.995   2.541   4.653 -0.3087 -0.0359  0.4925
 6170SOL    HW119409   1.896   2.546   4.647 -0.4441 -2.5664 -0.9118
 6170SOL    HW219410   2.021   2.504   4.742 -0.9528 -2.8888 -0.3796
 6171SOL     OW19411   6.333   2.726   5.213  0.0145  0.3578 -0.7133
 6171SOL    HW119412   6.276   2.726   5.296  1.9699  0.2882  0.6788
 6171SOL    HW219413   6.428   2.744   5.238  0.8622 -0.9419 -2.8073
 6172SOL     OW19414   2.483   3.291   1.265 -0.5208 -0.4258 -0.4236
 6172SOL    HW119415   2.391   3.264   1.294  0.2235  0.0765  2.8364
 6172SOL    HW219416   2.488   3.391   1.260 -0.3950 -0.4778 -1.6874
 6173SOL     OW19417   5.880   5.482   2.805 -0.4721 -0.4486 -0.5518
 6173SOL    HW119418   5.797   5.442   2.765 -0.2594  0.2332 -1.7205
 6173SOL    HW219419   5.948   5.495   2.733 -0.0771  0.8316  0.0244
 6174SOL     OW19420   6.483   6.140   2.539 -0.2272  0.1329 -0.1836
 6174SOL    HW119421   6.421   6.213   2.569 -0.3377 -0.0352 -0.0016
 6174SOL    HW219422   6.484   6.067   2.607  1.2956  0.7845  0.5652
 6175SOL     OW19423   4.871   5.472   5.239  0.3399  0.0726 -0.1810
 6175SOL    HW119424   4.890   5.568   5.218 -0.2177  0.4008  0.7656
 6175SOL    HW219425   4.926   5.413   5.178  2.7016  0.9647  0.9454
 6176SOL     OW19426   4.121   3.022   6.080 -0.4722  0.4111  0.0160
 6176SOL    HW119427   4.177   2.982   6.153 -0.9211  1.6486  1.0705
 6176SOL    HW219428   4.026   2.994   6.093 -0.3653 -0.4015 -0.8582
 6177SOL     OW19429   6.595   1.531   2.432 -0.0480 -0.4938  0.0878
 6177SOL    HW119430   6.559   1.456   2.486 -1.7046 -0.6223 -1.1015
 6177SOL    HW219431   6.608   1.611   2.490 -1.1559 -0.8115  0.8080
 6178SOL     OW19432   4.781   2.554   3.408  0.4605 -0.3957 -0.2178
 6178SOL    HW119433   4.710   2.548   3.338 -0.3719 -1.0706  0.6656
 6178SOL    HW219434   4.758   2.627   3.473  0.1042 -1.1885  0.5660
 6179SOL     OW19435   0.474   6.136   0.780 -0.1284  0.1533  0.2488
 6179SOL    HW119436   0.430   6.197   0.715 -1.1605  1.5016  2.1180
 6179SOL    HW219437   0.535   6.073   0.732 -2.3268 -0.2465 -2.2006
 6180SOL     OW19438   2.540   4.727   6.863 -0.8674 -0.6076  0.1472
 6180SOL    HW119439   2.535   4.628   6.870 -0.6772 -0.5652  0.9450
 6180SOL    HW219440   2.580   4.765   6.946 -1.2125  0.1583 -0.0229
 6181SOL     OW19441   3.635   6.639   5.127  0.1669 -0.0855  0.4184
 6181SOL    HW119442   3.704   6.570   5.104  1.5345  1.9146 -2.0105
 6181SOL    HW219443   3.563   6.638   5.058  0.1759  0.8603  0.3848
 6182SOL     OW19444   4.712   2.002   5.435 -0.1586 -0.0355  0.2447
 6182SOL    HW119445   4.750   2.085   5.476 -0.3206  0.5704 -0.8113
 6182SOL    HW219446   4.784   1.954   5.384 -0.2608 -0.1272  0.1871
 6183SOL     OW19447   6.887   3.316   3.608 -0.1252 -0.1567  0.1332
 6183SOL    HW119448   6.867   3.328   3.706  1.3780 -0.4604  0.4935
 6183SOL    HW219449   6.845   3.391   3.557  0.5780  1.0228  1.2179
 6184SOL     OW19450   4.180   0.632   5.456 -0.0298  0.0739 -0.4124
 6184SOL    HW119451   4.111   0.574   5.502  1.6813  0.2806  2.7254
 6184SOL    HW219452   4.189   0.604   5.361 -0.9138 -3.3385  0.3581
 6185SOL     OW19453   6.627   4.657   0.306 -0.6628 -0.1996  0.1822
 6185SOL    HW119454   6.602   4.722   0.235 -0.0441 -0.8432 -0.6509
 6185SOL    HW219455   6.548   4.601   0.330 -0.8683  0.0066 -0.0136
 6186SOL     OW19456   5.889   2.350   1.017 -0.1031  0.1949  0.1156
 6186SOL    HW119457   5.911   2.270   0.961  2.5519  1.5882 -1.0284
 6186SOL    HW219458   5.970   2.375   1.071  0.0549  3.5014 -1.4291
 6187SOL     OW19459   5.618   2.396   4.170 -0.0920 -0.0393 -0.6560
 6187SOL    HW119460   5.541   2.405   4.107 -1.1150 -2.7346  0.0851
 6187SOL    HW219461   5.586   2.408   4.264  0.0655 -2.3805 -0.2522
 6188SOL     OW19462   2.461   1.359   4.145  0.4055  0.0637 -0.0416
 6188SOL    HW119463   2.482   1.262   4.139 -0.6467 -0.2833  1.2264
 6188SOL    HW219464   2.525   1.403   4.208 -0.3017 -0.2427  0.9304
 6189SOL     OW19465   3.947   5.322   3.330  0.0649 -0.5870 -0.1911
 6189SOL    HW119466   3.864   5.279   3.364 -0.0348  0.7392  1.4248
 6189SOL    HW219467   3.928   5.418   3.307  0.8096 -0.6929 -1.3360
 6190SOL     OW19468   6.127   2.404   6.191  0.0915 -0.4091 -0.1593
 6190SOL    HW119469   6.149   2.362   6.279  2.1040 -0.1802 -0.4865
 6190SOL    HW219470   6.045   2.362   6.153  0.2657 -1.8435  0.9585
 6191SOL     OW19471   1.196   2.769   6.516  0.6345  0.2862  0.2608
 6191SOL    HW119472   1.202   2.684   6.568  0.5421 -0.7279 -1.3355
 6191SOL    HW219473   1.278   2.825   6.533  1.0271 -0.4394  0.7829
 6192SOL     OW19474   2.537   1.818   1.076 -0.3804  0.0653  0.0161
 6192SOL    HW119475   2.469   1.773   1.135  1.1455 -1.0456  1.0126
 6192SOL    HW219476   2.570   1.754   1.007  1.3730 -0.2256  1.0589
 6193SOL     OW19477   3.623   5.521   2.820  0.4535 -0.1115  0.3084
 6193SOL    HW119478   3.627   5.491   2.915 -0.0524  0.6476  0.5713
 6193SOL    HW219479   3.548   5.586   2.808 -1.9817 -3.0071 -1.4258
 6194SOL     OW19480   6.636   5.665   1.088 -0.4074  0.1149  0.8376
 6194SOL    HW119481   6.567   5.629   1.025  0.0105 -0.6438  0.7958
 6194SOL    HW219482   6.624   5.622   1.178 -1.1783  1.3999  1.3793
 6195SOL     OW19483   6.573   1.167   4.463  0.1267 -0.1149 -0.4808
 6195SOL    HW119484   6.670   1.190   4.452 -0.2726  1.4393 -0.8888
 6195SOL    HW219485   6.518   1.250   4.460 -1.0501 -0.7229  2.0145
 6196SOL     OW19486   5.015   2.643   2.231  0.0297  0.4046 -0.2162
 6196SOL    HW119487   4.951   2.701   2.182  0.6207  0.6828 -0.6738
 6196SOL    HW219488   5.102   2.640   2.182  0.3882  0.0805  0.4223
 6197SOL     OW19489   2.638   4.436   1.147 -1.0347 -0.6664 -0.1282
 6197SOL    HW119490   2.641   4.337   1.156  0.2457 -0.7253 -0.9551
 6197SOL    HW219491   2.585   4.475   1.223  0.4898 -1.8103  1.6101
 6198SOL     OW19492   5.396   0.909   2.376  0.0512  0.2111  0.3472
 6198SOL    HW119493   5.397   0.942   2.281  0.7958  0.5839  0.4825
 6198SOL    HW219494   5.309   0.863   2.393 -0.3178  0.6191 -0.3558
 6199SOL     OW19495   0.556   3.110   1.848 -0.1949 -0.0828  0.3163
 6199SOL    HW119496   0.556   3.164   1.932 -0.5982  0.4757 -0.0391
 6199SOL    HW219497   0.464   3.108   1.810 -0.1687 -0.9586  0.2822
 6200SOL     OW19498   1.186   2.048   3.714  0.3014 -0.3908 -0.3646
 6200SOL    HW119499   1.171   1.971   3.652  1.0396 -0.7331 -0.1410
 6200SOL    HW219500   1.153   2.132   3.671 -3.0243 -1.1393  0.4684
 6201SOL     OW19501   0.030   4.865   6.720  0.4957 -0.3202 -0.1822
 6201SOL    HW119502   0.048   4.859   6.622 -0.0598 -0.4915 -0.2785
 6201SOL    HW219503   0.084   4.939   6.760 -0.6996  1.0271 -0.9603
 6202SOL     OW19504   6.021   6.530   1.875 -0.0559 -0.3327 -0.2433
 6202SOL    HW119505   5.980   6.441   1.860 -0.8875  0.1311 -0.8001
 6202SOL    HW219506   5.975   6.598   1.818  1.8868  0.1090 -1.3753
 6203SOL     OW19507   0.221   4.756   3.391  0.0762  0.3751  0.3784
 6203SOL    HW119508   0.247   4.676   3.444  0.8177  1.2498  1.3882
 6203SOL    HW219509   0.220   4.837   3.451 -1.9911  0.9163 -0.2958
 6204SOL     OW19510   1.331   6.309   4.062 -0.3351 -0.1536 -0.6170
 6204SOL    HW119511   1.247   6.321   4.009  0.4195 -0.6296 -1.9801
 6204SOL    HW219512   1.324   6.359   4.148 -2.0710 -0.3202 -0.6295
 6205SOL     OW19513   4.209   4.967   0.894  0.0796 -0.0530  0.0821
 6205SOL    HW119514   4.253   4.919   0.818 -1.1393 -1.3822  0.1789
 6205SOL    HW219515   4.144   5.034   0.858 -0.0661 -0.2633 -0.0442
 6206SOL     OW19516   4.978   2.308   2.873  0.5348  0.1471  0.1110
 6206SOL    HW119517   4.974   2.208   2.878  2.3219  0.0909  1.2003
 6206SOL    HW219518   4.941   2.338   2.785 -0.7947 -1.3928  0.0959
 6207SOL     OW19519   2.214   1.104   5.144  0.0650 -0.0588  0.0680
 6207SOL    HW119520   2.230   1.181   5.083 -0.1159  1.2202  1.5776
 6207SOL    HW219521   2.301   1.059   5.165  0.2889  0.2784 -0.1326
 6208SOL     OW19522   4.951   1.741   5.743  0.3232  0.1225 -0.3720
 6208SOL    HW119523   4.898   1.721   5.826 -1.3346 -0.4094 -1.5078
 6208SOL    HW219524   5.048   1.741   5.765 -0.0677 -0.1143  1.5469
 6209SOL     OW19525   2.706   6.930   0.461  0.3431 -0.8206  0.2158
 6209SOL    HW119526   2.631   6.877   0.421 -0.5778  1.7366 -1.7363
 6209SOL    HW219527   2.793   6.899   0.422 -0.1931 -0.8030 -1.0382
 6210SOL     OW19528   4.824   2.340   3.930  0.2387  0.0020 -0.1416
 6210SOL    HW119529   4.857   2.394   3.852  1.1687  1.2259  1.0461
 6210SOL    HW219530   4.729   2.312   3.914  0.5683 -0.2314 -1.9208
 6211SOL     OW19531   3.543   5.863   4.713  0.6022  0.3903  0.2182
 6211SOL    HW119532   3.500   5.794   4.771  1.7469 -0.9108 -0.4145
 6211SOL    HW219533   3.593   5.928   4.770  1.6553 -0.8315  0.7419
 6212SOL     OW19534   1.565   5.171   4.375 -0.5065  0.1623  0.3713
 6212SOL    HW119535   1.643   5.112   4.394  0.4011  0.2855 -2.4773
 6212SOL    HW219536   1.553   5.237   4.450  1.0598 -0.9059  1.6267
 6213SOL     OW19537   2.214   6.823   6.050 -0.8965  0.9023  0.0802
 6213SOL    HW119538   2.237   6.726   6.042 -0.4315  1.0253 -0.1039
 6213SOL    HW219539   2.298   6.878   6.050 -1.1920  1.5369 -2.8508
 6214SOL     OW19540   5.878   6.039   5.787 -0.2455  0.0502  0.3868
 6214SOL    HW119541   5.941   5.962   5.801  0.0858  0.5205  1.6423
 6214SOL    HW219542   5.857   6.081   5.875 -1.7023  0.4068 -0.1077
 6215SOL     OW19543   2.209   2.869   1.846  0.0061 -0.5233 -0.4090
 6215SOL    HW119544   2.114   2.897   1.862  0.4166  0.0371  1.2711
 6215SOL    HW219545   2.244   2.824   1.928  1.3010 -0.4007 -0.8840
 6216SOL     OW19546   0.002   2.059   2.067 -0.1141 -0.1043 -0.7514
 6216SOL    HW119547   0.006   2.129   2.138  0.9372  0.5240 -1.3856
 6216SOL    HW219548  -0.093   2.038   2.044 -0.4590 -0.1251  0.6293
 6217SOL     OW19549   0.904   5.361   5.365  0.0105 -0.3910  0.1837
 6217SOL    HW119550   0.921   5.395   5.273  2.8215 -1.2039  0.2882
 6217SOL    HW219551   0.962   5.280   5.382 -1.2558 -0.9390  2.2784
 6218SOL     OW19552   4.619   0.748   1.601 -0.1988  0.0009 -1.1186
 6218SOL    HW119553   4.678   0.680   1.558  0.1822 -0.1478 -0.3880
 6218SOL    HW219554   4.670   0.795   1.673 -0.8527  0.1435 -0.7381
 6219SOL     OW19555   1.563   5.589   4.798 -0.0845 -0.3347 -0.4481
 6219SOL    HW119556   1.550   5.537   4.883  1.8682 -0.5358 -0.2124
 6219SOL    HW219557   1.635   5.546   4.744  3.6862  3.3754  1.0095
 6220SOL     OW19558   2.620   1.684   4.796 -0.0556  0.7389 -0.9807
 6220SOL    HW119559   2.638   1.629   4.877  1.0087  1.0838 -0.9630
 6220SOL    HW219560   2.613   1.625   4.716 -0.0153  0.4956 -0.8057
 6221SOL     OW19561   5.707   0.925   6.470  0.0343  0.2074 -0.2233
 6221SOL    HW119562   5.740   0.949   6.379  0.4255  2.4641  0.4375
 6221SOL    HW219563   5.779   0.879   6.521 -0.7259 -2.6421 -1.5341
 6222SOL     OW19564   1.101   0.843   3.889 -0.2904 -0.4206 -0.4058
 6222SOL    HW119565   1.092   0.863   3.987 -0.3738 -2.0479 -0.0488
 6222SOL    HW219566   1.031   0.776   3.862 -1.7613  1.6680 -2.1246
 6223SOL     OW19567   3.487   4.851   1.720  0.4254  0.6278  0.2997
 6223SOL    HW119568   3.517   4.776   1.780 -1.3561  0.0208  0.4903
 6223SOL    HW219569   3.525   4.937   1.753  1.9251 -0.0750  0.5024
 6224SOL     OW19570   4.781   1.701   6.442 -0.1220  0.2319 -0.4468
 6224SOL    HW119571   4.724   1.771   6.485 -0.2149  0.4212 -0.8795
 6224SOL    HW219572   4.868   1.695   6.491 -0.3960  0.1451  0.0364
 6225SOL     OW19573   4.473   3.168   5.822 -0.3097 -0.5962  0.0154
 6225SOL    HW119574   4.412   3.174   5.743  0.2663 -0.5828 -0.4339
 6225SOL    HW219575   4.437   3.225   5.896 -0.1803  0.4313 -0.6895
 6226SOL     OW19576   1.532   1.356   4.137 -0.9167  0.0940 -0.3015
 6226SOL    HW119577   1.509   1.314   4.050  0.8663  1.8671 -1.7319
 6226SOL    HW219578   1.606   1.305   4.180 -1.4905 -0.5215 -0.0381
 6227SOL     OW19579   3.486   4.911   4.882  1.2317  0.3885 -0.1895
 6227SOL    HW119580   3.484   4.811   4.891  0.9699  0.2818 -1.2827
 6227SOL    HW219581   3.477   4.936   4.785  1.6356  1.4671  0.0376
 6228SOL     OW19582   0.303   2.234   2.533  0.2647  0.0892 -0.6053
 6228SOL    HW119583   0.379   2.259   2.594  0.7655 -0.7464 -0.8643
 6228SOL    HW219584   0.334   2.240   2.438 -0.4130  1.0576 -0.7775
 6229SOL     OW19585   0.526   3.658   5.270 -0.4256  0.1699  0.1502
 6229SOL    HW119586   0.490   3.709   5.348 -0.4485 -0.3914  0.5089
 6229SOL    HW219587   0.617   3.622   5.292 -0.7641 -0.6735  0.2205
 6230SOL     OW19588   1.010   1.028   2.537 -0.0062  0.8934  0.2864
 6230SOL    HW119589   0.938   0.960   2.552 -0.4697  1.4856  0.8055
 6230SOL    HW219590   1.097   0.981   2.520 -0.2249  0.1655  1.0817
 6231SOL     OW19591   4.607   6.597   0.978  0.7972 -0.5546 -0.0014
 6231SOL    HW119592   4.623   6.635   0.887  1.2518 -1.5724 -0.3688
 6231SOL    HW219593   4.652   6.654   1.047 -1.3586  1.4662 -0.1437
 6232SOL     OW19594   6.668   2.818   6.873 -0.1757 -1.0180  0.5097
 6232SOL    HW119595   6.596   2.754   6.900 -0.1094 -0.4453  2.1892
 6232SOL    HW219596   6.733   2.829   6.949 -0.0277  0.8021  0.1707
 6233SOL     OW19597   6.952   4.161   1.238 -0.0092  0.6899 -0.0557
 6233SOL    HW119598   6.918   4.152   1.145  0.5866 -0.0761 -0.2052
 6233SOL    HW219599   7.006   4.245   1.246 -1.3687  1.6006  0.0260
 6234SOL     OW19600   5.568   2.042   6.836 -0.2874  0.2065  0.2214
 6234SOL    HW119601   5.482   2.024   6.885 -0.9749 -1.2636 -1.4284
 6234SOL    HW219602   5.555   2.118   6.772 -0.3956 -0.0798 -0.0988
 6235SOL     OW19603   0.009   0.065   1.684 -0.0131  0.6590  1.0008
 6235SOL    HW119604   0.005  -0.021   1.633 -0.6291  0.8281  0.7503
 6235SOL    HW219605  -0.061   0.127   1.649 -0.8099  0.5925  2.4089
 6236SOL     OW19606   0.997   4.075   6.642 -0.4605  0.0658  0.1825
 6236SOL    HW119607   1.069   4.048   6.706 -0.3437  0.1450  0.0857
 6236SOL    HW219608   0.960   4.163   6.670 -0.2751  0.1936  0.0324
 6237SOL     OW19609   4.329   6.354   6.861  0.4830 -0.4925  0.3489
 6237SOL    HW119610   4.298   6.267   6.899 -1.7459 -0.2359 -0.6907
 6237SOL    HW219611   4.338   6.346   6.762  0.2353  0.4506  0.2388
 6238SOL     OW19612   6.491   6.534   3.130  0.0921  0.1853  0.7666
 6238SOL    HW119613   6.514   6.445   3.170 -0.3980  0.5705  1.9411
 6238SOL    HW219614   6.572   6.593   3.129  0.1008  0.1784  1.1991
 6239SOL     OW19615   4.948   0.487   0.793  0.5546 -0.1265 -0.4013
 6239SOL    HW119616   5.013   0.527   0.728 -1.2396  2.9750 -0.5211
 6239SOL    HW219617   4.868   0.453   0.743 -0.5594  1.7183  0.0072
 6240SOL     OW19618   1.797   3.063   6.671  0.0852  0.1711 -0.0053
 6240SOL    HW119619   1.779   3.004   6.592 -0.5625  0.4609 -0.0797
 6240SOL    HW219620   1.713   3.110   6.697  0.3788  0.3432  0.6440
 6241SOL     OW19621   5.540   5.478   3.130  0.1880 -0.0883 -0.7208
 6241SOL    HW119622   5.521   5.538   3.208 -2.7754 -2.6787  0.8236
 6241SOL    HW219623   5.634   5.445   3.136 -0.1446 -0.8375  2.3561
 6242SOL     OW19624   2.828   0.446   2.787  0.4306 -0.5121  0.0205
 6242SOL    HW119625   2.762   0.512   2.748  1.3271 -0.5931 -1.7321
 6242SOL    HW219626   2.827   0.363   2.733  1.4952 -0.7740  0.3917
 6243SOL     OW19627   6.877   1.326   0.411 -0.1931  0.6172 -0.7376
 6243SOL    HW119628   6.875   1.262   0.487  0.8963  0.5916 -0.7104
 6243SOL    HW219629   6.853   1.279   0.326  1.4686 -0.0753 -0.8646
 6244SOL     OW19630   4.801   4.917   3.715  0.0614  0.2426 -0.1231
 6244SOL    HW119631   4.784   4.982   3.789 -1.6294 -0.7428  0.3882
 6244SOL    HW219632   4.776   4.959   3.627 -1.7293  0.0593  0.2716
 6245SOL     OW19633   6.640   5.829   2.527 -0.0243 -0.1252 -0.1236
 6245SOL    HW119634   6.571   5.822   2.456  0.0740  1.7387 -0.4519
 6245SOL    HW219635   6.729   5.801   2.490 -0.1757 -0.2460 -0.3968
 6246SOL     OW19636   0.794   0.006   5.034  0.0207  0.2071  0.5644
 6246SOL    HW119637   0.768  -0.053   5.110 -2.2498  1.1991  0.6426
 6246SOL    HW219638   0.747  -0.023   4.951 -1.6427  2.1951  0.7391
 6247SOL     OW19639   3.481   5.434   3.806  0.1824  0.1155  0.2055
 6247SOL    HW119640   3.385   5.407   3.812  0.9394 -2.8484  0.5807
 6247SOL    HW219641   3.517   5.408   3.716  0.9693 -0.0173  0.5514
 6248SOL     OW19642   2.161   2.906   6.968 -0.8533 -0.5079 -0.7620
 6248SOL    HW119643   2.219   2.945   7.040 -0.7859 -0.6276 -0.7525
 6248SOL    HW219644   2.217   2.877   6.891 -1.0588  1.2221 -1.6175
 6249SOL     OW19645   6.816   3.640   6.784  0.9492  0.3370  0.2602
 6249SOL    HW119646   6.742   3.574   6.798  1.8623 -0.8052 -0.1374
 6249SOL    HW219647   6.888   3.624   6.851  0.5287  1.9508  1.1580
 6250SOL     OW19648   0.556   6.774   0.955 -0.2326  0.4574 -0.3427
 6250SOL    HW119649   0.651   6.745   0.954  0.1188  1.2547  2.1962
 6250SOL    HW219650   0.497   6.695   0.976 -0.3012 -0.2136 -2.7257
 6251SOL     OW19651   3.547   5.702   4.175  0.3154  0.3128 -0.1880
 6251SOL    HW119652   3.561   5.786   4.227  1.6503  0.0254 -0.0486
 6251SOL    HW219653   3.633   5.650   4.171  0.1203  0.0551 -2.2240
 6252SOL     OW19654   3.282   3.450   0.421 -0.5300 -0.0604 -0.2761
 6252SOL    HW119655   3.264   3.396   0.504  1.5570 -1.7841 -0.8456
 6252SOL    HW219656   3.227   3.533   0.423 -1.5943 -0.7211  2.1451
 6253SOL     OW19657   1.731   6.415   5.358  0.1242  0.1764 -0.2245
 6253SOL    HW119658   1.691   6.385   5.272  1.9042  0.9066 -1.3662
 6253SOL    HW219659   1.750   6.335   5.416 -0.7803 -0.3474 -0.6290
 6254SOL     OW19660   6.897   6.499   6.851  0.0194  0.2408 -0.4897
 6254SOL    HW119661   6.943   6.476   6.937  0.1155  2.2393  0.0365
 6254SOL    HW219662   6.949   6.462   6.774  2.1819  1.8263  0.1276
 6255SOL     OW19663   2.514   3.401   1.688  0.5556  0.7573 -0.0077
 6255SOL    HW119664   2.461   3.410   1.773 -1.0209  0.1208 -0.8872
 6255SOL    HW219665   2.570   3.319   1.692 -2.5333 -1.5964 -1.0644
 6256SOL     OW19666   3.515   5.179   2.480  0.6384  0.3044  0.4081
 6256SOL    HW119667   3.505   5.080   2.492 -0.1368  0.2519 -0.4963
 6256SOL    HW219668   3.556   5.197   2.391  0.4934  0.7977  0.4416
 6257SOL     OW19669   5.284   1.462   0.332  0.2868  0.5192 -0.1542
 6257SOL    HW119670   5.289   1.494   0.426  1.7305 -1.2209  0.4264
 6257SOL    HW219671   5.346   1.384   0.320 -1.6174 -0.8262 -1.9374
 6258SOL     OW19672   3.642   1.164   5.050  0.4400  0.1083 -0.3930
 6258SOL    HW119673   3.685   1.108   4.979  0.7192  1.2603 -1.1639
 6258SOL    HW219674   3.658   1.260   5.030 -0.9206  0.5057  0.3333
 6259SOL     OW19675   3.259   1.495   5.465 -0.0302  0.1306  0.3699
 6259SOL    HW119676   3.198   1.416   5.457 -0.9262  0.6337  1.8807
 6259SOL    HW219677   3.204   1.578   5.476  0.8224  1.2367 -2.6883
 6260SOL     OW19678   3.948   0.186   0.148 -0.8044  0.0732 -0.2679
 6260SOL    HW119679   4.029   0.223   0.103  0.2200  1.0108  2.1748
 6260SOL    HW219680   3.954   0.087   0.151 -0.6688  0.0177 -1.7009
 6261SOL     OW19681   5.327   0.126   0.168 -0.3076 -0.2150 -0.0178
 6261SOL    HW119682   5.263   0.064   0.122  0.4468  1.3593 -3.5264
 6261SOL    HW219683   5.327   0.107   0.266 -5.1532 -1.1503  0.0622
 6262SOL     OW19684   6.415   6.269   2.060 -0.2621  0.6459 -0.3101
 6262SOL    HW119685   6.489   6.219   2.015  0.5316  1.0830  0.4808
 6262SOL    HW219686   6.351   6.303   1.990  0.2154  0.1803 -0.9936
 6263SOL     OW19687   2.342   6.989   6.470  0.1261  0.5759 -0.7537
 6263SOL    HW119688   2.247   6.984   6.440 -0.3141  0.8856  0.5001
 6263SOL    HW219689   2.364   6.910   6.527 -0.7042  2.4600  2.4028
 6264SOL     OW19690   0.441   6.537   1.997  0.3921 -0.0960  0.1001
 6264SOL    HW119691   0.527   6.581   1.974 -1.0564  2.0932 -1.5321
 6264SOL    HW219692   0.402   6.495   1.915 -0.7937  0.2585  0.4642
 6265SOL     OW19693   3.874   3.947   0.825 -0.1568  0.7126  0.0321
 6265SOL    HW119694   3.793   3.922   0.772  0.1527 -0.0081 -0.1146
 6265SOL    HW219695   3.898   3.873   0.888  1.3086  0.1976 -1.0629
 6266SOL     OW19696   4.618   6.125   1.402 -0.1127 -0.1051  0.5405
 6266SOL    HW119697   4.667   6.212   1.400 -0.5263  0.1365  0.7190
 6266SOL    HW219698   4.669   6.059   1.458 -0.3068  0.3416  1.2568
 6267SOL     OW19699   1.546   6.437   2.965  0.2363  0.3080 -0.3370
 6267SOL    HW119700   1.642   6.421   2.943  0.9367  1.3840  1.7557
 6267SOL    HW219701   1.515   6.521   2.921  0.5785  0.5602 -0.0967
 6268SOL     OW19702   2.691   6.831   1.708  0.1896 -0.3772 -0.2066
 6268SOL    HW119703   2.724   6.882   1.628 -0.3540  0.8417  0.3207
 6268SOL    HW219704   2.745   6.748   1.719  1.2543  0.1906 -0.9743
 6269SOL     OW19705   4.922   5.178   6.699  0.0237  0.5571  0.0413
 6269SOL    HW119706   5.017   5.145   6.694  0.0254  0.4880  0.4954
 6269SOL    HW219707   4.874   5.152   6.615  0.3112  0.2855 -0.0424
 6270SOL     OW19708   0.496   0.139   1.197 -0.2088 -0.0476  0.0404
 6270SOL    HW119709   0.496   0.111   1.293 -2.2493  1.4235  0.5503
 6270SOL    HW219710   0.413   0.192   1.178  0.3323  0.0375 -2.4569
 6271SOL     OW19711   0.164   3.134   6.483  0.0651 -0.0563  0.4739
 6271SOL    HW119712   0.121   3.119   6.394  1.0628 -0.7922  0.0990
 6271SOL    HW219713   0.147   3.228   6.513 -1.4672 -0.2074  0.1763
 6272SOL     OW19714   1.992   1.641   0.848  0.0083 -0.3617 -0.8634
 6272SOL    HW119715   2.068   1.595   0.895  1.3548  0.4481 -2.1597
 6272SOL    HW219716   1.907   1.622   0.896  0.9920 -1.4884  0.5173
 6273SOL     OW19717   6.878   5.732   2.423 -0.4971 -0.5060  1.0018
 6273SOL    HW119718   6.905   5.738   2.519  2.4830  0.9966  0.1936
 6273SOL    HW219719   6.891   5.638   2.391 -0.0420 -0.6838  1.6835
 6274SOL     OW19720   2.304   0.578   6.039  0.6927 -0.0714 -0.1762
 6274SOL    HW119721   2.246   0.660   6.042 -0.9680 -1.2450  1.7638
 6274SOL    HW219722   2.341   0.568   5.947  0.3596  2.4378 -0.6654
 6275SOL     OW19723   3.454   4.092   1.074 -0.4086  0.2061 -0.6059
 6275SOL    HW119724   3.401   4.169   1.110 -0.0440  0.8597 -1.4183
 6275SOL    HW219725   3.528   4.127   1.015 -0.3373 -0.7719 -1.1263
 6276SOL     OW19726   3.955   6.379   3.434  0.5605 -0.3954  0.4075
 6276SOL    HW119727   4.004   6.295   3.410 -0.0112 -0.7301  0.3660
 6276SOL    HW219728   3.896   6.362   3.513 -1.8891 -0.9595 -1.3880
 6277SOL     OW19729   4.333   2.102   1.935  0.0765 -0.1733 -0.4500
 6277SOL    HW119730   4.281   2.184   1.959  1.5983  1.0002 -1.0240
 6277SOL    HW219731   4.423   2.106   1.976  0.2915 -1.4176 -0.7572
 6278SOL     OW19732   5.117   0.761   5.371 -0.3342 -0.6451 -0.4111
 6278SOL    HW119733   5.170   0.797   5.294 -1.2821  0.1837 -0.7063
 6278SOL    HW219734   5.065   0.681   5.341  0.0907 -0.9468 -0.3479
 6279SOL     OW19735   4.497   3.443   0.133  0.2076 -0.0035 -0.2561
 6279SOL    HW119736   4.543   3.358   0.107  2.3866  0.9175  0.2880
 6279SOL    HW219737   4.566   3.513   0.154 -1.3724  0.6042  3.7664
 6280SOL     OW19738   6.206   3.261   5.739  0.0358  0.1814  0.4599
 6280SOL    HW119739   6.131   3.196   5.755  0.0091  0.1345  0.1402
 6280SOL    HW219740   6.189   3.311   5.654 -0.4872  1.3693  1.2304
 6281SOL     OW19741   6.494   5.461   5.094  0.4414 -0.1871  0.2046
 6281SOL    HW119742   6.558   5.389   5.069  0.6144 -0.1633  0.5717
 6281SOL    HW219743   6.421   5.466   5.027 -2.0007 -3.5641  2.3216
 6282SOL     OW19744   5.719   4.338   3.815  0.4812 -0.3269 -0.0340
 6282SOL    HW119745   5.768   4.366   3.733 -2.1074 -0.7306 -1.8374
 6282SOL    HW219746   5.662   4.413   3.847  0.7164 -0.5046  0.8424
 6283SOL     OW19747   0.064   6.469   1.795 -0.2103  0.5432 -0.4722
 6283SOL    HW119748   0.054   6.545   1.731 -0.7344 -0.4607 -1.6124
 6283SOL    HW219749   0.161   6.442   1.798  0.0318  1.4294  0.1715
 6284SOL     OW19750   1.349   6.011   1.536  0.0589 -0.1072  0.2700
 6284SOL    HW119751   1.252   5.999   1.518  0.0801  1.7437 -1.5059
 6284SOL    HW219752   1.362   6.085   1.602  0.2767 -0.8435  1.0793
 6285SOL     OW19753   6.465   3.570   4.226  0.0832 -0.1616 -0.4421
 6285SOL    HW119754   6.455   3.474   4.253 -3.8805  0.7574  2.2888
 6285SOL    HW219755   6.487   3.625   4.307 -1.3852  1.5903 -1.1483
 6286SOL     OW19756   5.043   4.907   2.545 -0.4732  0.1681  0.0638
 6286SOL    HW119757   5.010   4.979   2.484  0.3493 -0.1339 -0.7579
 6286SOL    HW219758   5.075   4.948   2.631 -1.7804  0.5813  0.3816
 6287SOL     OW19759   3.375   5.985   7.005  0.2966 -0.8542  0.3910
 6287SOL    HW119760   3.399   6.082   7.010  0.3353 -0.8231 -0.3096
 6287SOL    HW219761   3.454   5.930   7.034  0.3067 -0.6785  0.6971
 6288SOL     OW19762   4.379   4.240   0.372 -0.6251 -0.0487 -0.4943
 6288SOL    HW119763   4.356   4.146   0.396  1.8885 -0.4519  0.6794
 6288SOL    HW219764   4.474   4.258   0.398 -1.2690  3.0649  0.0650
 6289SOL     OW19765   2.662   4.414   5.887  0.1846 -0.2485  0.4469
 6289SOL    HW119766   2.578   4.414   5.940 -1.8452  0.7454 -2.5232
 6289SOL    HW219767   2.741   4.420   5.948 -1.9717  1.8229  3.2539
 6290SOL     OW19768   3.811   5.737   0.803 -0.1832 -0.2784  0.7269
 6290SOL    HW119769   3.743   5.796   0.846 -0.9939  0.7531 -1.7439
 6290SOL    HW219770   3.903   5.766   0.830 -0.6139  1.2078  0.6765
 6291SOL     OW19771   3.676   3.514   3.351 -0.3058  0.5035 -0.1089
 6291SOL    HW119772   3.697   3.607   3.380 -1.2582  0.8329 -0.4549
 6291SOL    HW219773   3.639   3.462   3.428 -1.5168  0.9645 -0.3686
 6292SOL     OW19774   0.358   3.328   4.679  0.0332  0.4385 -0.3346
 6292SOL    HW119775   0.280   3.377   4.717 -1.0611 -2.3022  1.2647
 6292SOL    HW219776   0.433   3.327   4.745  0.2918  0.4717 -0.6227
 6293SOL     OW19777   4.260   1.825   6.655 -0.1726  0.2361  0.2430
 6293SOL    HW119778   4.176   1.877   6.673  0.9560  2.8678 -1.4298
 6293SOL    HW219779   4.337   1.870   6.700  0.6084 -1.1439  0.3407
 6294SOL     OW19780   3.752   6.255   4.637 -0.1798  0.2379  0.1485
 6294SOL    HW119781   3.818   6.306   4.691 -1.0329  1.6281 -0.0751
 6294SOL    HW219782   3.666   6.307   4.632 -1.5714 -1.8195  1.0542
 6295SOL     OW19783   5.424   4.581   5.032 -0.2339  0.3524 -0.3725
 6295SOL    HW119784   5.414   4.506   4.967  2.8836  0.7010 -1.4008
 6295SOL    HW219785   5.463   4.661   4.986  0.9027  1.0321  1.6382
 6296SOL     OW19786   0.595   3.620   0.200  0.0422 -0.1117 -0.3821
 6296SOL    HW119787   0.567   3.600   0.294  0.3812  2.5588  0.3875
 6296SOL    HW219788   0.695   3.618   0.195  0.1056  1.3443 -0.2106
 6297SOL     OW19789   6.294   0.371   5.309  0.4406  0.2474  0.4111
 6297SOL    HW119790   6.359   0.433   5.353  0.0139  0.3285  0.9459
 6297SOL    HW219791   6.230   0.336   5.378  0.7498 -0.8830  0.1399
 6298SOL     OW19792   1.136   5.140   0.721  0.3076 -0.8058 -0.2451
 6298SOL    HW119793   1.177   5.060   0.765  0.3297 -0.3398  0.5913
 6298SOL    HW219794   1.038   5.124   0.708  0.0105 -0.4194  1.2621
 6299SOL     OW19795   5.592   5.422   6.983  0.0582 -0.1349 -0.0085
 6299SOL    HW119796   5.649   5.340   6.978 -0.7307 -0.6405 -1.2828
 6299SOL    HW219797   5.514   5.405   7.043  0.2612 -0.0719  0.2761
 6300SOL     OW19798   6.954   1.296   6.203 -0.0499  0.6322  0.0773
 6300SOL    HW119799   6.866   1.306   6.157  0.3252  0.1054 -0.7702
 6300SOL    HW219800   7.012   1.376   6.182  0.5687 -0.1705 -1.3959
 6301SOL     OW19801   2.200   0.696   6.905 -0.4752  0.6638 -0.5394
 6301SOL    HW119802   2.296   0.705   6.932 -0.8250  3.3187  0.1376
 6301SOL    HW219803   2.192   0.702   6.805  0.0473  0.6742 -0.5817
 6302SOL     OW19804   1.864   0.635   4.432 -0.0381 -0.1790 -0.3589
 6302SOL    HW119805   1.787   0.631   4.368 -1.0564  1.8448  0.6477
 6302SOL    HW219806   1.934   0.698   4.398 -0.8105  1.3018  0.6609
 6303SOL     OW19807   1.480   6.885   4.191 -0.1640 -0.2564  0.4076
 6303SOL    HW119808   1.543   6.960   4.209 -0.4833 -0.2477  1.5411
 6303SOL    HW219809   1.531   6.803   4.164  0.2234  0.1615 -0.1537
 6304SOL     OW19810   5.294   0.862   5.179  0.2064 -0.5821 -0.3724
 6304SOL    HW119811   5.394   0.858   5.179  0.2499 -0.6590 -2.7637
 6304SOL    HW219812   5.264   0.957   5.188  0.6222 -0.1613 -2.8287
 6305SOL     OW19813   5.242   5.282   1.384  0.5169  0.1600  0.0034
 6305SOL    HW119814   5.167   5.230   1.424  0.2101 -0.3482 -1.2011
 6305SOL    HW219815   5.257   5.253   1.290  2.0712  0.4229  0.1408
 6306SOL     OW19816   6.711   5.066   3.503  0.2944 -0.3832  0.0831
 6306SOL    HW119817   6.777   5.001   3.464  0.5747 -0.5043  0.7397
 6306SOL    HW219818   6.760   5.136   3.554  0.0767  1.0820 -1.6334
 6307SOL     OW19819   4.106   3.590   4.105  0.3119 -0.0669 -0.1079
 6307SOL    HW119820   4.124   3.548   4.194 -0.5088 -0.6642 -0.2057
 6307SOL    HW219821   4.129   3.525   4.032  2.4106  0.9485 -0.4173
 6308SOL     OW19822   1.005   2.442   4.939  0.7471 -0.3902 -0.1549
 6308SOL    HW119823   0.946   2.515   4.903  1.2880  0.0811 -0.0984
 6308SOL    HW219824   0.948   2.373   4.985  0.3929  1.9520  3.3685
 6309SOL     OW19825   5.242   0.282   4.711  0.2218  0.1441  0.0497
 6309SOL    HW119826   5.289   0.326   4.635  0.7680 -0.0150  0.2898
 6309SOL    HW219827   5.238   0.345   4.789  0.4860 -0.0214  0.1976
 6310SOL     OW19828   2.321   6.566   1.198 -0.5966  0.2127 -0.7848
 6310SOL    HW119829   2.277   6.631   1.260 -0.6281 -1.5299  1.1470
 6310SOL    HW219830   2.282   6.576   1.106 -1.7902  1.7440 -0.1651
 6311SOL     OW19831   5.119   0.969   5.849 -0.0158  0.5297 -0.1573
 6311SOL    HW119832   5.218   0.980   5.856  0.2962 -1.5184 -0.7207
 6311SOL    HW219833   5.082   0.951   5.940  0.4593 -0.8274 -0.2093
 6312SOL     OW19834   2.965   0.330   4.145 -0.2305 -0.3383  0.0834
 6312SOL    HW119835   3.015   0.270   4.208  3.2746  0.4260 -1.7495
 6312SOL    HW219836   2.970   0.292   4.053  0.7977  1.9291 -0.8731
 6313SOL     OW19837   4.494   4.882   1.322  0.3069  0.1984  0.1103
 6313SOL    HW119838   4.592   4.898   1.316  0.5328 -1.1172 -0.1682
 6313SOL    HW219839   4.473   4.840   1.411  0.2842 -1.1714 -0.5148
 6314SOL     OW19840   6.117   6.075   2.584  0.1277  0.3105  0.0773
 6314SOL    HW119841   6.187   6.141   2.556  0.9086 -0.0294  1.1662
 6314SOL    HW219842   6.138   6.041   2.676 -0.0358 -1.7496 -0.5853
 6315SOL     OW19843   1.228   2.471   5.864 -0.2899  0.2162  0.3408
 6315SOL    HW119844   1.199   2.381   5.896 -2.3173  0.3532 -0.9108
 6315SOL    HW219845   1.327   2.470   5.846 -0.2766 -1.7683  0.3004
 6316SOL     OW19846   4.815   1.609   6.798 -0.9279 -0.1195  0.2455
 6316SOL    HW119847   4.897   1.556   6.819 -1.2101 -0.9653 -0.6478
 6316SOL    HW219848   4.735   1.548   6.803 -1.4626  0.6163  0.7919
 6317SOL     OW19849   4.041   3.112   1.449  0.0684 -0.1665 -0.2936
 6317SOL    HW119850   4.139   3.127   1.454  0.0692  0.0455 -0.9274
 6317SOL    HW219851   4.023   3.021   1.412  0.0255 -0.2441 -0.0832
 6318SOL     OW19852   2.888   6.470   4.161  0.7006  0.0330  0.2213
 6318SOL    HW119853   2.930   6.558   4.182 -0.7087  1.4173 -2.2948
 6318SOL    HW219854   2.862   6.468   4.065 -2.8550 -1.5931  1.0739
 6319SOL     OW19855   6.073   1.497   3.725  0.0024 -0.1358  0.0098
 6319SOL    HW119856   6.053   1.418   3.782 -0.1340 -0.2127 -0.1454
 6319SOL    HW219857   6.085   1.469   3.630 -2.8052  0.3376 -0.5772
 6320SOL     OW19858   0.362   0.750   4.790  0.2214  0.0448 -0.4735
 6320SOL    HW119859   0.354   0.740   4.691 -0.6327 -0.6584 -0.3490
 6320SOL    HW219860   0.459   0.754   4.816  0.4568  1.1394 -1.4010
 6321SOL     OW19861   4.942   1.192   6.806 -0.1864 -0.5604 -0.4834
 6321SOL    HW119862   4.948   1.220   6.711 -0.3961 -1.8081 -0.8848
 6321SOL    HW219863   5.019   1.132   6.829  1.5176  1.9931  0.9879
 6322SOL     OW19864   3.777   0.340   0.281  0.0346 -0.3673 -0.0565
 6322SOL    HW119865   3.808   0.345   0.375 -0.6880  0.4702  0.1495
 6322SOL    HW219866   3.845   0.293   0.225  0.6725 -0.4538  0.7917
 6323SOL     OW19867   2.037   0.449   1.829 -0.0108  0.0725  0.3358
 6323SOL    HW119868   1.981   0.502   1.765 -1.8644 -0.0822  1.7503
 6323SOL    HW219869   1.994   0.450   1.919  1.4795 -1.3841  1.1015
 6324SOL     OW19870   4.780   2.835   1.756 -0.0962  0.0895  0.3229
 6324SOL    HW119871   4.714   2.761   1.746 -1.6519  1.6463 -1.7268
 6324SOL    HW219872   4.743   2.904   1.818 -0.0312  0.5845 -0.1860
 6325SOL     OW19873   2.101   3.184   3.452  0.3495 -0.5393 -0.4893
 6325SOL    HW119874   2.093   3.115   3.523  1.2576 -0.4722 -0.3088
 6325SOL    HW219875   2.161   3.151   3.380  0.8310  0.0707 -0.3807
 6326SOL     OW19876   4.799   6.377   6.809 -0.3996  0.0762 -0.3211
 6326SOL    HW119877   4.798   6.374   6.909  0.5428 -0.5471 -0.3117
 6326SOL    HW219878   4.813   6.284   6.774 -0.8255  0.2750 -1.0407
 6327SOL     OW19879   6.109   0.609   4.030  0.3931 -0.1912 -0.6674
 6327SOL    HW119880   6.056   0.524   4.022  0.1063 -0.3358  1.8802
 6327SOL    HW219881   6.201   0.595   3.992 -0.6970 -0.5246 -3.4012
 6328SOL     OW19882   4.274   2.334   6.557 -0.2339 -0.3209 -0.7778
 6328SOL    HW119883   4.352   2.273   6.566  0.0663  0.2045  0.3574
 6328SOL    HW219884   4.220   2.333   6.642 -1.1814 -0.2937 -1.3616
 6329SOL     OW19885   0.768   1.519   4.474  0.4592 -0.1759 -0.0607
 6329SOL    HW119886   0.739   1.424   4.482 -1.0141  0.2576  0.0913
 6329SOL    HW219887   0.815   1.533   4.387  1.1165 -1.1377  0.1301
 6330SOL     OW19888   4.919   5.179   1.225 -0.2266 -0.6768  0.0032
 6330SOL    HW119889   4.974   5.104   1.191  0.1902 -0.8763  1.0623
 6330SOL    HW219890   4.830   5.179   1.180  0.7228 -0.1339 -2.0016
 6331SOL     OW19891   6.707   2.861   2.104  0.3029  0.7774  1.0043
 6331SOL    HW119892   6.783   2.797   2.107  1.1726  1.7351  0.3284
 6331SOL    HW219893   6.623   2.812   2.081  0.5356 -0.4239  2.5572
 6332SOL     OW19894   6.527   5.542   0.878  0.3744  0.1715  0.3177
 6332SOL    HW119895   6.587   5.464   0.863  1.9920  1.4817 -0.2503
 6332SOL    HW219896   6.433   5.510   0.893  0.4523 -1.7680 -2.6373
 6333SOL     OW19897   5.814   6.431   4.403  0.5523  0.6040  0.2138
 6333SOL    HW119898   5.805   6.332   4.417  1.6612  0.2993 -0.9784
 6333SOL    HW219899   5.910   6.456   4.409  0.3353  1.5197 -0.0484
 6334SOL     OW19900   2.833   6.605   2.886  0.4070 -0.3896 -0.2861
 6334SOL    HW119901   2.769   6.604   2.809 -1.1718 -2.0289  0.9667
 6334SOL    HW219902   2.792   6.559   2.965  1.0601  3.0597  2.3240
 6335SOL     OW19903   6.825   6.990   0.148 -0.5607  0.9567 -0.0195
 6335SOL    HW119904   6.732   6.975   0.114 -0.6334  1.9542 -0.2893
 6335SOL    HW219905   6.876   6.904   0.145 -1.6930  0.2265  0.8316
 6336SOL     OW19906   6.607   2.634   5.745  0.4980  0.2873  0.5447
 6336SOL    HW119907   6.613   2.629   5.845  1.0716 -0.8780  0.4712
 6336SOL    HW219908   6.691   2.598   5.705  0.2098  0.6011 -0.3716
 6337SOL     OW19909   4.177   4.440   5.410  0.0488 -0.1476  0.1804
 6337SOL    HW119910   4.181   4.358   5.468  0.7737 -0.4273 -0.2459
 6337SOL    HW219911   4.221   4.420   5.322  1.9002  1.2031  0.7249
 6338SOL     OW19912   4.444   1.954   4.561 -0.5900 -0.0525  0.1997
 6338SOL    HW119913   4.347   1.932   4.576 -0.7646  1.0264  0.7725
 6338SOL    HW219914   4.461   1.964   4.463 -1.3367  0.8734  0.1452
 6339SOL     OW19915   6.462   4.541   4.595 -0.2825  0.1156 -0.0467
 6339SOL    HW119916   6.375   4.546   4.643 -0.2831  1.5274 -0.1538
 6339SOL    HW219917   6.537   4.534   4.661 -0.5145 -4.4857  0.0831
 6340SOL     OW19918   2.190   2.476   5.887 -0.5191 -0.2885  0.7895
 6340SOL    HW119919   2.164   2.390   5.843 -0.2488  0.2415 -0.4582
 6340SOL    HW219920   2.254   2.525   5.828 -0.0363  0.3980  1.8595
 6341SOL     OW19921   1.718   5.750   2.834  0.3371  0.4721  0.7972
 6341SOL    HW119922   1.700   5.751   2.736  1.9933 -1.0426  0.4273
 6341SOL    HW219923   1.632   5.755   2.884 -0.5452  1.0475 -0.7295
 6342SOL     OW19924   3.019   0.054   1.969  0.0909  0.0559 -0.2993
 6342SOL    HW119925   2.920   0.045   1.956 -0.2205 -0.0545  1.8643
 6342SOL    HW219926   3.047   0.147   1.944 -1.3144  1.4612  2.8278
 6343SOL     OW19927   4.234   6.923   6.246  0.0992 -0.4524 -0.0567
 6343SOL    HW119928   4.285   7.003   6.278  1.0258 -1.6637  1.7410
 6343SOL    HW219929   4.298   6.858   6.204 -0.3390 -0.9615  0.0575
 6344SOL     OW19930   4.708   0.744   3.481 -0.0647 -0.2953  0.5994
 6344SOL    HW119931   4.687   0.771   3.386 -2.3064  0.5726  1.2653
 6344SOL    HW219932   4.798   0.777   3.506 -0.1999  1.1276 -0.6566
 6345SOL     OW19933   5.046   3.134   1.676 -0.2647 -0.3126 -0.2301
 6345SOL    HW119934   5.001   3.061   1.624  1.1325 -0.8787 -0.6812
 6345SOL    HW219935   5.016   3.130   1.771 -2.6463  0.5549 -0.8580
 6346SOL     OW19936   6.359   4.693   6.086  0.3941  0.1937  0.6318
 6346SOL    HW119937   6.309   4.660   6.006  1.5915 -0.8062  0.2691
 6346SOL    HW219938   6.325   4.646   6.168 -0.8233  1.2084  0.7338
 6347SOL     OW19939   0.719   3.993   1.766 -0.6179  0.0725  0.1065
 6347SOL    HW119940   0.628   3.967   1.734 -0.8113  2.7539 -1.8583
 6347SOL    HW219941   0.733   4.091   1.751  1.7192  0.2477  2.6646
 6348SOL     OW19942   0.026   3.673   4.964  0.5018 -0.4206  0.0293
 6348SOL    HW119943   0.038   3.765   5.001  1.9658 -0.1447 -1.0489
 6348SOL    HW219944  -0.024   3.617   5.030  2.1936  0.2977  2.0176
 6349SOL     OW19945   1.990   1.467   6.878 -0.1042  0.2310  0.5375
 6349SOL    HW119946   1.960   1.373   6.864 -0.1848  0.0942  1.5875
 6349SOL    HW219947   1.916   1.529   6.850  0.2549  0.0365 -0.9578
 6350SOL     OW19948   5.213   5.278   2.505 -0.4430 -0.0859  0.2588
 6350SOL    HW119949   5.258   5.190   2.497  2.9778  1.2395  2.7156
 6350SOL    HW219950   5.158   5.281   2.588 -0.6129  0.0951  0.1431
 6351SOL     OW19951   6.573   4.597   3.634  0.3271 -0.0373  0.5228
 6351SOL    HW119952   6.589   4.515   3.689 -1.2277 -0.2521  0.7048
 6351SOL    HW219953   6.525   4.572   3.550  0.4227  0.6033  0.2745
 6352SOL     OW19954   2.202   6.480   2.789  0.3372  0.2424  0.0455
 6352SOL    HW119955   2.274   6.431   2.740  0.2982  1.9914 -1.8674
 6352SOL    HW219956   2.173   6.559   2.735 -0.0717  2.0111  2.6852
 6353SOL     OW19957   2.204   4.187   6.744  0.1939  0.1464 -0.1281
 6353SOL    HW119958   2.165   4.130   6.673 -0.4886  0.0669  0.3024
 6353SOL    HW219959   2.145   4.186   6.825 -0.1990  1.9954 -0.3401
 6354SOL     OW19960   4.845   5.554   3.896 -0.0879 -0.3682 -0.0579
 6354SOL    HW119961   4.817   5.645   3.867  0.5324 -0.4541 -0.9762
 6354SOL    HW219962   4.897   5.560   3.981  2.7031  0.5424 -1.7139
 6355SOL     OW19963   1.494   3.572   7.010 -0.1471 -0.2322  0.2297
 6355SOL    HW119964   1.586   3.596   6.978 -0.9666  0.8630 -1.4466
 6355SOL    HW219965   1.455   3.649   7.060 -1.4925  0.8051 -2.2367
 6356SOL     OW19966   2.979   4.998   5.869 -0.2667 -0.5648  0.0618
 6356SOL    HW119967   2.885   4.990   5.836 -0.5047  0.4229  0.4537
 6356SOL    HW219968   2.989   5.083   5.922  0.6651 -1.0168  0.6409
 6357SOL     OW19969   5.854   2.708   1.678  0.1592  0.0718 -0.2483
 6357SOL    HW119970   5.884   2.614   1.695 -0.1848 -0.0880 -0.5078
 6357SOL    HW219971   5.860   2.760   1.763  0.7584 -0.0685 -0.1987
 6358SOL     OW19972   0.615   2.472   1.070  0.5628  0.0417  0.3613
 6358SOL    HW119973   0.605   2.405   1.144 -1.3312  0.7463  0.7940
 6358SOL    HW219974   0.690   2.534   1.092  0.2006  0.0767  1.5914
 6359SOL     OW19975   3.952   6.156   0.364 -0.1294 -0.3645 -0.3814
 6359SOL    HW119976   4.028   6.107   0.321  0.5086  0.5521 -0.3355
 6359SOL    HW219977   3.984   6.246   0.394 -0.8015 -0.6229  1.1906
 6360SOL     OW19978   0.082   4.357   3.379  0.1015  0.2855 -0.3704
 6360SOL    HW119979   0.156   4.401   3.429 -0.1106  0.2579 -0.0339
 6360SOL    HW219980   0.106   4.354   3.282  1.1612 -0.9657 -0.0909
 6361SOL     OW19981   0.171   0.594   0.445 -0.0181 -0.2847 -0.2768
 6361SOL    HW119982   0.182   0.653   0.365 -0.4499 -0.0504 -0.1651
 6361SOL    HW219983   0.220   0.634   0.523 -0.8329  0.2646 -0.0323
 6362SOL     OW19984   2.997   0.149   4.959  0.6596  0.2496 -0.3611
 6362SOL    HW119985   3.088   0.182   4.983  0.8066  0.2222 -0.8558
 6362SOL    HW219986   2.942   0.139   5.041  0.6886  1.4978 -0.1719
 6363SOL     OW19987   2.684   4.811   3.697 -0.2306  0.2500 -0.3318
 6363SOL    HW119988   2.737   4.766   3.768  2.0823  1.7884 -0.9576
 6363SOL    HW219989   2.738   4.815   3.612 -1.2342  2.0552 -0.9516
 6364SOL     OW19990   0.844   2.053   6.256  0.3723  0.1540 -0.0080
 6364SOL    HW119991   0.780   1.980   6.282  0.4806 -0.6193 -1.8065
 6364SOL    HW219992   0.795   2.126   6.209  0.8320 -0.6423 -1.7823
 6365SOL     OW19993   6.342   5.699   4.541  0.3924  0.2089  0.1163
 6365SOL    HW119994   6.274   5.690   4.468  0.3017 -1.3332  0.3602
 6365SOL    HW219995   6.416   5.634   4.526  0.7826  0.4446  0.9667
 6366SOL     OW19996   0.239   5.992   6.188 -0.3739  0.0185  0.0607
 6366SOL    HW119997   0.220   5.920   6.120  1.5633 -1.1679  0.6969
 6366SOL    HW219998   0.267   6.075   6.140 -1.4207 -0.0104 -0.6492
 6367SOL     OW19999   4.139   2.143   3.033 -0.2965  0.6394 -0.8092
 6367SOL    HW120000   4.189   2.174   2.952  0.5864 -1.3990 -1.1120
 6367SOL    HW220001   4.195   2.158   3.115 -0.7833  1.7964 -0.6717
 6368SOL     OW20002   5.834   5.387   3.774  0.6244  0.3372  0.2622
 6368SOL    HW120003   5.916   5.385   3.717  0.6959 -0.2399  0.3765
 6368SOL    HW220004   5.772   5.314   3.747  0.8025 -0.1524  1.1164
 6369SOL     OW20005   0.949   0.638   4.601 -0.1080 -0.0041  0.0765
 6369SOL    HW120006   0.986   0.591   4.521 -2.2656  0.4761 -1.2861
 6369SOL    HW220007   0.853   0.661   4.584  0.1027  2.4288  1.7839
 6370SOL     OW20008   5.188   3.841   4.281  0.1256 -0.2884  0.1452
 6370SOL    HW120009   5.106   3.888   4.312  0.0885 -0.2770  0.0325
 6370SOL    HW220010   5.243   3.903   4.225  0.4879 -0.1230  0.6834
 6371SOL     OW20011   4.865   4.390   3.250  0.1885  0.5834 -0.1071
 6371SOL    HW120012   4.946   4.361   3.198  1.1959 -0.2768  1.8545
 6371SOL    HW220013   4.796   4.318   3.246  0.6707  0.0692  0.5534
 6372SOL     OW20014   0.641   1.412   1.774 -0.2748 -0.8858  0.6290
 6372SOL    HW120015   0.684   1.499   1.797  1.5865 -1.2068 -1.3071
 6372SOL    HW220016   0.546   1.412   1.806  0.2610  1.0451  2.4080
 6373SOL     OW20017   6.466   2.960   2.599  0.6616 -0.3916  0.4184
 6373SOL    HW120018   6.433   3.054   2.585  1.9586 -0.0138 -0.2784
 6373SOL    HW220019   6.399   2.909   2.652 -1.4087  0.1203 -1.5074
 6374SOL     OW20020   5.056   0.866   1.260 -0.3766 -0.2420 -0.1670
 6374SOL    HW120021   4.958   0.869   1.241 -0.6642 -1.0643  1.0968
 6374SOL    HW220022   5.073   0.812   1.343  1.3061 -1.8131 -1.4568
 6375SOL     OW20023   3.217   3.232   1.122  1.0596 -0.5860 -0.4150
 6375SOL    HW120024   3.295   3.274   1.169  0.7987  0.0832 -0.5756
 6375SOL    HW220025   3.238   3.136   1.104  0.9797 -0.9893  1.4759
 6376SOL     OW20026   3.757   0.793   6.949  0.0831 -0.0728 -0.1387
 6376SOL    HW120027   3.807   0.759   6.869 -0.1202 -0.7607  0.0227
 6376SOL    HW220028   3.771   0.732   7.026  1.1913  1.1793  0.6971
 6377SOL     OW20029   6.395   0.918   4.917 -0.2875 -0.0349  0.2262
 6377SOL    HW120030   6.419   1.015   4.915 -0.8196  0.1063  0.6196
 6377SOL    HW220031   6.420   0.879   5.006  1.4353 -0.6586 -0.4872
 6378SOL     OW20032   4.385   5.111   3.159 -0.0877 -0.1932  0.1357
 6378SOL    HW120033   4.379   5.160   3.072 -0.3112  1.1670  0.8943
 6378SOL    HW220034   4.298   5.117   3.207 -0.0250 -1.1027  0.3826
 6379SOL     OW20035   0.149   6.135   0.161  0.1546 -0.1855  0.3614
 6379SOL    HW120036   0.106   6.069   0.222 -1.5802 -1.2795 -1.9109
 6379SOL    HW220037   0.205   6.087   0.093  1.8827  0.9828  0.8953
 6380SOL     OW20038   0.432   2.152   4.034  0.0400  0.3312  0.0757
 6380SOL    HW120039   0.472   2.167   3.943  0.2105  0.6426  0.2007
 6380SOL    HW220040   0.355   2.214   4.047  0.5050  0.8315  0.4458
 6381SOL     OW20041   4.215   2.813   6.800 -0.1402  0.1280  0.2490
 6381SOL    HW120042   4.301   2.777   6.763  0.5980 -1.9809  3.5533
 6381SOL    HW220043   4.143   2.745   6.788 -0.2846  0.1148  1.1079
 6382SOL     OW20044   5.348   0.695   0.818 -0.2522 -0.6167  0.1277
 6382SOL    HW120045   5.271   0.691   0.882  0.2766 -1.9818  0.7241
 6382SOL    HW220046   5.425   0.743   0.861 -0.3756 -0.2744 -0.0307
 6383SOL     OW20047   0.882   2.390   1.392  0.1987 -0.4960 -0.7351
 6383SOL    HW120048   0.825   2.310   1.372 -0.2575 -0.1097 -0.9982
 6383SOL    HW220049   0.885   2.449   1.312  0.5149 -0.2313 -0.5291
 6384SOL     OW20050   4.923   1.152   3.098 -0.5288 -0.4379  0.5286
 6384SOL    HW120051   4.845   1.214   3.107 -0.6402 -0.5883  0.6032
 6384SOL    HW220052   5.006   1.205   3.081 -0.8512 -0.3331 -0.9065
 6385SOL     OW20053   0.588   3.970   1.489  0.0642  0.7107  0.1240
 6385SOL    HW120054   0.665   4.034   1.494  0.5543  0.2934 -1.4441
 6385SOL    HW220055   0.503   4.019   1.507  0.5705  1.4593  0.5544
 6386SOL     OW20056   1.891   3.584   0.242 -0.5947 -0.0789 -0.0314
 6386SOL    HW120057   1.891   3.635   0.328 -0.6272 -0.1340  0.0014
 6386SOL    HW220058   1.983   3.587   0.202 -0.6207  0.0880 -0.0789
 6387SOL     OW20059   5.648   0.964   1.258 -0.0481 -0.1084  0.1122
 6387SOL    HW120060   5.578   1.024   1.297 -0.1341  0.5015 -0.9299
 6387SOL    HW220061   5.692   1.011   1.181  2.5781  0.1642  1.6667
 6388SOL     OW20062   6.065   0.141   2.653 -0.0814  0.7337  0.3781
 6388SOL    HW120063   6.129   0.096   2.591  1.1332  0.5728  1.6949
 6388SOL    HW220064   6.067   0.095   2.741 -0.8242  1.7269  0.9299
 6389SOL     OW20065   2.258   6.145   0.815  0.6750  0.4436 -0.5231
 6389SOL    HW120066   2.249   6.076   0.744 -1.1476 -1.6496  1.5607
 6389SOL    HW220067   2.192   6.219   0.798 -1.4231 -1.1784  0.0815
 6390SOL     OW20068   5.517   4.812   4.933  0.6486  0.3455 -0.0272
 6390SOL    HW120069   5.578   4.821   4.854  2.4764 -0.8153  1.1556
 6390SOL    HW220070   5.544   4.878   5.004 -1.1314  1.5507 -0.4157
 6391SOL     OW20071   3.784   6.796   6.858  0.2334  0.3352 -0.0346
 6391SOL    HW120072   3.718   6.837   6.922  2.0819  0.4420  1.9131
 6391SOL    HW220073   3.876   6.802   6.897  1.1182 -1.9012 -1.5937
 6392SOL     OW20074   1.747   2.745   1.578  0.1246 -0.1950 -0.2710
 6392SOL    HW120075   1.809   2.670   1.555  0.1396 -0.1515 -0.3730
 6392SOL    HW220076   1.767   2.777   1.671 -0.3967 -0.8273  0.0666
 6393SOL     OW20077   0.118   6.326   1.357 -0.0598 -0.6230 -0.3708
 6393SOL    HW120078   0.148   6.294   1.267 -0.1018 -0.6095 -0.3897
 6393SOL    HW220079   0.021   6.305   1.369 -0.4685  0.7855 -0.9758
 6394SOL     OW20080   3.006   4.423   1.680 -0.3522 -1.0079  0.1665
 6394SOL    HW120081   3.099   4.387   1.683  0.3824  0.6187 -1.1514
 6394SOL    HW220082   2.984   4.470   1.765  0.2951 -0.8348  0.2380
 6395SOL     OW20083   6.192   3.107   2.280 -0.0537  0.2204  0.2690
 6395SOL    HW120084   6.249   3.184   2.251  0.9669  0.7908  3.3999
 6395SOL    HW220085   6.235   3.021   2.252  0.6750  0.7169 -0.1658
 6396SOL     OW20086   5.194   4.208   6.490 -0.2601  0.3152 -0.1513
 6396SOL    HW120087   5.146   4.122   6.502  2.3800 -1.2813 -0.1974
 6396SOL    HW220088   5.193   4.259   6.577 -1.1551 -0.1215  0.1030
 6397SOL     OW20089   6.416   2.753   0.309  0.1315 -0.0114 -0.0493
 6397SOL    HW120090   6.495   2.796   0.353  0.6483 -1.4699  0.5150
 6397SOL    HW220091   6.385   2.810   0.233 -0.2561  2.1647  1.6276
 6398SOL     OW20092   6.550   0.711   1.420  0.5497  0.3480  0.0970
 6398SOL    HW120093   6.602   0.791   1.388 -0.8319  0.4612 -2.0989
 6398SOL    HW220094   6.608   0.630   1.416  0.7958  0.5622 -1.7785
 6399SOL     OW20095   1.926   2.176   6.499 -0.0763 -0.2238 -0.2007
 6399SOL    HW120096   2.005   2.172   6.438 -1.4269 -1.1813 -2.0308
 6399SOL    HW220097   1.911   2.086   6.540 -1.2630 -0.5867 -1.3609
 6400SOL     OW20098   1.410   4.125   1.569  0.5264  0.2552  0.0523
 6400SOL    HW120099   1.508   4.142   1.558  0.3943  0.3467 -1.1937
 6400SOL    HW220100   1.395   4.027   1.583  0.9385  0.4870  2.5550
 6401SOL     OW20101   6.519   4.866   3.649 -0.4850 -0.0468  0.0117
 6401SOL    HW120102   6.532   4.767   3.650 -1.4638 -0.2962 -2.4795
 6401SOL    HW220103   6.589   4.908   3.592 -0.6579  0.5850  0.2593
 6402SOL     OW20104   1.469   3.432   2.304  0.1128  0.2859  0.0128
 6402SOL    HW120105   1.543   3.402   2.244  0.9342 -0.7869  1.4964
 6402SOL    HW220106   1.502   3.504   2.365  0.1594 -0.6267  1.1018
 6403SOL     OW20107   5.978   0.487   6.548 -0.2266  0.0511 -0.0566
 6403SOL    HW120108   6.017   0.568   6.593 -1.0429 -0.2910  1.3362
 6403SOL    HW220109   5.900   0.513   6.492 -0.4606  0.2401  0.3557
 6404SOL     OW20110   5.246   1.459   1.855 -0.5401  0.6441 -0.0371
 6404SOL    HW120111   5.156   1.482   1.819 -0.9348  0.8999  1.0884
 6404SOL    HW220112   5.304   1.425   1.780 -1.3612  1.0611 -0.8795
 6405SOL     OW20113   4.395   5.940   3.061  0.3007 -0.3357 -0.2288
 6405SOL    HW120114   4.391   6.040   3.055  0.2223 -0.3975 -1.4092
 6405SOL    HW220115   4.452   5.904   2.987  0.0813 -1.1884  0.0034
 6406SOL     OW20116   6.924   3.173   3.230  0.0958 -0.3701 -0.1605
 6406SOL    HW120117   6.897   3.168   3.134  1.7448  1.1422 -0.7539
 6406SOL    HW220118   6.867   3.241   3.276  0.1676 -0.1447 -0.3998
 6407SOL     OW20119   4.847   6.232   3.435 -0.0121  0.1476 -0.0076
 6407SOL    HW120120   4.900   6.250   3.353  1.8785 -2.7563  0.4607
 6407SOL    HW220121   4.874   6.296   3.507  0.0476  1.1366 -0.8842
 6408SOL     OW20122   5.754   0.304   1.493 -0.4386 -0.1740 -0.5154
 6408SOL    HW120123   5.717   0.225   1.444 -0.0311 -0.8896  0.3130
 6408SOL    HW220124   5.725   0.301   1.588  1.1424 -0.3783 -0.0072
 6409SOL     OW20125   6.141   5.155   2.025 -0.0867  0.4146  0.3994
 6409SOL    HW120126   6.043   5.139   2.012  0.1048 -0.9040  0.4630
 6409SOL    HW220127   6.190   5.068   2.026  1.0924  1.0478  0.4220
 6410SOL     OW20128   4.125   0.909   0.086  0.6426  0.5246 -0.3086
 6410SOL    HW120129   4.097   0.996   0.127 -0.0402 -0.1843  0.7437
 6410SOL    HW220130   4.046   0.863   0.047  0.4399 -0.9540  1.6787
 6411SOL     OW20131   6.819   3.096   2.954 -0.0439 -0.0669  0.1709
 6411SOL    HW120132   6.783   3.023   3.012 -0.9298  1.3660  1.5448
 6411SOL    HW220133   6.767   3.100   2.869 -2.0250  0.7794  1.3347
 6412SOL     OW20134   2.454   2.075   6.075 -0.1585  0.3301 -0.1127
 6412SOL    HW120135   2.405   2.147   6.025 -0.9809  0.6235  1.0767
 6412SOL    HW220136   2.409   1.987   6.059 -0.7201  0.5005  0.4780
 6413SOL     OW20137   3.171   5.957   3.317  0.1345 -0.3034 -0.4884
 6413SOL    HW120138   3.157   6.004   3.404 -0.8200  0.8536 -1.2420
 6413SOL    HW220139   3.244   6.001   3.266 -0.0715 -0.2765 -0.7609
 6414SOL     OW20140   6.811   6.832   5.608 -0.0609 -0.2912  0.0754
 6414SOL    HW120141   6.882   6.783   5.660 -0.0847  0.0888  0.4730
 6414SOL    HW220142   6.854   6.887   5.536  0.0656  0.0463  0.4038
 6415SOL     OW20143   0.435   0.580   5.007  0.2172 -0.1373 -0.2544
 6415SOL    HW120144   0.485   0.532   4.936 -0.3503  1.3353 -1.7252
 6415SOL    HW220145   0.337   0.565   4.996  0.1514 -0.5488  0.7399
 6416SOL     OW20146   2.090   0.290   0.185  0.4884 -0.2924  0.7181
 6416SOL    HW120147   2.096   0.367   0.121  2.5754 -0.9512  0.0388
 6416SOL    HW220148   2.133   0.315   0.272 -0.1775 -0.2086  1.0301
 6417SOL     OW20149   4.246   2.302   0.797 -0.0775 -0.0373 -0.4858
 6417SOL    HW120150   4.313   2.374   0.815 -1.1698  0.9136 -0.0959
 6417SOL    HW220151   4.286   2.234   0.736  1.1947  0.5624 -0.3567
 6418SOL     OW20152   4.990   3.900   1.652 -0.1907 -0.8879 -0.2003
 6418SOL    HW120153   4.949   3.991   1.643  0.9452 -0.3296  0.1087
 6418SOL    HW220154   4.978   3.851   1.566  0.7827  0.2543 -1.0301
 6419SOL     OW20155   2.000   2.924   2.948 -0.3445  0.5537  0.1914
 6419SOL    HW120156   1.924   2.862   2.931 -1.4663  1.9329 -0.0115
 6419SOL    HW220157   2.086   2.882   2.918 -0.8763 -1.3909  1.2359
 6420SOL     OW20158   2.072   1.455   5.074  0.0947 -0.3027 -0.1017
 6420SOL    HW120159   2.032   1.449   5.165 -1.5240  0.7398 -0.6954
 6420SOL    HW220160   1.999   1.458   5.006  1.2668 -0.9395 -1.4373
 6421SOL     OW20161   4.420   6.841   1.747 -0.0260  0.6451  0.0130
 6421SOL    HW120162   4.327   6.803   1.747 -0.7194  2.2440  1.0753
 6421SOL    HW220163   4.480   6.783   1.802 -0.8280  0.5621  0.8306
 6422SOL     OW20164   6.983   1.262   5.834  0.4231 -0.6381  0.0108
 6422SOL    HW120165   6.890   1.235   5.861  1.2041 -3.1126  0.5100
 6422SOL    HW220166   6.987   1.272   5.735 -0.2384 -1.2468 -0.0899
 6423SOL     OW20167   5.043   5.667   3.413  0.2354  0.1630  0.0856
 6423SOL    HW120168   5.042   5.750   3.357 -0.5478  0.0426 -0.0863
 6423SOL    HW220169   4.981   5.679   3.491  0.0104 -0.3106 -0.0152
 6424SOL     OW20170   2.372   2.709   4.825 -0.0272 -0.0096 -0.5770
 6424SOL    HW120171   2.392   2.737   4.919  1.6536 -0.2147 -0.8547
 6424SOL    HW220172   2.340   2.614   4.825  0.8795 -0.3270 -0.2853
 6425SOL     OW20173   5.364   5.058   2.462 -0.3965 -0.3200  0.2463
 6425SOL    HW120174   5.410   4.981   2.507  0.3898 -0.0215 -0.0299
 6425SOL    HW220175   5.307   5.025   2.387 -1.3276 -0.7768  1.1326
 6426SOL     OW20176   3.810   5.655   2.961 -0.5206 -0.4587 -0.0993
 6426SOL    HW120177   3.736   5.611   2.911 -1.9325 -1.2160  2.4359
 6426SOL    HW220178   3.898   5.624   2.925 -1.3797  0.1353 -2.9135
 6427SOL     OW20179   3.593   3.261   3.281 -0.2092 -0.1975 -0.1850
 6427SOL    HW120180   3.549   3.216   3.359  0.5880 -1.6136 -0.5210
 6427SOL    HW220181   3.594   3.360   3.297  0.4705 -0.4844  1.8981
 6428SOL     OW20182   4.598   2.904   1.512  0.1480  0.2113 -0.1431
 6428SOL    HW120183   4.526   2.852   1.558 -1.1712  0.7241 -1.5569
 6428SOL    HW220184   4.627   2.979   1.571 -0.5203  0.0353  0.4222
 6429SOL     OW20185   1.665   1.262   6.112 -0.3574 -0.1597  0.3181
 6429SOL    HW120186   1.581   1.305   6.078 -0.5493 -0.4956  0.3622
 6429SOL    HW220187   1.679   1.287   6.208  0.6825  1.5530 -0.2352
 6430SOL     OW20188   6.244   1.562   6.807  0.6051 -0.1522  0.5375
 6430SOL    HW120189   6.204   1.472   6.823 -0.6731  0.5688  1.5982
 6430SOL    HW220190   6.321   1.575   6.869  0.2887 -0.2082  0.9436
 6431SOL     OW20191   6.436   6.532   3.501 -0.2435  0.1309 -0.6516
 6431SOL    HW120192   6.364   6.601   3.505 -1.7256 -1.3999 -0.0991
 6431SOL    HW220193   6.404   6.453   3.449  1.4465 -0.1551 -1.3365
 6432SOL     OW20194   4.516   4.245   5.266  0.1732  0.2260 -0.3707
 6432SOL    HW120195   4.592   4.243   5.200 -1.1219 -0.3415 -1.9148
 6432SOL    HW220196   4.453   4.318   5.241  0.4293  1.0054  1.1876
 6433SOL     OW20197   2.496   4.087   0.412 -0.3904  0.0031 -0.1627
 6433SOL    HW120198   2.508   4.129   0.502 -0.8657 -0.6512  0.2202
 6433SOL    HW220199   2.574   4.109   0.354  1.1414 -1.5469  1.2009
 6434SOL     OW20200   3.031   0.382   4.612  0.1996 -0.1694 -0.0253
 6434SOL    HW120201   2.979   0.418   4.690  0.4273  0.3990 -0.1287
 6434SOL    HW220202   2.970   0.332   4.551 -0.7916  2.6158 -1.4707
 6435SOL     OW20203   6.520   6.746   1.690  0.1563 -0.4604 -0.5814
 6435SOL    HW120204   6.590   6.677   1.669 -0.6322 -1.1264 -1.0867
 6435SOL    HW220205   6.430   6.701   1.696 -0.6111  0.7042 -2.4441
 6436SOL     OW20206   6.559   3.679   4.464 -0.4005 -0.0161  0.1391
 6436SOL    HW120207   6.647   3.677   4.512  0.3363 -0.2152 -1.1821
 6436SOL    HW220208   6.500   3.747   4.507  0.3580  0.0575  1.1051
 6437SOL     OW20209   0.927   1.367   0.043 -0.2695  0.6638 -0.2732
 6437SOL    HW120210   0.978   1.412  -0.029 -1.7118  2.8556 -0.0304
 6437SOL    HW220211   0.862   1.431   0.083 -1.5759 -1.3198  0.9970
 6438SOL     OW20212   1.670   5.203   5.046  0.5059 -0.4456 -0.7307
 6438SOL    HW120213   1.584   5.169   5.008 -1.6349  0.8258  2.5449
 6438SOL    HW220214   1.690   5.155   5.132  0.3439  2.5256  1.1052
 6439SOL     OW20215   4.777   1.383   2.911 -0.4850  0.1162  0.6383
 6439SOL    HW120216   4.751   1.469   2.865 -0.5393  0.6716  1.6855
 6439SOL    HW220217   4.789   1.400   3.008 -2.5930 -1.5020  1.2524
 6440SOL     OW20218   3.336   6.662   6.839 -0.4464  0.0801 -0.0238
 6440SOL    HW120219   3.257   6.702   6.793 -2.0998  2.7332  4.5083
 6440SOL    HW220220   3.409   6.730   6.845 -0.7953  0.3302  2.2101
 6441SOL     OW20221   6.529   2.135   1.156 -0.1056 -0.5052 -0.0655
 6441SOL    HW120222   6.530   2.234   1.163 -0.9446 -0.4981  0.0779
 6441SOL    HW220223   6.507   2.095   1.245  0.6762 -0.8425 -0.0124
 6442SOL     OW20224   2.953   6.916   4.521  0.0011  0.0372 -0.1151
 6442SOL    HW120225   2.891   6.908   4.443 -1.9933 -2.9384  1.5932
 6442SOL    HW220226   2.902   6.948   4.601  0.9860 -0.9543  0.9475
 6443SOL     OW20227   3.709   1.487   5.538  0.0004  0.1198  0.6088
 6443SOL    HW120228   3.734   1.571   5.491  0.3283 -1.7631 -2.8835
 6443SOL    HW220229   3.658   1.510   5.621 -0.4218  3.7154 -0.4496
 6444SOL     OW20230   5.362   3.936   3.822 -0.4569 -0.2122  0.1415
 6444SOL    HW120231   5.356   3.897   3.730 -1.0275  1.6556 -0.6455
 6444SOL    HW220232   5.436   4.003   3.825 -1.1455  0.5372  0.7302
 6445SOL     OW20233   2.965   3.508   4.003 -0.8059 -0.3774 -0.2658
 6445SOL    HW120234   3.061   3.529   3.986 -0.3218 -1.9961  0.2068
 6445SOL    HW220235   2.909   3.543   3.929  0.2801 -0.2495 -1.0430
 6446SOL     OW20236   0.621   1.444   6.796  0.1006  0.8908 -0.2277
 6446SOL    HW120237   0.576   1.513   6.853 -1.6238  0.3454 -0.8640
 6446SOL    HW220238   0.569   1.359   6.800  0.7213  0.4258 -1.5053
 6447SOL     OW20239   6.267   2.442   2.402 -0.4680 -0.0172 -0.5387
 6447SOL    HW120240   6.313   2.414   2.487  0.9221 -1.1492 -1.6126
 6447SOL    HW220241   6.322   2.414   2.324 -2.5815 -0.6169 -1.8920
 6448SOL     OW20242   5.561   5.406   1.551  0.3642  0.0123 -0.4486
 6448SOL    HW120243   5.603   5.480   1.605 -2.5483 -0.2263  2.4896
 6448SOL    HW220244   5.490   5.444   1.492  0.2616 -0.2359 -0.4849
 6449SOL     OW20245   1.923   5.754   1.399  0.1231 -0.2476  0.3188
 6449SOL    HW120246   1.963   5.673   1.444  1.1977  1.0638  1.8384
 6449SOL    HW220247   1.826   5.738   1.382 -0.0722 -1.2377  2.1310
 6450SOL     OW20248   3.446   4.013   6.978  0.1173  0.4519 -0.3758
 6450SOL    HW120249   3.494   4.045   7.059 -0.9169  0.0986  0.4022
 6450SOL    HW220250   3.490   4.049   6.896  1.7664  0.0415  0.2900
 6451SOL     OW20251   2.806   0.741   4.406  0.2699  0.6884 -0.2316
 6451SOL    HW120252   2.731   0.772   4.465  0.5263 -0.3570  0.6823
 6451SOL    HW220253   2.768   0.688   4.330  0.0112  1.0587 -0.3627
 6452SOL     OW20254   5.129   3.604   2.478 -0.6025  0.2280 -0.0797
 6452SOL    HW120255   5.170   3.537   2.540  0.7944  0.5271 -0.6362
 6452SOL    HW220256   5.180   3.690   2.483 -0.5299  0.2999 -1.5322
 6453SOL     OW20257   1.672   5.442   0.840 -0.0806 -0.4900  0.1763
 6453SOL    HW120258   1.628   5.517   0.790  1.1796  0.3105  0.2231
 6453SOL    HW220259   1.615   5.416   0.917 -0.6922  0.2239 -0.0210
 6454SOL     OW20260   1.370   2.039   3.922  1.1519  0.1219 -0.0049
 6454SOL    HW120261   1.424   1.956   3.909 -2.0596 -2.1037 -0.4723
 6454SOL    HW220262   1.331   2.068   3.835 -0.3089  0.1957  0.6443
 6455SOL     OW20263   4.788   4.607   3.359  0.6783  1.2325 -0.4784
 6455SOL    HW120264   4.769   4.578   3.453  2.3119  1.3094 -0.0894
 6455SOL    HW220265   4.812   4.527   3.304  0.6455  1.3051 -0.5981
 6456SOL     OW20266   2.847   1.411   3.809  0.5837  0.7316  0.2848
 6456SOL    HW120267   2.921   1.361   3.765  0.9054  1.2561  0.2344
 6456SOL    HW220268   2.869   1.508   3.812 -0.5858  1.0549 -0.7345
 6457SOL     OW20269   2.485   6.764   0.379 -0.3535 -0.8876  0.2987
 6457SOL    HW120270   2.428   6.728   0.454  0.4263  1.9282  2.4073
 6457SOL    HW220271   2.428   6.782   0.299 -2.3052  0.8549  1.9796
 6458SOL     OW20272   0.180   6.449   6.175 -0.4553 -0.3457  0.2196
 6458SOL    HW120273   0.224   6.395   6.102 -1.9340  1.0300 -1.8015
 6458SOL    HW220274   0.130   6.387   6.236 -0.3031 -1.4400 -0.7249
 6459SOL     OW20275   4.621   4.306   0.713 -0.3882  0.2095  0.2009
 6459SOL    HW120276   4.535   4.350   0.737 -0.6107  0.4378 -0.9421
 6459SOL    HW220277   4.616   4.272   0.619  0.6977  0.0333  0.1898
 6460SOL     OW20278   6.216   6.524   5.331  0.3417  0.5683  0.2425
 6460SOL    HW120279   6.306   6.533   5.289  0.0316 -1.8438 -1.1439
 6460SOL    HW220280   6.146   6.524   5.260 -1.0672  4.4428  1.4118
 6461SOL     OW20281   1.056   3.019   0.781 -0.4908  0.5153 -0.1678
 6461SOL    HW120282   1.068   2.977   0.871 -3.0796 -1.7540 -0.7610
 6461SOL    HW220283   1.146   3.034   0.739  0.6844 -1.0887  1.5934
 6462SOL     OW20284   3.222   1.764   6.023  0.6655  0.1410 -0.0104
 6462SOL    HW120285   3.321   1.753   6.032  0.5588 -0.8965  0.0458
 6462SOL    HW220286   3.200   1.794   5.930  0.9163 -1.5481 -0.6525
 6463SOL     OW20287   0.530   0.354   0.427  0.1543  0.5734 -0.3317
 6463SOL    HW120288   0.467   0.315   0.359  0.4702 -0.8477  0.1527
 6463SOL    HW220289   0.537   0.453   0.413 -0.5901  0.4612 -1.6935
 6464SOL     OW20290   2.005   6.038   0.291  0.2246 -0.1673  0.0294
 6464SOL    HW120291   1.970   5.994   0.208  0.0134 -2.4533  1.2526
 6464SOL    HW220292   2.103   6.054   0.281  0.5868 -2.2104  0.0271
 6465SOL     OW20293   6.374   3.508   3.904  0.4304 -0.1179  0.1840
 6465SOL    HW120294   6.373   3.604   3.878 -0.6417 -0.0884  0.3107
 6465SOL    HW220295   6.408   3.453   3.827 -1.1157  0.1410 -0.7259
 6466SOL     OW20296   6.820   1.635   6.757  0.5664  0.5451 -0.0183
 6466SOL    HW120297   6.755   1.568   6.723 -0.1572  1.6299 -0.8490
 6466SOL    HW220298   6.771   1.718   6.784  1.4575  0.8310  0.7901
 6467SOL     OW20299   3.978   1.740   1.464 -0.5472  0.2356  0.3273
 6467SOL    HW120300   4.033   1.663   1.433 -0.3206  0.8299 -0.8312
 6467SOL    HW220301   3.976   1.742   1.564 -1.6692 -2.0192  0.3992
 6468SOL     OW20302   3.832   6.430   2.904 -0.1301 -0.1008 -0.3112
 6468SOL    HW120303   3.848   6.507   2.965  0.5169  1.8031 -2.7309
 6468SOL    HW220304   3.736   6.429   2.875  0.1361  0.6395 -1.2808
 6469SOL     OW20305   2.687   1.578   3.043 -0.6516 -0.2124  0.8337
 6469SOL    HW120306   2.644   1.618   2.962  1.3537 -1.7346 -1.0798
 6469SOL    HW220307   2.703   1.650   3.111 -0.6573  1.4789 -0.8854
 6470SOL     OW20308   5.039   2.461   1.247 -0.3847  0.0477  0.0717
 6470SOL    HW120309   4.981   2.477   1.168 -1.6491  0.8495  1.1201
 6470SOL    HW220310   5.128   2.505   1.234 -0.9981  1.1626 -0.4098
 6471SOL     OW20311   0.971   6.366   4.837 -0.1079 -0.1044 -0.1415
 6471SOL    HW120312   1.045   6.346   4.772 -0.6842 -1.0381 -0.5385
 6471SOL    HW220313   0.902   6.294   4.831 -0.4214  0.0636  1.1522
 6472SOL     OW20314   5.859   5.008   1.219  1.0051 -0.5328 -0.5728
 6472SOL    HW120315   5.786   4.973   1.161  0.2161 -0.6564  0.4565
 6472SOL    HW220316   5.821   5.070   1.287  1.4651 -2.2396  1.3706
 6473SOL     OW20317   2.667   1.939   4.433 -0.4806 -0.5189 -0.3383
 6473SOL    HW120318   2.660   2.012   4.364  1.3003 -0.6223 -0.6725
 6473SOL    HW220319   2.591   1.876   4.422 -0.8657  0.1103 -1.4610
 6474SOL     OW20320   3.510   6.314   6.137  0.1322  0.0264 -0.1069
 6474SOL    HW120321   3.469   6.223   6.135 -1.2868  0.5902  1.1682
 6474SOL    HW220322   3.567   6.323   6.219  0.6117  0.1558 -0.4497
 6475SOL     OW20323   5.166   3.947   1.877  0.1585 -0.1577  0.1534
 6475SOL    HW120324   5.130   4.016   1.814 -0.3851 -0.3571  0.2385
 6475SOL    HW220325   5.158   3.981   1.971  0.5861 -0.0292  0.1439
 6476SOL     OW20326   4.492   3.594   6.136  0.1623 -0.3015 -0.4365
 6476SOL    HW120327   4.567   3.556   6.189  1.0920  0.2155 -1.3578
 6476SOL    HW220328   4.427   3.638   6.198  0.5017 -0.9331  0.3847
 6477SOL     OW20329   6.177   3.597   0.893 -0.6746  0.3972  0.4126
 6477SOL    HW120330   6.116   3.519   0.879  0.6551 -0.5803 -0.0899
 6477SOL    HW220331   6.184   3.649   0.808 -0.8017  0.5136  0.4727
 6478SOL     OW20332   3.571   5.483   1.052 -0.0099 -0.9401  0.1292
 6478SOL    HW120333   3.660   5.492   1.006 -0.5038  0.4150 -0.6096
 6478SOL    HW220334   3.505   5.545   1.010 -1.6910 -2.8330 -0.1670
 6479SOL     OW20335   3.912   4.463   5.673  0.2631 -0.4855 -0.0679
 6479SOL    HW120336   3.875   4.382   5.628 -0.9001  1.0408 -2.0419
 6479SOL    HW220337   3.886   4.463   5.770  0.8376 -2.7316  0.1228
 6480SOL     OW20338   1.400   0.493   0.153 -0.1630  0.0368 -0.0055
 6480SOL    HW120339   1.317   0.535   0.117 -0.7224  0.4307  1.6276
 6480SOL    HW220340   1.386   0.468   0.249  0.2064 -3.7714 -0.8036
 6481SOL     OW20341   2.679   0.300   1.258  0.3949  0.5697 -0.5749
 6481SOL    HW120342   2.717   0.243   1.184  0.0786 -1.1748  0.5478
 6481SOL    HW220343   2.611   0.247   1.309 -0.0981  2.0687  0.3791
 6482SOL     OW20344   6.121   3.149   6.233 -0.3557  0.2352  0.1111
 6482SOL    HW120345   6.092   3.231   6.283  2.1306  1.8980 -0.9514
 6482SOL    HW220346   6.193   3.103   6.285  2.1101  1.8641 -1.6043
 6483SOL     OW20347   6.529   5.139   3.989 -0.1094  0.0687  0.0649
 6483SOL    HW120348   6.581   5.060   3.957 -1.5341 -1.1868  0.7320
 6483SOL    HW220349   6.435   5.133   3.955 -0.2734  1.4473  0.2103
 6484SOL     OW20350   2.698   1.772   3.254 -0.0442  0.4185  0.2082
 6484SOL    HW120351   2.671   1.857   3.210  0.7243  1.3846  1.5233
 6484SOL    HW220352   2.771   1.790   3.320  0.2015 -1.2800  0.4573
 6485SOL     OW20353   1.963   6.864   1.708 -0.3643 -0.1909  0.1254
 6485SOL    HW120354   1.944   6.962   1.701  0.8067  0.0357 -0.1450
 6485SOL    HW220355   2.004   6.844   1.797  0.8377 -0.1618 -0.4059
 6486SOL     OW20356   1.067   1.757   4.159 -0.2299 -0.1212  0.0143
 6486SOL    HW120357   1.143   1.692   4.157 -1.4716 -1.6684  1.2515
 6486SOL    HW220358   1.095   1.841   4.112  1.4127 -1.5075 -1.6674
 6487SOL     OW20359   1.236   6.746   6.527 -0.6070  0.3110  0.3389
 6487SOL    HW120360   1.149   6.793   6.512 -1.7234 -1.2637  1.5371
 6487SOL    HW220361   1.254   6.739   6.625 -1.1088 -2.6701  0.3292
 6488SOL     OW20362   3.711   6.435   5.995  0.1801  0.5532 -0.0238
 6488SOL    HW120363   3.784   6.412   6.060 -0.1853 -1.5583 -0.2961
 6488SOL    HW220364   3.627   6.390   6.023  0.2779 -1.4024 -2.5635
 6489SOL     OW20365   3.516   2.204   6.539 -0.0293 -0.0127  0.2445
 6489SOL    HW120366   3.519   2.217   6.638  0.6991  0.5499  0.1595
 6489SOL    HW220367   3.472   2.283   6.497 -2.2630 -1.1738  0.2534
 6490SOL     OW20368   4.379   0.179   5.169  0.4577 -0.6775  0.0069
 6490SOL    HW120369   4.311   0.106   5.164  0.0948 -0.3640  0.2647
 6490SOL    HW220370   4.431   0.170   5.254  0.0241 -0.3066  0.3183
 6491SOL     OW20371   1.868   6.527   2.459 -0.1704  0.3345 -0.1939
 6491SOL    HW120372   1.768   6.532   2.459 -0.1217  1.9056 -1.0587
 6491SOL    HW220373   1.903   6.566   2.544 -0.2738 -0.1175  0.0619
 6492SOL     OW20374   3.144   1.821   5.126  0.1179  0.8862  0.1589
 6492SOL    HW120375   3.079   1.748   5.101  0.7094  0.9281 -1.6565
 6492SOL    HW220376   3.106   1.909   5.098  1.0155  0.8890 -1.1205
 6493SOL     OW20377   1.465   3.798   0.130 -0.5260 -1.0076 -0.3634
 6493SOL    HW120378   1.523   3.751   0.197 -0.6153  0.0020  0.4297
 6493SOL    HW220379   1.522   3.831   0.055 -0.3198 -1.4858 -0.4224
 6494SOL     OW20380   6.266   0.885   4.005 -0.1169 -0.6994 -0.8506
 6494SOL    HW120381   6.335   0.819   3.975 -1.1508 -1.5738 -1.3292
 6494SOL    HW220382   6.189   0.885   3.941 -0.6188  0.1916 -0.2681
 6495SOL     OW20383   0.536   1.433   3.119  0.5987 -0.0563 -0.1210
 6495SOL    HW120384   0.446   1.475   3.109  1.0521  0.8009 -0.7038
 6495SOL    HW220385   0.555   1.375   3.040  0.2461 -0.8477  0.3694
 6496SOL     OW20386   6.833   5.527   3.844 -0.3093 -0.0710 -0.1888
 6496SOL    HW120387   6.872   5.594   3.780  0.1112 -0.8596 -0.7720
 6496SOL    HW220388   6.784   5.575   3.916  0.3135  0.8827 -0.3833
 6497SOL     OW20389   1.499   6.901   1.142  0.4370 -0.1834  0.4040
 6497SOL    HW120390   1.428   6.946   1.196 -0.2739 -0.1635 -0.5216
 6497SOL    HW220391   1.544   6.831   1.198 -1.2774 -1.1771  0.5978
 6498SOL     OW20392   1.045   5.853   2.638 -0.4492 -0.0116  0.4116
 6498SOL    HW120393   1.136   5.855   2.596 -1.4965  2.3878 -2.0003
 6498SOL    HW220394   0.996   5.772   2.606 -0.4765  0.6904 -1.4328
 6499SOL     OW20395   5.079   4.677   3.169  0.0965  0.0495 -0.0209
 6499SOL    HW120396   5.111   4.698   3.261 -2.3560 -1.6451  1.3581
 6499SOL    HW220397   5.122   4.593   3.136  0.0464 -0.0308  0.1196
 6500SOL     OW20398   5.730   2.952   4.397 -0.4706 -0.0905  0.1103
 6500SOL    HW120399   5.726   2.852   4.393 -1.3198 -0.0991  0.7838
 6500SOL    HW220400   5.637   2.989   4.396 -0.1821  0.6679  0.4900
 6501SOL     OW20401   0.465   0.897   1.757 -0.5748 -0.3165 -0.2019
 6501SOL    HW120402   0.426   0.988   1.739 -0.3164 -0.1378  0.1379
 6501SOL    HW220403   0.443   0.836   1.681 -3.0195 -0.7096  0.7305
 6502SOL     OW20404   6.174   3.735   1.492  0.2448 -0.1865 -0.2047
 6502SOL    HW120405   6.089   3.684   1.480 -1.1391  1.7169  0.9319
 6502SOL    HW220406   6.157   3.832   1.478  2.2520  0.2405  0.0399
 6503SOL     OW20407   5.252   1.967   2.980 -0.0110 -0.3653 -0.4451
 6503SOL    HW120408   5.296   2.047   3.022  1.1497 -1.3592  0.3229
 6503SOL    HW220409   5.279   1.961   2.884 -1.3458  1.0012 -0.9369
 6504SOL     OW20410   3.825   6.496   0.679  0.0381 -0.4860  0.3750
 6504SOL    HW120411   3.804   6.435   0.602  0.6777 -0.4697  0.1840
 6504SOL    HW220412   3.833   6.442   0.763 -0.3503 -0.5426  0.3800
 6505SOL     OW20413   4.146   5.842   5.641  0.3865 -0.7381 -0.0395
 6505SOL    HW120414   4.110   5.799   5.724  2.2026  1.0319  1.7944
 6505SOL    HW220415   4.172   5.936   5.662  1.3171 -0.3768 -2.5500
 6506SOL     OW20416   1.581   3.404   2.970 -0.0961 -0.0056  0.0886
 6506SOL    HW120417   1.627   3.336   3.028 -0.2368 -0.1969 -0.0244
 6506SOL    HW220418   1.492   3.426   3.009  1.2256  2.5609  1.9713
 6507SOL     OW20419   2.524   6.650   6.164 -0.1230 -0.0829  0.0821
 6507SOL    HW120420   2.478   6.578   6.112  0.0720  0.1558 -0.4233
 6507SOL    HW220421   2.546   6.616   6.256 -0.7783 -0.3888  0.1310
 6508SOL     OW20422   1.852   1.249   3.035 -0.4448 -0.0841 -0.6192
 6508SOL    HW120423   1.821   1.333   2.991  1.8192  0.9092 -0.4353
 6508SOL    HW220424   1.906   1.195   2.970 -0.7372 -0.7570 -0.3195
 6509SOL     OW20425   5.119   2.161   5.091 -0.0381  0.4169  0.4305
 6509SOL    HW120426   5.184   2.159   5.167  1.1665 -0.9582 -0.5951
 6509SOL    HW220427   5.035   2.113   5.117 -0.1238  1.0124  1.2911
 6510SOL     OW20428   3.174   5.624   0.259 -0.6420 -0.0074  0.4788
 6510SOL    HW120429   3.215   5.575   0.181 -0.8397 -0.4807  0.6653
 6510SOL    HW220430   3.221   5.597   0.343 -1.2761 -0.5012  0.6860
 6511SOL     OW20431   3.827   0.038   4.043 -0.1428 -0.4350 -0.5400
 6511SOL    HW120432   3.737   0.021   4.083  0.6343 -0.7246  1.1928
 6511SOL    HW220433   3.850   0.135   4.052  1.2554 -0.9504  2.5902
 6512SOL     OW20434   4.452   5.670   3.192  0.7436 -0.2107  0.2626
 6512SOL    HW120435   4.551   5.661   3.201  1.0018  1.8471  0.0103
 6512SOL    HW220436   4.430   5.759   3.153 -1.0999 -1.8829 -2.9085
 6513SOL     OW20437   2.226   5.572   3.991 -0.6193  0.4778  0.6751
 6513SOL    HW120438   2.263   5.526   3.911  0.0644  0.3990  1.0284
 6513SOL    HW220439   2.293   5.639   4.025 -1.7351  2.0346 -0.0597
 6514SOL     OW20440   1.470   1.706   4.953 -0.8749  0.4502 -0.2325
 6514SOL    HW120441   1.510   1.794   4.931 -2.0755  1.3944  1.1505
 6514SOL    HW220442   1.398   1.684   4.887 -1.3173  1.0407  0.0484
 6515SOL     OW20443   1.261   4.576   1.824  0.7405 -0.5653  0.2738
 6515SOL    HW120444   1.170   4.544   1.798  0.2777  0.7135  0.2749
 6515SOL    HW220445   1.324   4.565   1.746  0.5207 -1.1660  0.1759
 6516SOL     OW20446   4.068   4.055   6.977  0.6021 -0.0125  0.5505
 6516SOL    HW120447   3.972   4.027   6.975  1.0006 -1.4754  0.6860
 6516SOL    HW220448   4.076   4.147   7.014 -0.8892  0.7669 -0.9304
 6517SOL     OW20449   0.169   2.027   1.397  0.3436 -0.0670 -0.2627
 6517SOL    HW120450   0.153   2.066   1.306  2.8291  1.3632 -0.1862
 6517SOL    HW220451   0.159   1.928   1.393  0.4931 -0.0491 -2.1319
 6518SOL     OW20452   6.893   1.635   3.168 -0.0367  0.3515 -0.5947
 6518SOL    HW120453   6.826   1.681   3.109 -0.3949 -0.4733 -0.8468
 6518SOL    HW220454   6.866   1.540   3.182  0.4872  0.3128  0.2407
 6519SOL     OW20455   0.954   1.757   4.790 -0.3747  0.8491 -0.0604
 6519SOL    HW120456   0.908   1.779   4.703 -1.7209  1.0762  0.6815
 6519SOL    HW220457   0.962   1.840   4.845 -2.9723  0.1389  1.5892
 6520SOL     OW20458   5.642   5.170   5.297 -0.6823 -0.4455  0.1574
 6520SOL    HW120459   5.710   5.231   5.339  0.9125 -1.7124 -0.4716
 6520SOL    HW220460   5.616   5.099   5.363  0.9061 -1.7107 -0.4875
 6521SOL     OW20461   1.674   3.451   3.818 -0.1186  0.0809 -0.1811
 6521SOL    HW120462   1.590   3.481   3.772 -1.5697 -0.2427  2.1139
 6521SOL    HW220463   1.718   3.379   3.764 -0.2585  1.4848 -2.3345
 6522SOL     OW20464   2.002   4.781   4.568 -0.8815 -0.0013  0.3118
 6522SOL    HW120465   2.036   4.706   4.512 -1.7507  0.2361 -0.5654
 6522SOL    HW220466   1.926   4.750   4.625 -0.2716 -0.1406  1.0587
 6523SOL     OW20467   4.258   6.965   0.597 -0.4983  0.2368 -0.2628
 6523SOL    HW120468   4.199   6.981   0.518 -0.8875 -1.1258 -0.2711
 6523SOL    HW220469   4.203   6.933   0.674 -0.0960  1.3656  0.5313
 6524SOL     OW20470   4.004   2.350   1.764  0.2023 -0.1851 -0.6670
 6524SOL    HW120471   3.964   2.297   1.689  0.3535 -1.2392 -0.0136
 6524SOL    HW220472   3.996   2.299   1.849  0.1726  0.9375  0.0255
 6525SOL     OW20473   0.421   5.136   3.349  0.2828  0.2069  0.4140
 6525SOL    HW120474   0.452   5.160   3.257  1.8600 -1.3596  0.4802
 6525SOL    HW220475   0.466   5.196   3.415 -0.4909  1.0224  0.2244
 6526SOL     OW20476   0.251   0.218   1.524 -0.2704  0.9706 -0.6921
 6526SOL    HW120477   0.175   0.155   1.510 -0.7155  0.8185  1.8989
 6526SOL    HW220478   0.257   0.242   1.621  3.4182  0.4547 -0.6577
 6527SOL     OW20479   1.005   2.271   6.853 -0.7342  0.1054 -0.2194
 6527SOL    HW120480   0.918   2.232   6.884  0.4398 -3.2503 -0.8408
 6527SOL    HW220481   1.065   2.286   6.932 -0.8278 -0.2842 -0.0737
 6528SOL     OW20482   5.399   2.296   4.996 -0.1124 -0.0441  0.0497
 6528SOL    HW120483   5.333   2.225   5.020 -0.1112  0.1371  0.6195
 6528SOL    HW220484   5.350   2.380   4.972 -0.1496  0.9216  2.9975
 6529SOL     OW20485   0.694   0.416   3.208  0.4104 -0.0042 -0.1483
 6529SOL    HW120486   0.748   0.440   3.289 -0.2748 -0.9891  0.6417
 6529SOL    HW220487   0.702   0.488   3.139  0.4646  1.2101  1.0793
 6530SOL     OW20488   6.548   1.882   0.404 -0.2906  0.5184  0.3259
 6530SOL    HW120489   6.530   1.847   0.496 -1.3726 -0.8777 -0.3840
 6530SOL    HW220490   6.511   1.975   0.396  1.8672  1.6125  1.9716
 6531SOL     OW20491   4.894   4.200   4.238 -0.3528  0.3699  0.0268
 6531SOL    HW120492   4.904   4.101   4.249  0.6822  0.2625 -1.5760
 6531SOL    HW220493   4.895   4.243   4.328 -0.9958 -1.0788  0.7636
 6532SOL     OW20494   2.665   2.964   1.413 -0.4673 -0.6048  0.0687
 6532SOL    HW120495   2.642   3.016   1.330 -0.3234  0.3639  0.6293
 6532SOL    HW220496   2.581   2.923   1.450 -0.6977 -0.2024  0.0052
 6533SOL     OW20497   6.015   5.394   1.522  0.7289 -0.5657  0.0142
 6533SOL    HW120498   5.976   5.311   1.562  0.0023 -1.0434 -1.6051
 6533SOL    HW220499   6.086   5.369   1.456  0.8179  0.1264 -0.1541
 6534SOL     OW20500   4.753   6.032   1.138  0.2118  0.0240  0.8197
 6534SOL    HW120501   4.695   6.072   1.067  1.6962  2.3708  0.8107
 6534SOL    HW220502   4.708   6.041   1.227 -0.4744 -0.4101  0.5181
 6535SOL     OW20503   6.436   3.934   4.558  0.2954 -0.2550 -0.3048
 6535SOL    HW120504   6.365   3.876   4.598  0.9485 -1.8291 -1.3351
 6535SOL    HW220505   6.493   3.972   4.631 -0.6286 -0.2509  0.4332
 6536SOL     OW20506   0.749   0.370   5.015  0.0249 -0.1871 -0.2359
 6536SOL    HW120507   0.734   0.381   4.917  0.9901 -0.1529 -0.3902
 6536SOL    HW220508   0.732   0.275   5.041  2.2609 -0.8475 -0.9423
 6537SOL     OW20509   4.779   4.668   5.031  0.2150  0.5074  0.4949
 6537SOL    HW120510   4.846   4.598   5.005 -0.8862 -0.4105  0.0793
 6537SOL    HW220511   4.697   4.624   5.068 -0.9288  1.5194 -0.7520
 6538SOL     OW20512   1.862   3.442   5.681  0.3322  0.6607  0.1607
 6538SOL    HW120513   1.947   3.398   5.654  0.8951  1.6660  0.2452
 6538SOL    HW220514   1.798   3.442   5.604 -0.2744 -1.6109  0.5853
 6539SOL     OW20515   5.949   1.058   0.129 -0.2539  0.4004 -0.0899
 6539SOL    HW120516   6.035   1.109   0.142  1.0490 -1.4620 -0.8882
 6539SOL    HW220517   5.914   1.074   0.037  0.3320 -0.3394 -0.4556
 6540SOL     OW20518   0.338   3.051   6.076  0.1496  0.2001 -0.0620
 6540SOL    HW120519   0.425   3.007   6.100 -0.4376 -1.8864 -1.5052
 6540SOL    HW220520   0.352   3.150   6.066  1.8806  0.1954  1.7396
 6541SOL     OW20521   4.399   1.464   4.751  0.4531 -0.9014 -0.8970
 6541SOL    HW120522   4.361   1.406   4.824  0.7332 -0.1263 -0.1197
 6541SOL    HW220523   4.468   1.525   4.789  0.5076 -0.3823 -1.7928
 6542SOL     OW20524   1.859   2.238   4.311 -0.3182  0.2760 -0.2306
 6542SOL    HW120525   1.896   2.204   4.398 -1.3254 -0.7142 -0.1596
 6542SOL    HW220526   1.867   2.167   4.241  0.9216  1.2325 -1.1057
 6543SOL     OW20527   2.774   1.978   4.719  0.4402 -0.1847  0.4377
 6543SOL    HW120528   2.725   1.929   4.791  1.9682 -2.4364  0.0468
 6543SOL    HW220529   2.716   1.985   4.637  0.3741 -1.9388  0.2971
 6544SOL     OW20530   1.936   6.700   2.677  0.0092  0.1944 -0.9444
 6544SOL    HW120531   1.946   6.788   2.722  1.2347  0.0873 -0.9712
 6544SOL    HW220532   1.873   6.643   2.730 -0.7432  1.0512 -0.8939
 6545SOL     OW20533   3.105   5.720   6.603  0.4135  0.7546 -0.3593
 6545SOL    HW120534   3.172   5.767   6.660 -0.4394  0.0783  1.2697
 6545SOL    HW220535   3.121   5.621   6.606 -0.3224  0.6266 -0.3798
 6546SOL     OW20536   1.660   2.839   5.733 -0.2857 -0.0104 -0.0311
 6546SOL    HW120537   1.587   2.797   5.679  0.0052 -0.2091 -0.2812
 6546SOL    HW220538   1.622   2.883   5.814 -0.7532  0.4760 -0.5103
 6547SOL     OW20539   6.081   0.181   0.459  0.6808  0.3386 -0.3118
 6547SOL    HW120540   6.095   0.262   0.402  0.3923 -0.0087 -0.8835
 6547SOL    HW220541   6.025   0.206   0.539  1.2624  0.8706 -0.0642
 6548SOL     OW20542   0.277   3.872   2.747  0.5321 -0.3355 -0.0420
 6548SOL    HW120543   0.325   3.790   2.777  1.6381  0.1955 -0.3237
 6548SOL    HW220544   0.268   3.871   2.648 -1.6904 -1.3048  0.1117
 6549SOL     OW20545   5.996   0.190   2.220 -0.1025 -0.1018  0.3957
 6549SOL    HW120546   5.998   0.251   2.141  2.0639  1.0577  1.2570
 6549SOL    HW220547   5.901   0.165   2.241 -0.7166 -1.0865 -2.9623
 6550SOL     OW20548   2.837   5.571   3.719 -0.1392 -0.1147 -0.2418
 6550SOL    HW120549   2.936   5.557   3.711  0.0290 -0.6193  2.0367
 6550SOL    HW220550   2.810   5.564   3.815 -2.2305  1.2038 -0.6628
 6551SOL     OW20551   1.212   3.265   0.213 -0.2875  0.1146 -0.0156
 6551SOL    HW120552   1.166   3.236   0.128  0.2082  1.5816 -0.8210
 6551SOL    HW220553   1.244   3.184   0.262 -0.5510 -0.7774 -1.2498
 6552SOL     OW20554   0.407   0.651   0.047  0.2969  0.2458  0.1237
 6552SOL    HW120555   0.470   0.620  -0.024 -0.9390  1.5691 -1.6222
 6552SOL    HW220556   0.438   0.615   0.136  1.1069 -2.6681 -1.1895
 6553SOL     OW20557   0.677   1.417   4.835 -0.1722 -0.1323  0.0505
 6553SOL    HW120558   0.610   1.479   4.793 -0.7563 -0.2976  0.7161
 6553SOL    HW220559   0.768   1.460   4.833 -0.7641  1.3530  1.6453
 6554SOL     OW20560   0.687   2.909   3.558  0.1968 -0.6467  0.1929
 6554SOL    HW120561   0.777   2.875   3.531  0.3018  0.1231 -0.4609
 6554SOL    HW220562   0.667   2.994   3.509 -0.5467 -0.3803  0.9355
 6555SOL     OW20563   4.985   3.018   2.495 -0.4451 -0.0288 -0.2971
 6555SOL    HW120564   4.976   2.919   2.505  0.5957 -0.2305 -1.2091
 6555SOL    HW220565   4.977   3.043   2.399  1.5567  0.5064 -0.3722
 6556SOL     OW20566   5.744   3.290   3.220  0.2221  0.1879 -0.8170
 6556SOL    HW120567   5.658   3.280   3.270  0.7376  0.8094  0.2476
 6556SOL    HW220568   5.784   3.379   3.241  2.3512 -1.0356  0.7226
 6557SOL     OW20569   4.314   0.518   3.382  0.1796 -0.6041 -0.0412
 6557SOL    HW120570   4.368   0.461   3.444  1.3387 -0.6390 -1.0343
 6557SOL    HW220571   4.303   0.471   3.295  0.5572  0.3758 -0.6415
 6558SOL     OW20572   5.401   5.862   6.135  0.0131  0.2970  0.5799
 6558SOL    HW120573   5.339   5.857   6.213 -0.9057 -0.1414 -0.1637
 6558SOL    HW220574   5.485   5.812   6.156 -0.5378 -0.4558  1.0055
 6559SOL     OW20575   0.620   3.283   0.084  0.4222 -0.0090  0.0173
 6559SOL    HW120576   0.574   3.363   0.121  0.9069  0.2773  0.0116
 6559SOL    HW220577   0.562   3.240   0.014  0.7913  1.2188 -1.0802
 6560SOL     OW20578   4.047   2.661   0.491  0.0415 -0.6357 -0.0342
 6560SOL    HW120579   4.042   2.761   0.493 -0.0643 -0.6098  2.9784
 6560SOL    HW220580   4.140   2.632   0.471  0.8187  0.2029  2.0594
 6561SOL     OW20581   2.966   3.794   2.630  0.2607  0.3064 -0.1363
 6561SOL    HW120582   3.029   3.718   2.649 -1.6349 -1.1707  0.5284
 6561SOL    HW220583   2.928   3.783   2.538  0.4310  0.7950 -0.2657
 6562SOL     OW20584   4.689   2.720   1.353  0.2522  0.2803 -0.3892
 6562SOL    HW120585   4.779   2.695   1.388  0.3888 -0.4870 -1.2703
 6562SOL    HW220586   4.641   2.774   1.422 -0.3660 -2.9497  1.9345
 6563SOL     OW20587   6.155   6.127   0.242 -0.4731 -0.3452 -0.1021
 6563SOL    HW120588   6.099   6.209   0.237 -0.5667 -0.5119 -2.8474
 6563SOL    HW220589   6.178   6.095   0.150  1.6224 -2.0160  0.8986
 6564SOL     OW20590   5.699   3.393   2.533  0.0449 -0.4000  0.3650
 6564SOL    HW120591   5.629   3.406   2.463  1.9932 -0.4961 -1.6928
 6564SOL    HW220592   5.680   3.453   2.611 -2.3365 -0.4990 -0.0746
 6565SOL     OW20593   6.069   5.152   2.734  0.2834  0.1640 -0.4903
 6565SOL    HW120594   6.065   5.190   2.641 -3.3785 -1.5440 -1.2371
 6565SOL    HW220595   6.044   5.222   2.800  2.3382  1.2435 -0.7801
 6566SOL     OW20596   3.493   6.514   2.382  0.0961 -0.6055 -0.5448
 6566SOL    HW120597   3.535   6.584   2.324 -1.9713  1.8591  0.7335
 6566SOL    HW220598   3.412   6.476   2.336 -1.5538  1.3617  0.5805
 6567SOL     OW20599   6.273   6.329   1.806 -0.2107 -0.2344 -0.3980
 6567SOL    HW120600   6.273   6.427   1.790 -1.6696 -0.1951 -0.2863
 6567SOL    HW220601   6.206   6.285   1.747  0.7840 -1.2520 -0.8188
 6568SOL     OW20602   4.565   2.630   4.542 -0.1034  0.2027 -0.1289
 6568SOL    HW120603   4.616   2.714   4.561  0.6335 -0.3497  0.4374
 6568SOL    HW220604   4.550   2.580   4.628  0.7901 -0.9635 -0.6232
 6569SOL     OW20605   1.759   2.017   5.997 -0.2065 -0.6097  0.2892
 6569SOL    HW120606   1.672   1.978   6.028  0.4265 -0.2900  2.6672
 6569SOL    HW220607   1.757   2.116   6.012  0.6103 -0.6220  0.5106
 6570SOL     OW20608   4.881   0.243   3.382 -0.0051 -0.5277 -0.1704
 6570SOL    HW120609   4.955   0.277   3.324  2.1699  0.3139  2.8901
 6570SOL    HW220610   4.799   0.299   3.367  1.3924  1.6014 -0.2882
 6571SOL     OW20611   2.071   3.415   1.458  0.1898 -0.0205 -0.0592
 6571SOL    HW120612   1.972   3.420   1.470 -0.0821 -1.8918 -1.0891
 6571SOL    HW220613   2.116   3.452   1.539 -1.3585 -0.2472  0.9542
 6572SOL     OW20614   4.990   6.491   3.529  0.1233 -0.3846  0.1568
 6572SOL    HW120615   5.003   6.571   3.586  1.7467  0.4949 -1.3433
 6572SOL    HW220616   4.984   6.519   3.433  0.2506 -2.0116 -0.3655
 6573SOL     OW20617   1.189   2.673   2.817  0.1929  0.0524 -0.2984
 6573SOL    HW120618   1.184   2.573   2.818 -2.7176  0.0802  1.7282
 6573SOL    HW220619   1.174   2.707   2.910 -2.5909  2.4109 -1.4915
 6574SOL     OW20620   0.448   6.143   2.155 -0.4606  0.2346 -0.3065
 6574SOL    HW120621   0.420   6.239   2.160  1.0497  0.7822 -1.5404
 6574SOL    HW220622   0.469   6.110   2.247 -0.6619  1.1998  0.0990
 6575SOL     OW20623   1.608   5.864   4.399  0.0843  0.6377 -0.2531
 6575SOL    HW120624   1.589   5.769   4.377  0.5065  0.7258 -1.0271
 6575SOL    HW220625   1.683   5.869   4.464 -0.6988  0.4067  0.7061
 6576SOL     OW20626   2.558   4.979   2.685  0.1583  0.2682  0.0907
 6576SOL    HW120627   2.575   5.049   2.617 -1.1027 -0.1453 -0.6770
 6576SOL    HW220628   2.485   4.918   2.653 -0.5563  0.1353  1.8425
 6577SOL     OW20629   0.547   3.382   2.957 -0.7443 -0.0361 -0.2879
 6577SOL    HW120630   0.578   3.287   2.948  0.2182  0.3546 -1.4441
 6577SOL    HW220631   0.466   3.386   3.015 -1.1201 -1.6342 -0.6633
 6578SOL     OW20632   6.421   0.602   0.512 -0.3900  0.1275 -0.5712
 6578SOL    HW120633   6.433   0.666   0.435  0.0136  0.4701 -0.2289
 6578SOL    HW220634   6.510   0.562   0.536 -0.7174 -0.9777 -1.1267
 6579SOL     OW20635   6.914   4.229   5.464 -0.8719  0.8561  0.3611
 6579SOL    HW120636   7.014   4.224   5.464 -0.8583  0.4150 -1.4724
 6579SOL    HW220637   6.885   4.317   5.428 -1.1317  0.4330 -0.4822
 6580SOL     OW20638   0.447   1.011   6.667 -0.0363 -0.0910  0.1573
 6580SOL    HW120639   0.372   0.991   6.730  1.4433  0.9381  2.4004
 6580SOL    HW220640   0.443   1.107   6.639  0.4794  0.0103  0.4058
 6581SOL     OW20641   2.877   0.514   1.606 -0.0491  0.2662 -0.2380
 6581SOL    HW120642   2.976   0.527   1.616  0.1088 -0.9585 -0.0903
 6581SOL    HW220643   2.850   0.428   1.648 -0.7459 -0.7406 -2.6017
 6582SOL     OW20644   6.818   4.424   2.324  0.1940 -0.3049  0.5636
 6582SOL    HW120645   6.827   4.523   2.329  2.2027 -0.4594  1.0158
 6582SOL    HW220646   6.847   4.392   2.234 -1.6484 -0.4174 -0.0282
 6583SOL     OW20647   1.857   6.201   0.082 -0.1743 -0.5222  0.3659
 6583SOL    HW120648   1.915   6.229   0.006  0.1253 -1.9204  0.0556
 6583SOL    HW220649   1.770   6.165   0.047 -0.7213  0.3823  0.7699
 6584SOL     OW20650   4.115   4.129   6.247 -0.6116 -0.8560 -0.0083
 6584SOL    HW120651   4.209   4.099   6.232 -1.0831 -1.6036 -1.7597
 6584SOL    HW220652   4.084   4.098   6.337  1.5563  1.4841  1.6707
 6585SOL     OW20653   5.404   6.584   1.398 -0.3152 -0.0016  0.6492
 6585SOL    HW120654   5.472   6.519   1.365 -0.7965  0.1831 -0.7871
 6585SOL    HW220655   5.315   6.540   1.401 -0.5241  0.3871  0.2950
 6586SOL     OW20656   0.991   0.852   4.764 -0.8235  0.2529 -0.2764
 6586SOL    HW120657   0.983   0.777   4.698 -1.8007 -0.6602  0.8422
 6586SOL    HW220658   0.986   0.816   4.857 -0.1060  1.5911  0.3078
 6587SOL     OW20659   0.292   5.996   6.842 -0.1933 -0.4364 -0.2885
 6587SOL    HW120660   0.329   6.025   6.754 -0.0817  0.0375 -0.0850
 6587SOL    HW220661   0.200   5.960   6.829 -1.1721  1.8945 -0.2802
 6588SOL     OW20662   5.924   3.372   2.045  0.3243 -0.4251  0.2658
 6588SOL    HW120663   5.914   3.318   2.129  0.5659  0.6920  1.0306
 6588SOL    HW220664   5.927   3.310   1.966 -0.1421 -1.4773  1.0505
 6589SOL     OW20665   6.288   5.522   0.601  0.4081  0.3042  0.3477
 6589SOL    HW120666   6.193   5.529   0.572  0.5352 -2.5706 -1.0938
 6589SOL    HW220667   6.292   5.472   0.688  0.6448 -0.6935 -0.2266
 6590SOL     OW20668   0.235   1.328   6.655 -0.0450  0.1158  0.2829
 6590SOL    HW120669   0.248   1.300   6.750 -0.6188  2.0123  0.9798
 6590SOL    HW220670   0.191   1.255   6.604  2.6607 -2.0115  0.7372
 6591SOL     OW20671   5.106   6.657   5.691  0.9622  0.0886 -0.2120
 6591SOL    HW120672   5.127   6.652   5.593  0.0077 -3.6876 -0.3566
 6591SOL    HW220673   5.190   6.644   5.744  1.3495  1.3001 -0.4999
 6592SOL     OW20674   6.411   5.200   3.215 -0.7720  0.2811 -0.1847
 6592SOL    HW120675   6.428   5.130   3.145 -0.2193  0.5422 -0.3199
 6592SOL    HW220676   6.312   5.212   3.226 -0.9040 -1.1336  0.4608
 6593SOL     OW20677   2.167   2.577   2.467  0.0535 -0.8203  0.4435
 6593SOL    HW120678   2.223   2.593   2.386 -0.1238 -0.7555  0.3339
 6593SOL    HW220679   2.093   2.514   2.444  0.5120 -1.4879  0.7719
 6594SOL     OW20680   3.149   2.153   4.389  0.5400 -0.0681  0.2149
 6594SOL    HW120681   3.088   2.075   4.404 -0.4633  0.7969  0.6640
 6594SOL    HW220682   3.242   2.127   4.414  0.0385 -0.7979  1.4012
 6595SOL     OW20683   1.482   4.557   5.494  0.3714  0.1250 -0.2829
 6595SOL    HW120684   1.512   4.652   5.499  1.8337 -0.2695 -0.9287
 6595SOL    HW220685   1.549   4.504   5.441  0.6567 -1.6631  1.7281
 6596SOL     OW20686   4.061   6.096   5.211 -0.2142 -0.3861  0.4185
 6596SOL    HW120687   4.029   6.001   5.219 -1.4927  0.0652  0.7726
 6596SOL    HW220688   4.129   6.114   5.283 -1.1854 -0.5652  1.4176
 6597SOL     OW20689   0.129   5.524   3.219 -0.5142  0.0714 -0.0062
 6597SOL    HW120690   0.050   5.552   3.164 -0.6641  0.3931  0.3717
 6597SOL    HW220691   0.200   5.486   3.159 -1.5825 -1.7285 -0.2085
 6598SOL     OW20692   0.424   5.095   2.227 -0.2638 -0.0357  0.5602
 6598SOL    HW120693   0.490   5.168   2.244  1.4906 -1.9031  2.2128
 6598SOL    HW220694   0.361   5.088   2.304 -1.3072  0.5553 -0.2063
 6599SOL     OW20695   4.679   6.791   4.721  0.5631  0.5062  0.1320
 6599SOL    HW120696   4.607   6.750   4.778  0.8164  0.3782  0.3623
 6599SOL    HW220697   4.637   6.849   4.651  0.2041 -0.0169 -0.0992
 6600SOL     OW20698   3.384   6.927   6.628  0.5888 -0.6357  0.3047
 6600SOL    HW120699   3.456   6.858   6.636  2.5507  1.4167  1.4878
 6600SOL    HW220700   3.373   6.973   6.716 -1.6407 -0.3124 -0.0836
 6601SOL     OW20701   1.850   4.288   3.227  0.0202 -0.6897 -0.0489
 6601SOL    HW120702   1.827   4.199   3.189 -0.3424 -0.0340 -1.4262
 6601SOL    HW220703   1.765   4.340   3.241  0.2125 -0.6211  0.9363
 6602SOL     OW20704   1.664   1.856   2.427 -0.7962 -0.5268 -0.3750
 6602SOL    HW120705   1.580   1.848   2.374 -2.6678 -0.2034  2.3140
 6602SOL    HW220706   1.667   1.781   2.494  1.5825 -1.0861 -1.0311
 6603SOL     OW20707   2.055   3.524   2.767  0.4121 -0.4288 -0.2113
 6603SOL    HW120708   2.111   3.554   2.844  0.7984 -0.1070 -0.6040
 6603SOL    HW220709   2.093   3.562   2.682 -1.1866  0.9359 -0.3739
 6604SOL     OW20710   1.708   6.270   1.169  0.0565  0.1008 -0.3350
 6604SOL    HW120711   1.723   6.255   1.266  1.8187  2.0634 -0.2362
 6604SOL    HW220712   1.764   6.206   1.116  0.7538  0.4567 -0.0329
 6605SOL     OW20713   6.246   4.281   2.239  0.6436 -0.0668 -0.8251
 6605SOL    HW120714   6.174   4.270   2.308  1.2250 -0.2003 -0.2274
 6605SOL    HW220715   6.335   4.266   2.281  1.0685  0.6954 -1.4225
 6606SOL     OW20716   0.051   4.212   2.352  0.1365 -0.0829 -0.1319
 6606SOL    HW120717  -0.025   4.231   2.413 -0.3782 -3.0370  0.2855
 6606SOL    HW220718   0.016   4.176   2.265  0.9982  0.0178 -0.5345
 6607SOL     OW20719   3.129   5.629   5.100 -0.3302 -0.7457 -0.0896
 6607SOL    HW120720   3.211   5.589   5.060 -0.0769 -1.2572  0.9027
 6607SOL    HW220721   3.078   5.678   5.029  0.5168 -0.9192 -0.8446
 6608SOL     OW20722   0.263   6.855   0.128 -0.4322  0.2582  0.1442
 6608SOL    HW120723   0.332   6.895   0.188  0.0981 -1.1408  0.5135
 6608SOL    HW220724   0.281   6.881   0.033  1.5560 -1.3186  0.0353
 6609SOL     OW20725   5.243   1.786   1.054 -0.0030  0.0415  0.9763
 6609SOL    HW120726   5.247   1.884   1.072  1.8895  0.7487 -2.3730
 6609SOL    HW220727   5.335   1.751   1.035 -0.9921 -1.5307 -1.4056
 6610SOL     OW20728   3.012   0.476   0.280 -0.3778 -0.2179 -0.1266
 6610SOL    HW120729   2.988   0.402   0.216 -1.4035 -1.4091  1.5548
 6610SOL    HW220730   3.108   0.501   0.266 -0.4326 -0.7646 -1.7948
 6611SOL     OW20731   4.852   2.413   2.653 -0.4079  0.3743  0.7500
 6611SOL    HW120732   4.863   2.396   2.555  1.6587 -0.9934  1.1595
 6611SOL    HW220733   4.756   2.405   2.677 -0.9054  0.3192 -1.0780
 6612SOL     OW20734   6.761   4.008   5.564  0.5586  0.4653 -0.0521
 6612SOL    HW120735   6.802   4.096   5.542  0.0472  0.2940 -1.8320
 6612SOL    HW220736   6.739   3.959   5.480 -0.2452 -0.8637  0.8876
 6613SOL     OW20737   6.527   1.028   5.149 -0.2821  0.2251 -0.1975
 6613SOL    HW120738   6.472   1.104   5.185  0.6997  0.7441  0.2561
 6613SOL    HW220739   6.557   0.971   5.225 -0.4724 -0.2561 -0.4800
 6614SOL     OW20740   2.286   5.454   5.968 -0.4277  0.7125  0.6016
 6614SOL    HW120741   2.236   5.368   5.961 -0.8078  0.9573  0.2499
 6614SOL    HW220742   2.284   5.500   5.879  0.7165  0.5617  0.4875
 6615SOL     OW20743   6.488   5.621   0.064  0.1544 -0.4212  0.6268
 6615SOL    HW120744   6.510   5.708   0.108  0.7945  0.0759 -0.6274
 6615SOL    HW220745   6.397   5.591   0.092 -0.2744  0.8999  0.6969
 6616SOL     OW20746   4.329   0.175   1.366 -0.4940 -0.1208 -0.2150
 6616SOL    HW120747   4.353   0.241   1.437 -1.4370 -0.3436  0.3200
 6616SOL    HW220748   4.389   0.095   1.373  0.0339  0.2638 -0.2724
 6617SOL     OW20749   3.883   5.601   1.269  0.1798  0.0538  0.3041
 6617SOL    HW120750   3.818   5.624   1.341  0.3887 -0.1383  0.5571
 6617SOL    HW220751   3.866   5.507   1.238 -0.2102  0.2953 -0.2243
 6618SOL     OW20752   1.356   1.015   4.055 -0.3847 -0.4253 -0.2882
 6618SOL    HW120753   1.434   0.953   4.065 -0.0704  0.2056  1.4917
 6618SOL    HW220754   1.271   0.964   4.071 -0.0422 -0.0768  3.4706
 6619SOL     OW20755   0.395   0.645   3.563 -0.0440  0.1866 -0.0423
 6619SOL    HW120756   0.408   0.549   3.589  3.6630  0.2776 -0.9895
 6619SOL    HW220757   0.402   0.654   3.464 -0.9100  1.4093 -0.0190
 6620SOL     OW20758   1.592   2.393   4.870  0.2195 -0.5646  0.5968
 6620SOL    HW120759   1.550   2.483   4.881  0.5690 -0.5270  1.7787
 6620SOL    HW220760   1.655   2.376   4.946  2.2859 -0.6492 -1.0343
 6621SOL     OW20761   3.412   2.883   4.414  0.3066  0.5840  0.2531
 6621SOL    HW120762   3.459   2.813   4.361 -0.7705  0.0372 -0.0253
 6621SOL    HW220763   3.396   2.964   4.358  1.4287  1.0120  0.5329
 6622SOL     OW20764   6.734   5.699   1.776  0.2074  0.3988  0.3799
 6622SOL    HW120765   6.671   5.735   1.845  0.4323 -1.3519  1.5490
 6622SOL    HW220766   6.812   5.656   1.821  1.5022  1.1758 -1.0249
 6623SOL     OW20767   3.395   3.758   6.073  0.6854  0.0787 -0.6955
 6623SOL    HW120768   3.419   3.711   5.988 -0.6127 -0.7129 -0.6547
 6623SOL    HW220769   3.303   3.796   6.066  0.6575  0.2287  0.2582
 6624SOL     OW20770   0.740   1.646   6.997  0.2286 -0.0412  0.2691
 6624SOL    HW120771   0.795   1.706   7.055  0.7955 -0.3811  0.0957
 6624SOL    HW220772   0.739   1.680   6.904 -0.2392  0.2128  0.3646
 6625SOL     OW20773   6.167   3.562   6.676  0.1210  0.0552 -0.6309
 6625SOL    HW120774   6.070   3.552   6.656  0.2579 -1.3514 -0.6681
 6625SOL    HW220775   6.220   3.501   6.617  0.8654 -0.6233  0.6852
 6626SOL     OW20776   3.460   1.753   4.419 -0.1791  0.5785  0.1891
 6626SOL    HW120777   3.510   1.775   4.502  0.5819 -0.1928 -0.0528
 6626SOL    HW220778   3.362   1.754   4.438 -0.0019 -0.0602  1.2188
 6627SOL     OW20779   2.531   6.208   3.324  0.5646 -0.5537  0.0864
 6627SOL    HW120780   2.546   6.240   3.418 -2.5915 -0.8142  0.7804
 6627SOL    HW220781   2.538   6.285   3.261 -2.0876  0.6855  1.1630
 6628SOL     OW20782   5.873   5.921   3.823 -0.2305 -0.6088  0.0736
 6628SOL    HW120783   5.794   5.982   3.810  1.1790  1.1129 -0.8962
 6628SOL    HW220784   5.883   5.900   3.920  0.1912  2.1913  0.7204
 6629SOL     OW20785   5.206   6.268   5.433 -0.3672  0.1673  0.2370
 6629SOL    HW120786   5.254   6.235   5.352 -1.8933  0.8991 -1.0381
 6629SOL    HW220787   5.140   6.339   5.406 -0.6290  0.7361  2.1929
 6630SOL     OW20788   2.543   0.100   1.424  0.4096  0.2072 -0.6067
 6630SOL    HW120789   2.574   0.021   1.372  0.5839 -0.5682  0.6262
 6630SOL    HW220790   2.502   0.069   1.510 -0.9676  1.3781 -0.8026
 6631SOL     OW20791   1.725   1.488   3.879  0.5209 -0.0370  0.3796
 6631SOL    HW120792   1.750   1.425   3.953 -0.1444  1.6869  2.1420
 6631SOL    HW220793   1.780   1.571   3.885 -0.0962  0.4641 -0.5754
 6632SOL     OW20794   6.935   1.373   1.945 -0.0363 -0.6716 -0.5133
 6632SOL    HW120795   6.887   1.338   1.865 -1.8842 -0.3056  0.3785
 6632SOL    HW220796   6.875   1.369   2.025  1.1142  0.6781  0.4859
 6633SOL     OW20797   0.814   6.632   0.530  0.1501  0.0821 -0.0975
 6633SOL    HW120798   0.817   6.583   0.617  0.5988  0.6075  0.1883
 6633SOL    HW220799   0.803   6.730   0.546  1.3369  0.3222 -0.5696
 6634SOL     OW20800   0.883   1.478   5.581 -0.2000 -0.0246 -0.5790
 6634SOL    HW120801   0.902   1.503   5.676  1.0452 -0.6264 -0.6542
 6634SOL    HW220802   0.833   1.392   5.579 -2.1443  1.0457 -0.4196
 6635SOL     OW20803   4.820   5.846   3.066 -0.0961 -0.3824  0.1540
 6635SOL    HW120804   4.848   5.941   3.056 -3.0894  0.6460  0.7606
 6635SOL    HW220805   4.816   5.823   3.164  1.0959 -1.3596  0.0104
 6636SOL     OW20806   5.245   1.667   1.396 -0.1281  0.0580 -0.8366
 6636SOL    HW120807   5.239   1.763   1.422 -1.2053  0.3522 -2.0408
 6636SOL    HW220808   5.174   1.615   1.444 -2.3693  0.6675 -3.2366
 6637SOL     OW20809   2.253   1.242   6.672  0.3107 -0.8685  0.4741
 6637SOL    HW120810   2.349   1.223   6.650  0.4864  0.7590 -0.2843
 6637SOL    HW220811   2.249   1.300   6.753  0.0702  0.4099 -0.4241
 6638SOL     OW20812   3.803   3.867   2.137  0.5194  0.4628 -0.0275
 6638SOL    HW120813   3.754   3.949   2.167  1.7550  1.6801 -1.1577
 6638SOL    HW220814   3.785   3.792   2.200 -0.8636  1.5262  0.8940
 6639SOL     OW20815   3.228   5.277   0.266  0.0682 -0.7360  0.0221
 6639SOL    HW120816   3.297   5.212   0.236  1.6177  0.5677  0.6445
 6639SOL    HW220817   3.252   5.313   0.356 -1.1917  0.0729  0.0690
 6640SOL     OW20818   6.173   2.986   6.917 -0.3131 -0.7201 -0.0180
 6640SOL    HW120819   6.247   2.927   6.885  1.7280  1.3114  0.6422
 6640SOL    HW220820   6.143   2.956   7.008  4.7402  2.2006  3.1057
 6641SOL     OW20821   4.260   2.340   1.736 -0.3362  0.1404  0.3920
 6641SOL    HW120822   4.161   2.353   1.746  0.1380  2.6770  3.3812
 6641SOL    HW220823   4.288   2.261   1.790 -0.6280 -0.1558  0.1189
 6642SOL     OW20824   0.197   0.086   0.700 -0.0873  0.3077 -0.4417
 6642SOL    HW120825   0.241   0.085   0.611  1.3900  0.6269  0.2461
 6642SOL    HW220826   0.261   0.051   0.769 -1.9269 -2.0042  0.2108
 6643SOL     OW20827   4.066   5.206   0.857  0.2905  0.0759  0.2123
 6643SOL    HW120828   3.985   5.190   0.914  0.0281  0.0994 -0.1466
 6643SOL    HW220829   4.105   5.296   0.877  1.5706 -0.8099  2.0045
 6644SOL     OW20830   2.141   4.185   0.015  0.6554  0.1936  0.7865
 6644SOL    HW120831   2.129   4.172   0.113 -1.0690 -1.1600  0.4542
 6644SOL    HW220832   2.062   4.147  -0.033  0.1549  3.1796 -1.0076
 6645SOL     OW20833   4.774   3.109   5.687 -0.3140 -0.2060  0.1296
 6645SOL    HW120834   4.847   3.148   5.630  0.0129 -0.2545  0.5114
 6645SOL    HW220835   4.695   3.169   5.684 -0.4005 -0.3444 -0.5953
 6646SOL     OW20836   3.378   1.938   5.034 -0.0613  0.5196 -0.3165
 6646SOL    HW120837   3.453   1.883   5.069 -0.2606  1.4231  1.6811
 6646SOL    HW220838   3.292   1.888   5.046 -0.0368  0.4605 -0.3832
 6647SOL     OW20839   5.610   0.623   0.456 -0.4213 -0.2143  0.3961
 6647SOL    HW120840   5.519   0.655   0.482  0.6948  3.0911  0.7711
 6647SOL    HW220841   5.615   0.613   0.357 -0.9064  0.6728  0.2767
 6648SOL     OW20842   6.275   5.799   3.894  0.2599 -0.6904 -0.1434
 6648SOL    HW120843   6.344   5.871   3.892 -0.8372  0.3951 -0.0743
 6648SOL    HW220844   6.214   5.809   3.815 -0.7691 -0.6330  0.6334
 6649SOL     OW20845   0.748   2.341   0.226 -0.3621  0.1878  0.5197
 6649SOL    HW120846   0.679   2.272   0.248 -0.2959  0.7913  2.9035
 6649SOL    HW220847   0.832   2.321   0.276 -0.3615  1.9803  1.3060
 6650SOL     OW20848   4.032   0.114   4.516 -0.2279 -0.4302 -0.4567
 6650SOL    HW120849   4.081   0.190   4.474  0.5473 -0.5463  0.2246
 6650SOL    HW220850   3.951   0.149   4.563 -0.1017 -0.0734 -0.5010
 6651SOL     OW20851   2.764   1.672   6.245  0.2623  0.2952 -0.1249
 6651SOL    HW120852   2.752   1.767   6.273 -0.5134  0.0562  0.3807
 6651SOL    HW220853   2.844   1.665   6.185  1.1699  1.0290  0.9516
 6652SOL     OW20854   0.386   3.605   5.833 -0.7282  0.0937 -0.0667
 6652SOL    HW120855   0.302   3.593   5.780 -0.5521 -0.2788 -0.2642
 6652SOL    HW220856   0.435   3.517   5.839  0.3518  0.5931 -1.1419
 6653SOL     OW20857   4.421   3.435   1.042 -0.2959  0.4245  0.5292
 6653SOL    HW120858   4.407   3.388   0.955 -1.7151 -0.0510  0.9942
 6653SOL    HW220859   4.501   3.397   1.088  1.4755  1.7524 -1.2423
 6654SOL     OW20860   1.565   4.881   2.891  0.6650 -0.7322  0.0179
 6654SOL    HW120861   1.576   4.787   2.923  2.1141 -0.8570 -0.7745
 6654SOL    HW220862   1.648   4.933   2.911  0.0167  0.2931  0.1234
 6655SOL     OW20863   0.424   6.900   3.094  0.6699 -0.2175 -0.1894
 6655SOL    HW120864   0.360   6.829   3.121 -1.1097  1.5011  0.3695
 6655SOL    HW220865   0.428   6.905   2.994 -0.0380 -0.3998 -0.2312
 6656SOL     OW20866   6.158   1.811   1.948 -0.0229 -0.4945  0.3948
 6656SOL    HW120867   6.114   1.747   1.885 -1.1237  0.0724  0.5551
 6656SOL    HW220868   6.177   1.897   1.899 -0.1426 -0.3362  0.6263
 6657SOL     OW20869   5.268   3.642   4.447 -0.8791 -0.2362  0.2588
 6657SOL    HW120870   5.367   3.636   4.454 -0.9923 -0.7727  2.2047
 6657SOL    HW220871   5.242   3.685   4.361  1.0792  1.0500  0.2542
 6658SOL     OW20872   5.360   1.343   4.580 -0.1458  0.2775  0.5146
 6658SOL    HW120873   5.458   1.332   4.566  0.1596  1.5426  1.4502
 6658SOL    HW220874   5.316   1.370   4.495  0.7029  1.9737  0.5715
 6659SOL     OW20875   2.211   3.371   1.065  0.0567 -0.4676 -0.0929
 6659SOL    HW120876   2.117   3.359   1.035 -0.5328 -1.9105  2.0950
 6659SOL    HW220877   2.274   3.339   0.994 -1.1386 -0.8964 -0.9758
 6660SOL     OW20878   2.284   5.676   1.023 -0.2990 -0.1557 -0.4473
 6660SOL    HW120879   2.213   5.720   1.078  1.1837  1.7578  0.0819
 6660SOL    HW220880   2.347   5.626   1.084  0.2634  0.3547 -0.5995
 6661SOL     OW20881   2.545   5.661   5.179  0.4808  0.5938  0.0455
 6661SOL    HW120882   2.499   5.593   5.237  0.1218  0.5721 -0.2661
 6661SOL    HW220883   2.599   5.614   5.109  2.2252  0.5754  1.3373
 6662SOL     OW20884   1.164   0.638   6.850 -0.4617  0.2212  0.9270
 6662SOL    HW120885   1.182   0.544   6.880 -1.9026 -0.9998 -1.6744
 6662SOL    HW220886   1.085   0.674   6.899 -1.8894 -1.1916 -0.2324
 6663SOL     OW20887   1.809   6.194   3.479  0.3472 -0.2931  0.8058
 6663SOL    HW120888   1.830   6.225   3.572  0.1706 -1.3957  1.2273
 6663SOL    HW220889   1.718   6.152   3.478 -0.0889  0.6221 -0.0966
 6664SOL     OW20890   2.486   5.937   1.127  0.0067  0.7031 -0.4205
 6664SOL    HW120891   2.546   5.996   1.181  1.6327 -0.7711 -0.5465
 6664SOL    HW220892   2.528   5.921   1.037 -0.5573 -0.3982 -0.4975
 6665SOL     OW20893   2.648   5.398   4.609  0.0044  0.3740 -0.0859
 6665SOL    HW120894   2.665   5.329   4.539 -1.3580  0.1332 -0.2014
 6665SOL    HW220895   2.724   5.464   4.609  0.2746  0.1046 -1.4431
 6666SOL     OW20896   6.722   0.383   5.168  0.3937 -0.1183 -0.1780
 6666SOL    HW120897   6.805   0.329   5.180  0.3067 -0.4996 -1.2173
 6666SOL    HW220898   6.644   0.334   5.208  0.4217 -0.4733 -0.5502
 6667SOL     OW20899   1.057   6.121   5.245  0.4400 -0.5159 -0.4514
 6667SOL    HW120900   1.132   6.187   5.241 -0.0278  0.1772  1.5306
 6667SOL    HW220901   0.970   6.167   5.231  0.1542 -0.7772  0.3897
 6668SOL     OW20902   1.067   5.996   1.775  0.0662 -0.0879  0.1760
 6668SOL    HW120903   1.066   5.973   1.678  3.0036 -0.6202  0.1951
 6668SOL    HW220904   1.026   5.921   1.827 -0.4214 -0.3399 -0.5572
 6669SOL     OW20905   1.365   2.180   2.293  0.4765  0.1255  0.2352
 6669SOL    HW120906   1.460   2.198   2.318 -0.0370  0.0812  2.3690
 6669SOL    HW220907   1.330   2.103   2.346 -0.9221  0.5123 -0.0843
 6670SOL     OW20908   4.781   0.077   4.885  0.4558  0.2357  0.2717
 6670SOL    HW120909   4.693   0.029   4.890 -0.0380  1.1233  0.2370
 6670SOL    HW220910   4.767   0.169   4.849  1.5762 -0.0191 -0.8582
 6671SOL     OW20911   5.818   1.677   5.894  0.7126 -0.2053 -0.4505
 6671SOL    HW120912   5.861   1.652   5.808  1.2384 -1.7038  0.2201
 6671SOL    HW220913   5.775   1.596   5.935 -0.7973  0.7770  0.0089
 6672SOL     OW20914   0.689   2.480   7.003 -0.1131 -0.7107 -0.5369
 6672SOL    HW120915   0.702   2.421   7.083 -3.6889 -1.7180 -0.5020
 6672SOL    HW220916   0.648   2.427   6.929 -0.0232  0.9418 -1.8241
 6673SOL     OW20917   3.064   6.076   1.334 -0.8233  0.4707  0.2126
 6673SOL    HW120918   3.120   6.094   1.253  1.2951 -0.0298  1.4672
 6673SOL    HW220919   3.102   6.126   1.412 -1.2064 -1.0653  1.4476
 6674SOL     OW20920   0.348   6.321   0.617 -0.2127  0.3220 -0.8384
 6674SOL    HW120921   0.386   6.259   0.548  1.2472  1.6357 -1.2618
 6674SOL    HW220922   0.272   6.373   0.576 -1.1376 -0.8114 -0.6150
 6675SOL     OW20923   5.852   3.265   0.597 -0.2209  0.4745 -0.6471
 6675SOL    HW120924   5.892   3.173   0.595  1.6034  1.2122 -0.1771
 6675SOL    HW220925   5.765   3.262   0.646  1.2531 -0.5104  2.1445
 6676SOL     OW20926   6.823   4.174   4.931  0.1651 -0.0426 -0.0659
 6676SOL    HW120927   6.818   4.206   4.837 -0.5567  0.7438  0.2222
 6676SOL    HW220928   6.791   4.080   4.937  1.6322 -0.6177 -0.8222
 6677SOL     OW20929   6.922   0.794   0.873  0.4861 -0.1829 -0.3389
 6677SOL    HW120930   7.004   0.738   0.863  0.5630 -0.1987  0.3198
 6677SOL    HW220931   6.873   0.767   0.956  0.8160  1.0886  0.2961
 6678SOL     OW20932   3.534   2.788   0.524  0.4688  0.1077 -0.5363
 6678SOL    HW120933   3.517   2.885   0.543 -1.1719 -0.4870  1.3629
 6678SOL    HW220934   3.536   2.737   0.609 -0.7907 -1.8417 -1.5838
 6679SOL     OW20935   4.566   6.315   5.977 -0.0456  0.2809  0.1774
 6679SOL    HW120936   4.665   6.316   5.993 -0.2117 -0.9285  1.4407
 6679SOL    HW220937   4.544   6.377   5.902  1.7372  0.1286 -0.5186
 6680SOL     OW20938   6.559   0.255   6.275  0.3272  0.6930 -0.4353
 6680SOL    HW120939   6.659   0.247   6.271  0.2734 -0.8686  0.5566
 6680SOL    HW220940   6.518   0.199   6.202  0.1283 -2.2872  1.8006
 6681SOL     OW20941   4.628   5.446   0.851 -0.5935 -0.1449 -0.4638
 6681SOL    HW120942   4.646   5.539   0.883 -0.7114 -0.7161  1.4339
 6681SOL    HW220943   4.700   5.417   0.788  1.6727 -0.0983  1.9430
 6682SOL     OW20944   2.504   6.218   0.917 -0.9440  0.1256 -0.3909
 6682SOL    HW120945   2.568   6.290   0.890 -0.2475  0.3280  1.5724
 6682SOL    HW220946   2.411   6.243   0.891 -0.5047  0.9126 -1.2577
 6683SOL     OW20947   4.781   3.931   3.659  0.3686  0.4680 -0.3538
 6683SOL    HW120948   4.846   3.857   3.676  0.0215 -0.0034 -0.9985
 6683SOL    HW220949   4.730   3.950   3.743 -2.1742 -2.6569 -0.9393
 6684SOL     OW20950   5.437   5.447   2.414 -0.3138  0.0219  0.0436
 6684SOL    HW120951   5.374   5.379   2.452  0.4295 -0.6087  0.1780
 6684SOL    HW220952   5.427   5.533   2.463 -2.9412  0.7926 -1.6010
 6685SOL     OW20953   4.012   2.190   5.314 -0.3244 -0.4855 -0.0426
 6685SOL    HW120954   4.079   2.158   5.380  0.6363  2.0041  0.3080
 6685SOL    HW220955   3.930   2.221   5.362 -0.0602  0.3004 -0.0788
 6686SOL     OW20956   5.422   5.781   4.557  0.2958  0.7622 -0.1356
 6686SOL    HW120957   5.455   5.875   4.551  2.6153  0.0205 -0.1812
 6686SOL    HW220958   5.341   5.777   4.615  1.6256  2.4751  1.9884
 6687SOL     OW20959   1.605   3.316   1.686  0.1656 -0.0965  0.4387
 6687SOL    HW120960   1.559   3.391   1.735 -0.4053 -0.4905  0.5168
 6687SOL    HW220961   1.540   3.243   1.670  0.6593 -0.4694  0.1285
 6688SOL     OW20962   3.843   3.819   1.601  0.1787 -0.2102  0.3361
 6688SOL    HW120963   3.800   3.871   1.675 -0.1870  1.0983 -0.7488
 6688SOL    HW220964   3.910   3.877   1.555  1.4560 -1.4853  0.5357
 6689SOL     OW20965   5.091   4.215   3.028 -0.1487 -0.2760 -0.1250
 6689SOL    HW120966   5.169   4.277   3.038 -1.5626  1.5145  0.2716
 6689SOL    HW220967   5.079   4.162   3.112  0.2587 -0.0981  0.0463
 6690SOL     OW20968   1.084   0.935   5.718  0.4591 -0.0459 -0.1464
 6690SOL    HW120969   1.146   0.992   5.664  0.9764 -1.0799 -0.6835
 6690SOL    HW220970   1.126   0.845   5.732  0.0559 -0.0243  1.4363
 6691SOL     OW20971   2.014   1.231   3.253  0.7006  0.0446  0.0145
 6691SOL    HW120972   1.987   1.241   3.349  1.4669 -2.3477  0.5359
 6691SOL    HW220973   1.942   1.269   3.195  0.1623  1.4312  1.5065
 6692SOL     OW20974   3.367   3.215   4.719 -0.1680  0.3292  0.5124
 6692SOL    HW120975   3.307   3.255   4.649 -1.2293 -0.6028  0.8600
 6692SOL    HW220976   3.367   3.115   4.710  3.3391  0.3262 -1.0960
 6693SOL     OW20977   4.274   1.496   6.126 -0.1465 -0.6884 -0.2995
 6693SOL    HW120978   4.352   1.451   6.081 -0.1619 -0.0188 -1.0094
 6693SOL    HW220979   4.295   1.509   6.223  0.4611 -0.8786 -0.3986
 6694SOL     OW20980   3.907   6.658   1.847  0.5576 -0.5146 -0.5675
 6694SOL    HW120981   3.809   6.672   1.866  1.3627  3.2127  2.2529
 6694SOL    HW220982   3.924   6.563   1.824 -3.5715 -1.5262 -0.1920
 6695SOL     OW20983   4.566   1.955   5.936  0.7654 -0.0117  0.6771
 6695SOL    HW120984   4.643   2.007   5.973  1.8367 -1.1231  0.0930
 6695SOL    HW220985   4.495   1.947   6.006  1.1746  1.0323  1.2368
 6696SOL     OW20986   3.031   3.111   5.164  0.8029 -0.1519 -0.1042
 6696SOL    HW120987   3.115   3.155   5.194  2.0123 -0.7576 -2.3688
 6696SOL    HW220988   2.969   3.179   5.125  0.6525  0.1507  0.6428
 6697SOL     OW20989   0.110   1.273   3.012  0.7580 -0.9418  0.2555
 6697SOL    HW120990   0.157   1.191   2.979  1.8567  0.4577 -1.9162
 6697SOL    HW220991   0.020   1.279   2.970  0.3583 -1.4302  1.0363
 6698SOL     OW20992   2.141   1.421   2.096 -0.0485 -0.0914 -0.5495
 6698SOL    HW120993   2.229   1.439   2.139 -0.1666  1.4299 -0.8684
 6698SOL    HW220994   2.151   1.428   1.996 -1.0220  2.9587 -0.5327
 6699SOL     OW20995   3.363   1.479   4.625 -0.7863  0.2472  0.5748
 6699SOL    HW120996   3.391   1.426   4.705  0.6998  0.0834 -0.0069
 6699SOL    HW220997   3.318   1.563   4.654  0.3582  0.5288  1.6234
 6700SOL     OW20998   0.759   1.772   3.969 -0.0490 -0.5883  0.5539
 6700SOL    HW120999   0.708   1.847   4.011 -2.5166 -3.1923  2.6418
 6700SOL    HW221000   0.700   1.722   3.906  0.4465 -2.5786  1.5791
 6701SOL     OW21001   4.766   4.070   0.169  0.0360 -0.3704  0.6879
 6701SOL    HW121002   4.701   4.088   0.242 -0.7379 -1.7165  0.3667
 6701SOL    HW221003   4.823   3.992   0.193  1.6105  0.8301  0.9899
 6702SOL     OW21004   0.011   3.314   1.156 -0.1850  0.0156  0.0332
 6702SOL    HW121005  -0.070   3.350   1.109 -0.1603 -0.0329 -0.0459
 6702SOL    HW221006   0.052   3.242   1.101  1.5119  1.8543 -1.2734
 6703SOL     OW21007   1.009   5.018   2.411  0.0476 -0.3176  0.4012
 6703SOL    HW121008   1.056   5.101   2.381  0.6031 -1.4422 -2.0872
 6703SOL    HW221009   1.022   5.006   2.509  3.5669  0.3249  0.1378
 6704SOL     OW21010   4.257   2.193   3.694  0.5727 -0.4566 -0.2932
 6704SOL    HW121011   4.204   2.215   3.612  0.2585  1.9346  0.4577
 6704SOL    HW221012   4.288   2.098   3.691 -0.5333 -0.7846 -2.5398
 6705SOL     OW21013   4.480   1.741   0.553  0.3545  0.0177 -0.3946
 6705SOL    HW121014   4.523   1.650   0.545  0.7274  0.1047  0.4883
 6705SOL    HW221015   4.544   1.804   0.597 -0.2280  0.4765 -0.1940
 6706SOL     OW21016   1.364   6.385   2.762 -0.1281  0.0875  0.1925
 6706SOL    HW121017   1.376   6.300   2.711 -1.2476 -0.5867  0.9891
 6706SOL    HW221018   1.415   6.379   2.848  0.0566  0.3581  0.1024
 6707SOL     OW21019   6.362   1.345   3.163 -0.0861  0.5546  0.9032
 6707SOL    HW121020   6.359   1.266   3.101 -1.7118  0.6793  0.7887
 6707SOL    HW221021   6.335   1.317   3.254  2.5515  0.3198  1.7023
 6708SOL     OW21022   6.458   5.606   0.394 -0.0070 -0.1587  0.4061
 6708SOL    HW121023   6.394   5.579   0.466 -2.1561  1.5841 -0.7071
 6708SOL    HW221024   6.551   5.581   0.420 -0.8280 -0.6096  3.2323
 6709SOL     OW21025   4.264   5.836   2.612 -0.0048 -0.4289  0.1121
 6709SOL    HW121026   4.187   5.792   2.656 -0.6440  0.2886 -0.2616
 6709SOL    HW221027   4.238   5.929   2.583  0.6095 -0.6019 -1.0921
 6710SOL     OW21028   3.966   0.512   5.139 -0.2919  0.2176  0.1469
 6710SOL    HW121029   3.909   0.561   5.206 -3.7083 -2.1873 -0.7713
 6710SOL    HW221030   4.018   0.441   5.187 -1.0114 -0.0485  0.5570
 6711SOL     OW21031   4.335   6.636   5.240  0.1984  0.8875 -0.3990
 6711SOL    HW121032   4.271   6.600   5.307  2.0650 -2.3073 -0.1363
 6711SOL    HW221033   4.304   6.612   5.148 -0.5289  2.0876 -0.4758
 6712SOL     OW21034   6.653   3.137   6.828 -0.4141  0.2579 -0.4634
 6712SOL    HW121035   6.723   3.065   6.825 -0.2049  0.4584 -0.4089
 6712SOL    HW221036   6.600   3.129   6.913 -1.4165 -0.7911 -1.1525
 6713SOL     OW21037   0.747   0.854   2.568  0.3808 -0.5914  0.6641
 6713SOL    HW121038   0.668   0.833   2.511  1.4257 -2.2920 -0.2730
 6713SOL    HW221039   0.730   0.823   2.661  1.2264 -4.6637 -0.3109
 6714SOL     OW21040   6.834   2.767   6.203 -0.1916  0.5930 -0.7070
 6714SOL    HW121041   6.929   2.737   6.200 -0.1883  0.6644 -1.3427
 6714SOL    HW221042   6.830   2.861   6.237 -0.2677 -0.3652  2.2295
 6715SOL     OW21043   2.860   0.855   0.247  0.1847 -0.2638  0.3403
 6715SOL    HW121044   2.838   0.943   0.289  1.2825 -1.2111  3.1222
 6715SOL    HW221045   2.804   0.784   0.288 -0.7204 -0.9374 -1.9107
 6716SOL     OW21046   0.364   5.169   1.743 -0.2652  0.2273 -0.5870
 6716SOL    HW121047   0.379   5.254   1.794  1.7826 -1.3172  1.5818
 6716SOL    HW221048   0.449   5.116   1.741 -1.4125 -1.6948 -2.1020
 6717SOL     OW21049   3.432   1.850   5.358  0.1380 -0.2925 -0.9552
 6717SOL    HW121050   3.448   1.948   5.361 -1.3647 -0.0491 -0.3014
 6717SOL    HW221051   3.383   1.827   5.274 -0.3770 -0.3256 -0.6541
 6718SOL     OW21052   5.351   5.519   1.422 -0.2939 -0.4031 -0.3606
 6718SOL    HW121053   5.380   5.553   1.332  0.7358 -1.3480 -0.4061
 6718SOL    HW221054   5.300   5.434   1.411 -0.1292 -0.5428 -0.0471
 6719SOL     OW21055   1.371   4.203   2.518 -0.6245  0.4299  0.7430
 6719SOL    HW121056   1.408   4.203   2.611 -1.4057 -1.3313  1.1037
 6719SOL    HW221057   1.404   4.283   2.468  3.0066 -0.5594  1.2678
 6720SOL     OW21058   2.635   6.173   4.614 -0.5480  0.0644  0.1485
 6720SOL    HW121059   2.673   6.171   4.521  2.1069  1.4281  1.0933
 6720SOL    HW221060   2.626   6.080   4.648 -1.6196 -0.4664 -1.4368
 6721SOL     OW21061   0.084   6.846   6.335  0.1799 -0.3139  0.2239
 6721SOL    HW121062   0.008   6.847   6.400  0.1176  0.2335  0.1470
 6721SOL    HW221063   0.067   6.914   6.263  0.5975 -0.4023  0.0407
 6722SOL     OW21064   4.846   2.598   1.087  0.3632  0.4945  0.3455
 6722SOL    HW121065   4.762   2.596   1.034 -0.2385 -1.6932  1.2645
 6722SOL    HW221066   4.853   2.684   1.137  0.3160  2.0646 -2.1830
 6723SOL     OW21067   2.234   6.366   5.306 -0.1101 -0.1518  0.1084
 6723SOL    HW121068   2.175   6.359   5.226  0.6900 -2.3339 -0.3679
 6723SOL    HW221069   2.257   6.274   5.339  0.2377  0.6720  2.3740
 6724SOL     OW21070   1.643   2.367   0.152 -0.1580  0.2266  0.1802
 6724SOL    HW121071   1.635   2.306   0.231 -0.2767 -0.6015 -0.4594
 6724SOL    HW221072   1.732   2.352   0.107  0.1385  1.0794  0.4614
 6725SOL     OW21073   6.839   2.236   0.460  0.7731 -0.3318 -0.2239
 6725SOL    HW121074   6.905   2.299   0.418  2.3997 -0.8237  1.4359
 6725SOL    HW221075   6.882   2.190   0.537 -1.4787 -0.9086  0.7683
 6726SOL     OW21076   2.007   4.053   4.484 -0.1680  0.9072 -0.4144
 6726SOL    HW121077   1.981   3.963   4.518  1.9013  1.0197  1.7224
 6726SOL    HW221078   1.952   4.123   4.529 -0.1053  0.8473 -0.2452
 6727SOL     OW21079   1.694   5.920   5.075  0.1426  0.3496  0.8772
 6727SOL    HW121080   1.598   5.926   5.104 -0.3672 -1.5799 -0.2286
 6727SOL    HW221081   1.701   5.943   4.978  0.8883  0.9422  1.0638
 6728SOL     OW21082   3.275   0.529   3.654 -0.5909 -0.1424  0.5531
 6728SOL    HW121083   3.344   0.478   3.604 -3.1406 -1.2803 -2.1023
 6728SOL    HW221084   3.289   0.627   3.639  0.5474 -0.3269  0.3018
 6729SOL     OW21085   5.618   2.154   1.216 -0.5791  0.2143  0.3541
 6729SOL    HW121086   5.561   2.221   1.264 -0.1757  0.4928  0.4461
 6729SOL    HW221087   5.714   2.180   1.224 -0.5422  0.5772 -1.0855
 6730SOL     OW21088   1.426   0.209   1.522 -0.5276 -0.4306  0.2703
 6730SOL    HW121089   1.340   0.168   1.553  0.2544 -0.9495  1.8911
 6730SOL    HW221090   1.491   0.209   1.598  0.3530  1.5113 -0.4418
 6731SOL     OW21091   2.530   0.108   2.353 -0.7004 -0.0731 -0.0490
 6731SOL    HW121092   2.430   0.109   2.356 -0.7161 -1.0052 -0.0705
 6731SOL    HW221093   2.564   0.199   2.376 -1.5617  0.4438 -0.7383
 6732SOL     OW21094   4.666   5.110   2.670 -0.4564 -0.3855  0.1275
 6732SOL    HW121095   4.632   5.119   2.763  1.4739  1.2129  0.7626
 6732SOL    HW221096   4.722   5.190   2.647 -0.3627 -1.0351 -2.1848
 6733SOL     OW21097   5.368   4.278   6.295 -0.1351 -0.9860  0.2033
 6733SOL    HW121098   5.306   4.269   6.373  0.8997 -0.9975  1.0357
 6733SOL    HW221099   5.455   4.315   6.325 -0.4204  1.0767 -1.3022
 6734SOL     OW21100   5.641   2.165   3.984  0.2583 -0.0975 -0.1584
 6734SOL    HW121101   5.674   2.228   4.055 -0.2028 -1.5157  1.3794
 6734SOL    HW221102   5.689   2.078   3.993 -0.9552 -0.8185 -0.5637
 6735SOL     OW21103   6.793   3.614   4.724  0.1876  0.3906  0.1165
 6735SOL    HW121104   6.784   3.516   4.737 -0.0893  0.7201  3.0720
 6735SOL    HW221105   6.854   3.632   4.646 -0.2819 -2.0670 -0.8938
 6736SOL     OW21106   2.699   2.269   0.153 -0.7293  0.4649 -0.0484
 6736SOL    HW121107   2.698   2.259   0.253  0.2761 -1.9448 -0.2082
 6736SOL    HW221108   2.751   2.193   0.113 -0.2291  1.9429 -2.3609
 6737SOL     OW21109   1.658   3.659   0.984  0.7159 -0.1428  0.3430
 6737SOL    HW121110   1.731   3.671   1.052  0.8403 -0.6444  0.2974
 6737SOL    HW221111   1.597   3.586   1.013  0.0025  0.5199  0.5697
 6738SOL     OW21112   2.608   0.146   3.557 -0.2920  1.0178  0.2387
 6738SOL    HW121113   2.674   0.208   3.515 -0.6923 -0.3586 -2.6740
 6738SOL    HW221114   2.516   0.183   3.545 -0.4903  0.1507 -1.0668
 6739SOL     OW21115   4.824   5.337   3.737 -0.0609 -0.3013  0.2077
 6739SOL    HW121116   4.911   5.309   3.696  0.6470  1.7596  0.1770
 6739SOL    HW221117   4.838   5.419   3.792 -2.4986  2.0199 -2.3251
 6740SOL     OW21118   5.428   5.886   4.915 -0.4688  1.1343  0.8091
 6740SOL    HW121119   5.402   5.823   4.988  2.2543 -1.1460  0.0112
 6740SOL    HW221120   5.373   5.867   4.833  1.3521 -1.5938  0.0438
 6741SOL     OW21121   3.865   1.915   5.241  0.0478  0.0042  0.4220
 6741SOL    HW121122   3.937   1.921   5.309  0.6601 -1.7057 -0.0272
 6741SOL    HW221123   3.902   1.876   5.156 -1.1136  0.3038 -0.2470
 6742SOL     OW21124   5.315   5.035   3.690 -0.4083 -0.0118 -0.5380
 6742SOL    HW121125   5.346   4.977   3.615  1.1001  0.6873 -0.4867
 6742SOL    HW221126   5.379   5.030   3.766 -0.3568  1.5050 -0.4362
 6743SOL     OW21127   4.219   5.701   6.038  0.5453  0.0984  0.0398
 6743SOL    HW121128   4.281   5.695   5.959 -0.8413 -1.0539 -0.9959
 6743SOL    HW221129   4.241   5.629   6.103  0.3680 -0.2411 -0.2745
 6744SOL     OW21130   6.604   5.174   4.923  0.3637  0.4386  0.4555
 6744SOL    HW121131   6.514   5.190   4.884  0.9590  1.7411 -0.4964
 6744SOL    HW221132   6.658   5.116   4.862  0.7758  1.1970  0.0799
 6745SOL     OW21133   1.696   6.117   4.276 -0.0075 -0.0793  0.6514
 6745SOL    HW121134   1.772   6.168   4.315  1.0486  0.0544 -1.4621
 6745SOL    HW221135   1.648   6.067   4.349  2.9603 -1.3272  1.8849
 6746SOL     OW21136   1.198   6.503   4.441  0.5811  0.1165 -0.0180
 6746SOL    HW121137   1.160   6.595   4.432 -0.6514 -0.4639 -1.0204
 6746SOL    HW221138   1.276   6.493   4.380  0.2502  0.2706 -0.4738
 6747SOL     OW21139   5.708   6.448   6.115 -0.1742 -0.0306  0.5058
 6747SOL    HW121140   5.672   6.385   6.047  0.7196  0.6942 -0.6626
 6747SOL    HW221141   5.698   6.542   6.082 -1.8043  0.5220  2.3577
 6748SOL     OW21142   3.531   1.091   2.782 -0.6602 -0.5190 -0.9423
 6748SOL    HW121143   3.434   1.114   2.792 -1.0606 -2.4339  0.2652
 6748SOL    HW221144   3.545   1.047   2.694 -0.8798 -0.1436 -1.1658
 6749SOL     OW21145   2.785   4.787   0.887  0.0390  0.3655  0.2556
 6749SOL    HW121146   2.782   4.694   0.848  2.9854  0.5743 -0.6895
 6749SOL    HW221147   2.798   4.781   0.986  1.8645 -0.3065  0.0090
 6750SOL     OW21148   4.569   2.563   5.321  0.2702 -0.3966 -0.3428
 6750SOL    HW121149   4.504   2.486   5.325 -0.2478  0.0469 -0.1233
 6750SOL    HW221150   4.593   2.580   5.226 -0.5561 -0.0580 -0.5002
 6751SOL     OW21151   4.243   6.716   3.424 -0.2780  0.0956  0.3477
 6751SOL    HW121152   4.179   6.683   3.494  0.2931 -0.4239  0.6331
 6751SOL    HW221153   4.334   6.725   3.465 -0.5049  2.6054  0.4557
 6752SOL     OW21154   2.380   0.473   4.055  0.6076  0.2725 -0.2280
 6752SOL    HW121155   2.314   0.546   4.035 -0.7493 -0.5976  0.7908
 6752SOL    HW221156   2.379   0.455   4.154 -0.6640 -2.4827 -0.6513
 6753SOL     OW21157   4.531   1.173   5.104  0.0679  0.0392  0.2636
 6753SOL    HW121158   4.551   1.100   5.038 -0.5000 -0.0834  0.2258
 6753SOL    HW221159   4.449   1.222   5.075  1.4117  1.8555 -0.6810
 6754SOL     OW21160   0.296   6.923   6.858 -0.2656  0.0755 -0.1789
 6754SOL    HW121161   0.324   6.875   6.775  2.6036 -0.0934  0.7629
 6754SOL    HW221162   0.303   7.022   6.843 -0.6360  0.0692 -0.4023
 6755SOL     OW21163   3.853   2.736   6.836 -0.2860 -0.1264  0.4719
 6755SOL    HW121164   3.813   2.767   6.750 -0.1269  0.8098  0.7205
 6755SOL    HW221165   3.784   2.737   6.908 -0.1545  0.1434  0.5943
 6756SOL     OW21166   3.510   5.725   5.166  0.4891  0.1839  0.8396
 6756SOL    HW121167   3.515   5.625   5.171 -0.9859 -0.0878 -1.6104
 6756SOL    HW221168   3.601   5.761   5.144  1.0403 -0.5763  1.7594
 6757SOL     OW21169   2.721   3.179   6.936  0.6888  0.1095 -0.2067
 6757SOL    HW121170   2.711   3.215   7.029  2.3017 -1.7239  0.7477
 6757SOL    HW221171   2.754   3.252   6.876  2.3305  0.6915  1.3113
 6758SOL     OW21172   6.065   3.868   1.810 -0.2081  0.6862  0.0650
 6758SOL    HW121173   6.120   3.854   1.892  1.7124 -2.0637 -1.5223
 6758SOL    HW221174   5.995   3.797   1.805  1.3682 -0.8332 -1.8563
 6759SOL     OW21175   1.724   5.752   3.197  0.0768 -0.0153  0.3223
 6759SOL    HW121176   1.770   5.834   3.232  0.8785  0.0177 -0.7379
 6759SOL    HW221177   1.793   5.686   3.166 -0.5788 -0.7250  0.3262
 6760SOL     OW21178   0.044   2.909   3.156  0.3756 -0.4133  0.6751
 6760SOL    HW121179  -0.031   2.879   3.097  2.2229  0.0969 -2.0764
 6760SOL    HW221180   0.011   2.983   3.215 -0.9933  0.7909 -1.4475
 6761SOL     OW21181   6.668   3.943   4.988  0.6001 -0.1220 -0.3772
 6761SOL    HW121182   6.594   3.958   4.922 -0.2155 -0.1465  0.5135
 6761SOL    HW221183   6.701   3.849   4.981  0.2074 -0.2548 -0.4261
 6762SOL     OW21184   0.242   2.170   6.207  0.1307  0.3562  0.2927
 6762SOL    HW121185   0.249   2.219   6.120 -0.6320 -0.7793 -0.4398
 6762SOL    HW221186   0.207   2.078   6.190 -0.8641  0.4054  1.9049
 6763SOL     OW21187   5.992   4.492   2.826 -0.0030 -0.0983 -0.7201
 6763SOL    HW121188   5.948   4.541   2.901 -1.4008 -1.2169 -0.7897
 6763SOL    HW221189   6.086   4.526   2.815  0.7121 -0.7749  2.3570
 6764SOL     OW21190   0.797   4.505   2.414  0.1824  0.2063 -0.3273
 6764SOL    HW121191   0.884   4.534   2.455  1.5301 -2.7032 -0.8370
 6764SOL    HW221192   0.723   4.564   2.446  1.8481  0.8640  2.6246
 6765SOL     OW21193   0.132   4.255   4.643 -0.4650  0.2699  0.0328
 6765SOL    HW121194   0.209   4.193   4.627 -0.8267  0.2846 -2.0737
 6765SOL    HW221195   0.148   4.341   4.594 -1.2832  0.7260  0.5491
 6766SOL     OW21196   4.463   6.715   4.895  0.2010  0.3135 -0.7979
 6766SOL    HW121197   4.435   6.810   4.879 -0.3458 -0.0356 -2.0137
 6766SOL    HW221198   4.383   6.658   4.911  0.4118 -0.2047 -1.5354
 6767SOL     OW21199   2.184   6.556   0.396  0.3478 -0.0333  0.5949
 6767SOL    HW121200   2.234   6.624   0.449 -0.5289  2.2907 -1.3580
 6767SOL    HW221201   2.087   6.558   0.423 -0.1267  1.2470 -1.0237
 6768SOL     OW21202   2.435   6.458   3.870  0.4190 -0.3384 -0.3636
 6768SOL    HW121203   2.377   6.422   3.797  0.9353 -1.1682 -0.3777
 6768SOL    HW221204   2.385   6.528   3.920  0.2885  0.7186 -1.9052
 6769SOL     OW21205   3.337   0.597   0.580 -0.3750  0.3532  0.0772
 6769SOL    HW121206   3.246   0.582   0.619 -0.8216  0.0272 -1.0662
 6769SOL    HW221207   3.406   0.558   0.642 -1.1999 -2.0950 -0.4443
 6770SOL     OW21208   0.563   6.960   4.217  0.3264  0.0855 -0.0378
 6770SOL    HW121209   0.468   6.982   4.198  0.1045 -1.1862 -0.5398
 6770SOL    HW221210   0.569   6.909   4.303  0.4536 -0.4966 -0.3862
 6771SOL     OW21211   5.725   0.925   3.919  0.5855 -0.3778  0.6501
 6771SOL    HW121212   5.689   0.835   3.893 -0.2181  0.1593 -0.1560
 6771SOL    HW221213   5.708   0.941   4.016 -3.1410  0.5964 -0.0164
 6772SOL     OW21214   4.815   2.787   3.005  0.1928 -0.0050  0.0375
 6772SOL    HW121215   4.842   2.694   2.985  1.0785  0.2115  0.1931
 6772SOL    HW221216   4.784   2.793   3.101  0.7899 -0.0014  0.2322
 6773SOL     OW21217   6.956   4.919   2.890 -0.2692 -0.6155 -0.6454
 6773SOL    HW121218   7.013   4.948   2.813 -0.0177  0.2748 -0.1353
 6773SOL    HW221219   7.014   4.902   2.970 -0.7100  0.2917 -0.1189
 6774SOL     OW21220   6.782   3.044   4.708 -0.2795 -0.1762 -0.2169
 6774SOL    HW121221   6.838   3.097   4.772  2.1037 -0.8982 -1.5774
 6774SOL    HW221222   6.731   2.974   4.759 -0.2125  0.7087  1.1146
 6775SOL     OW21223   1.523   1.575   2.437 -0.2516  0.6639 -0.0279
 6775SOL    HW121224   1.604   1.594   2.494 -0.8094  0.0748  0.9871
 6775SOL    HW221225   1.455   1.526   2.491 -1.0012  0.5054 -1.0863
 6776SOL     OW21226   6.176   3.455   5.162  0.3288 -0.3844  0.1785
 6776SOL    HW121227   6.235   3.386   5.202  1.0533 -0.8567 -1.6193
 6776SOL    HW221228   6.224   3.502   5.088 -0.6626  1.0386  0.3908
 6777SOL     OW21229   4.107   4.681   1.421 -0.3695 -0.2135 -0.5204
 6777SOL    HW121230   4.185   4.743   1.416 -1.9454  1.9572  0.0242
 6777SOL    HW221231   4.074   4.660   1.329 -1.1708  1.6460 -0.6954
 6778SOL     OW21232   5.360   5.431   1.775 -0.6307  0.1823  0.0614
 6778SOL    HW121233   5.322   5.350   1.819  1.8606 -1.1583 -0.0940
 6778SOL    HW221234   5.383   5.411   1.680  0.9070  0.7306  0.2858
 6779SOL     OW21235   5.223   5.653   6.584  0.0555  0.7778 -1.0993
 6779SOL    HW121236   5.228   5.568   6.533  0.7348  0.4414 -0.4893
 6779SOL    HW221237   5.132   5.693   6.574 -1.2579 -1.4547  0.8310
 6780SOL     OW21238   0.644   1.096   2.411  0.5957  0.7646  0.2454
 6780SOL    HW121239   0.683   1.009   2.439  0.9903  0.3435 -1.5172
 6780SOL    HW221240   0.684   1.170   2.466  2.5313  0.1443 -0.2646
 6781SOL     OW21241   0.599   1.126   4.844 -0.1537  0.0296 -0.2081
 6781SOL    HW121242   0.579   1.224   4.836  1.2979  0.2792 -1.2365
 6781SOL    HW221243   0.698   1.113   4.846 -0.2909 -1.5463 -1.8130
 6782SOL     OW21244   6.845   1.094   4.202  0.8714 -0.2593 -0.1168
 6782SOL    HW121245   6.877   1.046   4.121  2.2542  0.8713 -0.2924
 6782SOL    HW221246   6.901   1.069   4.280  1.9790  1.3879 -0.3236
 6783SOL     OW21247   5.848   1.178   4.536 -0.4057 -0.6631  0.2159
 6783SOL    HW121248   5.928   1.236   4.521  0.8910 -2.2645  0.5512
 6783SOL    HW221249   5.872   1.083   4.516 -2.6391 -1.0427 -1.0057
 6784SOL     OW21250   0.452   3.650   0.850  0.2307  0.6029 -0.0314
 6784SOL    HW121251   0.435   3.669   0.753  0.6083 -0.6578 -0.3618
 6784SOL    HW221252   0.546   3.675   0.873 -0.1098  1.7035  0.2432
 6785SOL     OW21253   6.800   6.284   4.243  0.0412 -0.0807 -0.6513
 6785SOL    HW121254   6.743   6.344   4.301  0.3936  0.0087 -0.3920
 6785SOL    HW221255   6.806   6.323   4.151 -0.3578 -0.1181 -0.6965
 6786SOL     OW21256   0.208   3.187   0.838 -0.7826 -0.4225  0.5311
 6786SOL    HW121257   0.109   3.189   0.824 -0.3717  0.5518 -3.9928
 6786SOL    HW221258   0.234   3.261   0.900 -2.7375  2.1904 -1.4774
 6787SOL     OW21259   2.129   2.333   6.888 -0.0337  0.0995  0.0162
 6787SOL    HW121260   2.167   2.268   6.954 -1.8628 -0.2007  0.8333
 6787SOL    HW221261   2.150   2.426   6.918  0.8908 -0.0559 -0.0974
 6788SOL     OW21262   0.561   3.853   0.072  0.1844  0.5156  0.3753
 6788SOL    HW121263   0.615   3.852  -0.012  0.7985 -0.6594  0.7631
 6788SOL    HW221264   0.573   3.767   0.121  2.2386  2.2014  3.1663
 6789SOL     OW21265   0.918   6.490   3.226  0.4114 -0.5961  0.2441
 6789SOL    HW121266   1.004   6.527   3.189 -0.2995  1.6240  0.6440
 6789SOL    HW221267   0.931   6.467   3.322 -0.0829  2.5449  1.1897
 6790SOL     OW21268   0.365   5.558   6.281 -0.5464  0.2083  0.0596
 6790SOL    HW121269   0.364   5.657   6.273  1.0027  0.4509  2.1794
 6790SOL    HW221270   0.449   5.528   6.325 -0.3037 -2.1943 -1.7890
 6791SOL     OW21271   4.052   1.753   0.921  0.1704  0.0713  0.0985
 6791SOL    HW121272   4.089   1.766   0.829 -2.1171 -0.7855 -1.0301
 6791SOL    HW221273   4.015   1.839   0.956  0.4729  0.2648 -0.0630
 6792SOL     OW21274   5.484   6.633   0.118  0.3993 -0.7095  0.9111
 6792SOL    HW121275   5.430   6.701   0.068 -0.2976 -2.8323 -1.4668
 6792SOL    HW221276   5.452   6.626   0.212 -0.8512  0.8039  0.6251
 6793SOL     OW21277   6.957   3.122   6.973  0.1358  0.1799  0.4836
 6793SOL    HW121278   6.990   3.102   6.880 -0.7514  4.2300 -0.9004
 6793SOL    HW221279   7.033   3.114   7.037  1.8389  1.2071 -1.2886
 6794SOL     OW21280   4.133   5.393   0.310 -0.4047 -0.2406 -0.4383
 6794SOL    HW121281   4.163   5.486   0.292 -2.8024  0.5591 -0.6662
 6794SOL    HW221282   4.097   5.386   0.403 -0.2235 -0.9682 -0.4101
 6795SOL     OW21283   4.160   1.109   5.590  0.2979 -0.2496 -0.7596
 6795SOL    HW121284   4.069   1.104   5.549 -0.3085 -1.7317  0.6385
 6795SOL    HW221285   4.152   1.114   5.689  1.7381 -0.4340 -0.6071
 6796SOL     OW21286   0.798   6.581   2.897 -0.2828 -0.0446  0.1665
 6796SOL    HW121287   0.897   6.594   2.911 -0.2222 -1.7922  1.8199
 6796SOL    HW221288   0.783   6.496   2.847 -0.9480  0.1987 -0.0504
 6797SOL     OW21289   5.985   2.557   0.458 -0.0306  0.3757  0.0164
 6797SOL    HW121290   6.026   2.498   0.388 -0.1974  0.8839 -0.5168
 6797SOL    HW221291   5.988   2.510   0.547  0.9924  0.0915 -0.1572
 6798SOL     OW21292   6.503   2.559   2.906 -0.4153  0.6269 -0.0605
 6798SOL    HW121293   6.432   2.492   2.926 -0.9684  1.2920  0.2484
 6798SOL    HW221294   6.511   2.624   2.982  1.1929  0.0083  0.3479
 6799SOL     OW21295   6.541   6.943   1.882  0.3380  0.4539 -0.2263
 6799SOL    HW121296   6.557   6.872   1.814  0.2886  0.7762 -0.5739
 6799SOL    HW221297   6.477   6.909   1.951  1.6964 -0.5033  0.6280
 6800SOL     OW21298   6.986   2.737   2.410  0.6194  0.3422  0.7164
 6800SOL    HW121299   7.072   2.687   2.419  1.5195  1.7335  0.3098
 6800SOL    HW221300   6.969   2.790   2.493  0.0565 -0.0480  0.8575
 6801SOL     OW21301   1.219   0.993   2.907 -0.2546 -0.3679  0.3499
 6801SOL    HW121302   1.284   0.978   2.833  0.4222  0.6299  0.7259
 6801SOL    HW221303   1.222   1.088   2.936 -2.0947 -0.2229  0.2024
 6802SOL     OW21304   4.023   6.683   0.585  0.8422 -0.2390  0.3288
 6802SOL    HW121305   4.058   6.666   0.493  1.1439 -1.3105  0.6359
 6802SOL    HW221306   3.958   6.612   0.610 -0.1987  0.7388  0.4720
 6803SOL     OW21307   3.169   2.231   6.225  0.3764  0.0940 -0.3644
 6803SOL    HW121308   3.081   2.249   6.268  0.9832 -0.5850  1.2479
 6803SOL    HW221309   3.158   2.228   6.126 -1.2476  0.8125 -0.2364
 6804SOL     OW21310   3.272   5.000   2.336 -0.2389  0.1250 -0.0132
 6804SOL    HW121311   3.351   4.954   2.377 -0.5831 -0.0149  0.5022
 6804SOL    HW221312   3.226   4.936   2.274  0.1019  0.2377 -0.3907
 6805SOL     OW21313   5.877   3.447   5.955  0.2867  0.1772 -0.2211
 6805SOL    HW121314   5.851   3.389   6.033  0.2293 -0.3878 -0.6506
 6805SOL    HW221315   5.900   3.389   5.877  1.0344  0.7188 -0.4158
 6806SOL     OW21316   4.570   0.458   4.326 -0.3727  0.5491 -0.4102
 6806SOL    HW121317   4.638   0.420   4.263  1.4560  2.8433  0.0720
 6806SOL    HW221318   4.526   0.383   4.376  1.0439 -1.0721 -1.4731
 6807SOL     OW21319   2.312   4.837   0.915 -0.5048 -0.1529 -0.3402
 6807SOL    HW121320   2.343   4.775   0.843 -1.1794 -1.4982  0.4903
 6807SOL    HW221321   2.238   4.895   0.880  1.0934  1.2766 -1.5544
 6808SOL     OW21322   0.655   2.936   6.966  0.7699 -0.0828  0.3975
 6808SOL    HW121323   0.700   2.961   7.051  1.7541 -3.3491  0.9419
 6808SOL    HW221324   0.703   2.859   6.923 -1.2631 -0.2883 -1.7368
 6809SOL     OW21325   0.370   3.389   6.475 -0.1674 -0.9302 -0.1535
 6809SOL    HW121326   0.273   3.397   6.495 -0.2820  0.1567 -0.9973
 6809SOL    HW221327   0.398   3.293   6.481 -1.7211 -1.5371 -1.7224
 6810SOL     OW21328   2.897   0.964   4.223  0.3356  0.1658  0.3629
 6810SOL    HW121329   2.912   1.062   4.241  0.2168  0.2616 -0.0462
 6810SOL    HW221330   2.881   0.917   4.309 -0.2124  0.6131  0.5125
 6811SOL     OW21331   4.177   4.371   0.283 -0.2295 -0.2002  0.2668
 6811SOL    HW121332   4.190   4.458   0.330 -0.7540 -0.0198  0.0780
 6811SOL    HW221333   4.243   4.304   0.319 -0.4411  0.0080  1.0584
 6812SOL     OW21334   3.161   3.550   5.108  0.5528 -0.6461  0.1249
 6812SOL    HW121335   3.146   3.464   5.059  1.0820 -1.6303  1.6271
 6812SOL    HW221336   3.258   3.561   5.127  0.7729  1.3346 -1.8402
 6813SOL     OW21337   6.991   2.678   3.369  0.5341  0.5970 -0.4518
 6813SOL    HW121338   7.023   2.654   3.278  0.0550  0.6942 -0.6443
 6813SOL    HW221339   7.005   2.776   3.385  0.5325  0.5975 -0.4544
 6814SOL     OW21340   4.576   2.261   1.419 -0.0658  0.4053  0.2896
 6814SOL    HW121341   4.595   2.322   1.496 -0.8106 -0.6858  1.3760
 6814SOL    HW221342   4.625   2.293   1.338  0.0867  2.0558  0.9912
 6815SOL     OW21343   3.430   6.925   0.772 -0.1382  0.5110  0.1878
 6815SOL    HW121344   3.436   7.006   0.714 -0.6784 -0.6169 -1.5176
 6815SOL    HW221345   3.516   6.874   0.768 -0.4299  0.0345 -0.2788
 6816SOL     OW21346   5.950   1.445   4.773 -0.4007  0.0421  0.0451
 6816SOL    HW121347   5.920   1.350   4.781  1.3807 -0.6050 -0.4418
 6816SOL    HW221348   5.999   1.458   4.687  1.2734  0.8071  1.0408
 6817SOL     OW21349   2.311   2.652   3.007  0.3385  0.2830  0.6012
 6817SOL    HW121350   2.309   2.731   2.946  0.9681  0.1644  0.4188
 6817SOL    HW221351   2.296   2.681   3.101  0.1933  0.5699  0.4908
 6818SOL     OW21352   2.378   5.739   1.568 -0.1750  0.5702 -0.6301
 6818SOL    HW121353   2.332   5.799   1.503 -0.9427  0.7612  0.0713
 6818SOL    HW221354   2.472   5.725   1.539 -1.0195 -1.0416 -2.9440
 6819SOL     OW21355   4.173   1.164   4.149 -0.0826 -0.0702  0.2307
 6819SOL    HW121356   4.225   1.246   4.123 -0.5877 -0.2672 -1.5171
 6819SOL    HW221357   4.076   1.178   4.130 -0.2639 -0.8484  0.5390
 6820SOL     OW21358   3.872   0.245   2.265  0.1364  0.4592  0.3315
 6820SOL    HW121359   3.815   0.280   2.192  0.7763  1.8949  0.4874
 6820SOL    HW221360   3.829   0.165   2.307 -0.8443  0.4105 -0.7504
 6821SOL     OW21361   3.862   1.400   5.977  0.4113 -0.0066 -0.0795
 6821SOL    HW121362   3.935   1.344   6.016 -0.6515 -0.8933  0.7253
 6821SOL    HW221363   3.870   1.494   6.011  1.9339  0.2447 -1.0646
 6822SOL     OW21364   4.709   2.854   5.609  0.2094 -0.3200  0.2574
 6822SOL    HW121365   4.732   2.946   5.640 -0.9636  0.6420 -1.5519
 6822SOL    HW221366   4.649   2.810   5.676 -2.5213  1.7977 -0.6143
 6823SOL     OW21367   3.116   4.272   5.286 -0.2480 -0.2820  0.4191
 6823SOL    HW121368   3.141   4.337   5.358  1.3425 -0.9772  0.5381
 6823SOL    HW221369   3.064   4.319   5.215  2.4239  1.5995 -0.4108
 6824SOL     OW21370   0.457   1.770   0.195 -0.5537 -0.4318  0.4736
 6824SOL    HW121371   0.456   1.673   0.218  0.7105 -0.5581  0.0378
 6824SOL    HW221372   0.535   1.815   0.239  0.1472 -0.0718 -1.0689
 6825SOL     OW21373   5.358   6.214   0.411 -0.2966  0.1561  0.4872
 6825SOL    HW121374   5.308   6.223   0.497 -1.6580  1.3429 -0.3890
 6825SOL    HW221375   5.302   6.248   0.336  1.3725  0.3783 -0.7178
 6826SOL     OW21376   0.412   4.520   2.595  0.0018  0.3676 -0.2988
 6826SOL    HW121377   0.371   4.514   2.686 -0.0188 -0.5679 -0.3541
 6826SOL    HW221378   0.379   4.444   2.539  2.6306 -1.1344  0.0082
 6827SOL     OW21379   3.143   3.564   6.515 -0.2741 -0.0057  0.0402
 6827SOL    HW121380   3.065   3.590   6.572 -0.6044 -0.6883 -0.0938
 6827SOL    HW221381   3.113   3.554   6.420  0.0241 -0.0518 -0.0501
 6828SOL     OW21382   3.051   2.156   2.964  0.3803 -0.4462  0.3838
 6828SOL    HW121383   3.145   2.187   2.983  0.6707 -0.5715 -0.7931
 6828SOL    HW221384   3.039   2.145   2.866 -1.0071 -0.0376  0.4903
 6829SOL     OW21385   5.104   6.105   6.166 -0.3768  0.2086 -0.2498
 6829SOL    HW121386   5.040   6.176   6.196 -0.1382  0.0848  0.5612
 6829SOL    HW221387   5.059   6.016   6.168  0.5365 -0.2912  2.9339
 6830SOL     OW21388   4.567   0.912   4.042  0.0997  0.2845  0.0702
 6830SOL    HW121389   4.637   0.918   3.971  0.3045 -0.6690  0.1730
 6830SOL    HW221390   4.586   0.833   4.100 -0.4282  0.6773  0.7992
 6831SOL     OW21391   1.463   0.758   0.142  0.5415 -0.1956 -0.0855
 6831SOL    HW121392   1.449   0.661   0.160  0.5827 -0.0909  0.5527
 6831SOL    HW221393   1.493   0.803   0.226  2.0647  0.0821 -0.7369
 6832SOL     OW21394   2.875   2.460   1.148  0.8564 -0.0460 -0.2653
 6832SOL    HW121395   2.777   2.459   1.128  0.9458 -1.6136 -0.7677
 6832SOL    HW221396   2.891   2.509   1.234 -0.4618 -0.4283  0.2202
 6833SOL     OW21397   2.633   4.395   6.610 -0.0242  0.4254 -0.0319
 6833SOL    HW121398   2.642   4.423   6.514  1.0296  0.0913 -0.0470
 6833SOL    HW221399   2.723   4.368   6.645 -0.5775 -0.5163  0.7251
 6834SOL     OW21400   5.440   5.696   0.847  0.1528  0.0609  0.0569
 6834SOL    HW121401   5.382   5.770   0.814 -1.1691 -0.3604  1.3422
 6834SOL    HW221402   5.510   5.675   0.778 -0.0337  1.8353 -0.7223
 6835SOL     OW21403   3.522   6.090   4.115  0.3147 -0.0294 -0.5617
 6835SOL    HW121404   3.608   6.110   4.163 -0.8870  0.8717  1.3786
 6835SOL    HW221405   3.476   6.175   4.092  0.2926 -0.4884 -2.3252
 6836SOL     OW21406   1.187   2.771   0.215 -0.1874 -0.1844  0.5138
 6836SOL    HW121407   1.122   2.710   0.170  0.0043 -1.4255  1.8480
 6836SOL    HW221408   1.137   2.833   0.276 -0.3227  0.5700 -0.3476
 6837SOL     OW21409   0.879   2.788   1.315 -0.2691  0.2370 -0.0489
 6837SOL    HW121410   0.812   2.726   1.355 -0.0854  0.3350  0.4289
 6837SOL    HW221411   0.915   2.848   1.387 -0.1088  0.5850 -0.4155
 6838SOL     OW21412   2.719   1.127   0.896  0.2752 -0.6166 -0.3585
 6838SOL    HW121413   2.690   1.051   0.837 -1.6691  0.7683 -1.3060
 6838SOL    HW221414   2.711   1.213   0.845  0.4372  0.4319  1.3196
 6839SOL     OW21415   6.268   0.221   0.925  0.2540  0.1833  0.1151
 6839SOL    HW121416   6.271   0.148   0.994 -1.5775 -1.5896 -1.5492
 6839SOL    HW221417   6.360   0.234   0.887  0.7153 -0.9085  0.7977
 6840SOL     OW21418   3.680   6.950   5.607  0.0483  0.2856  0.3494
 6840SOL    HW121419   3.769   6.924   5.571  0.6198  2.6168 -0.1004
 6840SOL    HW221420   3.617   6.967   5.531  0.2125  1.7857  0.5200
 6841SOL     OW21421   4.744   6.135   0.406 -0.2995 -0.0964 -0.0985
 6841SOL    HW121422   4.682   6.062   0.436 -0.0096 -0.2818  0.0547
 6841SOL    HW221423   4.753   6.203   0.478  2.8682 -2.1020  1.6475
 6842SOL     OW21424   3.285   4.237   0.617 -0.0085 -0.0169 -0.0623
 6842SOL    HW121425   3.204   4.255   0.562  1.3259  1.6680 -1.5995
 6842SOL    HW221426   3.328   4.323   0.643  1.6481 -0.8617  0.1547
 6843SOL     OW21427   0.169   5.873   3.025 -0.1994  0.0500 -0.0232
 6843SOL    HW121428   0.267   5.855   3.014  0.5121  2.3161  1.7601
 6843SOL    HW221429   0.150   5.967   2.994 -1.0725  0.9139  2.8784
 6844SOL     OW21430   5.132   1.756   3.173  0.2562  0.0310 -0.0880
 6844SOL    HW121431   5.173   1.687   3.113 -0.1604 -0.0232 -0.3152
 6844SOL    HW221432   5.143   1.847   3.132 -0.8533 -0.0979 -0.7287
 6845SOL     OW21433   5.125   4.215   2.427 -0.0993  0.3886 -0.2476
 6845SOL    HW121434   5.067   4.296   2.413 -0.5820 -0.0481 -0.8191
 6845SOL    HW221435   5.174   4.194   2.343 -0.0927 -0.0070 -0.1450
 6846SOL     OW21436   4.166   1.701   5.963  0.2115 -0.1633  0.4598
 6846SOL    HW121437   4.217   1.627   6.007 -0.5827 -1.0796 -0.1183
 6846SOL    HW221438   4.122   1.666   5.880 -1.3187  0.5989  0.9220
 6847SOL     OW21439   0.107   4.817   6.473  0.2742  0.0323 -0.0131
 6847SOL    HW121440   0.129   4.893   6.411 -1.0075  0.0158 -0.5317
 6847SOL    HW221441   0.134   4.731   6.431 -0.2345  0.0523 -0.4053
 6848SOL     OW21442   6.432   6.588   4.575 -0.7312 -0.4074 -0.0578
 6848SOL    HW121443   6.453   6.614   4.481  1.3120 -2.4056 -0.2526
 6848SOL    HW221444   6.405   6.491   4.577  0.0516 -0.6173  1.4849
 6849SOL     OW21445   5.177   5.798   4.678 -0.1101 -0.1993  0.3439
 6849SOL    HW121446   5.086   5.761   4.659  0.7267 -0.9045 -2.7587
 6849SOL    HW221447   5.168   5.895   4.702 -1.7213 -0.5274  1.2572
 6850SOL     OW21448   5.794   5.184   2.562 -0.1143  0.4969 -0.7080
 6850SOL    HW121449   5.745   5.103   2.593  1.0296 -0.6039 -1.6638
 6850SOL    HW221450   5.773   5.261   2.623 -2.7523  0.0323 -0.9314
 6851SOL     OW21451   1.183   3.663   3.250 -0.2344 -0.2985 -0.1909
 6851SOL    HW121452   1.151   3.571   3.227  1.4096 -0.7778 -0.7227
 6851SOL    HW221453   1.248   3.658   3.326  0.9612  0.2211 -1.1413
 6852SOL     OW21454   2.050   3.272   0.380  0.6427 -0.6756 -0.0060
 6852SOL    HW121455   1.952   3.278   0.398  0.4125 -0.6912 -1.1897
 6852SOL    HW221456   2.100   3.302   0.461 -0.3508  0.5824  0.1833
 6853SOL     OW21457   3.830   5.280   0.231 -0.5454 -0.3432 -0.3595
 6853SOL    HW121458   3.836   5.329   0.318  0.1825 -1.2088  0.0926
 6853SOL    HW221459   3.782   5.338   0.163 -1.7332  0.0738  0.7859
 6854SOL     OW21460   4.792   0.164   5.614 -0.2763 -0.0106 -0.7046
 6854SOL    HW121461   4.772   0.112   5.697  2.7543 -0.5803 -0.2187
 6854SOL    HW221462   4.786   0.103   5.535  0.3777 -0.4157 -0.4571
 6855SOL     OW21463   3.913   6.696   5.738 -0.2643  0.0054  0.2850
 6855SOL    HW121464   3.844   6.708   5.809 -0.0750  1.8648  0.1886
 6855SOL    HW221465   3.896   6.610   5.690 -0.8983 -0.8708  1.9956
 6856SOL     OW21466   6.104   2.619   2.801  0.0628 -0.0120  0.8199
 6856SOL    HW121467   6.020   2.643   2.849 -0.8920 -1.2412 -0.1460
 6856SOL    HW221468   6.092   2.531   2.754  1.2103  0.7066 -0.9500
 6857SOL     OW21469   2.287   2.023   1.357  0.2251 -0.0752  0.3251
 6857SOL    HW121470   2.192   2.053   1.354  0.2027 -0.1946 -0.3229
 6857SOL    HW221471   2.323   2.034   1.450  0.5438  2.9520 -0.0436
 6858SOL     OW21472   4.003   3.078   1.841  0.1821 -0.2474  0.1925
 6858SOL    HW121473   4.023   3.076   1.939 -0.4484 -1.0426  0.3126
 6858SOL    HW221474   3.907   3.055   1.825  0.2964 -0.2179 -0.6209
 6859SOL     OW21475   2.311   1.908   6.882 -0.3702 -0.1218 -0.2928
 6859SOL    HW121476   2.262   1.821   6.883  0.3480 -0.5288  0.6974
 6859SOL    HW221477   2.405   1.895   6.915 -0.3582  1.0913  0.2208
 6860SOL     OW21478   5.885   5.460   6.409  0.3925  0.7439  0.2873
 6860SOL    HW121479   5.934   5.378   6.441  0.3167  0.1432 -1.0594
 6860SOL    HW221480   5.805   5.475   6.467 -0.0261 -0.6015  0.1050
 6861SOL     OW21481   4.125   3.063   6.701 -0.3550  0.4567  0.2264
 6861SOL    HW121482   4.029   3.088   6.713 -0.3875 -0.5490  2.6343
 6861SOL    HW221483   4.142   2.974   6.744  1.1721 -0.5462 -2.2476
 6862SOL     OW21484   6.331   6.212   4.944 -0.0223  0.6297 -0.0389
 6862SOL    HW121485   6.260   6.160   4.991  0.1018  0.2686 -0.2526
 6862SOL    HW221486   6.410   6.153   4.926  0.0265  0.8281 -0.4873
 6863SOL     OW21487   4.780   0.192   6.151 -0.1855  0.0068 -0.0276
 6863SOL    HW121488   4.823   0.184   6.241  1.4000  0.7611 -0.6799
 6863SOL    HW221489   4.734   0.106   6.129 -1.1368  0.0148  1.7350
 6864SOL     OW21490   2.145   3.874   4.766 -0.8516  0.1076  0.3840
 6864SOL    HW121491   2.154   3.776   4.749 -1.7455  0.2770 -1.3035
 6864SOL    HW221492   2.192   3.898   4.850 -2.0978 -2.0646  1.7852
 6865SOL     OW21493   1.038   5.668   5.192 -0.3861  0.6306 -0.2706
 6865SOL    HW121494   1.025   5.697   5.286  1.4570  0.8324 -0.0291
 6865SOL    HW221495   1.080   5.743   5.139  0.7181 -0.2123 -0.6418
 6866SOL     OW21496   5.080   6.838   2.767 -0.5192  0.2216  0.0098
 6866SOL    HW121497   4.992   6.848   2.719 -1.1360 -1.1916  0.7715
 6866SOL    HW221498   5.105   6.742   2.769  0.1093  0.3985  1.4325
 6867SOL     OW21499   6.915   4.307   3.054 -0.2140 -0.1269 -0.1585
 6867SOL    HW121500   7.004   4.308   3.099 -0.4819 -0.2610  0.3927
 6867SOL    HW221501   6.894   4.214   3.023 -0.4938 -0.2565  0.4046
 6868SOL     OW21502   2.098   4.017   5.807 -0.1687  0.7202  0.3497
 6868SOL    HW121503   2.130   4.027   5.713 -2.5757  1.8435 -0.4362
 6868SOL    HW221504   2.012   3.966   5.807 -1.0260  2.0763  1.7397
 6869SOL     OW21505   3.506   0.250   1.104 -0.5478  0.0347  0.2879
 6869SOL    HW121506   3.562   0.239   1.187 -0.2709 -0.9503 -0.0164
 6869SOL    HW221507   3.565   0.255   1.024 -0.8679 -0.4461  0.0156
 6870SOL     OW21508   6.715   5.336   0.834 -0.9448  0.4048 -0.3505
 6870SOL    HW121509   6.790   5.400   0.819 -1.0198  1.1417  1.9635
 6870SOL    HW221510   6.751   5.251   0.872 -1.2273  0.6372  0.4542
 6871SOL     OW21511   5.824   3.887   3.307 -0.5660 -0.1498 -0.0331
 6871SOL    HW121512   5.801   3.892   3.210 -0.3061  0.0867 -0.0820
 6871SOL    HW221513   5.784   3.965   3.355 -1.4282 -0.7200  0.2032
 6872SOL     OW21514   6.882   3.597   1.392 -0.4240  0.2350  0.1279
 6872SOL    HW121515   6.808   3.545   1.350  1.1744 -1.7669 -0.3744
 6872SOL    HW221516   6.890   3.686   1.347  0.8298 -1.5438 -3.6581
 6873SOL     OW21517   5.333   3.375   4.254  0.1773  0.1130  0.1357
 6873SOL    HW121518   5.289   3.338   4.337  2.0425 -1.3682  0.5306
 6873SOL    HW221519   5.278   3.351   4.174  0.2354 -1.7393  0.6026
 6874SOL     OW21520   5.629   5.277   3.466 -0.2170  0.3536  0.4960
 6874SOL    HW121521   5.709   5.335   3.446  0.0330  0.5676  2.0240
 6874SOL    HW221522   5.627   5.255   3.563 -1.0389 -1.1589  0.1697
 6875SOL     OW21523   2.074   3.603   3.703 -0.5094 -0.3958  0.3230
 6875SOL    HW121524   2.100   3.530   3.640 -0.0389 -0.2052  0.2931
 6875SOL    HW221525   2.065   3.566   3.796  0.4456 -0.3499  0.4354
 6876SOL     OW21526   4.068   6.918   2.392 -0.3174 -0.1271 -0.1994
 6876SOL    HW121527   3.997   6.856   2.429  1.0691 -3.3971 -2.5606
 6876SOL    HW221528   4.126   6.949   2.467 -2.8691  0.9505  1.5048
 6877SOL     OW21529   2.569   4.271   0.599  0.3905 -0.0387  0.1462
 6877SOL    HW121530   2.476   4.276   0.636  0.3244  2.2349 -0.2026
 6877SOL    HW221531   2.631   4.241   0.671 -0.3706 -0.0234  0.8324
 6878SOL     OW21532   4.626   5.889   4.021  0.8377 -0.4892  0.0887
 6878SOL    HW121533   4.529   5.895   3.996  0.4440  1.4733  1.7826
 6878SOL    HW221534   4.638   5.821   4.094  0.3979  0.4510  1.0735
 6879SOL     OW21535   0.806   3.965   6.231 -0.5477  0.0112 -0.1496
 6879SOL    HW121536   0.748   3.914   6.293  0.2419 -1.2788 -0.4239
 6879SOL    HW221537   0.895   3.981   6.274 -1.0304  1.8789  0.2335
 6880SOL     OW21538   2.230   0.385   5.051  0.5024  0.1316  0.0021
 6880SOL    HW121539   2.144   0.339   5.073 -0.1642  2.0930  1.7529
 6880SOL    HW221540   2.304   0.344   5.104  0.7004 -1.4820 -1.4215
 6881SOL     OW21541   3.592   3.212   6.858 -0.0780 -0.2164  0.0397
 6881SOL    HW121542   3.691   3.205   6.862  0.0694 -0.6577 -2.5519
 6881SOL    HW221543   3.552   3.121   6.847 -0.7199  0.0230  0.3177
 6882SOL     OW21544   3.095   1.262   0.738  0.6513  0.3948  1.0792
 6882SOL    HW121545   3.031   1.310   0.678  0.7618 -1.1676 -0.3507
 6882SOL    HW221546   3.189   1.283   0.712  0.7360 -2.0741 -0.9270
 6883SOL     OW21547   5.076   1.986   0.685 -1.0468 -0.0777 -0.9451
 6883SOL    HW121548   5.016   1.961   0.609  0.3846 -2.6928 -1.3587
 6883SOL    HW221549   5.172   1.976   0.656 -0.3932  2.2135  0.2215
 6884SOL     OW21550   6.776   4.193   1.991 -0.5131 -0.4265  0.0971
 6884SOL    HW121551   6.807   4.112   2.042  0.2518 -0.0181  0.2911
 6884SOL    HW221552   6.799   4.182   1.894  2.1889  0.7496  0.5184
 6885SOL     OW21553   5.255   5.162   3.100 -0.6349  0.1839 -0.1807
 6885SOL    HW121554   5.264   5.260   3.119  0.4117 -0.0555  0.6756
 6885SOL    HW221555   5.327   5.133   3.037  0.1911 -0.3620  0.9743
 6886SOL     OW21556   6.421   0.794   3.720  0.0062 -0.1626  0.2447
 6886SOL    HW121557   6.492   0.790   3.649  3.1534  1.9276  2.9934
 6886SOL    HW221558   6.423   0.709   3.773  1.0401  0.1732  0.7684
 6887SOL     OW21559   5.172   6.151   1.005  0.1894  0.1413 -0.6538
 6887SOL    HW121560   5.202   6.246   0.990  0.6837  0.3987  1.6369
 6887SOL    HW221561   5.106   6.148   1.080 -0.3266 -1.2836 -1.1281
 6888SOL     OW21562   4.759   4.633   6.634 -0.5281  0.0854  0.5060
 6888SOL    HW121563   4.791   4.640   6.729 -0.9492 -0.1591  0.6702
 6888SOL    HW221564   4.692   4.704   6.616  0.7089  1.1300 -0.0952
 6889SOL     OW21565   1.280   4.057   5.396  0.1076 -0.5073  0.4185
 6889SOL    HW121566   1.219   3.994   5.443 -0.6136  0.0843  0.2880
 6889SOL    HW221567   1.227   4.124   5.345  0.7868  1.5061  2.2060
 6890SOL     OW21568   3.864   5.160   1.039  0.4560  0.1410 -0.1437
 6890SOL    HW121569   3.856   5.246   1.090  0.4437  0.3659 -0.5147
 6890SOL    HW221570   3.909   5.092   1.095  0.1053  0.2691  0.3022
 6891SOL     OW21571   1.783   3.528   2.554  0.3758  0.2390 -0.3924
 6891SOL    HW121572   1.713   3.515   2.624 -0.6949  0.4281 -1.3936
 6891SOL    HW221573   1.874   3.523   2.596 -0.2420  0.8500  1.0658
 6892SOL     OW21574   3.941   1.378   4.814  0.0232 -0.5758  0.1361
 6892SOL    HW121575   4.001   1.457   4.826  1.9753 -2.1255  1.4283
 6892SOL    HW221576   3.978   1.319   4.743 -1.6198 -0.2029 -1.0866
 6893SOL     OW21577   3.140   0.390   1.364 -0.1704 -0.3591 -0.1619
 6893SOL    HW121578   3.108   0.296   1.374 -1.3379 -0.1967 -1.9128
 6893SOL    HW221579   3.098   0.431   1.283  0.8815  1.4441  0.1512
 6894SOL     OW21580   4.404   5.348   1.657  0.0039  0.1465  0.1662
 6894SOL    HW121581   4.470   5.416   1.625 -1.0797  0.7913 -0.7863
 6894SOL    HW221582   4.335   5.333   1.586  0.4642 -2.3218  0.1676
 6895SOL     OW21583   2.313   4.424   6.959 -0.1653 -0.1831  0.2290
 6895SOL    HW121584   2.274   4.333   6.972  0.3126 -0.5490 -0.8455
 6895SOL    HW221585   2.394   4.419   6.900 -1.1075  1.1346 -1.2770
 6896SOL     OW21586   4.511   1.491   4.177 -0.0844  0.3439 -0.1637
 6896SOL    HW121587   4.593   1.538   4.143 -1.9433  3.6539 -0.5214
 6896SOL    HW221588   4.486   1.417   4.114  0.8849  1.3333 -1.7728
 6897SOL     OW21589   4.042   5.095   4.416 -0.3428 -0.1115 -0.5282
 6897SOL    HW121590   4.050   5.038   4.498 -1.5725  0.2263 -0.1437
 6897SOL    HW221591   4.095   5.055   4.342  0.1587 -0.8494  0.2095
 6898SOL     OW21592   5.747   0.692   1.214  0.6647 -0.2308 -0.1621
 6898SOL    HW121593   5.678   0.620   1.229  0.3449  0.6029  3.3058
 6898SOL    HW221594   5.705   0.782   1.230  1.4937  0.7143 -2.7221
 6899SOL     OW21595   4.271   6.275   0.692  0.0292 -0.4521  0.0256
 6899SOL    HW121596   4.357   6.278   0.642 -0.5944 -0.4690 -1.0695
 6899SOL    HW221597   4.246   6.368   0.720  0.3975 -0.4484  0.3524
 6900SOL     OW21598   1.611   5.141   5.601 -0.1887 -0.7519 -0.1801
 6900SOL    HW121599   1.673   5.180   5.668  0.4566 -0.3513 -1.0005
 6900SOL    HW221600   1.556   5.214   5.559 -0.0807 -0.9077 -0.6000
 6901SOL     OW21601   6.169   6.115   6.692  0.4983 -0.3926 -0.4573
 6901SOL    HW121602   6.197   6.019   6.694 -1.5976 -1.0519  0.1246
 6901SOL    HW221603   6.095   6.127   6.626  1.5975  1.1306 -1.4902
 6902SOL     OW21604   6.066   1.343   1.157  0.1068 -0.3597 -0.6569
 6902SOL    HW121605   6.082   1.246   1.178 -0.9324 -0.0661  1.9177
 6902SOL    HW221606   5.970   1.355   1.131 -1.0786  0.4134  3.3281
 6903SOL     OW21607   3.752   6.185   5.778 -0.3913  0.6084 -0.7291
 6903SOL    HW121608   3.706   6.228   5.856  0.9174 -0.1698  0.5094
 6903SOL    HW221609   3.696   6.109   5.744  0.9122 -1.9159  2.3123
 6904SOL     OW21610   0.392   0.976   5.760  0.0732  0.5245 -0.5228
 6904SOL    HW121611   0.338   0.983   5.676  0.1119 -0.2706 -0.6176
 6904SOL    HW221612   0.332   0.986   5.840  0.1251  1.9456 -0.6241
 6905SOL     OW21613   6.009   5.237   4.659 -0.5022  0.0430  0.4177
 6905SOL    HW121614   5.957   5.188   4.729  0.1642  0.6815  1.3765
 6905SOL    HW221615   5.968   5.327   4.644  0.2013  0.4762  1.0444
 6906SOL     OW21616   3.133   2.032   3.421 -0.1356  0.5949  0.1395
 6906SOL    HW121617   3.179   1.981   3.349  0.8277 -0.3972  1.3984
 6906SOL    HW221618   3.178   2.013   3.509 -0.8381  2.2877  0.9107
 6907SOL     OW21619   5.661   2.134   1.675  0.1359 -0.0580  0.0271
 6907SOL    HW121620   5.626   2.047   1.639  1.8703 -0.8670  0.1774
 6907SOL    HW221621   5.691   2.192   1.600 -1.1266  0.4894 -0.0804
 6908SOL     OW21622   1.165   4.987   0.431  0.3929 -0.1116 -0.3262
 6908SOL    HW121623   1.260   4.995   0.401 -0.2594  0.5382 -2.3150
 6908SOL    HW221624   1.125   4.903   0.394  0.2056 -0.4566  0.6154
 6909SOL     OW21625   3.801   3.284   6.468 -0.2347 -0.1971  0.4142
 6909SOL    HW121626   3.877   3.274   6.404  1.6114 -0.6721  2.5619
 6909SOL    HW221627   3.800   3.378   6.504 -1.4073  0.1380 -0.4564
 6910SOL     OW21628   6.096   3.858   3.584  0.1065  0.4110  0.2665
 6910SOL    HW121629   6.081   3.920   3.661 -1.3611  1.8294 -1.0983
 6910SOL    HW221630   6.016   3.799   3.573 -0.1505  0.9368 -0.7883
 6911SOL     OW21631   5.563   6.950   5.744  0.1369  0.1411  0.2971
 6911SOL    HW121632   5.558   6.851   5.738  0.5065  0.0352  1.5219
 6911SOL    HW221633   5.473   6.989   5.723  0.2666 -0.3502 -1.3575
 6912SOL     OW21634   2.355   4.398   6.639  0.0657  0.0180 -0.3647
 6912SOL    HW121635   2.319   4.309   6.667 -0.2730  0.0844 -0.5867
 6912SOL    HW221636   2.455   4.395   6.638  0.2027  0.4976  2.5251
 6913SOL     OW21637   5.524   6.174   2.577  0.1623 -0.3281  0.2277
 6913SOL    HW121638   5.574   6.100   2.622  2.4786 -0.0394 -1.6294
 6913SOL    HW221639   5.507   6.150   2.482 -2.6461 -0.0286  0.5646
 6914SOL     OW21640   6.056   4.838   3.419 -0.5131 -0.1987 -0.4186
 6914SOL    HW121641   6.151   4.868   3.409 -0.8455  1.3381  0.6838
 6914SOL    HW221642   6.051   4.761   3.483 -0.0680  0.2226  0.1349
 6915SOL     OW21643   5.513   3.963   0.102 -0.4444  0.0808  0.1240
 6915SOL    HW121644   5.505   4.062   0.092  0.7838  0.1395 -0.5383
 6915SOL    HW221645   5.592   3.942   0.160 -0.9199 -0.5091  0.5672
 6916SOL     OW21646   4.652   2.207   0.037  0.8334 -0.4097 -0.1882
 6916SOL    HW121647   4.653   2.222   0.136  0.2267 -1.3507 -0.0214
 6916SOL    HW221648   4.573   2.254  -0.002  1.2768  0.2614 -0.2806
 6917SOL     OW21649   3.501   1.147   1.683  0.4117  0.6184  0.6093
 6917SOL    HW121650   3.597   1.132   1.707  0.3927  0.2289  0.4412
 6917SOL    HW221651   3.450   1.174   1.765  0.9562  2.3144  0.4370
 6918SOL     OW21652   1.104   3.289   2.848 -0.5042 -0.3841  0.1592
 6918SOL    HW121653   1.056   3.223   2.907  0.9073 -0.3622  1.3907
 6918SOL    HW221654   1.104   3.255   2.754 -3.1535 -0.2333  0.0355
 6919SOL     OW21655   6.355   5.111   4.791  0.4446 -1.1145  0.3366
 6919SOL    HW121656   6.328   5.187   4.732 -1.1441 -1.7907  0.1496
 6919SOL    HW221657   6.371   5.029   4.736  0.2429 -1.4136  0.7174
 6920SOL     OW21658   4.685   5.810   6.624  0.5214 -0.1107  0.3753
 6920SOL    HW121659   4.682   5.829   6.722  1.1164 -0.2851  0.4316
 6920SOL    HW221660   4.697   5.712   6.609  0.8388 -0.0370  0.1321
 6921SOL     OW21661   4.765   5.860   3.776  0.2051 -0.2808  0.4015
 6921SOL    HW121662   4.692   5.871   3.844  0.1885  1.1297  0.1921
 6921SOL    HW221663   4.839   5.924   3.797 -0.3351  1.0699 -1.5838
 6922SOL     OW21664   2.273   5.804   2.595  0.3149 -0.0690 -0.6777
 6922SOL    HW121665   2.217   5.860   2.655  1.7637  0.3190  0.3658
 6922SOL    HW221666   2.238   5.710   2.594 -1.0735  0.4310 -1.0464
 6923SOL     OW21667   4.948   5.530   2.782  0.3041  0.7184  0.1457
 6923SOL    HW121668   4.891   5.539   2.700 -1.3496  0.1385  1.1776
 6923SOL    HW221669   4.967   5.621   2.819 -1.3383  0.8705  0.6726
 6924SOL     OW21670   0.823   4.636   6.091  0.9730 -0.4605 -0.2214
 6924SOL    HW121671   0.781   4.727   6.087  1.3963 -0.2803 -0.8171
 6924SOL    HW221672   0.758   4.570   6.128  0.0322 -0.2604 -1.4645
 6925SOL     OW21673   5.010   5.284   5.115 -0.2352  0.0257 -0.8417
 6925SOL    HW121674   5.081   5.327   5.059 -1.2029  0.9042 -1.4230
 6925SOL    HW221675   5.042   5.194   5.146  0.1740 -0.6626 -3.1107
 6926SOL     OW21676   3.748   1.237   2.938  0.7773 -0.2187  0.4576
 6926SOL    HW121677   3.684   1.289   2.995  2.5905  0.9948  1.4945
 6926SOL    HW221678   3.698   1.172   2.882 -1.3804  0.9587  0.9245
 6927SOL     OW21679   2.559   3.841   5.359  0.4997 -0.0383 -0.7204
 6927SOL    HW121680   2.510   3.888   5.285  1.5926 -1.1599 -2.2510
 6927SOL    HW221681   2.528   3.746   5.363 -0.9126  0.4441  1.6023
 6928SOL     OW21682   5.401   5.204   0.551  0.5180 -0.2282 -0.4675
 6928SOL    HW121683   5.413   5.295   0.590  0.5657  0.5607 -2.2395
 6928SOL    HW221684   5.489   5.156   0.552  0.4675 -0.3204  0.5900
 6929SOL     OW21685   5.529   7.003   2.520 -1.0005  0.1526 -0.4886
 6929SOL    HW121686   5.459   7.070   2.493  0.6172  1.6158 -1.2691
 6929SOL    HW221687   5.588   6.983   2.442 -0.5350 -1.0365  0.1498
 6930SOL     OW21688   1.119   0.166   2.206 -0.4330  0.0179  0.0955
 6930SOL    HW121689   1.159   0.248   2.164 -0.2924 -0.0429  0.1114
 6930SOL    HW221690   1.078   0.191   2.293 -0.7888  0.1586 -0.1114
 6931SOL     OW21691   2.014   0.640   3.094 -0.4696 -0.2563 -0.4287
 6931SOL    HW121692   2.033   0.585   3.175  2.8107  0.2690 -0.7090
 6931SOL    HW221693   1.990   0.733   3.121  0.0376 -0.2344 -0.0381
 6932SOL     OW21694   2.803   6.535   0.292 -0.1504 -0.4826 -0.0026
 6932SOL    HW121695   2.799   6.443   0.252  1.2268 -0.1299 -1.0135
 6932SOL    HW221696   2.744   6.596   0.240  1.4965 -0.0670 -1.4963
 6933SOL     OW21697   4.097   6.647   5.410 -0.2317  0.0127  0.2711
 6933SOL    HW121698   4.020   6.711   5.405 -0.1520  0.1560  0.8406
 6933SOL    HW221699   4.063   6.554   5.396 -0.5196  0.0705  0.5767
 6934SOL     OW21700   2.111   3.049   4.926 -0.0331  0.7262 -0.2999
 6934SOL    HW121701   2.040   3.096   4.979 -0.9088 -1.4305  0.5651
 6934SOL    HW221702   2.184   3.020   4.988 -0.5557 -0.9014 -0.4110
 6935SOL     OW21703   5.473   5.362   4.404  0.1296  0.0826  0.0275
 6935SOL    HW121704   5.445   5.449   4.365  0.1183 -0.0399 -0.2365
 6935SOL    HW221705   5.408   5.335   4.475 -0.4072 -0.1796 -0.5546
 6936SOL     OW21706   5.155   1.323   3.435 -0.2942  1.0666  0.0026
 6936SOL    HW121707   5.236   1.372   3.467 -0.5751  0.6594  1.4078
 6936SOL    HW221708   5.160   1.311   3.336  0.8193  2.0173 -0.0735
 6937SOL     OW21709   6.160   6.115   0.816  0.0444  0.4749  0.0296
 6937SOL    HW121710   6.185   6.151   0.906  1.8154 -0.0184 -0.2441
 6937SOL    HW221711   6.204   6.169   0.744 -1.6184  1.0729 -0.5870
 6938SOL     OW21712   5.597   2.723   4.658  0.0903  0.1616 -1.1543
 6938SOL    HW121713   5.694   2.749   4.655 -0.6480  3.6193 -0.1894
 6938SOL    HW221714   5.589   2.629   4.691  3.1090 -0.8062 -2.7336
 6939SOL     OW21715   0.728   6.510   3.536  0.2756 -0.1675  0.2218
 6939SOL    HW121716   0.826   6.489   3.538  0.6183  1.3971  0.9175
 6939SOL    HW221717   0.702   6.556   3.621 -0.9017  0.1576 -0.2963
 6940SOL     OW21718   4.570   1.197   0.593 -0.6301  0.0854 -0.1771
 6940SOL    HW121719   4.480   1.181   0.632 -1.0146  3.4945  0.6438
 6940SOL    HW221720   4.637   1.137   0.637 -1.9636 -0.1995  1.5552
 6941SOL     OW21721   2.758   3.390   0.687 -0.0056 -0.2458  0.1435
 6941SOL    HW121722   2.681   3.453   0.674 -2.1287 -3.0116 -1.9226
 6941SOL    HW221723   2.840   3.429   0.647 -1.9370  0.0838 -4.0643
 6942SOL     OW21724   6.379   1.609   2.879  0.2425  0.1296 -0.0203
 6942SOL    HW121725   6.315   1.555   2.934  0.3515  1.9501  2.0446
 6942SOL    HW221726   6.338   1.698   2.858  1.5141  0.7534  0.0636
 6943SOL     OW21727   3.384   2.940   6.032  1.0554  0.3803  0.0327
 6943SOL    HW121728   3.444   2.890   6.094 -1.7593 -1.3371  1.5772
 6943SOL    HW221729   3.378   3.036   6.061  0.8836 -0.0805  1.5940
 6944SOL     OW21730   6.127   5.609   6.352  0.2026  0.3469  0.5587
 6944SOL    HW121731   6.037   5.577   6.380  1.0165 -0.8882  1.9263
 6944SOL    HW221732   6.196   5.541   6.379  1.5409  1.2383 -0.4883
 6945SOL     OW21733   6.926   6.829   0.459 -0.1125  0.2751  0.1957
 6945SOL    HW121734   6.909   6.778   0.375  0.5065  0.1518  0.1456
 6945SOL    HW221735   6.973   6.914   0.437 -0.8139  0.7031  0.3183
 6946SOL     OW21736   6.214   5.958   1.882  0.3293 -0.1143 -0.7944
 6946SOL    HW121737   6.166   6.045   1.871 -1.2263 -0.8044  0.1318
 6946SOL    HW221738   6.252   5.929   1.794 -0.8612  0.5372 -1.5515
 6947SOL     OW21739   2.651   0.219   0.795  0.1822 -0.8841  0.1625
 6947SOL    HW121740   2.691   0.146   0.741  1.4481 -0.8953  1.0586
 6947SOL    HW221741   2.588   0.272   0.738 -1.1075 -2.8948 -0.3832
 6948SOL     OW21742   1.883   0.882   1.384 -0.1728 -0.2206  0.2302
 6948SOL    HW121743   1.873   0.782   1.379 -0.1551 -0.2070 -0.1328
 6948SOL    HW221744   1.869   0.921   1.293 -1.4200  0.2265  0.5879
 6949SOL     OW21745   4.780   0.691   3.173  0.3385 -0.0784 -0.3206
 6949SOL    HW121746   4.715   0.765   3.152 -1.4545 -0.7404  2.3654
 6949SOL    HW221747   4.749   0.606   3.130 -0.0035 -0.1572  0.0715
 6950SOL     OW21748   1.315   1.828   4.395  0.1140 -0.2240 -0.5585
 6950SOL    HW121749   1.347   1.733   4.393 -1.4135 -0.7612 -0.8776
 6950SOL    HW221750   1.250   1.842   4.321 -1.7231  0.3133  1.0944
 6951SOL     OW21751   0.118   4.066   3.873 -0.3165  0.0279 -0.3555
 6951SOL    HW121752   0.021   4.043   3.862 -0.4324  0.5685 -0.4913
 6951SOL    HW221753   0.153   4.103   3.787 -0.1378  0.3682 -0.1361
 6952SOL     OW21754   2.640   5.005   4.701 -0.0377  0.1467 -0.2731
 6952SOL    HW121755   2.551   5.048   4.688 -0.7858 -1.1873  0.2419
 6952SOL    HW221756   2.693   5.060   4.766 -1.6316 -0.5252  1.7297
 6953SOL     OW21757   4.653   5.716   0.985 -0.3576 -0.3481  0.5049
 6953SOL    HW121758   4.739   5.752   0.949 -1.8105  1.1756 -1.7167
 6953SOL    HW221759   4.665   5.690   1.081  1.7896  2.7155  1.2201
 6954SOL     OW21760   0.253   2.585   1.665 -0.6294  0.3677  0.0249
 6954SOL    HW121761   0.179   2.549   1.722 -1.0737  0.9641 -0.1563
 6954SOL    HW221762   0.217   2.659   1.608  0.1091  0.6458 -0.0861
 6955SOL     OW21763   0.475   0.494   1.774  0.1256  0.1939  1.0865
 6955SOL    HW121764   0.414   0.416   1.763 -1.0420  0.9579  1.8879
 6955SOL    HW221765   0.570   0.463   1.773 -0.3283 -1.4857  3.1745
 6956SOL     OW21766   6.225   6.769   5.104  0.7426 -0.2000  0.3422
 6956SOL    HW121767   6.260   6.815   5.186  3.1916  1.9513 -1.7079
 6956SOL    HW221768   6.143   6.817   5.072  0.1163 -0.6890  1.1755
 6957SOL     OW21769   6.313   4.693   0.712  0.2504 -0.4076 -0.3673
 6957SOL    HW121770   6.388   4.630   0.693  0.9130  0.2181  0.1395
 6957SOL    HW221771   6.237   4.642   0.752  1.5523 -0.6185  2.0015
 6958SOL     OW21772   3.761   4.041   3.931 -0.1105 -0.0094 -0.1362
 6958SOL    HW121773   3.707   4.031   4.015 -0.7444 -0.0146 -0.5360
 6958SOL    HW221774   3.858   4.026   3.952 -0.3159 -0.5230  0.4959
 6959SOL     OW21775   2.580   2.177   1.737  0.1348 -0.5325  0.5686
 6959SOL    HW121776   2.636   2.165   1.819  0.5000  1.6895  0.6932
 6959SOL    HW221777   2.638   2.177   1.656 -0.1042 -1.6015  0.3780
 6960SOL     OW21778   2.060   4.745   1.686 -0.2134  0.0536  0.3119
 6960SOL    HW121779   2.111   4.663   1.661 -0.4470  0.3174 -1.1162
 6960SOL    HW221780   2.008   4.728   1.769  0.1568 -1.0700  0.3289
 6961SOL     OW21781   4.617   0.362   3.748  0.2801  0.2493  0.0377
 6961SOL    HW121782   4.647   0.449   3.788  2.0782  0.6051 -1.8919
 6961SOL    HW221783   4.695   0.302   3.734 -0.4095 -0.3162 -1.7616
 6962SOL     OW21784   4.719   4.997   1.492  0.1540  0.8146  0.3122
 6962SOL    HW121785   4.768   4.975   1.408 -0.7384  1.6205 -0.4491
 6962SOL    HW221786   4.753   5.084   1.529  0.2420  0.6834  0.5424
 6963SOL     OW21787   4.270   5.105   6.161 -0.3840 -0.4219 -0.2528
 6963SOL    HW121788   4.286   5.134   6.067  0.5801  1.0062  0.3284
 6963SOL    HW221789   4.224   5.177   6.212 -1.1957 -1.3062  0.3043
 6964SOL     OW21790   4.222   6.618   4.292  0.0405 -0.5540 -0.0737
 6964SOL    HW121791   4.317   6.649   4.291 -0.2920  0.6824  1.5723
 6964SOL    HW221792   4.204   6.572   4.379 -0.4100 -2.4202 -1.1142
 6965SOL     OW21793   1.366   5.587   0.957 -0.2192 -0.3041  0.4287
 6965SOL    HW121794   1.359   5.492   0.926 -1.4279  0.4329 -1.8119
 6965SOL    HW221795   1.341   5.592   1.053  1.4592 -2.4495  1.0500
 6966SOL     OW21796   2.393   1.954   2.685 -0.3730  0.0561  0.3795
 6966SOL    HW121797   2.368   1.942   2.781  0.5357 -0.4727  0.5555
 6966SOL    HW221798   2.466   1.891   2.661 -0.9968 -0.2399 -0.8321
 6967SOL     OW21799   4.257   0.834   6.109 -0.3249 -0.5441 -0.3226
 6967SOL    HW121800   4.163   0.806   6.124 -0.6170 -0.1753 -1.4203
 6967SOL    HW221801   4.271   0.858   6.013  1.4704 -2.7487 -0.6901
 6968SOL     OW21802   5.222   6.019   1.857  0.1554 -0.4648  0.1541
 6968SOL    HW121803   5.309   6.065   1.844  0.0671 -0.8037 -1.9546
 6968SOL    HW221804   5.220   5.976   1.947  1.4250  1.0402  0.9587
 6969SOL     OW21805   2.413   2.623   1.959  0.1371 -0.3588 -0.5082
 6969SOL    HW121806   2.456   2.539   1.993  0.2870 -0.3805 -0.7507
 6969SOL    HW221807   2.467   2.660   1.883 -0.7540 -0.8715 -1.4091
 6970SOL     OW21808   4.914   5.801   6.937 -0.3781 -0.4361 -0.3835
 6970SOL    HW121809   5.006   5.819   6.903  0.0746 -1.0757  0.4341
 6970SOL    HW221810   4.908   5.705   6.965 -1.3386 -0.4338 -0.5590
 6971SOL     OW21811   6.523   5.323   0.621  0.2250  0.0702 -0.1171
 6971SOL    HW121812   6.557   5.410   0.586 -0.8789  0.7306  0.3719
 6971SOL    HW221813   6.554   5.309   0.715 -1.9707  1.4254  0.9032
 6972SOL     OW21814   6.545   0.528   3.627  0.5829 -0.2216  0.4457
 6972SOL    HW121815   6.604   0.451   3.650  0.2410 -0.9508 -1.0010
 6972SOL    HW221816   6.601   0.605   3.595  0.9037  0.0410  1.6090
 6973SOL     OW21817   2.197   2.908   2.353 -0.4155 -0.5921 -0.0047
 6973SOL    HW121818   2.108   2.873   2.325 -0.3208 -0.1543 -0.8654
 6973SOL    HW221819   2.268   2.844   2.323 -0.3243 -0.1852 -0.6693
 6974SOL     OW21820   2.494   4.013   1.625  0.2751  0.7482  0.3924
 6974SOL    HW121821   2.586   4.039   1.653  0.3754 -0.0890  0.8762
 6974SOL    HW221822   2.498   3.955   1.544  0.0095  2.7713 -1.1613
 6975SOL     OW21823   0.387   5.953   0.098 -0.2381  0.1916  0.4238
 6975SOL    HW121824   0.473   5.994   0.130  0.4038 -1.9833  1.6731
 6975SOL    HW221825   0.375   5.972   0.001  2.2878 -0.4596 -0.0864
 6976SOL     OW21826   6.099   4.803   4.766 -0.4652  0.4611 -0.7348
 6976SOL    HW121827   6.113   4.710   4.799 -1.5511  0.3525 -0.5350
 6976SOL    HW221828   6.182   4.857   4.781 -0.7527  0.3352  1.8850
 6977SOL     OW21829   4.085   2.238   1.302  0.1480 -0.5931 -0.5815
 6977SOL    HW121830   3.988   2.251   1.280  0.3167  0.1307 -0.8927
 6977SOL    HW221831   4.095   2.153   1.355 -1.1694  1.1543  2.7410
 6978SOL     OW21832   5.130   1.346   2.911  0.0054  0.2927  0.3264
 6978SOL    HW121833   5.210   1.400   2.884  0.4133 -0.9244 -1.0416
 6978SOL    HW221834   5.087   1.307   2.829 -1.6316  0.4053  1.0959
 6979SOL     OW21835   1.356   5.487   6.956 -0.4980  0.0557 -0.2463
 6979SOL    HW121836   1.449   5.475   6.990 -0.5495  0.6596  0.1250
 6979SOL    HW221837   1.332   5.410   6.896 -0.2511 -0.7853  0.7144
 6980SOL     OW21838   2.549   1.958   2.329 -0.0076  0.3129  0.3305
 6980SOL    HW121839   2.455   1.939   2.301  0.0925  0.5755 -0.1926
 6980SOL    HW221840   2.601   1.873   2.332 -0.3452  0.1192  0.9607
 6981SOL     OW21841   2.108   1.891   6.324  0.4462 -0.2386  0.2420
 6981SOL    HW121842   2.116   1.862   6.229 -0.3871  0.8273 -0.1748
 6981SOL    HW221843   2.125   1.989   6.331 -1.3827  0.0819  0.8670
 6982SOL     OW21844   0.362   1.679   3.656  0.1141 -0.2320  0.7009
 6982SOL    HW121845   0.318   1.709   3.741 -2.7301 -1.2475 -0.2973
 6982SOL    HW221846   0.387   1.759   3.601 -1.3153  0.4173  0.9518
 6983SOL     OW21847   1.809   2.720   2.168 -0.0540 -0.2984  0.1716
 6983SOL    HW121848   1.826   2.731   2.265  0.8372 -1.1586  0.1337
 6983SOL    HW221849   1.711   2.703   2.153 -0.0324 -1.3666  1.0544
 6984SOL     OW21850   2.287   1.847   4.116  0.0344 -0.3636  0.2575
 6984SOL    HW121851   2.210   1.802   4.162 -1.1473 -0.4947 -1.7306
 6984SOL    HW221852   2.291   1.943   4.143 -0.0138 -0.6692  1.3749
 6985SOL     OW21853   4.144   3.963   6.719  0.1865  0.9561  0.8069
 6985SOL    HW121854   4.238   3.984   6.691  1.0432 -1.9008  1.1915
 6985SOL    HW221855   4.124   4.010   6.805  2.0416  0.0968  1.7812
 6986SOL     OW21856   1.984   1.964   1.039 -0.1985 -0.4190  1.0343
 6986SOL    HW121857   1.985   2.058   1.075  0.0949 -0.1777  0.4094
 6986SOL    HW221858   2.055   1.955   0.969 -0.7831 -0.8732  0.4999
 6987SOL     OW21859   6.818   0.843   0.081  0.1011  0.5614  0.2636
 6987SOL    HW121860   6.755   0.780   0.126 -0.2678  0.5271 -0.2991
 6987SOL    HW221861   6.770   0.895   0.010  0.8107  0.1738 -0.5203
 6988SOL     OW21862   0.368   0.247   0.217  0.2934  0.3629  0.3998
 6988SOL    HW121863   0.359   0.279   0.123 -1.4752 -2.6474 -0.6083
 6988SOL    HW221864   0.427   0.166   0.219  0.2575  0.3477  1.8728
 6989SOL     OW21865   2.210   3.979   2.147  0.3314  0.3578 -0.2941
 6989SOL    HW121866   2.183   4.049   2.081 -0.4400 -0.2545 -0.6371
 6989SOL    HW221867   2.197   3.888   2.107 -1.3089 -0.0608  1.1074
 6990SOL     OW21868   4.828   1.711   0.202 -0.3894 -0.1484  0.1306
 6990SOL    HW121869   4.925   1.703   0.181 -0.6749  2.4194 -2.9615
 6990SOL    HW221870   4.815   1.763   0.286  0.8914 -0.1869  0.3619
 6991SOL     OW21871   2.763   4.647   4.242 -0.4200 -0.1546  0.4472
 6991SOL    HW121872   2.839   4.711   4.252 -1.1210  0.8100 -0.3024
 6991SOL    HW221873   2.789   4.559   4.284  1.4916 -0.1863 -0.6731
 6992SOL     OW21874   5.292   6.237   1.268  0.6777  0.5639 -0.1754
 6992SOL    HW121875   5.349   6.247   1.187 -0.7516 -2.2282 -1.6684
 6992SOL    HW221876   5.349   6.204   1.344  1.8385  2.2283 -0.2725
 6993SOL     OW21877   5.210   0.899   3.047  0.6855  0.1961  0.0954
 6993SOL    HW121878   5.263   0.828   2.999  0.8627  0.4611 -0.1033
 6993SOL    HW221879   5.139   0.934   2.986  0.6838  0.2854  0.1493
 6994SOL     OW21880   0.765   5.109   3.687  0.1397 -0.5996 -0.8000
 6994SOL    HW121881   0.730   5.018   3.709 -0.2341 -0.7488 -1.9343
 6994SOL    HW221882   0.841   5.131   3.748 -1.5581 -0.4775  1.3827
 6995SOL     OW21883   0.131   5.744   6.547 -0.4223 -0.4300  0.2959
 6995SOL    HW121884   0.158   5.837   6.523 -0.3122 -0.3069  0.8808
 6995SOL    HW221885   0.147   5.684   6.468  0.4427 -0.1348  0.2259
 6996SOL     OW21886   2.215   5.759   0.205 -0.2768 -0.3941  0.2450
 6996SOL    HW121887   2.302   5.746   0.157  1.1201  0.8886  2.2731
 6996SOL    HW221888   2.163   5.831   0.159  1.3534  1.3158  0.9172
 6997SOL     OW21889   0.976   5.575   0.313  0.5293 -0.7266 -0.2309
 6997SOL    HW121890   0.898   5.520   0.281  0.3244 -0.2856 -0.4962
 6997SOL    HW221891   0.971   5.584   0.413  0.2676 -0.7411 -0.2406
 6998SOL     OW21892   0.376   1.511   1.398  0.0140 -0.1150  0.5222
 6998SOL    HW121893   0.359   1.509   1.299 -2.9141  1.3331  0.8909
 6998SOL    HW221894   0.418   1.598   1.423 -1.4482  0.5442  0.7828
 6999SOL     OW21895   2.964   1.331   5.276  0.1064  0.2558 -0.2671
 6999SOL    HW121896   3.032   1.273   5.232 -0.0009  0.2165 -0.3816
 6999SOL    HW221897   2.875   1.286   5.273 -0.0156  0.5120 -0.5306
 7000SOL     OW21898   6.652   1.725   3.057  0.8763  0.0957 -0.2945
 7000SOL    HW121899   6.618   1.804   3.108  1.8640 -1.1764  2.5493
 7000SOL    HW221900   6.574   1.671   3.024  0.1696  0.6643  0.3971
 7001SOL     OW21901   1.487   4.290   6.313 -0.4324 -0.2748  0.3799
 7001SOL    HW121902   1.483   4.369   6.374  0.0824  0.8924 -1.0312
 7001SOL    HW221903   1.396   4.249   6.306 -1.0202  1.0125  0.1402
 7002SOL     OW21904   3.420   0.206   4.249 -0.3959 -0.7433 -0.4598
 7002SOL    HW121905   3.440   0.303   4.266 -2.1968 -0.2792 -0.7587
 7002SOL    HW221906   3.482   0.149   4.302  1.0411  0.5567 -0.6678
 7003SOL     OW21907   2.567   5.656   2.474 -0.0627  0.3379 -0.7024
 7003SOL    HW121908   2.528   5.734   2.425 -0.5397  0.0618 -0.7670
 7003SOL    HW221909   2.652   5.684   2.520 -0.8084  1.1889  0.1857
 7004SOL     OW21910   1.091   0.806   1.341  0.8656 -0.4336  0.1099
 7004SOL    HW121911   1.076   0.858   1.257 -0.5400 -2.8223 -1.2459
 7004SOL    HW221912   1.014   0.819   1.402  0.4964 -0.8964 -0.2454
 7005SOL     OW21913   0.306   1.600   0.881 -0.0244  0.6262  0.0207
 7005SOL    HW121914   0.308   1.699   0.889 -1.5248  0.6912 -0.0973
 7005SOL    HW221915   0.282   1.574   0.787  0.3930  0.1585  0.0405
 7006SOL     OW21916   5.362   4.460   3.456 -0.1353 -0.0949 -0.2371
 7006SOL    HW121917   5.421   4.529   3.415  0.5782 -0.1940  0.6095
 7006SOL    HW221918   5.416   4.381   3.484 -0.6715 -0.2137  0.5042
 7007SOL     OW21919   3.706   0.584   5.800 -0.6774 -0.1559 -0.4700
 7007SOL    HW121920   3.802   0.570   5.825 -0.5745 -1.3569 -1.4351
 7007SOL    HW221921   3.691   0.681   5.779  0.0371  0.2513  0.8023
 7008SOL     OW21922   0.974   5.390   4.483  0.2546 -0.5563 -0.2509
 7008SOL    HW121923   0.962   5.330   4.562  1.8745 -1.2532 -0.5063
 7008SOL    HW221924   0.979   5.336   4.400  1.6801 -0.1082 -0.4907
 7009SOL     OW21925   4.708   1.141   1.852  0.0802 -0.2942  0.0462
 7009SOL    HW121926   4.691   1.170   1.946 -0.1329 -2.3371  0.6794
 7009SOL    HW221927   4.652   1.195   1.790 -1.1301 -0.1146  1.2498
 7010SOL     OW21928   5.681   4.997   2.129  0.3962  0.3795 -0.3040
 7010SOL    HW121929   5.696   4.917   2.072 -3.5856 -2.0071  1.5446
 7010SOL    HW221930   5.598   5.044   2.099 -0.4231  0.4645  1.8825
 7011SOL     OW21931   3.355   1.264   0.336  0.1903 -0.5691 -0.0010
 7011SOL    HW121932   3.352   1.274   0.237 -0.0520 -1.3404 -0.0765
 7011SOL    HW221933   3.314   1.176   0.363  0.6413 -0.5673  0.7450
 7012SOL     OW21934   0.074   1.714   6.794 -0.3095  0.3437 -0.1660
 7012SOL    HW121935  -0.018   1.689   6.762 -0.5067  2.3825 -1.3410
 7012SOL    HW221936   0.069   1.741   6.890 -1.0842  1.1051 -0.4108
 7013SOL     OW21937   6.632   6.760   0.148 -0.2817 -0.3794  0.2468
 7013SOL    HW121938   6.555   6.698   0.160 -1.1851  0.4432 -0.9760
 7013SOL    HW221939   6.606   6.833   0.085  1.3580  0.1947  0.1836
 7014SOL     OW21940   4.460   2.718   0.602  0.2304 -0.5964  0.2117
 7014SOL    HW121941   4.400   2.666   0.542 -1.4935 -0.2537  1.5627
 7014SOL    HW221942   4.483   2.662   0.682  0.1416 -0.0362  0.6289
 7015SOL     OW21943   4.871   4.875   6.527 -0.2110 -0.1341  0.5029
 7015SOL    HW121944   4.808   4.797   6.534  0.1249 -0.6662 -1.5391
 7015SOL    HW221945   4.820   4.958   6.505 -0.3040 -0.3702 -0.1888
 7016SOL     OW21946   2.737   4.131   0.290 -0.6144  0.5110  0.5621
 7016SOL    HW121947   2.779   4.094   0.373  1.0103 -0.2843 -0.5744
 7016SOL    HW221948   2.707   4.056   0.231 -0.0722  1.0245 -0.3908
 7017SOL     OW21949   2.240   5.427   4.604  0.0421  0.1660  0.0296
 7017SOL    HW121950   2.166   5.398   4.665  2.0257 -1.6562  1.7549
 7017SOL    HW221951   2.217   5.402   4.510 -2.0922  0.9021  0.3214
 7018SOL     OW21952   5.367   3.411   5.427 -0.1145  0.3232  0.3918
 7018SOL    HW121953   5.442   3.364   5.380 -0.1107  1.0159 -0.3327
 7018SOL    HW221954   5.340   3.360   5.508  0.7933 -0.2049  0.3696
 7019SOL     OW21955   3.227   4.121   6.172 -0.2208 -0.3793  0.1950
 7019SOL    HW121956   3.173   4.036   6.177  0.5492 -0.8589  0.7198
 7019SOL    HW221957   3.284   4.128   6.254 -1.0333  1.1836  0.6560
 7020SOL     OW21958   0.993   4.287   4.681  0.0656 -0.0872  0.3372
 7020SOL    HW121959   0.948   4.225   4.617  0.0555  0.4690 -0.2087
 7020SOL    HW221960   1.039   4.360   4.629 -0.2083  0.5503  0.9792
 7021SOL     OW21961   1.352   1.905   5.299  0.3338 -0.2649  0.2138
 7021SOL    HW121962   1.350   1.932   5.395 -2.4080 -0.3990  0.2610
 7021SOL    HW221963   1.378   1.983   5.242  1.5618 -0.0763  0.9913
 7022SOL     OW21964   5.329   0.714   0.536 -0.4523 -0.6973  0.4438
 7022SOL    HW121965   5.351   0.713   0.634 -0.1787  0.5380  0.4057
 7022SOL    HW221966   5.229   0.716   0.525 -0.4751  0.7999  0.7418
 7023SOL     OW21967   1.696   3.317   2.148  0.0701  0.3165 -0.2151
 7023SOL    HW121968   1.760   3.241   2.138  1.0900  1.2394 -0.8993
 7023SOL    HW221969   1.742   3.403   2.127 -1.3506  1.0350 -0.5192
 7024SOL     OW21970   2.350   3.844   5.878 -0.2479 -0.4650 -0.9132
 7024SOL    HW121971   2.259   3.886   5.875 -0.6008 -1.2704 -3.0039
 7024SOL    HW221972   2.412   3.895   5.819 -0.2026 -1.7586 -2.0296
 7025SOL     OW21973   2.774   7.000   1.917  0.3685 -0.1296 -0.0712
 7025SOL    HW121974   2.745   6.954   1.833  1.0319  0.8408 -0.8520
 7025SOL    HW221975   2.710   6.979   1.991 -0.0937 -1.1843 -0.7559
 7026SOL     OW21976   4.368   2.374   3.010 -0.4716 -0.5471 -0.2917
 7026SOL    HW121977   4.294   2.365   2.943  0.6181  0.1104 -1.6149
 7026SOL    HW221978   4.410   2.464   3.002  0.0451 -0.6595  0.9172
 7027SOL     OW21979   0.621   5.699   4.270 -0.3286 -0.3948 -0.4293
 7027SOL    HW121980   0.554   5.773   4.273 -0.3605 -0.4599  1.3310
 7027SOL    HW221981   0.573   5.611   4.264 -0.4060 -0.4112  0.3050
 7028SOL     OW21982   4.629   1.783   1.985 -0.4444  0.2934  1.0709
 7028SOL    HW121983   4.705   1.848   1.976  0.3104 -0.6819  0.0319
 7028SOL    HW221984   4.599   1.756   1.893 -0.4952 -1.0846  1.4735
 7029SOL     OW21985   5.181   4.227   6.113 -0.3565  0.1045 -0.2769
 7029SOL    HW121986   5.095   4.235   6.162 -0.3262 -0.5832 -0.1077
 7029SOL    HW221987   5.257   4.245   6.176 -0.3219 -0.6874 -0.0766
 7030SOL     OW21988   1.590   0.885   4.139 -0.0711 -0.4577 -0.4508
 7030SOL    HW121989   1.663   0.853   4.079  0.3824 -0.3457  0.0264
 7030SOL    HW221990   1.630   0.932   4.218 -0.6648 -0.3072 -0.2293
 7031SOL     OW21991   0.898   6.009   0.146  0.2704  0.1926  0.6262
 7031SOL    HW121992   0.916   6.008   0.047 -0.8693  0.1304  0.4018
 7031SOL    HW221993   0.985   6.002   0.196  0.9698  1.3977 -0.3530
 7032SOL     OW21994   1.581   2.368   4.309 -0.6922  0.4728  0.2361
 7032SOL    HW121995   1.521   2.336   4.383 -0.3304 -1.0213 -0.0874
 7032SOL    HW221996   1.669   2.322   4.314 -0.9499 -0.3081 -1.6182
 7033SOL     OW21997   2.078   2.408   4.870 -0.0412  0.4342 -0.4063
 7033SOL    HW121998   2.096   2.469   4.947  0.6154  1.5328 -1.3955
 7033SOL    HW221999   2.164   2.369   4.838 -0.3070  0.0107 -0.6122
 7034SOL     OW22000   1.103   1.152   4.999  0.0028 -0.0945  0.4208
 7034SOL    HW122001   1.095   1.053   5.001 -0.1233 -0.0889  0.1954
 7034SOL    HW222002   1.092   1.188   5.092 -0.7957 -0.2242  0.3819
 7035SOL     OW22003   0.167   6.454   0.467 -0.5379  0.3119 -0.5519
 7035SOL    HW122004   0.112   6.518   0.521 -1.1754 -0.1398 -0.6514
 7035SOL    HW222005   0.193   6.497   0.381  0.2903  0.9529 -0.0029
 7036SOL     OW22006   0.627   1.282   3.915 -0.3924 -0.0163  0.2016
 7036SOL    HW122007   0.725   1.286   3.894 -0.4582 -0.0138 -0.1132
 7036SOL    HW222008   0.577   1.254   3.833 -0.5198 -1.3924  0.7151
 7037SOL     OW22009   2.250   1.518   4.089  0.1332  0.0727 -0.1269
 7037SOL    HW122010   2.250   1.598   4.149 -0.6975  0.3573 -0.4840
 7037SOL    HW222011   2.327   1.459   4.111 -0.2546  0.0842  1.3284
 7038SOL     OW22012   0.974   4.665   4.489  0.3837 -0.5457  0.2115
 7038SOL    HW122013   1.035   4.591   4.517 -0.0088 -1.2673 -0.7772
 7038SOL    HW222014   1.022   4.753   4.500  0.7013 -0.8885  1.7929
 7039SOL     OW22015   2.082   4.655   4.327  0.7768 -0.0175 -0.3639
 7039SOL    HW122016   1.991   4.692   4.345  1.6328  1.9073  0.2784
 7039SOL    HW222017   2.106   4.671   4.231  1.6581  2.4579  0.2000
 7040SOL     OW22018   5.740   3.669   6.009 -0.5083  0.5157  0.0541
 7040SOL    HW122019   5.804   3.602   5.971 -0.9759  0.0579  0.0552
 7040SOL    HW222020   5.774   3.700   6.098  0.2429  1.0785 -0.4159
 7041SOL     OW22021   0.117   1.894   3.641  0.3668 -0.0140  0.1128
 7041SOL    HW122022   0.163   1.860   3.724  1.2570  1.0606  0.0829
 7041SOL    HW222023   0.168   1.971   3.604  0.1350 -0.6523 -1.6172
 7042SOL     OW22024   4.571   4.832   4.896  0.4576 -0.4877 -0.9087
 7042SOL    HW122025   4.519   4.748   4.905 -0.0975 -0.0081  0.6375
 7042SOL    HW222026   4.667   4.814   4.920  0.3756 -0.7164 -0.7465
 7043SOL     OW22027   2.725   5.625   3.971  0.1683 -0.3074 -0.2633
 7043SOL    HW122028   2.730   5.538   4.020  2.0190 -0.7525 -1.1564
 7043SOL    HW222029   2.767   5.697   4.026 -3.2627  0.6093  1.4482
 7044SOL     OW22030   6.558   6.027   3.607 -0.2111  0.4775 -0.6052
 7044SOL    HW122031   6.473   5.993   3.565 -1.5343 -0.2575  2.3800
 7044SOL    HW222032   6.630   5.959   3.595 -0.4367  0.4345 -1.8847
 7045SOL     OW22033   6.769   5.132   4.287  0.1558 -0.7476 -0.2745
 7045SOL    HW122034   6.796   5.059   4.224 -1.2915 -1.5132 -0.0389
 7045SOL    HW222035   6.790   5.104   4.381  0.7204 -0.3328 -0.2706
 7046SOL     OW22036   3.152   1.971   3.709 -0.9069 -0.0096 -0.2094
 7046SOL    HW122037   3.119   2.047   3.765  0.0606 -0.9735  1.7756
 7046SOL    HW222038   3.082   1.900   3.705 -0.9587  0.0400 -0.1915
 7047SOL     OW22039   5.944   6.450   3.139 -0.3102 -0.3498 -0.5070
 7047SOL    HW122040   5.927   6.504   3.222 -0.3976 -1.4995  0.2440
 7047SOL    HW222041   5.860   6.401   3.114 -0.5346  0.6166 -1.7725
 7048SOL     OW22042   0.571   1.580   5.267  0.3239 -0.3850  0.3427
 7048SOL    HW122043   0.528   1.647   5.207 -0.9941 -0.2327  1.4259
 7048SOL    HW222044   0.507   1.552   5.338  1.9370 -0.3365  1.8811
 7049SOL     OW22045   3.414   2.185   1.753 -0.6047  0.3127  0.0931
 7049SOL    HW122046   3.394   2.200   1.656 -0.8375 -0.3300  0.0378
 7049SOL    HW222047   3.500   2.230   1.777 -0.3447  0.1443 -0.5070
 7050SOL     OW22048   3.459   3.050   0.537 -0.4458 -0.2419 -0.2333
 7050SOL    HW122049   3.469   3.088   0.445  1.1475  2.1282  0.8296
 7050SOL    HW222050   3.361   3.037   0.557 -0.9951  1.8924 -1.2665
 7051SOL     OW22051   0.169   5.753   0.999 -0.0663 -0.3558 -0.0235
 7051SOL    HW122052   0.071   5.749   1.017  0.2145 -1.0590  1.5152
 7051SOL    HW222053   0.193   5.686   0.928 -1.0124  1.5223 -2.2416
 7052SOL     OW22054   6.336   0.597   3.901 -0.0580 -0.7133  0.1006
 7052SOL    HW122055   6.303   0.513   3.859  1.1498 -0.3439 -1.7442
 7052SOL    HW222056   6.409   0.576   3.967 -0.1366 -1.1424  0.0471
 7053SOL     OW22057   2.259   4.082   2.983 -0.4592  0.2747  0.2778
 7053SOL    HW122058   2.340   4.122   3.025  0.9352 -0.0046 -1.9773
 7053SOL    HW222059   2.191   4.061   3.053  1.9886 -0.8472  2.4582
 7054SOL     OW22060   6.391   1.034   1.421 -0.3594 -1.0825 -0.6262
 7054SOL    HW122061   6.359   0.954   1.471  1.1692 -2.0224 -1.1000
 7054SOL    HW222062   6.338   1.114   1.449  0.0794 -1.6619  2.0969
 7055SOL     OW22063   3.209   6.458   6.517 -0.2501 -0.5818 -0.3661
 7055SOL    HW122064   3.221   6.384   6.582  1.0683 -0.1277 -0.0491
 7055SOL    HW222065   3.296   6.506   6.505 -1.0816  0.9465 -0.5202
 7056SOL     OW22066   6.917   4.430   1.449  0.7960  0.0268  0.3236
 7056SOL    HW122067   6.883   4.483   1.527  1.5892 -0.4813  1.0348
 7056SOL    HW222068   7.011   4.399   1.468  0.6203 -0.9950 -0.3868
 7057SOL     OW22069   1.477   4.737   3.664 -0.1579  0.3974  0.3715
 7057SOL    HW122070   1.536   4.779   3.596 -1.1941  1.9213  0.3811
 7057SOL    HW222071   1.518   4.650   3.694  0.6993  0.0782 -1.5828
 7058SOL     OW22072   5.177   4.094   4.635 -0.4627 -0.1630  0.1925
 7058SOL    HW122073   5.163   4.164   4.565  0.5476 -0.3663 -0.2377
 7058SOL    HW222074   5.199   4.138   4.722 -1.6442  0.0894  0.3680
 7059SOL     OW22075   0.736   2.355   3.904  0.1428 -0.0291  0.1876
 7059SOL    HW122076   0.722   2.404   3.990 -0.4499  0.8118 -0.3780
 7059SOL    HW222077   0.669   2.281   3.896  0.3561 -0.2681  0.5498
 7060SOL     OW22078   4.414   6.502   2.589 -0.0200 -0.0272 -0.1370
 7060SOL    HW122079   4.357   6.495   2.671 -1.0857  1.1807 -0.7549
 7060SOL    HW222080   4.356   6.506   2.508  1.0193 -0.7880 -0.9457
 7061SOL     OW22081   5.545   4.995   3.465  0.1176 -0.2605  0.1319
 7061SOL    HW122082   5.634   5.023   3.428 -0.1524  2.2578  1.1545
 7061SOL    HW222083   5.558   4.955   3.555  0.4056 -2.6181 -0.8849
 7062SOL     OW22084   3.437   1.428   5.998 -1.0365 -0.2175  0.1002
 7062SOL    HW122085   3.483   1.376   6.069 -2.5248 -2.3000 -0.3844
 7062SOL    HW222086   3.454   1.526   6.012  0.8757 -0.7171  1.7194
 7063SOL     OW22087   2.391   6.896   1.194  0.8167 -0.3011 -0.2100
 7063SOL    HW122088   2.321   6.869   1.260  0.3816  0.0962 -0.5061
 7063SOL    HW222089   2.468   6.832   1.200  0.7940 -0.2623  0.6888
 7064SOL     OW22090   3.326   2.392   1.324 -0.4556  0.0045 -0.1831
 7064SOL    HW122091   3.360   2.454   1.395 -0.1427  0.0926 -0.4068
 7064SOL    HW222092   3.328   2.298   1.359  1.1130 -0.1339 -0.5707
 7065SOL     OW22093   3.112   2.681   5.811  0.1253 -0.1536  0.2208
 7065SOL    HW122094   3.063   2.685   5.724 -0.3361  0.9490  0.5145
 7065SOL    HW222095   3.176   2.757   5.817  1.1518 -0.9872  0.2893
 7066SOL     OW22096   3.183   0.317   0.489  0.6915  0.5161 -0.1533
 7066SOL    HW122097   3.113   0.388   0.480 -0.8761 -1.0421 -0.7288
 7066SOL    HW222098   3.267   0.348   0.444  0.4442  2.4533  0.6065
 7067SOL     OW22099   0.902   2.906   4.223 -0.4750  0.5644 -0.2632
 7067SOL    HW122100   0.915   2.810   4.249 -1.8759  0.2461 -0.6726
 7067SOL    HW222101   0.948   2.924   4.136  0.0189  0.3545 -0.0525
 7068SOL     OW22102   4.944   4.063   6.969  0.1019 -0.0787 -0.7869
 7068SOL    HW122103   4.899   4.101   7.050  1.0888 -0.7039  0.0820
 7068SOL    HW222104   4.901   4.100   6.886 -1.0992  0.3716  0.0102
 7069SOL     OW22105   5.423   1.799   6.742 -0.6146 -0.7347  0.6357
 7069SOL    HW122106   5.502   1.811   6.682 -1.3720 -1.3001 -0.5216
 7069SOL    HW222107   5.454   1.786   6.836  0.7506 -2.2427  0.0204
 7070SOL     OW22108   2.429   5.125   5.112  0.3485 -0.5076 -0.5543
 7070SOL    HW122109   2.452   5.056   5.044  1.8222  0.5687 -1.1890
 7070SOL    HW222110   2.460   5.215   5.081 -1.3636  0.4469  0.3293
 7071SOL     OW22111   2.425   5.601   6.178 -0.3303  0.1499 -0.4292
 7071SOL    HW122112   2.492   5.669   6.148  1.9347 -2.5153 -1.9919
 7071SOL    HW222113   2.378   5.564   6.098  1.7076 -3.1011 -0.3207
 7072SOL     OW22114   3.090   3.719   0.212  0.0961 -0.0643  0.2784
 7072SOL    HW122115   2.992   3.729   0.228  0.2726  0.3615  1.1782
 7072SOL    HW222116   3.114   3.759   0.124 -0.0689  2.7270  1.3944
 7073SOL     OW22117   6.161   6.461   3.298 -0.2125 -0.4943  0.4823
 7073SOL    HW122118   6.193   6.554   3.283  0.8107 -0.7900  0.7317
 7073SOL    HW222119   6.097   6.435   3.226  1.2126 -0.3751 -0.8753
 7074SOL     OW22120   6.554   2.162   6.997  0.3070 -0.2152  0.2957
 7074SOL    HW122121   6.460   2.138   7.021  0.1212 -0.5773 -0.7189
 7074SOL    HW222122   6.562   2.170   6.897  1.3425 -0.1606  0.3674
 7075SOL     OW22123   1.655   4.103   4.487 -0.2163  0.3945 -0.0126
 7075SOL    HW122124   1.720   4.131   4.557  1.9425 -2.0119 -0.9131
 7075SOL    HW222125   1.586   4.043   4.527  1.8682 -2.2063 -0.0308
 7076SOL     OW22126   5.743   3.072   0.155  0.4785  0.3225 -0.3229
 7076SOL    HW122127   5.782   3.141   0.216  1.1620 -0.0105 -0.3726
 7076SOL    HW222128   5.653   3.044   0.190  0.7907  0.2558  0.4484
 7077SOL     OW22129   1.736   5.278   4.625  0.2865  0.2681  0.1927
 7077SOL    HW122130   1.773   5.295   4.534  0.8622  3.2743  0.8555
 7077SOL    HW222131   1.792   5.209   4.671  0.1466 -1.0894 -1.5820
 7078SOL     OW22132   6.696   6.406   0.601  0.3235  0.0169  0.1035
 7078SOL    HW122133   6.711   6.505   0.603 -0.4303  0.1708 -0.9290
 7078SOL    HW222134   6.755   6.365   0.530 -0.1300 -0.1181 -0.2006
 7079SOL     OW22135   1.800   0.134   4.208 -0.4777 -0.2606  0.4198
 7079SOL    HW122136   1.887   0.100   4.244 -0.3122 -0.5947 -0.2896
 7079SOL    HW222137   1.777   0.086   4.124 -1.5890 -0.5156  0.8472
 7080SOL     OW22138   3.980   1.808   5.015 -0.2492  0.3655  0.0452
 7080SOL    HW122139   3.962   1.813   4.917 -0.7219  1.3889  0.1729
 7080SOL    HW222140   4.020   1.719   5.037  0.6625  0.4404 -1.2053
 7081SOL     OW22141   2.545   6.004   0.721  0.0205 -0.1533  0.1050
 7081SOL    HW122142   2.557   6.056   0.806 -0.5632  0.0826  0.0467
 7081SOL    HW222143   2.617   6.031   0.656 -0.6747  1.1209 -0.1789
 7082SOL     OW22144   6.447   6.033   1.263  0.0638  0.2753  0.9498
 7082SOL    HW122145   6.464   5.999   1.355  0.2875  2.1191  1.6233
 7082SOL    HW222146   6.476   6.128   1.256  0.0557  0.1797 -1.0372
 7083SOL     OW22147   0.706   1.304   4.252 -0.1645  0.0975 -0.3290
 7083SOL    HW122148   0.694   1.377   4.184  0.1905  1.2919  0.8408
 7083SOL    HW222149   0.803   1.295   4.274 -0.3293  0.1575  0.4575
 7084SOL     OW22150   0.439   5.646   1.189  0.3808  0.6118 -0.3277
 7084SOL    HW122151   0.421   5.744   1.179  0.7825  0.7379  0.1825
 7084SOL    HW222152   0.537   5.631   1.197  0.2312  0.5985  3.7286
 7085SOL     OW22153   6.786   1.917   1.964 -0.1411  0.5839 -0.1571
 7085SOL    HW122154   6.763   2.011   1.941 -0.7704  0.5000  0.1057
 7085SOL    HW222155   6.734   1.855   1.905 -0.8290  0.3868  0.6418
 7086SOL     OW22156   5.252   0.065   3.660  0.0795  0.0644  0.3236
 7086SOL    HW122157   5.271   0.065   3.758  1.7527 -1.4167  0.0591
 7086SOL    HW222158   5.237   0.159   3.629  0.0859  0.6117  1.8810
 7087SOL     OW22159   0.936   4.515   4.048  0.0748  0.3777 -0.1143
 7087SOL    HW122160   0.880   4.586   4.005  0.7248  0.5578 -0.6778
 7087SOL    HW222161   1.022   4.506   3.999  0.2893 -0.3281  0.3735
 7088SOL     OW22162   6.310   1.264   5.038  1.0694 -0.1153 -0.0877
 7088SOL    HW122163   6.332   1.254   5.135  2.0254 -1.0082 -0.3749
 7088SOL    HW222164   6.392   1.245   4.984  0.3374 -0.4724 -1.0941
 7089SOL     OW22165   0.361   4.171   2.688  0.0926  0.2396 -0.0276
 7089SOL    HW122166   0.362   4.190   2.590 -0.0392 -0.5906 -0.1909
 7089SOL    HW222167   0.313   4.085   2.706  1.0200 -0.1550  0.6679
 7090SOL     OW22168   2.332   2.290   1.063  0.1622 -0.4197 -0.0461
 7090SOL    HW122169   2.362   2.202   1.024  2.1567 -0.6909  1.9133
 7090SOL    HW222170   2.237   2.282   1.093  0.1144 -1.7217 -0.4653
 7091SOL     OW22171   6.926   1.803   1.648  0.3952 -0.2015 -0.4600
 7091SOL    HW122172   6.958   1.729   1.709 -0.2841 -1.3030 -1.3991
 7091SOL    HW222173   6.971   1.888   1.674  0.8529 -0.8321  0.9659
 7092SOL     OW22174   5.266   5.391   6.730  0.2740 -0.1252 -0.1663
 7092SOL    HW122175   5.318   5.313   6.766 -0.6877 -0.5488  0.3464
 7092SOL    HW222176   5.290   5.405   6.634  0.7687 -0.7795 -0.1497
 7093SOL     OW22177   3.256   3.774   1.744 -0.2582 -0.6420  0.4235
 7093SOL    HW122178   3.303   3.751   1.829 -2.6231  0.5744  2.1677
 7093SOL    HW222179   3.157   3.763   1.756 -1.0077  3.1206 -0.8730
 7094SOL     OW22180   5.949   0.404   6.228 -0.0899  0.1772 -0.7974
 7094SOL    HW122181   5.987   0.332   6.169  1.0841 -0.3643  0.5725
 7094SOL    HW222182   5.912   0.364   6.311 -0.7739  1.0257 -0.6772
 7095SOL     OW22183   3.151   4.815   5.487  0.7680  0.3061 -0.0817
 7095SOL    HW122184   3.137   4.751   5.412  1.4981 -2.0376  1.6658
 7095SOL    HW222185   3.078   4.883   5.487 -0.3342 -0.8002 -1.7287
 7096SOL     OW22186   5.478   0.261   2.407  0.4976 -0.2565  0.7205
 7096SOL    HW122187   5.453   0.348   2.450  2.6474  1.4411 -1.2228
 7096SOL    HW222188   5.406   0.233   2.344  1.3392  2.1910 -1.4705
 7097SOL     OW22189   5.718   5.614   1.660  0.6226 -0.3784  0.1100
 7097SOL    HW122190   5.807   5.606   1.614  0.2524 -0.8080 -0.5506
 7097SOL    HW222191   5.730   5.598   1.758  1.3413 -0.0033  0.0934
 7098SOL     OW22192   0.651   5.502   5.924 -0.7872  0.0216  0.0514
 7098SOL    HW122193   0.644   5.467   5.830 -0.5536  0.2711 -0.0585
 7098SOL    HW222194   0.662   5.425   5.987  0.1476 -0.0905 -0.2316
 7099SOL     OW22195   2.709   1.970   3.561 -0.4470  0.7396 -0.3493
 7099SOL    HW122196   2.655   1.894   3.597 -0.1275  0.3590 -0.6579
 7099SOL    HW222197   2.782   1.934   3.504 -1.0107  1.3428 -1.4714
 7100SOL     OW22198   6.537   3.523   6.806  0.7100 -0.4333  0.3607
 7100SOL    HW122199   6.521   3.438   6.756  4.0592 -0.6907 -0.4946
 7100SOL    HW222200   6.470   3.592   6.777 -1.9941 -2.6216  0.9867
 7101SOL     OW22201   1.754   1.195   4.213  0.1411 -0.3999  0.2556
 7101SOL    HW122202   1.835   1.168   4.161  0.0092 -0.2324 -0.0415
 7101SOL    HW222203   1.775   1.191   4.311  1.2282  1.7452  0.1836
 7102SOL     OW22204   5.840   1.572   0.753  0.2310 -1.0858  0.4680
 7102SOL    HW122205   5.842   1.472   0.761 -0.4449 -1.1984 -0.5068
 7102SOL    HW222206   5.913   1.612   0.808 -0.5495 -2.0172  2.2792
 7103SOL     OW22207   5.240   4.566   1.708 -0.2513  0.0991  0.1856
 7103SOL    HW122208   5.251   4.467   1.692 -1.1514 -0.0983  0.6917
 7103SOL    HW222209   5.290   4.617   1.639  0.1173 -0.7192 -0.1646
 7104SOL     OW22210   0.019   4.745   1.635 -0.5165 -0.0789  0.6103
 7104SOL    HW122211  -0.074   4.776   1.614 -1.2468 -1.3058  1.8903
 7104SOL    HW222212   0.054   4.797   1.712 -0.5194 -0.2982  0.7573
 7105SOL     OW22213   3.686   3.513   4.047  0.5990  0.0847  0.1143
 7105SOL    HW122214   3.764   3.574   4.062  2.5293 -1.6977 -1.8264
 7105SOL    HW222215   3.680   3.447   4.122  1.8654 -0.5970 -0.3478
 7106SOL     OW22216   3.550   3.558   2.287 -0.6202 -0.0336  0.6867
 7106SOL    HW122217   3.643   3.521   2.285 -0.1376  1.1226  1.0999
 7106SOL    HW222218   3.553   3.658   2.280 -1.8890 -0.0287 -0.4356
 7107SOL     OW22219   4.972   6.778   6.713  0.0950 -0.1058  0.4196
 7107SOL    HW122220   5.000   6.733   6.798  2.3024  1.1804  0.4614
 7107SOL    HW222221   4.878   6.752   6.690 -0.4124 -0.8220  3.0153
 7108SOL     OW22222   3.035   6.737   3.006  0.2878 -0.0567 -0.2300
 7108SOL    HW122223   2.983   6.683   2.940  0.4654 -0.6208  0.0844
 7108SOL    HW222224   3.047   6.683   3.090 -0.2263  0.7666  0.3876
 7109SOL     OW22225   2.417   7.006   6.039  0.0791  0.0069  0.6350
 7109SOL    HW122226   2.484   6.997   6.112  1.4969 -0.4182 -0.6557
 7109SOL    HW222227   2.371   7.095   6.045  0.5772  0.1972  1.6910
 7110SOL     OW22228   2.070   6.485   5.833 -0.2149  0.3308 -0.1375
 7110SOL    HW122229   2.105   6.536   5.755  0.3295 -0.9632 -0.7655
 7110SOL    HW222230   1.975   6.511   5.850  0.4294  2.5471  0.4480
 7111SOL     OW22231   1.475   3.063   4.035 -0.1277  0.0743  0.0995
 7111SOL    HW122232   1.502   3.009   3.955 -0.4097 -0.8087  0.5891
 7111SOL    HW222233   1.455   3.002   4.112 -2.1950  0.7556  0.1575
 7112SOL     OW22234   2.744   4.754   4.708 -0.1322 -0.1882  0.2092
 7112SOL    HW122235   2.691   4.836   4.690 -0.3493  0.3581  2.8534
 7112SOL    HW222236   2.697   4.674   4.671 -1.2213  0.6211 -0.1735
 7113SOL     OW22237   4.010   3.225   5.414  0.3856 -0.2882  0.4930
 7113SOL    HW122238   3.986   3.150   5.353 -3.1303  0.0382  1.2905
 7113SOL    HW222239   4.065   3.293   5.365  0.5245 -1.6132 -1.2587
 7114SOL     OW22240   0.540   5.688   6.811  0.4629  0.2409  0.1314
 7114SOL    HW122241   0.475   5.710   6.738  0.1718 -0.8640  0.0446
 7114SOL    HW222242   0.618   5.749   6.804 -0.4854  1.5083  0.1493
 7115SOL     OW22243   5.735   3.431   6.693 -0.2424  0.3099  0.3554
 7115SOL    HW122244   5.764   3.445   6.788  0.6486  1.1162 -0.0205
 7115SOL    HW222245   5.648   3.478   6.678 -0.5700 -0.1178  0.8583
 7116SOL     OW22246   5.125   2.778   3.280 -0.4052  0.2859 -0.0451
 7116SOL    HW122247   5.175   2.853   3.236  0.5749 -0.9424 -1.0910
 7116SOL    HW222248   5.030   2.777   3.247  0.0252  0.0642 -1.3162
 7117SOL     OW22249   0.691   6.941   0.309  0.3508  0.0752  0.0285
 7117SOL    HW122250   0.787   6.958   0.285  0.4914 -0.7869 -0.0762
 7117SOL    HW222251   0.639   6.922   0.225  0.3352 -0.5759  0.1809
 7118SOL     OW22252   5.226   6.218   5.732  0.1147  0.2661 -0.3549
 7118SOL    HW122253   5.323   6.211   5.754  0.1394  1.6272  0.0191
 7118SOL    HW222254   5.215   6.247   5.637  0.1340  1.9535  0.1210
 7119SOL     OW22255   6.044   1.888   4.943  0.4532  0.4045 -0.2264
 7119SOL    HW122256   6.013   1.973   4.984  0.5724 -0.2394  1.2772
 7119SOL    HW222257   5.968   1.844   4.895 -0.1185  0.4280  0.6429
 7120SOL     OW22258   3.307   1.414   2.219  0.3678 -0.1340  0.0203
 7120SOL    HW122259   3.380   1.392   2.284  0.9943 -0.1169 -0.6617
 7120SOL    HW222260   3.334   1.494   2.165  0.0986 -0.4785 -0.6287
 7121SOL     OW22261   0.298   0.018   4.169  0.2874  0.4616  0.4811
 7121SOL    HW122262   0.306   0.024   4.069  0.2251  1.0314  0.5036
 7121SOL    HW222263   0.245  -0.063   4.194  1.3889 -0.3906  0.1078
 7122SOL     OW22264   2.175   1.256   6.380  0.2598  0.5332 -0.4839
 7122SOL    HW122265   2.110   1.330   6.364 -0.2677  0.2527  0.2682
 7122SOL    HW222266   2.185   1.241   6.478  1.3650  0.4724 -0.5905
 7123SOL     OW22267   0.461   5.902   4.387 -0.1208 -0.1618 -0.8858
 7123SOL    HW122268   0.397   5.836   4.426 -0.2233 -0.8791 -2.2061
 7123SOL    HW222269   0.459   5.987   4.440 -0.4449 -0.9835  0.4754
 7124SOL     OW22270   5.897   1.331   1.868 -0.0505 -0.4191  0.0447
 7124SOL    HW122271   5.974   1.394   1.868 -0.8670  0.6227 -0.4806
 7124SOL    HW222272   5.820   1.373   1.820 -0.6119 -1.8441 -0.3580
 7125SOL     OW22273   0.942   6.514   0.784  0.2053 -0.3018 -0.0433
 7125SOL    HW122274   0.911   6.419   0.785  0.7834 -0.5511 -2.1507
 7125SOL    HW222275   1.021   6.523   0.723  1.3236  1.2088  1.5233
 7126SOL     OW22276   3.459   4.265   0.314  0.0562  0.2626 -0.8122
 7126SOL    HW122277   3.458   4.333   0.387  0.6656 -0.6737  0.0850
 7126SOL    HW222278   3.365   4.247   0.284 -0.0967  1.5968 -1.1694
 7127SOL     OW22279   1.303   5.257   6.570  0.0084 -0.0461  0.6531
 7127SOL    HW122280   1.278   5.242   6.666 -2.7174 -0.7715 -0.0850
 7127SOL    HW222281   1.317   5.355   6.555  1.9094 -0.0407  2.0378
 7128SOL     OW22282   4.342   0.777   7.005 -0.0013 -0.0797 -0.0144
 7128SOL    HW122283   4.305   0.731   6.925  0.8079 -0.0646 -0.4059
 7128SOL    HW222284   4.272   0.836   7.045 -0.4300 -0.1389 -0.6693
 7129SOL     OW22285   4.070   2.192   3.469  1.0852 -0.0604 -0.4989
 7129SOL    HW122286   3.991   2.137   3.442  1.1015 -0.8539  0.9764
 7129SOL    HW222287   4.115   2.227   3.387 -1.5007  1.5072 -1.4014
 7130SOL     OW22288   4.459   5.998   3.379 -0.1489  0.3381  0.5208
 7130SOL    HW122289   4.415   5.943   3.450 -0.2736  0.6750  0.7074
 7130SOL    HW222290   4.419   5.976   3.290  1.6102 -1.8142  0.1784
 7131SOL     OW22291   4.625   1.303   1.654 -0.2008  0.1108 -0.6865
 7131SOL    HW122292   4.564   1.382   1.658 -0.1362  0.1295 -0.0005
 7131SOL    HW222293   4.642   1.279   1.558 -0.1266  0.9985 -0.9027
 7132SOL     OW22294   2.880   3.767   0.641  0.0673 -0.4794 -0.0380
 7132SOL    HW122295   2.900   3.717   0.557  2.5451 -1.0695  0.8334
 7132SOL    HW222296   2.866   3.864   0.619 -2.9279 -1.1046 -1.5017
 7133SOL     OW22297   3.656   3.938   5.278  0.0496 -0.1377  0.1213
 7133SOL    HW122298   3.594   3.954   5.355  2.3537  1.4952  1.7884
 7133SOL    HW222299   3.631   3.999   5.202 -1.1787 -0.5011  0.2051
 7134SOL     OW22300   4.339   6.409   1.253 -0.6106  0.0668 -0.1468
 7134SOL    HW122301   4.320   6.444   1.162  1.9352  1.4039 -0.2486
 7134SOL    HW222302   4.340   6.485   1.318 -1.5008 -0.7520  0.8494
 7135SOL     OW22303   1.842   2.342   1.918 -0.1426 -0.4319 -0.2323
 7135SOL    HW122304   1.789   2.261   1.894  1.7448 -1.3740 -1.5444
 7135SOL    HW222305   1.916   2.316   1.979  1.3366 -0.0475 -1.7670
 7136SOL     OW22306   3.734   1.332   0.959 -0.1958  0.4369  0.3563
 7136SOL    HW122307   3.680   1.405   1.001  0.0986  0.2736  1.0275
 7136SOL    HW222308   3.683   1.246   0.964 -0.8388  0.7045 -1.0413
 7137SOL     OW22309   3.106   2.195   0.105 -0.3772 -0.2157  0.0854
 7137SOL    HW122310   3.132   2.198   0.201 -0.3372  2.7650  0.0757
 7137SOL    HW222311   3.094   2.288   0.070  0.6222 -1.1192 -3.0963
 7138SOL     OW22312   2.086   1.015   2.075 -0.7012  0.3042  0.2821
 7138SOL    HW122313   2.096   1.072   2.156  0.6518  0.2131  0.2059
 7138SOL    HW222314   2.108   1.069   1.994  0.8479 -0.3546  0.2317
 7139SOL     OW22315   3.823   6.765   2.397  0.3206 -0.0203 -0.0449
 7139SOL    HW122316   3.803   6.695   2.466 -0.7315 -0.7037 -1.0026
 7139SOL    HW222317   3.778   6.741   2.312  1.5358  0.8532 -0.9642
 7140SOL     OW22318   5.864   2.646   1.102  0.2940 -0.3434 -0.5108
 7140SOL    HW122319   5.785   2.682   1.151  2.1344  0.2192  2.2458
 7140SOL    HW222320   5.861   2.546   1.102 -0.5715 -0.3282 -0.7711
 7141SOL     OW22321   2.980   5.914   6.879 -0.2774  0.2299  0.3899
 7141SOL    HW122322   3.063   5.874   6.840 -0.9003 -0.2609 -0.4738
 7141SOL    HW222323   2.908   5.845   6.881 -1.6928  1.4785 -2.0851
 7142SOL     OW22324   4.855   5.313   3.404  0.1070  0.2003 -0.2293
 7142SOL    HW122325   4.834   5.253   3.327 -0.1334  0.1542 -0.1283
 7142SOL    HW222326   4.864   5.258   3.487 -1.3828  0.4250  0.1123
 7143SOL     OW22327   3.572   2.473   0.270  0.3214 -0.2155 -0.1248
 7143SOL    HW122328   3.492   2.482   0.330  1.4212 -0.9850  1.5319
 7143SOL    HW222329   3.546   2.498   0.177 -2.1872 -1.6745  0.0934
 7144SOL     OW22330   1.881   5.950   3.312  0.0980 -0.4259 -0.6580
 7144SOL    HW122331   1.867   6.048   3.299 -1.2318 -0.5434 -0.2692
 7144SOL    HW222332   1.926   5.933   3.399  0.2416 -0.1706 -0.6815
 7145SOL     OW22333   4.927   0.795   0.712 -0.3486 -0.2927  0.6073
 7145SOL    HW122334   4.989   0.796   0.790  1.5362  1.3197 -0.8132
 7145SOL    HW222335   4.888   0.887   0.699 -2.2423 -1.0179  0.8079
 7146SOL     OW22336   2.933   1.659   4.590  0.1798  0.1372 -0.3442
 7146SOL    HW122337   2.904   1.748   4.556  0.3269  0.7440  1.0809
 7146SOL    HW222338   2.969   1.668   4.682 -1.5829 -1.6645  0.6001
 7147SOL     OW22339   5.619   4.216   4.050 -0.2562 -0.1626  0.2159
 7147SOL    HW122340   5.671   4.301   4.037 -0.6109  0.2924  1.6329
 7147SOL    HW222341   5.522   4.237   4.060 -0.1786 -0.5289  2.2086
 7148SOL     OW22342   6.024   4.578   0.767 -0.4035 -0.7356 -0.1087
 7148SOL    HW122343   5.995   4.530   0.849  0.3748  0.8033  1.1283
 7148SOL    HW222344   5.968   4.660   0.755 -0.0608 -0.5879 -0.7183
 7149SOL     OW22345   1.574   5.337   6.383  0.3221 -0.3183  0.2240
 7149SOL    HW122346   1.621   5.415   6.341  0.6274 -1.4293 -1.6149
 7149SOL    HW222347   1.486   5.324   6.338 -0.2276 -0.3657  1.2922
 7150SOL     OW22348   3.788   3.993   6.951 -0.1950  0.0909  0.1429
 7150SOL    HW122349   3.740   4.073   6.915  1.3675  0.5039 -1.1722
 7150SOL    HW222350   3.771   3.984   7.049 -0.6517  1.8473  0.2523
 7151SOL     OW22351   5.094   6.400   1.800 -0.1786  0.8824 -0.8257
 7151SOL    HW122352   5.040   6.479   1.773  0.9268  1.0514 -2.6899
 7151SOL    HW222353   5.122   6.348   1.719 -2.4846 -2.6092  0.3823
 7152SOL     OW22354   5.518   1.520   0.189 -0.6842  0.3400  0.3147
 7152SOL    HW122355   5.421   1.532   0.209 -0.5505  0.2444  1.0563
 7152SOL    HW222356   5.571   1.529   0.274 -0.2050 -1.3515  0.2481
 7153SOL     OW22357   6.012   3.430   2.446 -0.0438 -0.1076 -0.1205
 7153SOL    HW122358   5.935   3.482   2.482  0.0688  0.0114 -0.0485
 7153SOL    HW222359   5.981   3.370   2.373  0.1223  1.4000 -1.4802
 7154SOL     OW22360   6.400   6.780   4.890 -0.7944 -0.5057 -0.4648
 7154SOL    HW122361   6.338   6.743   4.959 -1.5565 -2.2462 -2.0072
 7154SOL    HW222362   6.366   6.869   4.859 -1.1207 -0.2860  0.4745
 7155SOL     OW22363   2.313   4.395   2.067  0.0935 -0.0881 -0.8327
 7155SOL    HW122364   2.351   4.487   2.054 -2.2927  0.8946 -1.4826
 7155SOL    HW222365   2.229   4.386   2.013 -0.8313 -1.9678  0.7836
 7156SOL     OW22366   6.389   3.407   1.916  0.0004 -0.8311 -0.2637
 7156SOL    HW122367   6.290   3.409   1.929 -0.1065 -1.4846 -0.8966
 7156SOL    HW222368   6.411   3.431   1.822  0.6386  1.9191  0.4955
 7157SOL     OW22369   5.077   4.071   0.715  0.1510  0.0856  0.2114
 7157SOL    HW122370   5.018   4.129   0.772 -0.6005 -1.1038  0.6828
 7157SOL    HW222371   5.118   4.000   0.772  1.5952  0.5334 -0.2330
 7158SOL     OW22372   1.090   6.160   2.914 -0.5160 -0.2451 -0.3985
 7158SOL    HW122373   1.163   6.138   2.849 -0.7843 -0.0979 -0.7531
 7158SOL    HW222374   1.131   6.187   3.002 -0.1373  0.1211 -0.6852
 7159SOL     OW22375   0.240   4.635   5.543  0.3802  0.3240  0.3997
 7159SOL    HW122376   0.285   4.580   5.613  1.4306 -1.2981 -1.4587
 7159SOL    HW222377   0.303   4.651   5.467 -1.3480  0.1873 -1.1296
 7160SOL     OW22378   5.397   6.771   2.598 -0.9358 -0.5838  0.3596
 7160SOL    HW122379   5.338   6.837   2.644 -2.4872 -1.6083 -0.0940
 7160SOL    HW222380   5.474   6.819   2.556 -2.6573  1.1195 -1.0227
 7161SOL     OW22381   3.899   3.080   3.605 -0.2196 -0.7924  0.6790
 7161SOL    HW122382   3.941   3.115   3.521  1.3483 -2.5097  0.6801
 7161SOL    HW222383   3.810   3.040   3.583  0.2088 -1.3024 -0.2161
 7162SOL     OW22384   1.047   5.423   6.684 -0.0883 -0.3019  0.2803
 7162SOL    HW122385   1.021   5.457   6.593 -0.3066 -0.4621  0.2813
 7162SOL    HW222386   1.135   5.374   6.677 -0.1641 -0.4195  0.1310
 7163SOL     OW22387   2.991   0.274   3.003 -0.2821  0.2818 -0.5844
 7163SOL    HW122388   2.967   0.346   2.938  0.9439  0.7248 -0.5741
 7163SOL    HW222389   2.974   0.185   2.962 -1.3764  0.5626 -0.7719
 7164SOL     OW22390   2.448   6.679   4.540 -0.4562  0.6712  0.1384
 7164SOL    HW122391   2.537   6.686   4.586 -0.0394  1.0568 -0.7129
 7164SOL    HW222392   2.445   6.742   4.462 -0.8470 -0.5273 -0.8516
 7165SOL     OW22393   5.473   1.010   1.795  0.7929  0.2690 -0.1269
 7165SOL    HW122394   5.413   1.035   1.719  1.6368  1.2348 -0.5035
 7165SOL    HW222395   5.566   1.043   1.777  1.6140 -1.7291  0.1423
 7166SOL     OW22396   5.589   2.050   0.936  0.3783 -0.5711 -0.3157
 7166SOL    HW122397   5.663   1.983   0.947  1.1431  0.1777 -0.7081
 7166SOL    HW222398   5.601   2.124   1.003 -0.4627 -0.8183  0.1205
 7167SOL     OW22399   4.883   4.314   4.469 -0.2484 -0.2730 -0.0698
 7167SOL    HW122400   4.938   4.320   4.552  0.6980 -0.4914 -0.6694
 7167SOL    HW222401   4.810   4.382   4.472 -1.7535 -1.8405  2.0371
 7168SOL     OW22402   1.315   3.338   4.510 -0.0110  0.1656  0.5447
 7168SOL    HW122403   1.245   3.268   4.500  0.1387  0.0084  0.5830
 7168SOL    HW222404   1.274   3.423   4.541 -0.5018  0.6500 -1.2903
 7169SOL     OW22405   5.666   5.965   5.136 -0.3413  0.0499  0.0504
 7169SOL    HW122406   5.579   5.997   5.174  0.6316  1.4906  1.1761
 7169SOL    HW222407   5.676   5.997   5.042 -0.3444  1.2436  0.4455
 7170SOL     OW22408   3.063   5.622   1.416  0.0601  0.1862  0.0928
 7170SOL    HW122409   3.054   5.549   1.347 -1.5255 -0.1377  0.5993
 7170SOL    HW222410   2.997   5.694   1.397  1.0293  1.0962  0.1059
 7171SOL     OW22411   6.064   3.869   5.718  0.2301  0.2926 -0.2548
 7171SOL    HW122412   6.097   3.919   5.638 -0.4000 -2.2133 -2.2041
 7171SOL    HW222413   6.141   3.824   5.763  0.1652 -2.2593 -2.4351
 7172SOL     OW22414   2.210   6.926   4.710  0.5429  0.0158  0.0845
 7172SOL    HW122415   2.142   6.956   4.777 -1.6544 -2.2480 -0.9326
 7172SOL    HW222416   2.301   6.953   4.739 -0.6841  2.5975  1.9021
 7173SOL     OW22417   6.503   5.986   6.041  0.9515  0.3993 -0.5834
 7173SOL    HW122418   6.543   6.068   5.999  0.8100  0.2262 -1.0497
 7173SOL    HW222419   6.577   5.925   6.071  1.0745  1.0126  0.3995
 7174SOL     OW22420   6.975   5.559   1.229  0.4436  0.5258  0.0010
 7174SOL    HW122421   7.028   5.591   1.150 -0.7062  0.1360 -0.9639
 7174SOL    HW222422   6.922   5.634   1.267  0.4281  0.5576 -0.0823
 7175SOL     OW22423   5.557   2.544   3.840 -0.1386 -0.2771 -0.0587
 7175SOL    HW122424   5.477   2.488   3.865 -0.5119 -0.0707 -0.7534
 7175SOL    HW222425   5.545   2.636   3.876  0.4647 -0.6284  1.0657
 7176SOL     OW22426   0.739   1.663   1.822 -0.2865 -0.5471  0.3912
 7176SOL    HW122427   0.810   1.694   1.758  0.0732 -0.1272  0.9876
 7176SOL    HW222428   0.672   1.736   1.835 -2.1035 -1.6332 -1.8535
 7177SOL     OW22429   2.082   4.937   4.908 -0.2725  0.7410 -0.4006
 7177SOL    HW122430   2.107   4.933   5.004 -1.9234 -1.3634  0.0130
 7177SOL    HW222431   2.146   4.883   4.854 -0.3873  0.4011 -0.2026
 7178SOL     OW22432   6.982   2.329   5.810 -0.7824  0.0603 -0.6199
 7178SOL    HW122433   6.964   2.358   5.904  0.8108 -0.8229 -0.0030
 7178SOL    HW222434   7.081   2.324   5.795 -0.9001 -3.4946 -1.1139
 7179SOL     OW22435   2.174   6.224   2.515 -0.5708  0.4037 -0.0546
 7179SOL    HW122436   2.121   6.228   2.600 -3.0258 -0.9033 -1.4347
 7179SOL    HW222437   2.124   6.269   2.442  0.3792 -0.5764 -1.3519
 7180SOL     OW22438   0.332   3.334   6.952  0.8551  0.0635 -0.0163
 7180SOL    HW122439   0.331   3.407   6.884  2.6020 -0.5892 -0.7846
 7180SOL    HW222440   0.341   3.246   6.906 -2.7678 -0.8703  0.7763
 7181SOL     OW22441   2.774   5.874   1.665  0.5744 -0.2140 -0.3851
 7181SOL    HW122442   2.727   5.851   1.580  0.0445  2.8982 -1.0752
 7181SOL    HW222443   2.843   5.944   1.647 -0.3384  1.3873  1.8692
 7182SOL     OW22444   6.558   4.512   2.821 -0.5903  0.0529 -0.2800
 7182SOL    HW122445   6.560   4.452   2.901 -3.7922 -0.2201 -0.2875
 7182SOL    HW222446   6.600   4.600   2.845  0.0164 -0.5936  1.1582
 7183SOL     OW22447   2.055   6.649   3.109 -0.3611  0.2032  0.0058
 7183SOL    HW122448   2.151   6.652   3.081 -0.8065  1.0852 -1.5111
 7183SOL    HW222449   2.020   6.743   3.118 -0.6905 -0.0638  2.0625
 7184SOL     OW22450   1.929   1.818   2.286  0.1311  0.5856 -0.0475
 7184SOL    HW122451   1.844   1.848   2.330 -0.2966 -0.4742 -0.1244
 7184SOL    HW222452   2.004   1.876   2.315 -0.9780  3.0165 -1.6983
 7185SOL     OW22453   5.745   6.410   3.477 -0.8138  0.3567  0.0681
 7185SOL    HW122454   5.778   6.493   3.432 -2.5853  1.0686  0.0374
 7185SOL    HW222455   5.815   6.377   3.541  1.3966 -0.1610 -2.4372
 7186SOL     OW22456   0.704   1.908   0.269 -0.7743  0.0876 -0.1932
 7186SOL    HW122457   0.686   1.938   0.175  0.0525 -1.3411 -0.8333
 7186SOL    HW222458   0.781   1.959   0.306 -1.1115  0.6675 -0.2725
 7187SOL     OW22459   1.443   3.545   6.386 -0.0131  0.0129  0.3234
 7187SOL    HW122460   1.490   3.628   6.357  0.8390 -0.5648 -0.0076
 7187SOL    HW222461   1.500   3.496   6.452  0.4800 -1.3512 -1.0385
 7188SOL     OW22462   3.780   5.473   0.820 -0.1350  0.2726 -0.4445
 7188SOL    HW122463   3.777   5.572   0.806 -1.2955  0.1505 -1.1500
 7188SOL    HW222464   3.851   5.433   0.763 -1.1866  0.4379 -1.9043
 7189SOL     OW22465   0.269   2.252   6.983 -0.1161  0.2501  0.5207
 7189SOL    HW122466   0.291   2.168   7.033  1.1272  0.0231 -0.3840
 7189SOL    HW222467   0.173   2.251   6.957 -0.1143 -0.8733  0.5403
 7190SOL     OW22468   4.810   3.855   1.883  0.2720 -0.1681  0.3088
 7190SOL    HW122469   4.760   3.930   1.927  0.8818 -0.0762  0.8580
 7190SOL    HW222470   4.904   3.884   1.863  0.2455 -0.4856 -0.3058
 7191SOL     OW22471   6.890   5.296   2.949  0.8241 -0.2027 -0.2219
 7191SOL    HW122472   6.826   5.291   2.872  1.0563  0.4187 -0.4589
 7191SOL    HW222473   6.983   5.281   2.915  0.8799 -0.3630  0.0053
 7192SOL     OW22474   1.510   2.638   0.873  0.0961 -0.4861  0.0845
 7192SOL    HW122475   1.498   2.734   0.848  0.2720 -0.5941 -0.4344
 7192SOL    HW222476   1.425   2.589   0.858  0.0151 -0.4212  0.3206
 7193SOL     OW22477   1.400   1.632   1.477  0.5940  0.8941 -0.7476
 7193SOL    HW122478   1.421   1.582   1.561 -0.1008  2.1548  0.2181
 7193SOL    HW222479   1.456   1.597   1.402 -0.6887 -2.1396 -0.4559
 7194SOL     OW22480   0.333   3.102   6.781  0.2605  0.1112  0.6839
 7194SOL    HW122481   0.380   3.101   6.693 -1.9024 -0.2098 -0.5553
 7194SOL    HW222482   0.237   3.078   6.767 -0.4393  1.2994  2.9807
 7195SOL     OW22483   1.239   4.901   1.508  0.5246 -0.2286  0.1388
 7195SOL    HW122484   1.262   4.805   1.494  1.2406 -0.0819  0.2600
 7195SOL    HW222485   1.281   4.956   1.436  1.1754  0.1245  0.7723
 7196SOL     OW22486   1.961   3.161   1.305 -0.0102  0.1011  0.2609
 7196SOL    HW122487   1.899   3.225   1.349  0.7576  0.5890  0.6547
 7196SOL    HW222488   1.981   3.085   1.367 -0.7953 -0.4455 -0.1462
 7197SOL     OW22489   1.485   3.513   6.695 -0.0230 -0.3627 -0.3433
 7197SOL    HW122490   1.518   3.421   6.672 -1.1634 -0.5549 -1.3280
 7197SOL    HW222491   1.412   3.506   6.763 -1.9571 -0.4614 -2.3309
 7198SOL     OW22492   1.356   0.714   1.384 -0.4796  0.3636 -0.2688
 7198SOL    HW122493   1.380   0.617   1.391  0.7175  0.5247 -1.6999
 7198SOL    HW222494   1.257   0.724   1.389 -0.5554 -0.7519  1.5509
 7199SOL     OW22495   1.513   0.220   5.086  0.0800  0.1365  0.0834
 7199SOL    HW122496   1.488   0.124   5.079 -1.0692  0.5309 -1.7792
 7199SOL    HW222497   1.454   0.265   5.154 -1.2161  0.0588 -0.9522
 7200SOL     OW22498   4.027   1.378   0.116  0.4438 -0.2571  0.2939
 7200SOL    HW122499   4.021   1.281   0.091  0.7185 -0.6546  1.6803
 7200SOL    HW222500   3.976   1.433   0.050 -0.5371 -1.4429  0.0402
 7201SOL     OW22501   1.519   4.630   2.972 -0.2103 -0.0694 -0.6568
 7201SOL    HW122502   1.440   4.574   2.996  0.1465 -0.4375 -0.3145
 7201SOL    HW222503   1.600   4.572   2.966  0.3068  0.5129  0.4239
 7202SOL     OW22504   4.230   0.264   0.162 -0.2739  0.6434 -0.3361
 7202SOL    HW122505   4.255   0.289   0.256  0.6811  0.6982 -0.5940
 7202SOL    HW222506   4.287   0.316   0.098 -1.6872  1.4397 -0.9747
 7203SOL     OW22507   6.583   1.216   0.324  0.4297  0.0110  0.0531
 7203SOL    HW122508   6.656   1.161   0.365  1.8639  0.9570 -1.1314
 7203SOL    HW222509   6.563   1.293   0.384  0.6541 -0.0598  0.2238
 7204SOL     OW22510   0.258   0.514   6.300 -0.1070  0.1922  0.4780
 7204SOL    HW122511   0.288   0.516   6.205 -2.6551 -0.3901 -0.4125
 7204SOL    HW222512   0.257   0.606   6.337  0.2049  0.5166 -0.3070
 7205SOL     OW22513   0.803   6.197   5.184  0.1335 -0.2047  0.2826
 7205SOL    HW122514   0.712   6.156   5.177 -1.5659  3.1841  0.5291
 7205SOL    HW222515   0.846   6.198   5.094  0.5154 -2.8809  0.3640
 7206SOL     OW22516   0.277   0.453   3.146 -0.0404  0.6840  0.1553
 7206SOL    HW122517   0.290   0.354   3.143  0.4927  0.6573  2.0600
 7206SOL    HW222518   0.179   0.474   3.139 -0.0897  0.0935 -1.1057
 7207SOL     OW22519   2.747   0.756   3.479 -0.4777  0.0403  0.4520
 7207SOL    HW122520   2.759   0.853   3.458  0.1090 -0.1375 -0.0577
 7207SOL    HW222521   2.806   0.701   3.420 -0.3770 -0.5940  1.1233
 7208SOL     OW22522   6.560   6.062   4.965  0.1573 -0.0369 -0.0323
 7208SOL    HW122523   6.538   5.990   5.031  1.5183  0.0340  0.5156
 7208SOL    HW222524   6.657   6.058   4.943  0.1438  1.3217 -0.3919
 7209SOL     OW22525   0.368   5.251   0.481  0.7453 -0.3205 -0.4141
 7209SOL    HW122526   0.428   5.328   0.499 -0.8092  0.8902 -0.1529
 7209SOL    HW222527   0.406   5.195   0.407  2.5138 -0.0336  0.2463
 7210SOL     OW22528   5.692   2.606   3.356 -0.0013  0.2403 -0.2115
 7210SOL    HW122529   5.618   2.597   3.422  0.3462 -1.5590 -0.0302
 7210SOL    HW222530   5.761   2.669   3.391 -0.9989  1.2458  0.0056
 7211SOL     OW22531   1.503   0.379   5.835 -0.1564 -0.2825 -0.0006
 7211SOL    HW122532   1.493   0.468   5.879  0.5331 -0.5244  0.6611
 7211SOL    HW222533   1.418   0.355   5.788 -0.9880 -0.0994  1.3633
 7212SOL     OW22534   0.505   2.164   6.258 -0.7468 -0.4379 -0.2594
 7212SOL    HW122535   0.528   2.206   6.345 -0.2158  1.3107 -1.2024
 7212SOL    HW222536   0.406   2.167   6.244 -0.6215  2.4788 -1.1826
 7213SOL     OW22537   3.994   6.673   6.058 -0.0054  0.2648 -0.3503
 7213SOL    HW122538   4.040   6.753   6.018  0.2212  1.3066  1.8667
 7213SOL    HW222539   4.023   6.591   6.009  1.0166  1.3492 -1.6584
 7214SOL     OW22540   0.628   6.725   5.495 -0.0126  0.4451  0.2553
 7214SOL    HW122541   0.685   6.737   5.414 -1.5419 -0.9599 -1.1051
 7214SOL    HW222542   0.656   6.642   5.543 -1.6404 -1.0167 -1.1685
 7215SOL     OW22543   6.581   3.880   3.372  0.4221 -0.6487 -0.0390
 7215SOL    HW122544   6.499   3.864   3.316 -0.2903 -0.8363  1.0336
 7215SOL    HW222545   6.554   3.907   3.464  1.5883  0.1745  0.0806
 7216SOL     OW22546   2.646   6.421   0.840 -0.3643  0.4046 -0.2384
 7216SOL    HW122547   2.660   6.395   0.744  1.1553  1.3587 -0.2986
 7216SOL    HW222548   2.607   6.513   0.844  0.7581  0.8765  0.0665
 7217SOL     OW22549   1.088   3.217   4.209 -0.6777 -0.2358 -0.1665
 7217SOL    HW122550   1.118   3.178   4.296  0.0820  1.8005  0.5467
 7217SOL    HW222551   0.989   3.207   4.200 -0.7225 -0.7487  0.7964
 7218SOL     OW22552   0.692   3.551   3.711  0.6140 -0.3076 -0.3840
 7218SOL    HW122553   0.734   3.573   3.799 -0.6463  0.5678  0.0186
 7218SOL    HW222554   0.596   3.527   3.725  0.1900  0.5751 -1.5968
 7219SOL     OW22555   4.287   1.625   2.892 -0.1738  0.1284  0.5773
 7219SOL    HW122556   4.331   1.603   2.979 -1.1795  1.7352  1.5369
 7219SOL    HW222557   4.322   1.712   2.857 -0.7390  0.1587  0.0633
 7220SOL     OW22558   5.670   4.552   4.709  0.3546  0.7818 -0.3041
 7220SOL    HW122559   5.607   4.556   4.631 -1.6583  0.7233  1.2265
 7220SOL    HW222560   5.718   4.640   4.718 -0.3646  1.2405 -0.8504
 7221SOL     OW22561   2.976   6.828   6.673  0.2731 -0.0075  0.1538
 7221SOL    HW122562   2.968   6.921   6.708  0.8951 -0.2373  0.9398
 7221SOL    HW222563   3.054   6.822   6.611  0.5496 -0.1199  0.5097
 7222SOL     OW22564   0.437   0.611   3.303 -0.6532 -0.3795 -0.0077
 7222SOL    HW122565   0.511   0.627   3.239 -0.7798 -0.0887 -0.0834
 7222SOL    HW222566   0.372   0.545   3.264  0.4687 -2.0248  0.7767
 7223SOL     OW22567   4.701   1.595   1.539  0.7208 -0.9002  0.0638
 7223SOL    HW122568   4.642   1.578   1.618  2.3739  0.7842  1.7805
 7223SOL    HW222569   4.670   1.676   1.490  0.1977 -1.4487 -0.5274
 7224SOL     OW22570   5.060   3.098   4.019 -0.5210  0.2888 -0.0153
 7224SOL    HW122571   5.068   3.119   4.116 -1.4308 -1.8349  0.5837
 7224SOL    HW222572   5.151   3.097   3.977  0.0174 -0.0746  1.1231
 7225SOL     OW22573   6.892   5.719   0.994  0.6243 -0.1845  0.1802
 7225SOL    HW122574   6.822   5.660   1.032  1.5889 -1.2313  0.3778
 7225SOL    HW222575   6.851   5.807   0.968 -0.5824 -0.4728  1.0296
 7226SOL     OW22576   5.109   5.996   0.791  0.2729 -0.4178  0.3712
 7226SOL    HW122577   5.171   6.062   0.835  0.8631 -1.3752  1.0119
 7226SOL    HW222578   5.079   6.033   0.703  0.2247  0.9051  0.9133
 7227SOL     OW22579   0.808   2.973   0.172 -0.1659 -0.4566 -0.5249
 7227SOL    HW122580   0.757   3.045   0.220 -0.3127 -3.3510  4.2924
 7227SOL    HW222581   0.906   2.985   0.188 -0.0874 -0.5000 -0.9753
 7228SOL     OW22582   0.747   3.230   2.506 -0.2502 -0.0479 -0.5858
 7228SOL    HW122583   0.656   3.263   2.531 -0.6329  1.4458 -3.5848
 7228SOL    HW222584   0.759   3.136   2.540 -1.9453  0.5292  1.8605
 7229SOL     OW22585   1.690   6.357   5.094  0.4389  0.0744  0.5419
 7229SOL    HW122586   1.607   6.303   5.080 -0.4508  1.3789  0.5329
 7229SOL    HW222587   1.675   6.450   5.060  1.5981  0.5753  1.3275
 7230SOL     OW22588   4.671   4.929   4.373 -0.0361  0.1996 -0.1747
 7230SOL    HW122589   4.640   4.878   4.454 -0.1119  0.8277  0.1944
 7230SOL    HW222590   4.687   4.865   4.298 -2.1500 -0.1906 -0.3724
 7231SOL     OW22591   1.858   6.364   4.764  0.2680  0.1506 -0.0829
 7231SOL    HW122592   1.899   6.385   4.675  0.4435 -2.7490 -0.8006
 7231SOL    HW222593   1.900   6.281   4.801 -3.3653 -1.8484  0.1180
 7232SOL     OW22594   5.946   5.014   0.614  0.0682 -0.5732 -0.4482
 7232SOL    HW122595   5.984   5.003   0.522 -0.5809 -0.3794 -0.7514
 7232SOL    HW222596   5.961   5.107   0.646 -1.9060  0.1389 -1.4204
 7233SOL     OW22597   1.786   0.348   2.456 -0.3933 -0.2765  0.1488
 7233SOL    HW122598   1.884   0.363   2.467 -0.0707 -1.1358 -1.1900
 7233SOL    HW222599   1.771   0.279   2.385 -2.0173  1.3976 -1.2498
 7234SOL     OW22600   4.308   0.994   4.618 -0.1833  0.2570  0.4556
 7234SOL    HW122601   4.376   0.923   4.600 -0.1182 -0.1686  2.2107
 7234SOL    HW222602   4.223   0.971   4.571  0.3986  0.0159 -0.5219
 7235SOL     OW22603   5.883   4.643   3.007  0.5126 -0.4059 -0.3615
 7235SOL    HW122604   5.820   4.615   3.080  1.5592  0.4223  0.8997
 7235SOL    HW222605   5.892   4.743   3.007  0.6176 -0.3959 -1.5759
 7236SOL     OW22606   1.277   3.984   1.155  0.2180 -0.0894 -0.1757
 7236SOL    HW122607   1.333   3.918   1.105  0.0996  0.6143 -1.2684
 7236SOL    HW222608   1.190   3.996   1.109 -0.0690  0.2714  0.4415
 7237SOL     OW22609   3.480   6.395   5.491  0.3044 -0.0080 -0.0200
 7237SOL    HW122610   3.575   6.400   5.459  0.4136  1.8352  0.5112
 7237SOL    HW222611   3.468   6.311   5.544  1.0305 -1.3827 -1.8915
 7238SOL     OW22612   4.280   2.092   5.378  0.7751 -0.4567 -0.0977
 7238SOL    HW122613   4.256   2.054   5.288  4.0776  1.0776 -1.7918
 7238SOL    HW222614   4.327   2.021   5.431 -0.7566 -1.2250  0.2899
 7239SOL     OW22615   5.204   3.113   6.986 -1.0769  0.4436  0.1077
 7239SOL    HW122616   5.192   3.098   7.084  0.1458  1.1894  0.4055
 7239SOL    HW222617   5.202   3.212   6.967  0.5750  0.4444 -0.2852
 7240SOL     OW22618   1.150   2.828   3.717 -0.0664  0.5150 -0.3345
 7240SOL    HW122619   1.208   2.748   3.703  1.2155  1.1469  1.1025
 7240SOL    HW222620   1.198   2.910   3.687 -1.0549  0.8435 -1.0554
 7241SOL     OW22621   1.509   1.265   1.137 -0.0187  0.4332 -0.1160
 7241SOL    HW122622   1.419   1.232   1.108 -0.8508  1.0508  1.5867
 7241SOL    HW222623   1.552   1.316   1.063 -1.1544  0.2985 -0.8918
 7242SOL     OW22624   5.991   5.345   5.943  0.0488  0.4384  0.2320
 7242SOL    HW122625   6.087   5.363   5.924  0.1325 -0.7614 -0.5892
 7242SOL    HW222626   5.934   5.412   5.895  0.4487  1.1458  0.7132
 7243SOL     OW22627   5.500   4.908   5.382 -0.3766  0.3286 -0.7493
 7243SOL    HW122628   5.417   4.853   5.378 -0.9661  1.2250 -1.5162
 7243SOL    HW222629   5.565   4.868   5.447 -2.0007  0.4167  0.9920
 7244SOL     OW22630   6.993   0.176   3.180 -0.7740 -0.9317 -0.0066
 7244SOL    HW122631   6.996   0.141   3.274 -3.0958  0.1090  0.5303
 7244SOL    HW222632   7.016   0.103   3.116 -0.3538 -1.9770  1.2978
 7245SOL     OW22633   0.616   2.340   4.776 -0.0712  0.0394  0.0086
 7245SOL    HW122634   0.586   2.381   4.690  1.6519 -1.3303 -1.3056
 7245SOL    HW222635   0.700   2.288   4.761 -0.7033 -1.7535  2.1545
 7246SOL     OW22636   2.073   0.361   2.539 -0.2783  0.2314  0.2605
 7246SOL    HW122637   2.109   0.351   2.632  1.2335 -0.4403 -0.3628
 7246SOL    HW222638   2.143   0.333   2.473 -1.9085 -0.9512 -1.0434
 7247SOL     OW22639   0.444   2.428   6.864 -0.0249  0.1971  0.3626
 7247SOL    HW122640   0.379   2.357   6.890 -0.6672  0.1830 -1.1945
 7247SOL    HW222641   0.397   2.517   6.862  0.2842  0.3610  0.3350
 7248SOL     OW22642   4.100   2.170   2.491  0.2567  0.5550  0.6596
 7248SOL    HW122643   4.013   2.165   2.441  1.2604 -1.1236 -1.0412
 7248SOL    HW222644   4.157   2.242   2.451  1.1365 -0.9133 -0.8780
 7249SOL     OW22645   4.817   5.573   0.674 -0.3082  0.7137 -0.1887
 7249SOL    HW122646   4.914   5.558   0.653  0.2061  0.7838  1.8757
 7249SOL    HW222647   4.806   5.665   0.713 -0.9014  0.0995  1.1508
 7250SOL     OW22648   6.863   0.110   6.188  0.8200 -0.6394  0.0514
 7250SOL    HW122649   6.927   0.186   6.176 -1.2899  1.2321 -0.0328
 7250SOL    HW222650   6.823   0.086   6.100  0.6574 -1.1176  0.2534
 7251SOL     OW22651   1.113   0.722   5.444  0.3406 -0.8174 -0.1757
 7251SOL    HW122652   1.125   0.735   5.542  0.6498  1.7653 -0.4803
 7251SOL    HW222653   1.018   0.703   5.423  0.5046 -2.8047  0.7024
 7252SOL     OW22654   3.634   2.837   2.281 -0.1041  0.5709  0.1969
 7252SOL    HW122655   3.655   2.742   2.256 -1.2389  0.7420 -1.5994
 7252SOL    HW222656   3.546   2.863   2.241  0.8309  2.8185 -0.5747
 7253SOL     OW22657   0.012   6.775   6.797 -0.1035 -0.1271 -0.6029
 7253SOL    HW122658   0.106   6.759   6.827 -0.2588  1.8472  1.1430
 7253SOL    HW222659  -0.040   6.689   6.803  0.8748 -0.6541  1.2003
 7254SOL     OW22660   4.867   5.847   5.266  0.1274  0.0571 -0.4307
 7254SOL    HW122661   4.818   5.812   5.186 -0.1988 -0.2092 -0.1180
 7254SOL    HW222662   4.830   5.936   5.292  0.6444  0.4261 -0.9453
 7255SOL     OW22663   4.056   2.575   6.767  0.1689  0.8731  0.1091
 7255SOL    HW122664   4.043   2.568   6.668  1.2676 -0.6292  0.0485
 7255SOL    HW222665   3.974   2.615   6.808 -0.3222  1.4844 -1.3832
 7256SOL     OW22666   4.403   6.104   5.954 -0.2317 -0.8530 -0.8209
 7256SOL    HW122667   4.468   6.179   5.967 -0.2866 -1.0246  0.5585
 7256SOL    HW222668   4.398   6.081   5.857  1.2300 -0.3449 -1.0440
 7257SOL     OW22669   6.423   3.840   1.540  0.2903  0.1871 -0.2861
 7257SOL    HW122670   6.391   3.908   1.605  0.4948 -0.2177  0.2445
 7257SOL    HW222671   6.360   3.762   1.540  1.4046 -0.7520  0.9914
 7258SOL     OW22672   5.008   0.998   2.860 -0.1108 -0.1441  0.3929
 7258SOL    HW122673   4.943   1.072   2.878 -0.8585 -0.9626  1.1387
 7258SOL    HW222674   4.958   0.915   2.835  0.7282 -0.3173 -0.7874
 7259SOL     OW22675   1.942   2.017   2.992 -0.7373  0.3376 -0.2785
 7259SOL    HW122676   2.015   2.049   3.052 -1.6719 -0.9105  1.6142
 7259SOL    HW222677   1.968   2.034   2.897  1.8071  0.3626  0.3326
 7260SOL     OW22678   5.147   1.495   2.259 -0.2480  0.1804 -0.7681
 7260SOL    HW122679   5.188   1.506   2.349 -1.2645  1.5141 -0.4438
 7260SOL    HW222680   5.080   1.420   2.262 -0.8939  0.7630 -0.1643
 7261SOL     OW22681   0.814   2.390   2.618  0.0662 -0.6022 -0.1316
 7261SOL    HW122682   0.905   2.411   2.584 -0.0412 -1.1441 -0.7596
 7261SOL    HW222683   0.812   2.402   2.718  0.6988 -0.1647 -0.1713
 7262SOL     OW22684   3.904   2.380   6.046 -0.1180  0.2799  0.3752
 7262SOL    HW122685   3.849   2.438   5.987 -2.5693 -1.4031  0.8398
 7262SOL    HW222686   3.893   2.409   6.141  1.1069  0.8959  0.3463
 7263SOL     OW22687   0.104   5.918   0.629  0.1195  0.1708 -0.6729
 7263SOL    HW122688   0.110   5.917   0.729  2.3108 -0.2503 -0.7703
 7263SOL    HW222689   0.036   5.850   0.599  0.6052 -0.8622  0.4847
 7264SOL     OW22690   4.135   2.207   1.008  0.7611  0.2447  0.4041
 7264SOL    HW122691   4.125   2.279   1.076 -0.8890  1.5281 -1.0987
 7264SOL    HW222692   4.182   2.243   0.927 -1.5109  0.2271 -1.0375
 7265SOL     OW22693   6.700   2.972   1.292  0.0385  0.1417  0.0704
 7265SOL    HW122694   6.645   2.971   1.376  1.7489  2.4361  1.3254
 7265SOL    HW222695   6.659   3.034   1.226  0.8815  1.5961  0.8777
 7266SOL     OW22696   6.990   0.657   3.835  0.2556  0.3128  0.0625
 7266SOL    HW122697   7.057   0.685   3.903 -0.0696 -1.6834  1.3106
 7266SOL    HW222698   7.035   0.604   3.763  0.0909 -1.1586  0.9800
 7267SOL     OW22699   4.901   0.703   3.837 -0.3498  0.0255  0.3845
 7267SOL    HW122700   4.856   0.789   3.858 -0.4625  0.0911 -0.1032
 7267SOL    HW222701   4.999   0.711   3.855 -0.4933 -0.0473  1.2330
 7268SOL     OW22702   1.378   0.208   2.938  1.0299  0.2804  0.7053
 7268SOL    HW122703   1.357   0.305   2.934  0.1931  0.0650 -1.7426
 7268SOL    HW222704   1.471   0.192   2.905  0.5583  0.1301 -0.6075
 7269SOL     OW22705   1.280   5.454   6.009 -0.5014 -0.5138  0.1145
 7269SOL    HW122706   1.218   5.496   5.943  0.6400  0.8268 -0.1482
 7269SOL    HW222707   1.247   5.362   6.031 -2.3559 -0.0038 -0.2967
 7270SOL     OW22708   2.546   2.351   4.568  0.4526 -0.1346 -0.4663
 7270SOL    HW122709   2.552   2.450   4.567  0.4508 -0.0899  1.5346
 7270SOL    HW222710   2.638   2.312   4.564  0.6093  0.0158  1.2246
 7271SOL     OW22711   0.514   6.227   4.868 -0.0599  0.3436 -0.4598
 7271SOL    HW122712   0.613   6.211   4.871  0.0411  0.7562 -1.3186
 7271SOL    HW222713   0.477   6.190   4.783 -1.1405 -2.3766  1.0702
 7272SOL     OW22714   0.554   3.937   3.833 -0.2004  0.8251 -0.4025
 7272SOL    HW122715   0.477   3.957   3.893  1.2243  2.3378  1.0379
 7272SOL    HW222716   0.526   3.871   3.763 -2.0805 -0.6295  1.5938
 7273SOL     OW22717   4.475   2.531   1.803 -0.0063 -0.3029  0.4912
 7273SOL    HW122718   4.417   2.594   1.750  1.1562 -0.9876 -1.6822
 7273SOL    HW222719   4.418   2.458   1.840 -0.5657 -1.1648 -1.9044
 7274SOL     OW22720   6.864   5.716   6.092 -0.2966  0.0052  0.0357
 7274SOL    HW122721   6.914   5.708   6.178 -1.9954 -2.2375  0.9485
 7274SOL    HW222722   6.765   5.717   6.111 -0.6962  1.1195 -1.8346
 7275SOL     OW22723   1.525   0.787   2.058  0.4409 -0.4492 -0.3923
 7275SOL    HW122724   1.435   0.773   2.017 -0.8934 -0.2449  2.2361
 7275SOL    HW222725   1.573   0.861   2.010 -1.4212  0.4415 -0.9757
 7276SOL     OW22726   3.906   0.897   3.298 -0.5555 -0.2608 -0.3537
 7276SOL    HW122727   3.886   0.991   3.272  0.1931  0.1243  0.4152
 7276SOL    HW222728   3.984   0.863   3.245 -1.1421 -0.6263 -0.9915
 7277SOL     OW22729   3.552   0.460   3.246  1.0695  0.6826  0.1725
 7277SOL    HW122730   3.463   0.489   3.211  0.5614  0.0106  0.8672
 7277SOL    HW222731   3.546   0.443   3.344  1.7814 -0.0507  0.1113
 7278SOL     OW22732   5.477   1.722   1.273  0.1208 -0.2857  0.2033
 7278SOL    HW122733   5.390   1.702   1.317  0.6486 -2.0021  0.5666
 7278SOL    HW222734   5.476   1.687   1.180  0.0869  0.5784 -0.1268
 7279SOL     OW22735   3.329   3.641   5.503 -0.5439 -0.0328 -0.1857
 7279SOL    HW122736   3.251   3.580   5.515 -0.7577  0.2809  0.0191
 7279SOL    HW222737   3.410   3.587   5.478 -0.5531 -0.4915  0.7426
 7280SOL     OW22738   1.081   1.466   2.803 -0.3135 -0.0995 -0.5194
 7280SOL    HW122739   1.148   1.476   2.729 -1.1949  2.5568 -1.0536
 7280SOL    HW222740   0.994   1.435   2.765 -0.5032  0.3439 -0.4477
 7281SOL     OW22741   2.876   2.251   4.728 -0.1434  0.3934 -0.0697
 7281SOL    HW122742   2.862   2.263   4.826  3.2208  0.0099  0.5595
 7281SOL    HW222743   2.848   2.159   4.701 -0.2228  0.1846  0.7168
 7282SOL     OW22744   6.098   6.478   1.498 -0.0285  0.0818  0.6274
 7282SOL    HW122745   6.023   6.411   1.498 -0.2651  0.3405  0.1132
 7282SOL    HW222746   6.085   6.543   1.423  1.6871 -0.9947 -0.6967
 7283SOL     OW22747   6.056   6.945   2.831 -0.0792 -0.0695  0.1428
 7283SOL    HW122748   5.993   6.982   2.899  0.1746 -0.3369  0.5221
 7283SOL    HW222749   6.003   6.910   2.753 -0.2739  3.0463 -1.2800
 7284SOL     OW22750   6.992   3.273   4.801  0.0088 -0.3759  0.4404
 7284SOL    HW122751   7.051   3.201   4.838  2.8213  2.2407  1.5088
 7284SOL    HW222752   7.036   3.362   4.814 -2.9854  1.5515 -1.3525
 7285SOL     OW22753   5.774   2.905   1.525  0.5156  0.1354 -0.0131
 7285SOL    HW122754   5.786   2.825   1.584  2.3097  2.3553  2.9038
 7285SOL    HW222755   5.857   2.918   1.470  1.1880  1.2091  1.2163
 7286SOL     OW22756   1.653   1.899   1.009  0.3830  0.3346  0.1729
 7286SOL    HW122757   1.701   1.942   0.933  1.8540 -1.0891  0.2296
 7286SOL    HW222758   1.703   1.915   1.094  1.3167 -1.8259  0.1164
 7287SOL     OW22759   1.157   1.606   5.447 -0.2176  0.1341 -0.8165
 7287SOL    HW122760   1.085   1.621   5.515 -0.0502  1.7783 -0.9431
 7287SOL    HW222761   1.196   1.695   5.422 -1.2425 -0.2433 -4.1363
 7288SOL     OW22762   3.630   0.814   3.536 -0.5605  0.2295  0.2541
 7288SOL    HW122763   3.668   0.907   3.535 -2.8731  1.2811 -1.8566
 7288SOL    HW222764   3.598   0.791   3.444 -1.3370 -2.1166  1.0522
 7289SOL     OW22765   5.347   2.607   5.359 -0.0329 -0.4671  0.5200
 7289SOL    HW122766   5.313   2.617   5.265 -1.7972  1.8194  1.3090
 7289SOL    HW222767   5.355   2.510   5.381 -1.5260 -1.0786 -1.3377
 7290SOL     OW22768   4.235   0.735   4.292 -0.1585  0.0676  0.1672
 7290SOL    HW122769   4.212   0.781   4.206 -1.6264 -0.0277  0.4878
 7290SOL    HW222770   4.324   0.768   4.324 -0.4317  1.4935 -0.4429
 7291SOL     OW22771   2.441   2.768   1.470 -0.0997 -0.5406 -0.0513
 7291SOL    HW122772   2.448   2.726   1.380 -1.0772  0.3540 -0.5736
 7291SOL    HW222773   2.355   2.741   1.514 -0.0288 -0.3011  0.2448
 7292SOL     OW22774   4.808   2.399   4.993  0.5089  0.1322  0.2503
 7292SOL    HW122775   4.789   2.372   5.087 -0.3065  1.9075  0.6473
 7292SOL    HW222776   4.727   2.384   4.936  1.3040 -1.8598 -0.4443
 7293SOL     OW22777   2.193   1.019   5.757  0.0720 -0.2386  0.5994
 7293SOL    HW122778   2.182   1.118   5.769  0.2026 -0.3188  1.4181
 7293SOL    HW222779   2.111   0.982   5.714  0.7070  0.4758 -1.3449
 7294SOL     OW22780   2.949   3.699   6.696  0.0216  0.3188 -0.0235
 7294SOL    HW122781   3.010   3.694   6.775  0.4748 -1.7300 -0.4272
 7294SOL    HW222782   2.937   3.794   6.668 -0.4302  1.1474  2.6861
 7295SOL     OW22783   6.651   1.545   6.332 -0.1906  0.3405  0.3145
 7295SOL    HW122784   6.643   1.445   6.336 -1.2269  0.3560 -0.7076
 7295SOL    HW222785   6.721   1.576   6.396 -1.2151 -0.8599  2.0816
 7296SOL     OW22786   4.271   5.541   1.909  0.1828 -0.5140 -0.4710
 7296SOL    HW122787   4.362   5.511   1.881  0.2310  0.5836 -1.6099
 7296SOL    HW222788   4.236   5.608   1.842 -0.5470  0.7432  1.0969
 7297SOL     OW22789   5.362   6.899   2.987 -0.2286  0.6877  0.5881
 7297SOL    HW122790   5.406   6.853   2.910 -3.1361 -0.6975 -0.3794
 7297SOL    HW222791   5.407   6.986   3.003  2.0691 -0.0936 -1.0090
 7298SOL     OW22792   2.759   6.296   0.120  0.0027 -0.1062  0.3600
 7298SOL    HW122793   2.775   6.198   0.135 -1.8235 -0.7840 -1.6160
 7298SOL    HW222794   2.764   6.316   0.022  2.0466  2.1744  0.8320
 7299SOL     OW22795   0.589   2.051   0.998  0.1410 -0.3030  0.4013
 7299SOL    HW122796   0.641   2.045   1.083 -1.1453 -2.1994  1.1187
 7299SOL    HW222797   0.547   2.141   0.990  2.0326  0.6351  0.6768
 7300SOL     OW22798   2.132   1.328   2.944 -0.4974 -0.3497 -0.1289
 7300SOL    HW122799   2.217   1.376   2.961 -0.8401  0.6192 -1.0628
 7300SOL    HW222800   2.133   1.240   2.992  0.1919  0.5132  1.4818
 7301SOL     OW22801   4.966   0.960   4.439  0.2130  0.5831  0.0239
 7301SOL    HW122802   5.056   0.923   4.463  0.3092  0.3571 -0.6550
 7301SOL    HW222803   4.975   1.024   4.363 -0.2041  0.5054 -0.0977
 7302SOL     OW22804   1.312   3.539   5.214 -0.0164 -0.0558  0.2522
 7302SOL    HW122805   1.237   3.522   5.150  0.5880  1.4947 -0.9161
 7302SOL    HW222806   1.303   3.630   5.253 -0.5829 -1.1014  2.7398
 7303SOL     OW22807   5.320   0.400   0.890  0.1137 -0.2861  0.1015
 7303SOL    HW122808   5.334   0.499   0.895 -0.3465 -0.2077 -0.1606
 7303SOL    HW222809   5.244   0.375   0.949  2.1691 -0.8966  2.6901
 7304SOL     OW22810   4.200   6.540   3.210  0.0493 -0.0095  0.1977
 7304SOL    HW122811   4.176   6.599   3.286  2.6840 -0.2200  1.2880
 7304SOL    HW222812   4.232   6.452   3.245  1.3032 -0.1149 -1.1134
 7305SOL     OW22813   6.024   1.351   2.518 -0.0715 -0.0204  0.1278
 7305SOL    HW122814   6.046   1.258   2.489  1.3292 -0.1175  1.3873
 7305SOL    HW222815   6.002   1.352   2.615 -3.0209  0.5558 -0.4701
 7306SOL     OW22816   4.687   3.438   0.812  0.5985 -0.1204  0.6789
 7306SOL    HW122817   4.627   3.508   0.851 -1.4154 -2.7738  2.7745
 7306SOL    HW222818   4.675   3.436   0.713  0.3898  2.1426  0.6046
 7307SOL     OW22819   2.958   6.289   2.194  0.1522 -0.0016  0.4341
 7307SOL    HW122820   2.985   6.307   2.289  0.1883  1.4136  0.1725
 7307SOL    HW222821   2.861   6.308   2.183  0.0861 -0.4370  0.2443
 7308SOL     OW22822   1.400   2.140   5.159  0.7736 -0.1496 -0.1174
 7308SOL    HW122823   1.314   2.183   5.186  0.5310 -0.8935  0.3317
 7308SOL    HW222824   1.408   2.142   5.059 -0.4927 -1.3920 -0.2789
 7309SOL     OW22825   4.517   5.501   2.161  0.4360  0.2989  0.0799
 7309SOL    HW122826   4.420   5.515   2.181  0.0820 -1.5756 -0.2088
 7309SOL    HW222827   4.540   5.404   2.168  2.3845  0.7338  0.4745
 7310SOL     OW22828   2.549   3.872   6.557 -0.0894  0.3423  0.6533
 7310SOL    HW122829   2.471   3.882   6.495  0.0320 -0.6017  0.3309
 7310SOL    HW222830   2.633   3.897   6.508 -0.0656  0.2367  0.6395
 7311SOL     OW22831   1.775   3.335   0.978 -0.6002  0.0167  0.0946
 7311SOL    HW122832   1.692   3.377   1.015 -0.7556 -1.0106  0.9495
 7311SOL    HW222833   1.849   3.403   0.977 -1.2830  0.7726 -0.1295
 7312SOL     OW22834   0.683   4.228   5.688  0.2831 -0.6778 -0.7748
 7312SOL    HW122835   0.759   4.172   5.720  1.6148  1.5161  0.1405
 7312SOL    HW222836   0.626   4.254   5.766 -0.5261 -0.9966 -1.2406
 7313SOL     OW22837   1.692   6.213   0.564 -0.1437  0.3556 -0.3991
 7313SOL    HW122838   1.691   6.155   0.482  0.2365 -1.6448  0.9202
 7313SOL    HW222839   1.637   6.170   0.636  1.0133  1.1021  0.9828
 7314SOL     OW22840   0.213   4.575   6.397 -1.1411  0.0480 -0.3672
 7314SOL    HW122841   0.204   4.476   6.390  2.2676 -0.7155  2.5356
 7314SOL    HW222842   0.265   4.610   6.319 -0.7274 -0.7851 -0.4681
 7315SOL     OW22843   4.694   0.957   4.491  0.4102 -0.6361 -0.0563
 7315SOL    HW122844   4.786   0.949   4.452 -0.6639  0.0494 -3.0084
 7315SOL    HW222845   4.645   1.031   4.445 -1.7668 -1.2397  1.1623
 7316SOL     OW22846   4.627   2.280   5.680  0.2657 -0.0596 -0.3669
 7316SOL    HW122847   4.544   2.224   5.679 -0.1394  0.5379 -0.7073
 7316SOL    HW222848   4.664   2.286   5.587  1.3987 -1.3441 -0.0335
 7317SOL     OW22849   4.648   0.403   3.309  0.5078 -0.0176 -0.5890
 7317SOL    HW122850   4.627   0.492   3.268  0.4595 -0.4230 -1.4677
 7317SOL    HW222851   4.573   0.375   3.369  0.1124  0.1224 -1.0148
 7318SOL     OW22852   4.081   0.697   2.560 -0.3401  0.3521 -0.1613
 7318SOL    HW122853   4.176   0.693   2.528 -0.2821  0.8636 -0.0606
 7318SOL    HW222854   4.067   0.781   2.613 -0.7601  0.1098  0.1166
 7319SOL     OW22855   0.244   3.606   6.723 -0.0067  0.0677 -0.1743
 7319SOL    HW122856   0.202   3.672   6.786 -0.2827 -1.8592  1.7770
 7319SOL    HW222857   0.342   3.601   6.740  0.0471  0.1230 -0.4655
 7320SOL     OW22858   0.582   3.830   2.911  0.3722 -0.4065 -0.2513
 7320SOL    HW122859   0.566   3.925   2.935  0.2715 -0.7429  1.0670
 7320SOL    HW222860   0.495   3.781   2.908  0.2770 -0.1942 -2.2187
 7321SOL     OW22861   4.757   0.131   6.451 -0.0487 -0.6781 -0.2175
 7321SOL    HW122862   4.848   0.090   6.437 -0.6142 -2.1742  0.2911
 7321SOL    HW222863   4.747   0.157   6.547  0.1489  0.3088 -0.4524
 7322SOL     OW22864   0.695   3.173   2.969 -0.2369  0.2766  0.2427
 7322SOL    HW122865   0.724   3.106   3.038  0.6569  0.7672  0.3625
 7322SOL    HW222866   0.734   3.149   2.880 -1.2523 -0.2606 -0.0760
 7323SOL     OW22867   3.380   1.762   3.518 -0.3391 -0.4477 -0.7620
 7323SOL    HW122868   3.438   1.681   3.526  0.1921 -0.1473 -1.4570
 7323SOL    HW222869   3.406   1.829   3.587  0.5433 -0.0837 -1.4276
 7324SOL     OW22870   5.465   4.544   2.448 -0.0705 -0.0178  1.3019
 7324SOL    HW122871   5.466   4.459   2.501 -1.1606 -0.7567  0.1933
 7324SOL    HW222872   5.381   4.594   2.466 -0.7349 -0.5629 -0.1157
 7325SOL     OW22873   3.552   6.720   0.176  0.5605 -0.6253  0.7225
 7325SOL    HW122874   3.532   6.743   0.271 -3.0427 -0.8456  0.1620
 7325SOL    HW222875   3.527   6.625   0.159  0.1064 -0.2911 -0.6416
 7326SOL     OW22876   2.837   0.242   6.417 -0.0268  0.1070  0.6342
 7326SOL    HW122877   2.812   0.306   6.490  0.5074  0.7075  0.3059
 7326SOL    HW222878   2.934   0.219   6.424  0.0301  0.1765  0.1123
 7327SOL     OW22879   0.422   2.750   3.403 -0.3345  0.4213 -0.5820
 7327SOL    HW122880   0.500   2.746   3.466  0.6348 -0.9235 -1.8029
 7327SOL    HW222881   0.372   2.663   3.406 -1.1258  0.8617 -0.6595
 7328SOL     OW22882   2.619   0.901   6.608 -0.1143  0.2491 -0.4225
 7328SOL    HW122883   2.592   0.854   6.524  0.3622  1.5251 -1.3201
 7328SOL    HW222884   2.640   0.833   6.678  0.2329 -0.8867 -1.5708
 7329SOL     OW22885   3.198   5.112   2.044  0.0094  0.0089  0.3638
 7329SOL    HW122886   3.230   5.043   2.110  0.6822 -0.8798 -0.8630
 7329SOL    HW222887   3.147   5.067   1.971 -0.1014  0.9065 -0.1242
 7330SOL     OW22888   1.659   2.075   6.349  0.5164 -0.2435  1.0540
 7330SOL    HW122889   1.647   2.169   6.317 -1.1141 -0.2125  1.6451
 7330SOL    HW222890   1.740   2.035   6.306  1.3901  1.5014  0.9952
 7331SOL     OW22891   5.062   5.652   1.169  0.0038  0.5103  0.5836
 7331SOL    HW122892   5.087   5.718   1.098  0.9608  0.1416  0.5641
 7331SOL    HW222893   4.987   5.595   1.136  0.4508  0.3346 -0.1445
 7332SOL     OW22894   2.788   5.633   6.669  0.0161 -0.2705 -0.3105
 7332SOL    HW122895   2.785   5.721   6.716  2.5279 -0.6343  0.7017
 7332SOL    HW222896   2.852   5.639   6.592 -1.4281 -0.6609 -1.5992
 7333SOL     OW22897   5.193   3.266   3.516 -0.1929  0.0478  0.2374
 7333SOL    HW122898   5.259   3.338   3.496 -0.1200  0.6414  2.3046
 7333SOL    HW222899   5.131   3.254   3.439  0.2995  1.7772 -0.4566
 7334SOL     OW22900   2.160   6.249   5.884 -0.1133  0.3886 -0.1149
 7334SOL    HW122901   2.141   6.344   5.863  1.3374  0.5782 -0.6692
 7334SOL    HW222902   2.074   6.199   5.893 -0.9858  2.1125  2.1072
 7335SOL     OW22903   0.839   2.117   3.273  0.7031  0.6631  0.0275
 7335SOL    HW122904   0.838   2.023   3.307  0.3652 -0.2741 -2.3727
 7335SOL    HW222905   0.806   2.119   3.178  2.4475  2.9347 -0.6440
 7336SOL     OW22906   2.305   6.374   2.256  0.1696 -0.3674  0.2049
 7336SOL    HW122907   2.226   6.313   2.248 -2.2218  2.6139 -0.6037
 7336SOL    HW222908   2.361   6.367   2.173  0.0366 -1.4962  0.1919
 7337SOL     OW22909   1.934   3.937   2.993  0.3609 -0.1824 -0.0588
 7337SOL    HW122910   1.844   3.969   2.962 -1.0648 -2.7318  1.1717
 7337SOL    HW222911   1.967   3.997   3.067 -0.2957  0.7837 -0.5250
 7338SOL     OW22912   5.171   2.743   3.557  0.0029  0.2005 -0.3933
 7338SOL    HW122913   5.180   2.646   3.579 -0.3144  0.0151 -1.0316
 7338SOL    HW222914   5.142   2.753   3.461 -2.5469  0.8429  0.3718
 7339SOL     OW22915   6.101   6.109   4.671  0.5036  0.1424 -0.7559
 7339SOL    HW122916   6.135   6.198   4.699 -0.0186  0.2077 -0.3073
 7339SOL    HW222917   6.171   6.061   4.618  1.2109  0.3509 -0.0292
 7340SOL     OW22918   0.905   2.649   1.786  0.6325  0.2631  0.2586
 7340SOL    HW122919   0.912   2.747   1.765 -0.4419 -0.0272 -1.6013
 7340SOL    HW222920   0.973   2.626   1.856  1.9934  2.0334 -0.3814
 7341SOL     OW22921   0.497   5.149   5.916 -0.5746 -0.1337 -0.2293
 7341SOL    HW122922   0.435   5.178   5.989 -1.2397 -0.9123 -0.4559
 7341SOL    HW222923   0.443   5.131   5.833  0.3702  2.6808 -1.5647
 7342SOL     OW22924   0.709   0.831   2.852  0.4168  0.3086 -0.5449
 7342SOL    HW122925   0.780   0.901   2.859  1.6981 -1.0278  0.4100
 7342SOL    HW222926   0.619   0.875   2.846  1.2944  2.0617 -2.0042
 7343SOL     OW22927   6.266   3.584   1.716 -0.3133 -0.0212  0.0708
 7343SOL    HW122928   6.239   3.609   1.809 -0.2733  0.5513 -0.0732
 7343SOL    HW222929   6.227   3.648   1.651  1.3109  0.8082 -0.1451
 7344SOL     OW22930   0.561   2.475   0.377 -0.9824  0.0370  0.3628
 7344SOL    HW122931   0.545   2.383   0.340  0.0553 -0.5481  1.3211
 7344SOL    HW222932   0.653   2.506   0.352 -0.0397 -0.5986  2.8131
 7345SOL     OW22933   4.107   4.716   3.608  0.1567  0.6197 -0.3117
 7345SOL    HW122934   4.145   4.737   3.518  0.9743  0.1447 -0.0834
 7345SOL    HW222935   4.066   4.625   3.607  1.9764 -0.2427  0.3292
 7346SOL     OW22936   4.781   3.952   3.137  0.7549 -0.4141 -0.3708
 7346SOL    HW122937   4.805   3.874   3.079  1.3137  0.1468 -0.8914
 7346SOL    HW222938   4.728   4.018   3.084 -1.1417 -1.1529  0.4840
 7347SOL     OW22939   0.506   2.395   6.481 -0.0035 -0.4489  0.2052
 7347SOL    HW122940   0.412   2.382   6.449 -0.4374 -0.6278  1.5021
 7347SOL    HW222941   0.513   2.483   6.528  0.9430  0.4084 -1.4734
 7348SOL     OW22942   0.576   4.293   3.249  0.0244  0.3493 -0.2583
 7348SOL    HW122943   0.545   4.354   3.176  0.1742 -0.4674 -1.0191
 7348SOL    HW222944   0.657   4.333   3.293  1.0205  0.0248 -1.7289
 7349SOL     OW22945   4.316   2.905   1.248  0.0063 -0.6940  0.0314
 7349SOL    HW122946   4.344   2.941   1.337  0.0355  0.7759 -0.5377
 7349SOL    HW222947   4.391   2.851   1.209  0.4622 -0.3081  0.3627
 7350SOL     OW22948   1.865   3.296   4.255  0.1626  0.2224 -0.1574
 7350SOL    HW122949   1.801   3.247   4.195  0.8871 -0.1474 -0.6443
 7350SOL    HW222950   1.907   3.231   4.319  0.0478  0.4615  0.1586
 7351SOL     OW22951   5.638   5.686   6.050 -1.3828 -0.2132  0.0087
 7351SOL    HW122952   5.587   5.677   5.964 -4.0668  0.4584  1.3903
 7351SOL    HW222953   5.700   5.609   6.061  0.4746  0.6089 -3.3245
 7352SOL     OW22954   2.078   1.573   3.157  0.4169  0.5486  0.9635
 7352SOL    HW122955   2.177   1.565   3.157  0.4240  0.6387  0.7911
 7352SOL    HW222956   2.037   1.490   3.120  0.3842 -0.0370  2.2712
 7353SOL     OW22957   1.617   1.976   5.531  0.5317 -0.3180 -0.2621
 7353SOL    HW122958   1.616   1.987   5.432  1.1428 -0.9744 -0.3501
 7353SOL    HW222959   1.701   1.930   5.559 -0.1934 -1.2620  0.4359
 7354SOL     OW22960   0.350   1.011   4.916 -0.2303 -0.2533  0.4690
 7354SOL    HW122961   0.429   1.039   4.861 -0.5739 -1.6569 -0.8054
 7354SOL    HW222962   0.333   0.914   4.902 -1.8368 -0.1027  1.1894
 7355SOL     OW22963   1.554   0.612   0.971 -0.0936  0.2937 -0.4210
 7355SOL    HW122964   1.622   0.645   1.037 -1.2574 -1.0459  1.5737
 7355SOL    HW222965   1.573   0.650   0.881  2.0312  1.6124  0.5133
 7356SOL     OW22966   3.605   5.250   5.569 -0.5022 -0.1970 -0.2435
 7356SOL    HW122967   3.548   5.171   5.591  0.3882 -0.9167 -0.4623
 7356SOL    HW222968   3.645   5.286   5.654 -0.3857 -0.3848 -0.2186
 7357SOL     OW22969   3.410   0.504   1.990  0.0689  0.1278  0.7412
 7357SOL    HW122970   3.442   0.526   1.898  0.1253  1.9225  1.1515
 7357SOL    HW222971   3.462   0.557   2.057 -1.9637  1.1431  1.6001
 7358SOL     OW22972   6.517   4.937   2.090 -0.0252  0.0898  0.4863
 7358SOL    HW122973   6.500   5.021   2.141 -1.2011  0.0755  0.1504
 7358SOL    HW222974   6.602   4.894   2.123  1.1234  1.8925 -0.0052
 7359SOL     OW22975   3.704   6.358   6.695  0.3427  0.3835 -0.6748
 7359SOL    HW122976   3.690   6.368   6.596 -2.9919 -0.7814 -0.4672
 7359SOL    HW222977   3.736   6.444   6.733 -2.2788  2.2440 -2.3067
 7360SOL     OW22978   3.003   2.892   5.327 -0.4284 -0.3333  0.0413
 7360SOL    HW122979   3.099   2.868   5.339 -0.0440  1.4765  0.9892
 7360SOL    HW222980   2.996   2.975   5.271 -1.5807 -1.5837 -1.7625
 7361SOL     OW22981   0.317   0.160   2.464  0.2684  0.2947 -0.1469
 7361SOL    HW122982   0.250   0.235   2.462  0.0538  0.1552  1.0393
 7361SOL    HW222983   0.299   0.102   2.543  2.1625  0.6119  0.5682
 7362SOL     OW22984   1.157   5.836   3.427  0.6492 -0.0999  0.3792
 7362SOL    HW122985   1.255   5.822   3.418  0.6626  0.6242 -0.7763
 7362SOL    HW222986   1.133   5.843   3.524  1.4572 -2.0173  0.7600
 7363SOL     OW22987   4.601   2.672   2.573  0.1012  0.4072 -0.3102
 7363SOL    HW122988   4.602   2.584   2.620 -0.2243  0.2063 -0.6730
 7363SOL    HW222989   4.645   2.741   2.630 -1.9931  0.6202  1.1569
 7364SOL     OW22990   5.167   0.812   2.070 -0.1252  0.0446 -1.1107
 7364SOL    HW122991   5.171   0.909   2.047 -1.0043 -0.4668 -3.9293
 7364SOL    HW222992   5.260   0.778   2.087  0.1482  1.4238  0.3517
 7365SOL     OW22993   0.385   5.282   0.844  0.4010  0.1162 -0.2993
 7365SOL    HW122994   0.447   5.334   0.785  0.1613  2.4459  1.3441
 7365SOL    HW222995   0.437   5.221   0.902  0.5789 -3.3241 -3.6544
 7366SOL     OW22996   1.518   5.728   6.893 -0.7773 -0.4527 -0.1622
 7366SOL    HW122997   1.475   5.775   6.970 -0.8881 -1.9425  0.7470
 7366SOL    HW222998   1.580   5.657   6.929  1.5198  0.8071 -1.4348
 7367SOL     OW22999   4.756   2.844   0.686  0.0758 -0.1114 -0.2880
 7367SOL    HW123000   4.792   2.882   0.601 -1.5644 -0.3408 -1.1134
 7367SOL    HW223001   4.662   2.814   0.673 -0.2870  0.0125  1.6768
 7368SOL     OW23002   3.116   3.407   2.364 -0.1033 -0.4168  0.5561
 7368SOL    HW123003   3.033   3.455   2.395  0.3616  1.9246 -1.5676
 7368SOL    HW223004   3.090   3.318   2.327 -1.9087  0.7204 -1.1110
 7369SOL     OW23005   3.040   2.811   0.646 -0.4252  0.6526 -0.1677
 7369SOL    HW123006   3.066   2.716   0.663  0.6264  1.1089  0.8701
 7369SOL    HW223007   2.942   2.815   0.626 -0.2945 -0.7592 -1.2549
 7370SOL     OW23008   2.554   0.549   6.156 -0.0429  0.5412  0.4140
 7370SOL    HW123009   2.579   0.455   6.177  1.2809  0.6605 -0.4839
 7370SOL    HW223010   2.465   0.551   6.110  0.1010 -0.3251  0.0833
 7371SOL     OW23011   3.487   0.099   3.209 -0.4745 -0.0778 -0.3273
 7371SOL    HW123012   3.561   0.039   3.177 -0.3527  0.0035 -0.2004
 7371SOL    HW223013   3.450   0.150   3.132 -0.4546 -0.1828 -0.4061
 7372SOL     OW23014   5.327   0.100   4.462  0.4905 -0.9763 -0.0618
 7372SOL    HW123015   5.296   0.071   4.552  1.3307 -0.0354  0.5581
 7372SOL    HW223016   5.258   0.161   4.422  0.6162 -0.4803  0.4525
 7373SOL     OW23017   0.383   6.304   4.454 -0.1447  0.9083 -0.5109
 7373SOL    HW123018   0.337   6.263   4.375 -0.3212  0.9560 -0.4337
 7373SOL    HW223019   0.347   6.396   4.470  1.3221  1.7125 -1.6104
 7374SOL     OW23020   3.771   1.906   4.410  0.3810  0.1531 -0.9144
 7374SOL    HW123021   3.858   1.953   4.399  0.3927  0.4950  0.5059
 7374SOL    HW223022   3.696   1.969   4.387  0.3691  1.1444  1.5667
 7375SOL     OW23023   4.717   0.894   2.796  0.4038  0.1503  0.2106
 7375SOL    HW123024   4.704   0.990   2.769 -1.2524  0.3826  1.7039
 7375SOL    HW223025   4.649   0.837   2.749  0.4759 -0.0996  0.4098
 7376SOL     OW23026   1.932   1.186   6.899 -0.1652 -0.5070 -0.1272
 7376SOL    HW123027   1.845   1.163   6.942 -0.5970 -0.4108 -0.9266
 7376SOL    HW223028   1.987   1.103   6.888  0.8477 -0.2660  2.4690
 7377SOL     OW23029   4.571   2.094   1.153  0.5378  0.8152  0.5638
 7377SOL    HW123030   4.628   2.147   1.216  0.4838  0.6904  0.7190
 7377SOL    HW223031   4.618   2.084   1.066  1.1387 -0.0203  0.9663
 7378SOL     OW23032   1.393   0.290   4.836 -0.5062 -0.3853 -1.1404
 7378SOL    HW123033   1.349   0.380   4.840 -0.6610 -0.4691 -0.9803
 7378SOL    HW223034   1.448   0.277   4.918  0.6627  0.1543 -1.8124
 7379SOL     OW23035   2.374   1.188   1.811 -0.1249 -0.2934  0.9448
 7379SOL    HW123036   2.467   1.198   1.775  0.5860 -0.1190  2.7562
 7379SOL    HW223037   2.327   1.277   1.806  0.5659  0.1433  2.0182
 7380SOL     OW23038   0.129   3.604   4.487  0.0119  0.1520 -0.0239
 7380SOL    HW123039   0.172   3.578   4.400  0.9516  0.2031  0.4168
 7380SOL    HW223040   0.039   3.643   4.469  0.7622  1.4569 -1.1041
 7381SOL     OW23041   3.857   2.989   0.595  0.1701  0.0515 -0.0765
 7381SOL    HW123042   3.808   2.928   0.532 -1.8300  1.7474 -0.2724
 7381SOL    HW223043   3.943   3.017   0.553  0.5674 -1.6471 -0.4881
 7382SOL     OW23044   1.838   1.419   5.904  0.0163  0.1801 -0.3700
 7382SOL    HW123045   1.838   1.471   5.989  1.7936  1.3402 -1.0115
 7382SOL    HW223046   1.818   1.479   5.827 -0.7749 -0.6927 -0.8724
 7383SOL     OW23047   1.385   4.974   0.901  0.2976  0.2633  0.3433
 7383SOL    HW123048   1.377   4.942   0.996  0.6659 -0.2575  0.2031
 7383SOL    HW223049   1.382   4.896   0.839  0.0033  0.6069 -0.0855
 7384SOL     OW23050   0.738   6.716   3.185  0.3627  0.3394 -0.4543
 7384SOL    HW123051   0.662   6.667   3.142 -0.3236 -0.6416  1.7023
 7384SOL    HW223052   0.810   6.651   3.208  0.6903  0.8146 -0.1256
 7385SOL     OW23053   3.755   5.564   1.926 -0.0956  0.6120 -0.4059
 7385SOL    HW123054   3.659   5.572   1.898  0.3328  1.1146 -1.7928
 7385SOL    HW223055   3.806   5.645   1.895  0.7259  0.4842  0.5585
 7386SOL     OW23056   0.439   2.253   5.462 -0.0669  0.2954 -0.3751
 7386SOL    HW123057   0.446   2.297   5.373  0.8504 -0.0729 -0.4946
 7386SOL    HW223058   0.465   2.157   5.455  0.7635  0.4445  0.4195
 7387SOL     OW23059   0.249   4.907   5.044  0.0641 -0.0712  0.0261
 7387SOL    HW123060   0.184   4.975   5.010  1.6040  0.9890 -0.9236
 7387SOL    HW223061   0.275   4.929   5.138 -0.2032  0.0799  0.0639
 7388SOL     OW23062   0.329   4.556   1.848  0.1527 -0.1055  0.1933
 7388SOL    HW123063   0.360   4.636   1.796 -1.0770  0.6469  0.6026
 7388SOL    HW223064   0.290   4.585   1.935 -2.2017 -0.9449 -0.5231
 7389SOL     OW23065   5.663   4.809   5.588  0.1126 -0.5944  0.6682
 7389SOL    HW123066   5.748   4.760   5.605  1.3167  1.2348  0.2095
 7389SOL    HW223067   5.628   4.846   5.675  0.2087 -0.6692  0.7384
 7390SOL     OW23068   3.091   2.860   1.373  0.0800  0.7337  0.2599
 7390SOL    HW123069   3.095   2.939   1.433 -0.2540  1.4131 -0.5860
 7390SOL    HW223070   3.065   2.889   1.281  2.1001 -0.0493 -0.6203
 7391SOL     OW23071   3.268   3.027   3.708  0.6529  0.1004  0.0302
 7391SOL    HW123072   3.179   3.060   3.678 -0.7551 -2.6945  0.8064
 7391SOL    HW223073   3.312   2.975   3.635 -0.2501 -1.9524  0.8797
 7392SOL     OW23074   1.802   6.057   1.357  0.1430  0.0940 -0.0937
 7392SOL    HW123075   1.820   6.124   1.430  1.6566  0.6321 -0.9203
 7392SOL    HW223076   1.872   5.985   1.361 -0.8585 -0.8881  0.1264
 7393SOL     OW23077   5.716   3.678   3.073  0.0329 -0.2251  0.2643
 7393SOL    HW123078   5.743   3.635   3.159 -1.5829  0.3287  1.0734
 7393SOL    HW223079   5.670   3.610   3.015  0.0211 -0.2925  0.3522
 7394SOL     OW23080   1.857   2.517   0.505  0.0199  0.2759 -0.0088
 7394SOL    HW123081   1.845   2.604   0.457 -0.6977  0.4732  0.5111
 7394SOL    HW223082   1.809   2.520   0.593  1.7514  0.1011  0.9797
 7395SOL     OW23083   3.141   4.023   1.113  0.3592  0.1913  0.2204
 7395SOL    HW123084   3.194   4.081   1.051 -0.6295 -0.5240 -1.3424
 7395SOL    HW223085   3.166   3.927   1.099 -1.2501 -0.1511 -0.4947
 7396SOL     OW23086   1.698   7.005   1.481  0.2407  0.0356 -0.1721
 7396SOL    HW123087   1.765   7.053   1.426  0.3988 -0.0279 -0.0376
 7396SOL    HW223088   1.636   6.953   1.422  1.6689 -1.7064 -0.2337
 7397SOL     OW23089   2.658   4.572   3.338  0.4405 -0.1879  0.7191
 7397SOL    HW123090   2.690   4.598   3.247  0.1316  3.3222  1.4812
 7397SOL    HW223091   2.714   4.496   3.372  2.3034  0.1408 -1.3492
 7398SOL     OW23092   2.229   6.998   5.727  0.2429 -0.2559  0.7032
 7398SOL    HW123093   2.326   6.976   5.715 -0.0222 -1.1616  0.1154
 7398SOL    HW223094   2.174   6.919   5.700 -0.6713  0.3473  0.7837
 7399SOL     OW23095   0.429   2.704   2.939  0.3545  0.4011  0.3382
 7399SOL    HW123096   0.396   2.610   2.929 -1.9240  1.3865 -3.1575
 7399SOL    HW223097   0.479   2.731   2.857  1.2942  2.1593  1.4306
 7400SOL     OW23098   5.585   2.484   4.432 -0.1511 -0.1448  0.1637
 7400SOL    HW123099   5.504   2.542   4.426  0.1155  0.3705  1.3365
 7400SOL    HW223100   5.626   2.492   4.523  2.6099  1.5055 -1.0945
 7401SOL     OW23101   6.844   4.293   4.024  0.0997  0.2506 -0.5801
 7401SOL    HW123102   6.819   4.385   3.993 -0.6661  0.3824  0.3851
 7401SOL    HW223103   6.935   4.296   4.066 -0.1282  0.6896 -0.0949
 7402SOL     OW23104   1.576   5.153   0.621 -0.0469  0.3665 -0.2043
 7402SOL    HW123105   1.492   5.179   0.668 -0.0620 -2.3035  1.4180
 7402SOL    HW223106   1.587   5.054   0.624  1.3368  0.2933 -3.6137
 7403SOL     OW23107   3.331   2.728   0.885 -0.0182 -0.7622 -0.1315
 7403SOL    HW123108   3.296   2.668   0.957 -1.0051  0.7978  0.7463
 7403SOL    HW223109   3.398   2.678   0.830 -0.8821 -2.6883  0.4663
 7404SOL     OW23110   0.974   5.171   1.468 -0.3923 -0.2535 -0.6841
 7404SOL    HW123111   1.029   5.245   1.430 -2.8085  2.1725  0.2351
 7404SOL    HW223112   0.922   5.127   1.395 -0.8155  0.6281 -0.9175
 7405SOL     OW23113   2.560   4.538   4.651  0.3121 -0.5061 -0.4053
 7405SOL    HW123114   2.488   4.587   4.601 -0.2330 -1.2639 -0.3825
 7405SOL    HW223115   2.529   4.446   4.672  1.1062 -0.6793  0.0556
 7406SOL     OW23116   6.892   1.505   3.696 -0.0316  0.4022 -0.6260
 7406SOL    HW123117   6.927   1.557   3.618 -0.6983  0.0409 -1.1802
 7406SOL    HW223118   6.878   1.410   3.668  0.0081  0.2019  0.0277
 7407SOL     OW23119   0.523   1.381   6.303  0.5226  0.2264 -0.1513
 7407SOL    HW123120   0.557   1.343   6.218 -1.3413  0.0022 -0.8330
 7407SOL    HW223121   0.423   1.373   6.307  0.5125  0.6420  1.8483
 7408SOL     OW23122   1.911   3.961   0.236 -0.3726  0.2120 -0.0570
 7408SOL    HW123123   1.946   4.050   0.263  1.9701 -0.0702 -1.8670
 7408SOL    HW223124   1.985   3.893   0.240 -1.8620 -1.4615  0.3593
 7409SOL     OW23125   4.267   1.435   0.282  0.0649  0.7373  0.3276
 7409SOL    HW123126   4.210   1.399   0.208  0.1810  1.0887  0.0639
 7409SOL    HW223127   4.258   1.377   0.363  0.3417  0.0432 -0.1287
 7410SOL     OW23128   6.810   2.549   0.953 -0.5288  0.1197 -0.4058
 7410SOL    HW123129   6.904   2.581   0.940 -0.2058 -0.6407 -0.0167
 7410SOL    HW223130   6.767   2.601   1.027 -0.4018  0.4371 -0.5525
 7411SOL     OW23131   2.360   0.946   1.148  0.3424 -0.3093 -0.1550
 7411SOL    HW123132   2.421   0.905   1.080 -0.1378  0.9936 -1.3972
 7411SOL    HW223133   2.265   0.932   1.121  0.1589  1.8292 -0.7928
 7412SOL     OW23134   0.290   0.301   1.777  0.4735  1.1223  0.2729
 7412SOL    HW123135   0.323   0.233   1.842 -0.8101 -0.8931 -1.0256
 7412SOL    HW223136   0.198   0.329   1.802 -0.5040 -0.5452 -1.1578
 7413SOL     OW23137   5.819   5.863   4.474  0.3523 -0.0994  0.0557
 7413SOL    HW123138   5.907   5.864   4.426  1.5310 -0.8619  2.0781
 7413SOL    HW223139   5.769   5.780   4.450  0.2583  0.2149 -0.9068
 7414SOL     OW23140   1.016   0.600   4.324 -0.4684  0.0118 -0.2130
 7414SOL    HW123141   1.020   0.511   4.278 -1.3978  0.5511 -1.3825
 7414SOL    HW223142   0.943   0.655   4.284 -0.2458  1.1247  0.8438
 7415SOL     OW23143   1.119   6.586   0.534  0.0246  0.4428  0.2412
 7415SOL    HW123144   1.035   6.609   0.486 -0.0056  1.2132  0.6545
 7415SOL    HW223145   1.193   6.571   0.468 -0.0464  1.3650 -0.0558
 7416SOL     OW23146   0.764   0.943   4.051 -0.6313 -0.3254  0.3428
 7416SOL    HW123147   0.676   0.980   4.024  0.3715  0.5191 -1.9311
 7416SOL    HW223148   0.800   0.995   4.128 -1.9125 -0.4558  1.0621
 7417SOL     OW23149   2.795   2.814   6.072  0.3104  0.4977  0.2717
 7417SOL    HW123150   2.705   2.771   6.067  0.3098  0.3872  1.1480
 7417SOL    HW223151   2.847   2.775   6.148  1.4604 -0.0989 -0.7809
 7418SOL     OW23152   1.858   5.903   0.696  0.7424  0.4361 -0.0617
 7418SOL    HW123153   1.861   5.896   0.597 -3.5434  1.3172 -0.4859
 7418SOL    HW223154   1.838   5.813   0.736  2.4111  0.0927  0.0681
 7419SOL     OW23155   0.906   3.262   3.895  0.1666 -0.0174 -0.2066
 7419SOL    HW123156   0.910   3.282   3.797  2.4624 -0.2259 -0.2037
 7419SOL    HW223157   0.956   3.333   3.945  0.6374 -0.9364  0.6428
 7420SOL     OW23158   0.309   6.340   0.920  0.3309 -0.1147  0.1431
 7420SOL    HW123159   0.333   6.290   0.836 -1.3223 -0.7700  0.0193
 7420SOL    HW223160   0.233   6.402   0.901 -1.5109 -1.7946  1.5507
 7421SOL     OW23161   3.130   5.300   0.996 -0.3220  0.1746  0.0128
 7421SOL    HW123162   3.099   5.365   0.927 -0.4200 -1.2241 -1.3271
 7421SOL    HW223163   3.196   5.237   0.955  3.0467  1.9303  2.3096
 7422SOL     OW23164   6.220   1.912   0.752 -0.0893 -0.0640  0.7063
 7422SOL    HW123165   6.230   2.003   0.711  1.0865 -0.1577  0.7528
 7422SOL    HW223166   6.215   1.844   0.679  1.1133 -0.1447  0.6736
 7423SOL     OW23167   5.669   2.648   4.147  0.6845 -0.3837 -0.0232
 7423SOL    HW123168   5.675   2.551   4.168 -0.0618 -0.5748 -0.6910
 7423SOL    HW223169   5.713   2.700   4.221  0.6493 -1.1882  0.5789
 7424SOL     OW23170   0.607   0.286   4.382 -0.4249 -0.0460 -0.0971
 7424SOL    HW123171   0.656   0.239   4.455 -0.5769 -1.2924 -0.7768
 7424SOL    HW223172   0.513   0.252   4.377 -0.8831  1.1278  0.1002
 7425SOL     OW23173   3.153   0.600   1.556 -0.0920 -0.0233  0.3103
 7425SOL    HW123174   3.229   0.656   1.523  0.3295 -0.4885  0.4818
 7425SOL    HW223175   3.136   0.525   1.492 -0.4428  0.1135  0.2433
 7426SOL     OW23176   3.176   1.194   3.141  0.2682 -0.1318  0.1696
 7426SOL    HW123177   3.095   1.249   3.163  0.3642  0.0253  0.1296
 7426SOL    HW223178   3.231   1.181   3.223  0.4449  0.1595  0.1010
 7427SOL     OW23179   5.817   1.796   1.928  0.1322 -0.6979 -0.6774
 7427SOL    HW123180   5.849   1.770   2.019 -0.1021  2.5788  0.4775
 7427SOL    HW223181   5.877   1.756   1.859  1.3090 -1.9312  0.9684
 7428SOL     OW23182   4.980   0.047   6.747  0.0663 -0.0534 -0.1506
 7428SOL    HW123183   4.976   0.113   6.672 -0.1419  0.2648  0.1402
 7428SOL    HW223184   4.993  -0.045   6.709  0.6892  0.1857 -0.5406
 7429SOL     OW23185   6.110   5.626   4.371 -0.0164 -0.3061 -0.2038
 7429SOL    HW123186   6.075   5.632   4.278 -1.7921  0.6034  0.4845
 7429SOL    HW223187   6.046   5.574   4.428  0.8314 -0.4850  0.6213
 7430SOL     OW23188   1.146   2.164   4.790  0.4231 -0.7271 -0.0265
 7430SOL    HW123189   1.173   2.089   4.730  1.7683 -0.1697 -0.1466
 7430SOL    HW223190   1.223   2.190   4.848 -0.4532 -0.3701  1.0124
 7431SOL     OW23191   2.699   2.160   1.974 -0.2654  0.2101 -0.3819
 7431SOL    HW123192   2.765   2.229   2.004 -0.0251  0.1216 -0.7161
 7431SOL    HW223193   2.739   2.069   1.982 -0.3862  0.1486 -0.4770
 7432SOL     OW23194   1.336   0.724   3.856 -0.0381  0.2622 -0.1414
 7432SOL    HW123195   1.258   0.787   3.858  0.2919  0.6656  0.4139
 7432SOL    HW223196   1.324   0.658   3.782 -0.3918  0.9820 -0.7412
 7433SOL     OW23197   2.826   5.811   6.238 -0.4702 -0.2746 -0.1719
 7433SOL    HW123198   2.921   5.839   6.254 -0.0781 -1.7632  0.2657
 7433SOL    HW223199   2.771   5.831   6.318 -0.1339 -0.9497  0.2425
 7434SOL     OW23200   4.268   4.771   5.015 -0.2023 -0.3670 -0.0789
 7434SOL    HW123201   4.259   4.673   4.994  3.4009 -0.8946  0.2150
 7434SOL    HW223202   4.300   4.782   5.108  1.0479  0.9785 -0.6407
 7435SOL     OW23203   3.291   5.975   0.955 -0.5417 -0.0948  1.0988
 7435SOL    HW123204   3.239   6.052   0.991 -0.1341  1.2626 -0.9992
 7435SOL    HW223205   3.376   5.966   1.007 -0.2334  1.3978  0.9033
 7436SOL     OW23206   3.463   4.190   5.696  0.2366 -0.5505  0.0781
 7436SOL    HW123207   3.369   4.174   5.728  0.4110  1.6411  1.9446
 7436SOL    HW223208   3.522   4.117   5.732 -0.2211 -0.1417  1.7658
 7437SOL     OW23209   2.299   5.312   6.269  0.2432  0.1291 -0.0376
 7437SOL    HW123210   2.257   5.323   6.358 -0.3434 -0.6602 -0.2029
 7437SOL    HW223211   2.326   5.401   6.232  1.8475  0.3644  1.5530
 7438SOL     OW23212   0.872   6.134   1.984 -0.0883 -0.9766 -0.0232
 7438SOL    HW123213   0.825   6.218   2.015  1.0584 -0.3196 -0.0213
 7438SOL    HW223214   0.875   6.133   1.884 -0.0001 -0.9615 -0.0204
 7439SOL     OW23215   2.350   6.306   6.071  0.2965  0.3817 -0.0552
 7439SOL    HW123216   2.306   6.322   6.160 -0.7210 -4.0241  0.4897
 7439SOL    HW223217   2.285   6.263   6.009  1.8912  0.4487 -1.8596
 7440SOL     OW23218   0.084   4.650   4.099  0.3067  0.1526 -0.4477
 7440SOL    HW123219   0.100   4.743   4.068 -0.7026  0.8683  1.0903
 7440SOL    HW223220   0.171   4.608   4.125  0.4746  2.3400  3.3000
 7441SOL     OW23221   6.348   5.010   3.018  0.2169  0.3380 -0.0134
 7441SOL    HW123222   6.283   4.999   2.942  0.6156  1.8762 -0.6168
 7441SOL    HW223223   6.435   4.967   2.993  0.0214 -0.0792  0.0166
 7442SOL     OW23224   0.041   0.757   4.691 -0.0980  0.4120  0.3744
 7442SOL    HW123225   0.036   0.674   4.636  1.8217  0.2236  0.4171
 7442SOL    HW223226  -0.051   0.787   4.714 -0.8698 -0.8358 -0.9257
 7443SOL     OW23227   5.429   5.711   2.450  0.5971  0.1509 -0.0744
 7443SOL    HW123228   5.394   5.757   2.531  2.4617 -1.1780  1.5893
 7443SOL    HW223229   5.459   5.779   2.383  0.1727  1.2880  0.8522
 7444SOL     OW23230   6.302   2.263   6.039 -0.0914 -0.3771  0.3713
 7444SOL    HW123231   6.382   2.242   6.096  1.1870  1.9356 -0.4526
 7444SOL    HW223232   6.237   2.318   6.092  0.5595  0.7745  0.0232
 7445SOL     OW23233   2.994   6.573   0.947 -0.4043 -0.0732 -0.1872
 7445SOL    HW123234   3.087   6.551   0.975  0.0511  2.3589  0.4457
 7445SOL    HW223235   2.961   6.503   0.884  2.6882  0.0934 -2.2268
 7446SOL     OW23236   6.212   1.841   2.219 -0.4231 -0.0289 -0.2342
 7446SOL    HW123237   6.294   1.792   2.248 -0.0842 -0.8001 -2.3226
 7446SOL    HW223238   6.198   1.827   2.121 -1.1996  2.8059 -0.6133
 7447SOL     OW23239   4.851   3.355   6.409 -0.5382  0.2501 -0.1934
 7447SOL    HW123240   4.949   3.367   6.425 -0.2031  0.9755 -2.4205
 7447SOL    HW223241   4.834   3.264   6.371 -0.5794  0.4511 -0.6705
 7448SOL     OW23242   6.246   1.072   5.944 -0.0859  0.1100  0.4014
 7448SOL    HW123243   6.230   1.013   5.864  0.1645 -1.2639  1.3436
 7448SOL    HW223244   6.340   1.061   5.976  0.1664  1.5334  0.2102
 7449SOL     OW23245   6.730   3.305   2.565 -0.0133  0.4707  0.1053
 7449SOL    HW123246   6.673   3.385   2.577  0.1255  0.7499 -0.9725
 7449SOL    HW223247   6.813   3.330   2.514 -0.2389 -0.4534 -0.7541
 7450SOL     OW23248   5.523   2.856   5.292  0.0193  0.4034  0.4767
 7450SOL    HW123249   5.550   2.824   5.383  2.4542 -1.8858 -0.9209
 7450SOL    HW223250   5.454   2.795   5.254  1.4641 -0.6987 -0.4723
 7451SOL     OW23251   6.276   4.822   1.546  0.3845 -0.3140 -0.1449
 7451SOL    HW123252   6.344   4.791   1.478  2.5263  0.2038  1.6583
 7451SOL    HW223253   6.195   4.764   1.540  0.7898 -0.7445 -2.6222
 7452SOL     OW23254   1.374   5.040   3.777  0.3145  0.1181  0.0171
 7452SOL    HW123255   1.389   5.069   3.871 -1.4371  1.5321 -0.0939
 7452SOL    HW223256   1.382   4.940   3.771  0.6515  0.0323  1.6022
 7453SOL     OW23257   4.765   3.916   5.641  0.3239 -0.4703 -0.8067
 7453SOL    HW123258   4.710   3.838   5.668  0.3474 -0.6127 -1.1599
 7453SOL    HW223259   4.862   3.892   5.647  0.4617  0.4563  1.9069
 7454SOL     OW23260   0.296   2.297   1.879 -0.2007  0.4206  0.0167
 7454SOL    HW123261   0.358   2.342   1.814 -0.9662  0.4567 -0.7099
 7454SOL    HW223262   0.216   2.354   1.893 -0.6125 -0.1609  0.0438
 7455SOL     OW23263   0.145   3.912   6.659 -0.0219  0.4773  0.3344
 7455SOL    HW123264   0.223   3.899   6.597  1.0780  2.1527  1.2784
 7455SOL    HW223265   0.163   3.866   6.746 -1.1591 -1.0907 -0.2122
 7456SOL     OW23266   1.562   0.139   4.666 -0.4817  0.8495  0.2265
 7456SOL    HW123267   1.658   0.169   4.667  0.1028 -0.8669 -0.3149
 7456SOL    HW223268   1.517   0.166   4.751  1.4369 -1.1632  2.0062
 7457SOL     OW23269   1.888   1.029   4.528  0.0544  0.2466 -0.8175
 7457SOL    HW123270   1.876   0.933   4.553 -1.0474  0.8209  0.9967
 7457SOL    HW223271   1.985   1.048   4.515  0.3121 -1.0357 -0.9074
 7458SOL     OW23272   1.168   5.625   6.830  0.1250 -0.3302 -0.3412
 7458SOL    HW123273   1.129   5.561   6.764  0.4665 -0.3830 -0.4921
 7458SOL    HW223274   1.243   5.581   6.879 -0.3307 -0.3970  0.3131
 7459SOL     OW23275   5.989   0.818   3.260  0.4420 -0.0384 -0.0969
 7459SOL    HW123276   5.993   0.916   3.279  1.6376 -0.0368 -0.2902
 7459SOL    HW223277   5.947   0.803   3.170 -0.2026  0.2580  0.1479
 7460SOL     OW23278   1.740   4.614   2.556 -0.0363  0.1442 -0.4777
 7460SOL    HW123279   1.640   4.617   2.551 -0.0806 -0.7560 -0.3291
 7460SOL    HW223280   1.769   4.527   2.596  0.8550 -0.2348 -1.8490
 7461SOL     OW23281   6.390   1.235   5.292  0.2055  0.0861  0.3076
 7461SOL    HW123282   6.450   1.311   5.316  0.6632 -0.2468  0.2236
 7461SOL    HW223283   6.377   1.176   5.372  1.2834 -0.7174 -0.0897
 7462SOL     OW23284   1.254   2.933   1.784  0.2030 -0.4457  0.1805
 7462SOL    HW123285   1.212   2.971   1.866  2.4875 -1.2098  1.8226
 7462SOL    HW223286   1.237   2.835   1.780  1.6668 -0.7572  0.8438
 7463SOL     OW23287   2.117   4.182   1.600 -0.0728 -0.0687 -0.4027
 7463SOL    HW123288   2.095   4.104   1.541  0.4344  0.7525 -1.7253
 7463SOL    HW223289   2.035   4.237   1.615 -1.2083 -2.3357  2.9908
 7464SOL     OW23290   5.992   0.823   1.168 -0.0970  0.0201  0.4479
 7464SOL    HW123291   6.037   0.799   1.082 -0.2404 -1.7814  0.8473
 7464SOL    HW223292   5.915   0.761   1.184 -1.0992  1.3650  1.0920
 7465SOL     OW23293   2.167   4.528   0.227 -0.1590 -0.3312 -0.1462
 7465SOL    HW123294   2.125   4.438   0.215 -1.5474  0.3050 -0.2847
 7465SOL    HW223295   2.256   4.529   0.182 -0.5019 -1.3729 -0.9068
 7466SOL     OW23296   1.083   6.541   5.289 -0.7206 -0.3425 -0.0245
 7466SOL    HW123297   1.170   6.572   5.326 -1.0755  0.7406 -0.0674
 7466SOL    HW223298   1.074   6.442   5.302  0.0482 -0.2956  0.9383
 7467SOL     OW23299   1.265   0.366   2.097  0.9746 -0.3362 -0.3866
 7467SOL    HW123300   1.314   0.441   2.141  1.4541 -1.1584  0.5075
 7467SOL    HW223301   1.218   0.400   2.016  0.7193  1.0481  0.3166
 7468SOL     OW23302   5.636   1.278   3.677 -0.0834 -0.0480  0.1755
 7468SOL    HW123303   5.727   1.237   3.680  1.4690  3.1249  0.4630
 7468SOL    HW223304   5.586   1.256   3.761 -0.0051 -2.5144 -0.3406
 7469SOL     OW23305   0.128   1.417   0.400  0.4964 -0.1054  0.1121
 7469SOL    HW123306   0.030   1.401   0.390  0.5843 -0.3170 -0.4466
 7469SOL    HW223307   0.178   1.338   0.367  0.8772  0.3824 -0.5125
 7470SOL     OW23308   4.508   5.157   3.401 -0.4309  0.0337 -0.6437
 7470SOL    HW123309   4.481   5.250   3.425 -1.4824 -0.2539 -0.6522
 7470SOL    HW223310   4.472   5.134   3.311  0.9970  0.0830 -1.2487
 7471SOL     OW23311   4.742   6.833   6.340 -0.3932  0.3364 -0.0534
 7471SOL    HW123312   4.655   6.847   6.387 -2.3812  2.0056 -3.7890
 7471SOL    HW223313   4.814   6.883   6.388 -2.1177  1.5741  1.4146
 7472SOL     OW23314   4.614   0.791   0.197 -0.1137 -0.2441 -0.1222
 7472SOL    HW123315   4.713   0.800   0.193 -0.1764  0.3967 -0.3129
 7472SOL    HW223316   4.572   0.851   0.129 -0.7373  1.9914  2.0712
 7473SOL     OW23317   6.095   6.419   4.437  0.2033 -0.3764  0.0736
 7473SOL    HW123318   6.148   6.346   4.393 -1.9859 -0.8228 -2.0240
 7473SOL    HW223319   6.119   6.507   4.396  0.7548 -0.2961  0.5591
 7474SOL     OW23320   6.599   2.676   4.221  0.4522  0.8482  0.5612
 7474SOL    HW123321   6.628   2.747   4.285 -1.4099  0.8571  1.4658
 7474SOL    HW223322   6.554   2.719   4.143  1.0473  0.7443  0.1562
 7475SOL     OW23323   4.847   1.443   2.435 -0.4889 -0.5539 -0.5963
 7475SOL    HW123324   4.758   1.436   2.390 -0.0691 -0.9440 -1.4014
 7475SOL    HW223325   4.911   1.379   2.392  0.2323 -0.1383 -0.1643
 7476SOL     OW23326   3.617   6.675   1.883  0.8695 -0.0633 -0.5158
 7476SOL    HW123327   3.607   6.772   1.865 -0.2711  0.1765  1.1938
 7476SOL    HW223328   3.531   6.638   1.917  2.1106 -0.9731  1.8542
 7477SOL     OW23329   6.550   3.248   3.660  0.2246 -0.5393  0.0705
 7477SOL    HW123330   6.617   3.214   3.595  1.3762  0.5411  0.6548
 7477SOL    HW223331   6.583   3.235   3.753 -0.3741 -0.0006  0.3684
 7478SOL     OW23332   5.900   2.952   6.178 -0.8011 -0.2218  0.0960
 7478SOL    HW123333   5.938   2.860   6.177  0.9550  0.4539  0.5995
 7478SOL    HW223334   5.973   3.018   6.195 -1.8250  1.3655 -1.2932
 7479SOL     OW23335   3.779   2.156   3.692  0.1198 -0.5078 -0.3968
 7479SOL    HW123336   3.712   2.180   3.622 -0.1087 -1.9805 -0.7138
 7479SOL    HW223337   3.734   2.153   3.781  0.4586  1.5994 -0.0983
 7480SOL     OW23338   1.581   4.075   2.947  0.3607 -0.2081 -0.5317
 7480SOL    HW123339   1.487   4.063   2.979 -0.1018  2.0427 -0.8931
 7480SOL    HW223340   1.644   4.060   3.024 -0.4276  0.1332  0.2051
 7481SOL     OW23341   3.528   5.208   0.960  0.0713 -0.3322  0.0585
 7481SOL    HW123342   3.544   5.299   1.000 -1.1398  2.0339 -4.1806
 7481SOL    HW223343   3.600   5.145   0.990  0.0765  1.4041  4.4782
 7482SOL     OW23344   5.676   2.449   2.572 -0.7188 -0.3627 -0.2785
 7482SOL    HW123345   5.638   2.357   2.578 -2.3953  0.2273 -1.2945
 7482SOL    HW223346   5.738   2.454   2.494  0.3971 -0.9287  0.5264
 7483SOL     OW23347   4.762   4.537   3.968 -0.3316  0.1870  0.2785
 7483SOL    HW123348   4.849   4.533   3.918 -1.0899  0.3045 -1.0869
 7483SOL    HW223349   4.728   4.444   3.983  0.7778  0.0289  2.2533
 7484SOL     OW23350   6.652   6.234   1.882  0.0533 -1.1900 -0.0512
 7484SOL    HW123351   6.651   6.329   1.914  2.6248 -1.1981  0.2763
 7484SOL    HW223352   6.687   6.230   1.789 -3.3793 -1.5759 -1.4529
 7485SOL     OW23353   2.190   6.670   5.403  0.3945  0.3133 -0.3037
 7485SOL    HW123354   2.208   6.572   5.390 -1.1586 -0.5048  2.7102
 7485SOL    HW223355   2.273   6.715   5.436  0.4985 -0.5320  0.6252
 7486SOL     OW23356   2.209   6.609   0.945  0.2590 -0.1005  0.3634
 7486SOL    HW123357   2.247   6.694   0.907 -0.6095 -0.0125 -0.3430
 7486SOL    HW223358   2.156   6.562   0.874  0.1332 -0.8718  0.9605
 7487SOL     OW23359   0.117   0.389   2.515 -0.4307  0.3011 -0.4565
 7487SOL    HW123360   0.123   0.436   2.602  0.2215  1.1723 -0.9536
 7487SOL    HW223361   0.024   0.355   2.501 -0.9753  1.6555 -0.1933
 7488SOL     OW23362   4.473   5.289   4.744 -0.1794 -0.0126  0.5282
 7488SOL    HW123363   4.520   5.202   4.730 -2.1604 -1.1694  0.7173
 7488SOL    HW223364   4.539   5.358   4.774  1.2344 -1.7804  1.7043
 7489SOL     OW23365   5.109   2.576   5.773  0.3133  0.2346  0.2022
 7489SOL    HW123366   5.088   2.605   5.679  0.0330  1.8058  0.7289
 7489SOL    HW223367   5.083   2.648   5.837 -2.3157 -1.9402  1.8001
 7490SOL     OW23368   0.388   0.454   2.903  0.2232  0.1085  0.1384
 7490SOL    HW123369   0.358   0.462   2.998 -0.2377  1.5165 -0.0949
 7490SOL    HW223370   0.469   0.510   2.888  0.9057 -0.9117 -0.0745
 7491SOL     OW23371   3.496   1.343   6.483 -0.0426 -0.2077  0.1354
 7491SOL    HW123372   3.519   1.438   6.464 -0.6540  0.0938  0.8610
 7491SOL    HW223373   3.398   1.329   6.469  0.2328 -1.0460 -1.1795
 7492SOL     OW23374   2.788   0.114   3.192 -0.1989 -0.0946  0.0454
 7492SOL    HW123375   2.871   0.102   3.138 -0.2964 -0.6139  0.0042
 7492SOL    HW223376   2.731   0.184   3.150 -0.3834 -0.6591 -0.6685
 7493SOL     OW23377   6.845   5.000   6.121 -0.0219 -0.5256 -0.1532
 7493SOL    HW123378   6.785   4.995   6.041  1.2928  0.2053 -1.2343
 7493SOL    HW223379   6.910   5.075   6.109  1.2074 -1.3836  0.8822
 7494SOL     OW23380   6.194   1.124   1.958  0.2325 -0.4778  0.6415
 7494SOL    HW123381   6.167   1.028   1.964  0.0197 -0.4667 -0.0507
 7494SOL    HW223382   6.189   1.154   1.863 -0.1866  0.3604  0.9234
 7495SOL     OW23383   1.254   1.403   0.740  0.1306 -0.3562 -0.4989
 7495SOL    HW123384   1.216   1.366   0.655 -0.7602 -1.1563  0.2225
 7495SOL    HW223385   1.205   1.486   0.765  0.9820  0.3842 -1.2093
 7496SOL     OW23386   6.688   2.792   3.681  0.0244 -0.1959 -0.1080
 7496SOL    HW123387   6.717   2.736   3.602 -0.3440 -0.8927  0.2430
 7496SOL    HW223388   6.600   2.835   3.661 -1.7534 -3.0133  1.1151
 7497SOL     OW23389   0.391   4.831   0.910 -0.4729  0.0859 -0.4027
 7497SOL    HW123390   0.378   4.737   0.941  1.0946  0.3491  1.2344
 7497SOL    HW223391   0.467   4.834   0.845  1.2973  0.4996  1.5730
 7498SOL     OW23392   3.351   6.894   4.364 -0.4128 -0.1340  0.3099
 7498SOL    HW123393   3.328   6.899   4.267  0.5900 -0.8832  0.0163
 7498SOL    HW223394   3.294   6.824   4.408 -1.1312  0.4643  0.3639
 7499SOL     OW23395   4.700   2.332   4.418 -0.0481 -0.0500 -0.1211
 7499SOL    HW123396   4.627   2.392   4.450  1.0526  1.0241  0.4733
 7499SOL    HW223397   4.661   2.248   4.382 -1.5012 -0.1252  1.4927
 7500SOL     OW23398   2.962   6.741   4.169 -0.2164 -0.3084 -0.1356
 7500SOL    HW123399   2.933   6.830   4.134  0.5868 -0.2202 -0.5870
 7500SOL    HW223400   3.061   6.731   4.158 -0.1998 -0.9771  0.5510
 7501SOL     OW23401   4.524   4.794   3.555  0.3587 -0.0721 -0.5253
 7501SOL    HW123402   4.489   4.716   3.607  0.0335 -0.1579 -0.8679
 7501SOL    HW223403   4.624   4.794   3.558  0.3305  0.7213  1.2608
 7502SOL     OW23404   3.878   0.213   3.336  0.2476 -0.3598 -0.0795
 7502SOL    HW123405   3.890   0.310   3.355 -1.1083 -0.0070 -0.9583
 7502SOL    HW223406   3.906   0.193   3.242  1.8543 -1.1137  0.5112
 7503SOL     OW23407   2.143   1.059   1.754 -0.0804 -0.1137 -0.0175
 7503SOL    HW123408   2.238   1.085   1.771 -0.0172 -0.9800  1.0736
 7503SOL    HW223409   2.136   1.010   1.667  0.6158 -0.7860  0.3027
 7504SOL     OW23410   1.162   6.317   3.838  0.1250 -0.1843 -0.2001
 7504SOL    HW123411   1.173   6.248   3.766 -0.8878 -1.3467  0.7251
 7504SOL    HW223412   1.243   6.377   3.839  0.5305 -0.6600 -1.7366
 7505SOL     OW23413   0.708   2.729   5.656 -0.0031 -0.6177 -0.0955
 7505SOL    HW123414   0.619   2.699   5.690 -0.1238 -0.1264  0.0375
 7505SOL    HW223415   0.721   2.699   5.562 -1.1542  0.9610 -0.8035
 7506SOL     OW23416   4.728   2.854   4.556  0.1607 -0.1690 -0.3630
 7506SOL    HW123417   4.799   2.785   4.540 -0.1504 -0.2835 -1.2783
 7506SOL    HW223418   4.768   2.933   4.601  0.5018 -0.9913  0.8247
 7507SOL     OW23419   6.361   3.197   2.544 -0.3111  0.6475  0.1749
 7507SOL    HW123420   6.264   3.198   2.517 -0.5018  1.5558  0.8086
 7507SOL    HW223421   6.403   3.284   2.517  0.1184  0.5779  0.6122
 7508SOL     OW23422   2.047   0.184   1.763 -0.4586  0.1307  0.2472
 7508SOL    HW123423   2.049   0.283   1.780  1.0115  0.5389 -1.8551
 7508SOL    HW223424   1.961   0.159   1.719 -0.5388  0.5994  0.1318
 7509SOL     OW23425   6.316   4.955   6.136 -0.1452  0.5094  0.4011
 7509SOL    HW123426   6.352   4.982   6.226 -1.8668 -0.0702  1.3115
 7509SOL    HW223427   6.345   4.861   6.116  0.6871  0.8254  0.0871
 7510SOL     OW23428   1.976   4.057   5.157  0.7033 -0.2188 -0.1026
 7510SOL    HW123429   2.072   4.078   5.176  0.9186 -1.4147  0.2113
 7510SOL    HW223430   1.928   4.037   5.242 -0.5348  2.9723  0.0832
 7511SOL     OW23431   3.547   5.769   3.472  0.0467  0.1867  0.2947
 7511SOL    HW123432   3.528   5.816   3.386 -0.6643 -1.5500 -0.5628
 7511SOL    HW223433   3.645   5.747   3.478  0.6256  2.7206  1.2770
 7512SOL     OW23434   2.756   0.226   4.283 -0.4354  0.1688 -0.6448
 7512SOL    HW123435   2.674   0.213   4.228 -0.9403 -0.2565  0.1957
 7512SOL    HW223436   2.820   0.285   4.233 -0.7478 -0.4428 -1.8144
 7513SOL     OW23437   0.146   2.858   1.934  0.5344 -0.2252 -0.1137
 7513SOL    HW123438   0.134   2.903   2.023  0.2457 -2.1767  0.8856
 7513SOL    HW223439   0.073   2.886   1.873 -0.7797 -0.7909  1.1310
 7514SOL     OW23440   2.236   4.128   2.568 -0.5582  0.2961  0.4582
 7514SOL    HW123441   2.265   4.178   2.649 -0.8635 -0.3719  0.9854
 7514SOL    HW223442   2.270   4.175   2.486  2.3747 -0.6549  1.0266
 7515SOL     OW23443   4.726   5.008   3.449  0.2454  0.2619  0.0366
 7515SOL    HW123444   4.733   4.964   3.360 -0.0189  0.9836 -0.3567
 7515SOL    HW223445   4.647   5.069   3.449 -0.3197 -0.4472  1.0944
 7516SOL     OW23446   5.659   3.746   0.499  0.1270 -0.8596  0.9226
 7516SOL    HW123447   5.568   3.718   0.469 -0.3708 -0.6022  2.1408
 7516SOL    HW223448   5.712   3.665   0.524 -0.7591 -0.8886  2.8991
 7517SOL     OW23449   6.966   6.782   2.419  0.7967  0.1264 -0.4645
 7517SOL    HW123450   7.058   6.767   2.455  0.9750  1.0914 -0.4976
 7517SOL    HW223451   6.947   6.716   2.346  0.5182 -1.7065  1.1915
 7518SOL     OW23452   5.014   3.345   4.160  0.3278  0.4165 -0.3678
 7518SOL    HW123453   4.996   3.282   4.236  0.0335  1.5561  0.5388
 7518SOL    HW223454   5.012   3.294   4.074  1.7366 -1.1195  0.4370
 7519SOL     OW23455   1.903   6.913   4.605  0.3240 -0.0636  0.0353
 7519SOL    HW123456   1.965   6.942   4.532 -0.4574  0.9398 -0.2641
 7519SOL    HW223457   1.818   6.879   4.564  0.4874 -0.9883  0.4472
 7520SOL     OW23458   3.410   5.706   2.672  0.5265  0.3952  0.4001
 7520SOL    HW123459   3.321   5.671   2.700  0.6572 -0.3284 -0.0562
 7520SOL    HW223460   3.414   5.710   2.572  1.6142 -1.2871  0.3346
 7521SOL     OW23461   5.464   3.116   6.171 -0.3748  0.3788 -0.1362
 7521SOL    HW123462   5.530   3.044   6.194 -0.8692  0.2023  0.7770
 7521SOL    HW223463   5.448   3.173   6.251 -2.0782 -0.1892 -0.0267
 7522SOL     OW23464   2.945   1.339   6.357 -0.0815 -0.0494 -0.6734
 7522SOL    HW123465   2.981   1.293   6.438  1.4385  2.4795  0.2013
 7522SOL    HW223466   3.021   1.373   6.301 -1.1175  1.1549 -1.3895
 7523SOL     OW23467   5.722   0.481   2.136  0.1428 -0.1885  0.5675
 7523SOL    HW123468   5.632   0.496   2.096  0.1889 -0.3112  0.4196
 7523SOL    HW223469   5.722   0.396   2.189 -0.3105  0.6411  1.9638
 7524SOL     OW23470   0.597   3.825   6.413 -0.2521  0.3683  0.2636
 7524SOL    HW123471   0.609   3.726   6.411  1.8108  0.5662  0.8770
 7524SOL    HW223472   0.663   3.866   6.476  0.3372  2.3106 -1.5091
 7525SOL     OW23473   2.163   6.453   0.139 -0.3056 -0.0616  0.2883
 7525SOL    HW123474   2.229   6.378   0.147 -0.0003 -0.0099 -1.2757
 7525SOL    HW223475   2.158   6.503   0.225  2.4826  0.5768  0.1866
 7526SOL     OW23476   3.236   2.769   0.423  0.0666 -0.0523 -0.6244
 7526SOL    HW123477   3.204   2.817   0.505  1.1611  2.2609 -1.4781
 7526SOL    HW223478   3.330   2.738   0.437 -0.0465 -0.4381 -0.7032
 7527SOL     OW23479   3.022   6.711   3.813 -0.4463  0.3236 -0.4400
 7527SOL    HW123480   2.992   6.653   3.737 -1.1342  0.0179  0.0487
 7527SOL    HW223481   2.964   6.693   3.893  1.4907 -0.8583  0.7970
 7528SOL     OW23482   6.114   1.108   0.483  0.0347 -0.1854 -0.2234
 7528SOL    HW123483   6.182   1.037   0.462  0.7506  0.9334 -1.9113
 7528SOL    HW223484   6.137   1.150   0.570  0.1852 -1.3356  0.3130
 7529SOL     OW23485   5.234   1.481   5.119  0.2021 -0.1824  0.6934
 7529SOL    HW123486   5.142   1.498   5.156  0.2648  0.0157  0.7631
 7529SOL    HW223487   5.242   1.523   5.029 -1.0372 -3.4073 -1.0875
 7530SOL     OW23488   5.760   3.760   2.445 -0.4198  0.2012  0.4710
 7530SOL    HW123489   5.672   3.775   2.401  0.2602 -1.3907 -1.5503
 7530SOL    HW223490   5.829   3.738   2.376  1.2693  0.0250  2.1298
 7531SOL     OW23491   5.053   5.000   5.671 -0.3012  0.0925 -0.2649
 7531SOL    HW123492   5.099   5.024   5.585 -1.3763  1.9136 -0.3782
 7531SOL    HW223493   4.968   5.052   5.679  0.1228  0.5111  2.2525
 7532SOL     OW23494   3.492   5.587   1.829  0.1766 -0.6839  0.3410
 7532SOL    HW123495   3.469   5.664   1.769  0.8577 -1.7654 -1.4082
 7532SOL    HW223496   3.431   5.511   1.809  0.2669 -0.9926  1.2126
 7533SOL     OW23497   3.058   2.069   2.053 -0.1130 -0.2490  0.0811
 7533SOL    HW123498   3.104   2.052   2.140  0.4130  1.2166  0.1148
 7533SOL    HW223499   3.018   2.161   2.054  1.7077  0.6372 -1.9799
 7534SOL     OW23500   4.234   5.893   3.530 -0.1664  0.3366  0.0360
 7534SOL    HW123501   4.137   5.912   3.517 -0.3897 -1.5164 -1.3825
 7534SOL    HW223502   4.245   5.806   3.579  0.7601 -0.1856 -1.0641
 7535SOL     OW23503   2.866   6.252   4.846 -0.1186 -0.4420 -0.4540
 7535SOL    HW123504   2.794   6.183   4.848 -1.5828  1.0245  0.6512
 7535SOL    HW223505   2.864   6.303   4.932  2.2199 -0.3013 -0.4365
 7536SOL     OW23506   5.392   3.588   4.939  0.5141 -0.0613  0.7621
 7536SOL    HW123507   5.487   3.557   4.945  0.5752 -0.1876 -0.5942
 7536SOL    HW223508   5.357   3.569   4.847 -0.3494  1.3464  0.7829
 7537SOL     OW23509   0.466   4.217   1.631 -0.1185 -0.0891  0.3288
 7537SOL    HW123510   0.387   4.233   1.572  2.0274 -1.0974 -3.1680
 7537SOL    HW223511   0.546   4.264   1.592  1.3840 -0.4535  2.7635
 7538SOL     OW23512   2.410   4.748   3.069  0.5415  0.0005  0.9190
 7538SOL    HW123513   2.326   4.698   3.049 -0.6015  2.0314  0.3207
 7538SOL    HW223514   2.421   4.822   3.003  2.2484  0.4419  1.6420
 7539SOL     OW23515   1.110   3.844   4.453 -0.7648 -0.2102 -0.0244
 7539SOL    HW123516   1.132   3.911   4.524  0.5986 -2.2158  1.5365
 7539SOL    HW223517   1.189   3.834   4.392 -1.6310  0.8854 -1.3931
 7540SOL     OW23518   5.096   6.522   4.423 -0.2666  0.0244 -0.2199
 7540SOL    HW123519   5.027   6.450   4.429  0.3356 -0.6827 -1.4017
 7540SOL    HW223520   5.111   6.545   4.327 -0.5505  1.8487  0.1440
 7541SOL     OW23521   0.139   1.748   5.054  0.2630 -0.3496  0.2067
 7541SOL    HW123522   0.204   1.784   4.986 -0.5013 -1.1351 -0.9782
 7541SOL    HW223523   0.164   1.655   5.078 -0.2571 -0.5555 -0.0401
 7542SOL     OW23524   0.154   0.580   6.772 -0.1209 -0.4188 -0.1828
 7542SOL    HW123525   0.191   0.585   6.865 -0.7752 -1.3360  0.1378
 7542SOL    HW223526   0.085   0.652   6.759 -0.6970 -0.8623  0.3591
 7543SOL     OW23527   3.140   6.780   5.403  0.3860 -0.0782  0.0115
 7543SOL    HW123528   3.192   6.698   5.377  1.8366  1.0884 -0.9123
 7543SOL    HW223529   3.157   6.801   5.499  1.0917 -0.1129 -0.1003
 7544SOL     OW23530   4.694   1.693   4.509  0.4426  0.2317 -0.1587
 7544SOL    HW123531   4.763   1.757   4.475  0.6527 -0.3527 -0.8523
 7544SOL    HW223532   4.604   1.721   4.476 -0.2330  2.8635  3.2808
 7545SOL     OW23533   6.812   1.013   6.016 -0.0155  0.6250 -0.2747
 7545SOL    HW123534   6.781   1.108   6.002 -1.8772  0.1741  0.5043
 7545SOL    HW223535   6.860   1.006   6.103 -1.0398  0.6182  0.3054
 7546SOL     OW23536   4.429   0.827   0.388  0.3040 -0.3173  0.1106
 7546SOL    HW123537   4.493   0.822   0.311 -0.2295 -0.1533 -0.3569
 7546SOL    HW223538   4.395   0.735   0.408  1.1132 -0.4914  0.7424
 7547SOL     OW23539   4.412   1.006   1.082 -0.4419 -0.2596 -0.2122
 7547SOL    HW123540   4.458   0.919   1.068 -0.0365  0.0124 -0.6221
 7547SOL    HW223541   4.342   1.019   1.012  0.5021  0.3915 -1.0622
 7548SOL     OW23542   5.339   2.575   6.465 -0.9935  0.7507  0.0512
 7548SOL    HW123543   5.430   2.534   6.455 -0.9310  1.2635 -1.6535
 7548SOL    HW223544   5.293   2.532   6.542  0.8875  0.8716  1.3217
 7549SOL     OW23545   2.312   3.594   6.384  0.0246 -0.1516 -0.3382
 7549SOL    HW123546   2.330   3.654   6.306 -1.3547  1.3000  0.4005
 7549SOL    HW223547   2.399   3.564   6.424  0.8128  2.3212 -0.0386
 7550SOL     OW23548   0.269   6.256   5.227 -0.3729  0.2323  0.6932
 7550SOL    HW123549   0.291   6.330   5.291 -0.5442  0.6920  0.2315
 7550SOL    HW223550   0.274   6.168   5.274  0.0435  0.5220  1.1986
 7551SOL     OW23551   0.021   2.595   4.062 -0.2820 -0.7881 -0.0614
 7551SOL    HW123552   0.088   2.600   3.989 -0.3558  0.0654 -0.0765
 7551SOL    HW223553  -0.051   2.663   4.046  0.0968 -0.0568  1.1911
 7552SOL     OW23554   1.635   0.045   2.390  0.1119 -0.4535 -0.2727
 7552SOL    HW123555   1.701  -0.010   2.443 -0.4822 -0.3135  0.6297
 7552SOL    HW223556   1.576   0.095   2.453  0.7843  1.4237 -1.0773
 7553SOL     OW23557   5.801   6.278   6.806 -0.2312  0.2639  0.3113
 7553SOL    HW123558   5.708   6.242   6.797 -0.1113  0.1235 -0.4825
 7553SOL    HW223559   5.843   6.281   6.716  1.6627 -2.6826  0.9595
 7554SOL     OW23560   4.577   0.660   5.777  0.2482 -0.1742 -0.0883
 7554SOL    HW123561   4.538   0.642   5.687 -1.0582  3.5215 -0.4356
 7554SOL    HW223562   4.677   0.655   5.772  0.1548 -1.8561 -1.2012
 7555SOL     OW23563   2.780   5.421   6.109  0.0443 -0.5126 -0.4177
 7555SOL    HW123564   2.758   5.476   6.190  0.8960 -0.5728 -0.1353
 7555SOL    HW223565   2.739   5.464   6.028  0.5071  0.4271 -0.1683
 7556SOL     OW23566   1.940   3.695   0.516 -0.5614  0.2841 -0.1143
 7556SOL    HW123567   2.026   3.739   0.540 -0.0567  0.6155 -2.3401
 7556SOL    HW223568   1.877   3.701   0.593  0.5620  2.1320  0.7193
 7557SOL     OW23569   5.407   1.187   6.318  0.3724  0.1253 -0.0605
 7557SOL    HW123570   5.507   1.186   6.323  0.3864 -0.4937 -0.4130
 7557SOL    HW223571   5.371   1.248   6.389  1.0309  1.2041 -0.6351
 7558SOL     OW23572   2.102   3.253   4.437  0.1957  0.4947 -0.1501
 7558SOL    HW123573   2.156   3.238   4.354  0.0543  1.7768 -0.4941
 7558SOL    HW223574   2.139   3.330   4.488 -0.9904  1.0775 -0.1249
 7559SOL     OW23575   4.098   1.297   6.122  0.2552 -0.0175  0.4019
 7559SOL    HW123576   4.160   1.373   6.144  0.9565 -0.0516 -1.3192
 7559SOL    HW223577   4.129   1.214   6.169  0.9202  0.2009  0.3544
 7560SOL     OW23578   2.855   0.419   0.494 -0.0701 -0.0857  0.0739
 7560SOL    HW123579   2.889   0.445   0.404 -2.8709 -1.4692 -1.5240
 7560SOL    HW223580   2.863   0.496   0.557  1.7297  0.9869 -1.3643
 7561SOL     OW23581   6.726   4.202   6.286  0.5793 -0.6494 -0.1259
 7561SOL    HW123582   6.660   4.209   6.360  1.3481  1.1743  0.4383
 7561SOL    HW223583   6.774   4.115   6.292  0.0246 -0.8915  0.9798
 7562SOL     OW23584   6.755   4.557   4.370 -0.6610  0.2104  0.1164
 7562SOL    HW123585   6.718   4.645   4.339 -0.5438  0.6174  1.0924
 7562SOL    HW223586   6.684   4.507   4.419 -0.4677  0.1600  0.3472
 7563SOL     OW23587   4.696   0.683   0.970 -0.2951  0.4425  0.6083
 7563SOL    HW123588   4.707   0.779   0.942 -0.1599  1.2343  3.0510
 7563SOL    HW223589   4.676   0.627   0.891 -4.0376  3.0218 -0.5342
 7564SOL     OW23590   5.696   5.998   2.937  0.0273 -0.0233 -0.1944
 7564SOL    HW123591   5.674   5.991   2.840 -2.0414  0.9665  0.1611
 7564SOL    HW223592   5.620   5.961   2.991  0.5482  0.7223  1.0749
 7565SOL     OW23593   6.270   2.276   6.636 -0.7420 -0.0190 -0.0662
 7565SOL    HW123594   6.223   2.189   6.624  1.3874 -1.2151 -0.3347
 7565SOL    HW223595   6.273   2.325   6.549 -1.8826  0.3139  0.0690
 7566SOL     OW23596   4.343   5.216   2.684 -0.3295 -0.4017  0.0437
 7566SOL    HW123597   4.381   5.125   2.666 -0.8557 -0.8126  0.9495
 7566SOL    HW223598   4.365   5.276   2.607  1.9106 -0.6801  0.3820
 7567SOL     OW23599   0.848   0.994   5.438  0.2229 -0.3394  0.0592
 7567SOL    HW123600   0.807   1.020   5.526  0.8817 -0.7799  0.5097
 7567SOL    HW223601   0.890   1.073   5.395 -1.6888  0.2802 -0.7518
 7568SOL     OW23602   6.630   4.869   2.630  0.1628 -0.0013  0.2756
 7568SOL    HW123603   6.689   4.794   2.660 -0.0567 -0.4311 -0.3483
 7568SOL    HW223604   6.624   4.938   2.703  0.2646 -0.6421  0.9023
 7569SOL     OW23605   2.906   4.555   0.287 -0.4154 -0.5321 -0.2013
 7569SOL    HW123606   2.990   4.570   0.340 -0.4229 -0.1087 -0.3050
 7569SOL    HW223607   2.903   4.619   0.210 -0.6314 -0.8287 -0.4464
 7570SOL     OW23608   5.918   3.244   4.185  0.4961  0.0530  0.1741
 7570SOL    HW123609   5.820   3.262   4.180  0.4442 -0.3373 -0.2479
 7570SOL    HW223610   5.968   3.331   4.186  0.1140  0.2760  1.2814
 7571SOL     OW23611   4.585   4.426   2.255  0.6348  0.6133  0.2926
 7571SOL    HW123612   4.547   4.343   2.216  1.4736 -0.8453  2.4143
 7571SOL    HW223613   4.522   4.502   2.238 -0.1173 -0.3735 -1.7587
 7572SOL     OW23614   6.089   2.111   1.207  0.4230  0.2817 -0.1428
 7572SOL    HW123615   6.009   2.122   1.266  0.5300  0.4110 -0.0207
 7572SOL    HW223616   6.146   2.036   1.241  0.5530  0.4416 -0.0013
 7573SOL     OW23617   0.033   0.729   6.316  0.1670  0.2331  0.5081
 7573SOL    HW123618   0.029   0.713   6.217 -0.2994  0.8361  0.4289
 7573SOL    HW223619   0.020   0.642   6.364  2.4916 -0.4512  0.0330
 7574SOL     OW23620   3.956   0.728   4.199  0.5448  0.0668  0.5222
 7574SOL    HW123621   3.936   0.637   4.234  0.7676 -0.1192  0.1677
 7574SOL    HW223622   4.020   0.774   4.260  0.6316 -0.1119  0.5668
 7575SOL     OW23623   6.090   0.137   1.511 -0.4453 -0.5666 -0.1266
 7575SOL    HW123624   6.097   0.227   1.469  1.5851 -1.6174 -2.3220
 7575SOL    HW223625   6.091   0.146   1.611  2.4773  1.7711 -0.2115
 7576SOL     OW23626   4.487   3.406   0.486 -0.3282  0.2505 -0.0154
 7576SOL    HW123627   4.560   3.466   0.520  0.8402 -0.9160 -0.3414
 7576SOL    HW223628   4.473   3.422   0.388  2.1019 -1.9368 -0.8495
 7577SOL     OW23629   6.655   5.969   0.978 -0.5641 -0.0422 -0.4942
 7577SOL    HW123630   6.597   6.049   0.965  0.4994  0.5911 -1.5792
 7577SOL    HW223631   6.599   5.886   0.978 -1.8430  0.7133  1.8179
 7578SOL     OW23632   4.445   6.491   3.857  0.4970 -0.3897 -0.0507
 7578SOL    HW123633   4.474   6.577   3.815  2.0995  0.9533  3.3711
 7578SOL    HW223634   4.514   6.462   3.923 -2.3992 -1.3680  2.8081
 7579SOL     OW23635   0.145   0.245   2.858 -0.2584  0.2645  0.6250
 7579SOL    HW123636   0.150   0.338   2.823  0.8855 -0.0388 -0.0638
 7579SOL    HW223637   0.194   0.240   2.945  1.5676 -0.1393 -0.3876
 7580SOL     OW23638   1.349   4.588   4.282 -0.0216 -0.1320 -0.3066
 7580SOL    HW123639   1.390   4.567   4.371  0.0462  5.0954  1.2279
 7580SOL    HW223640   1.416   4.635   4.225 -0.9848 -0.7097 -1.9828
 7581SOL     OW23641   0.067   2.570   0.839  0.1992 -0.0974 -0.2232
 7581SOL    HW123642   0.097   2.489   0.789  0.1263 -2.1277  2.7504
 7581SOL    HW223643   0.145   2.615   0.881 -0.0222 -0.2727  0.3918
 7582SOL     OW23644   4.134   2.250   3.968 -0.1097 -0.1762  0.2253
 7582SOL    HW123645   4.049   2.289   3.933 -0.8922 -1.0077  1.1399
 7582SOL    HW223646   4.200   2.241   3.894 -1.7557 -2.0180 -1.1234
 7583SOL     OW23647   5.119   2.185   3.964 -0.1656 -0.4405  0.8309
 7583SOL    HW123648   5.217   2.179   3.943 -0.6863  0.3845 -2.4398
 7583SOL    HW223649   5.074   2.244   3.897 -2.8726 -0.3803  2.5328
 7584SOL     OW23650   2.397   1.170   4.566  0.0138  0.0768  0.1638
 7584SOL    HW123651   2.318   1.109   4.561  0.1345 -0.0194 -0.7417
 7584SOL    HW223652   2.428   1.176   4.660 -1.9923  1.3021  0.8077
 7585SOL     OW23653   1.334   2.903   6.110 -0.0380 -0.3960  0.1423
 7585SOL    HW123654   1.386   2.829   6.151 -0.8388 -0.7312  0.5717
 7585SOL    HW223655   1.296   2.873   6.023 -0.2174 -0.4275  0.2324
 7586SOL     OW23656   2.932   6.980   4.034 -0.5265 -0.2969  0.3147
 7586SOL    HW123657   3.027   6.991   4.066 -0.1304  0.1190 -0.9443
 7586SOL    HW223658   2.914   7.046   3.960 -0.5260 -2.9351 -2.1997
 7587SOL     OW23659   2.536   1.569   6.144 -0.6741  0.2291 -0.4533
 7587SOL    HW123660   2.608   1.599   6.207  0.7547 -0.6520 -1.5938
 7587SOL    HW223661   2.548   1.472   6.124 -2.6526 -0.1222 -0.1086
 7588SOL     OW23662   2.207   1.845   5.072 -0.5392 -0.0897 -0.7091
 7588SOL    HW123663   2.108   1.843   5.065 -0.9346 -0.1152  2.8480
 7588SOL    HW223664   2.241   1.938   5.058 -1.3589  0.3799  0.3400
 7589SOL     OW23665   1.171   0.672   0.211  0.3053 -0.2080 -0.4415
 7589SOL    HW123666   1.088   0.659   0.156 -0.4872  2.4948 -0.0528
 7589SOL    HW223667   1.212   0.761   0.189  2.8837 -1.2777 -0.2736
 7590SOL     OW23668   2.557   2.434   6.388  0.1649 -0.1796  0.4281
 7590SOL    HW123669   2.582   2.341   6.364 -1.1370 -0.3117 -0.5157
 7590SOL    HW223670   2.614   2.466   6.464  2.6929 -0.6597 -1.1531
 7591SOL     OW23671   3.485   3.217   1.565 -0.0723  0.4558  0.4388
 7591SOL    HW123672   3.421   3.256   1.499 -0.1870  1.7910  1.3081
 7591SOL    HW223673   3.437   3.201   1.651 -0.3095 -2.6394 -0.1600
 7592SOL     OW23674   6.779   6.396   3.994  0.1593  0.4393 -0.2339
 7592SOL    HW123675   6.787   6.376   3.897 -0.4366  0.8027 -0.3664
 7592SOL    HW223676   6.685   6.425   4.014  0.3589  0.6647  0.3899
 7593SOL     OW23677   6.029   3.795   0.124  0.5709 -0.6869 -0.0160
 7593SOL    HW123678   5.999   3.701   0.143  0.6284 -0.5810  0.6041
 7593SOL    HW223679   6.010   3.852   0.203  0.8387 -0.2412 -0.2737
 7594SOL     OW23680   1.091   4.814   2.709 -0.1651  0.3607  0.0840
 7594SOL    HW123681   1.140   4.782   2.628  2.1160 -0.7046  1.7698
 7594SOL    HW223682   1.007   4.762   2.721  0.2368 -0.5074 -0.7779
 7595SOL     OW23683   3.288   2.540   1.083  0.1824  0.0663 -0.0057
 7595SOL    HW123684   3.336   2.476   1.022 -0.0821  0.0709 -0.2241
 7595SOL    HW223685   3.316   2.523   1.177 -0.2958 -0.7597  0.0043
 7596SOL     OW23686   4.894   4.805   5.265 -0.1338  0.5488  0.5537
 7596SOL    HW123687   4.842   4.745   5.204  0.5339  0.1562  0.3547
 7596SOL    HW223688   4.952   4.749   5.325 -0.9542  0.9243  1.7172
 7597SOL     OW23689   0.760   0.110   3.022 -0.0229 -0.3805 -0.2031
 7597SOL    HW123690   0.679   0.144   2.975 -0.3206 -0.4352  0.2613
 7597SOL    HW223691   0.734   0.074   3.112  0.3007 -1.7665 -0.6422
 7598SOL     OW23692   6.612   5.556   4.607 -0.0416  0.2654  0.0434
 7598SOL    HW123693   6.662   5.623   4.662  0.5493  0.4126 -0.6544
 7598SOL    HW223694   6.648   5.556   4.513 -1.4123  0.4213 -0.4996
 7599SOL     OW23695   6.520   3.081   3.260 -0.0111 -0.1053 -0.4239
 7599SOL    HW123696   6.564   3.162   3.299  0.1078  0.2287 -1.2314
 7599SOL    HW223697   6.436   3.061   3.312 -1.4624  2.1009 -1.7526
 7600SOL     OW23698   1.037   0.598   3.334 -0.1725 -0.4366 -0.1048
 7600SOL    HW123699   1.009   0.692   3.314 -0.1811 -0.6898 -1.3996
 7600SOL    HW223700   1.041   0.546   3.248  1.0837 -1.2828  0.4378
 7601SOL     OW23701   2.463   6.418   3.087  0.1214 -0.0832 -0.1666
 7601SOL    HW123702   2.374   6.376   3.066 -0.9888  1.4160  1.3019
 7601SOL    HW223703   2.454   6.517   3.083  2.1134  0.0993 -1.2811
 7602SOL     OW23704   1.126   5.244   2.339  0.0032  0.3074 -0.1622
 7602SOL    HW123705   1.102   5.332   2.297 -1.8214  0.2427  0.6248
 7602SOL    HW223706   1.160   5.260   2.432 -1.9523  0.1420  0.6267
 7603SOL     OW23707   2.740   6.964   4.353  0.2400 -0.4772  0.5826
 7603SOL    HW123708   2.772   7.057   4.337 -0.5612 -0.1685  0.7199
 7603SOL    HW223709   2.657   6.947   4.300  1.6092 -1.8831 -1.2214
 7604SOL     OW23710   0.663   4.144   3.951 -0.1264 -0.2188 -0.2936
 7604SOL    HW123711   0.608   4.065   3.923 -0.0870 -0.3782  0.0693
 7604SOL    HW223712   0.753   4.139   3.907  0.2915 -0.9928  0.6114
 7605SOL     OW23713   2.591   0.367   2.379 -0.1401  0.2305  0.6555
 7605SOL    HW123714   2.619   0.397   2.288  0.3386  1.7317  1.2611
 7605SOL    HW223715   2.614   0.438   2.446 -1.5016 -0.3485  1.7921
 7606SOL     OW23716   5.602   3.796   4.260 -0.6732 -0.3772  0.0762
 7606SOL    HW123717   5.552   3.711   4.240 -1.6156  0.1496  0.1359
 7606SOL    HW223718   5.595   3.817   4.357 -1.4498  0.3895 -0.1403
 7607SOL     OW23719   4.614   5.905   0.491  0.1357  0.2939 -0.6499
 7607SOL    HW123720   4.596   5.810   0.514  1.1803  0.4784  1.1835
 7607SOL    HW223721   4.529   5.951   0.466 -0.8221 -0.5150  0.9650
 7608SOL     OW23722   5.377   2.549   5.733 -0.6178 -0.5416 -0.3620
 7608SOL    HW123723   5.434   2.583   5.658  0.0846  0.8905  0.7502
 7608SOL    HW223724   5.284   2.583   5.722 -0.3335  0.3194 -0.1962
 7609SOL     OW23725   2.401   5.137   4.010 -0.2706 -0.1321  0.5855
 7609SOL    HW123726   2.436   5.063   3.952 -1.8193 -0.5272  0.1089
 7609SOL    HW223727   2.447   5.222   3.986  0.4509 -0.6465  0.0848
 7610SOL     OW23728   3.586   4.302   6.170 -1.1356  0.0413  0.0290
 7610SOL    HW123729   3.614   4.231   6.106  0.6061  0.9209 -0.2567
 7610SOL    HW223730   3.662   4.366   6.184 -1.9173  0.6067  1.9754
 7611SOL     OW23731   5.283   2.721   1.775  0.3662 -0.4579  0.5369
 7611SOL    HW123732   5.206   2.681   1.726 -0.9185  0.7692  1.4619
 7611SOL    HW223733   5.353   2.652   1.789  0.3218 -1.0986 -2.0559
 7612SOL     OW23734   4.695   3.759   6.837 -0.3106 -0.4627  0.4008
 7612SOL    HW123735   4.737   3.728   6.923  0.5791 -0.6775 -0.0960
 7612SOL    HW223736   4.714   3.692   6.765  3.3248  2.0068 -1.2081
 7613SOL     OW23737   0.525   0.421   1.431  0.4430  0.4482 -0.0852
 7613SOL    HW123738   0.459   0.389   1.363 -0.6172  0.2983  0.9852
 7613SOL    HW223739   0.490   0.504   1.476  0.3175 -0.4053  1.4539
 7614SOL     OW23740   5.099   3.514   1.735 -0.4342  0.4834  0.2956
 7614SOL    HW123741   5.181   3.550   1.691 -0.9942  0.7999 -0.5212
 7614SOL    HW223742   5.055   3.449   1.674 -0.1299 -0.6396  1.2396
 7615SOL     OW23743   3.531   2.820   5.790 -0.5846 -0.1134  0.3648
 7615SOL    HW123744   3.628   2.807   5.773 -0.0283  2.1337  1.4396
 7615SOL    HW223745   3.515   2.834   5.888 -2.0408 -0.7615  0.2495
 7616SOL     OW23746   5.893   4.902   4.925  0.1546 -0.0763  0.2957
 7616SOL    HW123747   5.923   4.977   4.983  0.3862 -1.1123  1.5477
 7616SOL    HW223748   5.971   4.864   4.875 -0.0426  0.8046 -0.7082
 7617SOL     OW23749   3.287   6.681   3.928  0.2571  0.1652 -0.1893
 7617SOL    HW123750   3.238   6.721   3.850 -1.9308  0.5468  1.3115
 7617SOL    HW223751   3.272   6.582   3.929 -0.4589  0.2750  0.2399
 7618SOL     OW23752   0.768   2.751   0.503  0.3250  0.4194  0.4387
 7618SOL    HW123753   0.767   2.732   0.405  1.6159  0.8611  0.3289
 7618SOL    HW223754   0.772   2.849   0.518  1.9141  0.3132  0.8890
 7619SOL     OW23755   1.705   3.457   3.347 -0.0036 -0.0158  0.0474
 7619SOL    HW123756   1.714   3.382   3.413 -1.1033 -0.4447 -0.2808
 7619SOL    HW223757   1.782   3.453   3.283  0.1177 -0.6771  0.2218
 7620SOL     OW23758   5.222   0.294   1.603  0.2972 -0.0303  0.3978
 7620SOL    HW123759   5.168   0.367   1.560 -1.3701 -1.1055  0.5694
 7620SOL    HW223760   5.167   0.249   1.674  1.1473 -1.7070  0.0381
 7621SOL     OW23761   5.838   1.845   0.609 -0.1108 -0.8609 -0.1641
 7621SOL    HW123762   5.747   1.815   0.579 -0.7547 -1.4475  2.1669
 7621SOL    HW223763   5.899   1.767   0.614  0.2995 -0.5969 -0.9255
 7622SOL     OW23764   6.304   2.743   6.370 -0.0907 -0.0678  0.0246
 7622SOL    HW123765   6.321   2.706   6.279  0.0398 -1.6370  0.6421
 7622SOL    HW223766   6.304   2.843   6.367  2.5514 -0.0148 -1.2316
 7623SOL     OW23767   0.487   4.383   6.567 -0.1608 -0.0123  0.6002
 7623SOL    HW123768   0.408   4.329   6.538 -0.7214  1.3410 -0.4824
 7623SOL    HW223769   0.484   4.394   6.667 -0.8701 -0.6718  0.6646
 7624SOL     OW23770   6.773   4.255   3.622 -0.5089 -0.2755  0.1311
 7624SOL    HW123771   6.683   4.214   3.633 -0.2661 -1.0171 -0.6084
 7624SOL    HW223772   6.837   4.187   3.588  0.6291 -0.0769  1.7451
 7625SOL     OW23773   4.669   6.766   1.193  0.2424  0.0027 -0.0848
 7625SOL    HW123774   4.713   6.852   1.170  0.4326 -0.5833 -2.1664
 7625SOL    HW223775   4.570   6.779   1.197  0.2159  0.2146 -1.0787
 7626SOL     OW23776   6.927   0.188   5.759  0.2533  0.0973  0.3005
 7626SOL    HW123777   7.003   0.122   5.760 -0.3759 -0.7034 -1.5521
 7626SOL    HW223778   6.964   0.280   5.777  1.5473 -0.3692  0.1852
 7627SOL     OW23779   4.217   2.483   5.832 -0.2321 -0.7078 -0.0282
 7627SOL    HW123780   4.193   2.400   5.881  2.7999 -1.9717 -0.4158
 7627SOL    HW223781   4.303   2.469   5.782 -0.4954  2.1339 -1.5400
 7628SOL     OW23782   2.207   2.745   1.608 -0.1131  0.3803  0.0783
 7628SOL    HW123783   2.154   2.661   1.603 -0.1123  0.4427 -1.2237
 7628SOL    HW223784   2.206   2.780   1.702 -0.7769 -0.6310  0.4580
 7629SOL     OW23785   5.643   3.340   3.920 -0.5597 -0.2673 -0.3158
 7629SOL    HW123786   5.740   3.358   3.901 -0.7063  0.3046 -0.5115
 7629SOL    HW223787   5.614   3.394   3.999 -1.2674  1.1717 -1.5284
 7630SOL     OW23788   0.096   2.326   1.095 -0.8020  0.6860  0.2124
 7630SOL    HW123789   0.130   2.419   1.082  1.2202  0.2505  1.8151
 7630SOL    HW223790   0.146   2.263   1.036 -2.1193  0.5481 -0.8199
 7631SOL     OW23791   1.174   0.695   6.096 -0.1179 -0.3368 -0.3719
 7631SOL    HW123792   1.093   0.730   6.143 -0.0157  0.8236 -1.0259
 7631SOL    HW223793   1.159   0.599   6.071  0.6460 -1.7758  3.8639
 7632SOL     OW23794   2.483   5.159   0.313 -0.2009 -0.0762  0.2534
 7632SOL    HW123795   2.390   5.133   0.338 -0.3524  1.2308  1.1696
 7632SOL    HW223796   2.505   5.247   0.354  1.7828 -0.7980  0.8552
 7633SOL     OW23797   5.610   2.108   2.340 -0.6356  0.4220  0.0039
 7633SOL    HW123798   5.627   2.196   2.295  0.8229  0.0793 -0.1654
 7633SOL    HW223799   5.546   2.054   2.285  0.6731  0.2431 -1.4052
 7634SOL     OW23800   2.247   1.278   1.246 -0.0826 -0.7409 -0.3683
 7634SOL    HW123801   2.198   1.338   1.310  2.4161  1.2443 -0.1402
 7634SOL    HW223802   2.282   1.199   1.296 -0.3837 -0.5715  0.1332
 7635SOL     OW23803   2.434   0.865   4.932 -0.6390  0.1132  0.4512
 7635SOL    HW123804   2.509   0.801   4.923 -1.7792 -0.9831 -2.5739
 7635SOL    HW223805   2.362   0.825   4.988 -0.4973 -0.4248  0.2523
 7636SOL     OW23806   6.576   1.956   3.193  0.8417  0.1137 -0.3020
 7636SOL    HW123807   6.667   1.995   3.203  1.2591 -1.0900  1.0326
 7636SOL    HW223808   6.529   1.958   3.281 -0.3238  0.4606 -0.9099
 7637SOL     OW23809   3.790   6.912   4.481  0.2270  0.1178  0.4053
 7637SOL    HW123810   3.785   6.824   4.433 -1.3858  0.4586 -0.1157
 7637SOL    HW223811   3.853   6.973   4.433 -0.5515  0.0889 -0.6935
 7638SOL     OW23812   2.868   5.331   2.318  0.0702  0.3110 -0.1076
 7638SOL    HW123813   2.880   5.283   2.406 -1.2165  0.3511  0.0994
 7638SOL    HW223814   2.776   5.314   2.283  0.2153  1.1750 -0.9332
 7639SOL     OW23815   5.941   5.978   0.013 -0.3621 -0.4854  0.3705
 7639SOL    HW123816   6.037   5.995  -0.009 -0.5883  1.2608  0.6149
 7639SOL    HW223817   5.887   5.977  -0.071 -0.5095  1.3188  0.4072
 7640SOL     OW23818   4.242   1.188   4.787 -0.3276 -0.4192  0.1127
 7640SOL    HW123819   4.284   1.105   4.751  1.3485 -0.0553  1.1492
 7640SOL    HW223820   4.189   1.232   4.714  2.1981 -0.1909 -1.7380
 7641SOL     OW23821   6.566   3.472   2.709 -0.5984 -0.8325 -0.1398
 7641SOL    HW123822   6.626   3.551   2.696 -1.2569 -0.1639  0.7623
 7641SOL    HW223823   6.595   3.422   2.791 -1.8032  0.0420  0.8694
 7642SOL     OW23824   2.721   0.681   1.419  0.2409 -0.5844 -0.9112
 7642SOL    HW123825   2.758   0.613   1.481  1.0141  0.2532 -0.4310
 7642SOL    HW223826   2.621   0.672   1.414  0.0123  0.1011  1.4134
 7643SOL     OW23827   5.634   1.599   3.033 -0.2601  0.0562  0.2001
 7643SOL    HW123828   5.610   1.694   3.015  3.3308  1.0408 -0.2146
 7643SOL    HW223829   5.655   1.587   3.130  2.2570  0.5756 -0.2120
 7644SOL     OW23830   3.967   3.693   0.282  0.4947  0.3516 -0.1716
 7644SOL    HW123831   3.872   3.699   0.250  0.2756 -1.9904 -0.0945
 7644SOL    HW223832   4.024   3.653   0.211  1.3229  1.1632  0.0232
 7645SOL     OW23833   5.599   5.605   4.952 -0.6956  0.3223  0.7099
 7645SOL    HW123834   5.621   5.572   4.860 -0.7837  0.4197  0.6547
 7645SOL    HW223835   5.501   5.597   4.969 -0.5865 -0.3632  1.0571
 7646SOL     OW23836   6.615   4.300   4.742 -0.3993  0.3621 -0.1147
 7646SOL    HW123837   6.633   4.303   4.644  0.0415 -0.5074 -0.0686
 7646SOL    HW223838   6.615   4.393   4.779  0.0572  0.6509 -0.8270
 7647SOL     OW23839   0.352   3.963   4.020  0.4352  0.0442  0.1396
 7647SOL    HW123840   0.268   4.005   3.986  1.0364  2.5833  1.5196
 7647SOL    HW223841   0.347   3.864   4.008 -2.8325  0.0759  0.3439
 7648SOL     OW23842   4.479   6.794   3.176 -0.0049  0.5071 -0.4092
 7648SOL    HW123843   4.427   6.713   3.150 -0.1661 -0.3815  2.3687
 7648SOL    HW223844   4.568   6.792   3.131 -0.7644 -0.0892 -1.9818
 7649SOL     OW23845   2.674   6.819   4.611 -0.1115  0.2427 -0.5394
 7649SOL    HW123846   2.694   6.849   4.518  0.2861 -0.5757 -0.7235
 7649SOL    HW223847   2.749   6.762   4.645 -0.9697 -0.7832 -0.3097
 7650SOL     OW23848   6.161   0.381   1.394 -0.6025 -0.4167  0.4103
 7650SOL    HW123849   6.104   0.462   1.383  0.7640  0.6936  1.1317
 7650SOL    HW223850   6.258   0.408   1.395 -0.1040 -2.0815  0.4963
 7651SOL     OW23851   3.340   6.786   2.667  0.1874 -0.1991 -0.1081
 7651SOL    HW123852   3.316   6.737   2.584  0.6127 -1.9743  0.7692
 7651SOL    HW223853   3.375   6.721   2.735  1.4816  1.4302  0.8492
 7652SOL     OW23854   6.773   1.671   4.975  0.5634  0.3029  0.2118
 7652SOL    HW123855   6.764   1.574   4.953  0.0642  0.0760  1.3354
 7652SOL    HW223856   6.821   1.718   4.901  2.9920 -1.2458  0.6894
 7653SOL     OW23857   0.744   2.286   6.604  0.2977 -0.5752 -0.1109
 7653SOL    HW123858   0.826   2.342   6.606  0.2926 -0.5849  1.3339
 7653SOL    HW223859   0.678   2.326   6.541  1.2353 -0.3309 -0.9554
 7654SOL     OW23860   5.552   3.689   3.958  0.0891  0.2039  0.0542
 7654SOL    HW123861   5.529   3.637   4.041  2.0298 -0.3633  0.2987
 7654SOL    HW223862   5.575   3.783   3.982  0.5187  0.0749  0.1677
 7655SOL     OW23863   3.859   6.012   4.775  0.1235  0.1497  0.1220
 7655SOL    HW123864   3.824   6.084   4.715 -0.2082  0.2431  0.4230
 7655SOL    HW223865   3.795   5.997   4.850 -0.0395 -0.7868 -0.1845
 7656SOL     OW23866   3.315   3.777   6.371  0.2709 -0.0599 -0.3988
 7656SOL    HW123867   3.338   3.725   6.288 -1.0761 -0.5336 -0.5107
 7656SOL    HW223868   3.373   3.748   6.446  1.4913  0.3483 -1.1525
 7657SOL     OW23869   0.116   1.827   4.491  0.1307  0.2689 -0.0193
 7657SOL    HW123870   0.017   1.838   4.501  0.1852  3.5242 -1.5748
 7657SOL    HW223871   0.134   1.765   4.415 -0.7287 -0.2937  0.2219
 7658SOL     OW23872   2.596   5.358   0.014 -0.7615  0.2395 -0.0868
 7658SOL    HW123873   2.686   5.401   0.014 -0.5814 -0.1322 -0.5190
 7658SOL    HW223874   2.561   5.354  -0.080 -0.2137 -1.7332 -0.2397
 7659SOL     OW23875   5.109   5.828   0.309 -0.6813  0.0640 -0.0167
 7659SOL    HW123876   5.014   5.853   0.288 -0.8268  0.5416  1.1273
 7659SOL    HW223877   5.110   5.741   0.358 -0.6096  0.4433  0.6751
 7660SOL     OW23878   6.662   5.500   2.735  0.4662  0.2226 -0.3503
 7660SOL    HW123879   6.619   5.463   2.817 -1.1207  1.3219 -0.6400
 7660SOL    HW223880   6.704   5.588   2.756  1.5239 -0.2693 -0.3551
 7661SOL     OW23881   6.529   1.684   3.536 -0.0234  0.4464 -0.5510
 7661SOL    HW123882   6.592   1.628   3.481  2.4446  0.6773  1.8276
 7661SOL    HW223883   6.537   1.780   3.507  1.8319  0.6840  0.5542
 7662SOL     OW23884   1.043   2.943   3.986 -0.8469 -0.4926 -0.2651
 7662SOL    HW123885   1.075   2.878   3.917 -0.3753 -1.1975  0.5994
 7662SOL    HW223886   1.094   3.028   3.977 -1.1269 -0.4028 -1.0901
 7663SOL     OW23887   5.933   4.668   6.565 -0.1385 -0.6177  0.2690
 7663SOL    HW123888   5.877   4.730   6.622 -0.8381  0.0510 -1.1037
 7663SOL    HW223889   6.006   4.721   6.522 -0.7347 -0.7238 -0.9065
 7664SOL     OW23890   2.457   2.432   2.631  0.0099 -0.3930  0.1509
 7664SOL    HW123891   2.410   2.363   2.575  0.6872 -0.9102  0.2119
 7664SOL    HW223892   2.419   2.522   2.611 -0.5872 -0.7252 -0.2528
 7665SOL     OW23893   5.525   6.361   5.899 -0.1393 -0.4263  0.3676
 7665SOL    HW123894   5.512   6.276   5.950 -0.7258  0.0494  1.0334
 7665SOL    HW223895   5.449   6.422   5.918  1.2252  1.0127  1.4131
 7666SOL     OW23896   2.191   5.360   4.304 -0.0632  0.1809  0.1749
 7666SOL    HW123897   2.105   5.317   4.274 -0.8584  1.0300  1.1694
 7666SOL    HW223898   2.180   5.459   4.303  0.7751  0.2809  0.7322
 7667SOL     OW23899   4.929   2.307   0.437 -0.3061 -0.2899  0.1660
 7667SOL    HW123900   4.958   2.402   0.431 -2.0514  0.2268 -0.7381
 7667SOL    HW223901   4.971   2.255   0.362 -0.3827  0.0572 -0.1177
 7668SOL     OW23902   0.163   3.727   6.245 -0.2547  0.1395 -0.4083
 7668SOL    HW123903   0.176   3.812   6.296  1.0774 -0.5668  0.5165
 7668SOL    HW223904   0.106   3.665   6.299  1.1109 -0.5900  0.2529
 7669SOL     OW23905   5.866   1.083   6.886 -0.0331 -0.0971 -0.0820
 7669SOL    HW123906   5.805   1.005   6.875  0.6228 -0.4383 -1.5180
 7669SOL    HW223907   5.828   1.162   6.838  1.1472 -0.6235 -1.9931
 7670SOL     OW23908   2.505   5.106   0.673 -0.5395  0.0181 -0.1343
 7670SOL    HW123909   2.530   5.175   0.605 -1.8502 -0.6167 -1.3050
 7670SOL    HW223910   2.410   5.121   0.702 -0.0082  0.2724  1.5773
 7671SOL     OW23911   5.518   6.968   3.584 -0.0861  0.1008  0.5641
 7671SOL    HW123912   5.422   6.992   3.600 -0.1891 -0.3300  0.6140
 7671SOL    HW223913   5.577   7.043   3.615 -0.3456 -0.1898  1.8378
 7672SOL     OW23914   0.406   5.969   1.947  0.1124  0.1600 -0.0109
 7672SOL    HW123915   0.417   6.040   2.017 -1.6685  0.0916  0.3899
 7672SOL    HW223916   0.324   5.988   1.894  0.8608 -0.3858 -1.4047
 7673SOL     OW23917   1.949   6.363   2.941 -0.3850 -0.0497  0.2063
 7673SOL    HW123918   1.904   6.400   2.860  0.0189  0.3430  0.1560
 7673SOL    HW223919   1.999   6.436   2.988 -0.4687 -0.3123  0.7092
 7674SOL     OW23920   4.449   7.003   4.854  0.8055  0.7224  0.1982
 7674SOL    HW123921   4.472   6.978   4.760 -0.9665 -1.4813  0.2739
 7674SOL    HW223922   4.465   7.101   4.867  1.1710  1.0749 -2.3575
 7675SOL     OW23923   6.069   6.194   2.238 -0.2764  0.0997  0.0103
 7675SOL    HW123924   6.145   6.193   2.173  0.4748  2.5778  0.7208
 7675SOL    HW223925   6.102   6.163   2.328 -0.1387  0.8814  0.2424
 7676SOL     OW23926   4.132   1.570   6.572  0.4517  0.8097  0.2771
 7676SOL    HW123927   4.149   1.479   6.610  1.8818  1.2959  0.8771
 7676SOL    HW223928   4.192   1.636   6.617 -0.1394  1.9487 -0.5765
 7677SOL     OW23929   0.147   3.873   0.325 -0.2011 -0.4881  0.2245
 7677SOL    HW123930   0.176   3.823   0.244 -0.8598  0.7959 -0.8601
 7677SOL    HW223931   0.180   3.827   0.407  2.6696 -0.4752 -0.8213
 7678SOL     OW23932   4.456   1.718   4.353  0.2846 -0.1376 -0.6354
 7678SOL    HW123933   4.499   1.662   4.282  1.3157  0.2512 -0.3417
 7678SOL    HW223934   4.359   1.731   4.331  0.5689 -0.0615 -1.9494
 7679SOL     OW23935   3.092   6.402   4.319 -0.1931 -0.1402 -0.1987
 7679SOL    HW123936   3.001   6.417   4.281 -0.2117 -0.0874 -0.1346
 7679SOL    HW223937   3.131   6.318   4.282 -0.6010 -0.6001  0.4052
 7680SOL     OW23938   3.201   6.792   0.190 -0.1548  0.2567 -0.3533
 7680SOL    HW123939   3.126   6.768   0.252  0.0217 -0.6127 -0.4736
 7680SOL    HW223940   3.166   6.857   0.121 -0.8066 -0.1595 -0.4251
 7681SOL     OW23941   4.371   6.276   2.385  0.2599  0.0403 -0.7567
 7681SOL    HW123942   4.392   6.326   2.301  1.1335  0.8042 -0.0986
 7681SOL    HW223943   4.438   6.203   2.398  0.4350  0.2484 -0.4673
 7682SOL     OW23944   5.902   0.781   0.185  0.4009 -0.7681 -0.5300
 7682SOL    HW123945   5.994   0.749   0.162  1.1192  0.9617 -0.2116
 7682SOL    HW223946   5.893   0.878   0.160 -1.2852 -0.8515 -0.3848
 7683SOL     OW23947   1.462   3.168   5.630  0.8235  0.0289 -0.7454
 7683SOL    HW123948   1.498   3.185   5.538  1.2421 -0.4161 -0.6643
 7683SOL    HW223949   1.510   3.091   5.671 -0.5461 -0.8909 -0.8160
 7684SOL     OW23950   5.220   1.918   1.502  0.5753 -0.3731 -0.1307
 7684SOL    HW123951   5.188   1.927   1.596  3.6640 -0.5154  1.0448
 7684SOL    HW223952   5.156   1.963   1.440 -1.4367 -0.1038  2.0356
 7685SOL     OW23953   2.596   2.164   6.315 -0.1386  0.7246 -0.1043
 7685SOL    HW123954   2.563   2.135   6.226  1.5633 -0.4955 -0.3952
 7685SOL    HW223955   2.679   2.114   6.338  0.1411  1.8726  1.6485
 7686SOL     OW23956   6.486   0.759   3.007 -0.1876  0.5272 -0.3191
 7686SOL    HW123957   6.427   0.733   2.931 -1.0725  1.5029  0.0185
 7686SOL    HW223958   6.491   0.683   3.072 -0.8302  0.3234 -0.4963
 7687SOL     OW23959   4.821   5.799   4.524 -0.0298 -0.0304 -0.4063
 7687SOL    HW123960   4.826   5.895   4.499  0.9594 -0.0114 -0.1541
 7687SOL    HW223961   4.835   5.743   4.443  0.5363  0.0349 -0.3519
 7688SOL     OW23962   0.041   0.324   6.789 -0.6227  0.0787  0.2504
 7688SOL    HW123963   0.045   0.285   6.881 -2.9775 -0.8530  0.0359
 7688SOL    HW223964   0.112   0.394   6.779  1.9526 -2.1197  1.6052
 7689SOL     OW23965   6.245   6.248   4.303 -0.3029 -0.1239  0.5495
 7689SOL    HW123966   6.145   6.241   4.294 -0.1196 -2.3325 -0.4652
 7689SOL    HW223967   6.288   6.218   4.217  1.2524  2.3592  0.3565
 7690SOL     OW23968   3.773   5.424   0.490 -0.2601 -0.2350 -0.2917
 7690SOL    HW123969   3.767   5.347   0.554 -1.7565 -0.2919 -0.4470
 7690SOL    HW223970   3.689   5.428   0.435  1.2127 -0.5422 -2.6912
 7691SOL     OW23971   5.178   1.776   4.022 -0.2950  0.0698  0.6935
 7691SOL    HW123972   5.165   1.794   4.119  1.3484  1.0766  0.7723
 7691SOL    HW223973   5.268   1.736   4.007  0.1000  1.3103 -0.5282
 7692SOL     OW23974   6.586   6.269   0.983  0.2114 -0.0033 -0.4980
 7692SOL    HW123975   6.677   6.268   1.024  1.1992  2.9129 -2.3297
 7692SOL    HW223976   6.528   6.334   1.032 -1.1398 -2.1001  0.8882
 7693SOL     OW23977   2.556   0.351   0.585  0.2256  0.0161  0.3072
 7693SOL    HW123978   2.641   0.394   0.555  0.1010  1.0395  1.3147
 7693SOL    HW223979   2.486   0.421   0.596 -0.3612 -0.6273  0.7505
 7694SOL     OW23980   5.814   2.143   2.931  0.0230  0.4136 -0.3637
 7694SOL    HW123981   5.754   2.085   2.875 -0.0837  0.0223  0.1443
 7694SOL    HW223982   5.807   2.238   2.900 -1.8425  0.5993  0.4855
 7695SOL     OW23983   5.764   3.022   0.846 -0.4919  0.0384  0.4254
 7695SOL    HW123984   5.697   2.988   0.780  0.8239 -0.1838 -0.8664
 7695SOL    HW223985   5.832   2.950   0.864 -0.1091  0.5404  1.0171
 7696SOL     OW23986   0.961   1.750   0.103 -0.5137  0.1015 -0.1089
 7696SOL    HW123987   0.990   1.844   0.087  0.7744 -0.5610 -1.9202
 7696SOL    HW223988   1.031   1.701   0.155 -1.3336  0.1848  1.1385
 7697SOL     OW23989   3.565   1.548   4.258  0.2874 -0.0839  0.0452
 7697SOL    HW123990   3.582   1.574   4.163  1.5528 -0.1516  0.2388
 7697SOL    HW223991   3.538   1.629   4.310 -1.0377 -0.1585 -0.4901
 7698SOL     OW23992   6.663   0.449   4.352  0.0155 -0.2991 -0.1541
 7698SOL    HW123993   6.656   0.351   4.330  0.9866 -0.6890  1.1589
 7698SOL    HW223994   6.611   0.468   4.435  0.8827  0.0352  0.3258
 7699SOL     OW23995   2.284   4.185   6.240  0.1546 -0.0118 -0.0761
 7699SOL    HW123996   2.288   4.274   6.288  0.7160  0.2439 -0.5895
 7699SOL    HW223997   2.340   4.189   6.158  0.0427 -0.7975 -0.1958
 7700SOL     OW23998   4.713   5.305   4.019  1.3825 -0.0063  0.0432
 7700SOL    HW123999   4.687   5.400   4.004  0.6075 -0.2735 -0.3786
 7700SOL    HW224000   4.718   5.258   3.931  2.5731 -0.1576  0.1803
 7701SOL     OW24001   5.868   2.025   6.699  0.3886  0.2796  0.4854
 7701SOL    HW124002   5.916   1.995   6.782  1.5192  1.6182  0.3400
 7701SOL    HW224003   5.835   2.118   6.712 -0.9033 -0.0921  0.0188
 7702SOL     OW24004   4.805   5.456   5.482  0.3174  0.2303 -0.0086
 7702SOL    HW124005   4.833   5.467   5.387 -1.7660  0.9716 -0.5935
 7702SOL    HW224006   4.879   5.412   5.534  1.9562  0.8717 -1.6759
 7703SOL     OW24007   5.986   5.632   3.767 -0.2798  0.6129 -0.1293
 7703SOL    HW124008   5.917   5.560   3.767 -0.0347  0.3511 -1.9543
 7703SOL    HW224009   5.955   5.707   3.826 -1.0238 -0.4839  0.9358
 7704SOL     OW24010   6.232   6.230   1.466  0.2380  0.5519 -0.7660
 7704SOL    HW124011   6.189   6.318   1.446 -0.5502  0.4687  0.4778
 7704SOL    HW224012   6.300   6.242   1.538  1.9647  0.5708 -2.3007
 7705SOL     OW24013   2.723   6.130   0.571  0.3302  0.0029  0.1031
 7705SOL    HW124014   2.819   6.113   0.593  0.2822 -1.0824 -0.4256
 7705SOL    HW224015   2.710   6.226   0.548  1.1168  0.3391  1.0064
 7706SOL     OW24016   3.564   3.611   4.719 -0.6048 -0.1470 -0.8020
 7706SOL    HW124017   3.501   3.688   4.719  1.5386  1.7390  0.5787
 7706SOL    HW224018   3.615   3.609   4.633 -2.1166 -1.3769 -1.7151
 7707SOL     OW24019   6.260   5.536   1.624 -0.2881 -0.4284 -0.0408
 7707SOL    HW124020   6.248   5.575   1.533 -1.1500  0.0556  0.2665
 7707SOL    HW224021   6.293   5.442   1.616  2.3709  0.4892 -0.7775
 7708SOL     OW24022   6.298   0.429   5.035  0.4523 -0.3409 -0.1253
 7708SOL    HW124023   6.302   0.400   5.131  2.5190 -1.0375 -0.3691
 7708SOL    HW224024   6.270   0.525   5.031  1.8165  0.1757  1.3204
 7709SOL     OW24025   6.151   4.012   0.740  0.0395 -0.5158  0.0687
 7709SOL    HW124026   6.211   4.017   0.660 -0.2131 -0.1482 -0.0986
 7709SOL    HW224027   6.110   3.921   0.745  0.3727 -0.6714  0.0121
 7710SOL     OW24028   2.316   0.551   2.210 -0.2463 -0.4174  0.0080
 7710SOL    HW124029   2.333   0.596   2.297  0.8310 -1.0709  0.1561
 7710SOL    HW224030   2.318   0.619   2.136 -0.4782  0.0340  0.4120
 7711SOL     OW24031   5.167   5.112   0.652 -0.1785 -0.1510  0.0602
 7711SOL    HW124032   5.091   5.176   0.665  0.3930  0.5372  0.0534
 7711SOL    HW224033   5.250   5.162   0.628  0.0834 -0.9610 -0.8140
 7712SOL     OW24034   0.008   5.048   0.094  0.3126  0.1441  0.3257
 7712SOL    HW124035  -0.077   4.996   0.083  0.9719 -0.6480 -1.5330
 7712SOL    HW224036  -0.009   5.144   0.073 -0.0713 -0.0672 -0.3607
 7713SOL     OW24037   0.440   3.762   1.737 -0.0512 -0.8249  0.3289
 7713SOL    HW124038   0.425   3.682   1.679 -0.7901 -1.6138  1.5815
 7713SOL    HW224039   0.525   3.750   1.789  1.7343  0.7805 -1.9979
 7714SOL     OW24040   1.841   4.854   4.995  0.0078  0.1119  0.3756
 7714SOL    HW124041   1.925   4.894   4.959  1.4571 -1.8335  1.3912
 7714SOL    HW224042   1.835   4.873   5.093  0.4254 -1.5253  0.7568
 7715SOL     OW24043   3.462   0.396   0.423 -0.2933  0.0074  0.4985
 7715SOL    HW124044   3.531   0.427   0.357  2.1392  0.0274  2.8618
 7715SOL    HW224045   3.423   0.476   0.469  0.4964 -0.0997  1.3829
 7716SOL     OW24046   0.463   6.240   0.377 -0.2099 -0.5576 -0.4876
 7716SOL    HW124047   0.453   6.309   0.305 -2.4584 -0.2307  0.0692
 7716SOL    HW224048   0.521   6.166   0.344  0.2978  0.4520 -1.9704
 7717SOL     OW24049   0.401   0.755   4.510 -0.3810 -0.4686 -0.5055
 7717SOL    HW124050   0.355   0.729   4.425  0.6178  0.6607 -1.4240
 7717SOL    HW224051   0.423   0.853   4.507 -0.6013 -0.3377  1.1925
 7718SOL     OW24052   6.411   3.522   4.983  0.5536 -0.4579  0.4587
 7718SOL    HW124053   6.465   3.438   4.988 -1.2762 -1.6880  0.4266
 7718SOL    HW224054   6.468   3.600   5.010  2.0006 -1.8423  1.5967
 7719SOL     OW24055   1.459   3.537   3.649 -0.5468  0.7672  0.3348
 7719SOL    HW124056   1.387   3.566   3.712  0.5928  1.9534  1.1378
 7719SOL    HW224057   1.524   3.611   3.636  1.3267 -0.7022  0.7773
 7720SOL     OW24058   6.658   4.567   4.788 -0.1893 -0.1677  0.2623
 7720SOL    HW124059   6.608   4.639   4.836 -0.2285 -0.1594  0.2090
 7720SOL    HW224060   6.731   4.608   4.733 -1.2261 -0.0156 -1.0563
 7721SOL     OW24061   1.466   0.545   3.186 -0.3780 -0.0450 -0.0822
 7721SOL    HW124062   1.544   0.485   3.204 -1.3754 -0.9938  1.3597
 7721SOL    HW224063   1.411   0.506   3.113 -0.1061  0.0229 -0.3238
 7722SOL     OW24064   0.564   5.246   1.984 -0.0207  0.1534 -0.5202
 7722SOL    HW124065   0.558   5.283   2.077  0.9057  2.0116 -1.1427
 7722SOL    HW224066   0.538   5.150   1.984 -0.5193  0.2480  1.5703
 7723SOL     OW24067   3.629   2.335   1.308  0.1243 -0.0274  0.3182
 7723SOL    HW124068   3.531   2.356   1.316  0.0376 -0.2765 -0.0332
 7723SOL    HW224069   3.645   2.241   1.336  0.2457 -0.0222  0.2641
 7724SOL     OW24070   2.832   4.855   1.159  0.4092  0.4811 -0.8359
 7724SOL    HW124071   2.792   4.855   1.250 -2.0097  2.0458 -1.7684
 7724SOL    HW224072   2.844   4.950   1.128 -1.7796  0.0796 -3.2380
 7725SOL     OW24073   6.284   4.010   1.691 -0.6310 -0.4177 -0.2130
 7725SOL    HW124074   6.256   4.106   1.696 -2.5919 -0.8901 -1.0029
 7725SOL    HW224075   6.213   3.953   1.734  0.7848 -1.4983  0.7969
 7726SOL     OW24076   0.504   3.367   5.761 -0.3656 -0.1064 -0.0127
 7726SOL    HW124077   0.458   3.281   5.780 -1.0751  0.2855  0.0654
 7726SOL    HW224078   0.532   3.369   5.665 -0.4213 -0.3873 -0.0360
 7727SOL     OW24079   0.010   2.423   2.103 -0.0295 -0.7546 -0.2964
 7727SOL    HW124080   0.096   2.449   2.147 -0.8772  0.5341  0.6969
 7727SOL    HW224081  -0.034   2.350   2.155 -1.0625  0.8130  1.1285
 7728SOL     OW24082   3.673   3.319   5.801  0.0700 -0.6029 -0.2250
 7728SOL    HW124083   3.748   3.317   5.867  1.1574  0.5715 -1.3559
 7728SOL    HW224084   3.659   3.227   5.763 -1.2210 -1.5183  2.2577
 7729SOL     OW24085   0.041   2.501   1.856  0.2654  0.1280 -0.1351
 7729SOL    HW124086   0.017   2.472   1.949  1.5486  0.2967  0.2694
 7729SOL    HW224087  -0.023   2.571   1.825  0.3141  0.6771  0.9635
 7730SOL     OW24088   0.094   4.392   5.960 -0.0115  0.8300 -0.2267
 7730SOL    HW124089   0.083   4.395   5.861  0.1906 -2.4020 -0.4590
 7730SOL    HW224090   0.008   4.417   6.005 -0.3780  1.3964 -1.2240
 7731SOL     OW24091   0.193   0.135   0.419 -0.1520  0.3011 -0.4676
 7731SOL    HW124092   0.200   0.036   0.433  3.9193  0.7429  2.1135
 7731SOL    HW224093   0.252   0.162   0.343 -1.4366  0.8203 -1.3272
 7732SOL     OW24094   3.925   6.208   6.726  0.2344 -0.2985 -0.4281
 7732SOL    HW124095   3.868   6.284   6.695  3.2691  2.0788 -0.7387
 7732SOL    HW224096   4.002   6.198   6.663 -0.1628 -3.8702 -0.4974
 7733SOL     OW24097   6.032   5.217   2.478 -0.1864 -0.2198  0.0323
 7733SOL    HW124098   6.028   5.256   2.386  0.7448  1.6274  0.7196
 7733SOL    HW224099   5.939   5.203   2.512 -0.5501 -1.2317 -1.2692
 7734SOL     OW24100   1.678   5.539   6.228 -0.0665 -0.7943  0.1904
 7734SOL    HW124101   1.666   5.626   6.179 -0.2977 -0.6009  0.5827
 7734SOL    HW224102   1.670   5.463   6.163  0.4318 -0.5147 -0.2052
 7735SOL     OW24103   5.812   6.990   4.705 -0.2888 -0.2740 -0.2757
 7735SOL    HW124104   5.712   6.986   4.697 -0.3446 -0.7209  0.5494
 7735SOL    HW224105   5.849   6.898   4.694 -0.0372 -0.2326  0.2009
 7736SOL     OW24106   4.784   0.863   1.261  0.2769  0.1146 -0.0191
 7736SOL    HW124107   4.723   0.873   1.339 -2.1859 -2.9951 -1.3600
 7736SOL    HW224108   4.742   0.904   1.180  0.7621 -0.5686 -0.6226
 7737SOL     OW24109   5.175   1.081   1.977  0.2925 -0.0799  0.2879
 7737SOL    HW124110   5.118   1.158   1.950  0.1211  0.6138  2.4517
 7737SOL    HW224111   5.252   1.073   1.913 -0.1374  1.3561 -0.4601
 7738SOL     OW24112   2.711   3.943   0.099 -0.1440  0.1582 -0.0007
 7738SOL    HW124113   2.730   4.006   0.024 -1.0200 -1.7138 -1.8828
 7738SOL    HW224114   2.618   3.907   0.090  0.0587 -0.8277  1.4826
 7739SOL     OW24115   0.733   0.830   0.763  0.4447 -0.3071 -0.6541
 7739SOL    HW124116   0.804   0.885   0.718  0.9963 -1.3745 -1.1155
 7739SOL    HW224117   0.757   0.734   0.758 -0.5339 -0.6089  0.1164
 7740SOL     OW24118   3.608   1.947   2.528 -0.0055  0.5730 -0.0734
 7740SOL    HW124119   3.645   1.917   2.440 -0.2538  2.3628 -0.8448
 7740SOL    HW224120   3.680   1.991   2.581 -0.3983  1.7491 -0.4797
 7741SOL     OW24121   0.824   5.495   5.607 -0.0769  0.1214  0.9829
 7741SOL    HW124122   0.752   5.429   5.631 -0.3609 -0.1838 -0.6016
 7741SOL    HW224123   0.873   5.462   5.526 -0.5990  2.0957 -0.1990
 7742SOL     OW24124   5.079   1.612   4.600 -0.4898  0.1606  0.0107
 7742SOL    HW124125   5.095   1.551   4.522 -1.6455 -0.9145  0.5812
 7742SOL    HW224126   5.050   1.558   4.678 -1.2953  1.4356  0.6159
 7743SOL     OW24127   3.113   0.113   6.400 -0.0355  0.0219 -0.0482
 7743SOL    HW124128   3.109   0.162   6.313 -0.3302 -0.8271 -0.5312
 7743SOL    HW224129   3.201   0.130   6.444 -0.5696  1.9198  0.3771
 7744SOL     OW24130   0.917   0.874   1.525 -0.2709 -0.4388 -0.2922
 7744SOL    HW124131   0.851   0.905   1.456 -0.2260  0.0276 -0.1289
 7744SOL    HW224132   0.934   0.948   1.590  0.5516 -0.4962 -0.4399
 7745SOL     OW24133   3.618   6.903   1.066 -0.2618  0.1804  0.1812
 7745SOL    HW124134   3.550   6.964   1.026 -1.2363 -0.1436  1.2766
 7745SOL    HW224135   3.572   6.822   1.103  0.8847 -0.7062 -0.2747
 7746SOL     OW24136   0.749   0.310   0.160 -0.2147  0.3179 -0.5009
 7746SOL    HW124137   0.660   0.265   0.166  0.6264 -1.2367  1.2569
 7746SOL    HW224138   0.806   0.263   0.092  0.2945 -0.6801  0.5788
 7747SOL     OW24139   0.570   0.888   0.971 -0.0988  0.0626  0.0946
 7747SOL    HW124140   0.590   0.816   1.038  0.1637 -0.9252 -1.0232
 7747SOL    HW224141   0.623   0.872   0.888  0.4012  1.8847  0.0155
 7748SOL     OW24142   4.336   3.247   5.548  0.3542 -0.1889 -0.0715
 7748SOL    HW124143   4.275   3.169   5.533 -0.8071  0.5826  0.3950
 7748SOL    HW224144   4.388   3.266   5.465  0.1207 -1.0163 -0.4163
 7749SOL     OW24145   3.536   3.462   3.628 -0.5092  0.7734 -0.1745
 7749SOL    HW124146   3.618   3.432   3.676 -0.6032  2.1464  0.9313
 7749SOL    HW224147   3.462   3.475   3.694 -1.7062 -0.6667 -1.1905
 7750SOL     OW24148   5.551   6.135   0.639  0.1246  0.4246 -0.0172
 7750SOL    HW124149   5.584   6.072   0.569 -0.5357  0.3564 -0.2729
 7750SOL    HW224150   5.586   6.227   0.620  0.5145  0.2763 -0.0364
 7751SOL     OW24151   2.585   1.317   6.763  0.9539 -0.4583  0.4827
 7751SOL    HW124152   2.651   1.381   6.724  0.5104  0.0245  0.5065
 7751SOL    HW224153   2.633   1.241   6.806  1.4871 -0.1710  0.3998
 7752SOL     OW24154   4.800   4.728   4.164 -0.4084 -0.1586 -0.0132
 7752SOL    HW124155   4.835   4.676   4.241 -0.0633 -1.6387 -1.1279
 7752SOL    HW224156   4.786   4.667   4.086  1.2493  1.6313 -1.8090
 7753SOL     OW24157   4.160   1.690   4.185  0.2063  0.2671 -0.0990
 7753SOL    HW124158   4.070   1.712   4.145  0.8121  0.6727 -1.2942
 7753SOL    HW224159   4.150   1.612   4.247 -1.0727  0.6774  0.2572
 7754SOL     OW24160   5.555   5.277   2.215 -0.8550  0.1893 -0.0011
 7754SOL    HW124161   5.517   5.328   2.292  1.1749 -0.3552  1.4338
 7754SOL    HW224162   5.489   5.208   2.185 -1.5739  0.2097  1.4522
 7755SOL     OW24163   2.279   3.400   5.246 -0.1671 -0.3579  0.0560
 7755SOL    HW124164   2.342   3.469   5.281 -0.7507  0.5330 -0.6096
 7755SOL    HW224165   2.298   3.312   5.291 -0.0592  0.4396  1.6533
 7756SOL     OW24166   3.139   5.788   2.105  0.4190  0.1497  0.2216
 7756SOL    HW124167   3.229   5.809   2.067  0.3238  0.1235 -0.0186
 7756SOL    HW224168   3.101   5.708   2.058  0.7636 -0.5544  1.0963
 7757SOL     OW24169   3.422   6.328   4.863 -0.1307  0.1037  0.3812
 7757SOL    HW124170   3.327   6.335   4.834 -0.0133 -0.7944 -0.2706
 7757SOL    HW224171   3.427   6.280   4.951 -0.4010  1.7961  1.3521
 7758SOL     OW24172   1.745   2.284   1.036  0.8508  0.3389 -0.2011
 7758SOL    HW124173   1.724   2.223   1.113  1.2857  2.0650  1.3442
 7758SOL    HW224174   1.662   2.332   1.008  0.4007 -1.2199 -1.7372
 7759SOL     OW24175   1.102   3.216   3.486  0.4024 -0.7413 -0.5091
 7759SOL    HW124176   1.167   3.240   3.558  0.6408  3.2562 -1.8234
 7759SOL    HW224177   1.010   3.245   3.512  0.0014 -1.7890 -0.7197
 7760SOL     OW24178   5.261   2.896   2.368  0.0267 -0.4565  0.0760
 7760SOL    HW124179   5.202   2.833   2.419 -0.4059  0.0716  0.2405
 7760SOL    HW224180   5.210   2.937   2.292 -0.2311  0.9437  0.9553
 7761SOL     OW24181   1.982   2.015   6.842 -0.0625 -0.2166  0.0901
 7761SOL    HW124182   1.961   2.109   6.870 -2.3862 -0.7547  0.3598
 7761SOL    HW224183   2.051   2.016   6.769  0.6093  1.6166  0.6889
 7762SOL     OW24184   6.067   1.885   5.369  0.2261 -0.2497  0.4806
 7762SOL    HW124185   6.063   1.899   5.468 -0.7198 -2.2435  0.7671
 7762SOL    HW224186   5.975   1.891   5.330  0.6841  1.3404 -0.4428
 7763SOL     OW24187   0.429   2.810   1.969 -0.0442 -0.0496 -0.1050
 7763SOL    HW124188   0.460   2.774   1.881 -0.8870  1.6230 -1.1443
 7763SOL    HW224189   0.329   2.811   1.971 -0.0952 -1.7206  1.6265
 7764SOL     OW24190   3.823   2.947   3.320  0.2116  0.8210 -0.5516
 7764SOL    HW124191   3.922   2.955   3.320  0.1350  1.9269 -1.0077
 7764SOL    HW224192   3.789   2.954   3.226 -0.2117 -0.9100 -0.5518
 7765SOL     OW24193   6.867   1.083   3.777  0.2155  0.2966 -0.4816
 7765SOL    HW124194   6.858   1.019   3.854  0.7629  1.2205  0.3809
 7765SOL    HW224195   6.780   1.089   3.729 -0.2441 -0.0395  0.2817
 7766SOL     OW24196   4.191   1.775   0.677  0.5619  0.0172 -0.1993
 7766SOL    HW124197   4.200   1.679   0.652  0.6903  0.0328 -0.2156
 7766SOL    HW224198   4.239   1.831   0.609 -1.1403  0.2335 -1.3052
 7767SOL     OW24199   4.238   5.275   1.903  0.0297  0.4362  0.3871
 7767SOL    HW124200   4.233   5.369   1.936  3.2974  0.9768 -0.3659
 7767SOL    HW224201   4.289   5.272   1.817 -1.1906 -1.9073 -0.3387
 7768SOL     OW24202   4.536   4.670   1.599  0.2077 -0.2105 -0.2657
 7768SOL    HW124203   4.528   4.580   1.642 -0.1978 -0.4486 -0.8252
 7768SOL    HW224204   4.616   4.718   1.636 -0.2707 -0.2997  0.9229
 7769SOL     OW24205   6.982   3.768   2.043  0.3798  0.1616 -0.5721
 7769SOL    HW124206   6.969   3.701   1.969 -0.5402  0.2137 -0.4730
 7769SOL    HW224207   7.012   3.720   2.126  1.9705  0.1736 -1.1121
 7770SOL     OW24208   1.121   4.709   0.329 -0.0969  0.1469  0.1208
 7770SOL    HW124209   1.137   4.611   0.311 -2.1473 -0.4530  1.2137
 7770SOL    HW224210   1.028   4.732   0.303  0.3773  1.8565 -0.1413
 7771SOL     OW24211   3.165   0.959   6.922  0.0549 -0.0415 -0.1839
 7771SOL    HW124212   3.175   0.939   7.020 -2.2367 -0.3549  0.0486
 7771SOL    HW224213   3.149   0.874   6.872  1.2167  0.1171 -0.8698
 7772SOL     OW24214   6.164   0.649   2.107 -0.2198  1.0217 -0.3533
 7772SOL    HW124215   6.196   0.646   2.012  3.3185  1.7151  0.6852
 7772SOL    HW224216   6.154   0.745   2.135  1.5643  0.9315  0.7394
 7773SOL     OW24217   3.550   3.183   6.550  0.0802 -0.3799  0.4247
 7773SOL    HW124218   3.634   3.226   6.517  0.1036 -1.9507 -1.7734
 7773SOL    HW224219   3.471   3.236   6.517  0.1493 -1.1113 -1.0069
 7774SOL     OW24220   4.576   0.236   0.524  0.3122  0.0210 -0.2813
 7774SOL    HW124221   4.648   0.302   0.543 -0.3850  1.0565 -1.1199
 7774SOL    HW224222   4.610   0.143   0.538  2.5468  0.3260 -2.9454
 7775SOL     OW24223   5.068   1.527   0.175  0.0953  0.1208  0.2845
 7775SOL    HW124224   5.023   1.443   0.149  0.9090  0.1215 -1.2327
 7775SOL    HW224225   5.149   1.506   0.230 -0.3521 -0.0091  0.9029
 7776SOL     OW24226   4.002   3.725   5.972 -0.0946  0.1220  0.1561
 7776SOL    HW124227   3.995   3.815   6.015 -0.2161 -0.2929  1.0440
 7776SOL    HW224228   3.938   3.719   5.895 -1.2706  0.2690  1.0864
 7777SOL     OW24229   3.510   0.654   5.310 -0.0100  0.3090  0.0292
 7777SOL    HW124230   3.531   0.674   5.214 -1.6061 -0.2229 -0.4749
 7777SOL    HW224231   3.467   0.734   5.352 -0.9615 -0.0506 -0.2420
 7778SOL     OW24232   4.313   6.484   6.333  0.6123  0.2839  0.2930
 7778SOL    HW124233   4.389   6.419   6.330  0.4831  0.1567 -0.1978
 7778SOL    HW224234   4.249   6.465   6.259  0.6634  1.0835  0.0347
 7779SOL     OW24235   3.588   1.124   1.035 -0.0612  0.0051 -0.0867
 7779SOL    HW124236   3.521   1.191   1.001 -0.0952  2.5665  4.3351
 7779SOL    HW224237   3.540   1.048   1.079  0.0115 -0.8438 -1.4204
 7780SOL     OW24238   0.853   5.141   0.639  0.3474  0.0911 -0.0096
 7780SOL    HW124239   0.869   5.089   0.555  0.8647  0.3286 -0.0654
 7780SOL    HW224240   0.777   5.101   0.689 -0.4192  0.3727 -0.9295
 7781SOL     OW24241   2.153   3.771   1.982 -0.5867  0.0391  0.4170
 7781SOL    HW124242   2.230   3.800   1.925 -0.3721 -1.4839 -0.1018
 7781SOL    HW224243   2.158   3.673   1.997 -2.6673 -0.1498  0.0425
 7782SOL     OW24244   0.261   4.905   2.350 -0.7789  0.3181 -0.0590
 7782SOL    HW124245   0.288   4.945   2.438 -1.4611  1.6472 -0.4308
 7782SOL    HW224246   0.162   4.908   2.341 -0.7404 -0.1647 -0.7205
 7783SOL     OW24247   2.332   4.179   5.377  0.4464 -0.6237 -0.7295
 7783SOL    HW124248   2.424   4.215   5.387  0.7455 -1.4425 -0.4207
 7783SOL    HW224249   2.331   4.110   5.304  0.2669 -1.2151 -0.1742
 7784SOL     OW24250   2.364   2.787   6.467  0.0923  0.4047 -0.7827
 7784SOL    HW124251   2.294   2.856   6.487 -0.1031  0.0251 -0.0883
 7784SOL    HW224252   2.366   2.768   6.369 -0.9083  0.2981 -0.7938
 7785SOL     OW24253   2.368   0.256   3.900  0.2658 -0.3676 -0.4748
 7785SOL    HW124254   2.296   0.279   3.834  0.5583 -0.7724 -0.9480
 7785SOL    HW224255   2.381   0.333   3.963  0.0056  0.0464 -0.9140
 7786SOL     OW24256   3.356   0.074   0.034 -0.5170  0.0157  0.1422
 7786SOL    HW124257   3.265   0.088   0.073  0.7649  0.2910  3.3079
 7786SOL    HW224258   3.425   0.109   0.097  2.0026 -3.8961 -0.0875
 7787SOL     OW24259   2.658   2.261   0.426  0.2500 -0.1579 -0.2790
 7787SOL    HW124260   2.561   2.244   0.446  0.3421  0.5102  0.8406
 7787SOL    HW224261   2.693   2.329   0.490  1.3883 -0.1701 -0.8749
 7788SOL     OW24262   3.380   3.706   1.485  0.3830  0.5441  0.3728
 7788SOL    HW124263   3.339   3.719   1.575  2.1067  1.9729  1.0140
 7788SOL    HW224264   3.479   3.722   1.490  0.9649 -1.8844 -1.2746
 7789SOL     OW24265   2.007   5.113   6.807 -0.2077  0.6236  0.4486
 7789SOL    HW124266   2.014   5.018   6.775 -1.7766  1.2198 -1.9395
 7789SOL    HW224267   2.099   5.148   6.826  0.4629 -1.1338  0.6738
 7790SOL     OW24268   3.887   4.883   4.849  0.4036  0.0664  0.1044
 7790SOL    HW124269   3.916   4.863   4.943  3.4014 -0.5017 -0.8382
 7790SOL    HW224270   3.828   4.809   4.816 -2.0424  1.0268  1.9500
 7791SOL     OW24271   3.690   0.275   2.933  0.2500 -0.3043 -0.8390
 7791SOL    HW124272   3.689   0.365   2.976  1.1429 -1.3162  1.4612
 7791SOL    HW224273   3.601   0.232   2.941  0.6118 -0.8075  0.8384
 7792SOL     OW24274   0.698   5.269   6.459 -0.5045  0.8621 -0.0110
 7792SOL    HW124275   0.782   5.314   6.429 -0.7099  0.9606 -0.4363
 7792SOL    HW224276   0.675   5.194   6.396 -0.1463  0.1288  0.7038
 7793SOL     OW24277   2.611   3.070   1.158 -0.0790  0.4119 -0.0009
 7793SOL    HW124278   2.536   3.004   1.146  0.0696  0.2976 -0.3188
 7793SOL    HW224279   2.576   3.152   1.204 -0.3477  0.2643  0.0628
 7794SOL     OW24280   4.729   4.547   4.711  0.3963  0.1242 -0.1127
 7794SOL    HW124281   4.647   4.514   4.758  0.8312 -1.1272 -0.1996
 7794SOL    HW224282   4.806   4.486   4.730  0.7811  0.0079 -1.8046
 7795SOL     OW24283   2.223   4.166   3.417  0.3006 -0.3248  0.0489
 7795SOL    HW124284   2.211   4.150   3.515 -0.5948 -2.9126 -0.4068
 7795SOL    HW224285   2.297   4.232   3.403 -0.3810  1.0605  2.4693
 7796SOL     OW24286   2.990   3.664   3.482 -0.0475  0.1977  0.0696
 7796SOL    HW124287   2.947   3.651   3.393  1.6152 -0.0339 -0.7213
 7796SOL    HW224288   3.025   3.577   3.517  1.0367  0.5988  0.0262
 7797SOL     OW24289   2.206   6.709   1.751 -0.1129  0.2973  0.2981
 7797SOL    HW124290   2.130   6.735   1.692  0.6658  2.8798  0.2882
 7797SOL    HW224291   2.171   6.658   1.830 -1.5894 -0.2099 -0.6459
 7798SOL     OW24292   2.244   4.001   4.373  0.1002  0.4490 -0.1893
 7798SOL    HW124293   2.149   4.032   4.377 -0.5397 -1.2167 -1.0379
 7798SOL    HW224294   2.295   4.038   4.450 -2.1722 -1.4493  2.4664
 7799SOL     OW24295   6.752   5.596   2.067  0.3862 -0.1389  0.4659
 7799SOL    HW124296   6.693   5.663   2.022  0.2328 -0.3309  0.3779
 7799SOL    HW224297   6.847   5.627   2.063  0.8629 -1.6495 -2.8805
 7800SOL     OW24298   2.270   4.853   0.444  0.0127  0.5961 -0.7286
 7800SOL    HW124299   2.345   4.795   0.479 -0.6819 -1.7646 -2.8447
 7800SOL    HW224300   2.214   4.884   0.521  0.9904 -0.7779  0.6139
 7801SOL     OW24301   2.611   1.199   1.393 -0.1980 -0.1538 -0.6644
 7801SOL    HW124302   2.533   1.188   1.456 -0.5175  1.3248 -0.7525
 7801SOL    HW224303   2.602   1.136   1.317 -2.0034  0.8175 -1.3113
 7802SOL     OW24304   6.344   1.801   0.992 -0.1711 -0.1970 -0.1650
 7802SOL    HW124305   6.299   1.832   0.909 -0.2888  0.1481  0.0247
 7802SOL    HW224306   6.443   1.810   0.982 -0.1644 -0.5523 -0.4232
 7803SOL     OW24307   4.013   1.663   5.715  0.2224  0.1734  0.1582
 7803SOL    HW124308   4.021   1.592   5.645  1.0111 -0.1246  0.5423
 7803SOL    HW224309   3.946   1.732   5.685  0.2331 -0.1757 -0.6920
 7804SOL     OW24310   5.362   1.586   6.071  0.6971  0.2406  0.0921
 7804SOL    HW124311   5.326   1.633   5.990  0.0569  1.6846  1.1753
 7804SOL    HW224312   5.339   1.638   6.153  2.7586 -0.3022  1.0937
 7805SOL     OW24313   4.992   1.642   1.178 -0.1004 -0.4908  0.3606
 7805SOL    HW124314   5.088   1.670   1.182 -0.2386 -0.1246  3.0395
 7805SOL    HW224315   4.944   1.697   1.109  1.0935  1.0518  0.6910
 7806SOL     OW24316   4.766   2.069   5.011  0.4128 -0.2281 -0.2014
 7806SOL    HW124317   4.741   2.130   5.087 -0.4977 -1.8484  0.8640
 7806SOL    HW224318   4.783   1.977   5.046  2.7695 -0.4136 -1.6339
 7807SOL     OW24319   1.083   4.349   5.464 -0.0298  0.1145 -0.1808
 7807SOL    HW124320   1.005   4.366   5.524  0.6873  1.3106  0.4643
 7807SOL    HW224321   1.121   4.436   5.433  0.2264 -0.4732 -1.5840
 7808SOL     OW24322   0.182   3.733   5.973 -0.2512 -0.2670 -0.0927
 7808SOL    HW124323   0.168   3.726   6.072  1.1659 -1.4781  0.0529
 7808SOL    HW224324   0.272   3.697   5.949  0.3342  1.9765 -1.6048
 7809SOL     OW24325   1.838   4.693   3.310  0.4825  0.0880 -0.2509
 7809SOL    HW124326   1.937   4.686   3.298  0.6707 -0.1640  1.2673
 7809SOL    HW224327   1.791   4.658   3.229  1.6105 -2.4373  0.1172
 7810SOL     OW24328   2.884   6.181   4.181  0.0998  0.3366  0.5166
 7810SOL    HW124329   2.804   6.137   4.221  0.1702 -0.5988 -0.3174
 7810SOL    HW224330   2.870   6.280   4.177 -1.7068  0.0807 -1.0489
 7811SOL     OW24331   2.324   6.068   1.874 -0.0883  0.8585  0.7074
 7811SOL    HW124332   2.414   6.055   1.833 -0.7726  0.4731 -0.7504
 7811SOL    HW224333   2.279   5.979   1.883  0.0069  0.9326  2.3003
 7812SOL     OW24334   1.957   0.412   4.611  0.2349  0.3573  0.3941
 7812SOL    HW124335   1.995   0.458   4.691 -0.0027  1.9747 -0.3808
 7812SOL    HW224336   1.928   0.480   4.544  0.4926 -0.9444 -1.1116
 7813SOL     OW24337   4.805   2.347   5.901 -0.1944  0.0077  0.4480
 7813SOL    HW124338   4.739   2.332   5.827  2.4030 -2.1216 -1.6728
 7813SOL    HW224339   4.820   2.445   5.913 -2.0426  0.4536 -0.5746
 7814SOL     OW24340   0.887   3.391   3.620 -0.0531  0.2549  0.0983
 7814SOL    HW124341   0.968   3.449   3.610 -1.1471  1.7588 -0.3375
 7814SOL    HW224342   0.817   3.439   3.672 -0.9569 -0.7356 -0.1561
 7815SOL     OW24343   6.964   0.910   5.155 -0.4219  0.4872  0.7392
 7815SOL    HW124344   6.994   0.837   5.217  0.6934  0.8784  0.6844
 7815SOL    HW224345   6.864   0.911   5.151 -0.4650 -1.1192  0.6439
 7816SOL     OW24346   2.158   2.381   0.808  0.1095 -0.6146 -0.0032
 7816SOL    HW124347   2.139   2.447   0.735  1.3553 -0.7408 -0.4776
 7816SOL    HW224348   2.217   2.424   0.876 -2.4466  0.0749  1.9097
 7817SOL     OW24349   5.344   5.814   2.691  0.3661 -0.5994 -0.0829
 7817SOL    HW124350   5.245   5.801   2.693 -0.0717  2.1385  0.3282
 7817SOL    HW224351   5.375   5.846   2.780  1.1686  0.9383 -0.8670
 7818SOL     OW24352   4.599   1.933   3.419  0.1609 -0.0846 -0.3690
 7818SOL    HW124353   4.665   1.993   3.466 -0.3375 -1.1237  1.7940
 7818SOL    HW224354   4.620   1.838   3.440  0.4682 -0.7023 -3.1222
 7819SOL     OW24355   6.973   4.257   1.714 -0.3861  0.1377 -0.0008
 7819SOL    HW124356   6.978   4.356   1.701 -0.3355  0.0251 -0.9459
 7819SOL    HW224357   7.043   4.228   1.778 -1.5110  0.9206  1.6365
 7820SOL     OW24358   2.435   3.576   5.364  0.1220  0.6907 -0.6394
 7820SOL    HW124359   2.414   3.616   5.453 -0.7424  0.2678 -0.6384
 7820SOL    HW224360   2.514   3.515   5.373 -1.0983 -0.8307  0.2815
 7821SOL     OW24361   0.277   1.488   0.602 -0.7603  0.2012  0.1714
 7821SOL    HW124362   0.325   1.573   0.579  0.5817  0.1023  2.2698
 7821SOL    HW224363   0.203   1.472   0.537 -0.4471  2.4712 -0.8259
 7822SOL     OW24364   1.389   1.648   5.956  0.4674 -0.0810  0.0788
 7822SOL    HW124365   1.291   1.662   5.942  0.6377  1.3886  0.1977
 7822SOL    HW224366   1.404   1.585   6.032 -0.3893 -1.2426 -0.6998
 7823SOL     OW24367   2.521   2.779   5.330 -0.0746  0.2303  0.3700
 7823SOL    HW124368   2.528   2.855   5.266  1.1657 -0.2081 -0.0496
 7823SOL    HW224369   2.454   2.801   5.401 -0.9985  0.9858 -0.7026
 7824SOL     OW24370   5.999   0.011   3.230  0.2183 -0.0482  0.0066
 7824SOL    HW124371   5.949  -0.068   3.194  0.6427 -0.1815 -0.3063
 7824SOL    HW224372   5.958   0.041   3.316  0.2479 -0.8117  0.2958
 7825SOL     OW24373   0.638   6.601   6.650 -0.2283  0.1089 -0.1957
 7825SOL    HW124374   0.686   6.517   6.676  0.2138  1.0214  2.1264
 7825SOL    HW224375   0.696   6.680   6.668 -0.7615  0.9635 -2.0611
 7826SOL     OW24376   6.750   6.547   2.651 -0.9444  0.0901  0.1662
 7826SOL    HW124377   6.776   6.522   2.558  0.9609  1.8481  0.1756
 7826SOL    HW224378   6.673   6.611   2.648 -1.2779 -0.3184 -0.1520
 7827SOL     OW24379   2.254   3.231   5.955  0.5033  0.1828 -0.2383
 7827SOL    HW124380   2.326   3.165   5.931  0.9251 -0.1435  1.7130
 7827SOL    HW224381   2.295   3.309   6.002 -0.2224  0.9315 -0.8192
 7828SOL     OW24382   1.556   3.769   6.262 -0.4150  0.5953  0.5955
 7828SOL    HW124383   1.654   3.760   6.242  0.4258  1.1329  3.9214
 7828SOL    HW224384   1.516   3.839   6.203  1.0753  0.1419 -1.0490
 7829SOL     OW24385   0.431   4.589   1.044  0.0827 -0.5651  0.1118
 7829SOL    HW124386   0.386   4.500   1.052  2.2150 -1.7228 -0.1415
 7829SOL    HW224387   0.438   4.630   1.135  0.7082 -1.5061  0.5002
 7830SOL     OW24388   1.314   4.821   5.874 -0.2223  0.2122  0.0627
 7830SOL    HW124389   1.411   4.847   5.873 -0.0416 -0.4513 -0.1670
 7830SOL    HW224390   1.283   4.801   5.781 -0.7111  0.8782  0.0761
 7831SOL     OW24391   1.809   0.585   1.359  0.4926  0.1990  0.1032
 7831SOL    HW124392   1.835   0.539   1.274  0.4897  1.1716 -0.4367
 7831SOL    HW224393   1.779   0.517   1.426 -0.4261 -0.5006 -0.9917
 7832SOL     OW24394   6.937   2.212   2.274 -0.0601  0.6070 -0.4201
 7832SOL    HW124395   6.956   2.273   2.350  0.3951  0.5527 -0.4870
 7832SOL    HW224396   6.873   2.141   2.303 -1.3319  1.6534 -0.6014
 7833SOL     OW24397   6.421   1.693   5.772 -0.1163  0.0815  0.4738
 7833SOL    HW124398   6.432   1.770   5.709 -0.4597  2.9054  3.5693
 7833SOL    HW224399   6.507   1.677   5.820 -0.3479 -0.7890  0.6094
 7834SOL     OW24400   0.564   6.749   3.962 -0.0287  0.0008 -0.0057
 7834SOL    HW124401   0.476   6.783   3.995  0.1301 -0.0254  0.4449
 7834SOL    HW224402   0.593   6.804   3.883 -0.7649 -0.4141 -0.5833
 7835SOL     OW24403   2.887   3.053   5.526 -0.3679  0.3852  0.2073
 7835SOL    HW124404   2.839   3.090   5.446 -0.5430 -0.2385  0.0242
 7835SOL    HW224405   2.924   2.963   5.505 -2.4207 -0.8539  1.5146
 7836SOL     OW24406   3.747   3.373   5.511 -0.1863  0.3226 -0.4120
 7836SOL    HW124407   3.842   3.356   5.483  0.3438  3.5584 -1.0288
 7836SOL    HW224408   3.742   3.380   5.610 -0.0102 -0.8778 -0.3081
 7837SOL     OW24409   5.237   5.969   0.076  0.0777 -0.1584  0.0819
 7837SOL    HW124410   5.244   5.907   0.154  0.2447 -0.5372 -0.2356
 7837SOL    HW224411   5.318   5.961   0.019 -0.7471 -1.0346 -0.9869
 7838SOL     OW24412   4.524   6.985   0.791  0.5329 -0.5772  0.4529
 7838SOL    HW124413   4.441   6.982   0.735  0.7211 -0.3342  0.1524
 7838SOL    HW224414   4.502   7.019   0.882  0.2995 -0.5134  0.3740
 7839SOL     OW24415   5.241   5.358   4.962 -0.0724 -0.5180  0.8268
 7839SOL    HW124416   5.280   5.438   5.008 -0.4689  1.1397 -1.4938
 7839SOL    HW224417   5.314   5.301   4.926  0.2222 -0.2135  0.9425
 7840SOL     OW24418   0.871   3.504   2.720 -0.5271  0.0319  0.5157
 7840SOL    HW124419   0.841   3.597   2.737 -2.2107 -0.4848  0.5277
 7840SOL    HW224420   0.840   3.444   2.794 -0.8886 -0.8212 -0.3071
 7841SOL     OW24421   3.200   6.219   6.670 -0.0870 -0.0197  0.0468
 7841SOL    HW124422   3.222   6.134   6.623  0.6781  0.5467 -0.6416
 7841SOL    HW224423   3.268   6.237   6.741  0.1900  0.4051 -0.3227
 7842SOL     OW24424   3.495   2.127   2.874 -0.0154 -0.4734 -0.5884
 7842SOL    HW124425   3.590   2.098   2.882 -0.2941 -1.0770  0.9305
 7842SOL    HW224426   3.469   2.130   2.778  1.2924 -1.0881 -0.9860
 7843SOL     OW24427   1.852   5.020   4.023 -0.0809 -0.4832 -0.8061
 7843SOL    HW124428   1.931   5.002   3.965 -0.3615 -3.0703 -0.4888
 7843SOL    HW224429   1.883   5.057   4.111  0.5932  0.3934 -1.3997
 7844SOL     OW24430   3.848   5.833   3.268  0.1972 -0.0526  0.6222
 7844SOL    HW124431   3.763   5.832   3.215 -1.2404  0.6082  2.8178
 7844SOL    HW224432   3.917   5.885   3.217 -0.9977  0.2761 -0.7469
 7845SOL     OW24433   0.356   2.716   4.381  0.0994 -0.5515 -0.0666
 7845SOL    HW124434   0.306   2.739   4.298 -0.6730 -1.8855  0.0049
 7845SOL    HW224435   0.454   2.709   4.360  0.1716  1.0954 -0.4139
 7846SOL     OW24436   0.250   2.503   0.408 -0.0516  0.4986  0.4564
 7846SOL    HW124437   0.329   2.482   0.352  0.0126 -1.2915  1.1363
 7846SOL    HW224438   0.166   2.477   0.360 -0.1162  0.7490  0.4318
 7847SOL     OW24439   6.773   0.021   3.842 -0.0648 -0.1560  0.6759
 7847SOL    HW124440   6.716   0.006   3.761  0.0279 -1.4489  0.8233
 7847SOL    HW224441   6.750   0.109   3.883 -0.6363  0.1790 -0.3282
 7848SOL     OW24442   2.959   1.186   6.932 -0.1125 -0.2099 -0.1927
 7848SOL    HW124443   3.023   1.113   6.911  0.0125 -0.1730  0.0563
 7848SOL    HW224444   2.870   1.166   6.891  0.7063  0.9568 -2.7249
 7849SOL     OW24445   0.080   5.969   4.383  0.1527  0.6295  1.0488
 7849SOL    HW124446   0.134   6.046   4.350 -0.0612 -0.2140 -1.5589
 7849SOL    HW224447   0.139   5.891   4.399 -0.0566  0.1848 -0.2355
 7850SOL     OW24448   3.026   1.488   3.419  0.5572  0.2996 -0.0376
 7850SOL    HW124449   3.042   1.480   3.517  0.2006 -1.4503 -0.0944
 7850SOL    HW224450   3.097   1.546   3.378  0.5475  1.2723  1.2716
 7851SOL     OW24451   5.119   2.346   1.672  0.1277  0.4332  0.3238
 7851SOL    HW124452   5.115   2.426   1.612  0.8830  0.4137  0.2276
 7851SOL    HW224453   5.211   2.307   1.668  0.3499  0.7272  1.8691
 7852SOL     OW24454   4.062   0.008   6.746 -0.2246 -0.0610  0.3128
 7852SOL    HW124455   4.040   0.103   6.765  1.9870  0.7520 -0.7320
 7852SOL    HW224456   4.084  -0.002   6.648 -1.8710 -1.9956  0.0688
 7853SOL     OW24457   3.671   3.748   1.884  0.6161  0.2790  0.8508
 7853SOL    HW124458   3.656   3.822   1.819  1.3210 -0.2591  0.0575
 7853SOL    HW224459   3.737   3.778   1.954  1.9230 -0.0213 -0.2221
 7854SOL     OW24460   3.822   2.722   6.131  0.2921 -0.5753  0.7718
 7854SOL    HW124461   3.849   2.679   6.045  2.0360 -0.4662  1.2317
 7854SOL    HW224462   3.834   2.821   6.124 -1.9643 -0.2683  0.3384
 7855SOL     OW24463   5.070   4.857   3.688  0.0433 -0.1082 -0.5180
 7855SOL    HW124464   4.972   4.857   3.708 -0.0618 -1.0126 -0.9504
 7855SOL    HW224465   5.114   4.935   3.733 -0.7415 -0.1302  0.3157
 7856SOL     OW24466   0.025   5.119   5.009 -0.0366  0.0463  0.4721
 7856SOL    HW124467  -0.021   5.206   5.028 -0.8350 -0.9825  3.9549
 7856SOL    HW224468  -0.035   5.043   5.036  2.0712 -1.4538  1.2099
 7857SOL     OW24469   6.171   3.033   0.393 -0.5974 -0.1594  0.2064
 7857SOL    HW124470   6.245   2.988   0.442 -1.0329  0.7107  1.7167
 7857SOL    HW224471   6.092   3.043   0.453 -1.2791  0.6501 -0.7779
 7858SOL     OW24472   0.776   5.927   3.448 -0.7552  0.0446  0.0300
 7858SOL    HW124473   0.815   6.001   3.504 -0.6002 -0.8381  1.1448
 7858SOL    HW224474   0.766   5.958   3.354  1.5082  0.7260 -0.0424
 7859SOL     OW24475   3.480   3.409   5.417  0.0481 -0.2376  0.5599
 7859SOL    HW124476   3.415   3.348   5.463 -0.9275 -0.4966 -1.0873
 7859SOL    HW224477   3.571   3.368   5.420 -0.5656 -1.7445 -0.3819
 7860SOL     OW24478   3.561   6.997   4.090 -0.7949  0.6047  0.2948
 7860SOL    HW124479   3.554   6.897   4.093  0.8792  0.4748  0.3239
 7860SOL    HW224480   3.485   7.033   4.036 -0.6052 -0.7833 -0.9616
 7861SOL     OW24481   3.487   5.157   0.181 -0.0017  0.0762 -0.2791
 7861SOL    HW124482   3.526   5.094   0.248 -0.0172  1.2149  0.8490
 7861SOL    HW224483   3.534   5.145   0.093  1.0355 -0.4582  0.3218
 7862SOL     OW24484   7.008   3.925   1.697 -0.2024 -0.9225 -0.4282
 7862SOL    HW124485   7.008   3.987   1.775 -0.2329 -1.3566 -0.0802
 7862SOL    HW224486   6.956   3.966   1.622 -0.1569 -0.4960 -0.2293
 7863SOL     OW24487   1.314   2.878   3.185  0.1141 -0.2288 -0.0045
 7863SOL    HW124488   1.249   2.904   3.256  1.1112 -2.3623  1.8400
 7863SOL    HW224489   1.361   2.959   3.150 -1.5760  1.0412  0.5814
 7864SOL     OW24490   1.986   6.342   6.143  0.1827 -0.6549 -0.7209
 7864SOL    HW124491   1.945   6.433   6.144  0.5439 -0.4905 -0.3291
 7864SOL    HW224492   2.068   6.342   6.200 -0.0414 -1.3297 -0.3820
 7865SOL     OW24493   0.504   0.060   5.031  0.7545 -0.2428 -0.5534
 7865SOL    HW124494   0.445  -0.020   5.044 -0.2727  0.4262 -0.9781
 7865SOL    HW224495   0.579   0.056   5.097 -0.1120 -0.8050  0.4477
 7866SOL     OW24496   6.404   2.220   5.797 -0.0742  0.3676 -0.6348
 7866SOL    HW124497   6.407   2.304   5.744  0.4578  0.5049 -0.3966
 7866SOL    HW224498   6.347   2.234   5.878  0.1529  0.5558 -0.5054
 7867SOL     OW24499   6.691   6.017   2.820 -0.2538  0.2534 -0.5729
 7867SOL    HW124500   6.596   5.996   2.798 -0.1260  0.5094 -1.4040
 7867SOL    HW224501   6.712   6.110   2.791 -0.0879  0.6549  0.7321
 7868SOL     OW24502   6.861   6.347   1.109  0.6864 -0.5805 -0.1413
 7868SOL    HW124503   6.917   6.265   1.094  1.2980 -0.3664  0.8796
 7868SOL    HW224504   6.921   6.427   1.115  0.5097 -0.5445  2.6213
 7869SOL     OW24505   4.920   2.380   6.521  0.3869 -0.8869  0.0639
 7869SOL    HW124506   4.907   2.358   6.617  0.9307 -1.4048  0.0222
 7869SOL    HW224507   4.843   2.435   6.489  0.1119 -0.8677  0.7421
 7870SOL     OW24508   3.970   5.142   3.601  0.3384  0.3773  0.1213
 7870SOL    HW124509   4.070   5.142   3.588  0.1043  1.9869 -2.4545
 7870SOL    HW224510   3.948   5.184   3.689  1.9146  0.9997  0.2554
 7871SOL     OW24511   4.296   0.920   4.060 -0.8146 -0.4717 -0.3567
 7871SOL    HW124512   4.247   0.996   4.103 -2.9727 -1.8617 -0.2067
 7871SOL    HW224513   4.394   0.930   4.077 -1.1132  1.7798  0.3938
 7872SOL     OW24514   0.768   5.340   3.859  0.6349  0.0071 -0.4021
 7872SOL    HW124515   0.865   5.315   3.857  0.5786 -0.2988  0.2538
 7872SOL    HW224516   0.721   5.282   3.926 -0.3209 -0.9939 -1.9015
 7873SOL     OW24517   6.537   6.141   5.663 -0.6830 -0.1061  0.4783
 7873SOL    HW124518   6.581   6.206   5.600 -0.5355  0.7900  1.4751
 7873SOL    HW224519   6.447   6.116   5.627 -0.5054  0.2050 -0.2060
 7874SOL     OW24520   4.149   2.299   6.092  0.1637 -0.9250  0.2671
 7874SOL    HW124521   4.132   2.239   6.170  0.8184 -1.8597 -0.2887
 7874SOL    HW224522   4.065   2.347   6.067  0.0563 -0.2836  1.8129
 7875SOL     OW24523   4.496   1.415   0.134  0.7279 -0.0767  0.1484
 7875SOL    HW124524   4.421   1.443   0.195 -0.7211  0.3344 -1.7129
 7875SOL    HW224525   4.579   1.464   0.159  0.9211 -1.7280  3.3125
 7876SOL     OW24526   1.584   6.784   2.193 -0.0802 -0.8881  0.4681
 7876SOL    HW124527   1.560   6.837   2.275  1.4271  0.2765  0.2106
 7876SOL    HW224528   1.567   6.840   2.112 -2.7250 -2.4661 -0.1728
 7877SOL     OW24529   1.850   2.941   3.938 -0.1648 -0.2637 -0.0459
 7877SOL    HW124530   1.848   3.028   3.988 -1.7704 -1.6197  2.4907
 7877SOL    HW224531   1.763   2.928   3.890 -0.0442 -0.5954 -0.1790
 7878SOL     OW24532   4.955   4.027   5.352 -0.4739 -0.0952  0.1794
 7878SOL    HW124533   4.878   3.965   5.338  0.4507 -0.9411 -1.6195
 7878SOL    HW224534   5.036   3.974   5.378 -0.8187  0.9526  3.8848
 7879SOL     OW24535   2.772   6.015   2.760  0.3782  0.1163 -0.2943
 7879SOL    HW124536   2.753   6.110   2.736 -1.6366  0.3031  1.6770
 7879SOL    HW224537   2.698   5.956   2.728  1.1588 -0.6598 -0.7068
 7880SOL     OW24538   6.751   4.881   0.081  0.0545 -0.7251 -0.0236
 7880SOL    HW124539   6.693   4.923   0.011  0.7021  1.9722  0.9353
 7880SOL    HW224540   6.729   4.920   0.170  0.7070 -2.5343  0.9669
 7881SOL     OW24541   1.096   0.081   5.114  0.5074 -0.3018  0.1612
 7881SOL    HW124542   1.003   0.059   5.084 -0.0803  1.7769  0.3415
 7881SOL    HW224543   1.161   0.053   5.043 -0.3570 -0.5752 -0.5470
 7882SOL     OW24544   0.407   3.693   0.607  0.6328 -0.4093  0.2368
 7882SOL    HW124545   0.375   3.602   0.583 -0.7191  0.0214  0.3528
 7882SOL    HW224546   0.329   3.755   0.617  1.4349  0.4532  1.4609
 7883SOL     OW24547   0.696   5.044   6.618 -0.5338  0.5482  0.2408
 7883SOL    HW124548   0.699   5.131   6.570  0.1121  0.3715 -0.0517
 7883SOL    HW224549   0.763   5.043   6.691 -0.4232  0.2399  0.1393
 7884SOL     OW24550   2.255   2.933   5.566  0.3930  0.1958  0.0137
 7884SOL    HW124551   2.283   3.026   5.591  0.1890  0.4622 -0.7122
 7884SOL    HW224552   2.330   2.869   5.580  0.2865  0.3316  1.2855
 7885SOL     OW24553   5.528   4.527   0.674 -0.3067 -0.2672 -0.1348
 7885SOL    HW124554   5.557   4.439   0.711 -2.0124 -1.2324 -0.9673
 7885SOL    HW224555   5.453   4.564   0.729 -0.7890 -0.2142 -0.8140
 7886SOL     OW24556   3.342   4.363   6.089 -0.0221  0.0348  0.0766
 7886SOL    HW124557   3.430   4.343   6.134 -0.0179  0.2637  0.1722
 7886SOL    HW224558   3.290   4.278   6.080 -0.2047  0.0514  0.9049
 7887SOL     OW24559   3.868   3.984   4.212  0.5263 -0.2718 -0.1386
 7887SOL    HW124560   3.781   3.960   4.256  1.4993  0.0396  2.0863
 7887SOL    HW224561   3.882   4.083   4.219  0.9438 -0.2794 -0.7691
 7888SOL     OW24562   5.857   0.628   6.138 -0.0139 -0.3483  0.2897
 7888SOL    HW124563   5.906   0.554   6.184  0.5620 -0.0424  0.1948
 7888SOL    HW224564   5.847   0.607   6.041  0.5739 -0.1043  0.1668
 7889SOL     OW24565   1.489   4.251   2.767 -0.1645 -0.6403  0.1973
 7889SOL    HW124566   1.535   4.177   2.815 -1.1361 -1.4436 -0.0724
 7889SOL    HW224567   1.410   4.281   2.820  0.6631  0.7654  0.6847
 7890SOL     OW24568   5.893   3.165   2.702 -0.1539  0.2541 -0.0738
 7890SOL    HW124569   5.834   3.222   2.645 -0.0214  0.4782  0.0111
 7890SOL    HW224570   5.854   3.159   2.794  0.3223  0.9967  0.1871
 7891SOL     OW24571   2.215   4.604   2.379  0.5887 -0.1009 -0.2607
 7891SOL    HW124572   2.264   4.685   2.348 -0.8043  0.8332 -0.1222
 7891SOL    HW224573   2.193   4.613   2.476  1.2668 -1.1085  0.0064
 7892SOL     OW24574   2.553   1.385   3.859  0.5292  0.1502  0.5376
 7892SOL    HW124575   2.648   1.416   3.852  0.5705 -0.0006  0.4362
 7892SOL    HW224576   2.522   1.393   3.954  1.0443 -0.9764  0.8175
 7893SOL     OW24577   0.765   6.344   2.118  0.1302  0.2409  0.1487
 7893SOL    HW124578   0.771   6.307   2.210  1.4257  1.1040  0.4486
 7893SOL    HW224579   0.670   6.367   2.097 -0.6035 -2.4047  0.2272
 7894SOL     OW24580   4.039   1.265   1.633 -0.3759  0.6136 -0.2128
 7894SOL    HW124581   4.119   1.324   1.634 -0.9423  1.4060 -0.4645
 7894SOL    HW224582   4.009   1.252   1.538 -1.2941  1.3857 -0.0456
 7895SOL     OW24583   0.141   1.605   0.050  0.0901  0.8618 -0.6212
 7895SOL    HW124584   0.063   1.542   0.051 -0.2760  1.3155 -0.3401
 7895SOL    HW224585   0.148   1.651   0.138 -1.1246  3.0048 -1.5688
 7896SOL     OW24586   5.034   2.425   0.104 -0.3225  0.1048  0.3416
 7896SOL    HW124587   4.972   2.491   0.145  0.5179  0.6306  0.8041
 7896SOL    HW224588   5.099   2.472   0.044  1.9586  0.1414  2.6576
 7897SOL     OW24589   0.656   4.270   0.015  0.0983 -0.3552  0.2054
 7897SOL    HW124590   0.629   4.203   0.084 -0.2305 -1.6282 -1.0945
 7897SOL    HW224591   0.750   4.251  -0.014  0.0576 -0.1585 -0.0571
 7898SOL     OW24592   5.633   1.338   4.533 -0.1373  0.2519  0.0894
 7898SOL    HW124593   5.699   1.263   4.529  0.5727  0.8986 -0.6574
 7898SOL    HW224594   5.646   1.399   4.455 -0.8156  1.0694  0.5884
 7899SOL     OW24595   5.196   2.263   1.335  0.0855 -0.5551  0.1797
 7899SOL    HW124596   5.229   2.346   1.379 -1.3382  0.2559 -0.1923
 7899SOL    HW224597   5.150   2.287   1.249  0.2423 -1.8027 -0.2746
 7900SOL     OW24598   0.286   5.759   2.147 -1.0890 -0.1229  0.0193
 7900SOL    HW124599   0.380   5.728   2.157 -1.7540 -2.0749  0.7510
 7900SOL    HW224600   0.285   5.852   2.109  1.0757 -0.3662 -0.7768
 7901SOL     OW24601   5.675   1.831   6.621 -0.4741  0.4025 -0.2268
 7901SOL    HW124602   5.726   1.746   6.630 -3.2042 -1.5039 -1.5509
 7901SOL    HW224603   5.723   1.904   6.669  1.9396 -1.8586  1.0087
 7902SOL     OW24604   3.814   5.379   1.570 -0.3786 -0.6424  0.5433
 7902SOL    HW124605   3.868   5.306   1.529 -0.1357 -1.8088  2.8143
 7902SOL    HW224606   3.762   5.344   1.647 -2.4536  1.0138  0.0061
 7903SOL     OW24607   5.345   0.507   1.972  0.4149 -0.0193  0.5737
 7903SOL    HW124608   5.330   0.603   1.948  1.3047 -0.0081 -0.0014
 7903SOL    HW224609   5.397   0.502   2.058  1.2465  0.0526  0.0900
 7904SOL     OW24610   5.896   0.903   4.550  0.5178  0.4579 -0.1771
 7904SOL    HW124611   5.837   0.825   4.570  0.0786  0.5937 -0.8934
 7904SOL    HW224612   5.982   0.894   4.601  1.2494 -1.4511 -1.5960
 7905SOL     OW24613   4.362   0.351   6.938 -0.0707  0.5067 -0.0837
 7905SOL    HW124614   4.408   0.438   6.921 -1.1348  1.0928 -0.0413
 7905SOL    HW224615   4.429   0.277   6.935  0.6968  1.2075 -1.1416
 7906SOL     OW24616   6.677   5.432   0.056 -0.3672  0.2077 -0.0575
 7906SOL    HW124617   6.703   5.492  -0.020 -1.1980 -0.9684 -1.3192
 7906SOL    HW224618   6.598   5.471   0.104 -1.0520  0.0348 -1.0173
 7907SOL     OW24619   4.789   2.092   6.029  0.2930 -0.1811  0.2186
 7907SOL    HW124620   4.775   2.110   6.127  1.4467  0.1280  0.3488
 7907SOL    HW224621   4.817   2.176   5.984  0.9810 -0.5890 -0.1319
 7908SOL     OW24622   1.241   2.500   6.622 -0.0797 -0.1301 -0.1258
 7908SOL    HW124623   1.154   2.488   6.576  1.1283  1.0477 -2.9359
 7908SOL    HW224624   1.296   2.416   6.612  0.2064  0.1463 -0.9720
 7909SOL     OW24625   4.367   4.514   2.095 -0.3040  0.2254 -0.3975
 7909SOL    HW124626   4.422   4.439   2.058 -0.6073 -0.9061  1.3181
 7909SOL    HW224627   4.271   4.487   2.097 -0.1046 -0.8883  3.3673
 7910SOL     OW24628   3.060   2.184   5.717  0.0738  0.2895 -0.1812
 7910SOL    HW124629   2.994   2.237   5.664 -0.1248  1.5275  1.2437
 7910SOL    HW224630   3.148   2.183   5.670  0.1794  2.2097 -0.0878
 7911SOL     OW24631   0.509   3.112   6.534 -0.5821  0.1098  1.1217
 7911SOL    HW124632   0.487   3.055   6.454  3.0572  0.8241 -0.5698
 7911SOL    HW224633   0.565   3.061   6.598  0.5612  0.9649  0.8355
 7912SOL     OW24634   6.320   5.585   5.543  0.4528 -0.4674 -0.5060
 7912SOL    HW124635   6.359   5.675   5.522  3.3681 -1.6394 -0.6424
 7912SOL    HW224636   6.324   5.527   5.461 -4.0860 -0.0163 -1.3141
 7913SOL     OW24637   0.097   4.556   0.646  0.5043  0.5223 -0.2933
 7913SOL    HW124638   0.101   4.498   0.565  0.6258  0.2508 -0.0934
 7913SOL    HW224639   0.007   4.548   0.689  0.9731 -0.6379  0.5467
 7914SOL     OW24640   6.372   4.513   1.661 -0.0801  0.1118  0.0259
 7914SOL    HW124641   6.425   4.574   1.602  0.7151 -0.7412 -0.1844
 7914SOL    HW224642   6.307   4.566   1.715  0.4997  1.1159 -0.2354
 7915SOL     OW24643   4.585   1.691   2.683 -0.0827  0.3076 -0.2561
 7915SOL    HW124644   4.683   1.677   2.664  0.4401  2.6206  0.3946
 7915SOL    HW224645   4.571   1.694   2.782 -0.8623 -0.2030 -0.3477
 7916SOL     OW24646   4.815   6.145   6.065  0.4036  0.5713 -0.3359
 7916SOL    HW124647   4.821   6.090   5.981 -3.4166  1.5829 -1.4648
 7916SOL    HW224648   4.770   6.092   6.136  1.0540  0.6815  0.1675
 7917SOL     OW24649   3.320   3.521   3.442  0.6331  0.0029  0.3810
 7917SOL    HW124650   3.240   3.525   3.501  0.6056  0.2754  0.3292
 7917SOL    HW224651   3.402   3.544   3.494  0.5521  0.6848  0.2152
 7918SOL     OW24652   0.317   1.107   1.738  0.0694  0.2583 -0.2802
 7918SOL    HW124653   0.292   1.148   1.825  4.1460  0.1196  1.1729
 7918SOL    HW224654   0.317   1.177   1.666 -1.5040  0.7775  0.1876
 7919SOL     OW24655   0.939   5.740   2.246 -0.2497  0.2755 -0.4945
 7919SOL    HW124656   1.004   5.791   2.189 -0.6683  0.4742 -0.7951
 7919SOL    HW224657   0.868   5.802   2.278  0.1501  0.2403  0.5100
 7920SOL     OW24658   0.098   6.125   2.403  0.0057  0.2050 -0.2923
 7920SOL    HW124659   0.039   6.076   2.467 -0.6466 -2.4527 -2.7071
 7920SOL    HW224660   0.162   6.181   2.453 -0.6997 -1.4226  2.6582
 7921SOL     OW24661   3.159   5.299   6.854 -0.1234 -0.5012  0.3287
 7921SOL    HW124662   3.169   5.334   6.760  0.7614 -2.2598 -0.2926
 7921SOL    HW224663   3.072   5.251   6.862 -0.6724  0.5274  0.7472
 7922SOL     OW24664   0.698   6.772   6.218  1.0779  0.1958 -0.3207
 7922SOL    HW124665   0.783   6.741   6.262  0.1947 -1.3022  0.4370
 7922SOL    HW224666   0.720   6.827   6.138  2.7566  0.7210  0.4546
 7923SOL     OW24667   3.380   6.535   1.982  0.1951  0.0332 -0.4627
 7923SOL    HW124668   3.309   6.491   1.927  2.6816 -1.9955 -2.3091
 7923SOL    HW224669   3.342   6.559   2.072 -2.6283 -1.4148 -1.1362
 7924SOL     OW24670   5.228   4.492   2.765  0.4856  0.1813  0.8294
 7924SOL    HW124671   5.244   4.452   2.675 -0.1797 -0.3034  0.9161
 7924SOL    HW224672   5.294   4.456   2.830  0.6916  0.1988  0.6327
 7925SOL     OW24673   6.966   1.741   5.772 -0.0320  0.0983  0.0317
 7925SOL    HW124674   6.925   1.833   5.773  0.5021  0.3616 -0.9127
 7925SOL    HW224675   7.066   1.750   5.767 -0.0104 -0.5285 -0.8006
 7926SOL     OW24676   5.534   0.337   5.670 -0.1144  0.6163  0.3701
 7926SOL    HW124677   5.493   0.428   5.660  0.6539  0.9100 -0.2303
 7926SOL    HW224678   5.633   0.343   5.658  0.0088 -0.2248  0.8624
 7927SOL     OW24679   2.217   5.608   5.340  0.5137 -1.0076 -0.6453
 7927SOL    HW124680   2.165   5.553   5.275  0.5250 -0.7655 -0.8601
 7927SOL    HW224681   2.306   5.566   5.356  1.4335  0.1053 -2.5293
 7928SOL     OW24682   0.758   2.775   4.553  0.3422  0.0007 -0.0246
 7928SOL    HW124683   0.681   2.765   4.617 -0.6187  0.2363 -1.1004
 7928SOL    HW224684   0.764   2.870   4.523  1.0990 -0.0074  0.0865
 7929SOL     OW24685   3.809   2.942   4.672 -0.2021 -0.2441 -0.1511
 7929SOL    HW124686   3.900   2.924   4.710 -0.8976 -0.7396  1.3567
 7929SOL    HW224687   3.809   2.920   4.574  1.3520 -0.0163 -0.2236
 7930SOL     OW24688   4.345   6.289   3.675 -0.1540 -0.4234  0.1331
 7930SOL    HW124689   4.427   6.281   3.617 -1.1722 -0.1011 -1.3950
 7930SOL    HW224690   4.350   6.375   3.726  0.3451 -0.2745 -0.1486
 7931SOL     OW24691   1.957   1.854   1.609  0.4395  0.1123  0.0567
 7931SOL    HW124692   1.991   1.947   1.619  0.3679  0.1332  0.1087
 7931SOL    HW224693   1.872   1.844   1.661 -0.4168  0.4708 -1.2321
 7932SOL     OW24694   2.071   1.415   0.587  0.3186 -0.5863  0.1539
 7932SOL    HW124695   2.084   1.417   0.488  2.1709  0.2592  0.3685
 7932SOL    HW224696   2.149   1.459   0.631 -1.2699  0.5563  1.9313
 7933SOL     OW24697   6.282   6.078   5.555  0.0114 -0.1009  1.2927
 7933SOL    HW124698   6.260   6.169   5.519  2.9221  0.2991  0.2825
 7933SOL    HW224699   6.200   6.021   5.553 -0.9565  1.1598 -2.1883
 7934SOL     OW24700   1.601   3.666   0.336 -0.5438 -0.5796  0.1230
 7934SOL    HW124701   1.667   3.615   0.280 -0.0888 -0.6674  0.7294
 7934SOL    HW224702   1.559   3.604   0.403  0.2526 -0.1073  1.0788
 7935SOL     OW24703   5.929   5.726   6.792 -0.0978 -0.1080 -0.2998
 7935SOL    HW124704   5.988   5.755   6.867  0.1041  3.1182 -1.5593
 7935SOL    HW224705   5.846   5.782   6.790  0.0956  0.2036 -2.6962
 7936SOL     OW24706   3.096   5.165   3.117  0.0383  0.1951 -0.9290
 7936SOL    HW124707   3.092   5.231   3.043 -0.9646 -0.1251 -1.1763
 7936SOL    HW224708   3.115   5.074   3.079  3.8174  0.6134 -0.3998
 7937SOL     OW24709   6.053   6.742   2.591 -0.3375 -0.3270 -0.0657
 7937SOL    HW124710   6.093   6.771   2.504 -0.4938  0.3332  0.0755
 7937SOL    HW224711   6.119   6.688   2.643  0.3179  0.6269  0.1040
 7938SOL     OW24712   5.898   3.987   5.436 -0.1152 -0.1088 -0.2652
 7938SOL    HW124713   5.857   4.061   5.490 -0.9401 -0.4912 -0.3593
 7938SOL    HW224714   5.941   4.025   5.354 -0.4603  0.2774 -0.2696
 7939SOL     OW24715   0.410   1.634   5.027  0.2929  0.0060 -0.7144
 7939SOL    HW124716   0.345   1.576   5.076 -0.1576  0.5501 -0.6598
 7939SOL    HW224717   0.421   1.599   4.933 -1.1728  0.7123 -1.1846
 7940SOL     OW24718   1.447   4.694   0.458  0.2980  0.1610  0.3968
 7940SOL    HW124719   1.483   4.779   0.421 -1.6618  0.4154 -1.1181
 7940SOL    HW224720   1.473   4.618   0.398  0.6450 -0.0687  0.8338
 7941SOL     OW24721   5.809   6.621   1.133  0.5450 -0.3471 -0.1938
 7941SOL    HW124722   5.807   6.671   1.046  1.1209 -0.6508 -0.3895
 7941SOL    HW224723   5.798   6.686   1.208 -0.0728 -0.0967 -0.4962
 7942SOL     OW24724   0.421   5.364   2.703 -0.4876 -0.5284 -0.7356
 7942SOL    HW124725   0.464   5.316   2.779  0.4038  0.6642 -0.4596
 7942SOL    HW224726   0.397   5.457   2.731 -0.9745 -0.3606 -1.6485
 7943SOL     OW24727   5.320   1.974   0.580 -0.6978  0.3969 -0.1700
 7943SOL    HW124728   5.346   1.933   0.493  0.1130 -2.2478  1.2047
 7943SOL    HW224729   5.396   1.969   0.644 -1.5324  1.5294  0.9700
 7944SOL     OW24730   0.309   3.505   0.141 -0.1362  0.4684 -0.1876
 7944SOL    HW124731   0.343   3.477   0.231 -1.3208  1.1333  0.4895
 7944SOL    HW224732   0.306   3.426   0.080  1.9375  0.2602 -0.0845
 7945SOL     OW24733   5.248   5.944   1.309 -0.2141 -0.0540  0.1190
 7945SOL    HW124734   5.210   5.938   1.401 -3.6850 -2.8556 -1.2560
 7945SOL    HW224735   5.180   5.981   1.246  1.3188 -0.1196 -1.6728
 7946SOL     OW24736   3.565   0.288   4.555  0.0926  0.5924  0.9599
 7946SOL    HW124737   3.580   0.350   4.477 -0.5006  2.8294  2.5447
 7946SOL    HW224738   3.550   0.195   4.520 -2.0945  1.8193 -1.7379
 7947SOL     OW24739   2.366   3.408   6.143  0.6509 -0.1997  0.6433
 7947SOL    HW124740   2.461   3.389   6.120  0.2302 -1.2303 -0.3420
 7947SOL    HW224741   2.338   3.494   6.099 -0.1162 -2.0778 -2.9950
 7948SOL     OW24742   0.124   6.083   1.847 -0.2259  0.0100 -0.3358
 7948SOL    HW124743   0.040   6.043   1.810  0.4378 -1.6376 -0.1535
 7948SOL    HW224744   0.200   6.062   1.785  0.6008 -1.3523  1.0697
 7949SOL     OW24745   3.110   6.056   3.559 -0.0292  0.2706 -0.1901
 7949SOL    HW124746   3.049   5.978   3.576  1.0505 -0.4128  0.7764
 7949SOL    HW224747   3.095   6.126   3.629 -0.6351  0.6999 -0.7485
 7950SOL     OW24748   4.818   5.663   5.029  0.3024 -0.2592 -0.3949
 7950SOL    HW124749   4.722   5.689   5.039  0.3866  0.3665 -1.1910
 7950SOL    HW224750   4.848   5.678   4.935  1.4315  0.3998  0.0527
 7951SOL     OW24751   0.451   5.536   1.833  0.1286 -0.3795 -0.2154
 7951SOL    HW124752   0.452   5.597   1.754 -0.0566 -0.0948 -0.0007
 7951SOL    HW224753   0.541   5.495   1.845  1.1097  1.9812  1.2837
 7952SOL     OW24754   0.977   6.072   6.060 -0.1964  0.0745 -0.0489
 7952SOL    HW124755   0.993   6.000   6.128 -0.0613  0.5924  0.4744
 7952SOL    HW224756   1.013   6.042   5.971 -1.0449 -0.9202 -0.0828
 7953SOL     OW24757   1.656   2.083   2.565 -0.0467  1.2733 -0.2802
 7953SOL    HW124758   1.652   2.001   2.507 -2.2688  1.0577  0.0931
 7953SOL    HW224759   1.738   2.079   2.622 -0.8930 -1.5860  0.9355
 7954SOL     OW24760   5.770   4.172   5.589  0.2966  0.6076  0.4290
 7954SOL    HW124761   5.768   4.120   5.674 -0.7031  0.5677  0.3903
 7954SOL    HW224762   5.734   4.264   5.606 -1.6424  0.0394 -0.2890
 7955SOL     OW24763   2.439   0.006   6.834 -0.1674 -0.2573 -0.5865
 7955SOL    HW124764   2.527  -0.042   6.834 -0.9025 -1.6810  0.7252
 7955SOL    HW224765   2.365  -0.060   6.844 -1.2760  1.0894  0.5407
 7956SOL     OW24766   4.061   5.345   1.163  0.0725  0.0836  0.0194
 7956SOL    HW124767   4.095   5.394   1.082 -0.2857  0.8058  0.2943
 7956SOL    HW224768   4.063   5.247   1.145  2.2166  0.0712 -0.0253
 7957SOL     OW24769   1.759   1.332   0.172  0.1032 -0.2836  0.4474
 7957SOL    HW124770   1.702   1.346   0.253  0.0506 -1.5011  0.6314
 7957SOL    HW224771   1.708   1.359   0.090 -0.2806 -0.1835  0.7163
 7958SOL     OW24772   3.159   5.187   4.317  0.0205 -0.6937  0.1782
 7958SOL    HW124773   3.195   5.102   4.279  0.6448 -0.2968 -0.1360
 7958SOL    HW224774   3.185   5.264   4.258 -1.9090 -0.4497 -0.4390
 7959SOL     OW24775   2.602   4.956   1.914 -0.0857  0.0926 -0.5770
 7959SOL    HW124776   2.675   4.925   1.975 -0.0110  1.1363 -0.1067
 7959SOL    HW224777   2.515   4.956   1.964  0.5226  4.8729  1.0842
 7960SOL     OW24778   6.095   0.177   1.795  0.1073  0.1033  0.7914
 7960SOL    HW124779   6.076   0.275   1.803  0.4989  0.0697  2.5825
 7960SOL    HW224780   6.019   0.125   1.832 -0.1181 -0.2846 -0.1947
 7961SOL     OW24781   0.026   1.603   1.822  0.1846  0.0988 -0.0487
 7961SOL    HW124782   0.007   1.537   1.894  1.0845 -0.6946 -0.5188
 7961SOL    HW224783   0.039   1.694   1.863 -0.3091 -0.1470  0.6770
 7962SOL     OW24784   2.084   6.745   0.029 -0.3406  0.0550 -0.6448
 7962SOL    HW124785   2.060   6.650   0.045  0.1044  0.2115  1.1000
 7962SOL    HW224786   2.012   6.804   0.066  0.4201  0.4246  0.2704
 7963SOL     OW24787   0.765   1.693   5.454 -0.5070  0.0713  0.4622
 7963SOL    HW124788   0.813   1.627   5.512 -0.1289  1.4824  1.8086
 7963SOL    HW224789   0.708   1.644   5.388  0.7387 -1.6036  0.5735
 7964SOL     OW24790   0.374   5.832   3.452 -0.5127  0.4701  0.4251
 7964SOL    HW124791   0.381   5.861   3.548 -0.5341 -1.1108  0.9408
 7964SOL    HW224792   0.292   5.870   3.411 -0.9234  0.5395  1.2855
 7965SOL     OW24793   3.469   2.495   0.012  0.0856 -0.5244  0.1067
 7965SOL    HW124794   3.459   2.589   0.043 -0.1165 -0.2691 -0.7074
 7965SOL    HW224795   3.391   2.470  -0.046 -0.0280 -1.3019  0.5831
 7966SOL     OW24796   0.676   3.933   5.642 -0.2198  0.3197 -0.1899
 7966SOL    HW124797   0.663   4.025   5.604 -0.2395  0.6521  0.5936
 7966SOL    HW224798   0.764   3.897   5.611 -1.2361 -0.3900 -2.4337
 7967SOL     OW24799   1.928   5.919   1.745  0.4076 -0.4095  0.5746
 7967SOL    HW124800   1.977   5.984   1.687 -0.9418 -0.0472 -0.1971
 7967SOL    HW224801   1.948   5.826   1.714  1.5037 -0.3383  1.0120
 7968SOL     OW24802   2.667   2.284   3.228 -0.3760  0.0029 -1.0977
 7968SOL    HW124803   2.726   2.286   3.309 -1.1845 -0.1808 -0.4845
 7968SOL    HW224804   2.720   2.309   3.147  0.2381  1.0772 -0.3894
 7969SOL     OW24805   5.830   6.565   2.451  0.6027  0.0106 -0.0592
 7969SOL    HW124806   5.910   6.557   2.509  0.3499  0.1954  0.3190
 7969SOL    HW224807   5.856   6.553   2.355  1.0519 -0.0879  0.0768
 7970SOL     OW24808   0.900   2.210   5.049  0.1582 -0.1037  0.7008
 7970SOL    HW124809   0.956   2.145   4.999  0.8487  1.3554 -0.5195
 7970SOL    HW224810   0.818   2.164   5.084  0.7587 -1.6621  0.1506
 7971SOL     OW24811   4.789   2.184   0.644  0.2034 -0.8911 -0.1692
 7971SOL    HW124812   4.841   2.205   0.561 -1.2629 -2.0897 -1.4731
 7971SOL    HW224813   4.851   2.179   0.722  1.4657  1.4922 -0.9266
 7972SOL     OW24814   0.372   4.592   0.672  0.6469 -0.5144 -0.1039
 7972SOL    HW124815   0.399   4.506   0.715  0.0836  0.8765  3.3052
 7972SOL    HW224816   0.274   4.605   0.682  0.7943  0.7526 -0.1650
 7973SOL     OW24817   5.500   3.829   3.174  0.5417 -0.0806  0.2007
 7973SOL    HW124818   5.514   3.817   3.272 -0.2696 -0.0120  0.3296
 7973SOL    HW224819   5.569   3.776   3.124  0.2873 -0.9983  0.8003
 7974SOL     OW24820   4.654   6.955   3.988  0.0124 -0.1822 -0.1289
 7974SOL    HW124821   4.627   6.871   4.035 -0.4571  0.0486  0.0253
 7974SOL    HW224822   4.585   7.026   4.005  1.3839  0.8670  1.4430
 7975SOL     OW24823   0.374   1.897   2.178  0.4159  0.5027 -0.2782
 7975SOL    HW124824   0.343   1.972   2.119  1.2185  1.7076  0.8035
 7975SOL    HW224825   0.458   1.923   2.224  0.0245 -0.5841  1.1048
 7976SOL     OW24826   1.341   1.072   1.254  0.1335  0.0106 -0.0263
 7976SOL    HW124827   1.335   1.164   1.293 -1.1873  0.1258 -0.4482
 7976SOL    HW224828   1.389   1.012   1.318 -0.9293  0.4787  1.2510
 7977SOL     OW24829   3.408   5.610   6.719  0.0439  0.1221 -0.1302
 7977SOL    HW124830   3.380   5.539   6.655  0.3189  1.5262 -1.8996
 7977SOL    HW224831   3.462   5.569   6.793 -0.2158 -1.5566 -0.8283
 7978SOL     OW24832   4.748   2.024   6.689 -0.1630 -0.0218  0.0290
 7978SOL    HW124833   4.780   1.995   6.599 -2.3048 -2.8934  0.0703
 7978SOL    HW224834   4.817   2.002   6.757  0.4566 -0.1054 -0.6094
 7979SOL     OW24835   3.456   6.582   6.491 -0.4091  0.7930  0.4960
 7979SOL    HW124836   3.479   6.610   6.397 -1.0287  1.5479  0.5607
 7979SOL    HW224837   3.494   6.648   6.555  1.4005 -0.5650  0.8989
 7980SOL     OW24838   4.528   5.849   4.927  0.1754 -0.0674  0.3474
 7980SOL    HW124839   4.455   5.918   4.922  1.5412  1.3582 -1.6164
 7980SOL    HW224840   4.533   5.801   4.839 -0.0039 -1.9335  1.3236
 7981SOL     OW24841   0.232   5.999   0.864  0.0169 -0.3069  0.2615
 7981SOL    HW124842   0.213   5.917   0.919  0.3644 -0.6059 -0.0666
 7981SOL    HW224843   0.330   6.007   0.848 -0.1273 -0.5342 -0.8003
 7982SOL     OW24844   0.443   1.971   6.702  0.7819  0.1633 -0.4451
 7982SOL    HW124845   0.480   1.878   6.709  0.7715  0.2784  1.9686
 7982SOL    HW224846   0.514   2.033   6.668  0.4242 -0.8666 -3.3068
 7983SOL     OW24847   5.486   1.208   3.157 -0.1003 -0.0041  0.5348
 7983SOL    HW124848   5.535   1.241   3.237  1.1355 -0.4179 -0.0180
 7983SOL    HW224849   5.529   1.123   3.124 -0.8491 -0.0778 -0.3043
 7984SOL     OW24850   1.204   1.907   3.305  0.1664  0.6355 -0.0161
 7984SOL    HW124851   1.104   1.917   3.310  0.2091  0.6694  1.0051
 7984SOL    HW224852   1.226   1.816   3.271 -0.2165  0.5082  0.0668
 7985SOL     OW24853   2.295   6.681   2.970  0.3826  0.0274  0.6025
 7985SOL    HW124854   2.359   6.743   2.924  0.9491 -0.4746  0.6984
 7985SOL    HW224855   2.262   6.613   2.905  0.8027 -0.3826  0.8112
 7986SOL     OW24856   4.028   1.314   5.093 -0.0001 -0.3309 -0.5391
 7986SOL    HW124857   4.025   1.223   5.134  0.7433  0.2552  0.8389
 7986SOL    HW224858   4.000   1.307   4.997 -0.3369 -1.9431 -0.3552
 7987SOL     OW24859   0.762   2.666   6.455 -0.0603 -0.5660 -0.1999
 7987SOL    HW124860   0.839   2.723   6.484  0.7773 -1.5320 -0.4601
 7987SOL    HW224861   0.719   2.624   6.535 -1.9015  1.8610  0.1979
 7988SOL     OW24862   1.022   3.733   4.999 -0.2729  0.3357 -0.0139
 7988SOL    HW124863   1.079   3.800   4.952 -0.8787  1.2174  0.4843
 7988SOL    HW224864   1.003   3.764   5.092 -0.4717 -0.5847  0.2704
 7989SOL     OW24865   3.336   3.051   4.222 -0.1691  0.2861 -0.0440
 7989SOL    HW124866   3.271   3.104   4.277 -0.7003  0.0657 -0.4434
 7989SOL    HW224867   3.344   3.094   4.132  0.6605  0.6210  0.1820
 7990SOL     OW24868   0.517   2.359   2.720 -0.7277  0.1018  0.2343
 7990SOL    HW124869   0.593   2.311   2.675 -0.8937 -0.6171  0.7038
 7990SOL    HW224870   0.512   2.330   2.816 -0.6951  1.2347  0.5946
 7991SOL     OW24871   1.106   6.081   6.338 -0.2326 -0.0863 -0.0677
 7991SOL    HW124872   1.175   6.078   6.410  0.0223  1.8521 -0.1612
 7991SOL    HW224873   1.015   6.086   6.379 -0.1990 -0.6444  0.0829
 7992SOL     OW24874   3.007   1.096   0.926  0.3036  0.3721 -0.1260
 7992SOL    HW124875   3.064   1.151   0.865  0.8054 -0.1459 -0.1316
 7992SOL    HW224876   2.911   1.105   0.899  0.6017 -0.5584 -1.5680
 7993SOL     OW24877   6.978   5.446   5.688 -0.1419  0.3061  0.1245
 7993SOL    HW124878   6.903   5.508   5.665 -0.4152  0.5505  1.5478
 7993SOL    HW224879   7.045   5.494   5.745 -1.4714 -1.1908  3.1985
 7994SOL     OW24880   5.901   6.819   3.066 -0.0948 -0.3040  0.3037
 7994SOL    HW124881   5.969   6.750   3.038 -0.6566 -0.6652 -0.1789
 7994SOL    HW224882   5.828   6.774   3.117 -0.7550 -0.1626 -0.5035
 7995SOL     OW24883   3.553   5.476   3.531 -0.4887 -0.0919  0.2830
 7995SOL    HW124884   3.613   5.424   3.470  0.2639 -1.9929  2.4780
 7995SOL    HW224885   3.577   5.573   3.527  0.2712 -0.3262 -1.5845
 7996SOL     OW24886   2.539   6.904   3.645 -0.7129  0.3898  0.0315
 7996SOL    HW124887   2.553   6.897   3.743 -1.9892 -1.7931  0.1217
 7996SOL    HW224888   2.541   7.000   3.618 -3.0717  1.3179  2.6523
 7997SOL     OW24889   6.615   2.533   2.484  0.0292 -0.2965  0.1439
 7997SOL    HW124890   6.540   2.499   2.540 -0.4646 -0.2051 -0.4534
 7997SOL    HW224891   6.587   2.616   2.437  0.3722 -0.4729 -0.3829
 7998SOL     OW24892   3.365   5.780   2.412  0.3087  0.2661 -0.3218
 7998SOL    HW124893   3.321   5.693   2.392  1.5381 -0.5026  0.2141
 7998SOL    HW224894   3.396   5.822   2.327  0.0802 -0.0091 -0.5462
 7999SOL     OW24895   0.091   2.985   5.829  0.4299  0.3418  0.0742
 7999SOL    HW124896   0.066   3.045   5.754 -0.9626  1.4496  1.3578
 7999SOL    HW224897   0.170   3.023   5.878 -0.2943  1.0490  0.7318
 8000SOL     OW24898   5.523   0.307   0.709 -0.3037 -0.1156 -0.0284
 8000SOL    HW124899   5.612   0.346   0.732 -0.6409  0.7619 -0.1593
 8000SOL    HW224900   5.452   0.349   0.766 -0.8021  0.1822 -0.8448
 8001SOL     OW24901   2.485   5.348   0.549  0.0922  0.1456 -0.9563
 8001SOL    HW124902   2.434   5.405   0.485  0.3102  0.8108 -0.5490
 8001SOL    HW224903   2.445   5.356   0.640  0.5220  0.1595 -0.7668
 8002SOL     OW24904   1.435   1.994   4.209  0.2857  0.2319 -0.3310
 8002SOL    HW124905   1.417   1.941   4.292 -1.9500  1.1174 -0.1741
 8002SOL    HW224906   1.455   1.931   4.133  2.2331 -0.5878  0.7856
 8003SOL     OW24907   2.028   4.469   2.215 -0.3715 -0.0651 -0.7355
 8003SOL    HW124908   2.063   4.484   2.123 -0.1131 -3.6165 -1.3732
 8003SOL    HW224909   2.095   4.502   2.282  0.3976  0.6596 -1.8304
 8004SOL     OW24910   2.331   5.238   2.215  0.4304 -0.4239 -0.4044
 8004SOL    HW124911   2.272   5.226   2.294 -1.3340  0.9565 -1.4359
 8004SOL    HW224912   2.312   5.327   2.172  1.7397 -0.8721 -2.0400
 8005SOL     OW24913   4.195   1.771   3.548 -0.8024  0.8232 -0.0202
 8005SOL    HW124914   4.194   1.871   3.558  0.6224  1.2653 -3.0939
 8005SOL    HW224915   4.101   1.736   3.547 -1.3234  2.0984  1.0138
 8006SOL     OW24916   3.251   5.891   0.439 -0.1245  0.3672 -0.4066
 8006SOL    HW124917   3.182   5.840   0.387 -0.0758  0.7149 -0.8151
 8006SOL    HW224918   3.213   5.916   0.528 -0.3911  0.2154 -0.4764
 8007SOL     OW24919   0.635   0.762   5.091 -0.6581 -0.1339 -0.2305
 8007SOL    HW124920   0.548   0.715   5.093 -0.6986 -0.1003 -0.8219
 8007SOL    HW224921   0.709   0.697   5.109 -0.7629 -0.2873 -0.3500
 8008SOL     OW24922   5.068   5.732   5.672 -0.1171  0.0098  0.7646
 8008SOL    HW124923   5.143   5.787   5.635 -0.3544  0.2197  0.5966
 8008SOL    HW224924   5.102   5.641   5.697 -0.3747 -0.8992 -1.9323
 8009SOL     OW24925   4.924   0.381   4.168 -0.4407  0.4508 -0.3697
 8009SOL    HW124926   4.839   0.339   4.137  0.0465  0.0382 -1.1560
 8009SOL    HW224927   4.904   0.471   4.208 -1.5409 -0.6302  1.6875
 8010SOL     OW24928   1.916   2.537   1.471  0.3318  0.3820 -0.1818
 8010SOL    HW124929   1.851   2.462   1.465  0.8458 -0.0820 -0.0561
 8010SOL    HW224930   2.006   2.501   1.498  0.3889  1.1443  0.6624
 8011SOL     OW24931   2.864   1.910   1.946  0.0074  0.1082 -0.3779
 8011SOL    HW124932   2.935   1.939   2.011 -0.1377 -0.0823 -0.1282
 8011SOL    HW224933   2.826   1.823   1.977  2.0080 -1.5702 -2.2923
 8012SOL     OW24934   2.024   6.363   2.293  0.8210  0.0536 -0.1803
 8012SOL    HW124935   2.002   6.411   2.208  2.4295  1.3729  0.1019
 8012SOL    HW224936   1.959   6.389   2.364  0.6697  0.5066 -0.4823
 8013SOL     OW24937   1.394   3.944   2.419 -0.5422 -0.1381 -0.1448
 8013SOL    HW124938   1.393   4.036   2.456  3.1806 -1.1230  3.0047
 8013SOL    HW224939   1.488   3.917   2.397 -1.6349 -2.8168 -2.1585
 8014SOL     OW24940   0.142   0.001   6.102  0.1719 -0.4914 -0.1986
 8014SOL    HW124941   0.113  -0.004   6.006  2.9278  1.1203 -1.2177
 8014SOL    HW224942   0.142   0.096   6.132 -1.0962 -1.0171  1.6300
 8015SOL     OW24943   2.523   6.480   0.146 -0.5996 -0.4954 -0.8468
 8015SOL    HW124944   2.554   6.567   0.107 -1.3356 -0.6560 -1.8391
 8015SOL    HW224945   2.597   6.413   0.140 -0.4194 -0.2706 -1.1747
 8016SOL     OW24946   5.792   6.616   0.573  0.5345  0.1622  0.2031
 8016SOL    HW124947   5.804   6.609   0.473 -1.0978  1.4147 -0.1268
 8016SOL    HW224948   5.720   6.554   0.603  0.4649  0.3624  0.4597
 8017SOL     OW24949   6.496   0.072   0.413  0.1469  0.3162 -0.0790
 8017SOL    HW124950   6.563   0.141   0.386  0.6820 -0.1097  0.1626
 8017SOL    HW224951   6.526   0.026   0.496 -0.7450  0.5397  0.3840
 8018SOL     OW24952   4.145   0.308   0.814  0.2408  0.1467 -0.1902
 8018SOL    HW124953   4.224   0.251   0.794 -0.3459 -1.2247  1.1934
 8018SOL    HW224954   4.174   0.393   0.858  0.8979 -1.3726  2.5547
 8019SOL     OW24955   0.894   4.400   6.666  0.0970 -0.1522  0.4097
 8019SOL    HW124956   0.910   4.495   6.636 -0.3006 -0.1213  0.2848
 8019SOL    HW224957   0.832   4.356   6.601 -0.8812 -0.0519  1.2557
 8020SOL     OW24958   6.753   6.204   6.821  0.2989  0.5937  0.3900
 8020SOL    HW124959   6.775   6.148   6.901 -0.4972  0.6760  0.6727
 8020SOL    HW224960   6.836   6.252   6.791  0.6802  0.3123  0.9627
 8021SOL     OW24961   1.571   3.057   0.938 -0.0172 -0.0413 -0.0035
 8021SOL    HW124962   1.638   3.097   0.876  0.6875 -0.8683  0.2110
 8021SOL    HW224963   1.591   3.085   1.032 -0.4005  0.2739 -0.0096
 8022SOL     OW24964   4.638   6.503   4.057 -0.1819 -0.1767 -0.4115
 8022SOL    HW124965   4.716   6.504   3.994 -0.5242 -0.0502 -0.8343
 8022SOL    HW224966   4.647   6.425   4.119  0.6920  0.2815  0.0724
 8023SOL     OW24967   4.820   4.521   2.093 -0.1791 -0.1533 -0.1510
 8023SOL    HW124968   4.758   4.495   2.167  0.4859 -0.2854  0.3687
 8023SOL    HW224969   4.772   4.514   2.006 -0.3122 -2.2772  0.0399
 8024SOL     OW24970   0.909   5.391   0.717 -0.1059  0.0594 -0.0993
 8024SOL    HW124971   0.902   5.308   0.662 -1.8441 -0.2886  0.5893
 8024SOL    HW224972   0.834   5.394   0.783  0.6478  1.5671  0.7406
 8025SOL     OW24973   2.167   4.855   0.192  0.1981 -0.2889 -0.0849
 8025SOL    HW124974   2.210   4.851   0.282 -0.3236  1.1398  0.2585
 8025SOL    HW224975   2.161   4.763   0.154  0.0433 -0.9900  1.5305
 8026SOL     OW24976   0.848   2.702   0.911  0.0059 -0.5287 -0.2638
 8026SOL    HW124977   0.821   2.763   0.986  2.7807  1.0921 -0.4443
 8026SOL    HW224978   0.866   2.757   0.829  0.6483 -1.8559 -1.0418
 8027SOL     OW24979   3.682   1.106   6.430 -0.0820 -0.2167  0.4142
 8027SOL    HW124980   3.668   1.204   6.447  0.2698  0.0068 -0.5352
 8027SOL    HW224981   3.715   1.092   6.337  0.4836 -1.1998  0.7412
 8028SOL     OW24982   3.061   5.521   4.645 -0.4680 -0.2991  0.3030
 8028SOL    HW124983   3.116   5.570   4.578  1.5033 -1.8075  0.7565
 8028SOL    HW224984   3.029   5.435   4.607 -1.2529 -0.1377  0.5672
 8029SOL     OW24985   5.922   2.347   6.492 -0.2053  0.1387  0.3500
 8029SOL    HW124986   5.998   2.409   6.474  0.7655 -0.3435  2.5183
 8029SOL    HW224987   5.942   2.258   6.452  0.1068  0.1741  0.4293
 8030SOL     OW24988   4.472   2.717   6.402 -0.1867 -0.0616  0.4409
 8030SOL    HW124989   4.455   2.718   6.500  1.4447 -2.3941  0.8278
 8030SOL    HW224990   4.569   2.728   6.384 -0.3879 -0.2246 -0.8733
 8031SOL     OW24991   4.199   5.664   4.676  0.2991  0.3635 -0.3515
 8031SOL    HW124992   4.243   5.597   4.735 -0.0277  0.5910  0.1531
 8031SOL    HW224993   4.129   5.713   4.727 -0.3075  0.2445 -1.0452
 8032SOL     OW24994   5.533   5.285   6.740  0.0145  0.2019  0.2633
 8032SOL    HW124995   5.545   5.348   6.817 -0.8535  1.4162 -0.5555
 8032SOL    HW224996   5.560   5.193   6.768  1.5010  0.9480  1.4340
 8033SOL     OW24997   3.757   3.159   1.428  0.7066  0.1633  0.0941
 8033SOL    HW124998   3.679   3.114   1.473  0.7132  1.7658  1.8484
 8033SOL    HW224999   3.841   3.136   1.476  0.9885  0.3652 -0.2979
 8034SOL     OW25000   0.011   1.494   5.964  0.1477 -0.0722 -0.1121
 8034SOL    HW125001  -0.021   1.411   5.918 -0.2682 -0.4974  0.9345
 8034SOL    HW225002  -0.058   1.565   5.957  0.4305  0.1443 -0.8522
 8035SOL     OW25003   4.416   6.409   5.678 -0.2894  0.5231  0.4536
 8035SOL    HW125004   4.499   6.443   5.635 -0.5317 -2.4874 -2.9089
 8035SOL    HW225005   4.340   6.471   5.657  0.1210  0.4734 -1.3632
 8036SOL     OW25006   5.228   5.424   2.806 -0.0052  0.2414 -0.3810
 8036SOL    HW125007   5.172   5.498   2.770  0.6284  1.4488  1.0043
 8036SOL    HW225008   5.180   5.378   2.881 -0.7284 -1.3419 -1.7238
 8037SOL     OW25009   1.355   3.263   2.620  0.2059 -0.1600 -0.0265
 8037SOL    HW125010   1.316   3.171   2.618 -0.3588  0.0845 -0.3551
 8037SOL    HW225011   1.289   3.329   2.584  0.4135  0.4507  0.6839
 8038SOL     OW25012   4.399   0.804   2.167 -0.4842  0.2925  0.4983
 8038SOL    HW125013   4.300   0.820   2.159 -0.1519  2.2045 -0.1828
 8038SOL    HW225014   4.430   0.748   2.091 -1.1644 -1.1388  1.2263
 8039SOL     OW25015   1.567   5.571   4.336 -0.3454  0.6105  0.2284
 8039SOL    HW125016   1.481   5.522   4.353  0.4420 -0.1233  2.5472
 8039SOL    HW225017   1.568   5.605   4.242 -2.4126 -0.8490 -0.4046
 8040SOL     OW25018   1.259   4.794   6.661  0.5734 -0.6794 -0.0287
 8040SOL    HW125019   1.273   4.804   6.563  1.9257 -0.2646  0.1852
 8040SOL    HW225020   1.293   4.704   6.690 -0.2911 -1.0147  0.0021
 8041SOL     OW25021   1.624   2.259   2.345 -0.6324 -0.4687 -0.2089
 8041SOL    HW125022   1.647   2.192   2.416 -0.2145 -0.4210 -0.2954
 8041SOL    HW225023   1.651   2.350   2.375  0.7134 -0.6011 -0.9268
 8042SOL     OW25024   3.765   3.458   4.391 -0.2331 -1.0921 -0.4408
 8042SOL    HW125025   3.758   3.386   4.322  0.1533 -2.7482  1.1653
 8042SOL    HW225026   3.719   3.428   4.475 -0.6545  0.8413  0.0611
 8043SOL     OW25027   4.168   5.488   2.626  0.5475  0.0854 -0.0561
 8043SOL    HW125028   4.106   5.491   2.549 -1.2075 -1.2991  1.2365
 8043SOL    HW225029   4.116   5.492   2.712  2.4630  3.1458  1.1684
 8044SOL     OW25030   3.841   4.162   1.026 -0.1153  0.0952 -0.4924
 8044SOL    HW125031   3.809   4.121   1.112  0.4926 -2.8898 -1.5679
 8044SOL    HW225032   3.891   4.093   0.974  0.4937  2.1560 -2.7725
 8045SOL     OW25033   5.739   6.214   1.328  0.2758 -0.1624  0.0977
 8045SOL    HW125034   5.698   6.305   1.333 -0.7045 -0.5709 -0.3102
 8045SOL    HW225035   5.669   6.145   1.343  1.1639 -0.8452  1.2400
 8046SOL     OW25036   5.225   3.740   2.877 -0.4415 -0.1893  0.2527
 8046SOL    HW125037   5.256   3.816   2.932 -0.8839  0.0094  0.2318
 8046SOL    HW225038   5.304   3.694   2.836 -0.1009 -0.4093  1.1319
 8047SOL     OW25039   3.202   5.596   4.092  0.3609 -0.2646  0.6439
 8047SOL    HW125040   3.225   5.679   4.041 -2.0965 -1.0715 -2.0527
 8047SOL    HW225041   3.129   5.617   4.157  0.4381 -0.1237  0.6861
 8048SOL     OW25042   6.420   1.943   6.854  0.2509 -0.0774 -0.4266
 8048SOL    HW125043   6.370   2.029   6.842 -1.9008 -1.1309  0.4800
 8048SOL    HW225044   6.377   1.872   6.799  1.4170 -0.8174 -0.4117
 8049SOL     OW25045   2.385   1.415   2.985 -0.4453 -0.7687  0.5614
 8049SOL    HW125046   2.414   1.497   2.937 -0.6129  0.0356  1.7936
 8049SOL    HW225047   2.445   1.338   2.959  0.8485  0.1491  0.7418
 8050SOL     OW25048   0.842   4.872   0.080  0.8902 -0.0898 -0.2246
 8050SOL    HW125049   0.910   4.890   0.009 -0.7202  0.6445 -1.6532
 8050SOL    HW225050   0.760   4.833   0.038 -0.2368  0.6896  1.1718
 8051SOL     OW25051   4.429   4.673   2.610 -0.4667  0.4453  0.2211
 8051SOL    HW125052   4.427   4.582   2.652 -1.3632  0.5182  0.3533
 8051SOL    HW225053   4.370   4.674   2.529  0.4422  0.5970 -0.4524
 8052SOL     OW25054   4.948   3.031   2.973 -0.7395 -0.2659  0.2036
 8052SOL    HW125055   4.907   3.093   2.906 -1.2128 -0.5640  0.2073
 8052SOL    HW225056   4.896   2.945   2.973 -0.5841 -0.3573  0.7731
 8053SOL     OW25057   3.863   3.963   3.605  0.3336 -0.1681  0.0767
 8053SOL    HW125058   3.775   4.011   3.609  0.6981  0.4276  1.7232
 8053SOL    HW225059   3.936   4.024   3.638  1.2394 -0.9424 -0.4317
 8054SOL     OW25060   5.431   1.706   3.999  0.4308 -0.4437 -0.2224
 8054SOL    HW125061   5.483   1.744   4.076 -2.2557  0.1394  1.4584
 8054SOL    HW225062   5.443   1.763   3.919  3.1885 -0.9687 -0.2838
 8055SOL     OW25063   6.997   2.428   6.089 -0.1591  0.1643  0.4092
 8055SOL    HW125064   6.969   2.352   6.148 -0.5942  0.4812  0.6189
 8055SOL    HW225065   7.087   2.461   6.118  0.6691 -1.1495 -0.5458
 8056SOL     OW25066   3.157   0.654   4.738 -0.0201  0.9315  0.1411
 8056SOL    HW125067   3.086   0.634   4.671  0.6762  0.4592 -0.4742
 8056SOL    HW225068   3.213   0.573   4.754 -0.5662  0.8361  1.7990
 8057SOL     OW25069   1.884   4.066   1.236  0.0832 -0.3168  0.3372
 8057SOL    HW125070   1.897   4.165   1.228  2.1035 -0.2476  3.0984
 8057SOL    HW225071   1.905   4.022   1.149 -0.8210  1.6458 -0.9236
 8058SOL     OW25072   6.290   0.048   2.501 -0.2138  0.4922  0.3236
 8058SOL    HW125073   6.323   0.124   2.445  0.0615 -0.4499 -0.8266
 8058SOL    HW225074   6.269  -0.030   2.443 -0.5934 -0.2976  1.4743
 8059SOL     OW25075   6.819   1.595   5.563 -0.3250 -1.1281  0.1051
 8059SOL    HW125076   6.745   1.544   5.606 -1.4557  0.5557  0.2507
 8059SOL    HW225077   6.879   1.632   5.634 -1.3752  0.4360  0.2397
 8060SOL     OW25078   6.392   4.350   3.264 -0.1131 -0.2907 -0.2318
 8060SOL    HW125079   6.298   4.380   3.247 -0.1292  0.1476  0.5878
 8060SOL    HW225080   6.399   4.252   3.250 -0.2630 -0.0686 -2.1104
 8061SOL     OW25081   0.195   0.448   2.260 -0.0649  0.2112  0.3392
 8061SOL    HW125082   0.176   0.420   2.354 -0.0874 -3.6858 -0.6364
 8061SOL    HW225083   0.278   0.403   2.228 -0.9771  0.0201 -1.9884
 8062SOL     OW25084   2.069   4.421   3.010  0.2378  0.7363 -0.4992
 8062SOL    HW125085   1.986   4.399   3.061 -0.2266 -0.1891 -1.6190
 8062SOL    HW225086   2.054   4.406   2.912  1.8202  0.1994 -0.6948
 8063SOL     OW25087   1.236   3.981   0.672  0.0585 -0.3640  0.0437
 8063SOL    HW125088   1.194   3.990   0.581 -1.4893 -0.4599  0.7233
 8063SOL    HW225089   1.251   3.885   0.693 -1.2536 -0.4658  0.5980
 8064SOL     OW25090   6.382   5.918   1.025 -0.3142  0.0237 -0.4649
 8064SOL    HW125091   6.433   5.928   1.111 -2.3408 -2.2738  1.1590
 8064SOL    HW225092   6.296   5.969   1.031 -0.1003  0.5287 -1.5010
 8065SOL     OW25093   2.915   4.944   4.245 -0.8496 -0.1244  0.3263
 8065SOL    HW125094   2.840   5.008   4.226 -0.6922 -0.3578 -1.1881
 8065SOL    HW225095   2.902   4.904   4.336 -1.7236  0.9798  0.7138
 8066SOL     OW25096   0.274   1.369   4.571 -0.2914  0.1587  0.2185
 8066SOL    HW125097   0.211   1.338   4.499  0.2127 -1.4032  0.4149
 8066SOL    HW225098   0.368   1.350   4.543 -0.0787 -0.2816  1.2035
 8067SOL     OW25099   4.045   3.184   2.362 -0.6416  0.3216 -0.4211
 8067SOL    HW125100   4.083   3.243   2.291 -0.1961 -0.4344 -0.8161
 8067SOL    HW225101   4.024   3.239   2.442 -0.4212  1.0551 -0.8529
 8068SOL     OW25102   6.492   4.163   0.644 -0.4575 -0.2798  0.4813
 8068SOL    HW125103   6.587   4.187   0.625  0.0642 -1.4807  1.4221
 8068SOL    HW225104   6.454   4.115   0.565  0.2112 -1.1607  0.6839
 8069SOL     OW25105   0.790   4.890   0.507 -0.2906  0.1291  0.2614
 8069SOL    HW125106   0.703   4.896   0.557 -0.0173  0.4599  0.7040
 8069SOL    HW225107   0.811   4.794   0.489  0.1607 -0.1029  1.8034
 8070SOL     OW25108   2.814   0.874   0.760 -0.4667 -0.2196  0.1680
 8070SOL    HW125109   2.865   0.881   0.846  1.2302  0.6622 -0.8451
 8070SOL    HW225110   2.867   0.917   0.687 -1.8494 -0.9691 -1.3376
 8071SOL     OW25111   3.654   6.317   3.113  0.1528  0.2362  0.2508
 8071SOL    HW125112   3.587   6.367   3.169 -0.0664  0.9588 -0.6370
 8071SOL    HW225113   3.746   6.345   3.139  0.1081 -0.3967  1.1389
 8072SOL     OW25114   3.415   1.881   1.675  0.3768  0.4399 -0.0374
 8072SOL    HW125115   3.339   1.872   1.739  1.0092  0.1111  0.6915
 8072SOL    HW225116   3.441   1.790   1.641 -1.1956  0.7526 -2.2941
 8073SOL     OW25117   5.159   6.753   6.505 -0.1909 -0.1450 -0.0962
 8073SOL    HW125118   5.099   6.751   6.585 -0.6478  0.0500 -0.4264
 8073SOL    HW225119   5.169   6.660   6.469  0.9760 -0.4191  0.8758
 8074SOL     OW25120   1.695   1.736   0.597  0.1841 -0.3561  0.0816
 8074SOL    HW125121   1.671   1.723   0.501  1.3642  0.2956 -0.3243
 8074SOL    HW225122   1.743   1.654   0.630  1.6152  0.2196 -0.5053
 8075SOL     OW25123   6.888   3.218   1.395 -0.0082  0.4668  0.2462
 8075SOL    HW125124   6.839   3.305   1.406  0.3202  0.6522  0.2764
 8075SOL    HW225125   6.962   3.230   1.329  1.7669  0.9826  2.1834
 8076SOL     OW25126   4.942   2.615   5.112  0.6277  0.1591 -0.4991
 8076SOL    HW125127   4.938   2.681   5.037  0.7456  0.2250 -0.4468
 8076SOL    HW225128   4.885   2.535   5.089 -0.4469  0.7822 -0.0634
 8077SOL     OW25129   2.461   5.495   1.136  0.7232  0.8355 -0.0055
 8077SOL    HW125130   2.433   5.432   1.208  0.2501  1.5489  0.4501
 8077SOL    HW225131   2.476   5.444   1.051  4.7888 -0.5726  1.3580
 8078SOL     OW25132   4.573   2.126   2.044 -0.1014 -0.2151  0.3709
 8078SOL    HW125133   4.602   2.050   2.101  0.4309 -0.1318  0.2170
 8078SOL    HW225134   4.603   2.212   2.085 -1.2898 -0.0362  0.8959
 8079SOL     OW25135   4.480   0.253   4.926  0.3811  0.3047 -0.5494
 8079SOL    HW125136   4.541   0.333   4.920  1.4173 -0.3518  0.6243
 8079SOL    HW225137   4.444   0.246   5.019 -0.7863  0.1586 -1.0029
 8080SOL     OW25138   6.327   5.038   6.731 -0.4551  0.1234 -0.2681
 8080SOL    HW125139   6.255   4.996   6.787  0.0420  2.0624  2.0042
 8080SOL    HW225140   6.286   5.072   6.646 -1.9955  0.1023  0.4204
 8081SOL     OW25141   5.904   0.763   3.607 -0.2936 -0.5337  0.0589
 8081SOL    HW125142   5.846   0.785   3.528  0.4928  2.2694  0.1524
 8081SOL    HW225143   5.863   0.688   3.659 -1.8612 -1.1104 -1.9040
 8082SOL     OW25144   6.869   0.332   2.465  0.2696 -0.3740 -0.4808
 8082SOL    HW125145   6.799   0.272   2.424  0.9988 -0.3415 -1.8205
 8082SOL    HW225146   6.860   0.424   2.427 -1.9943  0.9568  2.8647
 8083SOL     OW25147   5.034   2.096   3.306 -1.1850  0.3898  0.1010
 8083SOL    HW125148   5.132   2.107   3.325 -1.5240  0.2547  2.0942
 8083SOL    HW225149   5.001   2.177   3.258 -0.0828  0.3932 -0.6910
 8084SOL     OW25150   6.210   0.257   7.006 -0.2573 -0.6543  0.1288
 8084SOL    HW125151   6.258   0.260   7.094 -0.0364  1.0780 -0.0143
 8084SOL    HW225152   6.272   0.222   6.936  0.5113  0.6103  0.1445
 8085SOL     OW25153   5.798   6.630   3.339 -0.2120 -0.5021 -0.3703
 8085SOL    HW125154   5.723   6.639   3.273  0.1197 -0.4139 -0.7403
 8085SOL    HW225155   5.790   6.702   3.408  0.8779  1.0096 -1.7670
 8086SOL     OW25156   5.966   0.153   2.989  0.3285 -0.0026 -0.2521
 8086SOL    HW125157   5.939   0.249   2.999 -1.0641 -0.1206 -2.2777
 8086SOL    HW225158   6.012   0.122   3.073 -1.4832  1.6654  1.4556
 8087SOL     OW25159   1.527   0.280   1.803  0.1877  0.1456 -0.1323
 8087SOL    HW125160   1.481   0.364   1.773  2.3870  0.4669 -3.1206
 8087SOL    HW225161   1.554   0.289   1.898 -3.3746  0.9879  0.9439
 8088SOL     OW25162   4.668   1.824   1.366  0.5338  0.7315 -0.4173
 8088SOL    HW125163   4.740   1.817   1.297  0.4390  3.0854 -0.8405
 8088SOL    HW225164   4.579   1.827   1.322  0.0775 -2.1165  0.1069
 8089SOL     OW25165   0.210   3.452   1.292 -0.1629  0.2307  0.2643
 8089SOL    HW125166   0.237   3.541   1.254 -0.7944 -0.3146 -1.5248
 8089SOL    HW225167   0.137   3.412   1.237  2.8122 -3.2684 -1.5783
 8090SOL     OW25168   4.175   4.005   5.390  0.4625  0.4513  0.4843
 8090SOL    HW125169   4.163   4.056   5.476 -0.2371  0.7783  0.1945
 8090SOL    HW225170   4.104   4.032   5.325 -0.5135 -1.5679  0.6363
 8091SOL     OW25171   1.851   2.833   6.899  0.4705  0.1587 -0.1326
 8091SOL    HW125172   1.939   2.847   6.945 -0.6152  1.6463  1.6506
 8091SOL    HW225173   1.847   2.891   6.817  0.5016  1.4941  0.7769
 8092SOL     OW25174   2.063   3.554   4.556  0.1899 -0.3661 -0.1265
 8092SOL    HW125175   1.966   3.547   4.577  0.3151 -1.8951  0.0712
 8092SOL    HW225176   2.077   3.617   4.479 -0.8621  0.5067  0.3883
 8093SOL     OW25177   3.635   4.862   6.951  0.0712 -0.0277 -0.6179
 8093SOL    HW125178   3.569   4.880   7.024 -0.8337 -1.9997 -0.9082
 8093SOL    HW225179   3.704   4.797   6.983  0.1711 -0.2358 -1.2354
 8094SOL     OW25180   0.703   3.974   3.218 -0.1147  0.2784  0.6232
 8094SOL    HW125181   0.783   4.033   3.204 -1.0029  1.4360  0.3038
 8094SOL    HW225182   0.620   4.021   3.188 -0.8074 -1.3586 -0.1813
 8095SOL     OW25183   4.430   4.964   2.622 -0.2444 -0.1032  0.1536
 8095SOL    HW125184   4.512   4.996   2.576 -0.9332 -0.0851 -1.1065
 8095SOL    HW225185   4.415   4.867   2.601 -0.9068  0.0673 -0.1916
 8096SOL     OW25186   0.764   3.980   2.332  0.2086 -0.3208 -0.5932
 8096SOL    HW125187   0.785   4.019   2.421 -0.1814 -1.6539  0.1028
 8096SOL    HW225188   0.778   4.050   2.261  0.5305  0.7498  0.4906
 8097SOL     OW25189   5.705   6.982   2.039  0.2104 -0.1628  0.4451
 8097SOL    HW125190   5.746   6.957   1.952  3.4509 -1.8804  2.2475
 8097SOL    HW225191   5.696   7.082   2.045  2.6251  0.2025 -0.8038
 8098SOL     OW25192   3.126   5.417   3.483  0.7414  0.5286 -0.0269
 8098SOL    HW125193   3.205   5.431   3.423  0.5724  2.3919  0.1170
 8098SOL    HW225194   3.125   5.489   3.553 -0.2862 -0.3225  0.8624
 8099SOL     OW25195   4.893   6.407   4.212  0.0838 -0.1476 -0.2477
 8099SOL    HW125196   4.929   6.322   4.174  0.4015 -1.2981  2.4001
 8099SOL    HW225197   4.882   6.397   4.311  0.8965  3.1609  0.2859
 8100SOL     OW25198   6.840   1.607   0.165  0.7116 -0.1744  0.2510
 8100SOL    HW125199   6.872   1.553   0.088 -0.0550 -2.4638  1.4629
 8100SOL    HW225200   6.753   1.651   0.142  1.8043  1.3882 -1.0676
 8101SOL     OW25201   2.621   0.419   3.373  0.6531  0.5924  1.0425
 8101SOL    HW125202   2.543   0.383   3.423  0.0822 -0.7691 -0.7493
 8101SOL    HW225203   2.700   0.426   3.434 -0.1969 -0.3445  2.2825
 8102SOL     OW25204   1.583   4.584   4.943 -0.1588  0.6999 -0.2231
 8102SOL    HW125205   1.665   4.632   4.911 -0.2358  1.3356  0.4979
 8102SOL    HW225206   1.605   4.534   5.027 -0.6859  1.5143  0.4167
 8103SOL     OW25207   3.847   1.356   6.306  0.0220  0.2357 -0.4303
 8103SOL    HW125208   3.853   1.315   6.397 -0.7059 -0.2753 -0.6011
 8103SOL    HW225209   3.914   1.312   6.246 -0.2428 -0.1856 -0.4197
 8104SOL     OW25210   1.889   0.783   5.215  0.6489  0.0141 -0.4986
 8104SOL    HW125211   1.946   0.796   5.297 -0.3194 -2.0063  0.5666
 8104SOL    HW225212   1.873   0.685   5.201 -1.3818  0.4576 -1.5930
 8105SOL     OW25213   2.171   2.964   3.926 -0.1145  0.2018  0.0461
 8105SOL    HW125214   2.229   2.883   3.918  0.0475  0.3742 -0.6051
 8105SOL    HW225215   2.075   2.937   3.919 -0.2394 -0.2834  2.6516
 8106SOL     OW25216   3.925   5.245   3.850  0.7725  0.0191  0.0030
 8106SOL    HW125217   3.883   5.220   3.938 -1.1581 -0.5938 -1.0439
 8106SOL    HW225218   3.877   5.323   3.811  1.4173  0.0947 -0.6496
 8107SOL     OW25219   1.888   0.076   5.632  0.3346  0.3209 -0.3499
 8107SOL    HW125220   1.984   0.099   5.615  0.8252  0.1865  1.9323
 8107SOL    HW225221   1.842   0.156   5.671 -0.2667  0.1141 -0.6285
 8108SOL     OW25222   5.148   2.670   5.537 -0.6154  0.5417 -0.3238
 8108SOL    HW125223   5.228   2.666   5.477 -0.8043 -1.8310 -0.5130
 8108SOL    HW225224   5.075   2.722   5.491  0.0047  0.6702 -1.1852
 8109SOL     OW25225   5.971   4.515   2.290 -0.4012 -0.3587  0.2689
 8109SOL    HW125226   5.907   4.562   2.350  2.0553  0.9437  2.0467
 8109SOL    HW225227   6.021   4.582   2.235  0.4213 -1.2100 -0.0521
 8110SOL     OW25228   3.794   5.799   1.796 -0.1925 -0.1879  0.4699
 8110SOL    HW125229   3.709   5.796   1.743  0.1920 -0.6330 -0.1246
 8110SOL    HW225230   3.823   5.895   1.806 -1.5713  0.1189  2.0063
 8111SOL     OW25231   5.252   0.165   6.422 -0.2130 -0.0545  0.5861
 8111SOL    HW125232   5.297   0.235   6.477 -0.6998 -0.8646  2.0808
 8111SOL    HW225233   5.282   0.074   6.453 -1.6012 -0.5654  0.4971
 8112SOL     OW25234   0.916   1.096   4.275  0.4698 -0.4148 -0.1394
 8112SOL    HW125235   0.910   1.141   4.186 -0.3761  0.9141  0.5570
 8112SOL    HW225236   0.985   1.141   4.331  2.2246 -2.3070 -0.6606
 8113SOL     OW25237   1.771   3.164   1.861 -0.1581 -0.1723 -0.0449
 8113SOL    HW125238   1.701   3.214   1.810 -0.3293 -0.1269  0.2325
 8113SOL    HW225239   1.729   3.118   1.940 -0.2357 -1.7855 -0.9752
 8114SOL     OW25240   1.450   3.338   0.697 -0.3990  0.7041  0.2733
 8114SOL    HW125241   1.538   3.322   0.742 -0.6298 -0.6650  0.2676
 8114SOL    HW225242   1.382   3.366   0.766 -0.5237 -0.5056  0.6668
 8115SOL     OW25243   4.359   0.351   0.369  0.0560  0.1935 -0.5179
 8115SOL    HW125244   4.326   0.433   0.416  0.2937  1.1120 -1.8953
 8115SOL    HW225245   4.428   0.305   0.425  1.1749  1.8929 -0.4277
 8116SOL     OW25246   6.331   6.282   3.390 -0.0388 -0.5637  0.4343
 8116SOL    HW125247   6.291   6.213   3.451 -2.2510 -0.5007 -0.8382
 8116SOL    HW225248   6.258   6.334   3.347  1.5372  0.9597 -0.5163
 8117SOL     OW25249   0.606   1.468   5.876 -0.2293  0.8461 -0.6257
 8117SOL    HW125250   0.534   1.508   5.820 -0.5624 -0.6869 -1.3322
 8117SOL    HW225251   0.694   1.512   5.855 -1.0102  3.3743  0.8919
 8118SOL     OW25252   4.207   5.002   4.185 -0.4800  0.1422 -0.1087
 8118SOL    HW125253   4.145   4.926   4.164  0.8688 -0.8772 -0.5437
 8118SOL    HW225254   4.249   5.035   4.101  1.0477 -0.5121  0.3601
 8119SOL     OW25255   0.222   5.736   4.425 -0.4134 -0.0490 -0.0614
 8119SOL    HW125256   0.202   5.655   4.371  1.5818 -1.3253  1.0086
 8119SOL    HW225257   0.193   5.721   4.520  0.3154  0.3101  0.2286
 8120SOL     OW25258   3.175   5.454   6.563  0.0760 -0.0873 -0.0861
 8120SOL    HW125259   3.269   5.419   6.555  0.0237 -0.8067  1.8866
 8120SOL    HW225260   3.119   5.414   6.490  0.9995 -0.6700 -0.5068
 8121SOL     OW25261   0.309   0.125   2.022 -1.0639 -0.0619 -0.6798
 8121SOL    HW125262   0.281   0.051   2.083  1.5112  1.1490  2.2215
 8121SOL    HW225263   0.369   0.088   1.951  0.2888 -0.8626  0.7954
 8122SOL     OW25264   0.473   5.757   2.695  0.3048 -0.4023 -0.3899
 8122SOL    HW125265   0.526   5.714   2.622 -0.2093  0.4112 -1.2663
 8122SOL    HW225266   0.475   5.856   2.684 -0.2139 -0.2899  0.4084
 8123SOL     OW25267   6.334   0.327   6.383 -0.0810  0.0628 -0.8933
 8123SOL    HW125268   6.425   0.304   6.348  0.9752  0.7417  1.2337
 8123SOL    HW225269   6.296   0.247   6.430  0.2103  0.2929 -0.2505
 8124SOL     OW25270   0.222   0.363   0.666  0.2055  0.0405  0.1372
 8124SOL    HW125271   0.241   0.430   0.594  2.4852  1.1398  1.6131
 8124SOL    HW225272   0.202   0.274   0.626  1.2364  0.6570 -1.8521
 8125SOL     OW25273   0.519   0.180   2.853  0.7040  0.1319 -0.2832
 8125SOL    HW125274   0.584   0.196   2.779 -0.0194 -1.2622 -1.2732
 8125SOL    HW225275   0.456   0.258   2.859  1.6727  0.9231 -0.1376
 8126SOL     OW25276   6.612   4.980   3.022 -0.2611 -0.3761 -0.4533
 8126SOL    HW125277   6.667   4.986   3.106 -1.2454  0.6757  0.1319
 8126SOL    HW225278   6.661   5.025   2.947 -0.5372  1.0273  0.1865
 8127SOL     OW25279   2.691   6.317   2.195  0.7957  0.1053  0.5105
 8127SOL    HW125280   2.670   6.251   2.266 -0.4587 -0.3302 -0.2331
 8127SOL    HW225281   2.653   6.406   2.219 -1.4706 -0.5181 -0.5121
 8128SOL     OW25282   3.348   3.307   2.178  0.9051 -0.1404  0.1956
 8128SOL    HW125283   3.422   3.276   2.238  1.3252 -3.5028 -1.8085
 8128SOL    HW225284   3.387   3.353   2.098  0.9657 -2.1651 -1.0017
 8129SOL     OW25285   3.859   0.461   6.875 -0.4023 -0.1072  0.0843
 8129SOL    HW125286   3.855   0.547   6.824  1.2911  0.6859  1.2093
 8129SOL    HW225287   3.808   0.471   6.961  0.8051  0.2134  0.7839
 8130SOL     OW25288   6.595   3.284   4.960  0.2988 -0.2904 -0.0971
 8130SOL    HW125289   6.666   3.265   5.028 -0.3044 -2.2659  0.0497
 8130SOL    HW225290   6.638   3.302   4.871  1.0196 -0.4913  0.2036
 8131SOL     OW25291   4.033   0.262   6.860 -0.1458  0.0848 -0.6346
 8131SOL    HW125292   4.114   0.282   6.916 -1.3881  1.1206  0.8993
 8131SOL    HW225293   3.968   0.337   6.868 -0.8895 -0.3017 -2.5833
 8132SOL     OW25294   6.824   6.150   6.472 -0.6623  0.0217  0.2106
 8132SOL    HW125295   6.804   6.240   6.433  0.3942 -0.0717 -0.5863
 8132SOL    HW225296   6.746   6.120   6.527 -1.5479  0.8685 -0.5296
 8133SOL     OW25297   2.603   4.514   1.419  0.1492 -0.8176 -0.1465
 8133SOL    HW125298   2.560   4.460   1.491 -0.4319 -1.6439 -1.0970
 8133SOL    HW225299   2.697   4.482   1.405  0.1985 -0.7842  0.1002
 8134SOL     OW25300   1.133   3.391   3.233 -0.3321 -0.0572  0.0363
 8134SOL    HW125301   1.077   3.335   3.173  2.8572 -2.6135 -0.8792
 8134SOL    HW225302   1.160   3.338   3.313  1.1529  0.8069  0.1608
 8135SOL     OW25303   2.510   6.287   1.702  0.2019 -0.0101  0.1139
 8135SOL    HW125304   2.540   6.201   1.743  0.9403  0.7327  1.1870
 8135SOL    HW225305   2.550   6.363   1.752 -2.3686  1.0173  0.7525
 8136SOL     OW25306   5.558   5.675   2.946 -0.0375 -0.1511 -0.2691
 8136SOL    HW125307   5.624   5.663   2.872  1.6010 -1.3120  1.3019
 8136SOL    HW225308   5.535   5.585   2.985 -0.1862  0.4928  1.1912
 8137SOL     OW25309   3.988   0.530   3.217  0.4558 -0.3492 -0.6154
 8137SOL    HW125310   4.028   0.583   3.143  0.4232 -0.6526 -0.8535
 8137SOL    HW225311   3.978   0.587   3.298  3.3623 -0.7820  0.1595
 8138SOL     OW25312   5.422   1.226   0.326  0.5877  0.1530  0.5602
 8138SOL    HW125313   5.520   1.208   0.318  0.5260  0.6540 -2.7371
 8138SOL    HW225314   5.371   1.149   0.287 -0.1189  1.5333 -1.3886
 8139SOL     OW25315   1.485   1.857   3.670 -0.6984 -0.3150 -0.2927
 8139SOL    HW125316   1.396   1.814   3.679 -0.9336 -0.4221 -2.6215
 8139SOL    HW225317   1.475   1.948   3.631 -0.0085  1.0833  2.4836
 8140SOL     OW25318   4.139   0.678   1.666  0.7342 -0.2082  0.4660
 8140SOL    HW125319   4.049   0.673   1.708  0.5627  0.3170  0.1617
 8140SOL    HW225320   4.146   0.608   1.595 -0.4690  1.5204 -1.4680
 8141SOL     OW25321   3.179   1.351   4.474  0.0498 -0.2562 -0.2326
 8141SOL    HW125322   3.098   1.409   4.485 -0.0197 -0.1819 -1.0678
 8141SOL    HW225323   3.258   1.396   4.515 -0.2996 -0.2590  0.4523
 8142SOL     OW25324   0.253   4.252   0.461  0.7370 -0.4814  0.8249
 8142SOL    HW125325   0.336   4.260   0.516  2.0956  0.5350 -1.2301
 8142SOL    HW225326   0.273   4.200   0.378  0.0196  1.7840 -0.8742
 8143SOL     OW25327   5.226   3.019   0.618  0.3487  0.1200  0.3645
 8143SOL    HW125328   5.138   3.026   0.571 -0.1857  0.9295  1.4270
 8143SOL    HW225329   5.220   3.064   0.707  1.2346 -1.5652  1.3390
 8144SOL     OW25330   0.083   0.278   6.181 -0.3312 -0.0245  0.2233
 8144SOL    HW125331   0.136   0.277   6.265 -1.8860 -0.1991  1.2549
 8144SOL    HW225332   0.139   0.312   6.105  0.6055  1.7680  1.6607
 8145SOL     OW25333   3.007   4.094   0.114  0.8652  0.1338  0.2279
 8145SOL    HW125334   2.918   4.049   0.111  0.1739  1.4547 -1.7409
 8145SOL    HW225335   3.079   4.026   0.126 -0.4087 -0.9067  2.4484
 8146SOL     OW25336   5.934   6.714   0.064  0.2465 -0.3565  0.6881
 8146SOL    HW125337   5.843   6.736   0.100 -0.1179 -0.7128  0.0156
 8146SOL    HW225338   5.924   6.653  -0.015  0.9881  0.9284 -0.4291
 8147SOL     OW25339   0.710   6.995   2.224  0.4309  0.5611  0.0507
 8147SOL    HW125340   0.695   7.060   2.299  1.3069 -0.4467  1.1376
 8147SOL    HW225341   0.744   7.043   2.144  0.2898  1.5510  0.5749
 8148SOL     OW25342   3.432   5.325   6.579 -0.3372  0.1831  0.0726
 8148SOL    HW125343   3.476   5.244   6.541 -0.1216 -0.6453  1.9419
 8148SOL    HW225344   3.502   5.390   6.609 -0.5121  1.6271 -2.4246
 8149SOL     OW25345   2.366   6.803   2.258 -0.4148  0.1441 -0.7652
 8149SOL    HW125346   2.322   6.884   2.219 -1.9379 -1.2611 -2.1128
 8149SOL    HW225347   2.309   6.722   2.242  0.4238 -1.0434  1.6612
 8150SOL     OW25348   1.834   3.610   1.788 -0.3888  0.0480 -0.0088
 8150SOL    HW125349   1.754   3.554   1.766  0.8951 -1.7817 -0.1762
 8150SOL    HW225350   1.848   3.609   1.887 -1.6147  1.9145  0.2356
 8151SOL     OW25351   5.423   4.942   4.089 -0.3652  0.0833  0.7383
 8151SOL    HW125352   5.414   5.035   4.126 -0.9524  0.1226  0.5081
 8151SOL    HW225353   5.520   4.924   4.069 -0.4268  1.3713 -1.0291
 8152SOL     OW25354   2.067   2.532   2.849  0.1270 -0.4456  0.2019
 8152SOL    HW125355   2.021   2.616   2.822 -0.2392 -0.7298 -0.0720
 8152SOL    HW225356   2.154   2.554   2.894 -0.0679  0.0795  0.3245
 8153SOL     OW25357   2.574   1.917   4.909 -0.0748 -0.2841  0.4016
 8153SOL    HW125358   2.531   1.973   4.838  1.2495 -0.0874 -0.2719
 8153SOL    HW225359   2.589   1.824   4.873  0.4000 -0.2459  0.5029
 8154SOL     OW25360   4.327   0.482   2.224 -0.3796 -0.4854  0.2380
 8154SOL    HW125361   4.425   0.490   2.202 -0.1371 -0.1410  1.3431
 8154SOL    HW225362   4.273   0.518   2.149  0.4152  1.3834  0.4990
 8155SOL     OW25363   2.172   3.900   2.404 -0.5126 -0.2014  0.2239
 8155SOL    HW125364   2.212   3.970   2.462 -1.9293  0.5014  0.4138
 8155SOL    HW225365   2.177   3.929   2.308  0.1998 -0.5181  0.1635
 8156SOL     OW25366   5.853   5.530   0.902 -0.1228 -0.0192 -0.2759
 8156SOL    HW125367   5.765   5.544   0.858 -0.1314 -0.4192 -0.3975
 8156SOL    HW225368   5.877   5.433   0.896  0.3273  0.0894 -0.2505
 8157SOL     OW25369   6.142   2.518   6.489  0.0325 -0.1263  0.1131
 8157SOL    HW125370   6.186   2.597   6.448 -0.7944  0.4605  0.3235
 8157SOL    HW225371   6.165   2.514   6.586  0.0862 -0.1458  0.0994
 8158SOL     OW25372   3.848   2.797   5.732  0.4242 -0.1680  0.5932
 8158SOL    HW125373   3.855   2.884   5.683 -0.7378 -0.4006 -0.0213
 8158SOL    HW225374   3.927   2.740   5.710  0.3319  0.0608 -0.3686
 8159SOL     OW25375   1.822   4.656   4.821 -0.0855  0.1595  0.1192
 8159SOL    HW125376   1.907   4.606   4.805 -0.9736 -0.4596 -3.2806
 8159SOL    HW225377   1.840   4.731   4.885  2.4849 -1.1905  1.1414
 8160SOL     OW25378   4.723   6.658   4.428  0.6613 -0.5034  0.0098
 8160SOL    HW125379   4.662   6.579   4.432  2.1189 -1.6609  0.4023
 8160SOL    HW225380   4.729   6.701   4.518 -0.9105  0.7219 -0.4237
 8161SOL     OW25381   4.938   3.817   4.666  1.4014 -0.2832 -0.4625
 8161SOL    HW125382   5.036   3.838   4.665  1.1348  1.0926 -0.8206
 8161SOL    HW225383   4.886   3.903   4.662  0.1818 -1.0007 -0.5113
 8162SOL     OW25384   6.618   6.591   6.486 -0.2000 -0.2054  0.0799
 8162SOL    HW125385   6.660   6.681   6.472 -0.2566 -0.3889 -1.4414
 8162SOL    HW225386   6.626   6.565   6.583 -0.1405  1.3994  0.5353
 8163SOL     OW25387   2.193   4.352   5.187  0.1849 -0.2962 -0.1298
 8163SOL    HW125388   2.236   4.314   5.269 -0.6824 -0.9279  0.0445
 8163SOL    HW225389   2.227   4.304   5.106  1.4747  0.7071 -0.2221
 8164SOL     OW25390   5.511   0.634   1.576 -0.1362  0.0041  0.2266
 8164SOL    HW125391   5.532   0.538   1.597 -0.2485 -0.2546 -0.8044
 8164SOL    HW225392   5.590   0.691   1.599  0.1389 -0.4142  0.3210
 8165SOL     OW25393   6.643   4.239   6.052 -0.5222  0.0228  0.2097
 8165SOL    HW125394   6.675   4.172   5.985  0.5714  0.7226  0.0050
 8165SOL    HW225395   6.674   4.214   6.143 -1.0750 -0.3377  0.3063
 8166SOL     OW25396   1.539   6.939   4.994  0.3117 -0.1350 -0.7646
 8166SOL    HW125397   1.573   6.879   4.922  0.0398 -0.8182 -0.3265
 8166SOL    HW225398   1.439   6.942   4.992  0.3536  1.1725 -1.4830
 8167SOL     OW25399   0.568   6.931   3.747  0.2264  0.4853  0.6944
 8167SOL    HW125400   0.483   6.977   3.723 -0.8387 -0.1292  3.0820
 8167SOL    HW225401   0.643   6.973   3.696 -1.4283  1.2077 -1.2726
 8168SOL     OW25402   2.811   1.643   1.941 -0.3264 -0.4099 -0.1522
 8168SOL    HW125403   2.813   1.625   1.843  0.5020  0.8436 -0.4001
 8168SOL    HW225404   2.746   1.582   1.986  0.3773 -2.0200 -1.2610
 8169SOL     OW25405   3.595   1.971   6.185  0.2982  0.2808  0.1646
 8169SOL    HW125406   3.528   1.998   6.253 -0.2805 -0.9673  0.1267
 8169SOL    HW225407   3.679   1.939   6.231  0.5939  1.1418  0.2314
 8170SOL     OW25408   5.006   4.677   0.877 -0.0819 -0.1370  0.4067
 8170SOL    HW125409   4.941   4.745   0.842 -0.4607 -0.7042 -0.0035
 8170SOL    HW225410   4.976   4.586   0.850 -0.0389 -0.5412  1.6696
 8171SOL     OW25411   1.897   1.083   0.158 -0.4920  0.2509  0.5732
 8171SOL    HW125412   1.996   1.087   0.146 -0.2491 -0.6304  1.9824
 8171SOL    HW225413   1.862   1.174   0.180 -0.2515  0.8724 -1.4364
 8172SOL     OW25414   0.085   1.570   2.166  0.4350 -0.9733  0.1599
 8172SOL    HW125415   0.137   1.623   2.100  1.1317  0.1428  1.5539
 8172SOL    HW225416  -0.006   1.611   2.178  1.2638  0.4946  1.8526
 8173SOL     OW25417   4.815   0.652   1.892  0.0905 -0.7224  0.2565
 8173SOL    HW125418   4.831   0.571   1.836  1.7428 -0.2100 -0.0641
 8173SOL    HW225419   4.833   0.734   1.838 -3.3180  0.0052 -0.0023
 8174SOL     OW25420   1.825   6.656   1.591 -0.0400  0.2590 -0.8106
 8174SOL    HW125421   1.868   6.739   1.628 -0.8883  0.9148 -1.2705
 8174SOL    HW225422   1.726   6.664   1.597 -0.1344 -1.6750  1.1712
 8175SOL     OW25423   2.179   2.325   3.338 -0.3021 -0.3134 -0.4950
 8175SOL    HW125424   2.252   2.370   3.286 -1.1988 -2.4365 -3.9011
 8175SOL    HW225425   2.220   2.269   3.410  0.9900  2.7227  1.3357
 8176SOL     OW25426   1.646   4.683   1.085 -0.2729 -0.3344 -0.2303
 8176SOL    HW125427   1.611   4.686   1.178  1.2740 -1.5803  0.4367
 8176SOL    HW225428   1.739   4.721   1.082 -0.0131 -0.9900 -1.1032
 8177SOL     OW25429   6.155   2.150   3.101  0.4315  0.1476  0.9215
 8177SOL    HW125430   6.092   2.210   3.051  0.7635  0.1459  0.5027
 8177SOL    HW225431   6.243   2.147   3.055  0.2941 -0.9964  0.6850
 8178SOL     OW25432   2.799   0.261   6.788 -0.6596 -0.0128 -0.8320
 8178SOL    HW125433   2.702   0.250   6.768 -0.4551 -0.2782 -1.7383
 8178SOL    HW225434   2.833   0.345   6.744 -0.3074 -0.3419 -1.1974
 8179SOL     OW25435   6.294   3.147   4.065  0.4222  0.1587 -0.1093
 8179SOL    HW125436   6.281   3.089   4.145 -0.7335  1.1450  0.4539
 8179SOL    HW225437   6.260   3.101   3.984  2.7325 -1.3666 -0.2876
 8180SOL     OW25438   6.144   1.407   0.426 -0.4893  0.5417 -0.9162
 8180SOL    HW125439   6.241   1.420   0.403 -0.8605  1.6848 -1.9515
 8180SOL    HW225440   6.117   1.314   0.405  0.5477  0.0010  0.0375
 8181SOL     OW25441   2.081   1.412   1.426 -0.5618 -0.0880  0.1106
 8181SOL    HW125442   2.101   1.505   1.456 -0.2919 -0.5185  1.3605
 8181SOL    HW225443   2.046   1.359   1.504 -0.1383 -1.1885 -0.4244
 8182SOL     OW25444   2.323   2.465   6.248 -0.0102 -0.5878  0.1281
 8182SOL    HW125445   2.403   2.424   6.291  0.2466  0.5285  0.7646
 8182SOL    HW225446   2.339   2.475   6.150 -0.4222 -2.7476 -0.2068
 8183SOL     OW25447   5.953   3.098   4.857  0.4549 -0.3148  0.0751
 8183SOL    HW125448   5.928   3.048   4.774  0.9876 -0.6149  0.0936
 8183SOL    HW225449   6.026   3.163   4.836  0.8300 -0.6325  0.3771
 8184SOL     OW25450   0.401   7.000   0.947 -0.1316 -0.4820 -0.3934
 8184SOL    HW125451   0.445   7.086   0.919 -0.0070 -0.4835 -0.2055
 8184SOL    HW225452   0.471   6.931   0.965 -0.1664 -0.2616  0.6419
 8185SOL     OW25453   2.223   1.706   0.490 -0.3802  0.6675 -0.3186
 8185SOL    HW125454   2.237   1.735   0.396  0.6642  1.7351  0.1354
 8185SOL    HW225455   2.148   1.757   0.531 -1.7847 -0.8006 -0.9629
 8186SOL     OW25456   1.731   5.847   5.428  0.6115 -0.4059  0.5794
 8186SOL    HW125457   1.776   5.935   5.411 -0.2363  0.1305  1.0085
 8186SOL    HW225458   1.706   5.842   5.525 -2.7295  0.5528 -0.1201
 8187SOL     OW25459   2.953   6.101   3.936 -0.6137  1.0731  0.2179
 8187SOL    HW125460   2.892   6.057   3.871  0.9167 -0.4469 -0.2473
 8187SOL    HW225461   2.906   6.112   4.024 -0.8777 -2.3407  0.6431
 8188SOL     OW25462   5.831   3.713   3.893  0.6922  0.2328 -0.6670
 8188SOL    HW125463   5.751   3.685   3.946 -1.0320  1.9782 -2.2014
 8188SOL    HW225464   5.903   3.745   3.955  0.0924 -1.0013  0.7168
 8189SOL     OW25465   4.377   6.251   1.547 -0.3567 -0.5917  0.2678
 8189SOL    HW125466   4.311   6.323   1.524 -0.2420 -0.1281  1.3457
 8189SOL    HW225467   4.433   6.232   1.467 -1.7573 -0.9668 -0.6657
 8190SOL     OW25468   3.390   5.029   6.052  0.0942 -0.0359  0.1068
 8190SOL    HW125469   3.340   5.003   5.969  0.3699 -0.6731  0.1341
 8190SOL    HW225470   3.365   5.122   6.078 -1.8880 -0.7073  0.7389
 8191SOL     OW25471   3.344   6.457   2.640 -0.2832  0.0202  0.0472
 8191SOL    HW125472   3.293   6.499   2.714  0.3701  0.1290  0.4394
 8191SOL    HW225473   3.442   6.469   2.655 -0.1193  2.3070 -2.1082
 8192SOL     OW25474   1.572   5.634   0.655 -0.0955 -0.3061 -0.1056
 8192SOL    HW125475   1.485   5.663   0.616  0.3555  1.9509  0.4661
 8192SOL    HW225476   1.640   5.627   0.582 -0.0480  0.8091 -0.1886
 8193SOL     OW25477   4.594   4.936   5.328 -0.0171  0.3107  0.0783
 8193SOL    HW125478   4.585   4.975   5.236  0.7773  1.7716  0.5818
 8193SOL    HW225479   4.673   4.875   5.332  0.0653  0.4035 -0.1634
 8194SOL     OW25480   3.165   0.035   0.436  0.5326 -0.1855  0.4842
 8194SOL    HW125481   3.177   0.129   0.467  0.3420 -0.9515  3.0590
 8194SOL    HW225482   3.251   0.002   0.396  1.5729  0.1507  2.3297
 8195SOL     OW25483   0.718   5.901   4.496 -0.0060  0.1299 -0.2208
 8195SOL    HW125484   0.764   5.824   4.453 -0.6664  0.8285 -2.3114
 8195SOL    HW225485   0.624   5.907   4.462  0.1259  2.0178 -0.3608
 8196SOL     OW25486   3.860   4.415   6.329  0.2016  0.7061 -0.0905
 8196SOL    HW125487   3.954   4.449   6.319 -0.0192  0.8136 -2.3786
 8196SOL    HW225488   3.816   4.462   6.406  2.3038 -0.1048  1.7213
 8197SOL     OW25489   2.920   0.436   2.054  0.5084  0.3935  0.3356
 8197SOL    HW125490   2.882   0.523   2.085  0.6883  0.2035  1.1336
 8197SOL    HW225491   2.946   0.442   1.958  0.0377  1.0537  0.2509
 8198SOL     OW25492   5.641   0.176   3.646 -0.5942 -0.1800  0.1689
 8198SOL    HW125493   5.597   0.247   3.701 -0.6855  0.5049 -0.7692
 8198SOL    HW225494   5.719   0.214   3.597 -1.3080 -0.4145 -1.2200
 8199SOL     OW25495   6.160   2.119   6.326 -0.5000  0.0032 -0.3566
 8199SOL    HW125496   6.181   2.067   6.409 -1.5701 -2.1502 -1.3327
 8199SOL    HW225497   6.085   2.074   6.277  0.0248  1.2512 -2.4382
 8200SOL     OW25498   6.341   4.804   1.227 -0.3001 -0.3823 -0.3156
 8200SOL    HW125499   6.284   4.880   1.256 -0.7815 -1.0774  0.6167
 8200SOL    HW225500   6.285   4.736   1.180  0.0458 -0.3866 -0.7344
 8201SOL     OW25501   6.300   0.518   6.617  0.0167  0.4047  0.2574
 8201SOL    HW125502   6.300   0.478   6.525  0.8542  0.4275  0.2367
 8201SOL    HW225503   6.318   0.447   6.684 -1.7922  0.1622  0.5362
 8202SOL     OW25504   6.669   6.606   1.035  0.1335 -0.1363  0.6159
 8202SOL    HW125505   6.734   6.533   1.054 -0.1629 -0.7481 -0.6355
 8202SOL    HW225506   6.701   6.691   1.077  2.4132 -0.1050 -1.0081
 8203SOL     OW25507   3.955   0.482   5.536 -0.0206  0.8106 -0.0779
 8203SOL    HW125508   3.963   0.416   5.610 -1.5502 -0.3606 -0.8877
 8203SOL    HW225509   3.860   0.514   5.530 -0.1568  0.1848 -2.0650
 8204SOL     OW25510   2.757   4.748   6.623  0.4511 -0.1920 -0.4814
 8204SOL    HW125511   2.664   4.769   6.592 -0.1761  0.3004  1.5220
 8204SOL    HW225512   2.791   4.668   6.575 -1.6453 -1.3344 -0.1821
 8205SOL     OW25513   6.209   4.663   6.716 -0.6748 -0.2292  0.5924
 8205SOL    HW125514   6.145   4.604   6.666  1.3266 -2.0396 -0.0003
 8205SOL    HW225515   6.281   4.694   6.653 -1.3565  2.4865  1.0242
 8206SOL     OW25516   6.137   3.304   4.784  0.6331 -0.3659 -0.4649
 8206SOL    HW125517   6.120   3.396   4.820  1.4410 -0.4926  0.2897
 8206SOL    HW225518   6.169   3.311   4.690  1.1142  0.1649 -0.2719
 8207SOL     OW25519   4.158   3.534   3.356 -0.3386 -0.1944  0.3510
 8207SOL    HW125520   4.252   3.546   3.387 -0.1761  1.1761 -0.6127
 8207SOL    HW225521   4.095   3.551   3.432  0.1456  0.4921  0.6037
 8208SOL     OW25522   0.229   6.562   1.326 -0.3353 -0.1423 -0.5257
 8208SOL    HW125523   0.329   6.568   1.322 -0.3933  0.1770 -2.2312
 8208SOL    HW225524   0.203   6.471   1.359  0.4624  1.0804  4.0917
 8209SOL     OW25525   0.231   6.953   5.209 -0.2089  0.3459  0.0509
 8209SOL    HW125526   0.140   6.948   5.169  0.0664  1.8563 -0.8578
 8209SOL    HW225527   0.293   6.893   5.159 -0.4137  0.3225 -0.1736
 8210SOL     OW25528   2.235   1.415   1.817  0.0778 -0.3881  0.4993
 8210SOL    HW125529   2.255   1.505   1.780  2.9770 -2.4424 -3.9089
 8210SOL    HW225530   2.151   1.379   1.776  0.6364 -0.8044 -0.3184
 8211SOL     OW25531   3.658   3.316   1.821 -0.2245 -0.8111  0.3995
 8211SOL    HW125532   3.635   3.357   1.733  0.1060 -0.1269  0.6259
 8211SOL    HW225533   3.685   3.220   1.807 -0.4437 -0.7871 -0.2066
 8212SOL     OW25534   3.813   2.446   0.396  0.1202 -0.2568  0.3900
 8212SOL    HW125535   3.742   2.443   0.324  0.5261  0.8201 -0.0826
 8212SOL    HW225536   3.903   2.441   0.353  0.4107  1.6536  0.6691
 8213SOL     OW25537   4.836   4.139   1.094  0.3477 -0.4753  0.4276
 8213SOL    HW125538   4.766   4.203   1.127 -0.4031 -1.0062 -0.0889
 8213SOL    HW225539   4.857   4.074   1.167  2.1277  1.1403  1.4443
 8214SOL     OW25540   6.781   4.693   2.838  0.2257 -0.6761 -0.5759
 8214SOL    HW125541   6.791   4.654   2.930  0.2120 -1.1287 -0.7642
 8214SOL    HW225542   6.848   4.766   2.826 -0.0723 -0.3122 -0.0458
 8215SOL     OW25543   4.730   6.706   6.629  0.4509 -0.3535 -0.1854
 8215SOL    HW125544   4.672   6.782   6.601  1.6386  0.5110 -0.3625
 8215SOL    HW225545   4.725   6.633   6.561 -0.5417 -0.3640 -0.1139
 8216SOL     OW25546   5.871   5.328   4.075 -0.3837 -0.0222 -0.0637
 8216SOL    HW125547   5.873   5.354   3.979  0.6808  0.2943  0.0234
 8216SOL    HW225548   5.945   5.261   4.092 -0.0760  0.4949  0.6785
 8217SOL     OW25549   6.906   4.522   0.806 -0.7199 -0.1263 -0.2038
 8217SOL    HW125550   6.826   4.581   0.813 -0.7947 -0.2156 -0.3053
 8217SOL    HW225551   6.922   4.478   0.894  0.3017  1.2914  0.3657
 8218SOL     OW25552   6.585   1.907   6.157 -0.1094 -0.0199  0.0392
 8218SOL    HW125553   6.675   1.865   6.149 -0.1401 -0.2387  0.8470
 8218SOL    HW225554   6.566   1.959   6.073  0.9764  0.4491  0.0657
 8219SOL     OW25555   3.586   2.021   1.499  0.1334 -0.7114 -0.7829
 8219SOL    HW125556   3.524   1.991   1.571 -2.3033  0.9020 -2.0769
 8219SOL    HW225557   3.641   1.943   1.467 -0.9399 -2.1242  0.6704
 8220SOL     OW25558   3.550   3.011   3.174  0.5428  0.6974 -0.3401
 8220SOL    HW125559   3.628   2.998   3.112 -1.1898  0.4221 -2.6111
 8220SOL    HW225560   3.539   3.108   3.195  0.8971  0.8579 -0.8747
 8221SOL     OW25561   5.267   5.836   2.078 -0.1165 -0.0831  0.8107
 8221SOL    HW125562   5.260   5.794   2.168  1.9491 -0.4590  0.8580
 8221SOL    HW225563   5.313   5.773   2.015 -1.6593  0.1150 -0.5717
 8222SOL     OW25564   5.004   1.260   2.313 -0.6115  0.2906 -0.2327
 8222SOL    HW125565   5.044   1.209   2.389  0.7726 -0.1484 -1.2250
 8222SOL    HW225566   4.976   1.196   2.242  1.5386  0.8497 -1.6792
 8223SOL     OW25567   5.233   6.054   4.764  0.0283  0.2870 -0.4739
 8223SOL    HW125568   5.153   6.102   4.800  0.0848  0.9723 -1.2203
 8223SOL    HW225569   5.300   6.121   4.732  0.9351 -0.2782  0.1910
 8224SOL     OW25570   5.901   1.682   2.174 -0.3242  0.2229 -0.4111
 8224SOL    HW125571   5.966   1.724   2.238 -0.0476 -0.3400 -0.3222
 8224SOL    HW225572   5.825   1.642   2.225  0.6493 -1.5721 -0.2966
 8225SOL     OW25573   1.919   6.638   0.525  0.3365  0.0250  0.1341
 8225SOL    HW125574   1.843   6.572   0.526 -0.7161  1.2068  0.4491
 8225SOL    HW225575   1.950   6.655   0.618  0.1529  0.4665  0.1172
 8226SOL     OW25576   6.201   6.956   1.109  0.2173  0.2806  0.5188
 8226SOL    HW125577   6.156   7.042   1.134 -0.1024  0.1133  0.5317
 8226SOL    HW225578   6.219   6.903   1.191 -0.4108 -0.0634  0.4441
 8227SOL     OW25579   2.077   0.854   5.438  0.0656  0.3301  0.2721
 8227SOL    HW125580   2.127   0.939   5.455  2.1849 -0.9450  0.8247
 8227SOL    HW225581   2.044   0.816   5.525  1.0116 -0.4689  0.3029
 8228SOL     OW25582   5.950   2.946   5.833 -0.2183  0.5748 -0.3213
 8228SOL    HW125583   5.921   2.868   5.778  0.0853  1.8163 -2.3286
 8228SOL    HW225584   6.047   2.937   5.856 -0.1909  0.3421 -0.5245
 8229SOL     OW25585   4.618   3.122   1.009 -0.0334  0.0692 -0.7227
 8229SOL    HW125586   4.525   3.120   1.044  0.4993  2.9508  1.3201
 8229SOL    HW225587   4.618   3.153   0.914 -1.1669  0.5781 -0.5724
 8230SOL     OW25588   5.684   6.796   6.246  0.5161  0.2752 -0.3955
 8230SOL    HW125589   5.680   6.773   6.149  0.3680 -1.0470 -0.1087
 8230SOL    HW225590   5.623   6.873   6.265  1.2888  1.1931 -1.4973
 8231SOL     OW25591   4.474   3.453   1.625  0.6338 -0.1148  0.2668
 8231SOL    HW125592   4.466   3.407   1.537  0.6719  0.3014  0.0474
 8231SOL    HW225593   4.386   3.447   1.673  0.4883  0.0202  0.0214
 8232SOL     OW25594   6.562   1.075   1.806  0.3722 -0.5726  0.2389
 8232SOL    HW125595   6.610   1.115   1.883 -0.3926  1.4074 -0.2427
 8232SOL    HW225596   6.519   1.148   1.752 -1.1412 -2.0692 -0.6813
 8233SOL     OW25597   2.116   4.929   0.641  1.0494 -0.1075  0.1097
 8233SOL    HW125598   2.039   4.866   0.631 -0.6234  1.9061 -0.4020
 8233SOL    HW225599   2.114   4.970   0.732  1.1677  0.3895 -0.1084
 8234SOL     OW25600   1.610   3.879   6.926 -0.2511 -0.4009  0.3247
 8234SOL    HW125601   1.602   3.830   6.840 -1.1030 -1.4269  0.9573
 8234SOL    HW225602   1.640   3.973   6.909  1.1879 -1.0467 -0.9375
 8235SOL     OW25603   0.160   3.077   0.105  0.3671 -0.3659  0.2492
 8235SOL    HW125604   0.226   3.007   0.076  1.4624  0.8914 -0.4153
 8235SOL    HW225605   0.209   3.151   0.151 -0.8382 -0.2597  1.3888
 8236SOL     OW25606   0.382   4.510   1.460  0.7079 -0.3853 -0.1231
 8236SOL    HW125607   0.292   4.519   1.503  0.9061  0.6686  0.0974
 8236SOL    HW225608   0.388   4.421   1.415  0.4740 -1.4904  1.9212
 8237SOL     OW25609   5.742   6.570   5.086  0.2229  0.0571 -0.0740
 8237SOL    HW125610   5.727   6.668   5.077 -0.4059  0.0077  0.3740
 8237SOL    HW225611   5.657   6.521   5.068  0.6057 -0.4258 -0.5925
 8238SOL     OW25612   0.375   5.902   5.267 -0.0624  0.5268 -0.3744
 8238SOL    HW125613   0.284   5.938   5.284 -0.0912  1.2821 -1.9679
 8238SOL    HW225614   0.383   5.875   5.171  0.7018 -1.6086  0.2171
 8239SOL     OW25615   6.332   6.992   3.615 -0.1507 -0.1284  0.1431
 8239SOL    HW125616   6.295   7.044   3.538 -0.9059  0.3275  0.8117
 8239SOL    HW225617   6.432   7.004   3.618 -0.3427  1.5355  0.4701
 8240SOL     OW25618   3.243   4.112   2.924  0.5283 -0.6465  0.2342
 8240SOL    HW125619   3.297   4.149   3.000  0.4923 -0.8410  0.3540
 8240SOL    HW225620   3.169   4.057   2.960 -0.4174  0.5007  0.1121
 8241SOL     OW25621   4.054   0.534   0.142  0.2036 -0.4146 -0.0290
 8241SOL    HW125622   4.064   0.619   0.194  0.3871  0.3077 -1.2084
 8241SOL    HW225623   4.109   0.463   0.185 -0.2870 -0.0784  1.2259
 8242SOL     OW25624   0.217   5.057   5.264 -0.2435  0.6249  0.7293
 8242SOL    HW125625   0.189   5.042   5.359 -1.5901 -0.8787  0.1549
 8242SOL    HW225626   0.164   5.131   5.224  0.1160  1.0613  1.0578
 8243SOL     OW25627   0.368   1.580   6.897 -0.1270  0.1196 -0.1125
 8243SOL    HW125628   0.302   1.591   6.971 -0.8196 -1.1263 -0.5268
 8243SOL    HW225629   0.377   1.666   6.848  0.7132  1.1258  1.6886
 8244SOL     OW25630   0.968   6.713   6.227  0.1551  0.1241  0.2988
 8244SOL    HW125631   1.047   6.774   6.227  0.8781 -0.7831  0.9096
 8244SOL    HW225632   0.986   6.635   6.166 -1.3809  1.2596 -1.7144
 8245SOL     OW25633   4.318   0.773   2.438 -0.1572  0.0371 -0.4191
 8245SOL    HW125634   4.365   0.748   2.353  0.0035  2.7044 -1.1853
 8245SOL    HW225635   4.246   0.839   2.419 -3.1612 -2.5470  1.0009
 8246SOL     OW25636   0.550   2.466   5.038  0.2437 -0.4229 -0.1139
 8246SOL    HW125637   0.507   2.556   5.046  0.7808 -0.1807  0.1139
 8246SOL    HW225638   0.554   2.439   4.942 -1.3739 -0.9356 -0.0779
 8247SOL     OW25639   2.300   1.435   3.703  0.0686 -0.5499  0.3063
 8247SOL    HW125640   2.313   1.511   3.640  0.3695 -0.8202  0.0351
 8247SOL    HW225641   2.377   1.432   3.768 -0.0362 -0.5140  0.4336
 8248SOL     OW25642   0.354   4.988   4.152  0.3610  1.5948  0.1763
 8248SOL    HW125643   0.377   4.906   4.099  0.1249  1.0520  0.9006
 8248SOL    HW225644   0.331   5.063   4.089  0.1493  0.9815 -0.4906
 8249SOL     OW25645   2.248   2.550   0.012 -0.3590  0.4514  0.0860
 8249SOL    HW125646   2.228   2.614   0.086  1.4473  0.8008  0.3075
 8249SOL    HW225647   2.332   2.500   0.032 -0.5266 -0.3709 -1.1468
 8250SOL     OW25648   3.411   3.752   1.962 -0.3391  0.3767 -0.0456
 8250SOL    HW125649   3.510   3.742   1.959 -0.2969 -1.2296  2.9937
 8250SOL    HW225650   3.388   3.842   2.001 -0.0227  0.0737  0.8561
 8251SOL     OW25651   4.631   4.208   3.236  0.0681 -0.1578  0.4243
 8251SOL    HW125652   4.645   4.131   3.298  0.1664 -0.3534  0.1597
 8251SOL    HW225653   4.543   4.252   3.258 -0.7876 -1.3478 -0.4762
 8252SOL     OW25654   3.713   0.525   4.203  0.8338  0.0136 -0.2219
 8252SOL    HW125655   3.699   0.622   4.223 -0.0752 -0.0071 -0.7239
 8252SOL    HW225656   3.652   0.497   4.129  1.6387 -0.7599 -0.6127
 8253SOL     OW25657   4.424   5.772   5.593  0.2822 -0.0763 -0.4553
 8253SOL    HW125658   4.463   5.863   5.605  0.7694 -0.3795  0.2825
 8253SOL    HW225659   4.496   5.707   5.569  0.2238 -0.6046  0.7325
 8254SOL     OW25660   4.773   4.476   5.281  0.0511 -0.7559 -0.3357
 8254SOL    HW125661   4.681   4.503   5.252  0.0948 -1.0019 -0.6971
 8254SOL    HW225662   4.795   4.386   5.244 -0.0514 -1.2677  0.7754
 8255SOL     OW25663   4.154   5.775   2.971 -0.1067  0.2055 -0.1680
 8255SOL    HW125664   4.241   5.822   2.987  0.4056 -0.8113  0.1492
 8255SOL    HW225665   4.083   5.816   3.028  0.3257  0.5814  0.1124
 8256SOL     OW25666   6.800   6.712   2.028  0.1256 -0.7230  0.1536
 8256SOL    HW125667   6.816   6.810   2.026  0.2594 -0.7106  1.1610
 8256SOL    HW225668   6.885   6.664   2.050 -0.0703 -1.0223  0.2731
 8257SOL     OW25669   6.611   2.238   2.802  0.8607  0.1573 -0.0518
 8257SOL    HW125670   6.669   2.306   2.758  0.6713  1.2980  1.3670
 8257SOL    HW225671   6.665   2.188   2.870  0.8887 -0.8425 -0.7821
 8258SOL     OW25672   0.511   2.262   2.354  0.0533 -0.7586  0.3100
 8258SOL    HW125673   0.595   2.211   2.339 -1.2168 -2.9562  0.2643
 8258SOL    HW225674   0.477   2.298   2.267 -0.3795 -2.1029 -0.0992
 8259SOL     OW25675   4.536   1.624   4.899  0.1089  0.4380  0.5693
 8259SOL    HW125676   4.540   1.712   4.853  1.6733  0.6136  0.9803
 8259SOL    HW225677   4.529   1.638   4.997 -0.3422  0.0853  0.5918
 8260SOL     OW25678   1.767   5.129   2.172  0.4843  0.3466  0.5350
 8260SOL    HW125679   1.745   5.145   2.075  0.5661  0.8402  0.5996
 8260SOL    HW225680   1.865   5.111   2.181  0.1420 -2.1411  0.2072
 8261SOL     OW25681   0.370   0.571   0.860  0.0298 -0.2962 -0.2670
 8261SOL    HW125682   0.426   0.496   0.894 -0.4032 -0.0808  0.9811
 8261SOL    HW225683   0.316   0.609   0.936 -1.4643 -0.2157 -1.3324
 8262SOL     OW25684   6.695   4.501   1.096 -0.1345  0.2446 -0.4656
 8262SOL    HW125685   6.649   4.454   1.021 -1.8730  1.7480 -0.3913
 8262SOL    HW225686   6.680   4.450   1.181 -2.3189  1.0604 -0.3160
 8263SOL     OW25687   6.886   3.246   6.141  0.2929  0.6716  0.2260
 8263SOL    HW125688   6.845   3.335   6.157 -1.2584  0.3195 -1.4449
 8263SOL    HW225689   6.870   3.218   6.046  3.5584  0.0243 -0.2697
 8264SOL     OW25690   3.447   4.876   2.847 -0.1407 -0.2586  0.0086
 8264SOL    HW125691   3.486   4.836   2.930 -1.2289 -1.0787  0.1480
 8264SOL    HW225692   3.394   4.957   2.870  0.3622  0.0829 -0.0173
 8265SOL     OW25693   2.253   5.795   1.845  0.0473  0.2385 -0.8183
 8265SOL    HW125694   2.347   5.763   1.847  0.3529  0.8863 -2.7504
 8265SOL    HW225695   2.218   5.792   1.751 -1.5737  0.8113 -0.2744
 8266SOL     OW25696   1.372   2.354   4.526 -0.4746  0.2550 -0.6991
 8266SOL    HW125697   1.326   2.290   4.464 -2.5745 -1.0684  2.0134
 8266SOL    HW225698   1.439   2.305   4.581 -0.3981  0.9103 -0.1954
 8267SOL     OW25699   2.084   2.725   2.108 -0.2451 -0.1224  0.0921
 8267SOL    HW125700   2.081   2.662   2.030  0.4845  2.7194 -2.4143
 8267SOL    HW225701   1.992   2.749   2.136 -0.5172 -1.3708  0.3165
 8268SOL     OW25702   1.912   5.683   6.475 -0.3208  0.5070  0.7046
 8268SOL    HW125703   1.953   5.607   6.425 -1.2192  1.1355 -1.1088
 8268SOL    HW225704   1.961   5.698   6.561  1.8697 -0.1115 -0.3694
 8269SOL     OW25705   3.170   2.000   1.266 -0.2997 -0.4845 -0.3967
 8269SOL    HW125706   3.123   2.079   1.228 -1.4970 -2.5227 -3.4947
 8269SOL    HW225707   3.111   1.953   1.332 -0.9291 -0.6036 -1.0334
 8270SOL     OW25708   3.228   6.268   4.544 -0.4634  0.2073 -0.1058
 8270SOL    HW125709   3.323   6.297   4.545 -0.9265  1.8181  1.0774
 8270SOL    HW225710   3.176   6.325   4.481 -1.2589  1.6346  1.7472
 8271SOL     OW25711   6.716   6.862   4.024 -0.2436 -0.0979 -0.2098
 8271SOL    HW125712   6.783   6.790   4.008 -1.3482 -0.8838 -1.4924
 8271SOL    HW225713   6.727   6.934   3.955  0.9626  1.1102  1.1579
 8272SOL     OW25714   6.416   1.489   0.400 -0.0786 -0.0989  0.3799
 8272SOL    HW125715   6.511   1.505   0.375 -0.1284  0.4754  0.5447
 8272SOL    HW225716   6.408   1.479   0.499  0.2486 -3.2562  0.1981
 8273SOL     OW25717   3.329   6.946   5.085 -0.0665  0.1549  0.5221
 8273SOL    HW125718   3.246   6.980   5.129 -0.1883 -0.0250  0.4369
 8273SOL    HW225719   3.380   6.889   5.149  1.0242  1.8691  1.2311
 8274SOL     OW25720   5.915   5.313   4.937  0.0763  0.2643 -0.3495
 8274SOL    HW125721   5.895   5.402   4.980 -1.5926 -0.4619  0.4917
 8274SOL    HW225722   5.991   5.269   4.984  1.2216  1.4042 -1.0560
 8275SOL     OW25723   5.209   1.337   6.685  0.5374 -0.3319  0.4431
 8275SOL    HW125724   5.253   1.369   6.602  2.2053 -0.9661  1.0368
 8275SOL    HW225725   5.279   1.309   6.751 -0.7499 -0.3023  1.8786
 8276SOL     OW25726   2.507   2.525   3.901  0.4848 -0.6442 -0.1264
 8276SOL    HW125727   2.588   2.523   3.841  1.6686 -1.2648  1.4172
 8276SOL    HW225728   2.450   2.445   3.883  1.4331 -1.4419  0.3507
 8277SOL     OW25729   5.219   5.859   6.353  0.9339 -0.3920 -0.4660
 8277SOL    HW125730   5.258   5.848   6.444 -0.2518 -1.5682 -0.0731
 8277SOL    HW225731   5.136   5.914   6.359  1.0197 -0.2089 -0.8970
 8278SOL     OW25732   0.847   1.617   5.848 -0.0125 -0.3216  0.0453
 8278SOL    HW125733   0.907   1.689   5.815 -1.3300  0.2031 -1.3399
 8278SOL    HW225734   0.879   1.585   5.937  0.8817  1.6436  0.4902
 8279SOL     OW25735   1.257   6.302   5.255 -0.4091 -0.3129  0.4748
 8279SOL    HW125736   1.339   6.334   5.303 -1.9768  2.3159  1.6081
 8279SOL    HW225737   1.257   6.337   5.161  0.0626 -0.8820  0.2580
 8280SOL     OW25738   1.046   2.703   6.841 -0.3577  0.0049 -0.0839
 8280SOL    HW125739   1.130   2.754   6.819 -0.0164 -0.9826 -1.1376
 8280SOL    HW225740   1.054   2.666   6.934 -0.4472  1.5091  0.5536
 8281SOL     OW25741   2.742   3.741   1.405  0.0933 -0.6466  0.1166
 8281SOL    HW125742   2.741   3.665   1.470  1.0875 -0.5338  0.2702
 8281SOL    HW225743   2.650   3.780   1.398  0.1388 -0.0382  2.2015
 8282SOL     OW25744   5.301   2.567   0.023 -0.1447 -0.3864 -0.0954
 8282SOL    HW125745   5.349   2.480   0.009  0.5854  0.1904 -1.3503
 8282SOL    HW225746   5.346   2.619   0.095  1.2689  0.2247 -1.3712
 8283SOL     OW25747   1.225   5.987   6.566 -0.0809  0.2877 -0.0117
 8283SOL    HW125748   1.160   5.944   6.628 -1.9636  0.9939 -1.3899
 8283SOL    HW225749   1.307   5.929   6.558 -0.1693 -0.2625  2.3311
 8284SOL     OW25750   6.203   4.218   0.216  0.7766 -1.6009 -0.4557
 8284SOL    HW125751   6.296   4.210   0.250  0.9015 -1.4644 -0.7646
 8284SOL    HW225752   6.182   4.140   0.157  1.0001 -1.1921 -1.0977
 8285SOL     OW25753   1.498   3.647   5.003  0.0929 -0.3170 -0.0299
 8285SOL    HW125754   1.461   3.556   5.019 -0.2436 -0.0780  0.5526
 8285SOL    HW225755   1.592   3.651   5.036  0.1515 -0.4910 -0.1748
 8286SOL     OW25756   4.459   1.978   6.778  0.0025  0.0876  0.4526
 8286SOL    HW125757   4.405   1.946   6.856  0.4622 -0.0341  0.7239
 8286SOL    HW225758   4.556   1.975   6.801  0.0690  1.9782  0.6166
 8287SOL     OW25759   2.401   5.219   3.192 -0.2117  0.2950  0.0716
 8287SOL    HW125760   2.368   5.128   3.217 -0.1005  0.4061  0.6303
 8287SOL    HW225761   2.323   5.281   3.185 -0.2248  0.3171  0.3805
 8288SOL     OW25762   5.807   1.121   1.999  0.8289  0.3976 -0.6587
 8288SOL    HW125763   5.751   1.150   2.077  2.8450  0.1655  0.9741
 8288SOL    HW225764   5.841   1.201   1.951  0.6520  0.5760 -0.4914
 8289SOL     OW25765   1.019   5.674   0.976  0.1703 -0.0338  0.4037
 8289SOL    HW125766   1.009   5.753   1.036  0.9985  1.2907 -1.1496
 8289SOL    HW225767   0.930   5.653   0.934  0.3064  1.2744 -0.6023
 8290SOL     OW25768   6.678   0.777   1.795  0.1610  0.6717  0.5663
 8290SOL    HW125769   6.596   0.828   1.771  0.3416  0.6095 -0.1809
 8290SOL    HW225770   6.666   0.734   1.885 -0.8151  0.2396  0.2361
 8291SOL     OW25771   4.606   6.294   4.865  0.4596 -0.3990  0.3115
 8291SOL    HW125772   4.641   6.387   4.869  1.6534 -0.8015 -0.3353
 8291SOL    HW225773   4.648   6.246   4.788 -1.1206 -1.0843 -0.1796
 8292SOL     OW25774   2.839   5.478   0.076  0.1347  0.4031  0.2386
 8292SOL    HW125775   2.865   5.530   0.157  1.8691  0.6584 -0.4301
 8292SOL    HW225776   2.884   5.389   0.078 -0.8031 -0.0816  0.1496
 8293SOL     OW25777   3.343   2.754   7.009 -0.1131  0.4608 -0.1132
 8293SOL    HW125778   3.324   2.826   7.076 -1.0310 -0.5307  0.7299
 8293SOL    HW225779   3.263   2.741   6.950  1.2901  2.5487 -2.6557
 8294SOL     OW25780   5.103   5.236   3.723  0.5190 -0.5803  0.1384
 8294SOL    HW125781   5.066   5.232   3.816  0.7511 -2.5030  0.1990
 8294SOL    HW225782   5.187   5.181   3.719  0.8584  0.0006 -1.0698
 8295SOL     OW25783   6.272   4.234   1.982 -1.0819  0.8824  0.2292
 8295SOL    HW125784   6.355   4.179   1.984 -0.3057  2.0285  0.0714
 8295SOL    HW225785   6.245   4.257   2.076  0.7104  3.2933  0.2552
 8296SOL     OW25786   6.748   3.430   0.147 -0.0219 -0.0489 -0.5759
 8296SOL    HW125787   6.793   3.391   0.067  1.6426  1.5717 -0.4817
 8296SOL    HW225788   6.735   3.358   0.215  0.3414 -1.0343 -1.5138
 8297SOL     OW25789   5.975   3.005   3.573  0.2190  0.1794 -0.0009
 8297SOL    HW125790   5.960   3.103   3.586  0.3692  0.1605  0.3291
 8297SOL    HW225791   5.888   2.960   3.552  0.3603  0.5921 -1.5433
 8298SOL     OW25792   6.406   1.404   1.194 -0.2780 -0.6464 -0.3736
 8298SOL    HW125793   6.463   1.321   1.193  0.4514 -0.2830  2.5062
 8298SOL    HW225794   6.440   1.468   1.125  1.2455 -1.4200 -0.3925
 8299SOL     OW25795   6.588   1.251   3.420 -0.4340  0.2711  0.2541
 8299SOL    HW125796   6.602   1.172   3.361  0.0185 -0.0650  0.8029
 8299SOL    HW225797   6.496   1.287   3.407 -0.5134 -0.1199 -0.2694
 8300SOL     OW25798   2.843   6.698   5.638  0.6686  0.2923 -0.3212
 8300SOL    HW125799   2.937   6.722   5.662  0.1427  2.6833 -0.4430
 8300SOL    HW225800   2.798   6.657   5.717  1.1657  1.1591  0.4223
 8301SOL     OW25801   4.261   1.489   2.351  0.2338  0.7347  0.1721
 8301SOL    HW125802   4.192   1.545   2.397  0.0004  0.8709 -0.3447
 8301SOL    HW225803   4.279   1.526   2.260 -0.3337 -0.3395 -0.4032
 8302SOL     OW25804   5.750   0.067   0.599  0.9509 -0.1179  0.0393
 8302SOL    HW125805   5.672   0.128   0.611  0.9534 -0.2913  0.9937
 8302SOL    HW225806   5.819   0.087   0.669  2.8367  1.6092 -2.1293
 8303SOL     OW25807   1.434   6.622   5.926 -0.1478 -0.5300  0.1319
 8303SOL    HW125808   1.480   6.571   5.853 -0.0210 -0.4848  0.1794
 8303SOL    HW225809   1.433   6.567   6.009  0.7549 -0.1247  0.4283
 8304SOL     OW25810   5.886   3.349   1.109 -0.2615  0.4565  0.0390
 8304SOL    HW125811   5.904   3.252   1.090  1.0393  0.8447 -0.8810
 8304SOL    HW225812   5.852   3.394   1.027  0.2964  1.0340  0.1165
 8305SOL     OW25813   4.840   0.528   3.643  0.2421  0.0934 -0.4344
 8305SOL    HW125814   4.860   0.613   3.692 -0.5859  1.0312 -1.6788
 8305SOL    HW225815   4.783   0.548   3.563  0.4874 -1.5686 -1.0561
 8306SOL     OW25816   4.891   3.004   5.281  0.0366  0.6832 -0.0391
 8306SOL    HW125817   4.803   2.965   5.255  0.2090  0.4972 -0.3506
 8306SOL    HW225818   4.935   3.042   5.200  1.5115 -1.7075 -0.4615
 8307SOL     OW25819   2.751   4.708   1.718  0.3757 -0.3959  0.3782
 8307SOL    HW125820   2.800   4.684   1.635  0.6869  1.2997  0.0399
 8307SOL    HW225821   2.777   4.646   1.792 -0.1011 -2.0947 -0.8167
 8308SOL     OW25822   1.883   4.702   1.873 -0.8406 -0.3758  0.4230
 8308SOL    HW125823   1.805   4.751   1.836  0.8897  1.5014 -0.9900
 8308SOL    HW225824   1.915   4.747   1.956  1.6760  2.1484 -1.6722
 8309SOL     OW25825   0.809   4.001   4.168 -0.6032 -0.3484 -0.2895
 8309SOL    HW125826   0.791   4.006   4.070 -0.9019  0.1305 -0.2155
 8309SOL    HW225827   0.764   4.078   4.214 -1.9635 -1.5440  0.4518
 8310SOL     OW25828   6.975   5.283   6.015 -0.4366 -0.1529  0.0732
 8310SOL    HW125829   6.984   5.373   5.972  1.4342 -1.6343 -2.9630
 8310SOL    HW225830   7.015   5.286   6.107 -1.2465  2.2738  0.4246
 8311SOL     OW25831   1.430   2.240   6.004 -0.2825 -0.0372 -0.4062
 8311SOL    HW125832   1.509   2.208   6.057 -0.0983  0.7794 -0.1592
 8311SOL    HW225833   1.462   2.303   5.933 -0.7105  0.2758 -0.3203
 8312SOL     OW25834   5.221   1.051   0.149 -0.4488 -0.4515  0.6284
 8312SOL    HW125835   5.133   1.071   0.191  0.2255  1.6664  1.1627
 8312SOL    HW225836   5.213   1.054   0.049 -0.9591 -0.0772  0.6770
 8313SOL     OW25837   5.390   6.860   2.165 -0.2586  0.3180  0.9400
 8313SOL    HW125838   5.301   6.815   2.165 -0.3805  0.5517  0.5935
 8313SOL    HW225839   5.434   6.848   2.076  0.2228 -0.1119  1.2294
 8314SOL     OW25840   6.263   6.593   1.688  0.2645  0.4693  0.8752
 8314SOL    HW125841   6.197   6.581   1.762  0.2289 -1.7974  0.5308
 8314SOL    HW225842   6.230   6.546   1.606  1.7133  0.3928  0.3156
 8315SOL     OW25843   2.867   2.627   1.383 -0.3393  0.5156  0.0796
 8315SOL    HW125844   2.901   2.718   1.407 -0.0790  0.5193 -0.2961
 8315SOL    HW225845   2.938   2.559   1.403 -1.0944  0.1884  1.8876
 8316SOL     OW25846   2.349   0.724   2.006 -0.3243  0.5315 -0.0112
 8316SOL    HW125847   2.408   0.704   1.928  0.7754  2.3473  0.3004
 8316SOL    HW225848   2.253   0.726   1.976 -0.2348 -1.7605 -0.6540
 8317SOL     OW25849   0.422   3.371   3.567 -0.2914  0.0159  0.0897
 8317SOL    HW125850   0.490   3.299   3.579  1.3269  1.5825  0.8718
 8317SOL    HW225851   0.438   3.416   3.479 -0.3986  0.3148  0.2232
 8318SOL     OW25852   3.998   1.186   4.624  0.5633 -0.2528  0.2375
 8318SOL    HW125853   3.901   1.160   4.624  0.4444  0.1645  0.5938
 8318SOL    HW225854   4.041   1.157   4.539  0.2104 -0.7621  0.2330
 8319SOL     OW25855   1.478   2.878   0.762  0.0842  0.5899 -0.2411
 8319SOL    HW125856   1.518   2.868   0.671  0.7204 -1.8470  0.2107
 8319SOL    HW225857   1.520   2.955   0.809  1.2761  0.5913 -1.2597
 8320SOL     OW25858   4.104   3.619   2.489  0.0301 -0.4233  0.3498
 8320SOL    HW125859   4.077   3.664   2.574 -0.1592 -1.1671  0.6937
 8320SOL    HW225860   4.114   3.521   2.506 -0.0140 -0.5763 -0.4924
 8321SOL     OW25861   0.000   6.260   6.729 -0.0094 -0.6891  0.0340
 8321SOL    HW125862   0.002   6.166   6.763  1.7890 -0.8740 -0.4986
 8321SOL    HW225863   0.086   6.281   6.681 -0.0972  1.4180  0.6787
 8322SOL     OW25864   0.322   6.398   2.177  0.2948 -0.3973  0.3819
 8322SOL    HW125865   0.250   6.338   2.142  0.1927  0.0969 -0.2718
 8322SOL    HW225866   0.351   6.460   2.105  0.4229  0.3162  1.0402
 8323SOL     OW25867   4.187   4.955   2.359  0.3815  0.1807 -0.1918
 8323SOL    HW125868   4.178   5.026   2.429 -2.0664 -0.9784  0.7895
 8323SOL    HW225869   4.197   4.998   2.269 -0.6391  1.7914  0.4154
 8324SOL     OW25870   3.911   6.513   1.382  0.3122 -0.3083  1.2429
 8324SOL    HW125871   3.847   6.559   1.443  0.0246 -1.1170  1.5630
 8324SOL    HW225872   3.930   6.421   1.417  0.3747 -0.6720  0.2711
 8325SOL     OW25873   2.088   4.664   3.262 -0.1259  0.5050  0.2643
 8325SOL    HW125874   2.092   4.565   3.253 -2.9769  0.4800 -2.5616
 8325SOL    HW225875   2.122   4.691   3.352  0.9405 -2.9513  1.0508
 8326SOL     OW25876   4.873   4.570   5.641 -0.1904  0.4802 -0.0999
 8326SOL    HW125877   4.921   4.563   5.554  0.5081  0.8037  0.2534
 8326SOL    HW225878   4.929   4.621   5.707 -0.4682 -0.2336  0.7092
 8327SOL     OW25879   6.163   2.013   6.596 -0.7277  0.1472 -0.3461
 8327SOL    HW125880   6.203   1.921   6.600  0.2310  0.5871  0.5944
 8327SOL    HW225881   6.064   2.007   6.606 -0.6267 -0.7479  0.1943
 8328SOL     OW25882   2.131   2.153   6.333  0.4883 -0.0671  0.0437
 8328SOL    HW125883   2.129   2.209   6.250  0.1677 -0.8925 -0.5175
 8328SOL    HW225884   2.220   2.163   6.377 -0.1584  2.2577  0.9338
 8329SOL     OW25885   0.374   2.398   5.217 -0.7368 -0.0799  0.0802
 8329SOL    HW125886   0.291   2.374   5.166 -1.9178  1.6192  1.1128
 8329SOL    HW225887   0.450   2.411   5.153 -1.6934  0.0648 -1.0586
 8330SOL     OW25888   2.814   2.545   0.406  0.0483  0.3276  0.7808
 8330SOL    HW125889   2.786   2.615   0.471 -0.4514  1.6936 -0.8440
 8330SOL    HW225890   2.760   2.552   0.323  1.3902 -0.6535 -0.2354
 8331SOL     OW25891   2.391   0.297   1.306 -0.0794  0.3127  0.2373
 8331SOL    HW125892   2.449   0.322   1.228  1.1068  0.7875  1.2392
 8331SOL    HW225893   2.422   0.210   1.344 -0.0958  0.5181  0.7194
 8332SOL     OW25894   4.954   4.815   2.146  0.1820 -0.5536  0.4817
 8332SOL    HW125895   5.009   4.766   2.078 -1.4944 -0.7665 -0.7773
 8332SOL    HW225896   4.948   4.761   2.230  0.6968 -1.1810  0.1243
 8333SOL     OW25897   6.707   0.154   5.598 -0.1079 -0.4934  0.0011
 8333SOL    HW125898   6.625   0.138   5.652  0.1993 -0.6227  0.4409
 8333SOL    HW225899   6.779   0.191   5.657 -0.2432  0.8360 -0.6474
 8334SOL     OW25900   4.682   0.994   2.332  0.6329 -0.0740  0.1243
 8334SOL    HW125901   4.760   1.014   2.273  0.2588 -0.7637 -0.6286
 8334SOL    HW225902   4.657   0.897   2.324 -0.0967  0.0598  0.5966
 8335SOL     OW25903   4.996   6.586   6.213 -0.1688  0.4463 -0.0371
 8335SOL    HW125904   4.938   6.667   6.223 -2.6458 -1.2826  0.4428
 8335SOL    HW225905   5.077   6.610   6.159  0.2403  3.6972  1.7220
 8336SOL     OW25906   5.926   4.553   3.768 -0.1116  0.2808 -0.0686
 8336SOL    HW125907   6.001   4.594   3.717  0.5429  0.6377  1.1387
 8336SOL    HW225908   5.953   4.462   3.800  0.2085  0.8031  1.2117
 8337SOL     OW25909   3.166   6.354   2.947 -0.1197  0.0334  0.0851
 8337SOL    HW125910   3.103   6.336   3.022 -0.5746 -0.1650 -0.3410
 8337SOL    HW225911   3.248   6.298   2.958  0.5173  1.1558  1.2803
 8338SOL     OW25912   3.297   5.079   1.281  0.1840  0.6607 -0.3987
 8338SOL    HW125913   3.222   5.098   1.344 -0.6002  0.9331 -1.3894
 8338SOL    HW225914   3.349   5.163   1.266  1.5203  0.1980  1.2868
 8339SOL     OW25915   0.799   0.721   1.722  0.3306 -0.6579  0.6721
 8339SOL    HW125916   0.832   0.765   1.638  0.2937 -1.5463  0.1804
 8339SOL    HW225917   0.751   0.789   1.778  0.1493 -0.0997 -0.1362
 8340SOL     OW25918   4.288   2.169   1.477  0.1939  0.2777 -0.3568
 8340SOL    HW125919   4.266   2.252   1.425 -1.4141  0.5527  0.6691
 8340SOL    HW225920   4.328   2.195   1.565 -1.5821  0.0818  0.5537
 8341SOL     OW25921   1.800   1.468   0.613 -0.4728  0.3011 -0.4760
 8341SOL    HW125922   1.762   1.437   0.700 -1.8981 -1.1670 -1.5611
 8341SOL    HW225923   1.900   1.470   0.618 -0.4965 -0.8248  0.8295
 8342SOL     OW25924   4.407   5.472   1.022  0.3273 -0.0804 -0.0748
 8342SOL    HW125925   4.436   5.453   0.928  0.2881 -1.2765  0.1371
 8342SOL    HW225926   4.470   5.427   1.085 -1.0511 -1.4041  0.4212
 8343SOL     OW25927   1.647   6.486   0.642  0.2435  0.7897 -0.1426
 8343SOL    HW125928   1.671   6.490   0.739  2.4150 -1.5091 -0.4936
 8343SOL    HW225929   1.665   6.394   0.607 -1.5922  1.2281 -2.5021
 8344SOL     OW25930   3.876   6.856   5.141 -0.0206  0.3291  0.2599
 8344SOL    HW125931   3.945   6.810   5.086 -1.4354  1.4556 -2.6912
 8344SOL    HW225932   3.796   6.877   5.083 -1.7546  1.4005  2.8555
 8345SOL     OW25933   4.884   1.242   3.386  0.3386  0.4727  0.4067
 8345SOL    HW125934   4.980   1.227   3.411  0.8887  1.3934 -1.0423
 8345SOL    HW225935   4.843   1.156   3.358  0.8390  0.1354  0.6918
 8346SOL     OW25936   1.438   4.946   0.302  0.5349 -0.2666 -0.4621
 8346SOL    HW125937   1.512   5.012   0.288 -1.3990  2.2099  0.2747
 8346SOL    HW225938   1.405   4.913   0.214  0.5893  0.9136 -0.9447
 8347SOL     OW25939   2.474   5.499   5.414  0.2759  0.2746 -0.1110
 8347SOL    HW125940   2.501   5.533   5.504  1.1999  3.5577 -1.4942
 8347SOL    HW225941   2.527   5.416   5.393  0.0039 -0.5954  2.2956
 8348SOL     OW25942   2.530   6.581   2.128  0.3446  0.0945  0.4091
 8348SOL    HW125943   2.506   6.550   2.036 -0.1013 -0.9474  0.8652
 8348SOL    HW225944   2.472   6.658   2.153  0.8315  0.7340 -0.3828
 8349SOL     OW25945   5.800   1.367   1.026  0.4066 -0.2838 -0.0343
 8349SOL    HW125946   5.748   1.449   1.004 -0.5313 -0.7468  0.4337
 8349SOL    HW225947   5.843   1.332   0.942 -0.2199 -0.0337 -0.4696
 8350SOL     OW25948   6.490   6.518   0.190 -0.0702 -0.2426  0.1585
 8350SOL    HW125949   6.502   6.473   0.102 -3.5522  0.0691 -0.6343
 8350SOL    HW225950   6.414   6.475   0.239 -0.9023  2.1871  1.1569
 8351SOL     OW25951   4.275   5.623   2.189 -0.6971 -0.0335  0.5148
 8351SOL    HW125952   4.253   5.608   2.092  0.3843 -0.2060  0.2831
 8351SOL    HW225953   4.191   5.625   2.242 -1.2376 -1.1228 -0.2663
 8352SOL     OW25954   2.015   0.601   2.418 -0.1382 -0.2796 -0.4303
 8352SOL    HW125955   2.059   0.645   2.339 -0.8248 -0.1263 -0.7339
 8352SOL    HW225956   2.059   0.512   2.435  2.4694  1.1938  1.2864
 8353SOL     OW25957   5.535   2.410   2.326  0.2831 -0.3478 -0.4283
 8353SOL    HW125958   5.540   2.483   2.395 -0.0846  0.1881 -0.9570
 8353SOL    HW225959   5.448   2.363   2.334  0.1161 -0.0895 -0.7191
 8354SOL     OW25960   5.365   6.525   6.306 -0.1733  0.0805  0.4267
 8354SOL    HW125961   5.457   6.535   6.344  0.3936  2.0386 -1.3152
 8354SOL    HW225962   5.336   6.429   6.316  0.8536 -0.0470  3.4967
 8355SOL     OW25963   2.103   1.262   5.811 -0.2305  0.1662  0.0846
 8355SOL    HW125964   2.077   1.348   5.766  0.8086  0.6427  0.3775
 8355SOL    HW225965   2.021   1.207   5.826 -0.9695  1.2884  0.2793
 8356SOL     OW25966   1.753   6.358   1.853  0.3957  0.3924 -0.3629
 8356SOL    HW125967   1.746   6.316   1.944  0.6804 -0.0816 -0.5530
 8356SOL    HW225968   1.849   6.372   1.831  0.3989 -0.8751 -1.2044
 8357SOL     OW25969   2.179   0.056   5.355  0.0451 -0.4166 -0.5123
 8357SOL    HW125970   2.266   0.073   5.309 -0.9235  1.1564 -1.8896
 8357SOL    HW225971   2.162   0.128   5.422 -0.6168 -0.1774 -0.9288
 8358SOL     OW25972   0.712   5.283   6.061 -0.1486 -0.1640 -0.4297
 8358SOL    HW125973   0.800   5.305   6.020 -0.2192  0.5866 -0.2018
 8358SOL    HW225974   0.696   5.184   6.057  0.9000 -0.3553 -0.0771
 8359SOL     OW25975   3.627   1.609   3.715  0.2818  0.4962  0.0978
 8359SOL    HW125976   3.667   1.699   3.700 -0.6286  1.1878  1.5951
 8359SOL    HW225977   3.667   1.543   3.651  0.6346  2.0421 -1.3296
 8360SOL     OW25978   2.825   6.825   0.185  0.4409  0.1289 -0.0997
 8360SOL    HW125979   2.876   6.866   0.109  0.1093  2.0379  0.6333
 8360SOL    HW225980   2.886   6.773   0.243  1.1082  0.4183 -0.5308
 8361SOL     OW25981   4.133   6.944   4.917  0.1368  0.3261 -0.2746
 8361SOL    HW125982   4.188   7.025   4.901  0.2824  0.3188  0.1576
 8361SOL    HW225983   4.048   6.949   4.864  0.3088  0.5885 -0.5238
 8362SOL     OW25984   2.391   2.557   0.873  0.6147  0.4091 -0.5525
 8362SOL    HW125985   2.426   2.494   0.942  0.4492  0.3506 -0.5203
 8362SOL    HW225986   2.309   2.602   0.908 -0.4631 -0.8661 -1.3336
 8363SOL     OW25987   0.337   3.183   0.479  0.5926 -0.0315 -0.6192
 8363SOL    HW125988   0.372   3.118   0.547 -0.3996  0.6918  0.6255
 8363SOL    HW225989   0.239   3.168   0.465  0.2256  1.5277  0.1095
 8364SOL     OW25990   0.433   3.442   2.704  0.2135  0.8318  0.1723
 8364SOL    HW125991   0.431   3.367   2.638  0.0375  1.3883 -0.4665
 8364SOL    HW225992   0.473   3.410   2.789  0.4510  0.1002 -0.2047
 8365SOL     OW25993   1.027   2.110   2.617 -0.0003 -0.3208 -0.0049
 8365SOL    HW125994   1.062   2.202   2.604 -1.3403  0.1296 -0.5932
 8365SOL    HW225995   0.978   2.105   2.704  0.9403 -0.7735  0.5138
 8366SOL     OW25996   0.218   5.128   1.180  0.5061 -0.0714  0.1707
 8366SOL    HW125997   0.170   5.215   1.171 -1.5474 -1.2037 -0.2930
 8366SOL    HW225998   0.226   5.105   1.277  1.4006  0.7793  0.3185
 8367SOL     OW25999   4.414   6.939   1.190  0.4485 -0.4027  0.6656
 8367SOL    HW126000   4.345   6.889   1.138  0.7933 -0.7972  0.5826
 8367SOL    HW226001   4.399   6.926   1.288 -1.1650  1.6159  0.7554
 8368SOL     OW26002   0.768   5.051   0.278  0.3420 -0.4985  0.4515
 8368SOL    HW126003   0.803   4.993   0.204  1.0212 -0.9226  1.0938
 8368SOL    HW226004   0.770   5.000   0.364 -1.3640 -0.3415  0.6094
 8369SOL     OW26005   2.817   1.838   6.778 -0.2768  0.4979 -0.1483
 8369SOL    HW126006   2.803   1.749   6.733 -1.2072  0.0892  0.8921
 8369SOL    HW226007   2.901   1.835   6.831 -0.0374  0.4186 -0.5240
 8370SOL     OW26008   1.955   2.204   0.848 -0.1060 -0.2432  0.9867
 8370SOL    HW126009   2.036   2.261   0.834  0.2341 -0.9146  0.1506
 8370SOL    HW226010   1.878   2.262   0.876  0.3644  0.5505  0.6800
 8371SOL     OW26011   2.800   2.929   0.491  0.4451  0.2788 -0.0091
 8371SOL    HW126012   2.756   2.852   0.536 -0.8835  1.2862  0.4865
 8371SOL    HW226013   2.794   3.010   0.550 -1.2448  1.6156 -1.8617
 8372SOL     OW26014   1.251   6.787   3.357  0.4941  0.3111  0.0046
 8372SOL    HW126015   1.320   6.785   3.286  1.7958 -0.0696  1.2367
 8372SOL    HW226016   1.218   6.881   3.369 -0.3585  0.2533 -1.6281
 8373SOL     OW26017   1.027   0.377   5.265 -0.0503 -0.5753  0.0304
 8373SOL    HW126018   1.069   0.322   5.192  0.5694  0.7411 -0.6425
 8373SOL    HW226019   0.935   0.343   5.284  1.0433 -3.2169  1.1614
 8374SOL     OW26020   1.981   1.964   5.863  0.1545 -0.3260 -0.1426
 8374SOL    HW126021   1.897   1.978   5.916 -0.0534 -2.0072  0.0480
 8374SOL    HW226022   2.045   1.909   5.916  0.9499  0.0487 -0.6982
 8375SOL     OW26023   2.335   5.817   6.942 -0.0250 -0.7062  0.0319
 8375SOL    HW126024   2.375   5.736   6.898 -0.3018 -0.0313 -1.5489
 8375SOL    HW226025   2.408   5.876   6.977  0.1716 -2.6561  3.3231
 8376SOL     OW26026   1.740   6.802   4.847 -0.1395 -0.1215  0.1426
 8376SOL    HW126027   1.804   6.783   4.773 -0.4304 -2.4353  0.3934
 8376SOL    HW226028   1.790   6.830   4.928  0.5060 -0.9732  0.0594
 8377SOL     OW26029   4.523   0.151   1.051  0.3332 -0.1688  0.4782
 8377SOL    HW126030   4.491   0.238   1.090  0.6878 -0.2641  0.9927
 8377SOL    HW226031   4.477   0.075   1.097  0.4319 -0.2696  0.4101
 8378SOL     OW26032   2.599   4.907   2.238 -0.2355 -0.9435  0.0283
 8378SOL    HW126033   2.575   5.004   2.236  2.3321 -0.2139  1.4299
 8378SOL    HW226034   2.678   4.890   2.180 -1.0212 -2.3493 -0.6887
 8379SOL     OW26035   4.795   3.067   1.367  0.2233 -0.0329 -0.3018
 8379SOL    HW126036   4.772   3.129   1.442 -1.1041  1.4846 -1.8805
 8379SOL    HW226037   4.714   3.016   1.339  0.5618 -0.1712 -1.0614
 8380SOL     OW26038   1.922   6.956   3.770 -0.1056  0.4666  0.3837
 8380SOL    HW126039   1.938   7.044   3.726 -0.7792  0.2060 -0.3911
 8380SOL    HW226040   2.010   6.915   3.796  0.3176  0.4949 -0.9615
 8381SOL     OW26041   0.839   1.746   6.712 -0.5404  0.0052 -0.0806
 8381SOL    HW126042   0.854   1.741   6.613  0.5865  2.2515 -0.0745
 8381SOL    HW226043   0.919   1.709   6.759 -0.5403  0.0955 -0.0110
 8382SOL     OW26044   3.124   0.120   4.309  0.6112 -0.3530  0.0229
 8382SOL    HW126045   3.215   0.159   4.326 -0.1442  1.1824  0.6339
 8382SOL    HW226046   3.109   0.044   4.372  2.1126 -1.7702 -1.2119
 8383SOL     OW26047   1.860   1.145   5.851 -0.1426 -0.0987 -0.4290
 8383SOL    HW126048   1.844   1.062   5.905 -1.2283 -1.0650 -2.1279
 8383SOL    HW226049   1.820   1.224   5.899 -1.1048 -0.9188  0.1584
 8384SOL     OW26050   5.029   1.548   1.561  0.2189  0.2325 -0.3770
 8384SOL    HW126051   5.071   1.597   1.638  0.1170 -0.3086  0.0287
 8384SOL    HW226052   4.940   1.587   1.540  0.2632  0.4038 -0.2432
 8385SOL     OW26053   5.170   1.000   6.910 -0.1385 -0.0690 -0.2097
 8385SOL    HW126054   5.106   0.926   6.932  0.3105 -0.9757 -1.8034
 8385SOL    HW226055   5.253   0.961   6.870  0.4140  1.2611 -0.3926
 8386SOL     OW26056   0.947   3.177   1.440  0.2740 -0.0837 -0.5999
 8386SOL    HW126057   1.025   3.130   1.483  0.0701  0.2591  0.1686
 8386SOL    HW226058   0.862   3.148   1.485  0.1431  0.9859 -0.1247
 8387SOL     OW26059   1.072   0.940   6.690  0.6946  0.2211  0.0911
 8387SOL    HW126060   1.137   0.989   6.748  0.7808  0.0882  0.1082
 8387SOL    HW226061   1.043   0.999   6.615 -0.9558  1.1136  1.3665
 8388SOL     OW26062   2.660   4.937   0.371 -0.4357 -0.5485  0.0049
 8388SOL    HW126063   2.586   5.004   0.365  0.1474  0.1052 -0.0573
 8388SOL    HW226064   2.675   4.913   0.467  0.2362  0.4373  0.1621
 8389SOL     OW26065   0.768   2.962   2.472  0.2945  0.0679 -0.2087
 8389SOL    HW126066   0.680   2.919   2.452 -0.7301  2.0945 -0.2943
 8389SOL    HW226067   0.841   2.912   2.425 -0.6545 -2.1614  0.5304
 8390SOL     OW26068   5.391   2.224   0.904  0.3426  0.0437 -0.0744
 8390SOL    HW126069   5.473   2.174   0.878  0.8189  1.7715 -2.1383
 8390SOL    HW226070   5.322   2.216   0.832 -0.8907 -0.4407  1.1140
 8391SOL     OW26071   5.732   4.718   2.113 -0.3486 -0.6662 -0.2510
 8391SOL    HW126072   5.647   4.693   2.065 -1.0204 -0.2583  0.7130
 8391SOL    HW226073   5.734   4.673   2.202  0.5901 -0.8862 -0.3726
 8392SOL     OW26074   6.509   4.728   4.421 -0.2213  0.2731  0.3336
 8392SOL    HW126075   6.474   4.666   4.491  0.9796 -0.6787  0.0997
 8392SOL    HW226076   6.461   4.712   4.335  0.6339 -0.9140  0.0596
 8393SOL     OW26077   1.663   6.530   4.864 -0.7227 -0.1718 -0.0154
 8393SOL    HW126078   1.681   6.624   4.836 -2.3603  0.4608  0.9679
 8393SOL    HW226079   1.743   6.473   4.841  0.7081  1.6184  0.2932
 8394SOL     OW26080   6.010   2.826   2.363 -0.8263 -0.0956  0.0770
 8394SOL    HW126081   6.076   2.754   2.340 -1.4834 -0.0973 -1.9736
 8394SOL    HW226082   6.036   2.868   2.451  1.6822 -0.3646 -0.4591
 8395SOL     OW26083   2.319   1.617   4.988  0.3417 -0.4351  0.4936
 8395SOL    HW126084   2.248   1.557   5.025  0.3830 -0.2743  0.8367
 8395SOL    HW226085   2.289   1.712   4.995  0.9180 -0.3042  1.3853
 8396SOL     OW26086   4.824   5.194   1.668 -0.3027 -0.0935  0.1526
 8396SOL    HW126087   4.835   5.132   1.745 -0.5177 -0.1423  0.1456
 8396SOL    HW226088   4.764   5.269   1.695 -1.5696 -0.8796 -0.4071
 8397SOL     OW26089   2.400   0.946   3.108 -0.2191  0.7650  0.0393
 8397SOL    HW126090   2.384   1.019   3.174  1.1228  0.6916  0.4823
 8397SOL    HW226091   2.376   0.858   3.149  0.4318  0.7389  0.3880
 8398SOL     OW26092   4.936   1.278   6.513 -0.3013  0.0014  0.2464
 8398SOL    HW126093   5.018   1.335   6.516 -0.0911 -0.2592 -0.2884
 8398SOL    HW226094   4.865   1.324   6.460 -0.4406  0.1578  0.5730
 8399SOL     OW26095   5.321   0.096   1.395  0.2213 -0.4982 -1.0542
 8399SOL    HW126096   5.245   0.032   1.385  0.0301 -0.0211 -3.0622
 8399SOL    HW226097   5.301   0.161   1.468 -1.1839 -0.5524 -1.3668
 8400SOL     OW26098   1.886   2.875   5.061 -0.4877  0.2830 -0.1811
 8400SOL    HW126099   1.909   2.838   4.971  0.5385  0.5903 -0.0618
 8400SOL    HW226100   1.959   2.938   5.091 -0.6224 -0.1046  1.0223
 8401SOL     OW26101   2.968   0.972   4.496  0.4256 -0.1299 -0.0984
 8401SOL    HW126102   2.987   0.876   4.517  1.1399 -0.1326 -0.7452
 8401SOL    HW226103   3.052   1.017   4.466  0.4347  1.0761  1.5764
 8402SOL     OW26104   3.571   1.630   6.440  0.0181 -0.0903 -0.2865
 8402SOL    HW126105   3.507   1.705   6.426  0.4326  0.2337 -0.4796
 8402SOL    HW226106   3.663   1.659   6.411 -0.1310 -1.2431 -2.0575
 8403SOL     OW26107   5.291   4.026   4.097  0.4512  0.0337  0.2088
 8403SOL    HW126108   5.338   3.994   4.015 -0.8922  2.1073 -1.4837
 8403SOL    HW226109   5.320   4.120   4.117  0.7875 -0.4376  2.1885
 8404SOL     OW26110   3.599   6.745   6.643  0.5760  0.0680 -0.2031
 8404SOL    HW126111   3.654   6.746   6.726  0.2809 -0.4090  0.0001
 8404SOL    HW226112   3.651   6.787   6.568  0.5758  1.1574  0.3833
 8405SOL     OW26113   2.277   0.552   4.678  0.0276 -0.0073 -0.6563
 8405SOL    HW126114   2.187   0.539   4.719 -0.5920  0.9809 -1.6318
 8405SOL    HW226115   2.340   0.588   4.747 -0.2425 -0.9643  0.1030
 8406SOL     OW26116   4.688   0.974   0.975  0.2451  0.1110  0.1822
 8406SOL    HW126117   4.722   1.017   0.891  0.1969  0.8443  0.5335
 8406SOL    HW226118   4.611   1.026   1.011  1.2862  0.7690  1.5627
 8407SOL     OW26119   3.837   5.140   2.087 -0.0718  0.0277  0.1427
 8407SOL    HW126120   3.755   5.087   2.065  0.5906 -0.5446 -1.0342
 8407SOL    HW226121   3.893   5.151   2.005  0.9055  0.6498  0.8674
 8408SOL     OW26122   3.635   3.951   1.720  0.0424 -0.7507  0.2062
 8408SOL    HW126123   3.551   3.957   1.667 -0.2523  0.8297  0.7669
 8408SOL    HW226124   3.673   4.043   1.732  2.2403 -1.4900 -0.6060
 8409SOL     OW26125   5.895   1.935   3.506  0.3352  0.1348  0.0602
 8409SOL    HW126126   5.941   1.971   3.425 -0.3813 -0.7080 -0.7389
 8409SOL    HW226127   5.816   1.992   3.528  0.5142  0.3478  0.1508
 8410SOL     OW26128   5.134   1.918   2.119 -0.1736 -0.3300  0.0451
 8410SOL    HW126129   5.226   1.940   2.151  1.3313 -1.1198 -3.3481
 8410SOL    HW226130   5.134   1.828   2.077 -2.3442 -0.0585 -0.6729
 8411SOL     OW26131   1.866   4.442   0.214 -0.4883  0.3717 -0.2086
 8411SOL    HW126132   1.886   4.513   0.147  0.4486 -0.7146 -1.1321
 8411SOL    HW226133   1.780   4.397   0.191  0.2572 -0.5932 -1.2715
 8412SOL     OW26134   5.794   6.786   1.375 -0.1177  0.0982 -0.3819
 8412SOL    HW126135   5.883   6.829   1.387 -0.2746  0.3337 -0.0259
 8412SOL    HW226136   5.727   6.830   1.436 -0.2718 -0.6685  0.0275
 8413SOL     OW26137   1.955   3.741   6.028  0.1057 -0.3005 -0.1146
 8413SOL    HW126138   1.893   3.666   6.050 -2.8604  2.3266  1.2967
 8413SOL    HW226139   1.957   3.806   6.105  0.9673  2.0314 -1.9816
 8414SOL     OW26140   3.477   6.922   2.222  0.0507 -0.2599  0.0566
 8414SOL    HW126141   3.450   6.966   2.307 -0.3019  1.6412 -0.9829
 8414SOL    HW226142   3.409   6.943   2.151 -0.7035 -3.3819 -0.2755
 8415SOL     OW26143   1.606   0.814   3.736 -0.1055 -1.0203 -0.0002
 8415SOL    HW126144   1.571   0.875   3.664 -0.4114  1.3816  2.0456
 8415SOL    HW226145   1.530   0.771   3.783 -0.2065  0.7686  1.5866
 8416SOL     OW26146   4.803   1.689   3.188  0.5455  0.0064 -0.9066
 8416SOL    HW126147   4.734   1.672   3.258  0.1799  0.6484 -1.1068
 8416SOL    HW226148   4.880   1.739   3.228  0.5921 -0.1252 -0.8329
 8417SOL     OW26149   1.686   5.351   5.997  0.1947  0.0980 -0.2355
 8417SOL    HW126150   1.739   5.297   5.932  1.2941  0.7231  0.1106
 8417SOL    HW226151   1.631   5.418   5.946  0.2869 -0.0723 -0.5657
 8418SOL     OW26152   3.776   4.386   0.113 -0.1396  0.0061  0.0790
 8418SOL    HW126153   3.735   4.306   0.070 -0.3129  0.2559 -0.2223
 8418SOL    HW226154   3.770   4.377   0.213 -0.9526  0.0547  0.0350
 8419SOL     OW26155   5.191   0.012   2.567 -0.3978  0.2514  0.0222
 8419SOL    HW126156   5.173  -0.020   2.660  1.0911 -1.4784 -0.2327
 8419SOL    HW226157   5.153  -0.053   2.501 -1.2460  1.3503 -0.6047
 8420SOL     OW26158   5.692   0.275   1.776  0.1409 -0.1047 -0.4227
 8420SOL    HW126159   5.595   0.296   1.763 -0.8507 -1.7227  3.0995
 8420SOL    HW226160   5.743   0.360   1.788 -0.9191  0.7456 -1.6556
 8421SOL     OW26161   2.128   5.072   0.889 -0.0106  0.3094  0.3633
 8421SOL    HW126162   2.161   5.150   0.943 -0.9168  0.1865  1.1205
 8421SOL    HW226163   2.029   5.080   0.876  0.2754  0.8089 -2.0816
 8422SOL     OW26164   4.692   1.305   2.073  0.3019  0.0874 -0.3158
 8422SOL    HW126165   4.764   1.364   2.036  0.1745  0.1654 -0.4375
 8422SOL    HW226166   4.645   1.351   2.147  1.2599 -0.4692  0.6727
 8423SOL     OW26167   2.618   5.331   0.913 -0.4230 -0.1394  0.2994
 8423SOL    HW126168   2.568   5.277   0.844  0.6051 -0.3593 -0.2881
 8423SOL    HW226169   2.710   5.295   0.923  0.3929  1.6506 -0.3063
 8424SOL     OW26170   1.854   2.975   0.557  0.7546  0.3418  0.0272
 8424SOL    HW126171   1.875   2.945   0.464  2.5898  1.4053  0.0443
 8424SOL    HW226172   1.757   2.960   0.576  0.0373  1.2941 -2.4932
 8425SOL     OW26173   3.044   5.042   6.911 -0.3101 -0.4029  0.1900
 8425SOL    HW126174   2.968   4.978   6.898 -0.6397 -0.1259  0.7093
 8425SOL    HW226175   3.130   4.991   6.916 -0.5083 -0.7569  0.0462
 8426SOL     OW26176   2.940   3.364   3.413 -0.1754  0.8574 -0.2295
 8426SOL    HW126177   3.037   3.346   3.399  0.0180  1.2129  0.5885
 8426SOL    HW226178   2.896   3.386   3.326  0.4580  0.6208 -0.6096
 8427SOL     OW26179   3.065   3.658   4.848  0.3189  0.1726  0.0409
 8427SOL    HW126180   3.001   3.640   4.923 -1.0028 -3.0114 -1.6695
 8427SOL    HW226181   3.151   3.611   4.866 -0.0451 -0.7052 -0.4146
 8428SOL     OW26182   0.900   6.019   0.569  0.1709 -0.0565 -0.1476
 8428SOL    HW126183   0.877   5.922   0.571 -1.7945  0.2997 -1.7240
 8428SOL    HW226184   0.821   6.074   0.595  1.1800  1.1577  0.5278
 8429SOL     OW26185   6.670   0.960   2.970 -0.1386 -0.1332 -0.3505
 8429SOL    HW126186   6.597   0.905   3.010  0.1920 -1.0565 -0.9842
 8429SOL    HW226187   6.746   0.901   2.944  0.5094  0.7167 -0.4205
 8430SOL     OW26188   2.306   5.384   1.373 -0.3703  0.2997 -0.1137
 8430SOL    HW126189   2.215   5.418   1.346 -0.4737 -0.7461 -1.1497
 8430SOL    HW226190   2.298   5.290   1.406  0.7824 -1.4926 -4.2757
 8431SOL     OW26191   2.865   4.557   1.097 -0.3161 -0.4586  0.5970
 8431SOL    HW126192   2.802   4.481   1.111  0.8521 -1.4669  0.5072
 8431SOL    HW226193   2.833   4.636   1.150 -1.8155 -0.8313  0.2963
 8432SOL     OW26194   4.888   6.548   5.486  0.1635  0.4032 -1.1033
 8432SOL    HW126195   4.970   6.585   5.529  0.2218  2.2387 -2.6538
 8432SOL    HW226196   4.912   6.472   5.426  1.0041  1.7687 -2.5827
 8433SOL     OW26197   2.779   0.607   0.661 -0.4751 -0.3521 -0.4208
 8433SOL    HW126198   2.785   0.706   0.672  2.3793 -0.5349  0.4376
 8433SOL    HW226199   2.762   0.564   0.750  1.6550 -0.7417 -0.1432
 8434SOL     OW26200   3.703   6.367   5.072  0.3675 -0.3980  0.5586
 8434SOL    HW126201   3.745   6.338   4.985  0.3910 -2.3228  1.1641
 8434SOL    HW226202   3.607   6.338   5.074 -0.5579  2.3140 -0.0227
 8435SOL     OW26203   5.584   6.546   1.726 -0.0187  0.7180  0.2618
 8435SOL    HW126204   5.654   6.577   1.661 -0.4899  0.1340 -0.5538
 8435SOL    HW226205   5.624   6.480   1.789 -0.0380 -0.4875 -0.9144
 8436SOL     OW26206   4.256   0.423   3.137 -0.2035  0.5376  0.3274
 8436SOL    HW126207   4.168   0.468   3.123  0.0590  0.6493 -1.0371
 8436SOL    HW226208   4.242   0.324   3.144 -0.3701  0.4733 -0.7311
 8437SOL     OW26209   3.915   1.666   3.434  0.6078 -0.1970  0.0021
 8437SOL    HW126210   3.935   1.682   3.338  0.1378  0.1885 -0.0374
 8437SOL    HW226211   3.877   1.574   3.445  1.9581 -0.7785  0.0244
 8438SOL     OW26212   2.340   4.632   2.744  0.5100 -0.0122  0.1909
 8438SOL    HW126213   2.262   4.656   2.802  1.3145 -0.0760  1.3202
 8438SOL    HW226214   2.383   4.548   2.778  0.4138 -0.6007 -1.0881
 8439SOL     OW26215   6.325   5.559   2.855 -0.0031 -0.1494  0.0233
 8439SOL    HW126216   6.368   5.470   2.868 -1.8489 -1.0676  0.2820
 8439SOL    HW226217   6.351   5.597   2.766 -0.1366 -1.5205 -0.6117
 8440SOL     OW26218   0.674   3.086   5.797 -0.5081  0.2175 -0.6595
 8440SOL    HW126219   0.731   3.030   5.736 -0.7872 -0.6786 -0.1185
 8440SOL    HW226220   0.710   3.179   5.800  1.3431 -0.4588  0.1584
 8441SOL     OW26221   5.643   0.806   1.919  0.9654  0.2660  0.4732
 8441SOL    HW126222   5.639   0.866   1.839  1.3271 -1.4705 -0.9120
 8441SOL    HW226223   5.565   0.826   1.979  0.1581  1.0118 -0.7632
 8442SOL     OW26224   2.857   1.495   5.562  0.0814  0.0218 -0.6013
 8442SOL    HW126225   2.918   1.495   5.641 -1.2421  1.3763  0.4597
 8442SOL    HW226226   2.908   1.462   5.482  1.2055 -2.2272  0.9389
 8443SOL     OW26227   1.763   5.522   3.781 -0.0527  0.4043  0.2281
 8443SOL    HW126228   1.786   5.428   3.807  1.6390  0.4801 -0.8297
 8443SOL    HW226229   1.720   5.522   3.691  1.9192  0.7433 -0.7777
 8444SOL     OW26230   3.748   6.788   6.152 -0.3454  0.6497  0.4365
 8444SOL    HW126231   3.734   6.861   6.085  0.2237  1.3231  1.0366
 8444SOL    HW226232   3.825   6.731   6.123 -0.6026  0.4641  0.1157
 8445SOL     OW26233   4.933   0.215   1.814  0.3032 -0.4495  0.2593
 8445SOL    HW126234   4.890   0.283   1.754 -0.1838 -1.7996 -0.9975
 8445SOL    HW226235   4.861   0.166   1.863  0.6135 -0.4423  0.7165
 8446SOL     OW26236   4.444   5.803   0.203  0.6299 -0.5206  0.7393
 8446SOL    HW126237   4.529   5.769   0.243  0.8585 -1.3459 -0.3921
 8446SOL    HW226238   4.369   5.743   0.230  0.7420 -0.9288  0.1621
 8447SOL     OW26239   6.089   2.305   2.846 -0.0696  0.2321  0.1921
 8447SOL    HW126240   6.113   2.242   2.773 -3.2021  0.7592 -1.4554
 8447SOL    HW226241   5.997   2.342   2.830  0.2855  2.6400  2.8722
 8448SOL     OW26242   5.113   0.422   3.728  0.2311  0.3387 -0.1284
 8448SOL    HW126243   5.064   0.472   3.657 -1.2043  1.2240  1.4093
 8448SOL    HW226244   5.058   0.345   3.760  0.3175  0.6584  0.8336
 8449SOL     OW26245   0.234   2.460   4.436 -0.5657 -0.0878  0.8253
 8449SOL    HW126246   0.299   2.442   4.362 -1.2152  0.8112 -0.0123
 8449SOL    HW226247   0.246   2.394   4.509 -0.9378 -2.0304 -0.7814
 8450SOL     OW26248   1.645   1.235   2.074 -0.1862 -0.3517 -0.5595
 8450SOL    HW126249   1.693   1.173   2.135  0.1690  0.1526 -0.3160
 8450SOL    HW226250   1.684   1.327   2.082 -0.0435 -0.3010 -1.6351
 8451SOL     OW26251   1.244   1.888   1.911 -0.9634 -0.8711 -0.3039
 8451SOL    HW126252   1.313   1.951   1.946 -1.8817 -0.4447  0.7888
 8451SOL    HW226253   1.246   1.804   1.965 -0.4348 -1.3862 -1.1055
 8452SOL     OW26254   0.755   3.288   3.335  0.1230  0.4288  0.1337
 8452SOL    HW126255   0.802   3.310   3.420 -0.8879 -0.8937  1.0875
 8452SOL    HW226256   0.746   3.370   3.279  0.2760  1.4553  1.5809
 8453SOL     OW26257   1.086   5.099   0.192  0.2062  0.7894 -0.1443
 8453SOL    HW126258   1.035   5.013   0.188  1.5893 -0.0529 -0.6920
 8453SOL    HW226259   1.130   5.107   0.281  0.7112  0.5354 -0.3673
 8454SOL     OW26260   5.985   5.666   1.553 -0.3689  0.5244  0.1964
 8454SOL    HW126261   6.072   5.701   1.520  0.9287  1.1295  3.7642
 8454SOL    HW226262   5.985   5.566   1.549 -0.2896  0.5770 -1.4794
 8455SOL     OW26263   6.218   1.700   0.599 -0.1377 -0.2022 -0.0680
 8455SOL    HW126264   6.275   1.623   0.571  0.4459  0.3729 -0.4700
 8455SOL    HW226265   6.141   1.708   0.536 -0.5919 -0.8760  0.3805
 8456SOL     OW26266   3.442   6.624   4.913  0.1937 -0.5187 -0.2865
 8456SOL    HW126267   3.358   6.571   4.898 -1.0140  0.8855  1.1595
 8456SOL    HW226268   3.435   6.711   4.866 -0.5521  0.8892  2.2282
 8457SOL     OW26269   0.156   5.589   3.953 -0.0190 -0.4263 -0.3254
 8457SOL    HW126270   0.095   5.664   3.979 -0.0240  0.1538 -1.8871
 8457SOL    HW226271   0.194   5.608   3.862  0.6432 -1.9159 -0.3788
 8458SOL     OW26272   2.346   5.700   2.241 -0.0440  0.0149 -0.0743
 8458SOL    HW126273   2.413   5.633   2.209 -1.3049 -0.9491 -0.7704
 8458SOL    HW226274   2.394   5.779   2.279  1.6126  1.0298 -3.7945
 8459SOL     OW26275   3.706   5.902   2.977  0.2451  0.5283  0.3979
 8459SOL    HW126276   3.609   5.900   2.952  0.2075  0.8957  0.5060
 8459SOL    HW226277   3.742   5.809   2.978  0.1147  0.4596 -0.5156
 8460SOL     OW26278   2.873   3.576   4.676 -0.3611  0.2535  0.0476
 8460SOL    HW126279   2.809   3.653   4.669 -3.1252 -1.5323  2.8074
 8460SOL    HW226280   2.936   3.592   4.752 -2.3125 -0.9242  2.0351
 8461SOL     OW26281   1.659   4.710   4.609 -0.1554  0.0106  0.2214
 8461SOL    HW126282   1.615   4.792   4.646 -1.6399 -1.3534  1.6848
 8461SOL    HW226283   1.728   4.678   4.673 -1.4892 -1.3676  1.0318
 8462SOL     OW26284   2.840   1.963   6.395 -0.5288  0.5869  0.1588
 8462SOL    HW126285   2.935   1.992   6.400 -0.5707  0.6085  1.0426
 8462SOL    HW226286   2.791   1.995   6.476 -1.3438  0.7592 -0.3884
 8463SOL     OW26287   6.808   0.248   1.620 -0.2265 -0.1136 -0.5751
 8463SOL    HW126288   6.718   0.228   1.658  0.6727 -1.1551  1.1303
 8463SOL    HW226289   6.798   0.303   1.537 -2.3912  0.2018 -0.1569
 8464SOL     OW26290   6.621   4.683   3.980  0.6016  0.3880 -0.2511
 8464SOL    HW126291   6.548   4.616   3.986 -0.0670  1.2405  1.8987
 8464SOL    HW226292   6.704   4.646   4.021  0.7314  0.2672 -0.6163
 8465SOL     OW26293   6.994   4.247   6.393  0.0279 -0.2510 -0.0560
 8465SOL    HW126294   6.950   4.303   6.463 -0.4347  0.9648 -1.2641
 8465SOL    HW226295   6.939   4.250   6.309  2.1615  0.9931 -1.5039
 8466SOL     OW26296   2.029   6.847   2.003  0.1130  0.0622 -0.3844
 8466SOL    HW126297   1.973   6.784   2.056  0.9272  0.2697  0.7608
 8466SOL    HW226298   2.124   6.842   2.034  0.9106 -0.8047 -2.7643
 8467SOL     OW26299   3.700   5.356   5.797  0.6964  0.6439 -0.3378
 8467SOL    HW126300   3.631   5.363   5.869 -0.9243  2.1935 -1.9372
 8467SOL    HW226301   3.768   5.429   5.809  0.5634  0.7564 -0.2685
 8468SOL     OW26302   5.461   1.843   5.714  0.0764 -0.5262  0.2126
 8468SOL    HW126303   5.515   1.922   5.684 -0.9842  0.4608  0.8374
 8468SOL    HW226304   5.447   1.781   5.637 -0.9188  0.9680 -0.8587
 8469SOL     OW26305   2.455   2.812   0.052  0.5017  0.0606  0.0551
 8469SOL    HW126306   2.540   2.863   0.068  0.9856  0.3138 -2.7372
 8469SOL    HW226307   2.474   2.734  -0.008 -1.1486 -0.3040 -0.0425
 8470SOL     OW26308   5.400   3.958   1.024 -0.2608  0.2444 -0.1381
 8470SOL    HW126309   5.379   3.929   0.930 -0.9511  1.5684 -0.4140
 8470SOL    HW226310   5.490   4.000   1.027 -0.5068  0.8037 -0.3614
 8471SOL     OW26311   3.016   1.636   3.872  0.6995  0.2071  0.6076
 8471SOL    HW126312   3.023   1.735   3.863 -0.1641  0.1339 -1.1884
 8471SOL    HW226313   3.075   1.592   3.805 -1.1504 -0.4424 -0.6700
 8472SOL     OW26314   2.040   0.497   5.486  0.0761  0.4504  0.7502
 8472SOL    HW126315   2.077   0.537   5.402 -0.6493 -0.3724  0.0222
 8472SOL    HW226316   2.081   0.408   5.503  0.5766  0.8169  1.5507
 8473SOL     OW26317   6.398   6.799   6.217 -0.0851 -0.3194 -0.1190
 8473SOL    HW126318   6.348   6.753   6.144  1.4780  3.0196 -3.6578
 8473SOL    HW226319   6.493   6.771   6.216 -0.1087 -0.4901  0.9317
 8474SOL     OW26320   2.578   3.559   0.304  0.0327  0.2581  0.4473
 8474SOL    HW126321   2.563   3.477   0.248 -0.6638  1.9813 -2.0566
 8474SOL    HW226322   2.500   3.620   0.295 -0.8057  0.0920  4.5470
 8475SOL     OW26323   1.229   2.417   2.284 -0.4983  0.3948 -0.0442
 8475SOL    HW126324   1.287   2.337   2.269 -0.3716  0.5462 -0.3578
 8475SOL    HW226325   1.155   2.417   2.216 -1.7669 -0.6210  1.2698
 8476SOL     OW26326   1.072   1.489   2.215  0.5242 -1.2347 -0.0330
 8476SOL    HW126327   1.085   1.422   2.288 -2.1437 -1.2682  0.5222
 8476SOL    HW226328   1.054   1.442   2.129  1.6482 -1.1917 -0.3064
 8477SOL     OW26329   0.676   5.042   0.867 -0.0292  0.0304 -0.0528
 8477SOL    HW126330   0.611   5.028   0.941  0.2556 -0.0260  0.1839
 8477SOL    HW226331   0.754   4.981   0.878 -0.3471 -0.5341 -0.8246
 8478SOL     OW26332   1.765   0.122   6.432 -0.4331 -0.2257 -0.0733
 8478SOL    HW126333   1.759   0.032   6.390  1.4322  0.0468 -1.0499
 8478SOL    HW226334   1.862   0.146   6.445 -0.9064  1.2073  1.1282
 8479SOL     OW26335   6.985   2.403   3.125  0.1271 -0.0948  0.4026
 8479SOL    HW126336   7.040   2.382   3.044 -0.3451 -0.6926  0.2284
 8479SOL    HW226337   6.896   2.438   3.097  1.0166  2.5877  0.6882
 8480SOL     OW26338   5.005   0.241   6.558  0.1193  0.5849  0.1515
 8480SOL    HW126339   5.093   0.241   6.511 -0.8095  0.8887 -1.6697
 8480SOL    HW226340   4.959   0.328   6.541 -0.9330  0.0644  0.2700
 8481SOL     OW26341   5.247   2.386   3.263 -0.1004  0.3469  0.6288
 8481SOL    HW126342   5.291   2.475   3.249  0.2290  0.1431  0.3310
 8481SOL    HW226343   5.259   2.331   3.181  0.5735 -0.3417  1.1797
 8482SOL     OW26344   4.034   5.982   3.141 -0.4520  0.3628  1.0515
 8482SOL    HW126345   4.001   6.034   3.062 -0.3024 -2.0870 -0.7338
 8482SOL    HW226346   4.045   6.044   3.219 -0.4076  2.9325 -0.8584
 8483SOL     OW26347   3.569   4.932   3.092 -0.1875 -0.0646  0.4792
 8483SOL    HW126348   3.641   4.994   3.058 -0.4560  0.0463  0.1068
 8483SOL    HW226349   3.579   4.921   3.191  0.3072 -0.0020  0.4412
 8484SOL     OW26350   1.032   2.353   3.673  0.3221  0.1541  0.3329
 8484SOL    HW126351   1.015   2.444   3.633 -0.4608 -0.5661 -1.0486
 8484SOL    HW226352   1.116   2.357   3.727  1.3064  1.2988 -1.1541
 8485SOL     OW26353   4.582   1.491   0.586 -0.2254 -0.3957  0.0592
 8485SOL    HW126354   4.532   1.404   0.576 -0.4853 -0.2284 -0.1066
 8485SOL    HW226355   4.680   1.472   0.591 -0.1746 -0.6053 -1.3104
 8486SOL     OW26356   6.732   2.178   1.896  0.7211  0.1316 -0.0077
 8486SOL    HW126357   6.699   2.236   1.970 -3.5077 -0.1946 -1.3907
 8486SOL    HW226358   6.778   2.234   1.827  0.4387  1.1735  0.6270
 8487SOL     OW26359   5.670   0.648   0.193  0.1053  0.1084 -0.1882
 8487SOL    HW126360   5.710   0.556   0.193  0.6343  0.2451 -3.2376
 8487SOL    HW226361   5.743   0.716   0.208 -0.2349  0.1120  1.7208
 8488SOL     OW26362   5.033   4.211   4.958 -0.3740 -0.6140 -0.4278
 8488SOL    HW126363   4.959   4.146   4.977  0.3459 -0.9616  1.4983
 8488SOL    HW226364   5.120   4.162   4.961  0.0876  0.2091 -0.2351
 8489SOL     OW26365   5.951   0.663   1.693 -0.1657 -0.4835 -0.0315
 8489SOL    HW126366   5.923   0.754   1.663  1.3530 -0.1240 -0.4855
 8489SOL    HW226367   5.955   0.602   1.614  2.0355 -0.0241 -0.3598
 8490SOL     OW26368   4.049   5.744   5.178  0.8662  0.1265 -0.2567
 8490SOL    HW126369   4.012   5.780   5.263  1.3051 -2.6915  1.2276
 8490SOL    HW226370   3.996   5.665   5.149  0.4500  1.2707 -2.9420
 8491SOL     OW26371   1.408   6.134   0.418 -0.4936  0.2661  0.4362
 8491SOL    HW126372   1.398   6.064   0.489 -1.7294  1.9023  1.9685
 8491SOL    HW226373   1.320   6.152   0.375  0.0556  0.0045 -0.8460
 8492SOL     OW26374   2.673   3.155   5.976  0.0286 -0.3727  0.0934
 8492SOL    HW126375   2.750   3.172   5.915 -0.7440  0.6197 -0.6557
 8492SOL    HW226376   2.707   3.139   6.069  1.1485 -0.2981 -0.2857
 8493SOL     OW26377   2.314   2.116   5.034 -0.4178  0.2282 -0.1533
 8493SOL    HW126378   2.365   2.162   4.961  0.0529  0.5236  0.3548
 8493SOL    HW226379   2.378   2.088   5.105 -0.8552 -0.2131  0.0638
 8494SOL     OW26380   1.636   4.619   6.379  0.0177 -0.0607  0.2188
 8494SOL    HW126381   1.671   4.526   6.387  1.0983  0.3244  0.1912
 8494SOL    HW226382   1.664   4.671   6.460  1.5939  0.8997 -0.8728
 8495SOL     OW26383   4.601   3.910   6.514 -0.0729  0.2871  0.0773
 8495SOL    HW126384   4.596   3.822   6.467  0.3669  0.1729  0.2378
 8495SOL    HW226385   4.685   3.957   6.488 -1.2225  1.5479 -1.5244
 8496SOL     OW26386   6.581   2.327   0.243  0.0172 -0.1318 -0.7524
 8496SOL    HW126387   6.630   2.286   0.319 -0.3614 -1.3774 -1.1644
 8496SOL    HW226388   6.596   2.273   0.160 -0.4676  0.5815 -1.3158
 8497SOL     OW26389   6.821   1.288   4.432  0.0678  0.1028  0.2287
 8497SOL    HW126390   6.776   1.344   4.363 -2.4314 -0.5838  1.2072
 8497SOL    HW226391   6.871   1.348   4.495 -0.5683  1.0168 -0.1113
 8498SOL     OW26392   2.725   6.493   4.383  0.4512 -0.1626 -0.5555
 8498SOL    HW126393   2.778   6.557   4.441  1.0756 -2.2359  1.3052
 8498SOL    HW226394   2.769   6.485   4.294  1.7802  0.1396  0.0448
 8499SOL     OW26395   2.336   4.872   6.142  0.3089 -0.0870  1.1085
 8499SOL    HW126396   2.373   4.809   6.073  0.3405  0.6153  0.4654
 8499SOL    HW226397   2.365   4.966   6.120 -2.6392  0.6881 -0.0568
 8500SOL     OW26398   1.585   1.000   6.033 -0.3852  0.3607 -0.7824
 8500SOL    HW126399   1.575   1.011   5.934  1.2341  0.0302 -0.9994
 8500SOL    HW226400   1.601   1.089   6.075  0.8588  0.2859 -1.0712
 8501SOL     OW26401   0.430   1.045   1.157 -0.2023  0.4002  0.2025
 8501SOL    HW126402   0.497   0.994   1.103  0.0323 -0.4989  1.3231
 8501SOL    HW226403   0.463   1.139   1.171 -0.4052  0.7586 -1.4298
 8502SOL     OW26404   0.743   5.409   1.862 -0.1717  0.1688 -0.4264
 8502SOL    HW126405   0.687   5.357   1.926  0.6228  0.9037  0.9054
 8502SOL    HW226406   0.806   5.347   1.815 -0.7785 -0.3830 -0.5263
 8503SOL     OW26407   3.923   6.554   4.504  0.4228  0.0818 -0.1342
 8503SOL    HW126408   3.865   6.609   4.444  0.3250  0.4271  0.2744
 8503SOL    HW226409   3.923   6.459   4.472  1.7862  0.5798 -1.7454
 8504SOL     OW26410   1.561   5.837   3.462 -0.0351  0.0551 -0.2263
 8504SOL    HW126411   1.611   5.873   3.384  0.0908 -1.6829 -0.9956
 8504SOL    HW226412   1.604   5.752   3.493 -2.2733 -1.3771 -0.7443
 8505SOL     OW26413   5.380   4.315   2.571  0.3493  0.0952 -0.3939
 8505SOL    HW126414   5.311   4.273   2.512  0.6688  0.2716 -0.9033
 8505SOL    HW226415   5.398   4.255   2.649 -1.6647  0.8539  0.7200
 8506SOL     OW26416   6.613   1.781   0.158  0.0267  0.3384  0.7590
 8506SOL    HW126417   6.549   1.794   0.233 -3.9571 -0.9248 -2.0404
 8506SOL    HW226418   6.637   1.869   0.118 -0.8822  0.8133  1.2291
 8507SOL     OW26419   4.525   0.269   6.377 -0.3018 -0.1823  0.1475
 8507SOL    HW126420   4.511   0.360   6.416  0.9889 -0.1047  0.4733
 8507SOL    HW226421   4.615   0.235   6.405 -0.4216 -1.2022 -0.6782
 8508SOL     OW26422   6.634   2.910   4.362  0.0122  0.0739 -0.5106
 8508SOL    HW126423   6.570   2.951   4.427 -0.5025 -1.4751  0.0204
 8508SOL    HW226424   6.727   2.939   4.385 -0.0729 -0.9611  1.4269
 8509SOL     OW26425   5.145   1.656   2.692 -0.4778  0.2160  0.0574
 8509SOL    HW126426   5.189   1.645   2.781 -1.6483  0.8677  0.7480
 8509SOL    HW226427   5.181   1.589   2.628  0.5101 -0.1509  0.9709
 8510SOL     OW26428   5.543   4.650   3.342 -0.6020  0.1902  0.0236
 8510SOL    HW126429   5.588   4.739   3.352  0.0043 -0.0981 -0.0901
 8510SOL    HW226430   5.579   4.603   3.262 -2.2136  0.5893 -0.9719
 8511SOL     OW26431   5.296   2.658   2.127 -0.3062  0.3018 -0.0302
 8511SOL    HW126432   5.376   2.611   2.164  0.2009  0.4640 -0.8993
 8511SOL    HW226433   5.309   2.757   2.136 -0.9684  0.3122  0.9621
 8512SOL     OW26434   1.835   0.940   1.664  1.1739 -0.5841 -0.3269
 8512SOL    HW126435   1.857   0.925   1.568 -0.2668 -0.4856 -0.7081
 8512SOL    HW226436   1.837   1.038   1.684 -0.5385 -0.4003 -0.8372
 8513SOL     OW26437   5.693   4.556   1.249 -0.0268 -0.5216 -0.2116
 8513SOL    HW126438   5.752   4.636   1.259 -0.8931 -0.0175  1.2898
 8513SOL    HW226439   5.672   4.518   1.339 -2.9041  0.0427 -0.5276
 8514SOL     OW26440   4.006   1.961   3.718  1.0988  0.3897 -0.7689
 8514SOL    HW126441   3.949   2.043   3.717 -0.1765 -0.1514  3.9777
 8514SOL    HW226442   4.098   1.985   3.749  0.4295  0.0739  1.7025
 8515SOL     OW26443   0.248   1.616   6.586  0.2910  0.6012  0.2403
 8515SOL    HW126444   0.249   1.519   6.608  0.8639  0.1147 -1.7148
 8515SOL    HW226445   0.193   1.665   6.653 -0.5980 -1.1689  0.8625
 8516SOL     OW26446   0.779   1.195   1.841 -0.2612 -0.2352  0.1872
 8516SOL    HW126447   0.743   1.270   1.785  1.6192  1.3416  0.9550
 8516SOL    HW226448   0.791   1.226   1.935 -0.3256 -1.8174  0.7478
 8517SOL     OW26449   0.526   1.750   1.565  0.4669  0.0533 -0.0833
 8517SOL    HW126450   0.431   1.781   1.574  0.4243 -0.0074 -0.3234
 8517SOL    HW226451   0.582   1.794   1.635  0.0347 -0.8421  0.8439
 8518SOL     OW26452   3.507   3.646   0.321 -0.2334 -0.4018  0.7077
 8518SOL    HW126453   3.485   3.551   0.343 -0.9214  0.0854  2.2625
 8518SOL    HW226454   3.426   3.703   0.335  0.3964  0.5426  0.6035
 8519SOL     OW26455   0.961   4.162   0.257  0.1902  0.3307 -0.7335
 8519SOL    HW126456   0.887   4.190   0.318 -0.3393 -0.2611 -1.0822
 8519SOL    HW226457   0.928   4.088   0.197  2.2041 -3.0098  1.9148
 8520SOL     OW26458   3.021   2.229   0.740  0.3420  0.0122 -0.2961
 8520SOL    HW126459   2.969   2.248   0.823  1.0396  1.8309 -0.2125
 8520SOL    HW226460   3.022   2.131   0.722 -0.6028 -0.3285  1.3142
 8521SOL     OW26461   2.218   5.895   5.300  0.3879  0.5918  0.4026
 8521SOL    HW126462   2.234   5.797   5.312  0.6282  0.7316  1.2909
 8521SOL    HW226463   2.193   5.913   5.205 -0.2772 -0.4061  0.3761
 8522SOL     OW26464   1.939   6.848   1.028 -0.5302 -0.1967 -0.2916
 8522SOL    HW126465   1.999   6.898   1.091  1.0822 -2.8057  0.3998
 8522SOL    HW226466   1.886   6.780   1.079 -1.1820 -0.5610 -1.4289
 8523SOL     OW26467   3.017   0.067   6.788 -0.4420 -0.2687  0.5268
 8523SOL    HW126468   2.932   0.118   6.782 -0.2610  0.1197  1.2123
 8523SOL    HW226469   3.094   0.130   6.803  0.0617 -0.5497 -0.7559
 8524SOL     OW26470   6.220   4.554   6.280  0.1578  0.5463 -0.1006
 8524SOL    HW126471   6.290   4.513   6.339 -1.4065  0.9576  2.2112
 8524SOL    HW226472   6.180   4.633   6.326 -0.0553  1.9364 -2.5036
 8525SOL     OW26473   4.470   4.761   0.298  0.2282 -0.4877 -0.0442
 8525SOL    HW126474   4.522   4.770   0.213  1.5060 -1.0395  0.6521
 8525SOL    HW226475   4.520   4.805   0.373 -1.6820  1.5037  0.1545
 8526SOL     OW26476   3.678   5.456   6.689  0.4305  0.3476  0.2195
 8526SOL    HW126477   3.727   5.507   6.618  0.9804 -0.4616  0.0112
 8526SOL    HW226478   3.739   5.389   6.731  1.0842  2.8373  3.6370
 8527SOL     OW26479   3.533   6.880   6.960  0.1855  0.1441 -0.3137
 8527SOL    HW126480   3.466   6.954   6.967 -0.3631 -0.1678 -1.7627
 8527SOL    HW226481   3.530   6.824   7.042 -1.4009  0.0956 -0.3786
 8528SOL     OW26482   2.875   0.446   6.621 -0.2657 -0.2658 -0.2172
 8528SOL    HW126483   2.970   0.420   6.606 -0.3857 -0.1587 -1.1781
 8528SOL    HW226484   2.850   0.522   6.562 -1.6023 -1.7917 -1.7339
 8529SOL     OW26485   6.614   1.915   1.026  0.1358  0.1433 -0.7793
 8529SOL    HW126486   6.627   1.917   0.927 -0.5713  0.8237 -0.8644
 8529SOL    HW226487   6.583   2.005   1.057  1.2828  0.2213  0.1929
 8530SOL     OW26488   2.087   4.878   5.704 -0.6372  0.3342  0.1857
 8530SOL    HW126489   2.162   4.816   5.679  0.8811  1.8179  0.8642
 8530SOL    HW226490   2.076   4.947   5.633 -0.5408  0.8356  0.6521
 8531SOL     OW26491   0.104   4.999   2.642 -0.2879  0.0376 -0.3434
 8531SOL    HW126492   0.038   5.040   2.579  0.0968 -0.1091 -0.8471
 8531SOL    HW226493   0.196   5.030   2.620  0.0343 -1.2012 -0.8468
 8532SOL     OW26494   4.100   4.873   5.749 -0.1664  0.5270 -0.5455
 8532SOL    HW126495   4.008   4.844   5.775 -0.0637  2.3013  2.1128
 8532SOL    HW226496   4.105   4.972   5.744  1.3516  0.4420 -1.8841
 8533SOL     OW26497   0.538   0.064   0.121  0.9008  0.2487 -0.4595
 8533SOL    HW126498   0.506  -0.024   0.086 -0.2462  0.6730 -0.5292
 8533SOL    HW226499   0.536   0.132   0.048 -2.0983  1.2976  0.4446
 8534SOL     OW26500   0.237   3.010   5.508  0.0658  0.3197  0.1091
 8534SOL    HW126501   0.259   2.919   5.472  0.3104  0.4285 -0.0183
 8534SOL    HW226502   0.281   3.023   5.597  1.4305  0.9441 -0.6315
 8535SOL     OW26503   0.924   1.233   4.046 -0.0931  0.4145 -0.4086
 8535SOL    HW126504   0.915   1.330   4.028 -3.0791  0.9236  2.7570
 8535SOL    HW226505   0.948   1.185   3.962  0.2678  3.6861 -2.3244
 8536SOL     OW26506   0.677   0.735   4.596  0.1546 -0.6642 -0.4382
 8536SOL    HW126507   0.671   0.765   4.691  0.1265  1.5834 -1.1074
 8536SOL    HW226508   0.586   0.712   4.563 -0.7539  3.5249 -1.3655
 8537SOL     OW26509   4.630   2.013   1.623  0.0529  0.3372 -0.3485
 8537SOL    HW126510   4.543   2.052   1.594 -0.2046  0.3059  0.3683
 8537SOL    HW226511   4.663   1.951   1.551 -0.5086  0.3546 -0.6342
 8538SOL     OW26512   0.792   1.672   1.133 -0.0303  0.2415 -0.2566
 8538SOL    HW126513   0.859   1.599   1.121 -1.6965 -1.2483 -1.0635
 8538SOL    HW226514   0.778   1.689   1.231  0.2746 -0.6665 -0.0425
 8539SOL     OW26515   6.158   0.006   4.437  0.2759 -0.2175  0.2875
 8539SOL    HW126516   6.183  -0.083   4.475 -0.9727 -1.7127 -2.1260
 8539SOL    HW226517   6.059   0.013   4.430  0.0819  2.7644  3.3052
 8540SOL     OW26518   6.334   0.926   0.501 -0.6290 -0.1222 -0.4963
 8540SOL    HW126519   6.409   0.952   0.440  0.2068 -3.3262 -0.9777
 8540SOL    HW226520   6.371   0.893   0.587 -1.5049 -1.1558 -0.5065
 8541SOL     OW26521   4.270   0.929   5.849  0.0904  0.0621 -0.4148
 8541SOL    HW126522   4.358   0.949   5.805  1.3687 -0.2527  1.8594
 8541SOL    HW226523   4.214   1.012   5.849  1.9200  1.4052  1.3620
 8542SOL     OW26524   4.060   2.644   5.655  0.1981 -0.0348 -0.1476
 8542SOL    HW126525   4.125   2.618   5.726  1.1154  0.1475 -0.8924
 8542SOL    HW226526   4.106   2.640   5.566 -0.3352  1.7395 -0.5265
 8543SOL     OW26527   2.188   0.673   1.753  0.0152  0.4392  0.5910
 8543SOL    HW126528   2.171   0.582   1.790  0.9835 -0.0020  0.0076
 8543SOL    HW226529   2.115   0.735   1.781 -0.6013 -0.4873  1.0869
 8544SOL     OW26530   0.289   2.603   3.907 -0.2035 -0.5509 -0.2219
 8544SOL    HW126531   0.259   2.539   3.836  1.6199 -2.5424  0.6960
 8544SOL    HW226532   0.378   2.642   3.881  0.4024 -1.1742  0.8222
 8545SOL     OW26533   5.522   6.758   4.259  0.6504  0.3369  0.3787
 8545SOL    HW126534   5.515   6.733   4.162 -1.6388 -0.4510  0.6726
 8545SOL    HW226535   5.580   6.691   4.306  2.3454  1.1098 -0.5159
 8546SOL     OW26536   4.322   1.331   4.994 -0.1744 -0.0528  0.8908
 8546SOL    HW126537   4.253   1.351   5.064  0.4967 -0.4500  1.6814
 8546SOL    HW226538   4.279   1.278   4.920 -0.4017 -1.7532  2.1607
 8547SOL     OW26539   1.609   5.413   0.035 -0.1332 -0.7359  0.0441
 8547SOL    HW126540   1.555   5.380   0.112  0.2247 -2.5435 -0.4287
 8547SOL    HW226541   1.699   5.370   0.036  0.9430  1.3886  0.1857
 8548SOL     OW26542   5.595   2.177   5.661 -0.8179 -0.6460 -0.0829
 8548SOL    HW126543   5.515   2.211   5.711 -1.3854 -1.2433 -0.5635
 8548SOL    HW226544   5.663   2.144   5.726 -0.9676 -0.1426  0.3335
 8549SOL     OW26545   0.856   1.903   4.341 -0.0883 -0.0320  0.4657
 8549SOL    HW126546   0.906   1.978   4.385  1.7473 -0.5006 -0.7078
 8549SOL    HW226547   0.904   1.875   4.258 -1.0911 -2.0761  0.5064
 8550SOL     OW26548   1.339   4.087   5.852 -0.2019  0.7916 -0.0844
 8550SOL    HW126549   1.271   4.115   5.785  0.4893  1.5637 -0.4736
 8550SOL    HW226550   1.403   4.162   5.870  2.0145 -0.6255 -1.5327
 8551SOL     OW26551   3.598   2.887   6.415 -0.5970  0.1923  0.1800
 8551SOL    HW126552   3.551   2.863   6.330 -0.4251 -0.0583  0.1562
 8551SOL    HW226553   3.564   2.975   6.448  0.3365  0.9708 -0.8920
 8552SOL     OW26554   3.896   6.975   4.808 -0.2834  0.5269  0.4421
 8552SOL    HW126555   3.810   6.933   4.838  1.0370 -0.8460  2.6417
 8552SOL    HW226556   3.877   7.046   4.741 -2.9851 -0.8520 -0.4040
 8553SOL     OW26557   4.355   4.141   0.711  0.1542  0.6059  0.2533
 8553SOL    HW126558   4.441   4.102   0.744  0.5938  3.4370  2.9766
 8553SOL    HW226559   4.280   4.106   0.767 -0.0115  0.4978 -0.0413
 8554SOL     OW26560   1.859   3.632   1.144 -0.6042 -0.4223 -0.2733
 8554SOL    HW126561   1.921   3.632   1.066 -1.6154 -1.3729 -1.1107
 8554SOL    HW226562   1.908   3.664   1.225  1.2009 -1.8837 -0.7151
 8555SOL     OW26563   0.235   1.038   3.875 -0.5352  0.2907 -0.8722
 8555SOL    HW126564   0.249   1.133   3.849 -1.4104  0.4507 -0.7721
 8555SOL    HW226565   0.252   0.979   3.796  0.8094  0.4530 -0.7261
 8556SOL     OW26566   2.603   0.765   5.576  0.1740  0.4736  0.3452
 8556SOL    HW126567   2.525   0.783   5.514 -0.6645  0.3271  1.3364
 8556SOL    HW226568   2.591   0.818   5.660  1.0144  0.2220  0.6297
 8557SOL     OW26569   4.791   6.590   3.845 -0.1291 -0.1400 -0.5641
 8557SOL    HW126570   4.854   6.649   3.794 -0.4981  2.1541  1.4455
 8557SOL    HW226571   4.697   6.606   3.813 -0.1126 -0.6631 -0.8985
 8558SOL     OW26572   1.801   4.521   3.561  0.3481  0.2414 -0.0018
 8558SOL    HW126573   1.777   4.597   3.501  1.8464  0.4634 -0.3611
 8558SOL    HW226574   1.897   4.495   3.546  1.2204  1.1735  3.2163
 8559SOL     OW26575   1.359   1.828   2.946 -0.3343  0.5898 -0.4119
 8559SOL    HW126576   1.419   1.749   2.951 -1.4104 -0.2075  3.6801
 8559SOL    HW226577   1.292   1.814   2.873  0.9334 -1.1197 -1.3232
 8560SOL     OW26578   6.884   5.875   2.189 -0.3972 -0.3267  0.1730
 8560SOL    HW126579   6.871   5.823   2.273  0.9662  1.6506  1.6889
 8560SOL    HW226580   6.971   5.925   2.194  0.4307 -1.2133 -3.0188
 8561SOL     OW26581   3.153   6.827   1.646 -0.1537 -0.2351  0.2656
 8561SOL    HW126582   3.113   6.816   1.736 -0.2045 -2.0164  0.0514
 8561SOL    HW226583   3.216   6.752   1.627  0.3920  0.4777 -0.9117
 8562SOL     OW26584   4.021   4.762   4.147  0.6807  0.5904 -0.7978
 8562SOL    HW126585   3.938   4.759   4.203  1.0134 -1.3657 -0.3382
 8562SOL    HW226586   3.998   4.792   4.055 -0.4105  0.7543 -0.4849
 8563SOL     OW26587   1.139   2.817   5.633 -0.3441  0.1090  0.4332
 8563SOL    HW126588   1.178   2.862   5.552 -0.4104  1.0180  0.8940
 8563SOL    HW226589   1.082   2.741   5.604 -2.7203  2.1277 -0.5911
 8564SOL     OW26590   3.126   0.222   3.409 -0.0531  0.5075  0.3828
 8564SOL    HW126591   3.196   0.199   3.477 -0.4601 -0.3313  0.5349
 8564SOL    HW226592   3.051   0.156   3.416 -2.0446  2.7642  1.9110
 8565SOL     OW26593   3.900   4.226   0.622 -0.0888  0.2970  0.2703
 8565SOL    HW126594   3.925   4.158   0.691  0.9988  0.4217  0.0234
 8565SOL    HW226595   3.805   4.255   0.636 -0.1695 -0.3494  1.1428
 8566SOL     OW26596   0.542   5.811   1.781 -0.4553 -0.3410  0.0751
 8566SOL    HW126597   0.570   5.883   1.718 -1.3091  0.1166  0.2108
 8566SOL    HW226598   0.474   5.847   1.845 -0.8852 -1.2652  0.1495
 8567SOL     OW26599   0.443   3.132   1.566  0.2273 -0.0586  0.4096
 8567SOL    HW126600   0.398   3.114   1.479  0.3882  1.3965  0.0094
 8567SOL    HW226601   0.376   3.169   1.631  0.8824  2.8062 -0.4092
 8568SOL     OW26602   6.294   3.395   6.491 -0.4626  0.5872 -0.0693
 8568SOL    HW126603   6.267   3.418   6.397 -0.8764  0.1581 -0.0579
 8568SOL    HW226604   6.394   3.393   6.497 -0.4338  0.7208 -0.4797
 8569SOL     OW26605   5.791   2.284   6.710 -0.3866 -0.2399  0.0125
 8569SOL    HW126606   5.737   2.363   6.738 -0.9207 -0.6532  0.1620
 8569SOL    HW226607   5.840   2.306   6.626  0.7457  0.8044  0.8974
 8570SOL     OW26608   2.146   3.574   4.840 -0.5269  0.3617  0.0315
 8570SOL    HW126609   2.176   3.555   4.747  1.6155  1.5069  0.4180
 8570SOL    HW226610   2.142   3.488   4.892  0.1071 -0.0850 -0.6344
 8571SOL     OW26611   3.157   4.892   5.130 -0.4086 -0.3719  0.1908
 8571SOL    HW126612   3.157   4.802   5.175 -1.6191 -0.7345 -0.4714
 8571SOL    HW226613   3.233   4.897   5.066  0.0372 -0.6861  0.6854
 8572SOL     OW26614   4.102   2.991   0.144  0.3342  0.2027  0.5796
 8572SOL    HW126615   4.007   2.960   0.133 -0.1944  1.6321  0.9101
 8572SOL    HW226616   4.117   3.071   0.086  1.1659  0.3450  0.9895
 8573SOL     OW26617   3.501   5.591   6.985 -0.2595 -0.4964  0.4699
 8573SOL    HW126618   3.410   5.550   6.997 -0.4235 -0.2915 -0.0424
 8573SOL    HW226619   3.500   5.685   7.018 -0.5162 -0.1666 -0.4353
 8574SOL     OW26620   6.147   4.446   5.337  0.4702  0.8075  0.7503
 8574SOL    HW126621   6.061   4.399   5.358  0.7501 -0.0754 -0.0141
 8574SOL    HW226622   6.220   4.378   5.324  1.6816  1.5941  3.0009
 8575SOL     OW26623   2.765   2.271   4.969  0.0178  0.2060  0.1088
 8575SOL    HW126624   2.769   2.208   5.046  0.9966  0.6961  0.4685
 8575SOL    HW226625   2.681   2.325   4.975  0.5825  0.9640  1.4107
 8576SOL     OW26626   1.446   0.632   5.915 -0.2182 -0.2331  0.4672
 8576SOL    HW126627   1.381   0.679   5.974 -0.5718 -2.0829  1.6160
 8576SOL    HW226628   1.448   0.677   5.825 -1.1872  1.3702  1.2097
 8577SOL     OW26629   0.947   4.890   4.726 -0.4309 -0.0260  0.0080
 8577SOL    HW126630   0.976   4.986   4.729  0.4328 -0.2873  0.3096
 8577SOL    HW226631   0.847   4.886   4.724 -0.6034  0.8307  2.7519
 8578SOL     OW26632   0.310   0.557   6.023  0.5339 -0.1217  0.0559
 8578SOL    HW126633   0.375   0.604   5.964 -0.3112  2.4720  1.0840
 8578SOL    HW226634   0.330   0.459   6.022  3.1041  0.3232 -1.2748
 8579SOL     OW26635   2.622   0.331   3.084 -0.9161  0.4951 -0.1324
 8579SOL    HW126636   2.624   0.370   3.176  0.9388  1.5093 -0.5587
 8579SOL    HW226637   2.694   0.372   3.029 -2.3974  0.4113 -2.2595
 8580SOL     OW26638   3.910   6.443   2.146  0.2846  0.2339  0.7392
 8580SOL    HW126639   3.848   6.386   2.199 -0.3341  1.0799  0.9620
 8580SOL    HW226640   3.865   6.531   2.127  0.6425  0.1161 -0.8111
 8581SOL     OW26641   3.774   3.141   2.429 -0.5611  0.0233  0.0862
 8581SOL    HW126642   3.738   3.070   2.490 -0.3794 -2.0067 -2.0471
 8581SOL    HW226643   3.868   3.118   2.403 -0.0405  1.7479  0.2922
 8582SOL     OW26644   2.524   5.502   2.156  0.7877  0.0586  0.1245
 8582SOL    HW126645   2.507   5.494   2.058 -0.1683 -0.6357  0.3289
 8582SOL    HW226646   2.612   5.546   2.171  1.1056 -0.1391 -1.0466
 8583SOL     OW26647   5.671   0.437   4.127  0.1566 -0.3317  0.2420
 8583SOL    HW126648   5.573   0.421   4.130  0.0144  0.5247  0.6399
 8583SOL    HW226649   5.720   0.356   4.159 -0.3643 -1.1781 -1.0727
 8584SOL     OW26650   6.840   2.839   5.122 -0.0351  0.2786  0.0186
 8584SOL    HW126651   6.813   2.831   5.026 -0.5502  0.9783  0.0980
 8584SOL    HW226652   6.883   2.928   5.138  1.5088 -0.4448  0.1009
 8585SOL     OW26653   6.594   4.901   6.548 -0.1662  0.0484 -0.2614
 8585SOL    HW126654   6.676   4.933   6.500  0.0547 -0.4006 -0.1917
 8585SOL    HW226655   6.611   4.900   6.647 -0.0135 -0.7000 -0.2886
 8586SOL     OW26656   4.259   5.925   4.585 -0.0613 -0.3993  0.1604
 8586SOL    HW126657   4.275   5.839   4.634  1.7193  1.1407  2.5106
 8586SOL    HW226658   4.342   5.981   4.589 -0.1206  0.2802 -3.9161
 8587SOL     OW26659   2.753   0.647   2.121 -0.3214 -0.1647  0.3775
 8587SOL    HW126660   2.731   0.734   2.077  0.8550 -1.1711 -2.4534
 8587SOL    HW226661   2.668   0.602   2.149 -1.2292  0.3197 -1.4304
 8588SOL     OW26662   1.997   5.644   0.905 -0.2574 -0.2399  0.6327
 8588SOL    HW126663   2.091   5.674   0.923 -0.6605  0.0613  2.4313
 8588SOL    HW226664   1.988   5.547   0.926 -0.2524 -0.3852 -0.0047
 8589SOL     OW26665   6.287   1.265   3.422  0.4278  0.8470  0.1835
 8589SOL    HW126666   6.293   1.273   3.521 -0.8638  1.4923  0.2372
 8589SOL    HW226667   6.235   1.183   3.398  0.6734  0.7320  0.0447
 8590SOL     OW26668   0.047   6.154   3.357 -0.3379 -0.1864  0.4836
 8590SOL    HW126669  -0.041   6.107   3.356 -0.2307 -0.5246  2.3167
 8590SOL    HW226670   0.049   6.220   3.433  1.1275 -0.4887  0.7444
 8591SOL     OW26671   6.611   3.950   6.071  0.3098 -0.5815  0.6738
 8591SOL    HW126672   6.698   3.939   6.024 -0.9767 -1.5551 -1.5980
 8591SOL    HW226673   6.612   3.895   6.155  3.0078  1.9726  2.5557
 8592SOL     OW26674   6.828   1.849   6.070 -0.1406 -0.6065 -0.5654
 8592SOL    HW126675   6.890   1.925   6.052  0.4929 -1.6003 -2.8708
 8592SOL    HW226676   6.874   1.781   6.128  0.7064 -0.9631 -1.6098
 8593SOL     OW26677   2.112   2.317   2.635  0.3245 -0.5458  0.6996
 8593SOL    HW126678   2.052   2.306   2.556  1.6920  0.8450 -0.5882
 8593SOL    HW226679   2.080   2.394   2.690 -0.0093 -0.8537  0.9473
 8594SOL     OW26680   3.098   3.134   3.525  0.6145 -0.1132 -0.1395
 8594SOL    HW126681   3.010   3.151   3.569 -0.0875  0.9012 -1.8413
 8594SOL    HW226682   3.087   3.067   3.452  1.3997 -0.4374  0.0209
 8595SOL     OW26683   0.567   2.863   3.147 -0.1620  0.9977 -0.1659
 8595SOL    HW126684   0.495   2.931   3.160 -0.9367  0.0928  0.3923
 8595SOL    HW226685   0.536   2.793   3.083  0.9434  1.5860 -1.3897
 8596SOL     OW26686   6.664   6.646   3.355  0.1395  0.1809 -0.1396
 8596SOL    HW126687   6.599   6.600   3.417 -0.0626 -2.4786 -2.1347
 8596SOL    HW226688   6.747   6.591   3.348 -0.2595 -0.1981 -2.9591
 8597SOL     OW26689   5.068   0.323   5.966  0.3993 -0.2743 -0.4016
 8597SOL    HW126690   5.116   0.252   6.018 -0.4248  0.8063  1.9941
 8597SOL    HW226691   4.970   0.300   5.961  0.2302  0.3690 -0.1389
 8598SOL     OW26692   6.953   0.347   2.172 -0.0311 -0.1234 -0.4922
 8598SOL    HW126693   7.041   0.374   2.212  0.8466 -1.0870 -1.6950
 8598SOL    HW226694   6.914   0.272   2.226 -0.8344  1.2331  0.8703
 8599SOL     OW26695   1.629   0.702   5.379  0.2049 -0.4212 -0.8011
 8599SOL    HW126696   1.647   0.628   5.314  1.2002 -0.6048 -0.3447
 8599SOL    HW226697   1.532   0.727   5.376 -0.0956 -1.5573 -1.1669
 8600SOL     OW26698   4.528   5.295   3.702 -0.5380  0.0163 -0.4319
 8600SOL    HW126699   4.625   5.315   3.685 -0.0635 -2.5168 -1.0380
 8600SOL    HW226700   4.472   5.341   3.632  0.1253  1.8755  0.1884
 8601SOL     OW26701   0.885   1.829   5.138 -0.2109 -0.2180  0.5138
 8601SOL    HW126702   0.921   1.736   5.150 -2.4033 -1.2371 -0.1434
 8601SOL    HW226703   0.917   1.865   5.050  0.8902 -0.2255  0.9016
 8602SOL     OW26704   1.365   2.932   2.668 -0.1567  0.1981  0.7902
 8602SOL    HW126705   1.308   2.868   2.719  0.0593 -1.6829 -1.1938
 8602SOL    HW226706   1.461   2.918   2.692 -0.0114 -1.0132 -0.3954
 8603SOL     OW26707   3.526   5.067   6.530  0.5872 -0.0254  0.1666
 8603SOL    HW126708   3.622   5.093   6.533  0.1537  1.8438 -0.6679
 8603SOL    HW226709   3.513   4.994   6.462  1.6236 -1.5373  1.5095
 8604SOL     OW26710   0.490   4.173   2.928 -0.2049  0.4799 -0.7465
 8604SOL    HW126711   0.563   4.241   2.931 -1.4887  1.8821 -0.0776
 8604SOL    HW226712   0.443   4.179   2.840 -0.0451  0.1467 -0.8562
 8605SOL     OW26713   2.115   5.734   4.728 -0.0719 -0.7805  0.0572
 8605SOL    HW126714   2.165   5.669   4.785 -0.5611 -0.6179  0.6798
 8605SOL    HW226715   2.029   5.759   4.773  0.0114  0.1388 -0.2641
 8606SOL     OW26716   1.177   4.094   3.887  0.0494  0.1251  0.3823
 8606SOL    HW126717   1.235   4.068   3.809  0.6021  2.6607 -0.1543
 8606SOL    HW226718   1.081   4.088   3.861  0.2355  1.4471 -0.7517
 8607SOL     OW26719   2.316   5.930   1.392  0.3121 -0.4365 -0.5478
 8607SOL    HW126720   2.367   6.005   1.433  1.0003 -1.2506  0.1202
 8607SOL    HW226721   2.353   5.909   1.302  0.0840  0.0467 -0.7588
 8608SOL     OW26722   4.097   5.868   3.812 -0.1279  0.0639  0.1441
 8608SOL    HW126723   3.998   5.874   3.824 -0.2887 -2.8158  1.1609
 8608SOL    HW226724   4.117   5.807   3.735  0.8863  0.8386 -0.2261
 8609SOL     OW26725   5.917   1.437   3.119  0.1144  0.0269 -0.2903
 8609SOL    HW126726   5.846   1.464   3.185  0.9658  0.2685  0.5456
 8609SOL    HW226727   5.874   1.389   3.042 -0.7229 -1.7917  1.2352
 8610SOL     OW26728   0.136   3.508   0.800  0.3306  0.7658  0.0112
 8610SOL    HW126729   0.205   3.464   0.856  0.6496  2.6291  1.1489
 8610SOL    HW226730   0.094   3.583   0.851 -0.8408  1.2033 -1.5156
 8611SOL     OW26731   1.666   2.904   3.318  0.9707 -0.6432 -0.1946
 8611SOL    HW126732   1.678   2.809   3.290  0.9684 -0.1592 -1.9772
 8611SOL    HW226733   1.742   2.959   3.282  0.5854  0.1601  0.1877
 8612SOL     OW26734   4.779   2.035   6.413  0.0474  0.1971  0.0564
 8612SOL    HW126735   4.692   2.002   6.376 -0.0245  0.6948 -0.2244
 8612SOL    HW226736   4.783   2.134   6.404  0.2441  0.2746  0.9239
 8613SOL     OW26737   2.253   1.752   2.052 -0.7157  0.0408 -0.0050
 8613SOL    HW126738   2.347   1.762   2.018 -0.7370  0.7519  0.1352
 8613SOL    HW226739   2.191   1.808   1.996 -0.9134  0.3372  0.5031
 8614SOL     OW26740   0.393   3.001   2.279 -0.1600 -0.1715 -0.2851
 8614SOL    HW126741   0.442   3.031   2.198  0.1378 -0.6974 -0.3086
 8614SOL    HW226742   0.313   2.947   2.252  1.1223 -2.1923 -0.2474
 8615SOL     OW26743   5.097   2.032   4.786  0.3306  0.4424  0.3069
 8615SOL    HW126744   5.188   2.029   4.828  0.7088  0.2181 -0.4998
 8615SOL    HW226745   5.028   2.050   4.856  0.8162 -1.0310  1.2205
 8616SOL     OW26746   3.824   5.600   2.613 -0.1408  0.4848 -0.6878
 8616SOL    HW126747   3.787   5.547   2.536 -2.1914  0.7860  0.0226
 8616SOL    HW226748   3.771   5.581   2.695  0.7326  1.6845  0.1910
 8617SOL     OW26749   6.594   2.075   5.918  0.1138 -0.2071 -0.0069
 8617SOL    HW126750   6.524   2.125   5.867 -0.4602 -0.6805  0.3059
 8617SOL    HW226751   6.677   2.068   5.863 -0.4254 -0.5442 -0.7920
 8618SOL     OW26752   6.528   5.881   0.178 -0.0763 -0.3459 -0.2272
 8618SOL    HW126753   6.515   5.955   0.244  0.5062 -1.7727  1.5717
 8618SOL    HW226754   6.496   5.911   0.088  0.6763  2.2879  0.2772
 8619SOL     OW26755   1.909   6.004   1.983 -0.1207 -0.7754 -0.0346
 8619SOL    HW126756   1.997   6.021   2.027 -0.5034  0.3983  0.3250
 8619SOL    HW226757   1.922   5.945   1.903  1.1523  0.1481 -0.5494
 8620SOL     OW26758   1.990   0.230   6.557 -0.3572  0.2934  0.3187
 8620SOL    HW126759   2.038   0.294   6.497  1.1168 -2.5576 -1.8135
 8620SOL    HW226760   2.056   0.187   6.619 -0.7608 -0.9748 -0.0818
 8621SOL     OW26761   0.038   2.659   3.626  0.2607 -0.2726  0.6647
 8621SOL    HW126762   0.136   2.659   3.608  0.3070  0.5694  0.8496
 8621SOL    HW226763  -0.012   2.666   3.540  0.3600 -0.7269  0.5689
 8622SOL     OW26764   5.134   5.723   5.286 -0.1428  0.0035 -0.0351
 8622SOL    HW126765   5.142   5.677   5.375  1.3015  1.9143  0.8883
 8622SOL    HW226766   5.046   5.769   5.280 -1.1927 -1.9488 -0.5707
 8623SOL     OW26767   1.183   5.254   2.659 -0.2568  0.5662  0.6410
 8623SOL    HW126768   1.193   5.191   2.736 -0.3673  1.2629  1.2282
 8623SOL    HW226769   1.246   5.330   2.670  1.2549 -0.3669 -1.0362
 8624SOL     OW26770   6.315   2.268   4.005  0.7161  0.4867 -0.0460
 8624SOL    HW126771   6.230   2.301   4.045  0.5349  0.8875 -0.7325
 8624SOL    HW226772   6.384   2.341   4.009  1.1951 -0.0005  0.9622
 8625SOL     OW26773   6.569   6.772   5.458 -0.0760  0.2675 -0.6471
 8625SOL    HW126774   6.521   6.699   5.508  0.2540  0.2431 -0.3604
 8625SOL    HW226775   6.640   6.811   5.517  0.3383  0.2202 -1.1104
 8626SOL     OW26776   3.186   3.410   4.558 -0.2841 -0.2862  0.3184
 8626SOL    HW126777   3.194   3.507   4.579  1.1978 -0.5815  1.2679
 8626SOL    HW226778   3.091   3.381   4.567 -0.6057  0.8992  0.8296
 8627SOL     OW26779   2.067   0.865   3.602  0.4740  0.8699  0.5985
 8627SOL    HW126780   2.159   0.895   3.578  0.9409  0.2171  1.5147
 8627SOL    HW226781   2.007   0.874   3.522  1.6691 -0.0676 -0.4522
 8628SOL     OW26782   0.701   0.349   1.908 -0.0708  0.2925  0.4972
 8628SOL    HW126783   0.738   0.302   1.988  0.5134 -0.4656 -0.1969
 8628SOL    HW226784   0.775   0.393   1.857 -0.3228  0.0942 -0.0513
 8629SOL     OW26785   1.068   4.927   5.209 -0.4567  0.0072 -0.0352
 8629SOL    HW126786   0.975   4.928   5.170  0.1642  3.0377 -1.7984
 8629SOL    HW226787   1.130   4.975   5.147  1.8494  0.1009  2.1859
 8630SOL     OW26788   4.527   4.292   1.643 -0.2823 -0.4641 -0.3488
 8630SOL    HW126789   4.480   4.341   1.569  2.9549  1.4790 -1.3165
 8630SOL    HW226790   4.473   4.298   1.726 -1.2291  2.6967 -1.0577
 8631SOL     OW26791   3.050   0.067   5.624  0.5697 -0.1553  0.6181
 8631SOL    HW126792   3.077   0.142   5.564  1.7472 -1.1180 -0.1132
 8631SOL    HW226793   3.016   0.104   5.710  0.6329  1.2204  0.0814
 8632SOL     OW26794   3.323   5.948   4.289 -0.4793 -0.5872  0.1834
 8632SOL    HW126795   3.421   5.952   4.306 -0.2878  0.4920 -1.0016
 8632SOL    HW226796   3.306   5.904   4.201 -0.9762  0.2248 -0.1397
 8633SOL     OW26797   6.595   1.437   5.234  0.0290  0.4424 -0.1453
 8633SOL    HW126798   6.626   1.431   5.139 -0.1256  0.3515 -0.1905
 8633SOL    HW226799   6.526   1.508   5.242 -1.7465 -1.1417 -0.5978
 8634SOL     OW26800   5.353   3.942   0.439  0.0051  0.2627  0.2367
 8634SOL    HW126801   5.263   3.944   0.483  0.2172 -0.7796  0.7712
 8634SOL    HW226802   5.344   3.903   0.347 -0.2605  1.3124 -0.1943
 8635SOL     OW26803   6.579   2.535   4.744  0.1836 -0.2665  0.6559
 8635SOL    HW126804   6.579   2.497   4.652 -1.5336  1.0915  0.0442
 8635SOL    HW226805   6.672   2.529   4.783  1.0833 -0.2877 -1.3899
 8636SOL     OW26806   4.326   6.544   1.001  0.1690 -0.9061 -1.1610
 8636SOL    HW126807   4.417   6.586   1.002  0.4204 -1.4397  0.0256
 8636SOL    HW226808   4.257   6.615   0.991  0.7443 -0.6491 -4.3757
 8637SOL     OW26809   2.422   1.785   6.009  0.0657 -0.3283  0.5177
 8637SOL    HW126810   2.398   1.767   5.913  0.4905  0.1679  0.3083
 8637SOL    HW226811   2.462   1.703   6.050  0.8846 -0.2305 -0.0576
 8638SOL     OW26812   2.928   1.975   0.651  0.0759 -0.0237  0.1194
 8638SOL    HW126813   2.841   1.990   0.605 -0.2252 -1.3357  0.2265
 8638SOL    HW226814   2.930   1.884   0.692  2.4571 -1.0897 -2.0729
 8639SOL     OW26815   6.836   3.025   1.565  0.0861 -0.3938 -0.1160
 8639SOL    HW126816   6.836   3.094   1.493 -1.9656  2.0892  2.0446
 8639SOL    HW226817   6.743   2.991   1.577  0.7703 -2.3050  0.0598
 8640SOL     OW26818   3.298   5.066   0.940 -0.2240 -0.3592  0.3616
 8640SOL    HW126819   3.382   5.095   0.985 -0.0938 -0.7811  0.3946
 8640SOL    HW226820   3.320   5.009   0.862 -0.4329  0.7366 -0.5289
 8641SOL     OW26821   5.279   6.731   3.471  0.0403  0.0529  0.2999
 8641SOL    HW126822   5.274   6.825   3.437 -1.2831  0.9193  2.6662
 8641SOL    HW226823   5.187   6.700   3.494  0.7614 -0.5949  2.5597
 8642SOL     OW26824   3.639   0.125   3.425 -0.0560 -0.1299  0.1088
 8642SOL    HW126825   3.737   0.122   3.404 -0.0135 -3.4021  0.3570
 8642SOL    HW226826   3.587   0.133   3.340  0.3832 -2.1670 -0.3961
 8643SOL     OW26827   2.703   6.713   0.651  0.1008  0.2198  0.1012
 8643SOL    HW126828   2.642   6.721   0.572  0.6843 -1.9317 -0.6480
 8643SOL    HW226829   2.683   6.785   0.716 -0.6376  1.8615 -1.8431
 8644SOL     OW26830   4.951   3.606   4.838  0.0295  0.0473  0.3788
 8644SOL    HW126831   4.922   3.690   4.793  0.3343  0.2318  0.5274
 8644SOL    HW226832   4.887   3.584   4.912 -0.6122 -0.3894 -0.2891
 8645SOL     OW26833   4.236   4.255   6.827  0.2718  0.6288 -0.7887
 8645SOL    HW126834   4.176   4.260   6.907  0.1826  1.7254 -0.9090
 8645SOL    HW226835   4.311   4.320   6.838  1.8510 -1.1663 -0.3416
 8646SOL     OW26836   0.887   1.565   4.242  0.7176 -0.5934 -0.1979
 8646SOL    HW126837   0.856   1.645   4.190  0.3029 -1.1526 -0.8248
 8646SOL    HW226838   0.986   1.555   4.232  0.9319  0.3946  0.6788
 8647SOL     OW26839   2.898   4.629   6.362 -0.3809  0.0763  0.5069
 8647SOL    HW126840   2.986   4.603   6.402  0.1483 -0.4992 -0.9941
 8647SOL    HW226841   2.911   4.707   6.301 -0.9390  0.0320  0.3255
 8648SOL     OW26842   0.769   6.186   4.558  0.5687  0.3813  0.7254
 8648SOL    HW126843   0.819   6.263   4.517  1.9699 -1.0295 -0.3517
 8648SOL    HW226844   0.804   6.100   4.520 -1.3358 -0.7839  1.4730
 8649SOL     OW26845   5.468   6.147   6.478  0.1088  0.4372  0.1221
 8649SOL    HW126846   5.391   6.184   6.426  1.7400  0.7048 -2.2880
 8649SOL    HW226847   5.451   6.051   6.500 -1.1880  0.6810  0.2368
 8650SOL     OW26848   2.685   4.168   1.150 -0.2197  0.6222 -0.0733
 8650SOL    HW126849   2.688   4.086   1.093  1.6598 -0.2511  1.1698
 8650SOL    HW226850   2.776   4.209   1.155 -0.3876  0.8808  1.9339
 8651SOL     OW26851   3.562   0.475   1.649 -0.0854 -0.2243 -0.2320
 8651SOL    HW126852   3.652   0.493   1.610  1.2328 -0.9892  2.2603
 8651SOL    HW226853   3.556   0.379   1.676 -2.1576 -0.5060 -1.4366
 8652SOL     OW26854   1.795   4.531   2.926 -0.2685 -0.1179  0.1535
 8652SOL    HW126855   1.776   4.477   2.845 -0.1897 -1.9386  1.2884
 8652SOL    HW226856   1.826   4.622   2.899 -1.1552 -0.3562 -1.8132
 8653SOL     OW26857   6.410   1.165   6.877  0.6390  0.4133  0.0962
 8653SOL    HW126858   6.414   1.153   6.778  0.6305  0.3974  0.0977
 8653SOL    HW226859   6.314   1.160   6.907  0.6991 -0.3192  0.1961
 8654SOL     OW26860   1.468   0.550   1.698 -0.4744  0.1526  0.2479
 8654SOL    HW126861   1.500   0.644   1.713 -0.4292  0.5572 -1.9714
 8654SOL    HW226862   1.406   0.549   1.619  0.2739 -1.8310 -0.3606
 8655SOL     OW26863   6.044   1.728   4.324  0.1159 -0.2323 -0.1946
 8655SOL    HW126864   6.015   1.642   4.367 -0.1110  0.9517  2.2094
 8655SOL    HW226865   6.108   1.709   4.251  1.5900 -2.3887  1.5346
 8656SOL     OW26866   0.751   0.474   6.463  0.0368  0.0565 -0.1931
 8656SOL    HW126867   0.773   0.401   6.398  0.9880 -0.2273  0.4290
 8656SOL    HW226868   0.730   0.435   6.552  1.2706  0.5558  0.3409
 8657SOL     OW26869   3.230   5.823   1.705 -0.3471 -0.0685  0.0100
 8657SOL    HW126870   3.255   5.760   1.632 -2.2932 -0.4414 -0.4121
 8657SOL    HW226871   3.178   5.900   1.667  0.4255  0.8441  0.7522
 8658SOL     OW26872   2.871   6.638   6.141  0.0614  0.1708  0.0709
 8658SOL    HW126873   2.889   6.654   6.238 -0.3864  0.0598  0.1730
 8658SOL    HW226874   2.861   6.540   6.124  0.3740  0.1725 -0.1301
 8659SOL     OW26875   6.157   3.060   3.844 -0.0091  0.1368  0.4470
 8659SOL    HW126876   6.067   3.097   3.821  0.2891  0.3486 -0.4617
 8659SOL    HW226877   6.149   2.963   3.866 -0.7931  0.6755  2.7766
 8660SOL     OW26878   5.944   5.434   6.737 -0.0824 -0.0726 -0.4539
 8660SOL    HW126879   5.969   5.396   6.648 -0.3242 -0.5067 -0.3390
 8660SOL    HW226880   5.920   5.530   6.727 -1.1058 -0.3799 -1.0250
 8661SOL     OW26881   3.649   4.531   6.546 -0.7366 -0.2906 -0.2264
 8661SOL    HW126882   3.576   4.573   6.601 -0.4555 -3.3094  2.7626
 8661SOL    HW226883   3.731   4.587   6.551 -1.8845  1.6065 -1.1602
 8662SOL     OW26884   2.986   4.912   1.615  0.3255  0.2844  0.6468
 8662SOL    HW126885   2.996   4.812   1.615 -1.9455 -0.0024  1.0070
 8662SOL    HW226886   2.889   4.935   1.620  0.7360  2.5304 -0.5279
 8663SOL     OW26887   3.226   4.697   1.423  0.0572  0.1851  1.0578
 8663SOL    HW126888   3.228   4.751   1.339 -1.2560  0.5139  1.2107
 8663SOL    HW226889   3.290   4.620   1.415 -0.2073  0.0760 -0.3411
 8664SOL     OW26890   2.841   4.399   1.386  0.4016 -0.2785  0.9837
 8664SOL    HW126891   2.922   4.373   1.333  0.7377 -0.6341  1.6696
 8664SOL    HW226892   2.869   4.445   1.470 -0.1453  3.2073 -0.5430
 8665SOL     OW26893   5.267   4.836   6.207  0.2102  0.4289 -0.5526
 8665SOL    HW126894   5.335   4.904   6.236 -1.1849  0.6923  2.5567
 8665SOL    HW226895   5.176   4.868   6.232 -0.6658 -1.7459 -0.7292
 8666SOL     OW26896   5.172   2.708   4.753  0.0465 -0.0103  0.3892
 8666SOL    HW126897   5.212   2.751   4.834 -0.9429 -0.9640  1.4111
 8666SOL    HW226898   5.172   2.608   4.765  2.3557 -0.3995 -1.9528
 8667SOL     OW26899   6.528   1.708   3.821  0.1550  0.0959  0.0799
 8667SOL    HW126900   6.611   1.677   3.866  0.0502 -0.1730  0.0894
 8667SOL    HW226901   6.544   1.716   3.723  1.2534  3.3952  0.4009
 8668SOL     OW26902   5.975   1.773   3.187 -0.1998 -0.0727 -0.6056
 8668SOL    HW126903   6.045   1.757   3.257 -1.2699  1.2036  0.8550
 8668SOL    HW226904   5.927   1.858   3.209 -0.0469  0.8116 -3.3940
 8669SOL     OW26905   2.644   6.060   1.814  0.4951  0.3552 -0.3302
 8669SOL    HW126906   2.700   6.056   1.896  2.1854 -0.5763 -1.4674
 8669SOL    HW226907   2.666   5.983   1.754 -3.9021 -1.6978  0.2689
 8670SOL     OW26908   4.031   3.939   5.021 -0.5298  0.5032 -0.1935
 8670SOL    HW126909   4.039   3.962   4.924 -2.5329  0.8284 -0.3314
 8670SOL    HW226910   4.048   3.842   5.035  2.1194  0.8527 -0.4801
 8671SOL     OW26911   5.402   2.215   4.213  0.5210  0.5038 -0.4327
 8671SOL    HW126912   5.440   2.179   4.298 -0.6425 -1.6469 -0.7488
 8671SOL    HW226913   5.469   2.202   4.139  0.5200 -0.0861 -0.3366
 8672SOL     OW26914   0.721   5.431   2.929 -0.2834 -0.2088 -0.5499
 8672SOL    HW126915   0.680   5.523   2.931  1.0575  0.3903  0.7025
 8672SOL    HW226916   0.764   5.411   3.017  1.5487 -1.0693 -1.5810
 8673SOL     OW26917   5.330   4.253   0.298  0.5101  0.6838 -0.4974
 8673SOL    HW126918   5.325   4.240   0.397 -0.7173 -1.6902 -0.8289
 8673SOL    HW226919   5.238   4.262   0.260  0.7835 -1.2976 -1.7365
 8674SOL     OW26920   0.166   0.022   1.251  0.2763 -0.5666 -0.0412
 8674SOL    HW126921   0.116   0.106   1.227 -0.0057 -0.0496  2.1396
 8674SOL    HW226922   0.243   0.011   1.188  0.0595  1.0933 -0.6639
 8675SOL     OW26923   3.010   1.248   3.692 -0.0406 -0.0372 -0.2970
 8675SOL    HW126924   3.035   1.191   3.613  0.1679 -1.1356  0.5378
 8675SOL    HW226925   3.024   1.195   3.776 -1.5084  0.6635  0.4047
 8676SOL     OW26926   4.440   0.092   2.215  0.2954  0.3415  0.1998
 8676SOL    HW126927   4.386   0.016   2.253  0.8825 -0.1260  0.1142
 8676SOL    HW226928   4.498   0.130   2.287  0.9973 -0.1804 -0.0806
 8677SOL     OW26929   2.407   0.640   5.750  0.4483 -0.9754 -0.7804
 8677SOL    HW126930   2.312   0.662   5.725 -0.1410 -1.5165  0.8394
 8677SOL    HW226931   2.467   0.716   5.725 -0.5106 -0.3603 -1.2655
 8678SOL     OW26932   0.671   0.496   2.531  0.0717  0.0953 -0.6041
 8678SOL    HW126933   0.572   0.486   2.544 -0.0623  2.4698  0.8652
 8678SOL    HW226934   0.693   0.487   2.434 -1.3501 -1.8702 -0.7993
 8679SOL     OW26935   0.529   3.128   3.699 -0.5371 -0.4572 -0.3029
 8679SOL    HW126936   0.551   3.099   3.605  0.9713  0.6117 -0.3229
 8679SOL    HW226937   0.593   3.086   3.762 -0.3879  0.2548  0.0288
 8680SOL     OW26938   0.268   3.778   2.100  0.2089 -0.2559 -0.5525
 8680SOL    HW126939   0.214   3.781   2.016 -0.3284  2.1160 -0.1950
 8680SOL    HW226940   0.365   3.770   2.077 -0.0095 -0.8052 -1.3268
 8681SOL     OW26941   5.532   6.454   0.626 -0.3409 -0.6516 -0.0614
 8681SOL    HW126942   5.495   6.468   0.534  0.7503  1.0094 -0.2867
 8681SOL    HW226943   5.491   6.520   0.689  2.0167  1.1406 -0.2882
 8682SOL     OW26944   2.798   6.112   1.085  0.3285  0.5703 -0.2884
 8682SOL    HW126945   2.736   6.166   1.027  1.3236  4.0476  1.5563
 8682SOL    HW226946   2.761   6.107   1.177  1.1824 -0.2886  0.0210
 8683SOL     OW26947   2.924   1.821   1.687 -0.4608  0.8569 -0.5190
 8683SOL    HW126948   2.845   1.781   1.641 -1.3775  0.4319  1.3467
 8683SOL    HW226949   2.901   1.841   1.782  2.1389 -0.7875  0.5529
 8684SOL     OW26950   0.596   1.491   4.079 -0.4620 -0.0021  0.3049
 8684SOL    HW126951   0.612   1.570   4.020  1.7041 -0.6130 -0.0200
 8684SOL    HW226952   0.608   1.407   4.026  0.1032 -0.5542  1.2847
 8685SOL     OW26953   6.521   0.591   6.876  0.3269  0.0551  0.2584
 8685SOL    HW126954   6.585   0.558   6.807  2.4043  1.1220  1.5809
 8685SOL    HW226955   6.484   0.680   6.848 -0.2559 -0.3516 -0.2938
 8686SOL     OW26956   0.885   1.639   2.317  0.2771 -0.6062  0.1968
 8686SOL    HW126957   0.859   1.674   2.227 -1.0151 -1.8429  0.0475
 8686SOL    HW226958   0.952   1.565   2.306  0.5631 -0.3654  0.2991
 8687SOL     OW26959   6.370   4.483   1.340 -0.0389  0.3238 -0.0675
 8687SOL    HW126960   6.334   4.534   1.418 -1.6666  1.8688 -1.7272
 8687SOL    HW226961   6.470   4.491   1.339 -0.0533  1.0210  1.3622
 8688SOL     OW26962   1.218   0.313   6.114  0.7972  0.1519  0.2721
 8688SOL    HW126963   1.217   0.232   6.173  0.8722  0.5531  0.8317
 8688SOL    HW226964   1.287   0.302   6.043 -0.5879 -1.1616 -0.9265
 8689SOL     OW26965   2.039   5.084   2.165 -0.0415 -0.3669  0.1203
 8689SOL    HW126966   2.086   5.154   2.111  0.4589  0.0654  1.0780
 8689SOL    HW226967   2.075   5.085   2.259 -0.5040 -1.4589  0.3261
 8690SOL     OW26968   0.860   3.030   2.809  0.1975  0.2808  0.2777
 8690SOL    HW126969   0.817   2.951   2.766  0.7871 -1.3240  2.4830
 8690SOL    HW226970   0.938   3.059   2.753  0.1160 -0.8372 -0.4537
 8691SOL     OW26971   4.298   1.013   6.743  0.1394 -0.3634  0.5595
 8691SOL    HW126972   4.259   1.072   6.814 -1.7107 -0.8749  0.0111
 8691SOL    HW226973   4.236   0.937   6.725  2.3557 -2.4573  1.1203
 8692SOL     OW26974   2.158   6.616   4.849 -0.2183  0.3435 -0.0210
 8692SOL    HW126975   2.221   6.656   4.915  0.2183 -0.6199  0.1656
 8692SOL    HW226976   2.067   6.655   4.862 -0.4792 -0.8304  2.1357
 8693SOL     OW26977   6.996   3.130   5.555  0.0555 -0.3288  0.5847
 8693SOL    HW126978   6.919   3.072   5.530  0.6619 -0.7433 -0.3795
 8693SOL    HW226979   7.081   3.092   5.517  0.5856  0.7066  0.6880
 8694SOL     OW26980   4.531   1.177   4.121 -0.0350  0.4781 -0.4698
 8694SOL    HW126981   4.556   1.182   4.218 -1.2569  0.7573 -0.1531
 8694SOL    HW226982   4.560   1.089   4.084  3.8071  1.7154 -0.8621
 8695SOL     OW26983   3.687   1.854   6.793 -0.3841  0.3846 -0.7560
 8695SOL    HW126984   3.591   1.842   6.820 -0.4999  0.6364 -1.0486
 8695SOL    HW226985   3.744   1.864   6.875 -0.3479 -1.5602 -0.5028
 8696SOL     OW26986   2.949   4.198   1.105  0.6720  0.0406  0.3333
 8696SOL    HW126987   2.985   4.267   1.042  0.2491  0.1419  0.2015
 8696SOL    HW226988   3.013   4.121   1.110  1.1568  0.4483  0.4981
 8697SOL     OW26989   6.698   4.329   6.902  0.5999  0.3663 -0.6219
 8697SOL    HW126990   6.677   4.246   6.850  1.5472 -1.5057  1.7920
 8697SOL    HW226991   6.621   4.393   6.895 -1.4268 -1.8965 -0.3566
 8698SOL     OW26992   5.961   5.537   4.678  0.0114  0.3018  0.1165
 8698SOL    HW126993   5.865   5.562   4.668  0.3150  1.1463 -0.8675
 8698SOL    HW226994   5.995   5.567   4.767 -1.0647 -1.5377  1.2074
 8699SOL     OW26995   1.512   1.033   5.735 -0.3374 -0.0506 -0.1012
 8699SOL    HW126996   1.561   0.988   5.660 -0.4217 -0.9673  0.3743
 8699SOL    HW226997   1.544   1.127   5.744 -1.5622  0.6793 -2.4312
 8700SOL     OW26998   1.968   0.441   5.911  0.1561  0.2751  0.2403
 8700SOL    HW126999   1.969   0.436   6.011  0.8378  0.9711  0.2689
 8700SOL    HW227000   1.995   0.352   5.874 -0.6827 -0.1743  0.6548
 8701SOL     OW27001   1.702   3.441   5.459  0.2746 -0.0479 -0.2091
 8701SOL    HW127002   1.643   3.360   5.453  2.2476 -1.5708 -0.0079
 8701SOL    HW227003   1.755   3.450   5.375  0.5791  0.6585  0.0519
 8702SOL     OW27004   4.659   5.626   1.232 -0.4654  0.0451 -0.3507
 8702SOL    HW127005   4.676   5.701   1.296 -0.5877 -0.7954  0.6799
 8702SOL    HW227006   4.719   5.549   1.253 -1.0940 -0.5523 -0.7131
 8703SOL     OW27007   2.767   6.081   6.625 -0.6087  0.1267 -0.3742
 8703SOL    HW127008   2.740   6.076   6.721 -0.4581  2.0556 -0.1870
 8703SOL    HW227009   2.701   6.031   6.569 -2.8077  1.9553  0.4173
 8704SOL     OW27010   1.607   1.793   5.253  0.2476 -0.9126  0.8738
 8704SOL    HW127011   1.642   1.885   5.236 -0.9203 -0.5779  0.1551
 8704SOL    HW227012   1.508   1.797   5.263 -0.3207 -2.4774 -2.5665
 8705SOL     OW27013   4.666   0.669   6.656  0.2844 -0.4672 -0.5212
 8705SOL    HW127014   4.619   0.757   6.665  0.1275 -0.4860 -1.1417
 8705SOL    HW227015   4.670   0.624   6.745  0.4845  0.2299 -0.1694
 8706SOL     OW27016   5.166   2.238   6.510 -0.5684  0.5459  0.0056
 8706SOL    HW127017   5.094   2.306   6.521 -1.1172  0.4485 -2.4790
 8706SOL    HW227018   5.127   2.151   6.479  0.6462  0.9742 -3.0902
 8707SOL     OW27019   1.060   4.426   0.312  0.0224 -0.4478  0.1964
 8707SOL    HW127020   1.016   4.348   0.268 -0.6082 -0.3778  0.6804
 8707SOL    HW227021   0.990   4.485   0.353  0.5449 -0.1150  0.6251
 8708SOL     OW27022   4.066   1.343   2.066 -0.3551 -0.6480 -0.0602
 8708SOL    HW127023   4.148   1.300   2.103  0.8979  1.3818 -0.3247
 8708SOL    HW227024   4.054   1.433   2.107 -1.8565 -0.4678 -0.8230
 8709SOL     OW27025   5.753   3.890   0.738  0.3845 -0.0719 -0.4502
 8709SOL    HW127026   5.692   3.831   0.685  0.4533  1.2305 -2.0604
 8709SOL    HW227027   5.706   3.921   0.820 -0.5564 -0.3364 -0.8748
 8710SOL     OW27028   6.343   4.076   3.220 -0.2428  0.2587  0.4002
 8710SOL    HW127029   6.388   4.038   3.139  0.1369 -1.2481  1.2840
 8710SOL    HW227030   6.249   4.099   3.198  0.2633  1.2808 -0.8508
 8711SOL     OW27031   0.609   5.747   2.398  0.4958  0.2172  0.2498
 8711SOL    HW127032   0.549   5.736   2.319 -0.5200 -0.2571  1.0653
 8711SOL    HW227033   0.621   5.659   2.444  2.9300 -0.0098 -0.6383
 8712SOL     OW27034   4.477   3.330   5.326  0.0475 -0.3763  0.2940
 8712SOL    HW127035   4.577   3.331   5.323  0.1307  1.0825  1.6714
 8712SOL    HW227036   4.443   3.424   5.322 -1.2041 -0.7698  0.9956
 8713SOL     OW27037   1.073   4.700   4.206 -0.6369 -0.1322 -0.1917
 8713SOL    HW127038   1.009   4.622   4.205  0.0442 -0.7666  1.6623
 8713SOL    HW227039   1.133   4.693   4.286 -0.2114  2.0526 -0.2645
 8714SOL     OW27040   1.186   1.801   5.058 -0.3590  0.1560  0.1384
 8714SOL    HW127041   1.274   1.820   5.101 -1.5559  1.3126  2.2587
 8714SOL    HW227042   1.154   1.710   5.084  0.3248 -0.4163 -0.9329
 8715SOL     OW27043   4.403   1.483   0.851 -0.4098  0.2156  0.2859
 8715SOL    HW127044   4.412   1.581   0.866 -0.9733  0.2081  0.6799
 8715SOL    HW227045   4.324   1.465   0.794  1.0014  0.1505 -1.7641
 8716SOL     OW27046   6.999   0.185   1.100  0.4770 -0.1712  0.4173
 8716SOL    HW127047   6.975   0.110   1.038  0.2615  0.0605  0.2229
 8716SOL    HW227048   7.052   0.254   1.051 -0.6864  0.5806  0.1817
 8717SOL     OW27049   3.521   2.861   4.081  0.0642 -0.1544  0.5862
 8717SOL    HW127050   3.425   2.866   4.105 -0.0042 -1.4812  0.6575
 8717SOL    HW227051   3.532   2.877   3.982 -0.2945 -0.5843  0.4759
 8718SOL     OW27052   1.573   3.181   2.791  0.2467 -0.4312 -0.4575
 8718SOL    HW127053   1.485   3.198   2.747  0.1452 -0.1201 -0.1369
 8718SOL    HW227054   1.604   3.264   2.837 -0.4158 -1.1917  1.4182
 8719SOL     OW27055   3.019   1.280   0.170 -0.2510  0.2661 -0.1361
 8719SOL    HW127056   3.114   1.254   0.188 -0.2375  0.0370 -0.5336
 8719SOL    HW227057   3.001   1.276   0.072 -1.2316 -1.6759  0.0701
 8720SOL     OW27058   4.171   4.564   5.777  0.3894 -0.3130  0.1906
 8720SOL    HW127059   4.147   4.659   5.799  0.7093 -0.3781  0.8416
 8720SOL    HW227060   4.098   4.523   5.724  0.6997  0.6254 -1.0318
 8721SOL     OW27061   1.006   2.152   1.633 -0.4400  0.0656 -0.2802
 8721SOL    HW127062   1.004   2.199   1.545 -0.7440  1.1646  0.2917
 8721SOL    HW227063   0.942   2.196   1.695 -0.1046 -0.5879  0.5450
 8722SOL     OW27064   2.740   0.491   0.896  0.2242 -0.4200  0.4107
 8722SOL    HW127065   2.718   0.394   0.908  2.0560 -0.8156  0.9046
 8722SOL    HW227066   2.739   0.537   0.984 -0.6593  0.0322  0.1739
 8723SOL     OW27067   3.750   4.811   0.302 -0.5031 -0.0224  0.0126
 8723SOL    HW127068   3.774   4.790   0.208 -0.3710 -0.1824  0.0813
 8723SOL    HW227069   3.786   4.740   0.363  3.0679  2.0625  0.6347
 8724SOL     OW27070   5.578   0.961   5.430  0.2164  0.2102  0.2108
 8724SOL    HW127071   5.670   0.949   5.467 -0.3459  0.9111  1.9514
 8724SOL    HW227072   5.520   1.006   5.498 -2.1461 -2.5412  0.2129
 8725SOL     OW27073   1.938   5.374   0.879 -0.7567  0.9166  0.0370
 8725SOL    HW127074   2.003   5.368   0.803  1.2002  0.7366  1.6577
 8725SOL    HW227075   1.847   5.396   0.843  0.3660  2.2434 -2.2293
 8726SOL     OW27076   6.582   6.897   1.482  0.1080 -0.2605  0.0881
 8726SOL    HW127077   6.561   6.839   1.560 -0.7013 -1.7154 -1.1435
 8726SOL    HW227078   6.502   6.953   1.460  0.8414  1.2782  1.1885
 8727SOL     OW27079   1.120   6.051   5.787 -0.4623 -0.2069 -0.0254
 8727SOL    HW127080   1.214   6.074   5.811 -0.0619 -1.8283  0.0588
 8727SOL    HW227081   1.108   6.061   5.688 -0.8004  1.9283  0.1795
 8728SOL     OW27082   2.891   1.248   4.183 -0.4677 -0.1329  0.0317
 8728SOL    HW127083   2.955   1.274   4.110 -1.8260 -1.0292 -1.5775
 8728SOL    HW227084   2.917   1.293   4.268  0.3711  2.1514 -1.3200
 8729SOL     OW27085   5.498   6.133   6.062 -0.4885  0.4203  0.6100
 8729SOL    HW127086   5.422   6.070   6.074  0.6398 -1.2285 -0.4937
 8729SOL    HW227087   5.584   6.082   6.056  0.2751  1.8390 -2.4458
 8730SOL     OW27088   5.904   3.493   3.269 -0.4783  0.2040 -0.0207
 8730SOL    HW127089   5.921   3.542   3.355 -0.2181  0.4475 -0.2064
 8730SOL    HW227090   5.983   3.504   3.209  0.3141 -1.8239  0.5598
 8731SOL     OW27091   1.221   2.679   2.320 -0.7155  0.3460 -0.5762
 8731SOL    HW127092   1.214   2.579   2.312 -1.0862  0.5013 -2.5617
 8731SOL    HW227093   1.129   2.718   2.326 -0.5787  0.4528  3.0725
 8732SOL     OW27094   3.190   4.690   0.940  0.3539 -0.4584 -0.3553
 8732SOL    HW127095   3.166   4.765   1.002  1.2424 -1.0758  0.7519
 8732SOL    HW227096   3.208   4.607   0.992  0.0828 -1.2821 -1.5216
 8733SOL     OW27097   0.102   6.289   2.053 -0.6801  0.3349 -0.4275
 8733SOL    HW127098   0.030   6.345   2.010  0.6580  2.0381 -0.5527
 8733SOL    HW227099   0.132   6.219   1.988 -1.2473  0.5101 -0.8951
 8734SOL     OW27100   0.358   4.022   1.839 -0.1365  0.5961  0.1464
 8734SOL    HW127101   0.399   3.932   1.827 -0.4686  0.3041  1.1460
 8734SOL    HW227102   0.349   4.067   1.749 -1.0256 -0.8199 -0.5101
 8735SOL     OW27103   0.943   2.266   0.491 -0.4219  0.1191 -0.2426
 8735SOL    HW127104   1.025   2.260   0.547 -0.5535 -1.8659 -0.1989
 8735SOL    HW227105   0.888   2.345   0.520  1.3042  1.3027 -0.0936
 8736SOL     OW27106   0.688   0.150   0.476  0.2755  0.4456  0.2780
 8736SOL    HW127107   0.668   0.072   0.418  2.2426  0.3528 -0.3476
 8736SOL    HW227108   0.628   0.226   0.451 -1.8273 -0.8699  1.0562
 8737SOL     OW27109   2.227   0.923   0.222  0.2505  0.2188  0.3962
 8737SOL    HW127110   2.241   0.962   0.130  0.9724 -0.5566  0.1687
 8737SOL    HW227111   2.315   0.919   0.270 -0.1669  0.8911  1.2487
 8738SOL     OW27112   2.047   5.077   5.495 -0.4394 -0.1544  0.3510
 8738SOL    HW127113   2.066   5.146   5.566  1.1524 -0.8862  0.6862
 8738SOL    HW227114   2.129   5.063   5.440 -1.8478  0.8808 -2.1305
 8739SOL     OW27115   5.657   5.142   6.350  0.6986 -0.5437 -0.0811
 8739SOL    HW127116   5.717   5.125   6.272  0.4297  0.1743 -0.4473
 8739SOL    HW227117   5.669   5.068   6.418  1.4913 -0.7624 -0.4490
 8740SOL     OW27118   5.981   6.878   5.011  0.3183 -0.1807  0.2210
 8740SOL    HW127119   6.004   6.975   5.017  0.3037 -0.2107  0.8184
 8740SOL    HW227120   5.897   6.860   5.063  0.4508 -0.5575  0.3056
 8741SOL     OW27121   2.983   0.840   0.974 -0.3898  0.0892 -0.1329
 8741SOL    HW127122   3.005   0.937   0.972 -1.2865  0.4243  2.2437
 8741SOL    HW227123   3.052   0.791   1.030 -0.5427 -0.4482 -0.4057
 8742SOL     OW27124   5.425   1.254   6.848 -0.4849  0.1319 -0.3703
 8742SOL    HW127125   5.508   1.264   6.903 -0.3279  1.3238 -0.8023
 8742SOL    HW227126   5.443   1.192   6.772 -0.8822 -2.0579  1.2311
 8743SOL     OW27127   2.583   1.615   3.466  0.7657  0.2006 -0.2103
 8743SOL    HW127128   2.568   1.517   3.461 -2.5951  0.6415 -0.5898
 8743SOL    HW227129   2.618   1.649   3.378  0.9047 -0.4732 -0.4185
 8744SOL     OW27130   5.033   0.908   6.140 -0.6709 -0.2356 -0.5060
 8744SOL    HW127131   4.973   0.972   6.188  0.0305  0.6862 -0.8269
 8744SOL    HW227132   5.125   0.913   6.179 -0.6427 -1.1975 -0.4127
 8745SOL     OW27133   6.427   3.956   4.288  0.0038  0.1627  0.4903
 8745SOL    HW127134   6.512   3.931   4.242  0.2995  0.2618  0.9743
 8745SOL    HW227135   6.446   3.979   4.383 -0.3084  1.7824  0.1981
 8746SOL     OW27136   5.132   4.730   4.529  0.5650  0.1110  0.3364
 8746SOL    HW127137   5.192   4.656   4.559 -0.5310 -0.8213  0.2944
 8746SOL    HW227138   5.186   4.814   4.517  1.8331 -0.6727  0.3492
 8747SOL     OW27139   0.450   4.157   2.055 -0.3027 -0.1125 -0.0493
 8747SOL    HW127140   0.464   4.252   2.028  0.8681 -0.6795 -1.5980
 8747SOL    HW227141   0.431   4.102   1.973  1.7951 -1.6622  0.4197
 8748SOL     OW27142   6.265   1.753   3.136 -0.5331  0.2961  0.3381
 8748SOL    HW127143   6.178   1.721   3.100  0.7174 -2.3626 -0.5828
 8748SOL    HW227144   6.305   1.820   3.073  0.2832 -2.1420 -1.8990
 8749SOL     OW27145   2.752   2.897   6.842  0.4905  0.1106 -0.1423
 8749SOL    HW127146   2.832   2.839   6.855 -0.4775 -1.0549  0.8907
 8749SOL    HW227147   2.706   2.911   6.930 -0.0744  1.3194 -0.6020
 8750SOL     OW27148   3.680   1.646   0.385  0.1239  0.5947  0.0876
 8750SOL    HW127149   3.606   1.618   0.446 -0.1807 -0.1350 -0.5922
 8750SOL    HW227150   3.754   1.578   0.389  0.2020  0.6628 -0.1712
 8751SOL     OW27151   5.911   2.714   2.977 -0.2793 -0.0012 -0.1914
 8751SOL    HW127152   5.864   2.629   2.999  0.8585 -0.4217  0.6934
 8751SOL    HW227153   5.965   2.744   3.056  0.7729  0.5641 -1.0984
 8752SOL     OW27154   2.357   3.931   6.345  0.1296 -0.0578  0.0362
 8752SOL    HW127155   2.336   4.012   6.291  0.9429 -0.0712 -0.3128
 8752SOL    HW227156   2.281   3.912   6.408 -0.9913 -0.2470 -1.3273
 8753SOL     OW27157   3.239   6.729   4.574 -0.1023  0.7646  0.0361
 8753SOL    HW127158   3.150   6.685   4.566  0.2165 -0.0500  0.8114
 8753SOL    HW227159   3.231   6.811   4.631 -0.4492  0.9628 -0.3008
 8754SOL     OW27160   2.144   2.582   5.069  0.3702  0.0132 -0.3981
 8754SOL    HW127161   2.094   2.586   5.155  0.5932 -0.5207 -0.2347
 8754SOL    HW227162   2.216   2.651   5.069  0.9035 -0.5232  0.2018
 8755SOL     OW27163   3.117   1.620   1.758 -0.6656 -0.1790 -0.2415
 8755SOL    HW127164   3.045   1.660   1.701 -1.4936  0.6983  1.3618
 8755SOL    HW227165   3.122   1.669   1.845  0.8433 -1.2150  0.2927
 8756SOL     OW27166   1.739   4.066   3.163 -0.2695  0.2029  0.8142
 8756SOL    HW127167   1.676   4.110   3.228 -0.5364  1.4434 -0.2358
 8756SOL    HW227168   1.742   3.968   3.182 -3.0205 -0.0331  0.5473
 8757SOL     OW27169   5.734   5.910   6.491 -0.8201  0.0361 -0.0289
 8757SOL    HW127170   5.730   5.837   6.421  2.7178 -0.5572  0.1727
 8757SOL    HW227171   5.791   5.985   6.457  0.2106  0.1519  1.8189
 8758SOL     OW27172   2.186   0.022   2.643 -0.7247 -0.0773  0.3303
 8758SOL    HW127173   2.164   0.089   2.572  0.4475 -0.3255 -0.2779
 8758SOL    HW227174   2.243  -0.050   2.605  0.6350  0.2240  1.6946
 8759SOL     OW27175   2.714   1.719   1.548  0.4769  0.1133  0.0602
 8759SOL    HW127176   2.722   1.674   1.460  1.3902  0.4872 -0.0579
 8759SOL    HW227177   2.660   1.802   1.539  1.0008  0.4259 -0.2635
 8760SOL     OW27178   1.282   0.331   5.696  0.5914 -0.0992 -0.0431
 8760SOL    HW127179   1.190   0.324   5.735 -0.1990  0.3012 -1.7656
 8760SOL    HW227180   1.279   0.382   5.610  2.2088 -1.2459 -0.8361
 8761SOL     OW27181   6.462   0.017   2.250 -0.2296 -0.4724 -0.0134
 8761SOL    HW127182   6.513  -0.039   2.315 -1.4633 -1.1316  0.4219
 8761SOL    HW227183   6.399  -0.041   2.198 -0.7332  0.3467 -0.3379
 8762SOL     OW27184   0.644   4.615   2.856  0.1026  0.1656  0.3680
 8762SOL    HW127185   0.698   4.656   2.783 -0.0216 -0.0557  0.1509
 8762SOL    HW227186   0.693   4.622   2.943  0.7630 -0.6177  0.0635
 8763SOL     OW27187   6.041   6.509   5.135 -0.3507 -0.0988  0.2675
 8763SOL    HW127188   5.944   6.511   5.112 -0.7956 -1.0097  1.9153
 8763SOL    HW227189   6.095   6.541   5.057 -1.9686  0.5106 -0.6383
 8764SOL     OW27190   4.729   6.152   4.667 -0.2696  0.6167  0.1145
 8764SOL    HW127191   4.758   6.139   4.573 -0.5638 -0.2784  0.1410
 8764SOL    HW227192   4.807   6.139   4.729 -0.0395  1.3749 -0.0120
 8765SOL     OW27193   4.892   0.913   6.651 -0.2501  0.5602  0.3588
 8765SOL    HW127194   4.903   0.830   6.596  1.4636  0.4642  0.7976
 8765SOL    HW227195   4.974   0.969   6.644 -1.0815  1.8631  0.6913
 8766SOL     OW27196   3.834   5.961   4.195 -0.7785 -0.1257 -0.4558
 8766SOL    HW127197   3.902   6.033   4.181 -0.0631 -0.6196  0.3652
 8766SOL    HW227198   3.828   5.940   4.293  0.3614 -2.4346 -0.8075
 8767SOL     OW27199   4.082   6.938   2.043  0.4655 -0.3460  0.8526
 8767SOL    HW127200   4.117   7.027   2.071 -0.0157  0.6355 -1.4326
 8767SOL    HW227201   3.983   6.942   2.030  0.7094 -0.4868 -1.5094
 8768SOL     OW27202   6.911   4.907   5.805 -0.2457 -0.3627 -0.0540
 8768SOL    HW127203   6.822   4.866   5.827 -0.5162  0.2740  0.0879
 8768SOL    HW227204   6.896   4.997   5.764  0.3503  0.4907  1.4861
 8769SOL     OW27205   1.797   0.242   4.953 -0.0822  0.5622  0.0303
 8769SOL    HW127206   1.703   0.231   4.986 -0.0221  1.8127  0.6589
 8769SOL    HW227207   1.804   0.207   4.860 -0.9315 -0.4460  0.3268
 8770SOL     OW27208   6.062   2.562   1.405  0.0946 -0.1632  0.0127
 8770SOL    HW127209   6.079   2.524   1.314  0.2015 -1.8845  0.7049
 8770SOL    HW227210   6.068   2.489   1.473  0.1060  1.0967  1.4262
 8771SOL     OW27211   0.812   0.988   0.082  0.5002 -0.1068  0.1443
 8771SOL    HW127212   0.843   1.053   0.151 -1.2947 -0.2776  1.1670
 8771SOL    HW227213   0.781   0.904   0.126 -0.1248 -0.4552 -0.9108
 8772SOL     OW27214   3.846   6.543   6.848 -0.1298  0.4700 -0.6012
 8772SOL    HW127215   3.932   6.523   6.801  0.8647 -0.4016  1.4596
 8772SOL    HW227216   3.825   6.640   6.841  2.0394  1.0736  0.4013
 8773SOL     OW27217   4.338   0.118   4.250  0.0827  0.7263  0.8074
 8773SOL    HW127218   4.324   0.036   4.195  0.5692  1.3645 -0.3159
 8773SOL    HW227219   4.256   0.176   4.245 -1.2021 -0.6934  3.4851
 8774SOL     OW27220   0.882   1.182   5.775  0.5616 -0.0417 -0.0596
 8774SOL    HW127221   0.944   1.116   5.731 -0.8282 -2.5382  1.4828
 8774SOL    HW227222   0.800   1.192   5.719  0.5059 -0.1395  0.0027
 8775SOL     OW27223   0.502   0.021   5.824  0.0179  0.8295  0.1912
 8775SOL    HW127224   0.472  -0.069   5.796 -0.2751  0.5631  1.3049
 8775SOL    HW227225   0.500   0.027   5.924  0.0867  2.0479  0.1329
 8776SOL     OW27226   2.417   4.672   6.308  0.2532  0.0212 -0.0997
 8776SOL    HW127227   2.372   4.672   6.397  1.7807  0.1145  0.7107
 8776SOL    HW227228   2.356   4.710   6.239 -0.9435 -0.0260  0.9044
 8777SOL     OW27229   6.663   4.379   1.322  0.4726 -0.1211 -0.3419
 8777SOL    HW127230   6.621   4.297   1.360  1.5030 -1.2533 -1.5581
 8777SOL    HW227231   6.742   4.405   1.377  0.0021  0.1994  0.1838
 8778SOL     OW27232   1.709   3.242   4.010 -0.4881 -0.0375  0.2468
 8778SOL    HW127233   1.674   3.322   3.961 -1.9669 -1.6766 -1.5902
 8778SOL    HW227234   1.632   3.188   4.045  0.5257  0.6407  3.8254
 8779SOL     OW27235   4.837   4.128   2.264  0.3162  0.1961 -0.0278
 8779SOL    HW127236   4.848   4.061   2.337  1.8745  1.4363  0.9355
 8779SOL    HW227237   4.821   4.219   2.303 -1.0410  0.5494 -1.2942
 8780SOL     OW27238   1.276   1.289   2.400 -0.1720  0.3819 -0.0750
 8780SOL    HW127239   1.190   1.242   2.382 -0.1162  0.1749  0.1893
 8780SOL    HW227240   1.344   1.223   2.432  0.5247  0.2854 -1.6752
 8781SOL     OW27241   5.164   2.764   5.175 -0.2887 -0.0818 -0.1304
 8781SOL    HW127242   5.073   2.723   5.184 -0.1489  0.0673  3.1374
 8781SOL    HW227243   5.161   2.858   5.208  1.3002 -0.5633  1.5508
 8782SOL     OW27244   5.686   5.436   2.559  0.3804 -0.2159 -0.2762
 8782SOL    HW127245   5.683   5.429   2.459  1.1070 -0.3242 -0.2933
 8782SOL    HW227246   5.596   5.414   2.596 -0.6354  2.2816 -1.0445
 8783SOL     OW27247   6.166   5.758   3.635 -0.4569  0.6462  0.4036
 8783SOL    HW127248   6.073   5.730   3.658 -0.0847 -0.9295  0.0976
 8783SOL    HW227249   6.227   5.679   3.638  0.6864  1.4541 -0.3860
 8784SOL     OW27250   4.100   5.006   6.873  0.3466 -0.4468  0.5117
 8784SOL    HW127251   4.124   5.080   6.936 -1.6712  0.2116  0.5592
 8784SOL    HW227252   4.025   5.035   6.814 -1.0060 -2.6899  1.0140
 8785SOL     OW27253   4.955   4.258   6.276 -0.4911 -0.1030  0.7141
 8785SOL    HW127254   5.022   4.235   6.347 -0.2997  0.8936  0.8825
 8785SOL    HW227255   4.924   4.352   6.290  1.5486  1.1306 -2.0129
 8786SOL     OW27256   1.991   1.221   0.757 -0.2171  0.2734  0.0126
 8786SOL    HW127257   2.013   1.309   0.715  0.1991  0.4509  0.5816
 8786SOL    HW227258   1.970   1.235   0.854  0.0278 -0.2777  0.1508
 8787SOL     OW27259   2.718   2.313   2.665  0.5679 -0.5888 -0.0155
 8787SOL    HW127260   2.683   2.405   2.681  0.3664 -0.9458  1.8453
 8787SOL    HW227261   2.674   2.274   2.584  0.2419  0.7299 -0.5001
 8788SOL     OW27262   6.796   1.262   5.310 -0.4031 -0.2898 -0.0529
 8788SOL    HW127263   6.764   1.212   5.390  0.7347  0.2848  0.7992
 8788SOL    HW227264   6.727   1.328   5.282 -0.0141  0.9410  1.7451
 8789SOL     OW27265   5.138   0.411   4.021 -0.0330 -0.5077 -0.0076
 8789SOL    HW127266   5.061   0.388   4.081 -1.9234  2.6085 -0.9624
 8789SOL    HW227267   5.107   0.410   3.926  1.8160 -1.5197 -0.6297
 8790SOL     OW27268   0.704   0.791   0.231  0.3582  0.0928 -0.5942
 8790SOL    HW127269   0.717   0.699   0.194  0.6905  0.3409 -1.1176
 8790SOL    HW227270   0.613   0.800   0.270  0.4028 -0.5246 -0.3424
 8791SOL     OW27271   5.496   6.508   5.064  0.0785  0.1135  0.4284
 8791SOL    HW127272   5.426   6.559   5.014 -0.0004  0.4762  0.9044
 8791SOL    HW227273   5.458   6.420   5.094  0.6430 -0.9169 -1.6572
 8792SOL     OW27274   4.491   1.053   2.098 -0.3672  0.5830  0.1887
 8792SOL    HW127275   4.571   1.081   2.150  0.1626  0.1793 -0.3903
 8792SOL    HW227276   4.454   0.968   2.138  1.3783 -1.0061 -1.3696
 8793SOL     OW27277   2.230   4.776   2.053 -0.5372 -0.1519  0.1767
 8793SOL    HW127278   2.151   4.793   2.111  0.8249  0.0553  2.0612
 8793SOL    HW227279   2.312   4.768   2.110  1.4518  3.2884 -1.8747
 8794SOL     OW27280   3.763   5.303   1.820 -0.2744  0.8095  0.5189
 8794SOL    HW127281   3.841   5.265   1.869 -0.9574 -0.2446  0.8096
 8794SOL    HW227282   3.741   5.393   1.859  1.6190  1.7548 -0.4695
 8795SOL     OW27283   0.988   6.836   6.482 -0.7185 -0.3313  0.0930
 8795SOL    HW127284   0.923   6.911   6.473 -0.7229 -0.4067 -0.5163
 8795SOL    HW227285   0.974   6.771   6.408 -0.3015 -0.6160  0.2646
 8796SOL     OW27286   5.251   0.415   5.466  0.3408 -0.3764  0.5643
 8796SOL    HW127287   5.223   0.501   5.509  1.0802  0.6407 -0.9396
 8796SOL    HW227288   5.202   0.339   5.510 -1.2564  0.9081  1.0978
 8797SOL     OW27289   1.499   1.305   0.658 -0.0635 -0.1836  0.3748
 8797SOL    HW127290   1.503   1.212   0.696 -3.6380  0.0010  1.6279
 8797SOL    HW227291   1.416   1.351   0.692  0.9279  3.0571 -1.1950
 8798SOL     OW27292   4.061   5.968   6.761 -1.0047  0.1723  0.2117
 8798SOL    HW127293   4.012   6.054   6.776 -0.7788  1.0154 -3.1091
 8798SOL    HW227294   4.159   5.983   6.774 -1.1409 -0.2434  1.9386
 8799SOL     OW27295   0.288   3.044   5.193  0.2284 -0.9714  0.6364
 8799SOL    HW127296   0.325   2.991   5.268  1.5162 -1.6072 -0.4114
 8799SOL    HW227297   0.352   3.116   5.167  0.1911 -1.2915 -0.3925
 8800SOL     OW27298   0.330   3.286   4.271 -0.4669  0.0491  0.3256
 8800SOL    HW127299   0.380   3.334   4.344  0.9518 -0.3622 -0.3311
 8800SOL    HW227300   0.308   3.351   4.198  0.1757  0.0012  0.0841
 8801SOL     OW27301   1.367   2.616   4.411 -0.1460  0.1065 -0.0388
 8801SOL    HW127302   1.373   2.685   4.483 -0.4324  1.7967 -1.5806
 8801SOL    HW227303   1.378   2.525   4.452  0.3573  1.0316  2.0293
 8802SOL     OW27304   4.084   5.774   1.172  0.5112  0.3259 -0.3030
 8802SOL    HW127305   4.031   5.693   1.197  0.8960  0.8039  2.4357
 8802SOL    HW227306   4.181   5.750   1.168  0.3434 -0.1902 -3.7009
 8803SOL     OW27307   6.664   4.648   0.801  0.0576 -0.3559 -0.6150
 8803SOL    HW127308   6.619   4.722   0.850 -1.5328 -0.1484 -2.2850
 8803SOL    HW227309   6.595   4.584   0.766  1.1506 -0.8593 -1.9694
 8804SOL     OW27310   3.149   0.402   2.494  0.3375 -0.1425  0.5890
 8804SOL    HW127311   3.237   0.372   2.456 -1.0273 -1.4574 -1.8020
 8804SOL    HW227312   3.113   0.477   2.439 -0.5929 -0.4388  0.7682
 8805SOL     OW27313   2.376   0.055   4.471  0.0238 -0.3802 -0.0771
 8805SOL    HW127314   2.403   0.022   4.562  1.6260  1.8414  0.3372
 8805SOL    HW227315   2.323   0.139   4.481  0.9052  0.3245 -1.1986
 8806SOL     OW27316   0.190   4.090   0.840 -0.1612 -0.2849  0.5045
 8806SOL    HW127317   0.093   4.088   0.816  0.1171  0.4292 -0.8077
 8806SOL    HW227318   0.209   4.020   0.909 -1.4504 -1.0140  0.1574
 8807SOL     OW27319   4.214   6.087   0.249 -0.4347  0.2443 -0.0193
 8807SOL    HW127320   4.250   6.162   0.193  1.6502 -1.5534 -1.2906
 8807SOL    HW227321   4.168   6.021   0.189  1.1237 -1.3233  0.4299
 8808SOL     OW27322   6.323   3.536   4.727  0.1200 -0.1427  0.4249
 8808SOL    HW127323   6.351   3.466   4.661 -1.6441  0.0977 -0.6532
 8808SOL    HW227324   6.378   3.528   4.810  0.9108 -1.8849 -0.2248
 8809SOL     OW27325   6.572   6.034   4.500 -0.3122  0.4153  0.2098
 8809SOL    HW127326   6.662   6.076   4.495 -1.0156  1.9536  0.0310
 8809SOL    HW227327   6.556   5.979   4.418  0.4702  0.0815  0.2689
 8810SOL     OW27328   5.106   6.499   5.242 -0.5567 -0.1245  0.1244
 8810SOL    HW127329   5.127   6.407   5.209 -1.6733 -0.7822  1.1970
 8810SOL    HW227330   5.036   6.540   5.184 -2.0611 -1.0405  1.2220
 8811SOL     OW27331   2.324   2.663   3.301  0.0381 -0.3397 -0.4868
 8811SOL    HW127332   2.370   2.585   3.258  2.1942  0.3837  0.3830
 8811SOL    HW227333   2.349   2.668   3.398  0.8097  2.0160 -0.7405
 8812SOL     OW27334   2.594   5.760   5.843  0.4262  0.1044 -0.2798
 8812SOL    HW127335   2.652   5.679   5.835  0.5627  0.2542 -0.9265
 8812SOL    HW227336   2.584   5.785   5.939  0.5465 -0.5617 -0.0906
 8813SOL     OW27337   5.409   4.355   1.529 -0.2351  0.0394  0.5294
 8813SOL    HW127338   5.413   4.278   1.592  2.2059  1.0638  1.7728
 8813SOL    HW227339   5.374   4.324   1.440  0.7875 -2.5072  0.9336
 8814SOL     OW27340   6.607   0.633   6.129 -0.3129 -0.2893 -0.0128
 8814SOL    HW127341   6.566   0.647   6.219 -0.9336  3.3839 -0.7114
 8814SOL    HW227342   6.547   0.577   6.073 -2.2023  1.1442  0.4848
 8815SOL     OW27343   0.569   0.095   0.720 -0.0773  0.2717 -0.0163
 8815SOL    HW127344   0.645   0.080   0.783 -0.4935 -0.8620  0.2318
 8815SOL    HW227345   0.605   0.124   0.631  0.8073 -1.8717 -0.4273
 8816SOL     OW27346   0.998   0.274   0.963  0.3402 -0.0573  0.1081
 8816SOL    HW127347   1.057   0.341   1.010  0.0723  0.3019 -0.0583
 8816SOL    HW227348   1.037   0.251   0.875 -1.5281  2.9981 -1.6985
 8817SOL     OW27349   0.475   5.708   5.057 -0.2586 -0.0657 -0.8718
 8817SOL    HW127350   0.430   5.731   4.971  1.4291  0.3318 -1.6772
 8817SOL    HW227351   0.536   5.629   5.043 -1.8722 -1.6636  0.5884
 8818SOL     OW27352   0.488   3.685   4.390 -0.0900 -0.2847 -0.0417
 8818SOL    HW127353   0.525   3.729   4.471  1.0726 -1.8294  0.3117
 8818SOL    HW227354   0.467   3.589   4.411  0.0204 -0.6494 -1.5032
 8819SOL     OW27355   5.210   6.895   4.926 -0.2089 -0.1347 -0.2677
 8819SOL    HW127356   5.183   6.939   5.012  0.2997 -1.3326  0.5221
 8819SOL    HW227357   5.128   6.866   4.877 -0.4889  0.0147  0.1041
 8820SOL     OW27358   4.106   0.561   3.811 -0.0464  0.2813  0.6458
 8820SOL    HW127359   4.133   0.465   3.799 -0.4369  0.1318  0.9130
 8820SOL    HW227360   4.185   0.615   3.838  0.8392  0.6084 -2.2897
 8821SOL     OW27361   1.324   4.557   0.693  0.0694 -0.5522 -0.2254
 8821SOL    HW127362   1.383   4.601   0.761  1.1108 -1.6141 -0.4119
 8821SOL    HW227363   1.315   4.617   0.613 -0.4804  0.3348  0.4778
 8822SOL     OW27364   2.374   0.578   6.406  0.6700  0.6859 -0.0083
 8822SOL    HW127365   2.381   0.542   6.313  0.1992 -1.6039  0.7720
 8822SOL    HW227366   2.446   0.646   6.421  2.8195 -1.2157 -1.0728
 8823SOL     OW27367   2.753   1.309   2.418 -0.5259  0.1930  0.9213
 8823SOL    HW127368   2.715   1.260   2.340 -0.3660 -0.7046  1.3943
 8823SOL    HW227369   2.702   1.285   2.501 -0.1675  0.4866  1.2330
 8824SOL     OW27370   6.349   2.743   2.781  0.1754 -0.2213  0.0099
 8824SOL    HW127371   6.260   2.697   2.779 -1.2308  2.3412 -0.2170
 8824SOL    HW227372   6.420   2.677   2.806 -1.6916 -2.4504 -0.2620
 8825SOL     OW27373   2.065   0.470   4.027 -0.1915 -0.4871  0.0674
 8825SOL    HW127374   1.987   0.490   3.968  1.4422 -0.4521 -2.1934
 8825SOL    HW227375   2.105   0.556   4.060 -0.2782 -0.4533  0.0834
 8826SOL     OW27376   6.907   2.698   0.534  0.7165  0.4023  0.1953
 8826SOL    HW127377   6.837   2.716   0.603  0.7489 -0.5433  0.4852
 8826SOL    HW227378   6.985   2.652   0.577 -0.1252 -2.1108 -0.8317
 8827SOL     OW27379   5.678   6.956   3.141  0.7922 -0.3360  0.0720
 8827SOL    HW127380   5.711   6.957   3.047  1.7415 -0.4959  0.3944
 8827SOL    HW227381   5.629   7.041   3.160 -0.5123 -0.8263 -0.9302
 8828SOL     OW27382   5.198   6.241   6.511 -0.5220  0.4238  0.0353
 8828SOL    HW127383   5.233   6.321   6.558  0.1034  0.3679 -0.3204
 8828SOL    HW227384   5.184   6.262   6.414  0.4786 -0.1279 -0.2468
 8829SOL     OW27385   6.587   2.036   6.436 -0.5003 -0.0069  0.2724
 8829SOL    HW127386   6.586   1.977   6.356 -0.7467 -0.1585  0.3830
 8829SOL    HW227387   6.580   2.131   6.408  2.5909  0.2136 -0.0779
 8830SOL     OW27388   1.077   3.096   2.642  0.1593 -0.5897  0.0909
 8830SOL    HW127389   1.087   2.996   2.637  0.4393 -0.5243 -0.7580
 8830SOL    HW227390   1.060   3.133   2.551  0.9179  0.2304  0.2620
 8831SOL     OW27391   4.479   0.861   5.403  0.3616 -0.9122 -0.0635
 8831SOL    HW127392   4.547   0.924   5.440  1.7788 -1.7716 -1.1421
 8831SOL    HW227393   4.480   0.776   5.455 -0.9471 -0.4027  0.8428
 8832SOL     OW27394   1.030   6.849   1.614  0.3999 -0.2021  0.2651
 8832SOL    HW127395   1.037   6.930   1.556  0.6099  1.9093  3.0206
 8832SOL    HW227396   0.944   6.853   1.666  0.5736 -1.5973  0.7021
 8833SOL     OW27397   1.416   5.895   0.086  0.1614 -0.0168  0.5199
 8833SOL    HW127398   1.336   5.936   0.042  1.0930  2.0920  0.6859
 8833SOL    HW227399   1.484   5.965   0.105  0.5352 -1.0707  3.7881
 8834SOL     OW27400   5.168   4.493   4.228 -0.3207  0.2133  0.2091
 8834SOL    HW127401   5.236   4.556   4.264  1.0163 -1.8972  1.6633
 8834SOL    HW227402   5.079   4.512   4.270  0.0018  1.2591  0.4328
 8835SOL     OW27403   5.597   2.246   6.240  0.1086  0.1075  0.1091
 8835SOL    HW127404   5.505   2.228   6.276 -0.1300  0.7337 -0.1706
 8835SOL    HW227405   5.589   2.299   6.156  0.6069 -2.0028 -1.3533
 8836SOL     OW27406   6.396   2.385   6.912 -0.5643 -0.9204  0.3295
 8836SOL    HW127407   6.340   2.460   6.876 -1.2812 -1.6171 -0.0313
 8836SOL    HW227408   6.429   2.409   7.003 -0.7479 -0.1457  0.1958
 8837SOL     OW27409   2.023   5.908   3.533  1.0128  0.5935  0.1830
 8837SOL    HW127410   2.102   5.849   3.545  0.6124  0.1133  0.5137
 8837SOL    HW227411   1.959   5.894   3.609 -0.1809 -0.2975 -0.9533
 8838SOL     OW27412   2.768   5.426   1.306  0.4211 -0.0619  0.6609
 8838SOL    HW127413   2.725   5.484   1.375 -1.9306  0.4631 -1.1372
 8838SOL    HW227414   2.771   5.474   1.219  1.8130 -1.3157 -0.0221
 8839SOL     OW27415   3.874   5.281   2.651  0.0342 -0.5119  0.7341
 8839SOL    HW127416   3.851   5.319   2.740 -0.6985  0.4611  0.1444
 8839SOL    HW227417   3.828   5.334   2.579  1.0813 -0.9182 -0.2543
 8840SOL     OW27418   6.642   3.802   3.011  0.5405  0.2487 -0.4466
 8840SOL    HW127419   6.681   3.750   3.087  1.5357  2.4012  0.6378
 8840SOL    HW227420   6.702   3.794   2.931  0.9708  0.1471 -0.1204
 8841SOL     OW27421   0.892   1.982   5.454 -0.6882  0.0886  0.0374
 8841SOL    HW127422   0.897   2.066   5.401 -0.8595  0.2499  0.2750
 8841SOL    HW227423   0.832   1.916   5.408 -1.0086  0.3080  0.1429
 8842SOL     OW27424   3.144   3.988   2.526  0.3436  0.2847  0.4449
 8842SOL    HW127425   3.075   3.918   2.545  1.8512 -1.7304 -1.0336
 8842SOL    HW227426   3.202   4.001   2.606 -0.1603  0.1165  0.8422
 8843SOL     OW27427   2.180   2.886   4.725 -0.0510  0.0250  0.2395
 8843SOL    HW127428   2.252   2.832   4.768 -0.1452  0.6650  1.2369
 8843SOL    HW227429   2.169   2.973   4.774 -2.5234 -0.6817  1.1126
 8844SOL     OW27430   5.971   2.461   5.788 -0.4011 -0.2868  0.1927
 8844SOL    HW127431   5.928   2.494   5.704 -1.9242 -0.1218  0.9941
 8844SOL    HW227432   5.968   2.361   5.789  0.9442 -0.3567 -0.5888
 8845SOL     OW27433   4.279   2.778   0.070  0.5318  0.1389  0.4772
 8845SOL    HW127434   4.203   2.833   0.106 -1.0807 -1.6974  0.0580
 8845SOL    HW227435   4.286   2.793  -0.028 -1.6800 -2.2164 -0.1647
 8846SOL     OW27436   4.511   5.230   6.518 -0.1574 -0.1612  0.0549
 8846SOL    HW127437   4.489   5.313   6.467 -0.5079 -0.2830  0.0021
 8846SOL    HW227438   4.428   5.175   6.528 -0.5311  0.7293  2.3532
 8847SOL     OW27439   3.309   0.632   4.475 -0.4369 -0.3412  0.3954
 8847SOL    HW127440   3.320   0.627   4.574  1.1359  1.3194  0.3613
 8847SOL    HW227441   3.213   0.649   4.452 -0.6766  0.1215  1.6703
 8848SOL     OW27442   1.042   2.577   3.207  0.1329  0.0131 -0.4408
 8848SOL    HW127443   1.039   2.671   3.174  1.1615  0.1002 -0.3151
 8848SOL    HW227444   1.014   2.574   3.303  1.5957  0.4360  0.0254
 8849SOL     OW27445   4.202   5.338   3.822 -0.0404 -0.8493 -0.1310
 8849SOL    HW127446   4.237   5.409   3.882 -0.8793 -0.2774 -0.3133
 8849SOL    HW227447   4.105   5.323   3.840 -0.3906 -0.4280 -1.5638
 8850SOL     OW27448   1.196   3.973   6.071  0.7971 -0.2059 -0.5424
 8850SOL    HW127449   1.185   4.036   6.148 -1.8414 -0.4774 -0.6042
 8850SOL    HW227450   1.257   4.013   6.003 -0.1453  1.9496 -0.1989
 8851SOL     OW27451   1.157   4.501   3.891  0.2889 -0.2157  0.0966
 8851SOL    HW127452   1.131   4.416   3.846 -3.0857  0.8886 -0.3156
 8851SOL    HW227453   1.171   4.572   3.823 -0.3398  0.3715  0.5658
 8852SOL     OW27454   6.427   4.925   4.630  0.2867 -0.4656  0.1905
 8852SOL    HW127455   6.410   4.917   4.532  0.2082 -2.7352  0.3178
 8852SOL    HW227456   6.506   4.868   4.654  1.0526  1.0031  1.2849
 8853SOL     OW27457   3.502   6.687   3.150  0.4121 -0.1679 -0.5451
 8853SOL    HW127458   3.561   6.743   3.091  0.6627  0.2319  0.0763
 8853SOL    HW227459   3.407   6.716   3.136  0.6730  1.6057  0.9807
 8854SOL     OW27460   2.394   1.616   0.099 -0.1039  0.1920  0.0737
 8854SOL    HW127461   2.448   1.549   0.150  0.3786 -0.2880 -1.0225
 8854SOL    HW227462   2.305   1.627   0.142 -0.5954 -1.9301 -0.2689
 8855SOL     OW27463   0.819   4.738   2.670  0.2159 -0.1086 -0.4694
 8855SOL    HW127464   0.812   4.824   2.719  0.8783 -1.0226  1.3168
 8855SOL    HW227465   0.764   4.742   2.587 -1.1769  1.4170  0.4775
 8856SOL     OW27466   1.607   6.722   6.978 -0.0880  0.7361 -0.0767
 8856SOL    HW127467   1.532   6.678   6.930  1.7275 -1.2616 -1.2613
 8856SOL    HW227468   1.671   6.761   6.911  1.0920  0.3652  0.8009
 8857SOL     OW27469   5.855   3.236   5.752 -0.5474  0.2892  0.7248
 8857SOL    HW127470   5.836   3.154   5.805 -3.0581  0.7622  0.6676
 8857SOL    HW227471   5.810   3.230   5.663 -1.6045  2.0907  1.0887
 8858SOL     OW27472   1.091   4.647   3.107 -0.1901  0.5587  0.2169
 8858SOL    HW127473   1.103   4.638   3.206 -0.8314  2.0355  0.4622
 8858SOL    HW227474   1.162   4.595   3.060  0.5760  0.4225  1.4715
 8859SOL     OW27475   1.124   3.261   5.329 -0.4893  0.2754 -0.3001
 8859SOL    HW127476   1.107   3.343   5.384 -1.0597 -1.0440  1.6087
 8859SOL    HW227477   1.054   3.193   5.349  2.2069 -2.2293  1.3535
 8860SOL     OW27478   0.276   3.905   2.464 -0.0031 -0.3961  0.3741
 8860SOL    HW127479   0.345   3.834   2.447  1.6393  1.0861  0.4815
 8860SOL    HW227480   0.270   3.965   2.384  0.0749  0.4655  1.0000
 8861SOL     OW27481   3.520   0.778   6.103 -0.1580  0.0661 -0.0909
 8861SOL    HW127482   3.614   0.803   6.127  0.5257 -1.2421 -1.1960
 8861SOL    HW227483   3.479   0.727   6.178  0.8070 -1.1886 -0.3605
 8862SOL     OW27484   5.378   0.427   4.130  0.2105  0.3489  0.0096
 8862SOL    HW127485   5.287   0.427   4.089  0.5368  0.3437 -0.7393
 8862SOL    HW227486   5.370   0.426   4.229 -0.6180  2.0324 -0.0150
 8863SOL     OW27487   2.208   5.569   3.379 -0.3094  0.1856 -0.1293
 8863SOL    HW127488   2.300   5.555   3.342  0.0060  3.1733 -0.7913
 8863SOL    HW227489   2.213   5.578   3.478 -0.4218 -2.7024  0.2301
 8864SOL     OW27490   2.784   5.731   6.954 -0.6580 -0.2185  0.1151
 8864SOL    HW127491   2.832   5.644   6.963  1.7926  1.1540  1.8549
 8864SOL    HW227492   2.709   5.734   7.019  1.2343  0.0393  2.4472
 8865SOL     OW27493   2.043   0.503   3.328  0.2371  0.1896  0.5589
 8865SOL    HW127494   2.076   0.533   3.417  0.1296 -1.0471  1.0342
 8865SOL    HW227495   1.969   0.437   3.340  1.1379 -1.0451 -0.4222
 8866SOL     OW27496   4.559   6.719   3.750  0.2576 -0.0160 -0.0553
 8866SOL    HW127497   4.501   6.756   3.678 -1.7942 -1.3766  0.8165
 8866SOL    HW227498   4.578   6.790   3.817 -0.0314  0.5663 -0.5809
 8867SOL     OW27499   4.882   2.485   3.722  0.3141 -0.6337  0.2353
 8867SOL    HW127500   4.878   2.583   3.738 -0.3887 -0.5865 -0.2015
 8867SOL    HW227501   4.934   2.467   3.638 -0.2273 -0.5917 -0.1069
 8868SOL     OW27502   0.105   3.400   6.537  0.2044 -0.7922  0.5725
 8868SOL    HW127503   0.120   3.463   6.613  3.7346 -1.9560  0.9986
 8868SOL    HW227504   0.078   3.452   6.456  0.2094  0.9074  1.6096
 8869SOL     OW27505   1.815   6.662   6.396 -0.0211  0.6706 -0.1115
 8869SOL    HW127506   1.816   6.613   6.309  0.1767  1.9512 -0.8651
 8869SOL    HW227507   1.901   6.645   6.444 -0.1974 -0.1748 -0.0873
 8870SOL     OW27508   3.076   0.127   1.378  0.6062 -0.1179  0.0977
 8870SOL    HW127509   3.159   0.072   1.370  0.8224  0.1996  0.1690
 8870SOL    HW227510   3.004   0.086   1.321  0.6096 -0.7674  0.5535
 8871SOL     OW27511   3.376   1.128   4.238 -0.5607  0.2187  0.1066
 8871SOL    HW127512   3.325   1.105   4.321 -1.2433 -1.9133 -0.8277
 8871SOL    HW227513   3.461   1.174   4.262 -2.3895  3.0084  1.7758
 8872SOL     OW27514   2.316   3.678   5.625 -0.2933 -0.8383 -0.2269
 8872SOL    HW127515   2.341   3.760   5.677  0.7645 -1.5376  0.4122
 8872SOL    HW227516   2.217   3.670   5.621 -0.4012 -0.0330  0.5323
 8873SOL     OW27517   1.621   0.740   1.246 -0.3980 -0.0825  0.0779
 8873SOL    HW127518   1.654   0.648   1.270  0.8245  0.0174 -1.0693
 8873SOL    HW227519   1.572   0.779   1.324 -1.5864 -1.9712  0.3529
 8874SOL     OW27520   1.963   5.663   2.558 -0.3925 -0.1004 -0.1350
 8874SOL    HW127521   2.059   5.664   2.530 -0.4615  0.6267 -0.3553
 8874SOL    HW227522   1.956   5.694   2.653 -0.2259 -1.9524  0.5209
 8875SOL     OW27523   0.185   3.417   5.176 -0.0885 -0.0016 -0.0843
 8875SOL    HW127524   0.108   3.467   5.137 -0.9570  2.2714  3.9013
 8875SOL    HW227525   0.268   3.440   5.126 -1.0412  2.7679 -0.5956
 8876SOL     OW27526   2.175   0.091   6.747  0.4341  0.1791  0.3955
 8876SOL    HW127527   2.266   0.079   6.708  0.5248 -0.0114  0.6594
 8876SOL    HW227528   2.143   0.004   6.784 -0.1936  0.0577 -0.4152
 8877SOL     OW27529   2.544   1.933   5.185  0.7628  0.1046  0.5706
 8877SOL    HW127530   2.596   2.016   5.208  1.1892  0.2141 -0.7177
 8877SOL    HW227531   2.543   1.921   5.086  0.2010 -1.1250  0.7127
 8878SOL     OW27532   4.038   4.302   0.043  0.3232  0.1959  0.0246
 8878SOL    HW127533   3.945   4.338   0.043  0.1808 -0.1599  0.1079
 8878SOL    HW227534   4.088   4.339   0.121  0.0796 -0.0271  0.2909
 8879SOL     OW27535   3.018   5.329   2.099  0.8022 -0.0429  0.0775
 8879SOL    HW127536   2.969   5.328   2.186 -0.4912 -0.7002 -0.6121
 8879SOL    HW227537   3.057   5.238   2.082  1.6024  0.2579  0.2476
 8880SOL     OW27538   3.443   5.563   4.497 -0.1195 -0.0209  0.1843
 8880SOL    HW127539   3.431   5.508   4.414 -1.2081 -2.2039  1.6994
 8880SOL    HW227540   3.355   5.604   4.522 -0.4881 -1.6184  1.6928
 8881SOL     OW27541   5.943   5.854   3.430 -0.7303  0.7064 -0.3600
 8881SOL    HW127542   5.916   5.861   3.334 -0.7512 -0.2474 -0.4366
 8881SOL    HW227543   6.042   5.836   3.435 -1.1082 -1.7198 -0.3341
 8882SOL     OW27544   5.645   6.917   1.126  0.9397  0.0523 -0.2032
 8882SOL    HW127545   5.694   6.969   1.196  1.6094 -1.2694  0.3432
 8882SOL    HW227546   5.560   6.880   1.166 -0.5198  2.2331 -1.1103
 8883SOL     OW27547   1.681   4.415   1.073 -0.3457  0.5146  0.2171
 8883SOL    HW127548   1.759   4.379   1.124  0.8338  3.5324  0.7532
 8883SOL    HW227549   1.661   4.508   1.104 -1.7447  1.2372 -2.5103
 8884SOL     OW27550   5.453   3.749   5.160  0.2932 -0.5244  0.2531
 8884SOL    HW127551   5.495   3.831   5.121 -0.8871 -0.1523 -0.2585
 8884SOL    HW227552   5.443   3.679   5.088  0.3484 -0.7420  0.4549
 8885SOL     OW27553   3.497   4.638   6.105 -0.2627 -0.5502 -0.3656
 8885SOL    HW127554   3.440   4.717   6.129  2.3041  0.7891  1.8755
 8885SOL    HW227555   3.559   4.664   6.030 -0.6533 -1.0875 -0.8844
 8886SOL     OW27556   3.929   5.887   6.534  0.0605 -0.1250  0.2376
 8886SOL    HW127557   3.861   5.960   6.536 -0.3901 -0.5403  2.2889
 8886SOL    HW227558   3.999   5.906   6.604  0.2787 -1.3218  0.3550
 8887SOL     OW27559   5.896   1.814   1.210  0.5059  0.6787  0.0045
 8887SOL    HW127560   5.825   1.821   1.280 -1.1771 -1.2083 -1.3846
 8887SOL    HW227561   5.965   1.748   1.240 -0.5786 -0.6644 -0.3391
 8888SOL     OW27562   2.915   0.368   5.312  0.4543  0.0935 -0.2700
 8888SOL    HW127563   2.876   0.284   5.276 -0.1734  0.0514  0.4809
 8888SOL    HW227564   2.908   0.440   5.243 -0.6368 -0.0094 -0.2831
 8889SOL     OW27565   0.647   0.560   2.832 -0.9575 -0.0415  0.1508
 8889SOL    HW127566   0.664   0.524   2.740  1.2263  0.1899  0.4134
 8889SOL    HW227567   0.702   0.642   2.846 -0.4942 -0.6197  1.9943
 8890SOL     OW27568   0.769   0.118   6.221  0.4643  0.3395  0.1651
 8890SOL    HW127569   0.797   0.201   6.173 -0.2598  1.1782  1.1398
 8890SOL    HW227570   0.786   0.039   6.163  0.3738  1.2358 -1.1363
 8891SOL     OW27571   3.674   2.201   0.690 -0.3032 -0.2074  0.4223
 8891SOL    HW127572   3.692   2.276   0.627 -1.5707 -0.1526  0.0955
 8891SOL    HW227573   3.668   2.236   0.783  1.6792 -0.3023  0.6248
 8892SOL     OW27574   3.922   4.799   2.367  0.5684 -0.0825 -0.7729
 8892SOL    HW127575   4.014   4.830   2.345  0.6513  0.6202  0.5113
 8892SOL    HW227576   3.885   4.852   2.443 -1.3125  0.3703 -1.9189
 8893SOL     OW27577   1.111   4.118   2.703 -0.0172 -0.0662  0.2546
 8893SOL    HW127578   1.124   4.108   2.604  0.4446  0.7025  0.2311
 8893SOL    HW227579   1.017   4.149   2.720 -0.8000 -2.2113  0.2102
 8894SOL     OW27580   0.218   2.176   0.373  0.0269 -0.0255  0.0642
 8894SOL    HW127581   0.273   2.128   0.441  1.0218 -0.0945 -0.7575
 8894SOL    HW227582   0.229   2.132   0.284  0.2453  1.1529 -0.5199
 8895SOL     OW27583   0.544   4.100   0.186  0.1217 -0.2936  0.3260
 8895SOL    HW127584   0.569   4.009   0.151 -1.1866 -0.6971  0.3765
 8895SOL    HW227585   0.447   4.100   0.210  0.4387  0.6930  1.7123
 8896SOL     OW27586   2.015   4.296   4.077 -1.0487  0.0526 -0.0681
 8896SOL    HW127587   1.948   4.244   4.129 -1.4277  1.7163  1.1918
 8896SOL    HW227588   2.107   4.271   4.105 -1.2206 -0.1369  0.3252
 8897SOL     OW27589   0.186   2.378   5.461 -0.1890 -0.4937  0.2936
 8897SOL    HW127590   0.232   2.319   5.396 -0.9945  0.8338 -1.5670
 8897SOL    HW227591   0.171   2.469   5.420 -3.3302 -0.4826  1.1795
 8898SOL     OW27592   4.183   5.642   3.662 -0.3832  0.4472 -1.4782
 8898SOL    HW127593   4.272   5.604   3.688 -0.7671  1.0695  0.9027
 8898SOL    HW227594   4.121   5.567   3.640 -0.3148 -0.2232  0.4420
 8899SOL     OW27595   1.123   3.208   2.365  0.1680  0.2251 -0.9393
 8899SOL    HW127596   1.171   3.286   2.324  0.4408 -0.1881 -1.4263
 8899SOL    HW227597   1.174   3.124   2.345 -0.1374 -0.0779 -0.4424
 8900SOL     OW27598   5.849   3.874   2.965 -0.3743  0.4580  0.3163
 8900SOL    HW127599   5.790   3.801   2.998 -0.1022  0.2965  0.4481
 8900SOL    HW227600   5.941   3.838   2.947 -0.2939  0.7216  0.1854
 8901SOL     OW27601   0.157   2.325   3.312 -0.2055 -0.2661 -0.4504
 8901SOL    HW127602   0.154   2.225   3.319 -2.3552 -0.3051 -1.4050
 8901SOL    HW227603   0.085   2.357   3.250  1.0679  1.8284 -0.9598
 8902SOL     OW27604   6.050   5.152   1.084 -0.4061  0.2980  0.3622
 8902SOL    HW127605   6.117   5.085   1.052 -0.9856 -0.3496  0.4862
 8902SOL    HW227606   5.971   5.105   1.123  0.0671  1.0566  2.3606
 8903SOL     OW27607   6.985   2.851   2.679 -0.2320 -0.2347  0.2318
 8903SOL    HW127608   6.915   2.863   2.750 -0.3387 -1.2691  0.3207
 8903SOL    HW227609   7.039   2.769   2.699 -0.3868 -0.6609 -0.9727
 8904SOL     OW27610   2.444   0.964   6.196 -0.8486  0.4292 -0.3230
 8904SOL    HW127611   2.439   0.984   6.294 -0.8915  0.7886 -0.3961
 8904SOL    HW227612   2.355   0.984   6.154 -0.7026  0.6789 -0.5099
 8905SOL     OW27613   2.052   4.994   2.673 -0.4711 -0.2359 -0.3593
 8905SOL    HW127614   2.112   5.007   2.753  0.4671  0.5784 -1.1635
 8905SOL    HW227615   1.974   5.056   2.680 -0.3420 -0.0975 -0.1114
 8906SOL     OW27616   1.040   6.812   5.267  0.0717 -0.1776  0.1355
 8906SOL    HW127617   1.087   6.873   5.330  1.1369 -0.1132 -0.6955
 8906SOL    HW227618   1.047   6.718   5.300  1.2993 -0.2403 -0.2612
 8907SOL     OW27619   2.683   3.444   5.671 -0.2626 -0.0954 -0.2984
 8907SOL    HW127620   2.707   3.541   5.680  0.9379 -0.3791 -0.2380
 8907SOL    HW227621   2.688   3.417   5.574 -0.3828 -0.1471 -0.2903
 8908SOL     OW27622   0.355   5.100   6.505 -0.5439 -0.6239 -0.1390
 8908SOL    HW127623   0.439   5.047   6.519  0.5668  0.9444 -0.4910
 8908SOL    HW227624   0.374   5.174   6.440 -1.4463  1.3908  1.7578
 8909SOL     OW27625   1.518   0.841   4.654 -0.5451 -0.2034 -0.2098
 8909SOL    HW127626   1.483   0.747   4.656 -2.9757  0.6682  0.6920
 8909SOL    HW227627   1.446   0.903   4.624  0.8743  1.4729 -0.3060
 8910SOL     OW27628   1.112   3.628   0.666 -0.0097 -1.4271  0.0061
 8910SOL    HW127629   1.109   3.531   0.640 -1.7042 -1.4680  0.2311
 8910SOL    HW227630   1.019   3.664   0.669  0.6216  0.3379 -0.4810
 8911SOL     OW27631   5.710   3.769   4.716 -0.1049  0.4949  0.2891
 8911SOL    HW127632   5.796   3.719   4.703 -0.0130  0.7136  0.0498
 8911SOL    HW227633   5.728   3.853   4.767 -0.1943  0.4860  0.3349
 8912SOL     OW27634   3.967   2.086   6.537 -0.0999  0.2924  0.0402
 8912SOL    HW127635   3.975   2.098   6.636 -1.9783  1.4732  0.0990
 8912SOL    HW227636   3.890   2.024   6.518  0.7584 -0.5718 -0.6671
 8913SOL     OW27637   3.165   4.375   1.403 -0.1612  0.4342 -0.1930
 8913SOL    HW127638   3.259   4.399   1.381  0.0786  0.2591  0.6293
 8913SOL    HW227639   3.163   4.289   1.453 -0.8350 -0.0402 -1.0038
 8914SOL     OW27640   3.644   6.669   5.873  0.4790  0.5312 -0.1385
 8914SOL    HW127641   3.679   6.584   5.913 -0.7392  0.4390  0.7733
 8914SOL    HW227642   3.587   6.646   5.794  2.1706  0.6688 -1.4636
 8915SOL     OW27643   1.911   3.821   3.319 -0.4814 -0.2167 -0.7428
 8915SOL    HW127644   1.915   3.730   3.277 -0.4975 -0.9667  0.8077
 8915SOL    HW227645   1.966   3.821   3.402 -0.6958  1.1368 -0.5799
 8916SOL     OW27646   6.049   4.766   0.047 -0.0470  0.5297 -0.0677
 8916SOL    HW127647   5.957   4.733   0.023  0.7157 -1.6551 -0.1900
 8916SOL    HW227648   6.091   4.701   0.111  2.4276 -0.0041 -2.1035
 8917SOL     OW27649   4.941   1.903   0.447  0.4816 -0.4527 -0.2787
 8917SOL    HW127650   4.978   1.922   0.357  0.7379 -1.7913 -0.4758
 8917SOL    HW227651   4.842   1.890   0.441  0.3571  0.4227 -0.1988
 8918SOL     OW27652   6.926   5.066   0.904 -0.0570  0.3661  0.2547
 8918SOL    HW127653   6.835   5.026   0.894  0.1371  0.2925 -1.6754
 8918SOL    HW227654   6.994   4.992   0.908  0.1790  0.4072 -1.8782
 8919SOL     OW27655   3.985   4.761   6.067 -0.4246  0.7693 -0.5338
 8919SOL    HW127656   3.943   4.780   5.978 -1.0951  2.3322  0.0878
 8919SOL    HW227657   4.084   4.773   6.060 -0.5616  1.7768 -0.8709
 8920SOL     OW27658   6.984   1.423   5.203  0.3838 -0.2229  0.3749
 8920SOL    HW127659   6.928   1.348   5.239  3.8561 -2.2600  2.0623
 8920SOL    HW227660   6.977   1.425   5.103 -2.9518  0.0286  0.4938
 8921SOL     OW27661   0.843   3.726   0.240 -0.5620 -0.1650 -0.4500
 8921SOL    HW127662   0.858   3.779   0.323  0.2012  1.1580 -1.3966
 8921SOL    HW227663   0.886   3.636   0.250  0.7202  0.4833  0.0811
 8922SOL     OW27664   2.499   6.673   0.873 -0.4430  0.4979 -0.1870
 8922SOL    HW127665   2.467   6.768   0.870 -3.1317 -0.2995  0.1186
 8922SOL    HW227666   2.489   6.637   0.965 -0.0130 -0.2690 -0.4330
 8923SOL     OW27667   0.400   3.558   6.268 -0.0716  0.0225  0.4566
 8923SOL    HW127668   0.342   3.639   6.278  0.4287  0.2772  1.4286
 8923SOL    HW227669   0.385   3.497   6.346 -1.5660 -1.5915 -0.9789
 8924SOL     OW27670   4.571   6.752   5.741 -0.1225 -0.0697  0.1161
 8924SOL    HW127671   4.499   6.789   5.683 -0.5250  0.9725  1.2338
 8924SOL    HW227672   4.615   6.675   5.695 -1.0030  0.1708 -1.1763
 8925SOL     OW27673   0.194   5.574   1.954  0.4253 -0.5682 -0.0695
 8925SOL    HW127674   0.263   5.567   1.882  1.0663  0.1123  0.4627
 8925SOL    HW227675   0.235   5.616   2.035 -0.2766 -1.3402  0.7051
 8926SOL     OW27676   5.287   4.737   5.353  0.2072 -0.0977 -0.5764
 8926SOL    HW127677   5.271   4.692   5.266 -1.2818 -1.3160  0.2801
 8926SOL    HW227678   5.297   4.669   5.425  0.9266  0.8953  0.3089
 8927SOL     OW27679   0.721   0.989   4.440 -0.1483 -0.7376  0.0424
 8927SOL    HW127680   0.796   0.980   4.374  0.4362 -0.4108  0.6546
 8927SOL    HW227681   0.730   0.920   4.511 -0.6603 -0.9529 -0.0941
 8928SOL     OW27682   1.318   6.624   0.152 -1.0071 -0.3377  0.0279
 8928SOL    HW127683   1.257   6.693   0.191 -0.1454  1.1169 -1.0641
 8928SOL    HW227684   1.358   6.660   0.067  0.1787 -1.8492 -0.0901
 8929SOL     OW27685   5.092   3.046   0.210 -0.1795  0.1501 -0.1818
 8929SOL    HW127686   5.082   2.947   0.224  0.5250  0.0627 -0.2706
 8929SOL    HW227687   5.081   3.093   0.298 -1.6220  0.0973 -0.3088
 8930SOL     OW27688   1.670   3.854   1.861 -0.0011  0.2654 -0.3018
 8930SOL    HW127689   1.764   3.839   1.893 -0.3051 -0.1897  0.3977
 8930SOL    HW227690   1.649   3.789   1.787  0.0767  0.0574 -0.1400
 8931SOL     OW27691   3.732   1.951   0.469 -0.4015  0.1373 -0.7072
 8931SOL    HW127692   3.789   1.967   0.549 -1.3584  2.5861 -0.4326
 8931SOL    HW227693   3.763   1.869   0.421  1.9019  0.1546  0.6500
 8932SOL     OW27694   6.589   2.785   2.396 -0.3102  0.4184 -0.6170
 8932SOL    HW127695   6.574   2.845   2.474  0.1539  0.5191 -0.6023
 8932SOL    HW227696   6.628   2.838   2.320 -1.4872  0.4938 -1.1996
 8933SOL     OW27697   3.384   2.063   4.542  0.0001 -0.2322  0.4655
 8933SOL    HW127698   3.439   1.983   4.565  2.3016  1.5269  1.6208
 8933SOL    HW227699   3.346   2.103   4.626  2.1824  1.9987  0.5305
 8934SOL     OW27700   2.440   5.458   3.618  0.3631 -0.2676 -0.2912
 8934SOL    HW127701   2.519   5.402   3.642  0.1967 -0.3515  0.0677
 8934SOL    HW227702   2.447   5.547   3.663  0.4796 -0.1055 -0.6246
 8935SOL     OW27703   0.815   5.356   0.249  1.2966 -0.6612 -0.0029
 8935SOL    HW127704   0.786   5.262   0.264  2.3035 -0.9509  0.2047
 8935SOL    HW227705   0.772   5.416   0.316  0.9707 -1.0336  0.1181
 8936SOL     OW27706   3.121   5.576   3.723  0.5758  0.2393  0.1585
 8936SOL    HW127707   3.191   5.505   3.733  0.9655  0.7105  0.8835
 8936SOL    HW227708   3.164   5.659   3.686  0.5497  0.7558  1.2598
 8937SOL     OW27709   2.145   0.610   5.275  0.3214  0.4312  0.3558
 8937SOL    HW127710   2.134   0.704   5.241  1.1801  0.3436 -0.2193
 8937SOL    HW227711   2.147   0.547   5.198  0.2499 -0.0032  0.7083
 8938SOL     OW27712   1.597   6.861   1.913  0.4398  0.5606  0.2804
 8938SOL    HW127713   1.678   6.919   1.921  0.3216  0.6040  1.3098
 8938SOL    HW227714   1.623   6.771   1.880  0.6727  1.0823 -1.0121
 8939SOL     OW27715   4.958   2.698   4.559 -0.1480 -0.0172  0.1580
 8939SOL    HW127716   4.944   2.606   4.523  3.6658 -0.1794 -1.4005
 8939SOL    HW227717   5.027   2.696   4.631  1.3586  1.7108 -1.1240
 8940SOL     OW27718   0.960   5.982   4.340  0.2675  0.0963  0.0784
 8940SOL    HW127719   1.044   5.989   4.288  0.0082 -0.1527 -0.3825
 8940SOL    HW227720   0.976   5.930   4.424  0.5761  0.0671 -0.0001
 8941SOL     OW27721   6.947   2.475   5.064  0.2826  0.0778  0.4039
 8941SOL    HW127722   6.866   2.507   5.114  0.9509  0.7310  1.0985
 8941SOL    HW227723   7.029   2.489   5.120  0.6785 -2.5010  0.5790
 8942SOL     OW27724   6.311   5.954   4.585 -0.2931  0.3729  0.4288
 8942SOL    HW127725   6.402   5.994   4.576  0.5247 -1.5145 -0.2679
 8942SOL    HW227726   6.310   5.863   4.543 -1.9856 -0.4315  2.0315
 8943SOL     OW27727   4.384   6.281   6.612  0.1422  0.2794 -0.1478
 8943SOL    HW127728   4.404   6.184   6.605  1.3608  0.3965  1.1859
 8943SOL    HW227729   4.338   6.312   6.529  0.7597 -1.1840 -1.0758
 8944SOL     OW27730   4.272   4.740   4.533 -0.1076  0.3273 -0.2923
 8944SOL    HW127731   4.260   4.708   4.439 -0.9142 -0.5143  0.0808
 8944SOL    HW227732   4.192   4.795   4.560 -0.3130 -0.2104  0.2056
 8945SOL     OW27733   2.201   0.729   3.990  0.3294  0.0711  0.4086
 8945SOL    HW127734   2.188   0.739   3.891  0.0250  0.4654  0.4835
 8945SOL    HW227735   2.255   0.806   4.024 -1.1223  0.9412  0.8312
 8946SOL     OW27736   3.771   0.240   5.400 -0.6313  0.6420  0.6142
 8946SOL    HW127737   3.851   0.248   5.342 -0.8301 -1.6374 -0.0739
 8946SOL    HW227738   3.689   0.259   5.346 -0.7005  0.5370  0.6829
 8947SOL     OW27739   2.908   3.321   5.082 -0.4532 -0.3541 -0.0841
 8947SOL    HW127740   2.885   3.408   5.126 -0.1344 -0.0990 -0.4166
 8947SOL    HW227741   2.878   3.323   4.987 -0.1394 -0.4751 -0.1864
 8948SOL     OW27742   0.974   5.263   4.232  1.3785 -0.3075 -0.4451
 8948SOL    HW127743   1.052   5.220   4.186 -0.3079 -1.2584 -2.6569
 8948SOL    HW227744   0.929   5.327   4.169 -0.5599 -1.0141  0.1358
 8949SOL     OW27745   2.142   0.276   1.066  0.4287 -0.2117 -0.8867
 8949SOL    HW127746   2.129   0.321   1.154  0.2824 -1.1165 -0.4286
 8949SOL    HW227747   2.106   0.334   0.993 -2.4884 -0.8053 -0.0539
 8950SOL     OW27748   5.189   5.027   5.436  0.0029 -0.1155 -0.2083
 8950SOL    HW127749   5.243   4.948   5.406  0.9315  0.8887 -1.3232
 8950SOL    HW227750   5.121   5.049   5.366  0.6734  0.8864 -0.5722
 8951SOL     OW27751   0.074   0.854   3.274 -0.1891 -0.5770  0.3015
 8951SOL    HW127752   0.016   0.906   3.211  0.5800 -1.7614 -1.4872
 8951SOL    HW227753   0.024   0.834   3.357 -1.7347 -0.0763 -0.4734
 8952SOL     OW27754   1.882   2.095   2.731 -0.2844 -0.1221  0.3205
 8952SOL    HW127755   1.978   2.093   2.703 -0.1217 -0.3359  0.8807
 8952SOL    HW227756   1.861   2.182   2.775 -0.1204 -0.4142  0.9790
 8953SOL     OW27757   3.429   3.705   0.786 -0.1700 -0.6443  0.1057
 8953SOL    HW127758   3.414   3.804   0.782  0.9780 -0.4261  1.1003
 8953SOL    HW227759   3.340   3.658   0.781 -1.0118  0.5274  2.6088
 8954SOL     OW27760   5.508   0.743   6.158  0.3349 -0.2122  0.8341
 8954SOL    HW127761   5.478   0.651   6.132  1.8977 -0.3328 -0.7293
 8954SOL    HW227762   5.530   0.745   6.255 -0.6470 -1.2102  1.0986
 8955SOL     OW27763   0.522   3.661   2.077  0.0047 -0.2362  0.2369
 8955SOL    HW127764   0.580   3.671   1.996  1.9740 -1.6697  1.3501
 8955SOL    HW227765   0.545   3.575   2.123 -2.4577 -0.4282  1.2523
 8956SOL     OW27766   6.579   1.094   5.500 -0.9225 -0.4007  0.1513
 8956SOL    HW127767   6.552   1.032   5.573 -2.0685  0.7618  0.7549
 8956SOL    HW227768   6.632   1.044   5.432 -0.9842 -1.8069  1.0908
 8957SOL     OW27769   2.330   3.833   1.791 -0.3124  0.7012  0.4158
 8957SOL    HW127770   2.402   3.891   1.753 -0.8269  0.5474 -0.8427
 8957SOL    HW227771   2.336   3.742   1.751 -0.5367  0.3604  1.1409
 8958SOL     OW27772   1.220   0.837   5.040 -0.2039 -0.2236  0.1869
 8958SOL    HW127773   1.122   0.852   5.053 -0.2405 -0.7674  0.5518
 8958SOL    HW227774   1.234   0.763   4.974 -0.0544 -0.9586  1.0248
 8959SOL     OW27775   1.645   3.940   0.615  0.2279 -0.2038  0.3541
 8959SOL    HW127776   1.652   3.957   0.517  1.5900 -0.5399  0.3743
 8959SOL    HW227777   1.656   4.027   0.664  1.7436 -0.3152  0.2645
 8960SOL     OW27778   3.974   5.862   2.635  0.2058  0.1111  0.9751
 8960SOL    HW127779   3.952   5.925   2.709  0.7127 -0.0431  1.2630
 8960SOL    HW227780   3.908   5.787   2.634  0.7777 -0.4137  1.9063
 8961SOL     OW27781   2.086   0.201   4.009  0.5480  0.3743  0.0390
 8961SOL    HW127782   2.059   0.297   4.000  0.5422  0.2388 -1.9065
 8961SOL    HW227783   2.179   0.189   3.976 -0.2168 -0.6172 -1.9355
 8962SOL     OW27784   5.193   6.205   2.861  0.5295 -0.1335 -0.1354
 8962SOL    HW127785   5.242   6.219   2.775 -1.7279  1.3702 -1.2433
 8962SOL    HW227786   5.097   6.184   2.842  0.0463 -0.0568  2.0146
 8963SOL     OW27787   3.199   5.540   2.780 -0.1551 -0.2646  0.1445
 8963SOL    HW127788   3.216   5.468   2.713  0.8184 -0.8390  0.9654
 8963SOL    HW227789   3.103   5.566   2.778 -0.4519 -1.3428 -0.4124
 8964SOL     OW27790   6.244   1.723   3.691  0.1328  0.0129  0.3987
 8964SOL    HW127791   6.338   1.690   3.702  1.0122  2.1438 -0.1110
 8964SOL    HW227792   6.180   1.652   3.720  1.9223 -0.9007  2.3960
 8965SOL     OW27793   3.456   4.858   1.253  0.0432 -0.2222 -0.0654
 8965SOL    HW127794   3.392   4.931   1.275 -0.2615 -0.7763  0.9221
 8965SOL    HW227795   3.512   4.838   1.333  0.9909 -0.2170 -0.7084
 8966SOL     OW27796   5.524   5.000   5.118  0.1840 -0.0892 -0.3126
 8966SOL    HW127797   5.498   4.952   5.201 -2.1250  3.0850  1.0340
 8966SOL    HW227798   5.574   5.083   5.142 -1.7398  1.6399 -1.8260
 8967SOL     OW27799   5.227   1.390   2.608  0.4663 -0.2090  0.3321
 8967SOL    HW127800   5.158   1.324   2.578  0.0109 -1.1500  3.1329
 8967SOL    HW227801   5.307   1.341   2.643  0.2580  0.6787  2.1402
 8968SOL     OW27802   5.529   3.516   2.153  0.0989 -0.6427  0.0918
 8968SOL    HW127803   5.526   3.454   2.231  1.0389 -2.1598 -1.0274
 8968SOL    HW227804   5.555   3.466   2.071 -0.9534  0.8882 -1.2491
 8969SOL     OW27805   6.691   3.197   4.241  0.1635 -0.8581 -0.0886
 8969SOL    HW127806   6.780   3.233   4.214 -0.1132 -0.3784 -0.3846
 8969SOL    HW227807   6.670   3.114   4.189  0.1109 -0.5510 -0.5624
 8970SOL     OW27808   2.644   3.192   0.262 -0.5219  0.3395  0.2729
 8970SOL    HW127809   2.593   3.198   0.348 -3.0414 -0.5705 -1.0491
 8970SOL    HW227810   2.613   3.264   0.199 -1.7112 -1.4081 -1.2530
 8971SOL     OW27811   5.376   5.267   1.112 -0.2423 -0.5302 -0.3504
 8971SOL    HW127812   5.356   5.364   1.096  0.4475  0.4374  3.5349
 8971SOL    HW227813   5.473   5.250   1.100  0.0599 -0.1003  1.2765
 8972SOL     OW27814   5.742   4.211   0.122  0.0449  0.1672  0.2679
 8972SOL    HW127815   5.782   4.228   0.032  0.3429  1.4040  0.6062
 8972SOL    HW227816   5.749   4.114   0.144  0.3903 -0.0756 -0.8360
 8973SOL     OW27817   6.596   3.343   1.654  0.2302  0.0617  0.5775
 8973SOL    HW127818   6.689   3.318   1.679  0.1751  0.9515  1.7516
 8973SOL    HW227819   6.532   3.276   1.691  0.3477 -0.1301  0.4340
 8974SOL     OW27820   1.497   4.825   6.090 -0.4513  0.0417 -0.5873
 8974SOL    HW127821   1.426   4.790   6.028  0.1999 -0.4686 -1.0595
 8974SOL    HW227822   1.477   4.920   6.113 -0.5817  0.3254 -1.7865
 8975SOL     OW27823   1.793   5.473   5.424  0.3605  0.1189  0.1381
 8975SOL    HW127824   1.755   5.528   5.350 -1.2522 -1.4268 -0.2295
 8975SOL    HW227825   1.728   5.467   5.499  0.9919 -0.3301  0.6658
 8976SOL     OW27826   0.707   4.949   5.793  0.5135  0.2699  0.1031
 8976SOL    HW127827   0.656   5.031   5.766  1.1309 -0.1508 -2.7106
 8976SOL    HW227828   0.733   4.898   5.711  0.4801 -2.5769  1.7341
 8977SOL     OW27829   4.384   1.877   0.018  0.3286 -0.1101 -0.0412
 8977SOL    HW127830   4.457   1.812   0.040 -2.1201 -2.5029  1.7254
 8977SOL    HW227831   4.336   1.904   0.101 -1.1269  0.9624 -1.1609
 8978SOL     OW27832   0.238   0.656   5.253  0.0300  0.2432  0.2096
 8978SOL    HW127833   0.222   0.714   5.173 -0.6873 -0.3499 -0.0919
 8978SOL    HW227834   0.329   0.674   5.290 -0.0449  1.2875 -0.0989
 8979SOL     OW27835   0.225   2.887   2.934 -0.4399  0.2063  0.0361
 8979SOL    HW127836   0.175   2.901   3.019  0.1966  0.7875  0.3223
 8979SOL    HW227837   0.308   2.833   2.953  1.3379  2.8492  0.3875
 8980SOL     OW27838   0.327   3.426   0.969 -0.1051  0.0602 -0.3876
 8980SOL    HW127839   0.359   3.393   1.058 -2.3858 -0.5324  0.2662
 8980SOL    HW227840   0.393   3.492   0.933  0.0545  1.7214  2.5872
 8981SOL     OW27841   4.754   1.452   6.363 -0.4662 -0.0147  0.0950
 8981SOL    HW127842   4.783   1.450   6.268  1.8853  1.5614  0.6996
 8981SOL    HW227843   4.749   1.547   6.395 -1.2300 -0.5077  1.5459
 8982SOL     OW27844   6.857   1.702   2.145  0.0765  0.5915 -0.5777
 8982SOL    HW127845   6.857   1.751   2.059  2.1072 -1.0560 -1.6147
 8982SOL    HW227846   6.846   1.766   2.221  1.8962  2.5584 -1.8803
 8983SOL     OW27847   3.452   4.443   5.820  0.4830  0.1323 -0.2644
 8983SOL    HW127848   3.401   4.366   5.782  0.4590 -0.1755  0.3857
 8983SOL    HW227849   3.458   4.434   5.919  0.0609  1.2233 -0.1253
 8984SOL     OW27850   1.497   0.050   5.449  0.4082  0.3392  0.3135
 8984SOL    HW127851   1.464   0.144   5.440  1.2882  0.7228  0.9424
 8984SOL    HW227852   1.562   0.031   5.375 -1.1409 -0.4139 -0.9221
 8985SOL     OW27853   3.097   1.743   0.298 -0.1816  0.1009  0.7587
 8985SOL    HW127854   3.138   1.833   0.317 -0.1350  0.2622 -0.0852
 8985SOL    HW227855   3.025   1.754   0.229 -0.3719 -0.4727  0.8657
 8986SOL     OW27856   5.177   6.474   2.966  0.1149 -0.0617 -0.1900
 8986SOL    HW127857   5.178   6.377   2.941  0.1596 -0.2729  0.6235
 8986SOL    HW227858   5.256   6.495   3.023 -1.4308 -0.2475  2.1715
 8987SOL     OW27859   6.189   6.809   2.349 -0.0457 -0.1934  0.0785
 8987SOL    HW127860   6.121   6.849   2.287  1.1478  0.7267 -0.6858
 8987SOL    HW227861   6.257   6.760   2.295  0.6460  0.0503  0.7203
 8988SOL     OW27862   1.834   3.371   6.361 -1.0176  0.1852 -0.3554
 8988SOL    HW127863   1.784   3.285   6.366 -1.2376  0.3656  0.7245
 8988SOL    HW227864   1.807   3.421   6.279 -0.2908 -1.1303 -1.4312
 8989SOL     OW27865   4.832   6.511   1.622  0.6272  0.1415  0.3902
 8989SOL    HW127866   4.781   6.429   1.648  1.1097 -0.0379  0.7900
 8989SOL    HW227867   4.819   6.581   1.692 -0.0500  0.5294 -0.1137
 8990SOL     OW27868   2.206   0.051   1.568 -0.2491  0.3958 -0.2240
 8990SOL    HW127869   2.169   0.098   1.648  0.7879  2.4114 -0.8590
 8990SOL    HW227870   2.284  -0.006   1.596 -0.5677  0.2313  0.3400
 8991SOL     OW27871   6.809   3.290   5.870 -0.1090  0.4695 -0.8475
 8991SOL    HW127872   6.860   3.345   5.804  1.9114 -0.4718 -0.1663
 8991SOL    HW227873   6.778   3.205   5.826 -1.5124  1.2196 -1.3703
 8992SOL     OW27874   6.068   0.481   0.094 -0.4407 -0.4555 -0.0287
 8992SOL    HW127875   6.106   0.397   0.055  0.1835  0.1285 -0.7018
 8992SOL    HW227876   6.086   0.557   0.033  1.0921  0.6038  1.6373
 8993SOL     OW27877   4.680   2.769   2.317 -0.6557 -0.3624  0.1268
 8993SOL    HW127878   4.644   2.755   2.409 -0.6700  0.4290  0.2495
 8993SOL    HW227879   4.616   2.732   2.249  0.0318 -2.3000  0.4634
 8994SOL     OW27880   0.620   4.869   4.776 -0.3483 -0.4085 -0.0607
 8994SOL    HW127881   0.673   4.806   4.719  0.5310 -0.7036  1.0568
 8994SOL    HW227882   0.547   4.819   4.822 -0.8016 -0.2483 -0.5979
 8995SOL     OW27883   0.760   4.639   6.837 -0.5579 -0.2704 -0.3158
 8995SOL    HW127884   0.852   4.675   6.855 -0.4181 -0.9076  0.2526
 8995SOL    HW227885   0.694   4.686   6.896 -1.0418  2.1753 -2.6145
 8996SOL     OW27886   4.911   6.155   5.597  0.2245 -0.1083 -0.0124
 8996SOL    HW127887   4.989   6.112   5.553 -1.7464 -2.8506 -1.1250
 8996SOL    HW227888   4.845   6.084   5.625 -3.1116  2.0918 -1.5806
 8997SOL     OW27889   5.119   0.177   5.534  0.2472 -0.1996  0.9104
 8997SOL    HW127890   5.183   0.116   5.581  1.1439 -0.5086 -0.6228
 8997SOL    HW227891   5.026   0.158   5.566  0.9124  0.7803  3.7416
 8998SOL     OW27892   5.602   2.724   5.539 -0.7740  0.1392  0.5045
 8998SOL    HW127893   5.699   2.740   5.520 -1.0319  1.0942 -0.0773
 8998SOL    HW227894   5.576   2.773   5.622 -0.6870 -0.3920  0.8498
 8999SOL     OW27895   5.730   1.016   6.211 -0.3883  0.2014  0.0974
 8999SOL    HW127896   5.715   1.106   6.253  0.2665  0.8077 -0.9151
 8999SOL    HW227897   5.663   1.001   6.139 -1.3345 -0.7194  1.1179
 9000SOL     OW27898   3.202   3.755   1.077  0.7642  0.2994 -0.7519
 9000SOL    HW127899   3.129   3.774   1.143  2.0035  1.6294  0.2886
 9000SOL    HW227900   3.190   3.662   1.040 -0.9868  0.1973 -0.0421
 9001SOL     OW27901   2.510   5.171   2.462  0.0635  0.6638  0.1910
 9001SOL    HW127902   2.590   5.191   2.406  0.9167  1.0248  1.4995
 9001SOL    HW227903   2.445   5.247   2.456  0.2623  0.8143 -0.0796
 9002SOL     OW27904   0.495   6.724   4.718  0.5599 -0.2150 -0.1915
 9002SOL    HW127905   0.551   6.674   4.652  0.8506 -1.3291  0.8726
 9002SOL    HW227906   0.433   6.661   4.764 -0.2830  0.7030 -0.0423
 9003SOL     OW27907   5.298   3.820   1.675  0.4739  0.0567  0.0709
 9003SOL    HW127908   5.384   3.808   1.724 -0.8189 -2.3544  1.9787
 9003SOL    HW227909   5.228   3.853   1.738 -0.3016  0.8471 -1.1700
 9004SOL     OW27910   5.932   0.397   0.968 -0.2815 -0.3565  0.3332
 9004SOL    HW127911   5.989   0.328   1.012 -0.1442 -0.9707 -0.7730
 9004SOL    HW227912   5.948   0.396   0.869 -1.8263 -0.1915  0.0449
 9005SOL     OW27913   5.905   1.162   5.374 -0.4449 -0.4561  0.0101
 9005SOL    HW127914   5.904   1.218   5.291  0.3193 -0.7534 -0.2109
 9005SOL    HW227915   5.856   1.209   5.447  0.5519  0.7139 -0.0451
 9006SOL     OW27916   2.584   4.577   2.535  0.1439 -0.4186  0.3254
 9006SOL    HW127917   2.571   4.546   2.441  1.3195  1.4100 -0.5030
 9006SOL    HW227918   2.495   4.599   2.576 -0.3438 -0.7964 -0.5139
 9007SOL     OW27919   4.067   1.728   3.097  1.1162  0.4030 -0.5208
 9007SOL    HW127920   4.130   1.785   3.150  0.8322 -0.3415  0.6324
 9007SOL    HW227921   4.072   1.633   3.129 -0.4622  0.2943 -0.5263
 9008SOL     OW27922   2.389   5.074   1.073 -0.0879  0.3156  0.1838
 9008SOL    HW127923   2.347   4.992   1.034  0.6380 -0.7724  1.5465
 9008SOL    HW227924   2.323   5.148   1.076 -1.3096 -0.7410  0.4591
 9009SOL     OW27925   2.925   6.888   1.513 -0.4485 -0.9269  0.3585
 9009SOL    HW127926   2.943   6.986   1.503  0.1328 -1.0096  0.5576
 9009SOL    HW227927   3.006   6.842   1.549 -1.4812 -1.1143  2.6541
 9010SOL     OW27928   2.002   6.427   4.022 -0.0335 -0.4818 -0.1198
 9010SOL    HW127929   2.099   6.443   4.038  0.2604 -1.2468 -1.0398
 9010SOL    HW227930   1.969   6.489   3.950 -0.6247  0.8673  1.2666
 9011SOL     OW27931   6.817   2.410   2.598  0.1972  0.0566 -0.2846
 9011SOL    HW127932   6.742   2.460   2.556 -1.0232 -2.6302 -1.5619
 9011SOL    HW227933   6.893   2.402   2.534 -0.2573 -1.0290 -0.7151
 9012SOL     OW27934   0.705   1.613   1.390  0.0741 -0.6213  0.2998
 9012SOL    HW127935   0.641   1.648   1.458  0.4418 -1.1731  0.9447
 9012SOL    HW227936   0.754   1.535   1.428 -0.4135 -1.5641 -0.9411
 9013SOL     OW27937   0.076   0.213   4.897  0.1799  0.1971  0.0814
 9013SOL    HW127938   0.166   0.187   4.861  0.3515  0.2127  0.4889
 9013SOL    HW227939   0.079   0.308   4.928  0.2007  0.0133  0.6552
 9014SOL     OW27940   6.834   1.718   1.411  0.2997  0.2528 -0.2295
 9014SOL    HW127941   6.856   1.750   1.504  0.0649  1.5129 -0.5804
 9014SOL    HW227942   6.756   1.656   1.414  0.3426  0.2254  0.4218
 9015SOL     OW27943   6.710   0.286   3.064  0.4652  0.2956  0.0982
 9015SOL    HW127944   6.735   0.326   2.975 -2.4519 -2.4235 -2.1708
 9015SOL    HW227945   6.755   0.197   3.074  0.9262  0.6616  1.5235
 9016SOL     OW27946   1.477   0.952   1.480  0.3244  0.6027  0.4204
 9016SOL    HW127947   1.441   0.866   1.444  1.6653  0.3460 -0.3727
 9016SOL    HW227948   1.447   0.963   1.575  0.8760 -1.1934  0.8430
 9017SOL     OW27949   4.621   0.672   4.181 -0.6835  0.0632 -0.2193
 9017SOL    HW127950   4.720   0.680   4.194 -0.1889 -1.4888 -2.5163
 9017SOL    HW227951   4.583   0.612   4.252  0.6716 -2.2832 -1.3788
 9018SOL     OW27952   2.443   2.461   5.996 -0.2487 -0.2637  0.0320
 9018SOL    HW127953   2.501   2.472   5.916  1.0439  0.1264  0.9995
 9018SOL    HW227954   2.348   2.483   5.971  0.3268  1.0992 -1.0699
 9019SOL     OW27955   1.146   0.066   3.389 -0.1242  0.3310 -1.0430
 9019SOL    HW127956   1.060   0.086   3.342 -0.2581  1.2086 -0.4522
 9019SOL    HW227957   1.149   0.115   3.476 -0.0925 -1.6546  0.1360
 9020SOL     OW27958   0.454   5.110   0.230 -0.3463  0.1317  0.6506
 9020SOL    HW127959   0.553   5.106   0.240 -0.1060  3.1266  0.4434
 9020SOL    HW227960   0.431   5.174   0.156 -2.4474 -0.4725  0.7182
 9021SOL     OW27961   0.990   0.688   2.816  0.1901  0.2061 -0.3147
 9021SOL    HW127962   1.039   0.698   2.730  0.8592  1.2318  0.1694
 9021SOL    HW227963   0.919   0.759   2.822 -0.9497 -0.8635 -0.7232
 9022SOL     OW27964   4.162   2.162   6.347 -0.5472 -0.3781 -0.4801
 9022SOL    HW127965   4.088   2.131   6.406 -1.6477 -1.0929 -2.1558
 9022SOL    HW227966   4.211   2.237   6.390 -0.6051 -1.5633  1.7962
 9023SOL     OW27967   3.187   2.439   1.705 -0.5289 -0.4764  0.5526
 9023SOL    HW127968   3.248   2.361   1.723 -1.5258 -1.6285 -0.8041
 9023SOL    HW227969   3.102   2.426   1.757 -0.5499 -0.0870  0.6140
 9024SOL     OW27970   0.532   6.092   5.407 -0.1221 -0.0286  0.3591
 9024SOL    HW127971   0.474   6.027   5.357  0.2438  0.6904 -1.0731
 9024SOL    HW227972   0.474   6.158   5.455 -0.5731  1.1622 -1.6945
 9025SOL     OW27973   1.693   4.799   6.589 -0.0621  0.2647  0.7307
 9025SOL    HW127974   1.636   4.873   6.554  0.2414  0.1720  0.0314
 9025SOL    HW227975   1.738   4.828   6.673  1.5978  1.5795 -0.5592
 9026SOL     OW27976   4.435   5.186   6.928 -0.4203 -0.7355  0.2949
 9026SOL    HW127977   4.354   5.208   6.982  0.5841 -1.7202  2.3536
 9026SOL    HW227978   4.461   5.265   6.873 -2.5710 -0.3067 -0.1925
 9027SOL     OW27979   1.982   0.810   4.862 -0.1345  0.5514 -0.7192
 9027SOL    HW127980   1.911   0.802   4.792 -1.7257 -0.0715  0.8803
 9027SOL    HW227981   2.007   0.907   4.873 -1.3218  0.8840 -0.7982
 9028SOL     OW27982   2.281   2.498   0.440  0.3239 -0.2046  1.0865
 9028SOL    HW127983   2.348   2.572   0.434 -1.1343  1.0810 -0.8237
 9028SOL    HW227984   2.219   2.516   0.517  3.0465 -2.3557  4.0659
 9029SOL     OW27985   3.888   6.514   6.305 -0.3213  0.3228 -0.0069
 9029SOL    HW127986   3.915   6.550   6.394 -0.2389  1.6866 -0.5519
 9029SOL    HW227987   3.943   6.558   6.233  0.5829 -1.7496 -0.6552
 9030SOL     OW27988   2.908   1.940   2.962 -0.2367 -0.5745  0.0463
 9030SOL    HW127989   2.827   1.978   3.006 -1.0347  1.3486 -2.8049
 9030SOL    HW227990   2.983   2.006   2.966  0.3682 -1.2784  0.4364
 9031SOL     OW27991   3.812   5.935   4.473  0.6325 -0.2416  0.2733
 9031SOL    HW127992   3.825   5.951   4.570 -1.2337  1.0339  0.3580
 9031SOL    HW227993   3.721   5.896   4.457  0.5543  0.4144 -1.0356
 9032SOL     OW27994   3.609   1.413   1.849  0.3307 -0.9578  0.2910
 9032SOL    HW127995   3.549   1.336   1.870  0.4176 -1.2787 -0.5975
 9032SOL    HW227996   3.704   1.383   1.852  0.3225 -1.3421 -1.6738
 9033SOL     OW27997   1.300   4.867   0.646  0.1567 -0.0053  0.3913
 9033SOL    HW127998   1.238   4.908   0.579  0.9367 -0.2263 -0.4773
 9033SOL    HW227999   1.359   4.801   0.600  0.7762 -0.0791  1.2876
 9034SOL     OW28000   5.368   0.125   5.643  0.1280  0.2288  0.1108
 9034SOL    HW128001   5.333   0.128   5.737  0.3961  1.9080  0.2010
 9034SOL    HW228002   5.413   0.212   5.623 -0.9831  0.3757 -1.9899
 9035SOL     OW28003   2.312   5.841   5.744  0.2204 -0.3483  0.5583
 9035SOL    HW128004   2.228   5.894   5.736  0.0014 -0.3937  2.2284
 9035SOL    HW228005   2.385   5.899   5.780  0.8540 -0.3924 -0.5821
 9036SOL     OW28006   2.563   0.620   4.698  0.5091 -0.1829 -0.1363
 9036SOL    HW128007   2.604   0.700   4.655 -0.2919 -0.0088 -0.5871
 9036SOL    HW228008   2.601   0.608   4.790  0.0054  1.2280  0.2772
 9037SOL     OW28009   1.055   3.467   3.991  0.0704 -0.0061 -0.0620
 9037SOL    HW128010   1.077   3.487   4.086 -0.4268  0.6239 -0.0763
 9037SOL    HW228011   1.134   3.488   3.933 -0.3362  1.7022 -0.0432
 9038SOL     OW28012   3.988   0.560   6.535  0.2640  0.0862 -0.2351
 9038SOL    HW128013   4.050   0.586   6.460 -0.5338  1.6914 -0.3811
 9038SOL    HW228014   3.960   0.465   6.523  0.3198  0.2385 -1.8681
 9039SOL     OW28015   2.446   5.354   4.260 -0.2737 -0.4457 -0.0010
 9039SOL    HW128016   2.465   5.258   4.237 -0.5213 -0.5753  0.3259
 9039SOL    HW228017   2.348   5.365   4.278 -0.0687 -0.3840  1.1356
 9040SOL     OW28018   5.702   1.378   2.500 -0.2630  0.4686 -0.0480
 9040SOL    HW128019   5.662   1.288   2.485  0.4539  0.3872 -1.6045
 9040SOL    HW228020   5.801   1.369   2.514 -0.4422  0.8586  1.7760
 9041SOL     OW28021   6.873   3.281   1.712 -0.0978  0.0877  0.8114
 9041SOL    HW128022   6.864   3.211   1.641 -0.9155 -0.1788  1.1572
 9041SOL    HW228023   6.914   3.363   1.673 -0.5629 -0.0433  0.0096
 9042SOL     OW28024   4.424   0.148   2.578  0.0139 -0.0043 -0.1981
 9042SOL    HW128025   4.363   0.108   2.647 -1.7123 -1.5283 -2.4679
 9042SOL    HW228026   4.375   0.219   2.528  0.9200  0.4023 -0.5352
 9043SOL     OW28027   1.682   6.501   0.912 -0.7537 -0.5666  0.4227
 9043SOL    HW128028   1.606   6.565   0.901 -0.9102 -0.3757  2.2739
 9043SOL    HW228029   1.669   6.448   0.995  2.0419  0.8372  1.9103
 9044SOL     OW28030   6.963   1.671   6.232  0.6524  0.5155 -0.2768
 9044SOL    HW128031   6.937   1.664   6.328  1.3134  2.1660  0.0648
 9044SOL    HW228032   7.039   1.609   6.213  1.1403  0.8525  0.5249
 9045SOL     OW28033   1.303   2.512   1.451 -0.2678 -0.2519 -0.3896
 9045SOL    HW128034   1.207   2.521   1.475 -0.5192  1.8901 -1.9447
 9045SOL    HW228035   1.337   2.599   1.414  2.5197 -0.6627  0.9583
 9046SOL     OW28036   3.461   4.154   4.984 -0.2514 -0.4449  0.0520
 9046SOL    HW128037   3.561   4.146   4.995 -0.1971  1.6708  2.0331
 9046SOL    HW228038   3.427   4.077   4.931  2.6366 -0.3813 -2.1609
 9047SOL     OW28039   2.348   2.792   6.757 -0.0834 -0.2681 -0.6951
 9047SOL    HW128040   2.286   2.717   6.731  0.0742 -1.5051  2.1900
 9047SOL    HW228041   2.413   2.760   6.825 -0.5637  2.7087  1.3372
 9048SOL     OW28042   4.719   3.446   6.165  0.0180 -0.0543 -0.2646
 9048SOL    HW128043   4.741   3.426   6.261 -1.3809  2.2084  0.5987
 9048SOL    HW228044   4.685   3.363   6.122  1.0270 -1.2215  1.0554
 9049SOL     OW28045   4.266   0.599   6.809  0.6623  0.3564  0.2208
 9049SOL    HW128046   4.246   0.502   6.817  0.2952  0.0219 -3.2458
 9049SOL    HW228047   4.348   0.612   6.754  1.5029  2.0388  1.7644
 9050SOL     OW28048   0.759   4.689   1.169  0.8201 -0.2991 -0.0974
 9050SOL    HW128049   0.817   4.637   1.232 -0.1773  0.6209  1.6577
 9050SOL    HW228050   0.709   4.759   1.220  0.7342  1.1806 -2.0964
 9051SOL     OW28051   3.507   0.953   1.439  0.1441  0.1142  0.2204
 9051SOL    HW128052   3.490   1.047   1.469  0.8216  0.4079 -0.3029
 9051SOL    HW228053   3.604   0.941   1.421 -0.1213 -0.3199 -0.9790
 9052SOL     OW28054   1.894   1.733   3.031  0.2271  0.4943  0.0602
 9052SOL    HW128055   1.956   1.674   3.082  0.0237 -0.4147 -0.7017
 9052SOL    HW228056   1.867   1.811   3.087  0.4668 -0.1679  1.1158
 9053SOL     OW28057   3.454   1.202   2.375  0.7672 -0.0068 -0.2776
 9053SOL    HW128058   3.493   1.125   2.426  0.8801  1.9264  2.7746
 9053SOL    HW228059   3.359   1.183   2.351  1.0763 -1.4342 -0.4374
 9054SOL     OW28060   3.200   6.987   3.246 -0.3843 -0.3939 -0.2060
 9054SOL    HW128061   3.124   7.049   3.266 -0.3216 -0.5465  0.5368
 9054SOL    HW228062   3.284   7.040   3.237 -0.5509 -0.2359 -0.9195
 9055SOL     OW28063   0.122   4.512   3.774 -0.4168  0.2219  0.1989
 9055SOL    HW128064   0.198   4.515   3.839 -0.3581  0.9893  0.0968
 9055SOL    HW228065   0.064   4.434   3.795  0.8802 -0.9284 -0.2637
 9056SOL     OW28066   6.940   4.017   0.754 -0.2028  0.3906 -0.0744
 9056SOL    HW128067   6.913   3.927   0.719 -2.3296  0.5932  0.9158
 9056SOL    HW228068   6.903   4.088   0.695 -0.2974  0.6499  0.2966
 9057SOL     OW28069   4.934   4.220   5.735  0.3519  0.7735  0.6675
 9057SOL    HW128070   4.843   4.260   5.723  0.2800  0.6825  0.9005
 9057SOL    HW228071   4.997   4.258   5.667 -0.4383 -0.9754 -1.1193
 9058SOL     OW28072   2.907   1.045   3.044 -0.7158 -0.3638  0.6193
 9058SOL    HW128073   2.955   1.083   3.122  0.0452 -1.9960  0.9758
 9058SOL    HW228074   2.904   1.113   2.970 -1.3152  1.1377  1.9623
 9059SOL     OW28075   2.526   2.472   4.961 -0.1276  0.0558  0.0415
 9059SOL    HW128076   2.568   2.524   4.887  3.6476 -1.8214  0.6477
 9059SOL    HW228077   2.544   2.517   5.048  0.7648 -0.7638  0.3069
 9060SOL     OW28078   4.740   2.269   5.206 -0.2052  0.1319 -0.0704
 9060SOL    HW128079   4.645   2.237   5.205 -0.5795  1.1254  0.8727
 9060SOL    HW228080   4.769   2.284   5.301  1.2038 -0.9793 -0.2883
 9061SOL     OW28081   1.659   5.711   2.564  0.1084 -0.9466  0.1992
 9061SOL    HW128082   1.609   5.791   2.532 -2.1356 -3.0900 -2.1717
 9061SOL    HW228083   1.746   5.704   2.514  0.2159 -0.1237  0.2610
 9062SOL     OW28084   0.767   6.742   1.239  0.3345 -0.3995 -0.4312
 9062SOL    HW128085   0.762   6.781   1.148  1.8775 -0.4681 -0.5547
 9062SOL    HW228086   0.825   6.660   1.238 -0.2318 -0.8320  0.4665
 9063SOL     OW28087   4.045   0.953   2.969 -0.0650  0.0071 -0.4457
 9063SOL    HW128088   4.120   1.012   2.999 -0.6279  1.0273 -0.9723
 9063SOL    HW228089   3.959   0.989   3.003 -0.3079 -1.4136  0.5441
 9064SOL     OW28090   0.341   1.090   5.310  0.5136  0.0741  0.1706
 9064SOL    HW128091   0.418   1.028   5.318 -0.7891 -1.5008  1.1275
 9064SOL    HW228092   0.344   1.136   5.221  3.0502  0.8177  0.5595
 9065SOL     OW28093   2.110   5.930   0.027 -0.3535 -0.1343 -0.6399
 9065SOL    HW128094   2.193   5.889  -0.012 -0.5373 -1.7492  0.5540
 9065SOL    HW228095   2.054   5.968  -0.047  0.9789  0.1160 -1.5614
 9066SOL     OW28096   4.769   5.841   1.357 -0.1354  0.2994  0.2811
 9066SOL    HW128097   4.866   5.822   1.344 -0.2245 -0.6544  0.9560
 9066SOL    HW228098   4.756   5.899   1.437 -0.2046 -0.5641  0.9046
 9067SOL     OW28099   6.308   0.484   4.331 -0.0019  0.9861  0.0919
 9067SOL    HW128100   6.351   0.518   4.415 -0.4541  1.0270  0.3112
 9067SOL    HW228101   6.232   0.543   4.307 -1.8096 -0.6986  1.3659
 9068SOL     OW28102   3.050   0.528   5.546 -0.0233 -0.0966  0.1968
 9068SOL    HW128103   2.967   0.504   5.495 -0.6851  2.0724  0.1292
 9068SOL    HW228104   3.106   0.589   5.491  1.9635 -1.9992  0.0188
 9069SOL     OW28105   2.163   3.926   6.660  0.2126 -0.3473 -0.5445
 9069SOL    HW128106   2.121   3.894   6.575 -1.0856 -1.1607  0.3828
 9069SOL    HW228107   2.093   3.970   6.717  0.8086 -0.9119  0.6376
 9070SOL     OW28108   1.972   3.349   5.302  0.4901 -0.3311  0.2582
 9070SOL    HW128109   1.894   3.394   5.261  0.3749 -0.2874  0.5204
 9070SOL    HW228110   2.053   3.407   5.293  0.6072 -0.5997 -0.4633
 9071SOL     OW28111   6.802   6.995   1.928 -0.2894 -0.5431  0.3195
 9071SOL    HW128112   6.852   7.032   1.849 -1.4721  1.3770  0.3953
 9071SOL    HW228113   6.704   6.991   1.906 -0.6863  0.3760  1.7736
 9072SOL     OW28114   4.840   1.595   2.679  0.2678  0.2609 -0.0774
 9072SOL    HW128115   4.840   1.545   2.593 -0.5143 -0.8473  0.5387
 9072SOL    HW228116   4.931   1.590   2.721  0.9237  1.6134 -1.2615
 9073SOL     OW28117   4.058   0.115   3.506 -0.1959 -0.1233  0.0926
 9073SOL    HW128118   3.978   0.139   3.452  0.0568  0.1243 -0.1692
 9073SOL    HW228119   4.034   0.116   3.603 -0.4932  0.0142  0.0179
 9074SOL     OW28120   2.016   3.978   1.451 -0.5532 -0.3671 -0.1983
 9074SOL    HW128121   1.973   3.899   1.494 -0.7832  0.6971  1.5920
 9074SOL    HW228122   1.953   4.016   1.383 -0.2901 -1.9013 -1.3746
 9075SOL     OW28123   6.938   0.291   3.560 -0.1825 -0.7064 -0.2125
 9075SOL    HW128124   7.024   0.339   3.547  0.8752 -1.8697  1.9093
 9075SOL    HW228125   6.876   0.311   3.484  1.7222  0.6198 -1.4939
 9076SOL     OW28126   6.569   4.418   5.845 -0.0530 -0.7394 -0.5065
 9076SOL    HW128127   6.585   4.347   5.913 -0.6527 -1.1503 -0.7835
 9076SOL    HW228128   6.657   4.453   5.812  0.2482 -0.0576  0.9507
 9077SOL     OW28129   3.614   0.263   1.373  0.0231  0.9014 -0.0856
 9077SOL    HW128130   3.563   0.347   1.389 -0.3064  0.6517  0.1836
 9077SOL    HW228131   3.705   0.270   1.414 -0.8324  0.2361  2.0151
 9078SOL     OW28132   3.587   3.475   4.966 -0.3686 -0.4002 -0.3667
 9078SOL    HW128133   3.685   3.463   4.980 -0.1617  1.4283 -0.0328
 9078SOL    HW228134   3.571   3.509   4.874 -0.3494  2.4405  0.5941
 9079SOL     OW28135   3.879   1.665   4.493  0.2133  0.8042  0.1949
 9079SOL    HW128136   3.847   1.753   4.458  1.8099  1.5238  0.4510
 9079SOL    HW228137   3.801   1.609   4.520 -0.8068  2.5276  0.9720
 9080SOL     OW28138   4.359   2.244   5.718 -0.2223 -0.3662  0.1007
 9080SOL    HW128139   4.333   2.164   5.772 -0.3555  0.7063  1.7171
 9080SOL    HW228140   4.279   2.278   5.669 -0.8855  0.3529  1.5964
 9081SOL     OW28141   4.355   5.740   4.259 -0.2540  0.2948 -0.3464
 9081SOL    HW128142   4.337   5.835   4.234 -0.2167 -0.1907 -2.4178
 9081SOL    HW228143   4.278   5.705   4.313  0.3403  1.8506  1.6229
 9082SOL     OW28144   2.615   1.453   4.339  0.1523 -0.0916 -0.5497
 9082SOL    HW128145   2.612   1.542   4.294  2.6786 -0.6250 -1.9504
 9082SOL    HW228146   2.695   1.402   4.307  0.9835 -1.3392  3.1074
 9083SOL     OW28147   4.417   3.460   6.814 -0.0237  0.0530  0.5353
 9083SOL    HW128148   4.385   3.366   6.818 -1.4151  0.3235 -2.1330
 9083SOL    HW228149   4.426   3.496   6.907 -0.0162 -2.4752  1.6002
 9084SOL     OW28150   3.734   3.166   4.805 -0.3572 -0.1164  0.2510
 9084SOL    HW128151   3.743   3.095   4.735  0.6077  0.1193  0.1189
 9084SOL    HW228152   3.647   3.154   4.854 -1.1011 -0.2224 -1.0459
 9085SOL     OW28153   1.613   1.155   1.354  0.5825 -0.1314  0.4621
 9085SOL    HW128154   1.581   1.063   1.374  1.0697 -0.8397 -1.7501
 9085SOL    HW228155   1.557   1.194   1.280  1.2324  0.8233  0.4589
 9086SOL     OW28156   1.583   5.018   1.302  0.9945  0.3635  0.2169
 9086SOL    HW128157   1.490   5.056   1.300  0.4741 -0.8731  0.1150
 9086SOL    HW228158   1.648   5.091   1.322 -0.2010  0.9016  2.4803
 9087SOL     OW28159   4.091   2.130   0.618 -0.3746 -0.9975 -0.0446
 9087SOL    HW128160   4.175   2.079   0.634 -0.6883 -0.9226  2.1297
 9087SOL    HW228161   4.083   2.203   0.687 -2.1457 -0.9185 -0.2910
 9088SOL     OW28162   0.390   6.539   2.603  0.1767  0.2669  0.5093
 9088SOL    HW128163   0.456   6.579   2.666  0.2657  0.6399  0.1895
 9088SOL    HW228164   0.418   6.559   2.509 -0.0195 -0.1743  0.3566
 9089SOL     OW28165   6.044   5.467   5.229  0.2304  1.1403 -0.0124
 9089SOL    HW128166   5.989   5.527   5.171 -2.2523 -0.5153  0.4916
 9089SOL    HW228167   6.067   5.384   5.179  2.8584  2.0057 -0.3951
 9090SOL     OW28168   0.648   6.575   4.536  0.2191 -0.2928  0.0092
 9090SOL    HW128169   0.739   6.562   4.577 -0.0021 -2.4903 -0.0765
 9090SOL    HW228170   0.640   6.517   4.455 -0.8106  0.9035 -0.7668
 9091SOL     OW28171   1.417   5.755   6.626 -0.0402  0.4991 -0.2185
 9091SOL    HW128172   1.505   5.767   6.581  0.1735  0.6377  0.2292
 9091SOL    HW228173   1.431   5.726   6.720 -0.4918 -0.1989 -0.3591
 9092SOL     OW28174   0.014   0.432   5.828  0.0849  0.2948  0.4065
 9092SOL    HW128175   0.077   0.509   5.815 -0.4154  1.1355  2.5015
 9092SOL    HW228176  -0.064   0.462   5.883 -1.7597 -0.9406 -1.3961
 9093SOL     OW28177   6.256   5.544   0.186  0.2521  0.1798  0.0934
 9093SOL    HW128178   6.198   5.465   0.209  1.1533 -0.1517  1.3341
 9093SOL    HW228179   6.318   5.563   0.262 -0.2756  2.4183  0.0387
 9094SOL     OW28180   1.162   3.793   1.307  0.5335 -0.3808 -0.9161
 9094SOL    HW128181   1.113   3.828   1.387 -0.9238  0.1015 -1.9572
 9094SOL    HW228182   1.221   3.865   1.271 -1.3773  0.6267 -2.2110
 9095SOL     OW28183   4.748   6.322   5.730  0.9240 -0.1812 -0.1423
 9095SOL    HW128184   4.784   6.366   5.812  1.2854 -1.8563  0.6396
 9095SOL    HW228185   4.823   6.282   5.677  0.5452 -0.6063 -0.3728
 9096SOL     OW28186   6.085   4.303   1.072 -0.7747  0.5714  0.1539
 9096SOL    HW128187   6.096   4.285   0.974  1.2173 -0.7694  0.5683
 9096SOL    HW228188   6.089   4.216   1.122  1.2393  1.4602  1.6433
 9097SOL     OW28189   2.332   0.420   6.620 -0.9481  0.1677  0.0659
 9097SOL    HW128190   2.336   0.507   6.573 -0.6393  1.1912  1.8834
 9097SOL    HW228191   2.274   0.428   6.701  2.1612 -0.1001  2.5246
 9098SOL     OW28192   4.025   2.225   4.596  0.7689  0.5674  0.2880
 9098SOL    HW128193   4.045   2.239   4.500  0.7296 -1.8216 -0.1239
 9098SOL    HW228194   4.102   2.257   4.652  0.7647  2.0136 -0.5050
 9099SOL     OW28195   3.112   3.903   6.238  0.4167  0.2140 -0.4086
 9099SOL    HW128196   3.186   3.876   6.300 -0.2987  1.3845  1.0310
 9099SOL    HW228197   3.042   3.831   6.236  0.6160  0.0107 -0.1230
 9100SOL     OW28198   0.998   2.130   2.902  0.2025 -0.0061 -0.3701
 9100SOL    HW128199   1.011   2.190   2.981 -0.7108  1.0419 -0.9819
 9100SOL    HW228200   1.083   2.123   2.850  0.1576  1.3403 -0.6667
 9101SOL     OW28201   3.336   2.806   1.448  0.2421 -0.1756  0.1972
 9101SOL    HW128202   3.254   2.839   1.399  0.5994  1.9728  0.9564
 9101SOL    HW228203   3.308   2.766   1.535  0.0326  1.7237  1.0508
 9102SOL     OW28204   5.090   1.284   1.624 -0.4326 -0.4284  0.2763
 9102SOL    HW128205   5.070   1.369   1.575  0.1262 -0.2002  0.4255
 9102SOL    HW228206   5.029   1.277   1.703 -1.4577 -0.8897 -0.5352
 9103SOL     OW28207   0.265   2.781   0.354 -0.0667  0.0776 -0.4044
 9103SOL    HW128208   0.277   2.686   0.382  1.3860  0.6209  0.9531
 9103SOL    HW228209   0.296   2.793   0.260 -1.7162 -1.0694 -1.1433
 9104SOL     OW28210   0.482   5.539   1.518 -0.0119 -0.3256 -1.0300
 9104SOL    HW128211   0.410   5.492   1.466 -1.2599 -0.7556  0.9617
 9104SOL    HW228212   0.552   5.473   1.545 -0.9316 -0.7593  0.3837
 9105SOL     OW28213   2.888   1.001   6.637  0.8120  0.6191 -0.0845
 9105SOL    HW128214   2.958   0.932   6.618 -0.1793 -0.3241 -0.4521
 9105SOL    HW228215   2.801   0.970   6.599 -0.5444  0.2275  3.0708
 9106SOL     OW28216   4.754   4.979   6.820  0.2854 -0.0053 -0.2433
 9106SOL    HW128217   4.843   5.017   6.795 -0.5586  0.8526 -2.1531
 9106SOL    HW228218   4.701   4.959   6.737 -1.6935  0.4450  0.8343
 9107SOL     OW28219   1.767   1.555   1.627  0.3457  0.2790 -0.1563
 9107SOL    HW128220   1.740   1.643   1.588  0.3062  0.0639 -0.6227
 9107SOL    HW228221   1.826   1.570   1.706  1.3823  0.7091 -0.9931
 9108SOL     OW28222   5.490   4.012   4.975  0.0431 -1.0042 -0.4447
 9108SOL    HW128223   5.515   3.991   4.880  1.5470  1.7565 -0.7544
 9108SOL    HW228224   5.517   4.106   4.997 -0.5271 -1.4618  2.6712
 9109SOL     OW28225   6.080   2.599   3.488 -0.3198  0.1609 -0.1268
 9109SOL    HW128226   6.013   2.551   3.545 -0.2265 -0.2109 -0.3291
 9109SOL    HW228227   6.109   2.682   3.535  1.0663 -1.0181  1.1971
 9110SOL     OW28228   6.867   0.899   4.017  0.2141 -0.0495  0.1363
 9110SOL    HW128229   6.957   0.862   3.996  0.1423  0.4485 -1.1979
 9110SOL    HW228230   6.797   0.829   4.002  0.1533  0.3310 -1.5543
 9111SOL     OW28231   5.016   0.778   1.532  0.8361 -0.1113  0.0306
 9111SOL    HW128232   5.057   0.754   1.620 -0.3912  0.8053  0.8744
 9111SOL    HW228233   4.970   0.866   1.539 -1.9212 -1.3839 -0.6333
 9112SOL     OW28234   0.552   5.187   4.287 -0.5830  0.2345 -0.5218
 9112SOL    HW128235   0.486   5.112   4.291 -1.0282  0.6518  0.1575
 9112SOL    HW228236   0.592   5.201   4.378  0.2009  0.2070 -0.8532
 9113SOL     OW28237   5.956   1.608   3.946  0.4612  0.7173  0.4644
 9113SOL    HW128238   5.995   1.593   3.855 -2.0579 -1.1093 -0.4587
 9113SOL    HW228239   5.923   1.703   3.953  0.3193  0.7736 -0.7153
 9114SOL     OW28240   6.931   5.777   2.976  0.0680  1.0939  0.0159
 9114SOL    HW128241   7.025   5.800   3.001  0.5765 -0.9112  0.0915
 9114SOL    HW228242   6.911   5.684   3.006 -0.8775  0.3015 -2.8579
 9115SOL     OW28243   5.614   6.143   0.893  0.2662  0.4082 -0.2687
 9115SOL    HW128244   5.705   6.185   0.901  0.1729  0.7722 -0.9745
 9115SOL    HW228245   5.593   6.128   0.796 -0.9272  1.4808 -0.2099
 9116SOL     OW28246   1.606   1.183   3.110  0.4764 -0.5423  0.1174
 9116SOL    HW128247   1.555   1.217   3.030 -0.1484 -0.0422  0.7119
 9116SOL    HW228248   1.698   1.222   3.110 -0.0320  0.7017  0.4655
 9117SOL     OW28249   4.338   1.705   1.326 -0.3815  0.6694  0.5770
 9117SOL    HW128250   4.375   1.656   1.247  0.1491  1.6400  0.2056
 9117SOL    HW228251   4.351   1.803   1.313 -1.1784  0.8986  1.4283
 9118SOL     OW28252   5.364   3.838   6.575  0.3896 -0.0497 -0.6047
 9118SOL    HW128253   5.350   3.856   6.477  0.6584  0.2613 -0.5875
 9118SOL    HW228254   5.419   3.911   6.615  3.3839 -1.9411 -0.9951
 9119SOL     OW28255   4.222   0.739   0.717 -0.1253 -0.2826 -0.0469
 9119SOL    HW128256   4.219   0.834   0.687  0.6680 -0.3997 -0.5161
 9119SOL    HW228257   4.137   0.716   0.765  0.7508  1.4595  2.4987
 9120SOL     OW28258   0.339   2.554   6.211  0.1940  0.4000  0.0348
 9120SOL    HW128259   0.370   2.475   6.157  1.2581  0.2026  0.8986
 9120SOL    HW228260   0.417   2.612   6.234  0.2292 -0.6484  3.1525
 9121SOL     OW28261   3.210   6.988   4.670 -0.5235 -0.1458  0.0750
 9121SOL    HW128262   3.252   7.076   4.649 -0.7760 -0.2440 -0.8797
 9121SOL    HW228263   3.127   6.977   4.615 -0.8072 -0.7422  0.6040
 9122SOL     OW28264   0.715   4.249   2.508 -0.2990  0.4266 -0.2203
 9122SOL    HW128265   0.750   4.329   2.460  0.5836  0.9227  1.1944
 9122SOL    HW228266   0.629   4.219   2.466  1.5820 -0.6573 -3.6486
 9123SOL     OW28267   1.489   0.360   3.596  0.8260  0.2588  0.5028
 9123SOL    HW128268   1.502   0.314   3.508  0.2350 -1.7652  1.4097
 9123SOL    HW228269   1.523   0.302   3.670 -1.2190  0.6286  1.8242
 9124SOL     OW28270   1.822   4.650   2.283  0.0674 -0.2473  0.0296
 9124SOL    HW128271   1.888   4.578   2.260  0.2518 -0.0822  0.0507
 9124SOL    HW228272   1.784   4.633   2.374 -0.3622 -0.6755 -0.2225
 9125SOL     OW28273   3.528   3.977   0.540 -0.1329  0.1052  0.0869
 9125SOL    HW128274   3.483   3.948   0.456  3.2768  2.2178 -2.7390
 9125SOL    HW228275   3.574   3.898   0.582  0.5355 -0.5159 -1.7191
 9126SOL     OW28276   4.104   4.636   1.148  0.1506 -0.8139 -0.4935
 9126SOL    HW128277   4.197   4.672   1.142  0.0617 -0.7266 -1.5014
 9126SOL    HW228278   4.040   4.701   1.106 -0.6466  0.0438  1.8682
 9127SOL     OW28279   5.666   3.158   5.545 -0.1426  0.5276 -0.1099
 9127SOL    HW128280   5.677   3.165   5.445  0.8615 -0.1039 -0.0538
 9127SOL    HW228281   5.570   3.175   5.569 -0.0736  2.4440 -1.0128
 9128SOL     OW28282   5.726   2.117   5.887  0.3660  0.3643 -0.1982
 9128SOL    HW128283   5.675   2.040   5.926 -0.8281  0.4479 -1.5083
 9128SOL    HW228284   5.705   2.200   5.939 -0.1548  0.2293 -0.1855
 9129SOL     OW28285   6.654   2.243   0.708 -0.0742  0.1442 -0.6645
 9129SOL    HW128286   6.720   2.250   0.782  1.1513 -0.4869 -1.6460
 9129SOL    HW228287   6.701   2.213   0.625 -1.5970 -0.2571 -1.4165
 9130SOL     OW28288   0.056   5.718   4.972  0.5374 -0.1944  0.1618
 9130SOL    HW128289   0.124   5.652   4.939 -1.0456 -3.3389  2.6505
 9130SOL    HW228290  -0.034   5.674   4.975 -0.3467  1.5732  3.3243
 9131SOL     OW28291   4.456   2.084   0.884 -0.0119  0.5050  0.2760
 9131SOL    HW128292   4.410   1.998   0.906 -0.0375  0.4232 -0.1013
 9131SOL    HW228293   4.443   2.149   0.959 -0.9660  0.5786  0.0581
 9132SOL     OW28294   0.222   5.493   4.932 -0.1355 -0.1561 -0.3723
 9132SOL    HW128295   0.255   5.475   5.024  0.1056  0.4896 -0.3323
 9132SOL    HW228296   0.206   5.406   4.885 -0.1118 -0.4839  0.2214
 9133SOL     OW28297   4.286   0.584   0.484 -0.5346  0.3523 -0.3062
 9133SOL    HW128298   4.277   0.625   0.575  0.7853  1.6822 -0.7289
 9133SOL    HW228299   4.213   0.618   0.425 -1.4663 -0.6042  0.2454
 9134SOL     OW28300   5.556   5.396   5.161 -0.0868  0.5959  0.3076
 9134SOL    HW128301   5.599   5.310   5.188 -0.2549  0.6766  0.8383
 9134SOL    HW228302   5.457   5.387   5.165 -0.1219  0.5546 -0.4673
 9135SOL     OW28303   1.957   0.708   2.656  0.2054  0.0845 -0.6286
 9135SOL    HW128304   1.976   0.669   2.566 -1.1410 -0.5258 -0.6685
 9135SOL    HW228305   2.042   0.742   2.696  1.3763 -2.3613 -0.8497
 9136SOL     OW28306   3.737   6.875   6.435  0.0869 -0.2353  0.0356
 9136SOL    HW128307   3.799   6.951   6.420  1.2431 -1.0136  0.7210
 9136SOL    HW228308   3.707   6.838   6.347 -1.7951  1.9803 -0.3586
 9137SOL     OW28309   3.699   6.005   0.357  0.4048  0.5072 -0.6973
 9137SOL    HW128310   3.722   5.950   0.437 -0.8162 -0.9687 -1.3047
 9137SOL    HW228311   3.782   6.044   0.319  1.2537 -0.4398  0.1121
 9138SOL     OW28312   1.740   5.259   1.344  0.3366  0.5645  0.4039
 9138SOL    HW128313   1.725   5.329   1.274  0.3531  1.1812  1.0065
 9138SOL    HW228314   1.768   5.303   1.429  2.0239 -0.2996  0.3200
 9139SOL     OW28315   0.636   2.716   1.423 -0.1722  0.9913  0.1811
 9139SOL    HW128316   0.592   2.755   1.504 -0.5677 -0.7307  0.8522
 9139SOL    HW228317   0.621   2.776   1.345 -1.8186  1.5590  0.8855
 9140SOL     OW28318   6.701   6.952   4.688 -0.2876  0.1665 -0.0990
 9140SOL    HW128319   6.760   7.023   4.650  1.6803 -1.5480 -0.4417
 9140SOL    HW228320   6.610   6.990   4.705  0.4968  2.5715 -0.8172
 9141SOL     OW28321   1.194   0.674   5.733  0.7726  0.0559  0.1076
 9141SOL    HW128322   1.292   0.662   5.724  0.8441 -0.5640  1.4595
 9141SOL    HW228323   1.155   0.594   5.780 -0.4958 -0.0860 -1.1348
 9142SOL     OW28324   6.258   5.033   0.850  0.1582  0.2766 -0.5103
 9142SOL    HW128325   6.279   5.131   0.852 -0.1667  0.3410 -0.1277
 9142SOL    HW228326   6.295   4.993   0.766  1.5310  0.4434 -0.0064
 9143SOL     OW28327   6.546   4.675   1.498  0.2691 -0.5300  0.0251
 9143SOL    HW128328   6.621   4.705   1.558  0.9709 -1.1673 -0.5093
 9143SOL    HW228329   6.570   4.694   1.403 -1.1946  1.2308 -0.0261
 9144SOL     OW28330   3.718   5.248   4.855  0.0518 -0.4217 -0.9885
 9144SOL    HW128331   3.627   5.260   4.895  1.2313  3.1209  1.0332
 9144SOL    HW228332   3.776   5.199   4.920  0.4388  0.2089 -0.8534
 9145SOL     OW28333   1.325   5.232   0.954  0.5599  0.0724 -0.3349
 9145SOL    HW128334   1.351   5.135   0.949  0.6128  0.1261 -1.4126
 9145SOL    HW228335   1.328   5.271   0.862  0.1481  1.0002  0.0424
 9146SOL     OW28336   6.474   2.780   1.970  0.0071 -0.4770  0.2681
 9146SOL    HW128337   6.425   2.694   1.983 -1.8084  0.3976 -0.4327
 9146SOL    HW228338   6.410   2.857   1.982  1.6289  0.7928  1.1079
 9147SOL     OW28339   2.213   1.113   5.430  0.4190 -0.4507 -0.3927
 9147SOL    HW128340   2.173   1.145   5.344  0.5158 -1.1976 -0.7294
 9147SOL    HW228341   2.212   1.186   5.497 -2.0126 -0.5862 -0.2059
 9148SOL     OW28342   5.916   5.627   2.281 -0.0060  0.0116  0.2332
 9148SOL    HW128343   5.852   5.551   2.292  0.3694 -0.7151 -1.9721
 9148SOL    HW228344   6.009   5.597   2.304  0.3116 -0.6020 -1.6363
 9149SOL     OW28345   5.103   3.040   6.324  0.9781  0.0768 -0.3887
 9149SOL    HW128346   5.137   3.124   6.284  2.1332 -0.5430 -0.7496
 9149SOL    HW228347   5.175   2.971   6.324 -0.0117 -0.9944 -0.3184
 9150SOL     OW28348   1.757   3.713   0.738 -0.0296 -0.1947 -0.1513
 9150SOL    HW128349   1.740   3.806   0.705 -0.3146  0.4819  1.7859
 9150SOL    HW228350   1.705   3.697   0.822  0.0595 -2.1094 -0.4108
 9151SOL     OW28351   1.555   4.093   4.022 -0.0411 -0.3315 -0.3771
 9151SOL    HW128352   1.500   4.159   3.970 -1.1751 -0.4317  0.6497
 9151SOL    HW228353   1.575   4.131   4.112  0.9769 -0.6086 -0.4744
 9152SOL     OW28354   0.884   5.473   4.079 -0.1134 -0.6289  0.5936
 9152SOL    HW128355   0.824   5.448   4.003 -1.0429  0.3265  0.9857
 9152SOL    HW228356   0.908   5.570   4.071  2.4464 -1.2677 -0.2631
 9153SOL     OW28357   5.020   1.663   6.542 -0.2662 -0.0421  0.0314
 9153SOL    HW128358   4.973   1.602   6.605 -1.5147  0.7781 -0.0821
 9153SOL    HW228359   5.084   1.720   6.593  0.5192 -1.0472  0.2086
 9154SOL     OW28360   6.693   4.652   3.280  0.2263 -0.0295 -0.8141
 9154SOL    HW128361   6.758   4.690   3.345  0.0122 -0.6955 -0.1966
 9154SOL    HW228362   6.740   4.628   3.195  0.6301  0.2551 -0.6715
 9155SOL     OW28363   1.655   2.933   2.725 -0.4645  0.2192  0.2623
 9155SOL    HW128364   1.615   3.023   2.744  0.2334  0.5450  0.2102
 9155SOL    HW228365   1.754   2.937   2.739 -0.1898 -0.0832 -1.4305
 9156SOL     OW28366   5.842   3.676   1.778 -0.2951  0.2063 -0.0368
 9156SOL    HW128367   5.800   3.748   1.723 -0.1198 -1.5537 -2.6553
 9156SOL    HW228368   5.779   3.648   1.850 -0.1706  3.2162  1.4213
 9157SOL     OW28369   3.061   5.066   6.242 -0.0878 -0.3591 -0.3677
 9157SOL    HW128370   3.062   5.081   6.341 -0.8965 -0.6343 -0.3113
 9157SOL    HW228371   3.020   4.978   6.222  0.2922 -0.4101 -0.9445
 9158SOL     OW28372   5.874   5.861   4.098  0.2736  0.3852  0.0967
 9158SOL    HW128373   5.967   5.890   4.122  0.3404 -0.3323  0.7519
 9158SOL    HW228374   5.852   5.776   4.147 -1.4873  1.6168  1.5812
 9159SOL     OW28375   2.235   6.491   4.617  0.5098 -0.0595  0.5239
 9159SOL    HW128376   2.296   6.543   4.557 -1.5170  1.2925 -0.4816
 9159SOL    HW228377   2.225   6.540   4.704  0.8827 -0.3178  0.7162
 9160SOL     OW28378   0.846   5.082   5.528 -0.3119  0.4651  0.4003
 9160SOL    HW128379   0.781   5.008   5.510  0.1021  0.4329 -1.0536
 9160SOL    HW228380   0.803   5.170   5.510 -0.0230  0.4523 -0.3807
 9161SOL     OW28381   5.293   5.428   3.127  0.5301 -0.1728 -0.0559
 9161SOL    HW128382   5.393   5.428   3.126  0.6295 -3.5338 -1.7159
 9161SOL    HW228383   5.259   5.472   3.043  0.6816 -0.7521 -0.4240
 9162SOL     OW28384   4.949   1.803   3.391 -0.2413  0.5291  0.3550
 9162SOL    HW128385   5.022   1.764   3.336 -1.5333 -0.1637 -0.9429
 9162SOL    HW228386   4.946   1.902   3.378  0.3817  0.5475  0.3367
 9163SOL     OW28387   5.434   4.183   1.762 -0.0590  0.6099 -0.0310
 9163SOL    HW128388   5.467   4.090   1.779  0.5267  0.4931 -1.6949
 9163SOL    HW228389   5.334   4.186   1.774  0.2015  0.5715  3.2858
 9164SOL     OW28390   3.965   0.450   1.073 -0.5315  0.4878  0.0938
 9164SOL    HW128391   3.936   0.358   1.046 -0.0682  0.6821 -1.1097
 9164SOL    HW228392   3.897   0.490   1.135 -0.2284 -1.0464  1.4726
 9165SOL     OW28393   6.195   0.871   5.683  0.1495 -0.1401  0.1466
 9165SOL    HW128394   6.112   0.826   5.715  1.0018 -1.5994  0.3769
 9165SOL    HW228395   6.198   0.868   5.583  0.3961 -1.0089  0.1686
 9166SOL     OW28396   2.469   4.673   1.830  0.7428  0.3383  0.0589
 9166SOL    HW128397   2.488   4.645   1.924  0.1379 -1.8670 -0.4176
 9166SOL    HW228398   2.377   4.712   1.825  0.3298 -0.5924  0.2069
 9167SOL     OW28399   0.941   1.936   5.987  0.2206 -0.1366 -0.0446
 9167SOL    HW128400   1.009   2.007   6.005 -1.4183  1.4735  0.0715
 9167SOL    HW228401   0.885   1.921   6.068 -0.0706 -0.8864 -0.3715
 9168SOL     OW28402   6.235   5.605   5.853 -0.0538 -0.7778  0.4119
 9168SOL    HW128403   6.151   5.660   5.849  1.1935  1.2603  0.7911
 9168SOL    HW228404   6.292   5.624   5.773  0.5647 -1.2502  0.7293
 9169SOL     OW28405   0.364   0.226   4.849  0.1126  0.0390 -0.4382
 9169SOL    HW128406   0.407   0.176   4.925  0.2759 -0.5332 -0.9050
 9169SOL    HW228407   0.432   0.288   4.809  0.5232 -0.8777 -1.1864
 9170SOL     OW28408   2.431   0.772   0.005  0.0526 -0.1828 -0.3079
 9170SOL    HW128409   2.531   0.773  -0.006 -0.0525 -0.7679 -1.5031
 9170SOL    HW228410   2.408   0.759   0.102  1.1163  1.7577  0.2523
 9171SOL     OW28411   2.512   5.439   0.256 -0.2012  0.5500 -0.2020
 9171SOL    HW128412   2.413   5.431   0.245 -0.1601 -0.1651 -0.1071
 9171SOL    HW228413   2.558   5.404   0.175  0.0044 -0.7164  0.4419
 9172SOL     OW28414   2.985   1.950   1.450 -0.5016  0.5195  0.3378
 9172SOL    HW128415   2.979   1.892   1.531 -0.6604  0.0389 -0.0169
 9172SOL    HW228416   2.975   2.046   1.477  1.0845  0.5105  1.1163
 9173SOL     OW28417   5.261   3.924   3.555 -0.0840  0.0039 -0.2420
 9173SOL    HW128418   5.203   4.005   3.552  0.7589  0.6051 -2.1536
 9173SOL    HW228419   5.207   3.844   3.528 -0.0435  0.5749 -2.1311
 9174SOL     OW28420   0.839   6.776   6.722  0.1462 -0.0549  0.6145
 9174SOL    HW128421   0.895   6.741   6.798 -0.3863 -1.1630  0.5196
 9174SOL    HW228422   0.888   6.848   6.675  1.0645 -0.3022  1.1684
 9175SOL     OW28423   2.393   1.082   6.435 -0.4089  0.1472 -0.3353
 9175SOL    HW128424   2.308   1.124   6.403 -2.5310 -1.2794  2.8856
 9175SOL    HW228425   2.461   1.154   6.452 -1.5944  1.5419 -1.1972
 9176SOL     OW28426   3.494   0.232   2.022 -0.2463 -0.1926  0.4651
 9176SOL    HW128427   3.484   0.322   2.066 -0.5839 -0.1345  0.2737
 9176SOL    HW228428   3.422   0.171   2.054 -0.6238 -0.0839 -0.1727
 9177SOL     OW28429   1.335   4.317   3.222  1.4306 -0.6603  0.0176
 9177SOL    HW128430   1.287   4.296   3.307  1.1577  1.0397  0.3311
 9177SOL    HW228431   1.427   4.350   3.244  1.0205  0.7310 -0.2408
 9178SOL     OW28432   2.801   5.056   5.073  0.9318 -0.0247  0.3951
 9178SOL    HW128433   2.814   5.109   4.989  0.3694  0.7714  0.7912
 9178SOL    HW228434   2.805   4.959   5.052  1.0182  0.1627 -0.5184
 9179SOL     OW28435   2.505   5.392   5.666  0.2255  0.1862 -0.4073
 9179SOL    HW128436   2.541   5.301   5.646  0.6261  0.2948 -0.1860
 9179SOL    HW228437   2.435   5.386   5.737  0.7340  0.1292  0.0983
 9180SOL     OW28438   5.710   2.336   3.789 -0.0318  0.1039  0.0867
 9180SOL    HW128439   5.684   2.256   3.844 -5.3044 -0.0504 -2.0181
 9180SOL    HW228440   5.657   2.415   3.820 -1.6780  0.4746 -3.2517
 9181SOL     OW28441   6.238   2.554   3.210  0.2279 -0.4364 -0.3017
 9181SOL    HW128442   6.315   2.514   3.260  0.3244 -1.0247 -0.9133
 9181SOL    HW228443   6.153   2.512   3.240  0.2737 -0.6996 -0.5340
 9182SOL     OW28444   3.063   1.488   4.124 -0.6656  0.2208 -0.2196
 9182SOL    HW128445   3.011   1.524   4.046  0.1799  0.5143 -0.6643
 9182SOL    HW228446   3.088   1.563   4.185 -0.5911  0.1100 -0.1126
 9183SOL     OW28447   4.749   4.112   4.820 -0.8264 -0.7843 -0.5386
 9183SOL    HW128448   4.739   4.054   4.901  2.5226  0.9067  1.3104
 9183SOL    HW228449   4.786   4.059   4.745 -0.5045 -1.6307  0.2047
 9184SOL     OW28450   3.746   1.913   1.153  0.2324  0.4238 -0.3218
 9184SOL    HW128451   3.731   1.865   1.239  2.4162 -1.7473 -1.0518
 9184SOL    HW228452   3.709   1.860   1.078  1.2294  0.6613 -1.0037
 9185SOL     OW28453   6.859   0.532   6.026 -0.0963  0.1326  0.5907
 9185SOL    HW128454   6.930   0.601   6.032 -0.3933  0.7413 -1.9646
 9185SOL    HW228455   6.779   0.561   6.079  0.7392  0.4696  1.6846
 9186SOL     OW28456   5.375   0.525   6.272  0.3281 -0.1725 -0.0133
 9186SOL    HW128457   5.381   0.618   6.310 -1.3159 -0.0262 -0.0673
 9186SOL    HW228458   5.342   0.463   6.343 -1.1993 -0.1934 -0.7065
 9187SOL     OW28459   4.363   2.852   0.825  0.2655 -0.1279  0.4615
 9187SOL    HW128460   4.265   2.840   0.810  0.1601 -3.9449  2.8996
 9187SOL    HW228461   4.413   2.824   0.743 -0.6608 -1.1518  0.2225
 9188SOL     OW28462   0.552   4.324   5.190 -0.2596 -0.2117  0.1559
 9188SOL    HW128463   0.630   4.322   5.127 -1.3657  0.4750 -1.3169
 9188SOL    HW228464   0.555   4.408   5.244 -0.5644  0.3659 -0.7089
 9189SOL     OW28465   2.660   2.027   3.107  0.5313  0.8028  0.0101
 9189SOL    HW128466   2.604   2.078   3.041  0.9421 -0.1669 -1.1246
 9189SOL    HW228467   2.719   2.091   3.156 -0.6834  1.6914  0.3597
 9190SOL     OW28468   6.048   4.420   6.117  0.5898 -0.4831 -0.6013
 9190SOL    HW128469   6.094   4.375   6.040 -0.5988  0.2790 -1.7924
 9190SOL    HW228470   6.117   4.466   6.173  1.6014 -2.0236 -0.5105
 9191SOL     OW28471   4.476   5.914   0.884  0.4700  0.1662  0.7142
 9191SOL    HW128472   4.527   5.829   0.899  1.6351 -0.2202 -3.8832
 9191SOL    HW228473   4.528   5.991   0.922  1.2141 -0.8095  1.7560
 9192SOL     OW28474   0.389   3.892   5.429  0.3010  0.4929  0.4309
 9192SOL    HW128475   0.478   3.889   5.475  1.2105 -3.3079 -1.2094
 9192SOL    HW228476   0.392   3.963   5.358  2.1871  0.2089  0.1631
 9193SOL     OW28477   4.280   3.842   6.002 -0.0200 -0.0991  0.8703
 9193SOL    HW128478   4.336   3.776   5.952 -0.7755 -0.8738  1.0269
 9193SOL    HW228479   4.198   3.796   6.037 -1.5197  1.2953 -0.6245
 9194SOL     OW28480   4.563   5.602   1.607 -0.0263  0.3513 -0.5930
 9194SOL    HW128481   4.493   5.608   1.536 -1.2841 -1.5384  0.3840
 9194SOL    HW228482   4.544   5.669   1.679 -0.0667  0.7230 -0.9468
 9195SOL     OW28483   2.784   2.334   2.956  0.3951  0.1551 -0.1394
 9195SOL    HW128484   2.741   2.403   2.899 -0.0268 -1.0192 -1.2853
 9195SOL    HW228485   2.871   2.304   2.915  1.6433  1.4427  1.4017
 9196SOL     OW28486   5.812   6.220   2.189 -0.1228 -0.2785  1.0100
 9196SOL    HW128487   5.778   6.298   2.241  1.0826  3.5710 -3.3189
 9196SOL    HW228488   5.909   6.204   2.211  0.0877  0.6128  0.7542
 9197SOL     OW28489   2.899   3.402   2.004 -0.2713 -0.6626  0.0953
 9197SOL    HW128490   2.987   3.445   1.985 -1.0687  1.3064  0.5603
 9197SOL    HW228491   2.889   3.386   2.102 -0.8219  0.0747  0.1674
 9198SOL     OW28492   5.215   2.557   6.767  0.2164 -0.6368  0.8538
 9198SOL    HW128493   5.116   2.567   6.772  0.2046 -0.3203  0.1677
 9198SOL    HW228494   5.253   2.554   6.859 -0.3901 -0.3146  1.1224
 9199SOL     OW28495   0.941   5.522   6.171 -0.6203  0.7853 -0.4038
 9199SOL    HW128496   0.972   5.438   6.126 -2.3487 -0.2308  0.1781
 9199SOL    HW228497   0.967   5.601   6.116  1.0707 -0.1117 -0.9556
 9200SOL     OW28498   0.517   6.012   2.698 -0.0383  0.1823  0.1016
 9200SOL    HW128499   0.569   6.033   2.781 -1.8849 -1.9509  1.9199
 9200SOL    HW228500   0.434   6.067   2.695 -0.7030 -0.7847  0.4572
 9201SOL     OW28501   6.432   4.687   6.928  0.5373 -0.4632 -0.1644
 9201SOL    HW128502   6.520   4.664   6.886  1.0069 -0.1944  0.6442
 9201SOL    HW228503   6.371   4.727   6.859  0.8706 -1.1043 -0.8409
 9202SOL     OW28504   1.163   5.322   1.251  0.0583 -0.6943 -0.4125
 9202SOL    HW128505   1.214   5.404   1.225 -1.5986  0.9823  1.2627
 9202SOL    HW228506   1.082   5.313   1.194 -0.6357 -0.1649  0.4486
 9203SOL     OW28507   4.709   0.785   6.208  0.0001 -0.4705  0.1049
 9203SOL    HW128508   4.657   0.826   6.133  2.7880  2.2059 -0.5815
 9203SOL    HW228509   4.801   0.762   6.176  0.2184 -2.4500  1.9247
 9204SOL     OW28510   4.859   3.912   2.462 -0.3183 -0.4676 -0.5850
 9204SOL    HW128511   4.820   3.825   2.492  0.8666 -0.8699 -0.1474
 9204SOL    HW228512   4.959   3.905   2.462 -0.2262 -0.0535 -3.4004
 9205SOL     OW28513   3.723   3.772   1.239  0.4180 -0.2044 -0.6065
 9205SOL    HW128514   3.646   3.804   1.183  0.5249  0.4505 -0.3891
 9205SOL    HW228515   3.690   3.711   1.311  0.0362  0.4741 -0.2025
 9206SOL     OW28516   3.383   1.161   3.632 -0.9080 -0.2367  0.3082
 9206SOL    HW128517   3.383   1.064   3.656 -1.2180 -0.3063  0.0475
 9206SOL    HW228518   3.397   1.217   3.713  1.5206 -0.5558  0.1747
 9207SOL     OW28519   3.874   0.065   5.777 -0.0575 -0.1418  0.6272
 9207SOL    HW128520   3.840   0.150   5.738  0.0752  0.4608  1.7838
 9207SOL    HW228521   3.810  -0.009   5.756 -0.0525  0.1898 -0.5911
 9208SOL     OW28522   4.882   3.391   2.090 -0.0911 -0.6666  0.2176
 9208SOL    HW128523   4.786   3.362   2.094 -0.2489 -0.0626  1.0115
 9208SOL    HW228524   4.898   3.445   2.008 -0.2932 -1.2381 -0.2034
 9209SOL     OW28525   4.237   0.365   1.828  0.5027  0.4163  0.3313
 9209SOL    HW128526   4.316   0.339   1.884 -0.0753 -0.4165  0.7938
 9209SOL    HW228527   4.191   0.443   1.869  0.5077  0.2658  0.6272
 9210SOL     OW28528   1.577   1.427   0.884 -0.0328 -0.7882  0.7795
 9210SOL    HW128529   1.568   1.378   0.798  0.6657 -1.0199  0.8282
 9210SOL    HW228530   1.487   1.456   0.916 -0.2611 -0.2880 -0.2675
 9211SOL     OW28531   5.469   0.942   0.496  0.3632  0.2626 -0.3127
 9211SOL    HW128532   5.418   0.856   0.490 -0.8125  1.0353 -2.0723
 9211SOL    HW228533   5.547   0.939   0.434  1.5276 -0.2406  1.0949
 9212SOL     OW28534   4.762   4.193   5.446  0.1593  0.1255 -1.0046
 9212SOL    HW128535   4.724   4.195   5.353 -0.3857  1.0705 -0.7790
 9212SOL    HW228536   4.851   4.148   5.445 -1.0706 -2.4862 -1.4974
 9213SOL     OW28537   6.392   5.348   5.703  0.4506 -0.1699  0.0770
 9213SOL    HW128538   6.354   5.435   5.671 -1.7842 -1.3717 -0.8502
 9213SOL    HW228539   6.376   5.339   5.801  1.4058  0.7755  0.3322
 9214SOL     OW28540   1.617   2.243   5.570 -0.2050  0.1502  0.1959
 9214SOL    HW128541   1.605   2.145   5.555 -1.3826  0.0719  1.4449
 9214SOL    HW228542   1.535   2.292   5.541  0.3871  0.8009 -0.4549
 9215SOL     OW28543   5.841   3.806   1.382  0.6489  0.0319  0.3887
 9215SOL    HW128544   5.814   3.711   1.400 -1.1299  0.6942  1.5076
 9215SOL    HW228545   5.851   3.854   1.469  0.0919  1.2421 -0.1932
 9216SOL     OW28546   3.474   0.507   2.927  0.6781 -0.0218 -0.1371
 9216SOL    HW128547   3.518   0.593   2.901  0.7448  0.0960  0.3602
 9216SOL    HW228548   3.411   0.523   3.003 -1.7827  0.2212 -2.0899
 9217SOL     OW28549   5.942   3.011   0.573 -0.1233  0.9075 -0.0034
 9217SOL    HW128550   5.919   2.934   0.513  1.0531  0.6320 -0.1189
 9217SOL    HW228551   6.001   2.980   0.647 -1.3126  1.3108  1.1615
 9218SOL     OW28552   4.498   6.303   6.255  0.2280  0.3207  0.2256
 9218SOL    HW128553   4.523   6.304   6.158 -0.8940 -2.8369 -0.2267
 9218SOL    HW228554   4.580   6.291   6.311  0.5806 -3.4441 -0.8129
 9219SOL     OW28555   3.707   2.328   5.393 -0.6082  0.1844 -0.2404
 9219SOL    HW128556   3.627   2.365   5.346 -0.8903 -2.2266 -1.8400
 9219SOL    HW228557   3.789   2.373   5.359 -1.0371  0.3951 -1.0168
 9220SOL     OW28558   1.532   4.115   1.932 -0.1463 -0.0625 -0.5734
 9220SOL    HW128559   1.503   4.062   2.012 -1.7912 -3.3541 -3.1172
 9220SOL    HW228560   1.601   4.064   1.881 -0.1330  1.2829 -1.9915
 9221SOL     OW28561   1.670   1.190   4.508  0.1536 -0.2196  0.4915
 9221SOL    HW128562   1.618   1.162   4.427 -2.3496  0.3327  1.8111
 9221SOL    HW228563   1.744   1.124   4.523  0.9729 -0.1277 -2.4087
 9222SOL     OW28564   2.491   6.017   5.799  0.3394  0.2456  0.3996
 9222SOL    HW128565   2.551   5.937   5.790 -0.2914 -0.0269 -1.8860
 9222SOL    HW228566   2.535   6.085   5.858  1.2278 -1.4383  1.7638
 9223SOL     OW28567   6.509   4.058   4.796 -0.4709  0.4631 -0.0443
 9223SOL    HW128568   6.410   4.064   4.804 -0.6577  1.2101 -2.1837
 9223SOL    HW228569   6.547   4.150   4.786  0.4496  0.1798  0.6630
 9224SOL     OW28570   0.950   4.412   3.693 -0.1576 -0.0337 -0.2666
 9224SOL    HW128571   0.938   4.507   3.665  0.9517 -0.2280 -1.4774
 9224SOL    HW228572   1.016   4.367   3.633 -0.5425 -1.5354  0.3774
 9225SOL     OW28573   3.929   6.444   0.371  0.3546  0.5948  0.4388
 9225SOL    HW128574   3.901   6.524   0.317  1.0665 -0.2166 -1.1906
 9225SOL    HW228575   4.025   6.453   0.396  0.6019 -0.0070 -0.2607
 9226SOL     OW28576   6.180   1.591   4.127  0.0137 -0.6315 -0.2257
 9226SOL    HW128577   6.109   1.593   4.057 -0.4042  0.3550  0.2095
 9226SOL    HW228578   6.270   1.582   4.084 -0.3214 -1.2153 -0.8154
 9227SOL     OW28579   1.991   2.999   1.964 -0.7893 -0.0244  0.4287
 9227SOL    HW128580   2.054   3.075   1.981 -1.1332 -0.0163  1.7639
 9227SOL    HW228581   1.897   3.033   1.967 -0.9491 -0.5191  1.1853
 9228SOL     OW28582   0.801   1.086   6.601 -0.0537  0.5020 -0.4020
 9228SOL    HW128583   0.717   1.130   6.569 -1.8317 -0.7919  2.1389
 9228SOL    HW228584   0.813   1.104   6.698  1.4602 -1.1256 -0.2331
 9229SOL     OW28585   0.380   4.745   3.989  0.2199 -0.6556  0.7668
 9229SOL    HW128586   0.394   4.777   3.895 -0.4419  0.8173  1.1372
 9229SOL    HW228587   0.335   4.656   3.987 -1.5579  0.2097 -0.3485
 9230SOL     OW28588   5.106   1.446   4.376 -0.3875  0.2109  0.0002
 9230SOL    HW128589   5.189   1.430   4.323 -1.4842  1.9941 -2.4404
 9230SOL    HW228590   5.061   1.359   4.395  1.6290 -0.7247  0.7919
 9231SOL     OW28591   6.850   6.055   0.035  0.0522  0.2724 -0.2313
 9231SOL    HW128592   6.839   5.959   0.059  0.6924  0.0294 -0.8571
 9231SOL    HW228593   6.788   6.111   0.089 -1.7306 -0.6724 -1.2016
 9232SOL     OW28594   0.954   4.340   1.935  0.4105  0.4811  0.3872
 9232SOL    HW128595   0.931   4.432   1.970  0.4558  0.3391  0.8020
 9232SOL    HW228596   1.031   4.304   1.987 -0.9743 -0.6807  1.7148
 9233SOL     OW28597   0.408   6.570   1.023 -0.2696 -0.0476  0.1937
 9233SOL    HW128598   0.450   6.539   1.109  1.2438 -0.3723 -0.6341
 9233SOL    HW228599   0.386   6.491   0.966  1.2340  0.2244 -0.8322
 9234SOL     OW28600   1.602   4.078   1.083 -0.3440  0.4227  0.1052
 9234SOL    HW128601   1.549   4.163   1.092 -3.8696 -1.3913 -1.4383
 9234SOL    HW228602   1.605   4.031   1.171  0.1171  1.3094  0.5731
 9235SOL     OW28603   3.434   1.612   5.625  0.7450  0.2795  0.0245
 9235SOL    HW128604   3.385   1.567   5.551  0.2816  2.3277 -0.9808
 9235SOL    HW228605   3.519   1.652   5.590  1.0773  0.3341  0.8527
 9236SOL     OW28606   1.437   3.316   6.947 -0.0425 -0.1071 -0.0662
 9236SOL    HW128607   1.452   3.415   6.953  0.4910 -0.1093 -1.2384
 9236SOL    HW228608   1.340   3.297   6.964  0.2436  0.3650  2.5643
 9237SOL     OW28609   5.823   0.672   2.536 -0.2160 -1.2793  0.4629
 9237SOL    HW128610   5.836   0.588   2.484  2.9805 -0.5948 -0.0668
 9237SOL    HW228611   5.848   0.657   2.631 -0.3458 -1.0958  0.5277
 9238SOL     OW28612   1.756   2.286   6.034  0.5319  0.9464  0.0669
 9238SOL    HW128613   1.830   2.350   6.012  2.1828 -0.0362  2.3448
 9238SOL    HW228614   1.704   2.321   6.111  0.3789  0.3464  0.2382
 9239SOL     OW28615   0.568   3.268   5.513 -0.1306 -0.2775  0.3171
 9239SOL    HW128616   0.469   3.271   5.501 -0.1894  0.8199  0.9559
 9239SOL    HW228617   0.612   3.253   5.424 -0.8297  0.2092 -0.1148
 9240SOL     OW28618   4.321   2.217   3.226 -0.1837 -0.5606 -0.5791
 9240SOL    HW128619   4.408   2.172   3.204  0.2225 -0.6606  1.0752
 9240SOL    HW228620   4.316   2.305   3.178  1.0233 -0.3678 -0.4004
 9241SOL     OW28621   0.437   6.488   6.496 -0.2716  0.4220 -0.3094
 9241SOL    HW128622   0.510   6.533   6.547 -0.5156  0.8906 -0.3574
 9241SOL    HW228623   0.380   6.558   6.452 -1.6211  0.1418  0.9350
 9242SOL     OW28624   0.717   3.155   0.362  0.4867 -0.3335  0.1136
 9242SOL    HW128625   0.708   3.100   0.446 -1.2282 -1.2006 -0.5824
 9242SOL    HW228626   0.628   3.195   0.339  1.3958  1.6639 -0.1669
 9243SOL     OW28627   3.309   0.788   3.379 -0.1788  0.2369 -0.1970
 9243SOL    HW128628   3.244   0.837   3.321 -2.3728 -0.3108  1.6671
 9243SOL    HW228629   3.378   0.745   3.321 -1.4375  0.8595 -2.2895
 9244SOL     OW28630   1.326   0.873   6.923  0.4598  0.3026  0.1369
 9244SOL    HW128631   1.280   0.795   6.881 -2.0824  0.8148  1.7413
 9244SOL    HW228632   1.384   0.840   6.998  1.7289 -0.2254 -1.0219
 9245SOL     OW28633   6.495   5.190   4.243  0.0528  0.2645 -0.5016
 9245SOL    HW128634   6.583   5.175   4.288 -0.0671  0.3012 -0.2538
 9245SOL    HW228635   6.498   5.152   4.150  0.6053  1.0070 -0.8002
 9246SOL     OW28636   6.061   6.617   3.713 -0.1698 -0.0360 -0.7702
 9246SOL    HW128637   6.068   6.553   3.637  0.5135 -0.6408 -0.2073
 9246SOL    HW228638   6.132   6.687   3.704  1.6724 -1.6058  0.6716
 9247SOL     OW28639   3.415   6.336   0.934  0.4578 -0.5705 -0.7424
 9247SOL    HW128640   3.367   6.286   0.862  0.6471 -1.2292 -0.4137
 9247SOL    HW228641   3.349   6.384   0.992  0.1838 -1.5523 -0.2343
 9248SOL     OW28642   3.837   0.703   5.303 -0.3262 -0.2113 -0.2425
 9248SOL    HW128643   3.797   0.785   5.260  0.3570  0.7965  0.9766
 9248SOL    HW228644   3.774   0.666   5.371 -0.3652 -0.3200 -0.3376
 9249SOL     OW28645   2.931   5.043   1.864 -0.4213 -0.2868  0.1019
 9249SOL    HW128646   2.897   4.966   1.919 -1.1892 -1.0813 -1.4326
 9249SOL    HW228647   2.970   5.008   1.779 -0.5692  1.0094 -0.5147
 9250SOL     OW28648   0.771   2.208   4.214 -0.3327 -0.6069  0.2909
 9250SOL    HW128649   0.709   2.282   4.185  0.4743  0.7888  1.9390
 9250SOL    HW228650   0.758   2.191   4.312 -0.3845 -2.5911 -0.0270
 9251SOL     OW28651   3.818   1.814   3.183 -0.5314  0.0249  0.0985
 9251SOL    HW128652   3.907   1.774   3.160 -0.0665  0.2895  1.3279
 9251SOL    HW228653   3.770   1.840   3.100  0.5698 -0.0737 -0.5839
 9252SOL     OW28654   6.624   0.188   4.316  0.1401  0.1485  0.0116
 9252SOL    HW128655   6.545   0.145   4.360  0.0002  0.6075  0.2104
 9252SOL    HW228656   6.709   0.153   4.357  0.0689 -0.7356 -0.5491
 9253SOL     OW28657   5.108   5.053   4.210  0.2619  0.0259 -0.7317
 9253SOL    HW128658   5.113   4.954   4.194 -1.3780 -0.2896  0.4118
 9253SOL    HW228659   5.059   5.097   4.135  1.9310  0.1671 -1.7856
 9254SOL     OW28660   6.186   3.330   3.387 -0.2350  0.0119  1.0051
 9254SOL    HW128661   6.101   3.286   3.357 -0.0347  1.1395 -1.4413
 9254SOL    HW228662   6.178   3.355   3.484 -1.3656 -2.8707  1.7516
 9255SOL     OW28663   4.863   1.774   6.167  0.2031  0.1980 -0.1794
 9255SOL    HW128664   4.942   1.834   6.174 -1.8506  3.4173 -2.0847
 9255SOL    HW228665   4.836   1.743   6.258  2.0860  1.1130  0.7352
 9256SOL     OW28666   1.801   1.074   1.188 -0.6772  0.0168 -1.1344
 9256SOL    HW128667   1.880   1.136   1.187 -0.4068 -0.2516  0.4666
 9256SOL    HW228668   1.734   1.107   1.254 -1.6601 -0.0684 -2.0804
 9257SOL     OW28669   6.177   5.990   1.353  0.1369  0.2631  0.0634
 9257SOL    HW128670   6.187   6.077   1.400  1.0079 -0.2380  0.8296
 9257SOL    HW228671   6.244   5.983   1.280 -0.8674  0.8157 -0.9481
 9258SOL     OW28672   4.437   3.612   5.589 -0.0019  0.4718  0.5453
 9258SOL    HW128673   4.373   3.561   5.646  0.3986 -2.0804 -1.1634
 9258SOL    HW228674   4.527   3.614   5.633 -0.0815 -0.1210  0.7430
 9259SOL     OW28675   2.648   2.686   1.007  0.4485 -0.2256 -0.5159
 9259SOL    HW128676   2.596   2.735   0.937  0.8365 -1.6424 -1.8501
 9259SOL    HW228677   2.585   2.644   1.072 -0.0201 -0.5050 -1.1398
 9260SOL     OW28678   0.502   3.596   6.895  0.4470  0.2102 -0.2768
 9260SOL    HW128679   0.591   3.570   6.858 -0.1112 -3.1949  0.4299
 9260SOL    HW228680   0.511   3.622   6.991  0.7149 -0.0737 -0.2244
 9261SOL     OW28681   6.108   0.111   5.052  0.6735 -0.0032  0.2456
 9261SOL    HW128682   6.069   0.170   5.123  1.3915  2.1037 -1.0410
 9261SOL    HW228683   6.204   0.091   5.075  0.4586 -0.6534  0.6303
 9262SOL     OW28684   0.340   5.468   3.397 -0.1677  0.5072  0.2145
 9262SOL    HW128685   0.409   5.537   3.373 -0.5010  0.3482 -1.3099
 9262SOL    HW228686   0.255   5.489   3.350 -0.7591 -0.0672  1.0109
 9263SOL     OW28687   4.678   5.263   2.948  0.0153  0.7092  0.5516
 9263SOL    HW128688   4.578   5.276   2.950  0.0633  1.0167  1.7154
 9263SOL    HW228689   4.722   5.346   2.982  0.6494  0.3621  0.5773
 9264SOL     OW28690   0.093   3.603   5.395  0.3235 -1.0567  0.5989
 9264SOL    HW128691   0.146   3.546   5.333 -0.7982 -1.1441 -0.3283
 9264SOL    HW228692   0.077   3.693   5.352  1.5415 -0.2480  1.7748
 9265SOL     OW28693   3.630   1.335   5.341 -0.7064 -0.1381  0.6248
 9265SOL    HW128694   3.653   1.386   5.424  0.1656 -0.6450  0.7088
 9265SOL    HW228695   3.706   1.276   5.316 -1.1776 -0.4039 -0.2333
 9266SOL     OW28696   0.830   6.871   1.775  0.1937  0.0866  0.0261
 9266SOL    HW128697   0.848   6.892   1.871 -1.4263 -2.9615  1.1187
 9266SOL    HW228698   0.737   6.897   1.752  0.6942  1.1572 -0.8856
 9267SOL     OW28699   6.994   2.944   4.216 -0.3772 -0.2318 -0.8299
 9267SOL    HW128700   6.949   2.979   4.298  1.9780 -2.4717  1.6428
 9267SOL    HW228701   7.066   3.007   4.187 -0.1417 -0.1596 -0.1136
 9268SOL     OW28702   0.284   6.505   3.217 -0.4781  0.4621 -0.3796
 9268SOL    HW128703   0.248   6.414   3.194 -0.3364  0.4427 -0.5270
 9268SOL    HW228704   0.361   6.495   3.280  1.4394  0.2757 -2.6133
 9269SOL     OW28705   6.649   6.569   6.744  0.3577 -0.3095  0.0046
 9269SOL    HW128706   6.584   6.530   6.811  1.9117 -2.3710  0.4289
 9269SOL    HW228707   6.740   6.571   6.784  0.7038  2.0468 -0.7742
 9270SOL     OW28708   3.141   0.206   5.395 -0.1379  0.0786  0.5362
 9270SOL    HW128709   3.147   0.152   5.312  0.2721 -0.3879  0.8597
 9270SOL    HW228710   3.085   0.287   5.379  0.9986  0.6855 -0.5745
 9271SOL     OW28711   0.187   5.772   0.213 -0.1496 -0.5184 -0.4396
 9271SOL    HW128712   0.126   5.844   0.246  1.3635  0.5771  0.0663
 9271SOL    HW228713   0.268   5.813   0.171  1.0651 -1.9091  0.4519
 9272SOL     OW28714   0.290   0.325   1.277 -0.7988  0.4682 -0.0450
 9272SOL    HW128715   0.267   0.292   1.369 -1.0435  0.2179 -0.1971
 9272SOL    HW228716   0.251   0.416   1.264 -4.5787 -1.1816 -1.4580
 9273SOL     OW28717   4.371   5.909   3.825  0.3592 -0.1862  0.3016
 9273SOL    HW128718   4.275   5.881   3.822  0.2613  0.1843 -0.3951
 9273SOL    HW228719   4.429   5.828   3.822  0.0711 -0.4628  1.7738
 9274SOL     OW28720   6.124   2.408   5.298  0.0910  0.1826  0.2707
 9274SOL    HW128721   6.118   2.412   5.198 -0.0861 -1.5336  0.1774
 9274SOL    HW228722   6.036   2.378   5.335 -0.8514  3.7427  1.2294
 9275SOL     OW28723   0.235   0.854   0.077  0.2750  0.3686 -0.0444
 9275SOL    HW128724   0.174   0.827   0.152 -0.9023 -1.0516 -1.4401
 9275SOL    HW228725   0.302   0.782   0.061  0.2830  0.4860 -0.5686
 9276SOL     OW28726   3.075   5.393   0.713  0.1344  0.6013 -0.3721
 9276SOL    HW128727   3.158   5.347   0.681 -0.7035  0.5737 -2.7335
 9276SOL    HW228728   3.089   5.492   0.711  0.6199  0.5676  0.8128
 9277SOL     OW28729   5.816   5.414   3.084 -0.1364  0.4149  0.3447
 9277SOL    HW128730   5.847   5.432   2.990  0.7936 -0.6454  0.4183
 9277SOL    HW228731   5.840   5.492   3.142 -0.1196  0.7989 -0.1674
 9278SOL     OW28732   1.093   1.589   6.271  0.0968 -0.4470 -0.5497
 9278SOL    HW128733   1.097   1.595   6.171  0.1731 -0.0088 -0.5213
 9278SOL    HW228734   1.073   1.680   6.309  1.7233 -0.2606 -0.0790
 9279SOL     OW28735   4.517   0.530   1.724  0.2197 -0.1264 -0.0193
 9279SOL    HW128736   4.530   0.623   1.689  0.4163  0.0929  0.6225
 9279SOL    HW228737   4.449   0.531   1.797 -0.6626 -0.6803 -0.8067
 9280SOL     OW28738   2.114   1.062   2.999 -0.1435 -0.3335 -0.3500
 9280SOL    HW128739   2.074   1.050   3.090 -0.0880 -2.4518 -0.5518
 9280SOL    HW228740   2.176   0.986   2.980 -2.0076 -1.3195 -3.0817
 9281SOL     OW28741   3.467   2.941   5.063 -0.3855 -0.1947  0.1509
 9281SOL    HW128742   3.562   2.908   5.061 -0.7049 -1.1465 -1.7215
 9281SOL    HW228743   3.462   3.030   5.018 -0.6242 -1.0121 -1.5287
 9282SOL     OW28744   3.985   0.800   6.191  0.1223  0.6563 -0.2221
 9282SOL    HW128745   3.924   0.774   6.266  1.1453  1.8171  1.0831
 9282SOL    HW228746   3.933   0.841   6.117 -0.8215  0.2395  0.1963
 9283SOL     OW28747   4.678   0.323   4.071 -0.0997 -0.0294 -1.0112
 9283SOL    HW128748   4.596   0.266   4.079 -0.8923  1.2343  0.4014
 9283SOL    HW228749   4.660   0.401   4.011  0.5796 -0.5594 -1.9297
 9284SOL     OW28750   3.729   3.732   4.479  0.0146  0.8643 -1.0790
 9284SOL    HW128751   3.822   3.753   4.510  0.1854  0.7755 -1.5225
 9284SOL    HW228752   3.731   3.650   4.421 -0.9034 -1.8857  2.3873
 9285SOL     OW28753   4.529   1.543   1.179 -0.2074 -0.1907 -0.2540
 9285SOL    HW128754   4.527   1.491   1.093  1.5423  1.3424 -1.3043
 9285SOL    HW228755   4.624   1.554   1.208 -0.4909  2.3580 -0.0700
 9286SOL     OW28756   3.834   6.332   0.900  0.6450 -0.0916 -0.3972
 9286SOL    HW128757   3.860   6.330   0.997 -0.4336  0.9428 -0.0652
 9286SOL    HW228758   3.863   6.247   0.857 -1.0701 -1.7174  1.4402
 9287SOL     OW28759   3.296   0.514   5.108  0.1491  0.3548 -0.0281
 9287SOL    HW128760   3.352   0.563   5.041  0.4986  0.3629  0.2668
 9287SOL    HW228761   3.220   0.572   5.138  0.0053  0.3600 -0.3964
 9288SOL     OW28762   3.896   6.447   3.937 -0.4451 -0.1224  0.1099
 9288SOL    HW128763   3.995   6.437   3.948 -0.2755  1.4308  0.1982
 9288SOL    HW228764   3.853   6.448   4.028 -0.3059  1.0954  0.1881
 9289SOL     OW28765   4.258   0.374   6.008 -0.4192  0.0093  0.2139
 9289SOL    HW128766   4.344   0.424   6.006 -0.3332 -0.1464 -1.6099
 9289SOL    HW228767   4.183   0.437   6.030 -0.0056  0.4071  0.4901
 9290SOL     OW28768   0.114   6.299   3.973  0.7606  0.3379  0.4093
 9290SOL    HW128769   0.145   6.216   3.926  2.1186  0.8244  0.4073
 9290SOL    HW228770   0.111   6.374   3.908 -0.9923  0.1939  0.2906
 9291SOL     OW28771   1.825   6.915   6.295 -0.2515 -0.0405 -0.2491
 9291SOL    HW128772   1.798   6.902   6.200 -0.5046  0.5324 -0.2643
 9291SOL    HW228773   1.814   6.830   6.345  0.3876 -0.4819 -0.8531
 9292SOL     OW28774   6.423   2.908   6.018  0.3319 -0.4532 -0.1609
 9292SOL    HW128775   6.413   2.809   6.023  0.9930 -0.5034  0.4686
 9292SOL    HW228776   6.517   2.931   5.991  0.4447 -0.0027  0.5642
 9293SOL     OW28777   6.027   1.898   5.637  0.3757 -0.1659 -0.0643
 9293SOL    HW128778   5.943   1.947   5.658  0.0311 -0.9271  0.3734
 9293SOL    HW228779   6.100   1.930   5.697 -0.0732 -0.8121  0.8501
 9294SOL     OW28780   4.629   5.803   6.895  0.0652 -0.2971 -0.6136
 9294SOL    HW128781   4.725   5.811   6.923 -0.5918 -0.0455  1.8165
 9294SOL    HW228782   4.590   5.720   6.935 -1.3685  0.9075  0.6012
 9295SOL     OW28783   0.133   0.373   5.262 -0.5027  1.0532  0.4282
 9295SOL    HW128784   0.157   0.468   5.281 -0.7526  0.7275  2.5961
 9295SOL    HW228785   0.205   0.312   5.296 -0.4669  0.4302 -0.7066
 9296SOL     OW28786   1.528   5.518   2.098 -0.1024  0.2186  0.2187
 9296SOL    HW128787   1.586   5.552   2.172  2.4870  0.0430 -1.6029
 9296SOL    HW228788   1.573   5.535   2.010 -0.7513 -3.8158 -1.0925
 9297SOL     OW28789   0.008   0.285   3.962  0.1903 -0.7068 -0.1312
 9297SOL    HW128790   0.027   0.188   3.976  2.4796 -0.1152  1.3860
 9297SOL    HW228791   0.055   0.317   3.879 -0.1406 -0.7663 -0.3450
 9298SOL     OW28792   0.476   6.380   5.803  0.3075 -0.5174 -0.2548
 9298SOL    HW128793   0.395   6.433   5.778 -0.6773 -1.1849  1.3896
 9298SOL    HW228794   0.531   6.433   5.868  1.1735 -0.1198 -1.2661
 9299SOL     OW28795   1.929   0.874   3.843 -0.6821  0.4022 -0.3677
 9299SOL    HW128796   2.006   0.877   3.778 -1.1942  2.6935 -0.9368
 9299SOL    HW228797   1.846   0.849   3.794 -0.6435 -0.2846 -0.0943
 9300SOL     OW28798   6.872   6.132   4.879 -0.5178 -0.1819 -0.6787
 9300SOL    HW128799   6.960   6.179   4.886 -0.9087  0.3673  0.8613
 9300SOL    HW228800   6.886   6.040   4.842  1.0303 -0.9273  1.5768
 9301SOL     OW28801   6.898   5.088   3.987 -0.2996 -0.1978  0.1928
 9301SOL    HW128802   6.851   5.173   4.011  0.5019  0.2874  0.0621
 9301SOL    HW228803   6.834   5.027   3.940 -0.8682  0.3487  0.2449
 9302SOL     OW28804   2.179   3.083   3.235 -0.4264 -0.7883  0.6805
 9302SOL    HW128805   2.138   3.122   3.152  0.5527 -2.1454 -0.4916
 9302SOL    HW228806   2.157   2.986   3.240 -0.4833 -0.7217  2.0481
 9303SOL     OW28807   2.798   3.265   1.401 -0.1715  0.1379  0.0635
 9303SOL    HW128808   2.758   3.174   1.414  0.8337 -0.3582 -0.2404
 9303SOL    HW228809   2.727   3.328   1.368 -1.2977 -0.0916  1.9174
 9304SOL     OW28810   3.887   0.153   1.033 -0.0232 -0.3260 -0.3887
 9304SOL    HW128811   3.953   0.140   1.107 -1.1647 -1.3830  0.4872
 9304SOL    HW228812   3.928   0.126   0.946  0.8773 -0.4324  0.0630
 9305SOL     OW28813   3.781   2.513   1.446 -0.1091  0.7041  0.1259
 9305SOL    HW128814   3.763   2.492   1.542  1.5334  0.6067  0.4423
 9305SOL    HW228815   3.729   2.452   1.388 -0.3597  0.0963  0.9746
 9306SOL     OW28816   0.926   5.020   4.406 -0.2851  0.5663  0.3062
 9306SOL    HW128817   0.985   5.092   4.370 -0.6098  0.6171 -0.1350
 9306SOL    HW228818   0.942   5.009   4.504  0.5010  0.5346  0.1783
 9307SOL     OW28819   1.043   5.260   0.998  0.0849 -0.8644  0.2075
 9307SOL    HW128820   1.041   5.318   0.916  1.1335 -0.2653  0.5830
 9307SOL    HW228821   1.137   5.230   1.015  0.2206  0.4215  2.1216
 9308SOL     OW28822   0.923   5.297   2.604 -0.1041 -0.3024 -0.1422
 9308SOL    HW128823   0.854   5.264   2.668 -1.0765 -0.9976 -1.5150
 9308SOL    HW228824   1.014   5.276   2.640 -0.6317 -1.1627  0.7402
 9309SOL     OW28825   3.511   6.074   5.367 -0.0389  0.4017  0.1843
 9309SOL    HW128826   3.552   6.030   5.447 -0.0739 -0.5118 -0.2742
 9309SOL    HW228827   3.425   6.028   5.345  0.2690  0.2379 -0.7238
 9310SOL     OW28828   4.543   4.595   5.178  0.0859 -0.1666  0.1309
 9310SOL    HW128829   4.500   4.656   5.245 -1.6614 -1.3515  0.1523
 9310SOL    HW228830   4.472   4.544   5.129  1.4505 -1.3952 -0.6458
 9311SOL     OW28831   4.814   5.708   1.641 -0.0165 -0.0359  0.1475
 9311SOL    HW128832   4.722   5.670   1.631  0.3488 -0.4738 -1.8841
 9311SOL    HW228833   4.876   5.664   1.576  2.2851 -1.6106  3.1067
 9312SOL     OW28834   1.061   1.528   3.450  0.0129 -0.1507  0.9616
 9312SOL    HW128835   0.967   1.526   3.416  0.5363  0.8990 -0.6804
 9312SOL    HW228836   1.063   1.498   3.546 -1.8670 -0.9185  0.7998
 9313SOL     OW28837   0.462   0.937   2.784  0.2887 -0.2371  0.0422
 9313SOL    HW128838   0.484   1.028   2.747  1.1671 -0.9090 -1.1703
 9313SOL    HW228839   0.454   0.872   2.709  0.1518 -1.2644  0.9267
 9314SOL     OW28840   5.331   4.020   5.734  0.4461  0.2156 -0.4677
 9314SOL    HW128841   5.383   3.988   5.655  0.3132 -0.2614 -0.3634
 9314SOL    HW228842   5.393   4.059   5.802  0.8062 -1.4571  0.1926
 9315SOL     OW28843   6.998   1.289   5.568 -0.0177  0.2626 -0.4799
 9315SOL    HW128844   6.929   1.340   5.518  0.3855  0.0245 -1.3010
 9315SOL    HW228845   7.011   1.199   5.525 -1.1816 -0.8374  1.3054
 9316SOL     OW28846   5.102   6.311   5.942 -0.0032  0.3294  0.7425
 9316SOL    HW128847   5.083   6.238   6.008 -0.3962  1.9016  2.4606
 9316SOL    HW228848   5.136   6.272   5.857  1.7849 -1.7336  2.3048
 9317SOL     OW28849   3.527   4.950   4.267  0.4958 -0.2124  0.0507
 9317SOL    HW128850   3.519   5.045   4.299  0.7398 -0.3603  0.5631
 9317SOL    HW228851   3.507   4.888   4.343  1.2041 -0.5712 -0.0528
 9318SOL     OW28852   3.955   6.892   0.152 -0.1910 -0.1640 -0.0912
 9318SOL    HW128853   4.026   6.860   0.089  1.0960  1.7569  0.2735
 9318SOL    HW228854   3.899   6.815   0.182 -0.1010 -1.3140 -2.6372
 9319SOL     OW28855   0.717   1.419   0.550 -0.1640  0.2399 -0.0932
 9319SOL    HW128856   0.799   1.467   0.517 -0.8664  1.1699 -0.5500
 9319SOL    HW228857   0.720   1.413   0.649  1.0687 -0.8949 -0.1701
 9320SOL     OW28858   6.771   1.114   4.767 -0.0298  0.2304  0.0564
 9320SOL    HW128859   6.781   1.119   4.667 -0.1459 -0.0632  0.0294
 9320SOL    HW228860   6.856   1.145   4.810 -0.2571  1.1354 -0.1180
 9321SOL     OW28861   0.214   2.600   5.881  0.6510 -0.4318  1.1051
 9321SOL    HW128862   0.120   2.629   5.863  0.7011 -0.0065  1.4959
 9321SOL    HW228863   0.233   2.515   5.833  0.2477 -0.2200  0.5636
 9322SOL     OW28864   0.363   5.950   0.513  0.0117 -0.4554  0.2319
 9322SOL    HW128865   0.343   5.986   0.421 -1.6580 -0.5609  0.5172
 9322SOL    HW228866   0.279   5.948   0.567  1.3111  1.8548  2.6046
 9323SOL     OW28867   2.125   2.447   4.437  0.2954 -0.3233 -0.0001
 9323SOL    HW128868   2.098   2.493   4.521  1.2213 -0.1626  0.2200
 9323SOL    HW228869   2.096   2.501   4.358  0.1293 -0.0765  0.2283
 9324SOL     OW28870   2.219   2.595   6.598  0.3590 -0.0430  0.4640
 9324SOL    HW128871   2.171   2.529   6.540 -0.1158  0.0137  0.7806
 9324SOL    HW228872   2.275   2.655   6.541 -0.1891  0.0838  0.0411
 9325SOL     OW28873   1.800   0.867   2.797  0.8947  0.0656 -0.6257
 9325SOL    HW128874   1.863   0.806   2.748  0.7966 -1.4117  0.9824
 9325SOL    HW228875   1.733   0.812   2.847 -0.3555  1.5719 -0.5840
 9326SOL     OW28876   3.004   6.051   0.402  0.1990  0.3710 -0.0379
 9326SOL    HW128877   2.975   5.956   0.409  0.5485  0.2397 -0.3176
 9326SOL    HW228878   3.088   6.056   0.348  1.6272  0.5593  2.1089
 9327SOL     OW28879   4.096   6.483   5.870 -0.6633  0.0833  0.0687
 9327SOL    HW128880   4.173   6.484   5.806 -0.6127 -2.1065  0.0478
 9327SOL    HW228881   4.014   6.451   5.824 -0.5828 -1.7141  1.0970
 9328SOL     OW28882   1.965   0.284   5.152  0.3287  0.0188  0.1467
 9328SOL    HW128883   1.895   0.291   5.081 -0.2530  2.2005  0.8793
 9328SOL    HW228884   1.929   0.232   5.230  0.0022 -0.0262 -0.0335
 9329SOL     OW28885   6.188   4.260   6.585  0.0583  0.4859 -0.4193
 9329SOL    HW128886   6.230   4.241   6.496 -1.0217 -0.7805 -0.7017
 9329SOL    HW228887   6.227   4.198   6.653 -0.5395  0.0830 -0.4431
 9330SOL     OW28888   1.034   0.264   6.818 -0.1497 -0.2490  0.0376
 9330SOL    HW128889   0.986   0.199   6.876  3.3209 -3.0116  0.1519
 9330SOL    HW228890   1.094   0.321   6.874 -0.6925  0.7927 -0.4033
 9331SOL     OW28891   0.532   1.699   4.366 -0.0552  0.3507 -0.9450
 9331SOL    HW128892   0.607   1.636   4.352  0.8102  0.7677  1.4346
 9331SOL    HW228893   0.565   1.793   4.355 -0.8303  0.5021 -2.2644
 9332SOL     OW28894   2.834   3.973   6.316 -0.4107 -0.4474  0.1500
 9332SOL    HW128895   2.918   3.988   6.263 -0.7143 -1.1705 -0.5708
 9332SOL    HW228896   2.768   4.045   6.294 -0.0936 -0.0588  0.4715
 9333SOL     OW28897   2.853   4.303   6.734 -0.5950 -0.3300  0.2928
 9333SOL    HW128898   2.930   4.245   6.705 -1.2654 -2.1790  1.9731
 9333SOL    HW228899   2.889   4.388   6.774  0.4084  0.4881 -2.1382
 9334SOL     OW28900   5.809   6.521   3.771  0.2038  0.2345 -0.5157
 9334SOL    HW128901   5.902   6.534   3.737 -0.1413 -0.6570 -1.8746
 9334SOL    HW228902   5.747   6.580   3.720 -0.3786 -1.4254 -1.8341
 9335SOL     OW28903   1.616   2.384   6.295  0.2435  0.1234  0.3513
 9335SOL    HW128904   1.642   2.435   6.377  2.3216 -0.5392  0.1861
 9335SOL    HW228905   1.517   2.378   6.289  0.0079 -0.1903  3.0764
 9336SOL     OW28906   6.262   1.498   5.603 -0.1259 -0.5709 -0.3474
 9336SOL    HW128907   6.317   1.542   5.674  0.9899  1.2787 -2.2143
 9336SOL    HW228908   6.255   1.400   5.622 -0.7076 -0.0268  2.7530
 9337SOL     OW28909   5.874   2.169   4.156 -0.3682 -0.4800  0.2005
 9337SOL    HW128910   5.836   2.137   4.243  1.1118 -0.3316  0.9422
 9337SOL    HW228911   5.958   2.118   4.136 -0.8563 -0.7283 -1.3247
 9338SOL     OW28912   6.860   5.792   6.985  0.0881 -0.1590 -0.1606
 9338SOL    HW128913   6.775   5.763   6.940  0.1687 -0.0515 -0.3862
 9338SOL    HW228914   6.938   5.754   6.936  0.1496 -1.2826  0.7665
 9339SOL     OW28915   5.726   3.909   0.276 -0.4803 -0.9763 -0.2520
 9339SOL    HW128916   5.823   3.918   0.298 -0.5597  1.2667 -0.6528
 9339SOL    HW228917   5.678   3.869   0.355  0.2064  1.3459  1.4557
 9340SOL     OW28918   2.932   5.117   1.064  0.6714 -0.7458 -0.1533
 9340SOL    HW128919   2.995   5.179   1.017  1.9528 -2.0304 -0.2229
 9340SOL    HW228920   2.841   5.123   1.022 -0.1369  3.2194  1.7263
 9341SOL     OW28921   6.135   4.336   6.860  0.3430 -0.7794  0.1638
 9341SOL    HW128922   6.054   4.371   6.908  0.8591  0.6774  0.0398
 9341SOL    HW228923   6.124   4.347   6.762  0.9252  0.0129  0.1747
 9342SOL     OW28924   3.802   6.410   4.189 -0.3763 -0.4905  0.7355
 9342SOL    HW128925   3.706   6.431   4.206 -0.4641 -1.8645  2.2199
 9342SOL    HW228926   3.846   6.384   4.275  0.9706 -1.2082 -0.1328
 9343SOL     OW28927   4.868   3.610   2.427 -0.4526 -0.5811 -0.3301
 9343SOL    HW128928   4.967   3.601   2.437 -0.3765 -1.9374 -1.9055
 9343SOL    HW228929   4.847   3.646   2.336 -1.4228 -0.9976 -0.2799
 9344SOL     OW28930   4.544   4.864   5.913 -0.4018  0.2507  0.1606
 9344SOL    HW128931   4.517   4.950   5.871  0.0236 -0.4038 -1.5600
 9344SOL    HW228932   4.557   4.795   5.842  1.4112 -0.6531  1.2797
 9345SOL     OW28933   4.946   4.417   0.047 -0.1913  0.2108 -0.3094
 9345SOL    HW128934   4.978   4.361   0.123 -1.4572  1.6182  1.3508
 9345SOL    HW228935   4.884   4.487   0.081 -0.6636  1.0304 -2.6457
 9346SOL     OW28936   5.064   5.936   2.383  0.6291  0.1586 -0.0207
 9346SOL    HW128937   5.014   5.919   2.467 -0.8298  1.1582 -0.6430
 9346SOL    HW228938   5.082   5.849   2.336 -1.4159 -0.1997 -0.2504
 9347SOL     OW28939   6.112   5.507   2.664 -0.3150 -0.4672  0.1765
 9347SOL    HW128940   6.140   5.509   2.568  0.5714  0.6237  0.4246
 9347SOL    HW228941   6.193   5.495   2.722 -0.6612  0.2826  0.8381
 9348SOL     OW28942   0.680   3.717   1.862 -0.3275  0.1274 -0.8684
 9348SOL    HW128943   0.758   3.657   1.843 -1.3610 -0.7019 -2.8165
 9348SOL    HW228944   0.713   3.810   1.875  1.1013 -0.4308 -0.1802
 9349SOL     OW28945   5.878   6.323   1.527 -0.0645  0.2451  0.0290
 9349SOL    HW128946   5.847   6.321   1.621 -1.4750 -1.7734 -0.4180
 9349SOL    HW228947   5.838   6.246   1.476 -0.6636  2.1541 -2.6304
 9350SOL     OW28948   1.473   0.574   4.705  0.4984 -0.4930  0.4369
 9350SOL    HW128949   1.475   0.543   4.610  0.6869 -1.8442  0.8698
 9350SOL    HW228950   1.531   0.516   4.761 -0.5574 -0.4765  1.6047
 9351SOL     OW28951   3.355   0.482   4.762  0.0596  0.2696  0.0248
 9351SOL    HW128952   3.423   0.541   4.805 -1.0289  0.1100  2.0895
 9351SOL    HW228953   3.372   0.387   4.789  0.2286 -0.0383 -1.1295
 9352SOL     OW28954   3.358   3.387   6.487 -0.0210  0.4686 -0.1817
 9352SOL    HW128955   3.388   3.450   6.415  0.5589  1.6939  1.0913
 9352SOL    HW228956   3.265   3.411   6.515 -0.0575  0.3116 -0.1690
 9353SOL     OW28957   0.956   2.826   3.509 -0.2768  0.0711  0.1628
 9353SOL    HW128958   0.938   2.735   3.472  0.4346  0.3707 -0.9382
 9353SOL    HW228959   1.031   2.821   3.575  1.4760  0.2368 -1.7514
 9354SOL     OW28960   5.034   2.160   0.226 -0.4694 -0.1365  0.1110
 9354SOL    HW128961   5.029   2.217   0.144  1.2793  1.2799  0.9433
 9354SOL    HW228962   5.070   2.070   0.202 -0.2442  0.1697 -0.7203
 9355SOL     OW28963   6.137   0.901   4.687 -0.3233 -0.0668 -0.9433
 9355SOL    HW128964   6.180   0.811   4.695 -1.5390 -0.4940  1.8747
 9355SOL    HW228965   6.200   0.971   4.720 -1.3843 -0.6418  2.7210
 9356SOL     OW28966   4.768   4.487   2.485 -0.0588 -0.2370  0.5258
 9356SOL    HW128967   4.686   4.455   2.439  0.1046 -0.7467  0.5812
 9356SOL    HW228968   4.778   4.440   2.573  0.1658 -0.0071  0.6260
 9357SOL     OW28969   2.299   3.218   6.351 -0.3953 -0.7383  0.5227
 9357SOL    HW128970   2.296   3.282   6.274 -2.9860  1.2606  2.1042
 9357SOL    HW228971   2.388   3.225   6.396 -0.0174  0.4960 -0.3669
 9358SOL     OW28972   5.587   3.433   1.064 -0.2392  0.0954  0.4383
 9358SOL    HW128973   5.597   3.523   1.022  1.9130 -0.7582 -1.0538
 9358SOL    HW228974   5.551   3.443   1.156  0.5734  2.5534  0.5602
 9359SOL     OW28975   1.322   4.502   4.845 -0.0758  0.1192  0.2645
 9359SOL    HW128976   1.408   4.520   4.891  0.7490 -1.0888 -0.7412
 9359SOL    HW228977   1.331   4.520   4.747 -0.9607 -0.0438  0.1373
 9360SOL     OW28978   2.001   0.886   6.944 -0.0326  0.2261 -0.1598
 9360SOL    HW128979   2.077   0.821   6.943  1.2353  1.6665 -0.9017
 9360SOL    HW228980   1.978   0.909   7.038 -0.1210 -0.8239  0.0967
 9361SOL     OW28981   2.286   6.815   2.526 -0.6134  0.0383 -0.1520
 9361SOL    HW128982   2.191   6.796   2.500 -0.3555 -1.1950 -0.2237
 9361SOL    HW228983   2.346   6.799   2.449 -0.3034  0.4997 -0.0098
 9362SOL     OW28984   0.406   1.957   3.043  0.9593  0.1453  0.1935
 9362SOL    HW128985   0.470   2.031   3.024 -0.8547  1.7033 -0.1739
 9362SOL    HW228986   0.364   1.971   3.132 -0.7842  0.6836 -0.6579
 9363SOL     OW28987   2.820   4.857   2.080 -0.4480 -0.1657 -0.1541
 9363SOL    HW128988   2.856   4.824   2.167 -0.2195 -1.1388 -0.6037
 9363SOL    HW228989   2.799   4.779   2.021  0.9515  0.4871 -1.5768
 9364SOL     OW28990   3.657   2.658   5.352  0.2191  0.4078 -0.1503
 9364SOL    HW128991   3.566   2.634   5.385  0.4751  1.1937  1.2192
 9364SOL    HW228992   3.725   2.596   5.393  0.5909  1.6842  1.2648
 9365SOL     OW28993   2.646   6.933   3.918 -0.1972 -0.0721 -0.4531
 9365SOL    HW128994   2.681   7.024   3.898 -1.8927  0.8369  0.4747
 9365SOL    HW228995   2.696   6.894   3.996 -0.3223  0.6286 -0.0108
 9366SOL     OW28996   5.581   1.239   5.323 -0.2742 -0.0408 -0.3665
 9366SOL    HW128997   5.502   1.234   5.261  0.1533 -0.2281 -0.9029
 9366SOL    HW228998   5.610   1.146   5.346 -0.0040  0.0272 -0.4363
 9367SOL     OW28999   1.338   6.064   2.791  0.0585  0.2522 -0.0014
 9367SOL    HW129000   1.436   6.068   2.810  0.0525 -0.4257  0.2196
 9367SOL    HW229001   1.320   6.105   2.702  0.3270  1.8261  0.6497
 9368SOL     OW29002   1.311   1.361   4.478 -0.3352  0.2508 -0.2735
 9368SOL    HW129003   1.382   1.314   4.530 -0.4082  3.1662  2.8280
 9368SOL    HW229004   1.352   1.435   4.424 -0.6135 -0.9407 -2.2362
 9369SOL     OW29005   6.655   5.486   5.506  0.1035  0.3906  0.0682
 9369SOL    HW129006   6.590   5.500   5.580 -0.6164 -1.9257 -0.0380
 9369SOL    HW229007   6.670   5.388   5.494  1.8158  0.8001 -1.4825
 9370SOL     OW29008   5.065   0.690   3.190 -0.2182 -0.0742  0.4725
 9370SOL    HW129009   5.104   0.760   3.129  0.1350 -3.2479 -3.3376
 9370SOL    HW229010   4.966   0.686   3.178 -0.5570  1.1193  2.3941
 9371SOL     OW29011   1.697   4.798   6.904 -0.5859 -0.5672 -0.1325
 9371SOL    HW129012   1.613   4.743   6.900 -1.1227  0.2773 -2.6320
 9371SOL    HW229013   1.673   4.895   6.905  0.3660 -0.3289  0.6074
 9372SOL     OW29014   5.462   5.641   1.953  0.3910 -0.0396 -0.2980
 9372SOL    HW129015   5.548   5.625   2.001  0.7944 -0.9301 -1.2838
 9372SOL    HW229016   5.449   5.572   1.881 -1.5709 -0.4565  0.3822
 9373SOL     OW29017   4.965   2.391   3.271  0.0683  0.5758 -0.2737
 9373SOL    HW129018   4.908   2.430   3.343  0.3810  0.0603  0.2621
 9373SOL    HW229019   5.061   2.397   3.297  0.1589  0.0030 -0.4504
 9374SOL     OW29020   6.820   3.517   6.141 -0.6325  0.0575 -0.3790
 9374SOL    HW129021   6.730   3.501   6.101 -0.5559  0.5208 -0.7447
 9374SOL    HW229022   6.848   3.612   6.125  0.1146 -0.1987 -0.6726
 9375SOL     OW29023   0.944   2.660   4.308  0.1234  0.1402  0.2246
 9375SOL    HW129024   1.010   2.591   4.277 -0.3842 -0.6022  0.7640
 9375SOL    HW229025   0.926   2.647   4.405 -2.0205 -0.7203 -0.2227
 9376SOL     OW29026   1.685   5.204   1.882 -0.1700  0.4782 -0.2645
 9376SOL    HW129027   1.659   5.129   1.820  1.4622  0.3943 -0.8859
 9376SOL    HW229028   1.606   5.264   1.896 -1.6090 -1.4474  0.4396
 9377SOL     OW29029   2.437   0.092   3.052 -0.1820 -0.2508  0.5013
 9377SOL    HW129030   2.506   0.031   3.013 -0.5579  0.3747 -1.2627
 9377SOL    HW229031   2.469   0.187   3.046 -0.5371 -0.0834  1.1346
 9378SOL     OW29032   6.468   1.292   4.154  0.4993 -0.3443 -0.1683
 9378SOL    HW129033   6.443   1.229   4.227 -0.2120 -0.1651 -0.2457
 9378SOL    HW229034   6.503   1.240   4.076 -0.0892 -0.6487 -0.2360
 9379SOL     OW29035   4.347   0.114   5.814 -0.4374 -0.3405 -0.4817
 9379SOL    HW129036   4.393   0.102   5.902 -0.2615 -2.8926 -0.8547
 9379SOL    HW229037   4.415   0.122   5.741 -0.5955  0.5900 -0.5407
 9380SOL     OW29038   4.760   4.170   2.003 -0.1814  0.4344  0.0742
 9380SOL    HW129039   4.676   4.224   2.003 -0.3404  0.1934 -0.5783
 9380SOL    HW229040   4.773   4.129   2.093 -1.4562 -0.5922 -0.1870
 9381SOL     OW29041   1.910   4.479   4.616 -0.6898  0.5694  0.5583
 9381SOL    HW129042   1.956   4.442   4.535 -2.2582 -0.4068  0.0727
 9381SOL    HW229043   1.978   4.503   4.685  0.5177 -1.3801  0.1122
 9382SOL     OW29044   4.447   0.953   2.638 -0.8003 -0.0832  0.7096
 9382SOL    HW129045   4.416   0.883   2.573 -1.2993 -0.4443  1.3348
 9382SOL    HW229046   4.372   1.015   2.658  0.0420  1.6774 -1.1114
 9383SOL     OW29047   4.092   6.893   5.629  0.8323  0.1843  0.4605
 9383SOL    HW129048   4.055   6.936   5.547  2.6170  0.6596 -0.1325
 9383SOL    HW229049   4.026   6.826   5.664  0.4236 -0.7347 -1.9108
 9384SOL     OW29050   4.235   6.046   0.823  0.3264 -0.1813 -0.4587
 9384SOL    HW129051   4.248   6.128   0.768  1.0478  0.0079 -0.0204
 9384SOL    HW229052   4.321   6.021   0.868  0.3094 -1.5865 -1.1354
 9385SOL     OW29053   4.619   2.215   3.650  0.0164 -0.0968 -0.4429
 9385SOL    HW129054   4.599   2.131   3.700 -0.1096 -0.0111 -0.3492
 9385SOL    HW229055   4.693   2.198   3.585  0.5679 -0.0585  0.1699
 9386SOL     OW29056   2.533   6.014   4.087 -0.3004  0.3542 -0.5845
 9386SOL    HW129057   2.517   6.113   4.085 -0.5891  0.3024 -0.9134
 9386SOL    HW229058   2.522   5.981   4.181 -0.0520  0.6566 -0.4476
 9387SOL     OW29059   3.240   1.199   6.365  0.0802  0.3596  0.3091
 9387SOL    HW129060   3.222   1.273   6.300 -2.3271 -0.7871 -0.4713
 9387SOL    HW229061   3.199   1.115   6.331  3.2049 -1.5614  0.8869
 9388SOL     OW29062   1.565   3.678   2.425  0.4797 -0.1071  0.4668
 9388SOL    HW129063   1.615   3.745   2.371  0.4943 -0.7546 -0.3390
 9388SOL    HW229064   1.628   3.627   2.484  0.4169  0.8492  1.3863
 9389SOL     OW29065   2.380   5.967   4.888  0.3688 -0.8280  0.5328
 9389SOL    HW129066   2.454   5.961   4.955  1.6043  1.3558 -0.5512
 9389SOL    HW229067   2.292   5.956   4.936  1.1231  1.7400  2.7905
 9390SOL     OW29068   4.954   5.457   5.980  0.2229 -0.3769  0.6886
 9390SOL    HW129069   5.040   5.500   5.952  0.7828 -0.6954  1.8582
 9390SOL    HW229070   4.971   5.361   6.003 -0.4711 -0.4692  0.8442
 9391SOL     OW29071   2.176   0.234   5.586 -0.1830 -0.6401 -0.2450
 9391SOL    HW129072   2.233   0.314   5.605 -0.1553 -0.6157 -0.4236
 9391SOL    HW229073   2.212   0.154   5.634 -0.8507 -0.3094  0.8210
 9392SOL     OW29074   0.867   6.764   4.909 -0.4594 -0.1258 -0.2815
 9392SOL    HW129075   0.850   6.686   4.969 -0.6505 -0.6236 -0.9742
 9392SOL    HW229076   0.780   6.810   4.889 -0.4397 -0.1474 -0.4215
 9393SOL     OW29077   2.613   0.302   6.236 -0.4997 -0.1713 -0.3107
 9393SOL    HW129078   2.541   0.258   6.289 -0.7831  0.2740 -0.3126
 9393SOL    HW229079   2.699   0.297   6.285 -0.8485  0.6145  0.4049
 9394SOL     OW29080   0.897   0.657   3.783  0.0465 -0.0984  0.3852
 9394SOL    HW129081   0.883   0.593   3.859  0.5650 -0.3252  0.2972
 9394SOL    HW229082   0.824   0.646   3.716 -1.1533  1.0072  1.4562
 9395SOL     OW29083   1.805   2.726   2.932  0.3756  0.2721 -0.2525
 9395SOL    HW129084   1.839   2.680   3.014 -1.2513  0.3757  0.5119
 9395SOL    HW229085   1.708   2.745   2.942  0.5151  1.8468 -1.5109
 9396SOL     OW29086   2.043   6.428   4.429  0.9340 -0.2444 -0.1057
 9396SOL    HW129087   2.039   6.511   4.374 -0.1797 -0.0238  0.2909
 9396SOL    HW229088   2.095   6.446   4.513 -1.9929  1.0693  1.5815
 9397SOL     OW29089   2.763   0.072   0.125  0.2642  0.3595  0.4607
 9397SOL    HW129090   2.681   0.098   0.075 -1.3185  0.0987  2.7519
 9397SOL    HW229091   2.746  -0.014   0.174  2.0912  0.0472  0.6142
 9398SOL     OW29092   2.433   1.380   5.108  0.2440 -0.0944 -0.3514
 9398SOL    HW129093   2.419   1.473   5.075 -0.7616  0.5514  1.7334
 9398SOL    HW229094   2.441   1.381   5.208  3.5171 -1.8764 -0.4455
 9399SOL     OW29095   0.818   1.747   6.153  0.8687  0.1580 -0.2612
 9399SOL    HW129096   0.824   1.652   6.185  0.2691  0.3703  0.5004
 9399SOL    HW229097   0.732   1.787   6.182  1.3091  1.0816 -0.1907
 9400SOL     OW29098   4.923   3.527   3.860  0.6040 -0.0643 -0.3212
 9400SOL    HW129099   4.995   3.463   3.887  0.7417  0.0199 -0.4857
 9400SOL    HW229100   4.894   3.579   3.939 -0.3560 -1.1653  0.0768
 9401SOL     OW29101   4.951   6.002   1.917  0.1040  0.0390 -0.2997
 9401SOL    HW129102   5.048   6.020   1.903  0.0553 -0.7152 -1.7343
 9401SOL    HW229103   4.937   5.904   1.932 -0.6024 -0.1771 -2.0812
 9402SOL     OW29104   1.223   4.712   3.751 -0.2399  0.4787  0.4226
 9402SOL    HW129105   1.178   4.778   3.690  0.1525 -0.7246 -1.2421
 9402SOL    HW229106   1.321   4.709   3.730 -0.0131  0.3733  1.4517
 9403SOL     OW29107   0.458   2.039   4.338  0.0000 -0.2515 -0.1699
 9403SOL    HW129108   0.391   2.024   4.265 -0.0056 -0.4481 -0.1266
 9403SOL    HW229109   0.416   2.016   4.426  0.0844 -0.2536 -0.1306
 9404SOL     OW29110   2.321   3.141   5.319 -0.2584 -0.6858  0.2945
 9404SOL    HW129111   2.389   3.098   5.260 -0.0401 -0.3780  0.3218
 9404SOL    HW229112   2.233   3.094   5.308  0.1884 -1.7175  1.0101
 9405SOL     OW29113   6.919   5.909   1.739 -1.0093  0.0126  0.1221
 9405SOL    HW129114   6.955   5.845   1.807  0.4004 -0.0462 -0.6358
 9405SOL    HW229115   6.840   5.868   1.694 -0.7155 -0.8029  0.3240
 9406SOL     OW29116   0.245   2.312   5.738 -0.5095  0.1538 -0.2447
 9406SOL    HW129117   0.261   2.342   5.644  0.5648  1.1563  0.2363
 9406SOL    HW229118   0.253   2.212   5.742  1.2184  0.2164 -0.9168
 9407SOL     OW29119   1.323   5.810   2.647  0.5322 -0.3129  0.0517
 9407SOL    HW129120   1.307   5.889   2.706  1.8769 -0.0347  0.0697
 9407SOL    HW229121   1.402   5.828   2.588  1.8551 -2.1981  1.1217
 9408SOL     OW29122   3.651   0.192   6.268  0.1195  0.2033  0.0079
 9408SOL    HW129123   3.563   0.178   6.313  0.3038  0.1735  0.3663
 9408SOL    HW229124   3.639   0.191   6.169 -0.5591  1.9264  0.0438
 9409SOL     OW29125   0.173   4.808   6.107  0.3553 -0.1209 -0.4064
 9409SOL    HW129126   0.162   4.908   6.112  0.0194  0.0050 -2.5394
 9409SOL    HW229127   0.265   4.783   6.136 -0.3199  0.5022  2.5519
 9410SOL     OW29128   3.047   6.013   1.872 -0.5229  0.0991  0.1027
 9410SOL    HW129129   2.959   6.025   1.918 -0.1536  1.7624  0.4085
 9410SOL    HW229130   3.060   5.916   1.852 -1.3427 -0.4918  2.1880
 9411SOL     OW29131   4.553   3.873   1.390 -0.3134  0.0769 -0.2653
 9411SOL    HW129132   4.591   3.943   1.451 -0.3012 -0.1385 -0.0199
 9411SOL    HW229133   4.590   3.783   1.416  1.3571  0.2255 -1.9127
 9412SOL     OW29134   6.361   3.155   1.229 -0.5760  0.5661 -0.4715
 9412SOL    HW129135   6.427   3.119   1.162 -2.0634 -1.1592 -1.0849
 9412SOL    HW229136   6.315   3.235   1.191  0.3198  1.0792 -0.5019
 9413SOL     OW29137   1.530   5.009   6.546  0.0230 -0.3516 -0.4228
 9413SOL    HW129138   1.566   5.100   6.527  0.1309 -0.1237  0.8318
 9413SOL    HW229139   1.448   4.994   6.491 -1.2692  1.3623  0.9114
 9414SOL     OW29140   3.049   1.098   2.710  0.7765  0.1325 -0.3909
 9414SOL    HW129141   3.050   1.189   2.670  0.5286  0.4154  0.2372
 9414SOL    HW229142   2.984   1.041   2.660  1.7464 -0.0433 -1.4964
 9415SOL     OW29143   2.666   0.309   2.100  0.2225  0.1419 -0.0923
 9415SOL    HW129144   2.766   0.316   2.095  0.1544  1.6714  0.2163
 9415SOL    HW229145   2.629   0.294   2.008  0.6491  1.2915 -0.4752
 9416SOL     OW29146   0.110   1.923   0.529  0.5672 -0.2543  0.0086
 9416SOL    HW129147   0.143   2.004   0.480  1.1800 -1.0313 -0.8933
 9416SOL    HW229148   0.096   1.849   0.464 -1.7873 -0.3458  0.5399
 9417SOL     OW29149   2.666   1.235   5.383  0.1760  0.3786 -0.6064
 9417SOL    HW129150   2.613   1.170   5.329 -0.9418  0.6192  0.1751
 9417SOL    HW229151   2.605   1.305   5.422  1.2179  1.3531 -0.6486
 9418SOL     OW29152   5.067   5.422   0.863 -0.5587 -0.0761  0.3417
 9418SOL    HW129153   5.050   5.373   0.777  0.2628 -0.9623  0.6680
 9418SOL    HW229154   5.124   5.366   0.923 -0.8078  0.6917  1.3223
 9419SOL     OW29155   2.875   4.811   4.468  0.5580  0.8256  0.2979
 9419SOL    HW129156   2.975   4.807   4.466  0.5467  0.7240 -0.2518
 9419SOL    HW229157   2.843   4.792   4.561  1.0049 -0.1691  0.2661
 9420SOL     OW29158   0.895   2.562   3.457 -0.9166 -0.1107 -1.1841
 9420SOL    HW129159   0.830   2.527   3.524  1.6438 -0.3391  1.3805
 9420SOL    HW229160   0.852   2.565   3.367 -3.7368 -2.2808 -0.0602
 9421SOL     OW29161   3.305   6.582   2.868  0.5428  0.5964 -0.2442
 9421SOL    HW129162   3.246   6.505   2.894 -0.8441  1.9220  0.7253
 9421SOL    HW229163   3.297   6.655   2.936  0.4326  2.3161 -1.9868
 9422SOL     OW29164   5.104   6.863   2.356  0.6548 -0.3651  0.1373
 9422SOL    HW129165   5.125   6.808   2.275 -2.4254 -0.4041 -0.7643
 9422SOL    HW229166   5.007   6.857   2.376  1.2761 -0.2416  3.8498
 9423SOL     OW29167   5.837   0.213   4.220  0.6045  0.0134 -0.8544
 9423SOL    HW129168   5.795   0.148   4.283 -0.0279  0.3765 -0.8988
 9423SOL    HW229169   5.858   0.166   4.134  0.3401 -0.1840 -0.8128
 9424SOL     OW29170   3.281   1.553   6.501  0.0929 -0.1162  0.6581
 9424SOL    HW129171   3.338   1.624   6.460 -1.8815  0.9419 -0.4313
 9424SOL    HW229172   3.284   1.560   6.601  2.2479 -0.4753  0.6562
 9425SOL     OW29173   6.255   3.915   5.190  0.6961 -0.3315  0.0698
 9425SOL    HW129174   6.355   3.914   5.189  0.7632  0.2551  1.7211
 9425SOL    HW229175   6.221   3.835   5.240  0.3207 -0.7043 -0.7728
 9426SOL     OW29176   3.162   6.861   6.453  0.1939 -0.1671  0.0978
 9426SOL    HW129177   3.126   6.951   6.429 -1.7838 -1.1631 -0.9013
 9426SOL    HW229178   3.254   6.871   6.491  1.0969  2.0588 -2.3619
 9427SOL     OW29179   1.203   4.135   3.368 -0.2321 -0.5035 -0.5330
 9427SOL    HW129180   1.129   4.068   3.374  0.8483 -1.7715 -0.9241
 9427SOL    HW229181   1.258   4.117   3.286  1.9405 -1.1484  0.9594
 9428SOL     OW29182   5.817   1.362   6.853  0.0220 -0.4997  0.2461
 9428SOL    HW129183   5.853   1.453   6.872 -1.7394  0.5800 -1.2567
 9428SOL    HW229184   5.742   1.342   6.916 -1.3861  0.2734 -1.1319
 9429SOL     OW29185   2.068   4.280   0.522  0.3584 -0.3790  0.1064
 9429SOL    HW129186   2.024   4.208   0.575  0.5604 -0.0045  0.7909
 9429SOL    HW229187   2.070   4.365   0.575  0.5315  0.0106 -0.5120
 9430SOL     OW29188   6.931   4.494   1.967  0.1351 -0.2658  0.0939
 9430SOL    HW129189   7.018   4.529   2.003  0.2515  0.8404 -1.1656
 9430SOL    HW229190   6.858   4.560   1.986 -0.2318 -0.7018  0.2198
 9431SOL     OW29191   4.815   3.673   0.057 -0.1957  0.8317 -0.1250
 9431SOL    HW129192   4.893   3.730   0.083  1.3536 -1.0309 -0.4086
 9431SOL    HW229193   4.848   3.582   0.031 -2.6835 -1.0098  2.5177
 9432SOL     OW29194   6.277   1.012   3.155  0.7429  0.0806 -0.1811
 9432SOL    HW129195   6.357   0.953   3.143  0.5450  0.1105 -1.8609
 9432SOL    HW229196   6.244   1.042   3.066 -1.0040  0.2830  0.4973
 9433SOL     OW29197   0.779   5.338   2.388 -0.1549 -0.0641  0.6926
 9433SOL    HW129198   0.825   5.304   2.470 -0.2353 -0.6845  0.4876
 9433SOL    HW229199   0.846   5.376   2.325 -0.1270  0.7263  1.1834
 9434SOL     OW29200   5.334   6.545   3.183 -0.0403  0.4244 -0.1727
 9434SOL    HW129201   5.293   6.631   3.213 -0.2796  0.5862 -0.9187
 9434SOL    HW229202   5.329   6.478   3.257  2.0261  1.6406  1.1543
 9435SOL     OW29203   0.427   3.000   4.271  0.5990 -0.6942  0.0327
 9435SOL    HW129204   0.395   3.093   4.252 -0.0766 -0.4230  2.2177
 9435SOL    HW229205   0.375   2.935   4.215  0.8170  0.1887 -1.2385
 9436SOL     OW29206   1.421   3.828   1.516 -0.5599  0.0042  0.2269
 9436SOL    HW129207   1.471   3.799   1.434 -2.0077  0.3774 -0.8215
 9436SOL    HW229208   1.361   3.754   1.547 -0.6295  0.1570  0.4577
 9437SOL     OW29209   1.572   1.609   3.497 -0.4783 -0.0745  0.3938
 9437SOL    HW129210   1.550   1.655   3.583 -1.1999 -0.9948  0.7133
 9437SOL    HW229211   1.495   1.619   3.434  0.2530  1.0593 -0.3699
 9438SOL     OW29212   0.108   6.858   4.405 -0.3290  0.1422 -0.2110
 9438SOL    HW129213   0.131   6.818   4.494 -2.4878  2.4237  1.5410
 9438SOL    HW229214   0.101   6.958   4.415  0.3446  0.5804 -3.2295
 9439SOL     OW29215   6.933   3.357   2.166 -0.1044 -0.7615  0.1255
 9439SOL    HW129216   6.925   3.341   2.264  0.5570 -0.7489  0.1817
 9439SOL    HW229217   6.882   3.439   2.141  0.5595 -0.2037  0.6133
 9440SOL     OW29218   2.624   0.608   2.665 -0.1768  0.9778  0.5465
 9440SOL    HW129219   2.635   0.638   2.570 -1.9743 -0.7289 -0.2755
 9440SOL    HW229220   2.641   0.685   2.727 -0.2845  2.4879 -1.2132
 9441SOL     OW29221   0.095   2.854   3.859  0.1132 -0.7046 -0.6448
 9441SOL    HW129222   0.161   2.929   3.858 -1.3766  0.6430 -0.8744
 9441SOL    HW229223   0.047   2.850   3.771  0.6935 -2.4261 -0.9139
 9442SOL     OW29224   4.152   1.474   0.638 -0.0380  0.3295 -0.3061
 9442SOL    HW129225   4.189   1.394   0.590 -0.9378  0.0610 -0.5606
 9442SOL    HW229226   4.056   1.458   0.662  0.6304  0.0063  2.5444
 9443SOL     OW29227   1.669   6.136   2.418 -0.2018  0.1714 -0.2512
 9443SOL    HW129228   1.734   6.133   2.494  0.6730  2.2457 -0.8255
 9443SOL    HW229229   1.650   6.232   2.395 -0.5437 -0.4001 -2.5557
 9444SOL     OW29230   2.495   3.757   6.184 -0.4008  0.1609  0.5674
 9444SOL    HW129231   2.488   3.837   6.242  1.7065  2.2618 -1.8249
 9444SOL    HW229232   2.420   3.756   6.119 -0.2923  0.3478  0.4388
 9445SOL     OW29233   5.973   6.135   3.338 -0.0347 -0.6133  0.7504
 9445SOL    HW129234   5.949   6.088   3.423  2.2980 -1.0992  1.1830
 9445SOL    HW229235   5.957   6.073   3.261  0.4837 -1.1857  1.0900
 9446SOL     OW29236   1.240   6.131   3.641  0.0749  0.1291  0.3110
 9446SOL    HW129237   1.209   6.039   3.666  0.4074 -0.3386 -0.8917
 9446SOL    HW229238   1.224   6.146   3.543  1.1443  0.8711  0.2259
 9447SOL     OW29239   6.303   4.795   3.817 -0.1352  0.0803  0.1989
 9447SOL    HW129240   6.288   4.883   3.861 -0.3310  0.7483 -1.1470
 9447SOL    HW229241   6.393   4.793   3.773  0.1279 -0.6338  0.7435
 9448SOL     OW29242   0.054   0.471   0.862  0.4805 -0.0086 -0.0078
 9448SOL    HW129243   0.082   0.526   0.940  0.9838  1.5006 -1.2207
 9448SOL    HW229244   0.131   0.459   0.799 -0.4843  0.7163 -1.3723
 9449SOL     OW29245   6.237   5.057   0.150 -0.3988 -0.4588  0.0790
 9449SOL    HW129246   6.318   5.116   0.157 -1.3327  1.3298 -2.5867
 9449SOL    HW229247   6.266   4.961   0.148  1.2335 -0.1895  3.7141
 9450SOL     OW29248   2.465   6.290   4.124  0.2475  0.1076 -0.2950
 9450SOL    HW129249   2.480   6.353   4.048 -1.3319  0.0223 -0.7165
 9450SOL    HW229250   2.367   6.287   4.145  0.1511 -2.7427 -0.7684
 9451SOL     OW29251   6.984   6.316   0.061 -0.0811 -0.3133  0.7360
 9451SOL    HW129252   7.061   6.257   0.087  0.7436 -0.0080 -0.8722
 9451SOL    HW229253   6.914   6.261   0.015 -1.0725 -0.6677  2.5643
 9452SOL     OW29254   0.772   5.742   1.267 -0.1769  0.1814  0.1194
 9452SOL    HW129255   0.827   5.728   1.350 -0.0532  0.3658  0.0692
 9452SOL    HW229256   0.831   5.776   1.194 -0.2617 -0.0926 -0.0813
 9453SOL     OW29257   0.944   5.480   2.198  0.1453 -0.1237 -0.0843
 9453SOL    HW129258   0.913   5.572   2.221 -0.5564 -0.5288  0.6255
 9453SOL    HW229259   1.023   5.486   2.137 -0.6113  0.9299 -0.9951
 9454SOL     OW29260   1.967   2.636   0.053 -0.1200  0.2458 -0.0263
 9454SOL    HW129261   1.917   2.667  -0.028  0.7644 -0.0264 -0.7046
 9454SOL    HW229262   2.021   2.555   0.028  0.6759  0.5575  0.6644
 9455SOL     OW29263   4.335   1.435   4.446  0.8352  0.3438 -0.2713
 9455SOL    HW129264   4.414   1.416   4.387 -0.0126  0.9393 -1.6572
 9455SOL    HW229265   4.366   1.475   4.532  2.1472 -0.9440 -0.1096
 9456SOL     OW29266   0.010   2.214   6.906  0.3242  0.0592 -0.7475
 9456SOL    HW129267  -0.069   2.190   6.962  0.0289 -1.6576 -1.8355
 9456SOL    HW229268  -0.015   2.287   6.842 -0.6436 -1.0146 -1.6225
 9457SOL     OW29269   2.349   6.328   4.999 -0.5770  0.3940  0.2960
 9457SOL    HW129270   2.385   6.348   4.908  1.5921  0.6238  1.1501
 9457SOL    HW229271   2.367   6.232   5.021 -0.7950  0.4225  0.5972
 9458SOL     OW29272   0.641   3.374   1.661 -0.1996  0.5496  0.4712
 9458SOL    HW129273   0.563   3.429   1.628 -0.1849  1.1228  1.3703
 9458SOL    HW229274   0.619   3.277   1.653  0.3077  0.5905 -2.4707
 9459SOL     OW29275   4.763   4.640   1.159  0.1127  0.1157 -0.0854
 9459SOL    HW129276   4.695   4.626   1.087  1.3840 -0.3184 -1.2447
 9459SOL    HW229277   4.743   4.579   1.236 -0.0703 -0.9433 -0.9536
 9460SOL     OW29278   0.337   2.479   3.411  0.1808  0.1936 -0.0721
 9460SOL    HW129279   0.269   2.426   3.361  0.1782  1.3657 -1.3726
 9460SOL    HW229280   0.428   2.439   3.395 -0.2016 -2.1333  2.6606
 9461SOL     OW29281   0.050   1.367   4.210 -0.4962  0.2907  0.0831
 9461SOL    HW129282   0.064   1.282   4.261 -2.8590  0.5939  1.3829
 9461SOL    HW229283   0.030   1.345   4.114  3.3067 -0.3190 -0.7450
 9462SOL     OW29284   1.713   3.858   2.269 -0.0557 -0.1808  0.2106
 9462SOL    HW129285   1.717   3.954   2.243 -0.6208 -0.9269 -3.2305
 9462SOL    HW229286   1.805   3.819   2.271  0.1407  0.3208  1.2161
 9463SOL     OW29287   0.501   2.507   1.805  0.3852 -0.2006  0.4032
 9463SOL    HW129288   0.576   2.517   1.740  0.9194  0.0447  1.0473
 9463SOL    HW229289   0.418   2.547   1.767  1.2891  2.2896  0.8790
 9464SOL     OW29290   0.510   0.087   1.572  0.4159  0.2597 -0.1422
 9464SOL    HW129291   0.520   0.072   1.671 -1.1352 -0.0150  0.0065
 9464SOL    HW229292   0.425   0.138   1.555 -0.1093 -0.9766 -1.4137
 9465SOL     OW29293   0.557   5.367   2.209 -0.2986 -0.1657 -0.0055
 9465SOL    HW129294   0.623   5.358   2.284 -0.3842 -1.1050 -0.0231
 9465SOL    HW229295   0.570   5.454   2.163  1.6171 -0.7353 -0.6441
 9466SOL     OW29296   3.457   2.934   4.676 -0.5330 -0.1246  0.3355
 9466SOL    HW129297   3.548   2.893   4.672 -0.5781 -0.2255  0.3373
 9466SOL    HW229298   3.409   2.916   4.590 -0.7275 -0.4790  0.5181
 9467SOL     OW29299   0.451   2.563   0.597 -0.3350  0.2290  0.2711
 9467SOL    HW129300   0.521   2.532   0.532  0.1806  3.0345 -0.6611
 9467SOL    HW229301   0.361   2.533   0.565 -0.0152  0.9412 -1.4171
 9468SOL     OW29302   6.102   2.833   1.462 -0.3466 -0.4013 -0.5132
 9468SOL    HW129303   6.093   2.864   1.557 -1.3114  0.9299 -1.0091
 9468SOL    HW229304   6.061   2.742   1.453 -0.3287 -0.5020  0.3086
 9469SOL     OW29305   6.673   6.559   2.224  0.2608 -0.4710  0.1898
 9469SOL    HW129306   6.715   6.586   2.137  0.1078  1.0316  0.5441
 9469SOL    HW229307   6.741   6.512   2.280  0.6204 -0.6570 -0.3910
 9470SOL     OW29308   4.335   3.755   6.292 -0.3659  0.2287  0.3477
 9470SOL    HW129309   4.361   3.803   6.376 -1.3367  1.4501 -0.0257
 9470SOL    HW229310   4.328   3.820   6.217  0.4120 -0.8415 -0.6928
 9471SOL     OW29311   6.450   1.404   4.492  0.2182  0.3147 -0.0988
 9471SOL    HW129312   6.477   1.457   4.411  1.2865 -0.5380 -0.3280
 9471SOL    HW229313   6.369   1.446   4.534  0.4757  1.5646 -0.8027
 9472SOL     OW29314   5.268   4.335   3.773 -0.0686  0.4466  0.1163
 9472SOL    HW129315   5.271   4.433   3.753  0.3878 -0.1261 -3.2740
 9472SOL    HW229316   5.172   4.306   3.780 -0.2516  0.9120 -0.3444
 9473SOL     OW29317   2.082   5.267   5.692  0.0141  0.0479  0.1555
 9473SOL    HW129318   2.100   5.348   5.635  1.2391  0.0256  0.4838
 9473SOL    HW229319   2.168   5.232   5.727 -0.4970 -1.4968 -0.0820
 9474SOL     OW29320   4.882   4.122   0.513  0.0945  0.3915 -0.2259
 9474SOL    HW129321   4.908   4.067   0.434  0.7201 -0.2216  0.3842
 9474SOL    HW229322   4.952   4.113   0.584  0.7176  2.7655 -0.4550
 9475SOL     OW29323   1.391   2.954   6.597 -0.4416 -0.2609  0.1419
 9475SOL    HW129324   1.455   2.948   6.520  1.7337 -1.6682  1.9409
 9475SOL    HW229325   1.335   3.037   6.587 -0.2391 -0.3536 -2.8644
 9476SOL     OW29326   3.543   2.765   6.143  0.4210 -0.2823  0.4295
 9476SOL    HW129327   3.490   2.681   6.151  0.1972 -0.0681  1.4222
 9476SOL    HW229328   3.640   2.742   6.135  0.4041 -0.6391  1.1474
 9477SOL     OW29329   0.964   4.911   1.581 -0.2685  0.5381 -0.2876
 9477SOL    HW129330   0.946   5.009   1.570 -0.2091  0.4578 -1.1262
 9477SOL    HW229331   1.044   4.886   1.527 -0.3399  0.0027 -0.1479
 9478SOL     OW29332   4.856   3.994   5.055  0.1430  0.2579  0.4002
 9478SOL    HW129333   4.946   3.951   5.060 -0.1646 -0.4332  0.2296
 9478SOL    HW229334   4.803   3.968   5.137 -0.6501 -1.1221 -0.5089
 9479SOL     OW29335   4.293   5.106   6.557 -0.7113 -0.4313 -0.1232
 9479SOL    HW129336   4.266   5.165   6.633  2.8587 -0.5718  1.4202
 9479SOL    HW229337   4.252   5.016   6.570  0.7794 -0.8581  2.4819
 9480SOL     OW29338   4.639   3.930   0.389  0.7139  0.0870 -0.3996
 9480SOL    HW129339   4.659   3.930   0.488 -1.7100  2.4177  0.1950
 9480SOL    HW229340   4.548   3.968   0.374  0.7660 -0.8160 -3.5553
 9481SOL     OW29341   5.678   2.840   3.056  0.3874  0.3021  0.5152
 9481SOL    HW129342   5.707   2.867   3.148 -0.8143 -1.1092  1.3579
 9481SOL    HW229343   5.745   2.777   3.016 -0.1139 -0.8008  1.3460
 9482SOL     OW29344   6.850   0.773   2.862  0.5647  0.6719  0.3173
 9482SOL    HW129345   6.949   0.769   2.877  0.7546  1.4709 -0.6221
 9482SOL    HW229346   6.829   0.734   2.772 -0.2190 -1.3607  1.3148
 9483SOL     OW29347   1.164   0.934   1.097 -0.1867  0.2100 -0.2569
 9483SOL    HW129348   1.218   0.982   1.165  0.1998  0.0292 -0.4356
 9483SOL    HW229349   1.170   0.981   1.009  0.7317 -0.5285 -0.5985
 9484SOL     OW29350   4.691   0.507   2.951 -0.0944  0.3654  0.0007
 9484SOL    HW129351   4.703   0.448   2.870  1.9286  0.5187  0.1351
 9484SOL    HW229352   4.601   0.490   2.991 -0.6288 -0.6603 -1.5242
 9485SOL     OW29353   0.952   6.502   3.871  0.1177 -0.3519  0.2110
 9485SOL    HW129354   0.862   6.459   3.876 -0.4422  0.7745  0.0973
 9485SOL    HW229355   1.020   6.434   3.842 -0.6245 -1.2964  0.6440
 9486SOL     OW29356   1.296   6.106   1.880 -0.9499 -0.2056  0.0265
 9486SOL    HW129357   1.310   6.195   1.837 -1.0479  1.3873  3.0656
 9486SOL    HW229358   1.213   6.064   1.843 -1.1559  1.1297 -1.1289
 9487SOL     OW29359   2.943   3.756   2.952  0.8663  0.5328 -0.0061
 9487SOL    HW129360   3.001   3.788   3.026 -0.8464  0.6447  1.3521
 9487SOL    HW229361   2.917   3.834   2.894  1.3938  0.6123 -0.1414
 9488SOL     OW29362   2.677   6.820   1.397  0.4345  0.5885 -0.2576
 9488SOL    HW129363   2.648   6.727   1.375 -0.5708  0.6163  0.8511
 9488SOL    HW229364   2.764   6.817   1.447  0.2082  0.2279  0.1146
 9489SOL     OW29365   3.169   4.080   1.404 -0.4129  0.0434 -0.3789
 9489SOL    HW129366   3.071   4.062   1.415  0.0172 -3.6297 -1.2287
 9489SOL    HW229367   3.195   4.061   1.309  1.6317 -2.4146  0.5721
 9490SOL     OW29368   4.606   5.630   0.539 -0.2550  0.0292 -0.2826
 9490SOL    HW129369   4.525   5.581   0.570 -0.6834  0.0568 -1.3316
 9490SOL    HW229370   4.686   5.598   0.590 -0.8406 -0.3408  0.4193
 9491SOL     OW29371   0.300   5.075   3.720  0.5399  0.1902 -0.0436
 9491SOL    HW129372   0.202   5.085   3.735  0.1697 -1.0678 -1.3747
 9491SOL    HW229373   0.335   5.155   3.672 -0.6066 -0.8683 -2.8251
 9492SOL     OW29374   3.405   2.865   2.933 -0.3576  0.1415 -0.6845
 9492SOL    HW129375   3.392   2.830   3.026 -1.1298  0.5040 -0.6430
 9492SOL    HW229376   3.503   2.875   2.914 -0.0833 -2.2729 -0.7979
 9493SOL     OW29377   4.379   5.411   2.489  0.7541  0.4037  0.5951
 9493SOL    HW129378   4.321   5.352   2.432  1.0086  0.9298 -0.2283
 9493SOL    HW229379   4.321   5.468   2.548  0.4410  0.5868  0.1162
 9494SOL     OW29380   3.521   5.981   6.396  0.2719 -0.1599 -0.2246
 9494SOL    HW129381   3.434   6.011   6.434  0.4235 -1.4263  1.1980
 9494SOL    HW229382   3.591   5.983   6.467  1.1119 -0.4010 -1.0242
 9495SOL     OW29383   6.656   2.349   3.413  0.2586  0.0158  0.2956
 9495SOL    HW129384   6.640   2.303   3.501  2.8286 -0.4319  0.5982
 9495SOL    HW229385   6.717   2.427   3.427 -0.4489  0.8227 -0.9153
 9496SOL     OW29386   4.098   3.961   0.678  0.0897 -0.3695 -0.0785
 9496SOL    HW129387   4.021   3.943   0.740 -1.9072 -1.4653 -2.7010
 9496SOL    HW229388   4.143   3.875   0.655  1.6737  0.1784  0.7829
 9497SOL     OW29389   0.152   4.243   0.028 -0.2513 -0.3919  0.1858
 9497SOL    HW129390   0.064   4.289   0.019  0.7471  1.1419 -2.6209
 9497SOL    HW229391   0.178   4.202  -0.059  1.8688 -0.7345  0.9191
 9498SOL     OW29392   4.249   1.091   3.595 -0.4126  0.1404 -0.2602
 9498SOL    HW129393   4.188   1.093   3.674 -0.0399  1.7291  0.0297
 9498SOL    HW229394   4.277   0.997   3.576 -0.5910 -0.2839  1.4303
 9499SOL     OW29395   2.812   6.388   6.239  0.0866 -0.5443  0.3300
 9499SOL    HW129396   2.867   6.354   6.315  1.2839  0.4981 -0.0375
 9499SOL    HW229397   2.828   6.330   6.158  1.2670  0.1754  0.0153
 9500SOL     OW29398   6.277   1.125   2.876  0.4401  0.9481 -0.5405
 9500SOL    HW129399   6.231   1.156   2.793  0.7773  2.3364 -0.2411
 9500SOL    HW229400   6.371   1.099   2.854  0.2628  0.4464 -0.7316
 9501SOL     OW29401   2.666   0.904   4.640 -0.9975 -0.0205  0.0339
 9501SOL    HW129402   2.682   0.903   4.739  1.6630 -0.0355 -0.3095
 9501SOL    HW229403   2.698   0.991   4.602 -1.5392 -0.2069 -0.8807
 9502SOL     OW29404   5.715   2.545   0.399  0.3228  0.5182  0.1766
 9502SOL    HW129405   5.811   2.520   0.397  1.0908  3.2323 -0.7622
 9502SOL    HW229406   5.683   2.546   0.494  0.7997 -1.5986  0.4207
 9503SOL     OW29407   6.064   2.931   2.078  0.7898 -0.5831  0.5188
 9503SOL    HW129408   6.038   2.845   2.122  1.4105  0.2987  2.7402
 9503SOL    HW229409   6.092   2.997   2.147  0.8255  1.2707 -1.1679
 9504SOL     OW29410   6.943   2.294   5.545  0.0628 -0.3197  0.6579
 9504SOL    HW129411   6.949   2.327   5.639  0.7426  1.5953 -0.0019
 9504SOL    HW229412   7.036   2.281   5.509 -0.1876 -2.0512  0.5452
 9505SOL     OW29413   5.067   4.054   2.111  0.0650  0.6574 -0.2039
 9505SOL    HW129414   4.975   4.084   2.134 -0.1238  1.4852 -1.9207
 9505SOL    HW229415   5.134   4.116   2.153 -0.2330  1.3682 -0.7525
 9506SOL     OW29416   1.161   2.136   6.636  0.3835 -0.4311  0.3374
 9506SOL    HW129417   1.069   2.127   6.598  0.8494 -0.9775 -0.7327
 9506SOL    HW229418   1.156   2.166   6.731 -0.9076 -0.8216  0.4121
 9507SOL     OW29419   0.159   0.471   5.000 -0.0015 -0.3020 -0.1522
 9507SOL    HW129420   0.161   0.437   5.094  0.7394 -1.0943 -0.4436
 9507SOL    HW229421   0.150   0.571   5.001 -0.0569 -0.3087  0.7565
 9508SOL     OW29422   6.211   2.920   5.852 -0.9631 -0.5077  0.1235
 9508SOL    HW129423   6.275   2.926   5.928 -1.0139  1.1027  0.0572
 9508SOL    HW229424   6.251   2.962   5.771 -1.2586 -1.4313 -0.5176
 9509SOL     OW29425   1.441   6.506   4.312  0.2574 -0.3328  0.0423
 9509SOL    HW129426   1.491   6.546   4.236  1.3390 -0.8803  0.4450
 9509SOL    HW229427   1.498   6.508   4.394 -0.4903 -0.7271  0.5826
 9510SOL     OW29428   1.157   4.870   4.011 -0.0376 -0.1391 -0.3830
 9510SOL    HW129429   1.134   4.819   4.094 -0.0947  0.7872  0.1831
 9510SOL    HW229430   1.211   4.811   3.950  0.5803 -0.6236  0.5963
 9511SOL     OW29431   6.702   1.302   6.046  0.2029  0.5286  0.3586
 9511SOL    HW129432   6.649   1.264   6.122 -0.5528  2.5119  0.8886
 9511SOL    HW229433   6.642   1.313   5.966 -0.1495  2.3403  0.8172
 9512SOL     OW29434   0.188   2.809   1.499  0.6004 -0.1842 -0.0378
 9512SOL    HW129435   0.116   2.800   1.430  1.1747 -0.0267 -0.6612
 9512SOL    HW229436   0.198   2.905   1.524  1.1394 -0.1085 -0.5390
 9513SOL     OW29437   1.279   2.119   6.350  0.3522  0.1771 -0.5902
 9513SOL    HW129438   1.309   2.211   6.323 -1.2478  0.6586 -0.8171
 9513SOL    HW229439   1.250   2.121   6.446 -0.8032  0.2015 -0.9328
 9514SOL     OW29440   1.436   1.770   2.288  0.0876  0.2187 -0.4393
 9514SOL    HW129441   1.374   1.747   2.213  1.8051  0.1566 -1.8823
 9514SOL    HW229442   1.451   1.689   2.345 -1.1517  0.2450 -0.0430
 9515SOL     OW29443   0.729   0.305   1.569  0.4891 -0.5076  0.3591
 9515SOL    HW129444   0.690   0.215   1.589 -1.9097  0.8201  2.2589
 9515SOL    HW229445   0.662   0.359   1.518  0.2225  1.4091  2.5485
 9516SOL     OW29446   5.691   2.844   5.970 -0.1312  0.0107 -0.3267
 9516SOL    HW129447   5.747   2.916   5.929 -1.1429  0.7073 -0.5022
 9516SOL    HW229448   5.751   2.779   6.018  0.9045  0.2085 -1.3069
 9517SOL     OW29449   0.244   5.374   6.881 -0.3597  0.5427 -0.2261
 9517SOL    HW129450   0.188   5.443   6.925 -0.5052  0.6365 -0.5579
 9517SOL    HW229451   0.228   5.375   6.782 -0.4799 -0.0661 -0.2194
 9518SOL     OW29452   1.331   1.781   1.235  0.0203 -0.2398 -0.2327
 9518SOL    HW129453   1.373   1.871   1.218 -2.6090  0.8193 -1.7062
 9518SOL    HW229454   1.329   1.764   1.333 -0.0754  1.7048  0.1565
 9519SOL     OW29455   3.191   3.687   4.502 -0.1513 -0.1181 -0.4426
 9519SOL    HW129456   3.103   3.661   4.464 -0.0877 -0.6293 -0.2603
 9519SOL    HW229457   3.189   3.783   4.530 -0.3129  0.1653 -1.3824
 9520SOL     OW29458   1.015   1.480   3.952 -0.8343  0.2188 -0.4037
 9520SOL    HW129459   0.973   1.571   3.962 -0.4578  0.3305  0.2393
 9520SOL    HW229460   1.066   1.458   4.035  0.3223  0.0513 -1.1417
 9521SOL     OW29461   4.599   0.426   0.179 -0.1041  0.3245  0.3242
 9521SOL    HW129462   4.567   0.480   0.256 -1.0867 -0.8777  0.7851
 9521SOL    HW229463   4.583   0.329   0.197 -0.7555  0.0445 -1.5833
 9522SOL     OW29464   4.636   4.729   2.185 -0.6435 -0.2624  0.1002
 9522SOL    HW129465   4.636   4.829   2.181 -1.2004 -0.2352  0.6957
 9522SOL    HW229466   4.725   4.695   2.156 -0.4328  0.4096 -0.0612
 9523SOL     OW29467   1.133   4.951   6.231  0.4281  0.1250 -0.9280
 9523SOL    HW129468   1.052   4.913   6.276  0.9959  0.0237  0.0386
 9523SOL    HW229469   1.112   4.972   6.135 -0.7082  0.0163 -0.7114
 9524SOL     OW29470   1.652   2.350   1.418  0.5523  0.1905 -0.3538
 9524SOL    HW129471   1.638   2.437   1.370  0.6629  2.0755  2.7851
 9524SOL    HW229472   1.564   2.316   1.450  0.7740  0.6570  0.8035
 9525SOL     OW29473   4.571   2.656   5.055 -0.2646 -0.5332  0.0395
 9525SOL    HW129474   4.514   2.574   5.042 -0.7906 -0.1970  0.1702
 9525SOL    HW229475   4.571   2.709   4.970  0.2470 -0.7669 -0.1129
 9526SOL     OW29476   4.554   4.241   1.099 -0.0578 -0.2930  0.5225
 9526SOL    HW129477   4.528   4.198   1.185  0.8276 -0.1727  0.8691
 9526SOL    HW229478   4.484   4.306   1.071  0.2032  0.6036  1.8234
 9527SOL     OW29479   2.889   6.781   5.003 -0.3829 -0.2142 -0.3803
 9527SOL    HW129480   2.897   6.741   5.094 -0.2955 -0.1264 -0.3495
 9527SOL    HW229481   2.981   6.800   4.967 -0.3774 -0.9685 -0.8021
 9528SOL     OW29482   6.278   1.242   6.596  0.0217  0.1779 -0.3748
 9528SOL    HW129483   6.233   1.287   6.673  1.3570  1.4878 -0.3036
 9528SOL    HW229484   6.225   1.257   6.513 -0.8076 -0.2165  0.0791
 9529SOL     OW29485   6.095   2.416   0.244  0.5654 -0.1737  0.1157
 9529SOL    HW129486   6.092   2.501   0.191 -0.2174  0.2152  0.7629
 9529SOL    HW229487   6.181   2.411   0.294  1.6757 -0.9196 -1.7509
 9530SOL     OW29488   1.622   4.217   4.256 -0.7514  0.0529 -0.0628
 9530SOL    HW129489   1.626   4.162   4.340  0.3814  0.1070 -0.0620
 9530SOL    HW229490   1.573   4.302   4.275 -0.6543 -0.0088  0.5044
 9531SOL     OW29491   6.446   4.809   0.914  0.0754  0.5831 -0.0742
 9531SOL    HW129492   6.382   4.754   0.859 -0.1456  0.4149  0.3474
 9531SOL    HW229493   6.406   4.899   0.931 -0.6041  0.0567  1.2341
 9532SOL     OW29494   0.913   0.315   0.470  0.3026  0.3198 -0.1485
 9532SOL    HW129495   0.974   0.283   0.397  0.2606  2.8655 -1.4160
 9532SOL    HW229496   0.822   0.275   0.457  0.0658  1.3434 -2.0584
 9533SOL     OW29497   6.895   5.370   5.113 -0.4738 -0.2734  0.2004
 9533SOL    HW129498   6.984   5.367   5.158  0.4496  3.5885 -1.0325
 9533SOL    HW229499   6.879   5.461   5.074 -4.2568 -1.2991 -1.1587
 9534SOL     OW29500   5.548   3.510   6.301 -0.1916 -0.1342  0.1428
 9534SOL    HW129501   5.522   3.430   6.355 -0.5284 -0.3143 -0.2788
 9534SOL    HW229502   5.526   3.493   6.205 -1.0095  0.7872  0.1646
 9535SOL     OW29503   1.772   0.591   6.204 -0.3021  0.0080  0.8545
 9535SOL    HW129504   1.716   0.555   6.279  0.5941 -0.0695  1.4985
 9535SOL    HW229505   1.833   0.519   6.170 -0.8549 -0.0283 -0.1216
 9536SOL     OW29506   3.623   2.055   5.240  0.0524  0.0494  0.6961
 9536SOL    HW129507   3.635   2.145   5.282  1.2503  0.6524 -0.8627
 9536SOL    HW229508   3.710   2.005   5.243 -0.2270 -0.4774  0.2399
 9537SOL     OW29509   3.274   0.873   3.918  0.1852 -0.2871 -0.4016
 9537SOL    HW129510   3.247   0.874   3.821 -0.2869  0.9792 -0.2725
 9537SOL    HW229511   3.192   0.870   3.975  0.3754  0.9842 -0.0368
 9538SOL     OW29512   0.086   1.498   4.791  0.3542  0.4911 -0.0010
 9538SOL    HW129513   0.157   1.428   4.803 -0.5305 -0.7895 -1.8366
 9538SOL    HW229514   0.130   1.585   4.769  1.3969 -0.4525 -1.9207
 9539SOL     OW29515   3.059   4.593   5.678  0.2056  0.0438  0.3848
 9539SOL    HW129516   3.141   4.642   5.649 -0.2886 -0.1126 -1.4047
 9539SOL    HW229517   2.989   4.601   5.607 -0.1728 -2.6267  0.3582
 9540SOL     OW29518   5.858   5.057   4.248  0.1034 -0.1956 -0.2965
 9540SOL    HW129519   5.918   5.065   4.328 -1.4136  1.5998  0.7610
 9540SOL    HW229520   5.832   4.961   4.236  0.2243 -0.5018  1.5226
 9541SOL     OW29521   3.820   0.669   6.714  0.0826 -0.0211  0.6237
 9541SOL    HW129522   3.890   0.611   6.670  0.7872 -0.6115  2.4437
 9541SOL    HW229523   3.837   0.765   6.690  0.9742 -0.2379  0.3200
 9542SOL     OW29524   4.319   4.867   3.409  0.3709  1.0389  0.1676
 9542SOL    HW129525   4.318   4.967   3.415  0.0832  0.9758  1.7086
 9542SOL    HW229526   4.389   4.830   3.470 -0.3883  0.2756  0.6131
 9543SOL     OW29527   3.528   6.502   4.261  0.1925  0.1565 -0.4892
 9543SOL    HW129528   3.514   6.486   4.358 -2.1410  0.9535 -0.6350
 9543SOL    HW229529   3.484   6.428   4.208  1.5717 -0.3533 -0.9631
 9544SOL     OW29530   0.287   2.799   4.110 -0.3863 -0.2643  0.8365
 9544SOL    HW129531   0.204   2.847   4.079 -0.3093  1.5282  3.0615
 9544SOL    HW229532   0.299   2.715   4.058 -1.7731  1.0500 -1.7990
 9545SOL     OW29533   4.932   4.419   2.925 -0.2292 -0.2763 -0.0314
 9545SOL    HW129534   4.972   4.334   2.960 -2.3104 -1.6834 -0.9077
 9545SOL    HW229535   5.003   4.489   2.918  1.8002 -2.2718 -0.3892
 9546SOL     OW29536   4.048   1.572   5.147 -0.3579  0.0989 -0.0965
 9546SOL    HW129537   4.016   1.583   5.241 -0.8587  0.5931 -0.3206
 9546SOL    HW229538   4.042   1.476   5.121 -1.5280  0.1554 -0.0838
 9547SOL     OW29539   3.269   6.070   2.412  0.2389 -0.2833  0.3682
 9547SOL    HW129540   3.309   5.984   2.441  0.7667 -0.2858 -0.3273
 9547SOL    HW229541   3.228   6.059   2.321 -1.2097 -0.2312  0.9798
 9548SOL     OW29542   4.789   5.219   4.951 -0.0526 -0.3658 -0.2288
 9548SOL    HW129543   4.832   5.156   4.886  0.2606  0.9425 -1.3264
 9548SOL    HW229544   4.851   5.234   5.028  0.8356  0.3151 -1.0507
 9549SOL     OW29545   2.676   2.218   1.329  0.0790  0.6358 -0.3017
 9549SOL    HW129546   2.735   2.208   1.409  0.7136  0.1674 -0.8182
 9549SOL    HW229547   2.646   2.128   1.297 -2.3344  0.9085  0.9567
 9550SOL     OW29548   5.869   2.113   0.689 -0.0746 -0.5731 -0.2634
 9550SOL    HW129549   5.866   2.014   0.678  1.5220 -0.6962  0.1465
 9550SOL    HW229550   5.949   2.138   0.743 -0.5916  0.9356 -0.1463
 9551SOL     OW29551   5.420   1.911   5.269  0.1485  0.1153 -0.0191
 9551SOL    HW129552   5.387   2.005   5.269 -0.0159  0.1338  2.4325
 9551SOL    HW229553   5.349   1.850   5.305  1.2788 -0.4690  1.3260
 9552SOL     OW29554   3.155   6.427   5.132  0.2659 -0.0402 -0.0086
 9552SOL    HW129555   3.076   6.426   5.193 -0.2427 -0.5898 -0.6502
 9552SOL    HW229556   3.185   6.333   5.115  0.7508  0.1398 -0.1567
 9553SOL     OW29557   5.814   4.874   5.942  0.3796  0.7544  0.1368
 9553SOL    HW129558   5.889   4.888   5.877  1.0743  1.5254  1.0715
 9553SOL    HW229559   5.727   4.899   5.898  0.7769  0.8085 -0.6382
 9554SOL     OW29560   4.848   0.508   2.123 -0.1238  0.1889  0.2486
 9554SOL    HW129561   4.920   0.446   2.091 -2.9568 -2.7000 -1.1390
 9554SOL    HW229562   4.836   0.582   2.057  0.6445 -0.0811 -0.2111
 9555SOL     OW29563   2.088   1.107   2.536 -0.3867  0.6303  0.1242
 9555SOL    HW129564   1.995   1.095   2.571 -0.5863 -0.4866 -0.7318
 9555SOL    HW229565   2.140   1.023   2.551 -0.2493  0.3937 -1.5036
 9556SOL     OW29566   2.393   3.234   0.764 -0.0633  0.4759 -0.0644
 9556SOL    HW129567   2.348   3.153   0.802 -0.3755  0.3782 -0.6274
 9556SOL    HW229568   2.449   3.277   0.834  0.6065 -0.5784  0.0656
 9557SOL     OW29569   0.850   0.230   2.126  0.4100  0.1880  0.0278
 9557SOL    HW129570   0.897   0.155   2.080  0.4323  0.1995  0.0316
 9557SOL    HW229571   0.846   0.213   2.224  0.3493  0.1565  0.0198
 9558SOL     OW29572   6.567   3.607   6.457 -0.3134  0.5361 -0.1485
 9558SOL    HW129573   6.520   3.633   6.541 -0.5417 -1.8984  0.5530
 9558SOL    HW229574   6.499   3.584   6.387 -0.1567  0.1272 -0.1708
 9559SOL     OW29575   2.052   3.077   5.248  0.1492  0.1458  0.0609
 9559SOL    HW129576   2.025   2.997   5.302 -2.3040  0.1390 -1.0497
 9559SOL    HW229577   2.005   3.158   5.283  0.5289  0.6028 -0.4726
 9560SOL     OW29578   1.696   2.017   3.431 -0.0910 -0.1723 -0.3805
 9560SOL    HW129579   1.627   2.063   3.486 -0.1340  0.2686 -0.7921
 9560SOL    HW229580   1.655   1.989   3.344  0.3841  0.5892 -0.8601
 9561SOL     OW29581   1.783   0.554   0.584  0.1276 -0.0232 -0.5663
 9561SOL    HW129582   1.789   0.458   0.614  0.1578 -0.1498 -0.9722
 9561SOL    HW229583   1.864   0.604   0.616 -0.9428  0.4262  1.5984
 9562SOL     OW29584   1.647   5.573   4.045 -0.4561 -0.0840  0.2143
 9562SOL    HW129585   1.553   5.595   4.019 -0.6897 -1.2082  0.0498
 9562SOL    HW229586   1.705   5.573   3.963 -0.3810  0.2815  0.2674
 9563SOL     OW29587   1.156   6.797   1.868 -0.2384  0.4481  0.1403
 9563SOL    HW129588   1.227   6.863   1.890 -0.0379  0.4683 -0.5530
 9563SOL    HW229589   1.118   6.817   1.777  0.8526 -1.2443 -0.7521
 9564SOL     OW29590   1.217   6.861   0.251 -0.0848 -0.5842 -0.4106
 9564SOL    HW129591   1.134   6.912   0.270  1.3878  1.3484  1.2633
 9564SOL    HW229592   1.241   6.872   0.154 -1.3282 -0.5279 -0.7305
 9565SOL     OW29593   3.643   1.346   4.024 -0.7602 -0.3414  0.2902
 9565SOL    HW129594   3.565   1.328   3.964 -1.1554 -0.6962  0.8967
 9565SOL    HW229595   3.621   1.316   4.117 -0.4665  0.9304  0.7931
 9566SOL     OW29596   3.040   2.982   0.367  0.5736  0.5310  0.1454
 9566SOL    HW129597   3.108   2.909   0.360  0.5138  0.5063 -0.1984
 9566SOL    HW229598   2.954   2.944   0.401  1.5923  1.0952  3.7495
 9567SOL     OW29599   3.228   5.116   0.560 -0.3572 -0.0441  0.1758
 9567SOL    HW129600   3.130   5.107   0.545 -0.3668 -1.4695  0.8972
 9567SOL    HW229601   3.265   5.028   0.591  1.1173  0.5163  0.0814
 9568SOL     OW29602   6.348   4.235   6.363  1.0431  0.1666 -0.1437
 9568SOL    HW129603   6.307   4.146   6.340 -1.2969  0.9942  0.5934
 9568SOL    HW229604   6.377   4.280   6.279 -0.2888 -0.1472 -0.8028
 9569SOL     OW29605   0.202   3.355   1.536  0.4163  0.0237 -0.0324
 9569SOL    HW129606   0.115   3.392   1.571  0.6792  1.2527 -0.6038
 9569SOL    HW229607   0.209   3.375   1.438  0.8197 -1.1346 -0.2547
 9570SOL     OW29608   6.135   2.636   0.775  0.0533 -0.0996 -0.8110
 9570SOL    HW129609   6.081   2.556   0.751 -1.9893  1.2689 -1.1165
 9570SOL    HW229610   6.187   2.667   0.695  0.1302 -0.6065 -0.9552
 9571SOL     OW29611   2.821   2.696   5.337  0.4068 -0.3376 -0.2337
 9571SOL    HW129612   2.879   2.771   5.306  1.7099 -1.3523 -0.3292
 9571SOL    HW229613   2.729   2.731   5.354  1.3690  1.6873  1.4319
 9572SOL     OW29614   1.863   4.822   0.504 -0.0684  0.4593  0.2093
 9572SOL    HW129615   1.833   4.854   0.414  2.9134  0.4744 -0.9023
 9572SOL    HW229616   1.912   4.735   0.493 -1.2696 -0.5387  2.1321
 9573SOL     OW29617   1.391   3.846   5.130  0.3735  0.5348  0.7010
 9573SOL    HW129618   1.376   3.822   5.225 -2.2357  0.0134  0.2191
 9573SOL    HW229619   1.417   3.764   5.078 -0.9778  0.2141  0.4861
 9574SOL     OW29620   4.240   3.383   1.721  0.2409 -1.4155  0.1560
 9574SOL    HW129621   4.252   3.284   1.711  0.9123 -1.2889 -0.3450
 9574SOL    HW229622   4.210   3.403   1.814  0.2099 -2.0806  0.2999
 9575SOL     OW29623   6.951   2.040   0.945 -0.3032  0.5874 -0.0260
 9575SOL    HW129624   6.927   2.136   0.928 -3.0819  0.3944  1.9944
 9575SOL    HW229625   6.923   2.016   1.038  1.0257 -2.0125 -0.2249
 9576SOL     OW29626   0.075   2.036   1.683 -0.4282 -0.1909 -0.2501
 9576SOL    HW129627   0.065   2.115   1.743  0.6471 -0.4541  0.2932
 9576SOL    HW229628   0.085   2.067   1.588  1.2412  0.4205  0.0916
 9577SOL     OW29629   1.780   0.959   6.617 -0.3669 -0.1492 -0.1357
 9577SOL    HW129630   1.800   0.868   6.653 -0.3948 -0.0612  0.1094
 9577SOL    HW229631   1.865   1.002   6.586 -0.2535  0.0095  0.3903
 9578SOL     OW29632   1.255   2.944   2.389  0.3537 -0.2735 -0.0839
 9578SOL    HW129633   1.285   2.938   2.484  1.2097 -0.9095 -0.3858
 9578SOL    HW229634   1.239   2.852   2.353 -2.1669  0.0038  0.0993
 9579SOL     OW29635   0.818   4.484   1.623  0.1889 -0.2104 -0.0931
 9579SOL    HW129636   0.728   4.527   1.620  0.8775  1.2486 -0.3936
 9579SOL    HW229637   0.814   4.405   1.684 -1.6056 -0.9493 -1.0676
 9580SOL     OW29638   4.900   2.096   6.964  0.0111 -0.3396 -0.2539
 9580SOL    HW129639   4.908   2.002   6.933 -2.0139 -0.5769 -0.1833
 9580SOL    HW229640   4.805   2.116   6.988  0.5996  1.3788  0.8764
 9581SOL     OW29641   5.230   5.533   5.464  0.5074 -0.0062  0.2082
 9581SOL    HW129642   5.306   5.598   5.466  0.7327 -0.2782  1.1759
 9581SOL    HW229643   5.267   5.440   5.468  0.2134 -0.2406 -1.5929
 9582SOL     OW29644   4.162   4.800   5.494 -0.4183  0.0289 -0.0552
 9582SOL    HW129645   4.075   4.752   5.481 -0.1955 -0.1585 -0.9077
 9582SOL    HW229646   4.176   4.819   5.592 -1.2131 -0.3118  0.1272
 9583SOL     OW29647   3.836   4.370   1.383 -0.3803  0.1277 -0.1123
 9583SOL    HW129648   3.829   4.283   1.334  1.8189 -0.2664  0.1346
 9583SOL    HW229649   3.874   4.354   1.474 -1.2923  1.2148  0.4780
 9584SOL     OW29650   0.241   6.507   5.756  0.1250  0.5060  0.5287
 9584SOL    HW129651   0.218   6.557   5.839 -1.5368  0.7992 -0.0826
 9584SOL    HW229652   0.191   6.545   5.678  0.4332 -0.7670 -0.3290
 9585SOL     OW29653   1.153   0.109   4.686  0.4583  0.2432 -0.4110
 9585SOL    HW129654   1.211   0.179   4.644 -0.1723  0.8726 -0.2616
 9585SOL    HW229655   1.074   0.153   4.728 -0.2932 -0.6161 -0.8845
 9586SOL     OW29656   6.267   5.731   0.841 -0.0765  0.5008 -0.0986
 9586SOL    HW129657   6.299   5.774   0.757  2.4160 -0.4116  0.2794
 9586SOL    HW229658   6.308   5.778   0.920 -2.0983  1.1330  0.6346
 9587SOL     OW29659   0.517   6.535   3.346  0.7938  0.0491  0.1506
 9587SOL    HW129660   0.585   6.462   3.351  0.0454 -0.9032 -2.2397
 9587SOL    HW229661   0.563   6.624   3.350  2.1598 -0.5735 -0.9510
 9588SOL     OW29662   6.323   1.466   1.948  0.1935  0.2581 -0.1606
 9588SOL    HW129663   6.409   1.490   1.904  0.5292 -0.5584  0.0505
 9588SOL    HW229664   6.276   1.550   1.976  1.2516  0.6958  0.3723
 9589SOL     OW29665   3.166   5.236   5.629  0.0247  0.5884  0.3961
 9589SOL    HW129666   3.216   5.150   5.640 -1.0660  0.1379  2.1829
 9589SOL    HW229667   3.117   5.236   5.542 -0.1894 -0.7358  0.5060
 9590SOL     OW29668   4.657   1.734   0.874  0.5871 -0.4152  0.1921
 9590SOL    HW129669   4.678   1.801   0.803  0.7388  0.3901  0.9742
 9590SOL    HW229670   4.558   1.718   0.877  0.5784 -0.4424 -0.1762
 9591SOL     OW29671   2.546   7.012   5.223  0.1656  0.1435  0.4851
 9591SOL    HW129672   2.470   6.948   5.214  0.9476 -0.6031 -1.5604
 9591SOL    HW229673   2.617   6.972   5.281  2.3459 -2.8405 -3.6607
 9592SOL     OW29674   5.570   3.956   1.851  0.6201  0.0419 -0.2841
 9592SOL    HW129675   5.625   4.013   1.912 -0.0129  0.6092 -0.2282
 9592SOL    HW229676   5.536   3.876   1.901 -0.3546  0.7854  0.2834
 9593SOL     OW29677   0.195   1.750   4.757 -0.6953 -0.4791 -0.0585
 9593SOL    HW129678   0.257   1.822   4.788  4.1466 -4.3342  0.4435
 9593SOL    HW229679   0.173   1.765   4.660  2.6779  0.2852 -0.8477
 9594SOL     OW29680   0.701   4.639   3.959 -0.8482 -0.0200 -0.2343
 9594SOL    HW129681   0.641   4.558   3.965  0.5405 -1.0201  0.8715
 9594SOL    HW229682   0.678   4.690   3.876 -2.6599 -0.8038 -0.2872
 9595SOL     OW29683   0.711   3.526   4.989  0.8380 -0.1101 -0.3148
 9595SOL    HW129684   0.689   3.623   4.979 -0.5855 -0.4643 -0.7951
 9595SOL    HW229685   0.782   3.515   5.058 -0.7956  1.0762  1.6632
 9596SOL     OW29686   5.925   3.600   6.531 -0.3114  0.1521  0.5277
 9596SOL    HW129687   5.881   3.636   6.449  0.7303 -1.8913 -1.0263
 9596SOL    HW229688   5.886   3.510   6.553  0.7998 -0.2143  1.0773
 9597SOL     OW29689   6.524   4.163   1.426 -0.1287  0.8410  0.7155
 9597SOL    HW129690   6.512   4.066   1.406  0.6988  0.5348  1.6492
 9597SOL    HW229691   6.571   4.174   1.513  0.1725  2.0782  0.4220
 9598SOL     OW29692   1.171   4.347   3.545  0.1237 -0.5515 -0.5237
 9598SOL    HW129693   1.154   4.274   3.479  0.5015 -0.5428 -0.6361
 9598SOL    HW229694   1.263   4.337   3.582  1.0042  1.0770 -2.1129
 9599SOL     OW29695   2.685   0.728   5.979 -0.5017 -0.3648  0.5566
 9599SOL    HW129696   2.741   0.700   5.901 -0.8360  0.1071  0.1424
 9599SOL    HW229697   2.629   0.650   6.009 -0.6266 -0.4501  0.1071
 9600SOL     OW29698   2.236   1.660   6.617  0.4456  0.8286  0.4118
 9600SOL    HW129699   2.236   1.581   6.678  0.2906  0.9255  0.5401
 9600SOL    HW229700   2.274   1.634   6.528  1.2291  0.8259  0.7315
 9601SOL     OW29701   5.195   4.965   1.605 -0.4397 -0.2824  0.4077
 9601SOL    HW129702   5.286   5.001   1.584  0.3833 -1.8285  1.1637
 9601SOL    HW229703   5.127   5.008   1.545  0.9388 -0.0002 -1.0029
 9602SOL     OW29704   0.495   4.067   6.856  0.0196  0.2022  0.2365
 9602SOL    HW129705   0.515   4.149   6.910  1.8714  0.8504 -1.2942
 9602SOL    HW229706   0.562   3.996   6.877 -1.2240 -0.7512  1.1175
 9603SOL     OW29707   3.962   6.900   3.084 -0.8361 -0.0272 -0.2208
 9603SOL    HW129708   4.005   6.923   3.170  1.0455 -1.2367 -0.7844
 9603SOL    HW229709   3.973   6.975   3.019 -2.0474  0.7833  0.4652
 9604SOL     OW29710   6.644   1.353   5.652 -0.4691 -0.6478 -0.3881
 9604SOL    HW129711   6.582   1.359   5.731 -0.9613  0.6718 -0.8454
 9604SOL    HW229712   6.619   1.274   5.596 -2.3684  0.3357 -1.0429
 9605SOL     OW29713   1.245   5.010   4.446  0.1379 -0.0114  0.1379
 9605SOL    HW129714   1.269   5.094   4.495  0.7029 -0.5916  0.8889
 9605SOL    HW229715   1.304   4.999   4.366  0.8703 -0.2861  0.7056
 9606SOL     OW29716   2.583   5.254   5.324  0.6859  0.1422 -0.3263
 9606SOL    HW129717   2.528   5.217   5.249 -0.1940 -1.9582  1.2232
 9606SOL    HW229718   2.648   5.184   5.354  2.5121  1.7138 -0.4860
 9607SOL     OW29719   4.824   0.485   6.254  0.3011 -0.0959 -0.1080
 9607SOL    HW129720   4.843   0.393   6.219  0.2761 -0.0194 -0.3238
 9607SOL    HW229721   4.828   0.550   6.179  0.2392  0.0692  0.0323
 9608SOL     OW29722   1.376   0.183   1.109 -0.1560  0.0987  0.0485
 9608SOL    HW129723   1.366   0.259   1.045 -1.7299  1.2951  1.6283
 9608SOL    HW229724   1.435   0.210   1.185  1.6097 -1.2760 -0.7428
 9609SOL     OW29725   1.649   2.644   0.168 -0.7466  0.0284 -0.0276
 9609SOL    HW129726   1.734   2.654   0.219 -1.7187  0.1915  1.6353
 9609SOL    HW229727   1.623   2.547   0.164 -0.0711 -0.1130 -1.2639
 9610SOL     OW29728   1.221   5.529   4.168  0.5800 -0.7853  0.1106
 9610SOL    HW129729   1.299   5.551   4.109 -0.1806  1.6310 -0.1096
 9610SOL    HW229730   1.148   5.488   4.114  0.4456  0.0678 -0.3745
 9611SOL     OW29731   0.062   2.288   1.493 -0.7320 -0.3028  0.3843
 9611SOL    HW129732   0.153   2.305   1.454 -0.1767 -2.4466  0.6342
 9611SOL    HW229733   0.000   2.257   1.421 -1.1232  0.5614  0.3319
 9612SOL     OW29734   0.113   4.871   0.916  0.0521  0.1012  0.4127
 9612SOL    HW129735   0.095   4.776   0.944  0.0685 -0.2094 -0.5772
 9612SOL    HW229736   0.211   4.888   0.920 -0.0723  0.6415  2.2579
 9613SOL     OW29737   5.463   6.526   3.520 -0.1265 -0.4849 -0.2135
 9613SOL    HW129738   5.561   6.527   3.497 -0.5749  0.0223 -2.3128
 9613SOL    HW229739   5.419   6.607   3.481 -1.8585 -2.0415 -1.6571
 9614SOL     OW29740   3.653   1.775   0.946 -0.6315 -0.3865 -0.1292
 9614SOL    HW129741   3.628   1.816   0.858  1.9284 -0.1252 -0.8310
 9614SOL    HW229742   3.726   1.708   0.932 -0.7234 -0.9206  1.7053
 9615SOL     OW29743   0.659   1.423   0.836 -0.3951  0.3154  0.1312
 9615SOL    HW129744   0.648   1.519   0.863  0.3251  0.0152  1.5465
 9615SOL    HW229745   0.569   1.381   0.825 -0.7114  1.0134  0.0107
 9616SOL     OW29746   3.744   4.608   1.627 -0.8825 -0.2504  0.0335
 9616SOL    HW129747   3.670   4.600   1.694  1.5864 -0.0582  2.9702
 9616SOL    HW229748   3.738   4.532   1.563 -3.4520 -0.3571  0.2698
 9617SOL     OW29749   6.969   1.978   5.050 -0.0055 -0.8353  0.2741
 9617SOL    HW129750   7.022   1.894   5.062  1.2318  0.2406  3.5129
 9617SOL    HW229751   6.888   1.974   5.109  0.0693  0.2123  0.4679
 9618SOL     OW29752   3.549   6.627   6.254  0.4525 -0.2034 -0.3459
 9618SOL    HW129753   3.474   6.623   6.188  0.7605  1.4420 -0.8297
 9618SOL    HW229754   3.629   6.670   6.211  1.2126 -0.6315  0.6040
 9619SOL     OW29755   1.625   5.291   6.687  0.1333 -0.1961  0.2420
 9619SOL    HW129756   1.561   5.319   6.616  1.1720  0.6728 -0.3778
 9619SOL    HW229757   1.621   5.357   6.763  0.3771 -0.0674  0.1444
 9620SOL     OW29758   3.462   1.584   2.055 -0.2532  0.4787 -0.2620
 9620SOL    HW129759   3.495   1.538   1.972  1.8946  1.2873  0.0651
 9620SOL    HW229760   3.387   1.645   2.031 -2.3043 -2.1469 -0.8999
 9621SOL     OW29761   6.459   2.683   3.421  0.2831  0.2411  0.0842
 9621SOL    HW129762   6.418   2.750   3.483 -0.2884  0.2091 -0.2437
 9621SOL    HW229763   6.420   2.592   3.439  1.5378 -0.1497  0.9735
 9622SOL     OW29764   6.573   1.610   1.435 -0.2672 -0.4738 -0.4400
 9622SOL    HW129765   6.506   1.610   1.509  2.1441 -2.3538  1.9830
 9622SOL    HW229766   6.592   1.516   1.407  1.1924 -0.0070 -1.1581
 9623SOL     OW29767   3.439   4.587   1.188  0.3220  0.1585  0.2380
 9623SOL    HW129768   3.439   4.686   1.197  1.4470  0.1534  0.4525
 9623SOL    HW229769   3.490   4.546   1.263  2.6421 -0.3771 -1.5078
 9624SOL     OW29770   6.673   3.186   0.619  0.2748  0.0982  0.2846
 9624SOL    HW129771   6.613   3.249   0.669  0.8079 -0.2538  1.3935
 9624SOL    HW229772   6.765   3.225   0.614  0.7735 -0.8584  1.5541
 9625SOL     OW29773   6.689   0.982   0.435  0.0272 -0.1584  0.6225
 9625SOL    HW129774   6.701   0.884   0.421 -1.9349 -0.6238  1.8307
 9625SOL    HW229775   6.720   1.007   0.527  0.2773  0.3085  0.4161
 9626SOL     OW29776   1.990   4.827   6.526  0.1335 -0.1735 -0.1747
 9626SOL    HW129777   1.893   4.802   6.524  0.1421 -0.2743  0.4333
 9626SOL    HW229778   2.017   4.846   6.621  0.4190  1.0007 -0.4817
 9627SOL     OW29779   0.118   5.849   2.649  0.7234 -0.0482  0.4072
 9627SOL    HW129780   0.175   5.917   2.693 -1.5234  2.0168  0.3493
 9627SOL    HW229781   0.034   5.892   2.616 -1.0059 -2.9115  0.6843
 9628SOL     OW29782   4.987   4.929   6.070 -0.4288  0.3769 -0.3753
 9628SOL    HW129783   4.999   4.909   6.167 -0.5659  0.5295 -0.3273
 9628SOL    HW229784   4.989   4.843   6.018  0.7678  0.3782 -0.3613
 9629SOL     OW29785   0.789   0.719   4.186  0.6194  0.6460 -0.5112
 9629SOL    HW129786   0.766   0.802   4.135 -0.3839  0.0959 -0.9612
 9629SOL    HW229787   0.706   0.675   4.219  1.1445 -0.1426 -0.1938
 9630SOL     OW29788   1.050   6.473   5.626 -0.8588  0.5489  0.0727
 9630SOL    HW129789   1.035   6.541   5.698  0.2025  1.6116 -0.6516
 9630SOL    HW229790   0.992   6.494   5.547 -1.5286 -0.2102  0.3592
 9631SOL     OW29791   0.055   0.379   0.311  0.0912  1.0586  0.5462
 9631SOL    HW129792   0.120   0.304   0.302 -0.1876  0.7906  0.7193
 9631SOL    HW229793   0.092   0.449   0.372  0.0011  0.6659  1.0567
 9632SOL     OW29794   1.185   4.917   3.587 -0.3580  0.9297  0.6812
 9632SOL    HW129795   1.085   4.927   3.590 -0.5961 -1.0068  0.6722
 9632SOL    HW229796   1.227   4.980   3.652 -1.6655  0.8388  1.6560
 9633SOL     OW29797   3.849   5.571   5.800 -0.2075 -0.0618 -0.1218
 9633SOL    HW129798   3.936   5.535   5.766 -0.5865 -0.2225 -0.9462
 9633SOL    HW229799   3.861   5.665   5.831 -0.1720  0.6944 -2.2482
 9634SOL     OW29800   1.565   6.873   5.874 -0.6130 -0.1287  0.1787
 9634SOL    HW129801   1.515   6.800   5.919  0.3101 -0.8348  0.1026
 9634SOL    HW229802   1.501   6.941   5.838 -1.5847 -1.5166 -0.8354
 9635SOL     OW29803   0.831   4.460   4.817 -0.2056 -0.3894  0.3993
 9635SOL    HW129804   0.864   4.553   4.836  0.6032 -0.6394  0.2462
 9635SOL    HW229805   0.896   4.413   4.758 -1.4403 -0.4930 -0.9505
 9636SOL     OW29806   4.865   1.454   6.117 -0.7748 -0.7701  0.3639
 9636SOL    HW129807   4.823   1.526   6.061 -1.6029  0.0754  2.0113
 9636SOL    HW229808   4.944   1.416   6.069 -2.1513 -0.9471 -1.9309
 9637SOL     OW29809   0.593   2.670   3.914  0.1736  0.4453 -0.0265
 9637SOL    HW129810   0.617   2.761   3.948  0.1675  1.0679 -1.6261
 9637SOL    HW229811   0.653   2.602   3.957  2.5354  1.5699 -1.3232
 9638SOL     OW29812   5.072   4.940   6.343 -0.2528 -0.2705 -0.1694
 9638SOL    HW129813   5.008   4.895   6.405 -1.1582 -0.0238 -0.8968
 9638SOL    HW229814   5.083   5.036   6.371 -1.7238  0.2239 -1.1341
 9639SOL     OW29815   4.428   2.443   4.168  0.1415 -0.4593 -0.1559
 9639SOL    HW129816   4.439   2.458   4.267  3.2969 -1.6561 -0.2016
 9639SOL    HW229817   4.485   2.508   4.118 -4.2058  2.7109 -1.5862
 9640SOL     OW29818   1.813   1.839   2.774 -0.5632  0.1607  0.4970
 9640SOL    HW129819   1.845   1.934   2.776  1.1054 -0.3348 -0.2545
 9640SOL    HW229820   1.821   1.800   2.866  0.1995  0.3318  0.5178
 9641SOL     OW29821   6.861   6.414   2.384  0.0969 -0.1409 -0.6870
 9641SOL    HW129822   6.806   6.332   2.367  1.6871 -1.5027  0.4326
 9641SOL    HW229823   6.957   6.394   2.363  0.7669  0.9033  1.2037
 9642SOL     OW29824   1.820   6.385   5.768  0.5541 -0.0052 -0.4186
 9642SOL    HW129825   1.749   6.454   5.782 -0.8990 -1.7255  1.2079
 9642SOL    HW229826   1.848   6.386   5.672 -0.9293  1.4060 -0.8970
 9643SOL     OW29827   0.103   5.204   4.298  0.8322  0.2975  0.0109
 9643SOL    HW129828   0.087   5.266   4.221 -0.8090  0.1618  0.2142
 9643SOL    HW229829   0.200   5.208   4.324  0.7457  3.0406  0.2465
 9644SOL     OW29830   0.654   4.840   5.224  0.0275  0.0912  0.0857
 9644SOL    HW129831   0.649   4.741   5.229  0.2535  0.0565 -0.3672
 9644SOL    HW229832   0.570   4.879   5.262  0.1404 -0.2541  0.7094
 9645SOL     OW29833   1.829   5.437   4.397 -0.3725  0.3577 -0.4213
 9645SOL    HW129834   1.735   5.469   4.385 -0.9473 -0.4454  1.5093
 9645SOL    HW229835   1.884   5.510   4.437  0.2131  1.2800 -2.7902
 9646SOL     OW29836   2.617   5.224   2.200 -0.0792 -0.2190  0.0995
 9646SOL    HW129837   2.648   5.223   2.105 -0.5002 -2.1584 -0.0699
 9646SOL    HW229838   2.518   5.217   2.203 -0.0206 -1.0711  0.6609
 9647SOL     OW29839   5.776   6.222   0.507 -0.1519 -0.4581 -0.2683
 9647SOL    HW129840   5.846   6.240   0.576  2.6563 -0.3772 -2.9175
 9647SOL    HW229841   5.772   6.124   0.488 -1.1708 -0.5232  0.1771
 9648SOL     OW29842   3.168   1.464   6.254 -0.3833 -0.1384  0.1777
 9648SOL    HW129843   3.102   1.522   6.205  0.6198  0.9750  0.1120
 9648SOL    HW229844   3.192   1.507   6.340  2.0916  0.7305 -0.8704
 9649SOL     OW29845   3.535   5.449   5.148 -0.2436 -0.0444  0.4401
 9649SOL    HW129846   3.462   5.422   5.210 -0.4676 -1.2532 -0.3092
 9649SOL    HW229847   3.603   5.376   5.143  0.6850  0.7964  0.6299
 9650SOL     OW29848   0.025   4.891   3.170 -0.2291 -0.1619  0.4762
 9650SOL    HW129849   0.046   4.795   3.152 -2.2483 -0.7722  1.1118
 9650SOL    HW229850   0.096   4.930   3.229  0.7083 -1.1930  0.0714
 9651SOL     OW29851   6.371   6.750   6.488  0.1632 -0.0083  0.4685
 9651SOL    HW129852   6.383   6.764   6.390  0.0366 -1.8331  0.1577
 9651SOL    HW229853   6.366   6.839   6.534  1.9436  0.8985 -0.9455
 9652SOL     OW29854   3.606   4.121   2.666 -0.2625  0.2032  0.1972
 9652SOL    HW129855   3.670   4.184   2.711 -0.6311  1.0954 -0.5052
 9652SOL    HW229856   3.636   4.027   2.682  0.2679  0.5418  1.3183
 9653SOL     OW29857   4.008   5.454   3.572 -0.1350 -0.5569  0.2785
 9653SOL    HW129858   3.933   5.421   3.629 -0.2037 -0.4308  0.2594
 9653SOL    HW229859   4.015   5.398   3.490  0.4890 -1.2776  0.8009
 9654SOL     OW29860   3.528   2.573   0.715 -0.2921  0.2222 -0.6870
 9654SOL    HW129861   3.491   2.512   0.786  0.6168  1.3022  0.7757
 9654SOL    HW229862   3.621   2.547   0.693 -0.8139 -0.5676 -2.0786
 9655SOL     OW29863   6.890   1.973   6.487 -0.2409 -0.2946 -0.7810
 9655SOL    HW129864   6.850   2.031   6.416  1.6453  1.3884 -0.5338
 9655SOL    HW229865   6.863   2.007   6.577 -0.7137 -1.0290 -0.6286
 9656SOL     OW29866   4.889   1.034   0.235 -0.2719  0.2564 -0.1737
 9656SOL    HW129867   4.876   0.935   0.245 -1.2258  0.4908  1.3529
 9656SOL    HW229868   4.801   1.080   0.247  0.2329  1.3227 -0.4531
 9657SOL     OW29869   5.855   1.084   3.325 -0.8262 -0.1030  0.0586
 9657SOL    HW129870   5.950   1.084   3.356 -1.2502  0.0948  1.4450
 9657SOL    HW229871   5.851   1.070   3.226  0.6912  1.0863 -0.1892
 9658SOL     OW29872   0.128   0.813   3.987  0.2281  0.1491  0.2312
 9658SOL    HW129873   0.191   0.889   3.967  0.4338 -0.3183 -0.9641
 9658SOL    HW229874   0.140   0.785   4.082  1.2298  0.6256  0.2616
 9659SOL     OW29875   6.366   4.939   0.633  0.1854  0.4723  0.1734
 9659SOL    HW129876   6.356   4.840   0.645  1.5589  0.4764  1.5442
 9659SOL    HW229877   6.426   4.957   0.555  0.6023  0.2110  0.4330
 9660SOL     OW29878   0.451   6.582   0.661 -0.4914 -0.1106  0.3296
 9660SOL    HW129879   0.540   6.571   0.706  0.8699 -0.0721 -2.1588
 9660SOL    HW229880   0.421   6.494   0.625  0.6239  0.5284 -2.3742
 9661SOL     OW29881   1.765   5.591   0.463 -0.2752  0.6606  0.2451
 9661SOL    HW129882   1.771   5.687   0.437  0.6027  0.4337 -0.4233
 9661SOL    HW229883   1.853   5.546   0.449  0.0489  0.3302  2.9545
 9662SOL     OW29884   5.236   2.987   5.608 -0.3944  0.4519 -0.0011
 9662SOL    HW129885   5.267   2.997   5.513 -1.6310 -0.3535 -0.5117
 9662SOL    HW229886   5.223   2.890   5.629 -1.0191  0.6813  0.7026
 9663SOL     OW29887   0.483   6.101   4.145 -0.2643 -0.3631  0.9626
 9663SOL    HW129888   0.569   6.078   4.191 -0.9317 -3.4198  0.8827
 9663SOL    HW229889   0.503   6.157   4.065  1.6274 -0.6690  1.1603
 9664SOL     OW29890   6.191   6.459   6.996  0.1064  0.1145  0.5381
 9664SOL    HW129891   6.211   6.386   6.931 -1.8775 -0.4197  0.4558
 9664SOL    HW229892   6.253   6.536   6.980 -0.0094 -0.1908 -1.6855
 9665SOL     OW29893   4.191   6.623   0.347 -0.0112  0.3970 -0.1356
 9665SOL    HW129894   4.184   6.631   0.247  0.2617  2.7484 -0.0199
 9665SOL    HW229895   4.198   6.526   0.372  0.0925 -0.2430 -2.3914
 9666SOL     OW29896   4.523   2.201   6.585 -0.0144 -0.3928 -0.1508
 9666SOL    HW129897   4.538   2.121   6.642  0.0480 -0.9944 -0.9907
 9666SOL    HW229898   4.549   2.180   6.491  0.4000  0.7435 -0.3078
 9667SOL     OW29899   3.705   4.187   5.067 -0.1769  0.3091  0.1122
 9667SOL    HW129900   3.657   4.257   5.120 -0.2263  2.4347 -2.5154
 9667SOL    HW229901   3.799   4.179   5.101 -0.5461  0.7260  1.2807
 9668SOL     OW29902   4.665   1.185   0.288 -0.1976  0.2464  0.4689
 9668SOL    HW129903   4.638   1.260   0.226  0.8988  1.1696  1.0717
 9668SOL    HW229904   4.634   1.206   0.380  0.6414  0.2574  0.7559
 9669SOL     OW29905   1.550   0.842   2.334 -0.2415  0.3525 -0.2774
 9669SOL    HW129906   1.619   0.775   2.358 -1.0572 -1.5721 -2.8620
 9669SOL    HW229907   1.531   0.837   2.236 -3.0298  1.7814  0.0848
 9670SOL     OW29908   0.895   4.067   4.995  0.3532  0.8806 -0.1367
 9670SOL    HW129909   0.862   4.008   4.921  1.3207 -1.6909  1.3604
 9670SOL    HW229910   0.978   4.028   5.034  0.5260  2.7991  1.5597
 9671SOL     OW29911   0.755   6.729   5.781 -0.3333  1.0405  0.4506
 9671SOL    HW129912   0.744   6.824   5.751  1.6188  0.7227 -1.5453
 9671SOL    HW229913   0.852   6.706   5.788 -0.6581 -1.4222 -1.4890
 9672SOL     OW29914   1.873   4.134   4.236  0.0363 -0.3761 -0.6341
 9672SOL    HW129915   1.791   4.190   4.219 -0.4681 -1.3096 -1.4206
 9672SOL    HW229916   1.872   4.103   4.331 -1.1586 -1.3281 -0.9281
 9673SOL     OW29917   4.692   5.268   1.096  0.3855 -0.0635  0.1818
 9673SOL    HW129918   4.663   5.350   1.047 -0.2536 -1.3796 -1.7514
 9673SOL    HW229919   4.643   5.262   1.183 -1.7009  0.1765 -0.9155
 9674SOL     OW29920   1.429   4.806   2.373  0.0532 -0.1862  0.9584
 9674SOL    HW129921   1.398   4.882   2.430 -0.3572  2.0888 -2.0362
 9674SOL    HW229922   1.510   4.834   2.321 -0.0167 -1.8293 -0.1276
 9675SOL     OW29923   6.665   4.490   6.533  0.1280  0.7086  0.1756
 9675SOL    HW129924   6.753   4.465   6.572 -0.2481 -3.7809 -1.2969
 9675SOL    HW229925   6.679   4.540   6.447  1.1951  0.9767  0.5003
 9676SOL     OW29926   0.460   3.228   5.054 -0.4207 -0.3904 -0.5932
 9676SOL    HW129927   0.508   3.244   4.968  0.4974 -1.0584 -0.2183
 9676SOL    HW229928   0.428   3.315   5.092 -0.1288 -0.0164 -1.2033
 9677SOL     OW29929   2.042   5.093   6.429 -0.3401  0.4571 -0.2344
 9677SOL    HW129930   1.976   5.111   6.356  0.1025  0.7108 -0.5801
 9677SOL    HW229931   2.038   4.997   6.455 -0.3791  0.3263 -0.7144
 9678SOL     OW29932   3.296   3.839   3.641 -0.7432 -0.0173 -0.2513
 9678SOL    HW129933   3.369   3.805   3.699 -0.2516  0.0185 -0.8468
 9678SOL    HW229934   3.208   3.804   3.674 -0.6387  1.0699  1.3428
 9679SOL     OW29935   0.051   3.237   1.944 -0.4760  0.0938 -0.3578
 9679SOL    HW129936  -0.015   3.216   1.871  1.0248 -1.2445 -1.3889
 9679SOL    HW229937   0.004   3.288   2.016 -2.1215  1.1047 -2.0276
 9680SOL     OW29938   6.659   1.229   2.031 -0.4113  0.3824 -0.1903
 9680SOL    HW129939   6.641   1.151   2.091  1.7676  0.3877  0.5821
 9680SOL    HW229940   6.675   1.311   2.086  0.5073  0.6415 -0.8088
 9681SOL     OW29941   2.702   0.550   1.177  0.2283  0.2336 -0.3531
 9681SOL    HW129942   2.689   0.453   1.201 -1.4629  0.7525  1.0755
 9681SOL    HW229943   2.726   0.602   1.259 -1.2379  1.3692 -0.5975
 9682SOL     OW29944   5.985   3.559   4.924  0.3648 -0.3031 -0.8197
 9682SOL    HW129945   5.960   3.639   4.979  1.0048  0.3460 -1.4422
 9682SOL    HW229946   5.978   3.476   4.979 -0.0565  0.2093 -0.0852
 9683SOL     OW29947   1.515   3.806   2.095 -0.4792 -0.0314  0.8551
 9683SOL    HW129948   1.584   3.813   2.168  0.4260 -1.6825  0.2057
 9683SOL    HW229949   1.562   3.806   2.006 -1.1011 -3.0064  0.4419
 9684SOL     OW29950   0.940   3.637   4.447  0.3899 -0.2526 -0.2584
 9684SOL    HW129951   0.888   3.607   4.527 -0.5756 -1.7501 -1.4096
 9684SOL    HW229952   0.983   3.725   4.467  1.7863 -1.4637  2.6036
 9685SOL     OW29953   1.945   3.323   6.895  0.0286 -0.1618 -0.0107
 9685SOL    HW129954   2.010   3.396   6.918 -0.8340 -0.1071  2.5364
 9685SOL    HW229955   1.995   3.245   6.856  1.4198  0.4696  0.4343
 9686SOL     OW29956   6.638   1.625   5.984 -0.6862 -0.1105 -0.0502
 9686SOL    HW129957   6.712   1.685   6.014 -0.9602  0.0317  0.3487
 9686SOL    HW229958   6.624   1.553   6.052 -2.1171  0.9157  0.7955
 9687SOL     OW29959   2.266   0.286   4.559 -0.0032 -0.6743  0.2689
 9687SOL    HW129960   2.319   0.369   4.579  1.2087 -1.2109 -0.5891
 9687SOL    HW229961   2.170   0.302   4.580  0.3081  0.7396  0.7168
 9688SOL     OW29962   1.200   2.349   3.911 -0.9971  0.6266  0.5960
 9688SOL    HW129963   1.279   2.292   3.936 -1.2444  1.0512  2.5456
 9688SOL    HW229964   1.116   2.303   3.940 -1.5681 -0.1106 -2.0248
 9689SOL     OW29965   1.910   6.505   0.043 -0.6302  0.5416 -0.6666
 9689SOL    HW129966   1.992   6.465   0.084 -1.6608 -1.9390 -0.8274
 9689SOL    HW229967   1.846   6.531   0.116 -0.8749 -0.2232 -0.6058
 9690SOL     OW29968   5.659   5.667   5.696  0.0004 -0.1675  0.4245
 9690SOL    HW129969   5.692   5.761   5.694  1.1675 -0.5736  0.0376
 9690SOL    HW229970   5.581   5.657   5.633  0.4561  0.3261 -0.2290
 9691SOL     OW29971   4.159   5.624   0.705  0.5309  0.0129  0.1806
 9691SOL    HW129972   4.208   5.710   0.688 -0.1468  0.4043  0.1449
 9691SOL    HW229973   4.089   5.611   0.635 -0.7224  0.4610  1.3048
 9692SOL     OW29974   4.023   5.835   2.362  0.0082  0.4877 -0.1479
 9692SOL    HW129975   4.083   5.911   2.334  1.7531 -0.7755 -0.0228
 9692SOL    HW229976   4.017   5.833   2.461 -1.5166  1.5222 -0.1980
 9693SOL     OW29977   5.636   2.951   3.507 -0.0634 -0.2860 -0.2495
 9693SOL    HW129978   5.566   2.906   3.452  0.7154  0.9545 -2.3681
 9693SOL    HW229979   5.596   3.026   3.558 -0.6312 -0.8959  0.2211
 9694SOL     OW29980   2.122   0.944   1.521  0.3994 -0.0225 -0.1917
 9694SOL    HW129981   2.208   0.906   1.486  0.6849  1.1697 -0.8461
 9694SOL    HW229982   2.045   0.904   1.471  0.3862 -2.4036  1.5504
 9695SOL     OW29983   6.806   2.928   6.663  0.2616  0.3501  0.0343
 9695SOL    HW129984   6.759   2.887   6.741  0.2633  1.0783  0.4299
 9695SOL    HW229985   6.778   2.882   6.579  1.5924 -1.6301  0.6123
 9696SOL     OW29986   4.229   2.481   1.247  0.2496 -0.2956  0.3773
 9696SOL    HW129987   4.155   2.545   1.268  0.4337  0.6689 -1.6732
 9696SOL    HW229988   4.199   2.388   1.267 -1.3157  0.1263  0.1520
 9697SOL     OW29989   0.332   6.987   6.583  0.7128  0.6243  0.2303
 9697SOL    HW129990   0.240   6.999   6.545  0.8340  1.8127  0.2773
 9697SOL    HW229991   0.377   6.910   6.537 -0.3911 -0.1362  0.3935
 9698SOL     OW29992   5.190   1.703   0.002 -0.2724 -0.2322  0.2180
 9698SOL    HW129993   5.279   1.658  -0.007 -0.4818 -1.3070  2.6528
 9698SOL    HW229994   5.127   1.641   0.049 -1.3511  1.6585  1.3646
 9699SOL     OW29995   6.119   4.879   6.834 -0.2088  0.2425  0.6463
 9699SOL    HW129996   6.095   4.853   6.928 -0.2961 -0.3980  0.4549
 9699SOL    HW229997   6.150   4.798   6.784 -1.6454  0.2460 -0.3313
 9700SOL     OW29998   4.388   5.428   6.292 -0.0485 -0.3488 -0.3628
 9700SOL    HW129999   4.288   5.427   6.290 -0.0546 -0.2690 -2.9814
 9700SOL    HW230000   4.420   5.522   6.298 -0.1505 -0.2755 -0.9036
 9701SOL     OW30001   3.319   5.924   5.244  0.8045 -0.3068 -0.1446
 9701SOL    HW130002   3.373   5.853   5.198  2.2696 -0.2335  1.3710
 9701SOL    HW230003   3.252   5.881   5.305 -0.1723 -0.3831 -1.2369
 9702SOL     OW30004   6.039   1.143   1.456 -0.0786 -1.3295 -0.1811
 9702SOL    HW130005   5.945   1.178   1.452 -0.0324 -1.2874 -1.0461
 9702SOL    HW230006   6.063   1.102   1.368  1.2030 -0.0502 -0.4617
 9703SOL     OW30007   4.550   5.053   4.143  0.4802  0.0623 -0.6808
 9703SOL    HW130008   4.489   5.126   4.174  1.6071  0.3705  0.9397
 9703SOL    HW230009   4.610   5.026   4.218  1.6088 -0.9882 -1.9179
 9704SOL     OW30010   4.473   2.212   4.651 -0.1585  0.0940  0.1466
 9704SOL    HW130011   4.568   2.225   4.681 -0.3051  2.0052 -0.1112
 9704SOL    HW230012   4.460   2.116   4.625  0.9663 -0.8305  2.6372
 9705SOL     OW30013   4.780   4.473   0.392  0.3879  0.1607  0.4496
 9705SOL    HW130014   4.840   4.509   0.464 -1.6530  0.6362  1.9836
 9705SOL    HW230015   4.773   4.540   0.318  1.0080  0.4848  0.6766
 9706SOL     OW30016   0.434   1.859   0.868 -0.1067 -0.5932  0.1459
 9706SOL    HW130017   0.482   1.947   0.864 -1.4372  0.1210 -1.1880
 9706SOL    HW230018   0.336   1.875   0.882 -0.3451 -1.8780  0.1048
 9707SOL     OW30019   4.657   5.196   0.064  0.6783  0.1366  0.4454
 9707SOL    HW130020   4.679   5.104   0.096 -2.7089 -0.3966  1.5830
 9707SOL    HW230021   4.579   5.193   0.002 -2.0820  2.4324  3.4492
 9708SOL     OW30022   2.249   3.011   0.911  0.3569  0.0622  0.1047
 9708SOL    HW130023   2.180   3.060   0.964  0.2417  0.3175 -0.2801
 9708SOL    HW230024   2.205   2.957   0.839  0.3474 -1.8330  1.4601
 9709SOL     OW30025   1.213   0.297   3.591 -0.3351 -0.0775  0.2196
 9709SOL    HW130026   1.204   0.394   3.565 -0.4913  0.3053  1.5919
 9709SOL    HW230027   1.308   0.278   3.617 -0.3805 -0.1828  0.3108
 9710SOL     OW30028   0.151   2.670   2.746 -0.4728 -0.0544  0.0445
 9710SOL    HW130029   0.182   2.577   2.765  0.2398  0.3136  0.7821
 9710SOL    HW230030   0.211   2.735   2.793 -0.2014  0.8332 -1.4659
 9711SOL     OW30031   2.469   4.707   5.959 -0.4586 -0.0596  0.7419
 9711SOL    HW130032   2.415   4.638   6.007 -0.4388 -1.1067 -0.6822
 9711SOL    HW230033   2.503   4.669   5.873  1.5269  0.9696  0.9975
 9712SOL     OW30034   6.591   5.851   4.306  0.4262 -0.6950  0.1008
 9712SOL    HW130035   6.690   5.860   4.312  0.4214  0.2984 -0.9327
 9712SOL    HW230036   6.567   5.755   4.290  1.2512 -0.8644 -0.1495
 9713SOL     OW30037   3.085   4.893   3.328  0.1868 -0.2631  0.0501
 9713SOL    HW130038   3.089   4.987   3.362  0.3596 -0.4564  0.5704
 9713SOL    HW230039   3.057   4.894   3.231  0.5256  0.3372 -0.0463
 9714SOL     OW30040   1.247   1.016   0.832  0.2175  0.1688  1.0314
 9714SOL    HW130041   1.260   1.096   0.889  0.2077  0.0754  1.1641
 9714SOL    HW230042   1.330   1.000   0.777  0.5206 -0.1888  1.5816
 9715SOL     OW30043   6.286   3.352   5.994 -0.6187 -0.4903 -0.5638
 9715SOL    HW130044   6.277   3.323   5.899  2.1097 -0.9678 -0.7542
 9715SOL    HW230045   6.301   3.273   6.053 -0.8251 -0.0801  0.0545
 9716SOL     OW30046   2.571   3.204   6.419  0.3501 -0.3307  0.3078
 9716SOL    HW130047   2.600   3.184   6.513  0.7725 -0.8553  0.0773
 9716SOL    HW230048   2.632   3.155   6.355 -0.2778 -0.4315 -0.2221
 9717SOL     OW30049   4.564   6.488   6.898 -0.5444 -0.0071  0.2097
 9717SOL    HW130050   4.650   6.464   6.852  0.3950 -2.2487  2.8947
 9717SOL    HW230051   4.492   6.424   6.871 -0.4553 -0.2457  0.5355
 9718SOL     OW30052   4.589   2.545   2.975  0.0502  0.3586 -0.2130
 9718SOL    HW130053   4.579   2.503   2.885  0.2818 -1.1830  0.4380
 9718SOL    HW230054   4.684   2.569   2.990 -0.1617  1.6124 -0.7782
 9719SOL     OW30055   5.826   0.411   0.296 -0.0837  0.6380  0.0375
 9719SOL    HW130056   5.907   0.427   0.239  0.5376  0.3079  0.8048
 9719SOL    HW230057   5.778   0.329   0.264 -0.0899  0.8040 -0.3863
 9720SOL     OW30058   0.444   5.076   1.018 -0.0140  0.1329  0.7431
 9720SOL    HW130059   0.380   5.096   1.092  0.3490  0.2716  1.0204
 9720SOL    HW230060   0.415   4.993   0.971 -0.8600  0.6337  0.3498
 9721SOL     OW30061   6.103   2.808   3.256 -0.1545  0.5053  0.4661
 9721SOL    HW130062   6.038   2.752   3.307 -2.3794 -0.9741 -3.5001
 9721SOL    HW230063   6.185   2.754   3.235  1.4785  1.6058  3.4587
 9722SOL     OW30064   0.018   0.478   4.573  0.2062 -0.3049  1.1775
 9722SOL    HW130065  -0.054   0.437   4.629 -0.0242  0.4638  1.4569
 9722SOL    HW230066  -0.001   0.462   4.476 -1.8018  2.1626  1.0839
 9723SOL     OW30067   2.134   1.985   2.638  0.1469 -0.4384 -0.5646
 9723SOL    HW130068   2.102   1.904   2.687 -1.7298  0.9161  0.5993
 9723SOL    HW230069   2.232   1.997   2.655  0.1258 -1.5794  0.5419
 9724SOL     OW30070   3.022   4.240   0.534 -0.7604  0.4106 -0.5274
 9724SOL    HW130071   2.952   4.312   0.532 -0.5067  0.7532  1.3925
 9724SOL    HW230072   2.977   4.151   0.532 -1.3526  0.6157  1.4400
 9725SOL     OW30073   2.980   5.784   0.385 -0.4043 -0.0280 -0.0080
 9725SOL    HW130074   3.042   5.717   0.344 -0.4983  0.1464 -0.4364
 9725SOL    HW230075   2.886   5.760   0.362 -0.6474 -1.2406  1.9927
 9726SOL     OW30076   4.983   0.526   4.792 -0.2354  0.6904  0.1841
 9726SOL    HW130077   4.960   0.608   4.843 -0.3628  0.8214 -0.0810
 9726SOL    HW230078   5.071   0.540   4.746 -0.2679  0.6856  0.1215
 9727SOL     OW30079   6.954   5.304   0.046  1.2506  0.2536 -0.2583
 9727SOL    HW130080   6.861   5.329   0.016  0.3682  1.5898  3.0723
 9727SOL    HW230081   7.015   5.381   0.031  1.4032  0.0331 -0.7921
 9728SOL     OW30082   6.585   0.231   5.860  0.1047 -0.0954  0.0608
 9728SOL    HW130083   6.633   0.144   5.873  1.6267  0.6327 -0.4890
 9728SOL    HW230084   6.496   0.227   5.905 -0.1297 -2.1639 -0.5043
 9729SOL     OW30085   1.321   5.698   3.192  0.8206 -0.4918 -0.5456
 9729SOL    HW130086   1.269   5.631   3.140 -0.6749 -0.6984  1.1260
 9729SOL    HW230087   1.281   5.789   3.179  0.3786 -0.5575  0.2647
 9730SOL     OW30088   0.446   4.515   3.039  0.1115  0.3038  0.2618
 9730SOL    HW130089   0.497   4.524   2.954 -1.2133  1.9370 -0.4304
 9730SOL    HW230090   0.495   4.560   3.113  0.7829 -0.2271  0.1443
 9731SOL     OW30091   3.990   4.963   0.605  0.1949  0.6606  0.2599
 9731SOL    HW130092   3.920   5.024   0.640 -1.5124 -1.0414 -0.0356
 9731SOL    HW230093   4.043   5.011   0.534 -0.6161  1.9836  0.5116
 9732SOL     OW30094   6.628   5.631   3.225 -0.1705  0.2622 -0.2995
 9732SOL    HW130095   6.623   5.580   3.310 -0.2934 -1.4199 -1.2659
 9732SOL    HW230096   6.536   5.640   3.185 -0.0793  0.7743 -0.4062
 9733SOL     OW30097   6.290   2.979   1.916 -0.0838 -0.3413 -0.1403
 9733SOL    HW130098   6.245   3.008   1.831 -0.4723 -3.9311 -1.2967
 9733SOL    HW230099   6.221   2.959   1.985  0.0160 -0.9505 -0.2139
 9734SOL     OW30100   1.628   1.356   3.356  0.9996 -0.8576  0.4640
 9734SOL    HW130101   1.578   1.281   3.311  0.2843 -0.7330  1.0366
 9734SOL    HW230102   1.602   1.359   3.452 -0.1997  1.1132  0.1343
 9735SOL     OW30103   2.781   5.394   4.124  0.4411  0.1640  0.0634
 9735SOL    HW130104   2.757   5.451   4.202  0.6708  0.9627 -0.4395
 9735SOL    HW230105   2.698   5.369   4.073  0.4184  0.7973 -0.2197
 9736SOL     OW30106   5.915   3.007   4.599 -0.1799  0.2243 -0.0511
 9736SOL    HW130107   5.842   3.011   4.530  0.4399  2.7384 -0.6543
 9736SOL    HW230108   6.004   3.005   4.553  0.1970 -0.9408  0.6915
 9737SOL     OW30109   6.656   2.963   4.112  0.0985 -0.3513  0.7417
 9737SOL    HW130110   6.713   2.887   4.081 -0.7191 -1.1371  1.1363
 9737SOL    HW230111   6.617   2.941   4.201  0.7319  0.9964  1.3910
 9738SOL     OW30112   2.167   5.470   2.184  0.3136  0.3962 -0.0149
 9738SOL    HW130113   2.105   5.435   2.254  0.9595 -1.3557 -0.2769
 9738SOL    HW230114   2.136   5.560   2.154 -1.1632  0.2601  1.0171
 9739SOL     OW30115   5.827   6.136   4.452 -0.0925  0.0934  0.2384
 9739SOL    HW130116   5.910   6.165   4.499 -0.0174  0.5896 -0.1901
 9739SOL    HW230117   5.830   6.037   4.436  0.2014  0.0385  0.6347
 9740SOL     OW30118   1.193   3.802   0.137 -0.0787 -0.4049 -0.3242
 9740SOL    HW130119   1.292   3.787   0.140  0.3895  2.3015  1.7643
 9740SOL    HW230120   1.156   3.793   0.230 -1.3733  0.8660 -0.7019
 9741SOL     OW30121   4.690   2.769   4.820  0.5087  0.0692  0.0707
 9741SOL    HW130122   4.694   2.798   4.724  0.9321 -0.2691 -0.0156
 9741SOL    HW230123   4.780   2.782   4.862  0.3501  0.1242  0.3969
 9742SOL     OW30124   5.132   2.768   2.692 -0.3190  0.0466 -0.1482
 9742SOL    HW130125   5.048   2.759   2.639 -1.5160  1.7629  1.3148
 9742SOL    HW230126   5.163   2.864   2.690  0.5732 -0.1936  0.8148
 9743SOL     OW30127   0.152   1.816   1.970  0.4368  0.2576  0.8223
 9743SOL    HW130128   0.210   1.894   1.945  0.1105  0.1361 -0.4149
 9743SOL    HW230129   0.095   1.840   2.048 -2.5357  2.7977 -1.8181
 9744SOL     OW30130   0.858   1.104   4.811 -0.3446  0.0344  0.6307
 9744SOL    HW130131   0.893   1.016   4.780 -1.7128 -1.0442  1.9804
 9744SOL    HW230132   0.904   1.131   4.895 -0.4081  0.2865  0.5872
 9745SOL     OW30133   6.118   3.637   5.540  0.3105 -0.0672  0.0869
 9745SOL    HW130134   6.129   3.719   5.596 -0.4147  0.7684 -0.9613
 9745SOL    HW230135   6.021   3.623   5.521  0.5313 -0.4596 -0.7898
 9746SOL     OW30136   5.691   2.531   0.010  0.2096 -0.6570 -0.0100
 9746SOL    HW130137   5.776   2.482   0.031  0.5147  0.6296  2.0495
 9746SOL    HW230138   5.656   2.500  -0.078  2.8384 -1.1815 -0.9593
 9747SOL     OW30139   1.690   1.995   3.805  0.7357 -0.5459 -0.3017
 9747SOL    HW130140   1.658   1.959   3.893 -0.7476  1.5377  0.0840
 9747SOL    HW230141   1.633   1.959   3.732  0.9309 -0.9943 -0.2386
 9748SOL     OW30142   6.833   0.489   4.010 -0.3573  0.1692 -0.3724
 9748SOL    HW130143   6.886   0.419   4.058 -1.0386  0.7831  1.3770
 9748SOL    HW230144   6.893   0.539   3.948  0.4753 -0.9443 -0.4995
 9749SOL     OW30145   3.943   0.301   4.885 -0.2049  0.3448 -0.6125
 9749SOL    HW130146   3.936   0.328   4.981 -0.7350  1.4315 -0.9402
 9749SOL    HW230147   4.039   0.288   4.861  0.3886  4.2315 -0.9857
 9750SOL     OW30148   6.283   4.721   3.104  0.0725 -0.7304  0.1227
 9750SOL    HW130149   6.370   4.723   3.055 -0.5026  0.2467 -0.8992
 9750SOL    HW230150   6.287   4.784   3.182  0.1825 -0.4608 -0.0995
 9751SOL     OW30151   2.391   1.490   0.525 -0.0340 -0.3641 -0.4804
 9751SOL    HW130152   2.353   1.578   0.497  0.6044 -0.4380 -1.6341
 9751SOL    HW230153   2.395   1.486   0.625 -3.3904 -0.5142 -0.2236
 9752SOL     OW30154   4.841   1.164   6.026  1.1709  0.5105 -0.0468
 9752SOL    HW130155   4.921   1.214   5.991  2.0572 -1.1180 -0.4503
 9752SOL    HW230156   4.855   1.141   6.122  2.1478 -1.4912 -0.6111
 9753SOL     OW30157   0.115   4.272   4.072 -0.0776 -0.8358 -0.2793
 9753SOL    HW130158   0.128   4.204   3.999 -1.7906 -1.7482  0.2206
 9753SOL    HW230159   0.191   4.265   4.137 -0.1266 -2.1864 -0.3299
 9754SOL     OW30160   6.270   2.148   6.896 -0.1523 -0.4767  0.2099
 9754SOL    HW130161   6.181   2.145   6.850 -0.1567 -1.7075  0.2712
 9754SOL    HW230162   6.310   2.239   6.886 -1.2048 -0.0498 -0.2206
 9755SOL     OW30163   3.254   3.263   5.181  0.4171  0.1317  0.4395
 9755SOL    HW130164   3.256   3.275   5.082  2.2966  0.9668  0.5531
 9755SOL    HW230165   3.346   3.272   5.218 -0.1681 -0.7332  2.2149
 9756SOL     OW30166   2.969   4.645   1.538  0.1019  0.3700  0.7040
 9756SOL    HW130167   3.051   4.641   1.480 -0.5898  0.5501 -0.3059
 9756SOL    HW230168   2.966   4.564   1.596 -0.1156 -0.7569 -0.8077
 9757SOL     OW30169   5.472   3.050   3.126 -0.0031 -0.2020  0.5357
 9757SOL    HW130170   5.386   3.016   3.088 -0.1200  1.5131 -0.8695
 9757SOL    HW230171   5.539   3.061   3.053  0.4912  1.1017  1.1455
 9758SOL     OW30172   3.641   6.760   0.766  0.1366  0.0646 -0.5734
 9758SOL    HW130173   3.695   6.800   0.840  0.3887 -1.2647 -0.0041
 9758SOL    HW230174   3.656   6.661   0.764 -0.5189 -0.0300 -1.8793
 9759SOL     OW30175   1.926   5.431   6.349 -0.2675  0.3541  0.0541
 9759SOL    HW130176   1.924   5.339   6.311  0.4791  0.5134 -0.4049
 9759SOL    HW230177   1.858   5.488   6.303  0.8202  0.6257 -1.3235
 9760SOL     OW30178   3.421   3.554   5.168  0.8277  0.3169  0.1905
 9760SOL    HW130179   3.484   3.539   5.092 -0.2265  0.6145 -0.7787
 9760SOL    HW230180   3.444   3.493   5.244  4.3965  2.6914  1.2792
 9761SOL     OW30181   0.625   0.169   2.434  0.0775 -0.1244  0.1965
 9761SOL    HW130182   0.531   0.135   2.441  0.3415 -0.9498 -0.1405
 9761SOL    HW230183   0.652   0.212   2.520 -0.6563  0.2379  0.2478
 9762SOL     OW30184   2.540   1.010   3.636  0.0842 -0.3749 -0.6296
 9762SOL    HW130185   2.618   1.026   3.576  0.5525 -0.8078 -0.1515
 9762SOL    HW230186   2.565   1.033   3.731 -0.4954 -0.1372 -0.5303
 9763SOL     OW30187   5.263   2.492   1.473 -0.6549  0.0557 -1.2094
 9763SOL    HW130188   5.333   2.552   1.434 -1.1031  1.2247 -0.2644
 9763SOL    HW230189   5.306   2.424   1.533 -0.2116 -0.1312 -1.7341
 9764SOL     OW30190   5.559   3.509   6.953 -0.2460 -0.3416 -0.1045
 9764SOL    HW130191   5.615   3.573   7.005 -0.2255 -0.7762  0.4256
 9764SOL    HW230192   5.491   3.559   6.901  0.0938  0.1399 -0.0932
 9765SOL     OW30193   0.289   6.752   4.107  0.0184  0.2046  0.0387
 9765SOL    HW130194   0.216   6.685   4.121 -0.7628  0.9697 -0.3121
 9765SOL    HW230195   0.356   6.745   4.182 -0.2700 -0.6739  0.2234
 9766SOL     OW30196   2.405   1.840   4.475  0.2660  0.3243 -0.4231
 9766SOL    HW130197   2.325   1.846   4.415 -0.4797  2.9184  0.6762
 9766SOL    HW230198   2.389   1.771   4.545 -0.0246 -0.7805 -1.5467
 9767SOL     OW30199   4.757   3.555   5.439 -0.0209  0.3595 -0.0755
 9767SOL    HW130200   4.743   3.593   5.347 -0.1089 -1.8031 -1.0046
 9767SOL    HW230201   4.750   3.456   5.436 -0.4050  0.2450  2.3653
 9768SOL     OW30202   4.636   1.098   3.566 -0.1907  0.6525 -0.3092
 9768SOL    HW130203   4.575   1.039   3.617  0.4877 -0.5279 -0.8246
 9768SOL    HW230204   4.610   1.099   3.469  0.7656 -0.1312 -0.5982
 9769SOL     OW30205   3.377   0.778   3.643  0.2517  0.3064 -0.0929
 9769SOL    HW130206   3.467   0.744   3.616 -0.4329 -2.3170  0.6246
 9769SOL    HW230207   3.329   0.814   3.562  1.1034 -0.3189 -0.8976
 9770SOL     OW30208   4.087   0.094   1.257  0.4646 -0.6091  0.2117
 9770SOL    HW130209   4.077   0.008   1.306  1.6150 -1.1102 -0.3761
 9770SOL    HW230210   4.172   0.139   1.285  0.0465  0.1624  0.2600
 9771SOL     OW30211   4.992   5.351   0.341  0.6377 -0.3599 -0.0414
 9771SOL    HW130212   5.061   5.301   0.289  0.3417 -1.3101  0.4636
 9771SOL    HW230213   4.901   5.328   0.306  0.4932 -0.2225  0.2417
 9772SOL     OW30214   0.089   6.606   3.426  0.0445 -0.1389 -0.5131
 9772SOL    HW130215   0.004   6.578   3.383 -0.5442  0.0572  0.5031
 9772SOL    HW230216   0.162   6.542   3.402 -0.9033 -1.6386  0.4576
 9773SOL     OW30217   4.170   6.732   3.753  0.1392  0.3554  0.3509
 9773SOL    HW130218   4.115   6.699   3.677 -1.0329 -0.7669  1.6239
 9773SOL    HW230219   4.115   6.731   3.837  0.9689  2.7915  1.0170
 9774SOL     OW30220   6.551   4.310   0.913  0.3068  0.1116  0.5839
 9774SOL    HW130221   6.525   4.303   0.817  0.5858  1.3696  0.3925
 9774SOL    HW230222   6.472   4.338   0.968 -0.1738 -1.8209  0.9449
 9775SOL     OW30223   3.659   0.803   4.218  0.2207  0.3197  0.3238
 9775SOL    HW130224   3.603   0.838   4.143 -1.2953  0.7692  1.6138
 9775SOL    HW230225   3.753   0.836   4.207  0.1488  0.0265 -1.5689
 9776SOL     OW30226   1.851   5.759   5.708 -0.0849  0.5702  0.7389
 9776SOL    HW130227   1.900   5.697   5.648  1.2665  1.0281  1.3283
 9776SOL    HW230228   1.861   5.729   5.803 -2.5447 -0.3873  0.7638
 9777SOL     OW30229   5.709   4.552   4.218  0.3827  0.2431  0.1623
 9777SOL    HW130230   5.731   4.622   4.286 -1.1389  0.7786  0.1484
 9777SOL    HW230231   5.703   4.463   4.262  1.3227  0.2589  0.3594
 9778SOL     OW30232   2.475   0.815   4.317  0.1301 -0.4452  0.2748
 9778SOL    HW130233   2.534   0.747   4.274  2.0673  1.0212  0.4811
 9778SOL    HW230234   2.416   0.857   4.248 -0.4987 -1.7282  0.0107
 9779SOL     OW30235   2.504   5.891   3.680 -0.0244 -0.4849 -1.0517
 9779SOL    HW130236   2.499   5.969   3.618  0.4860  0.8757  0.5212
 9779SOL    HW230237   2.576   5.908   3.748 -0.8794 -1.6837  0.1952
 9780SOL     OW30238   3.400   2.937   0.201  0.0154  0.2039 -0.4365
 9780SOL    HW130239   3.359   2.866   0.259  0.0248  0.7755  0.2764
 9780SOL    HW230240   3.496   2.948   0.224  0.1174  0.1576 -0.8365
 9781SOL     OW30241   1.476   2.484   5.492  0.3648  0.2717 -0.2287
 9781SOL    HW130242   1.463   2.565   5.550  0.4102  0.4546 -0.4727
 9781SOL    HW230243   1.399   2.475   5.430  0.8984  0.7707 -0.9720
 9782SOL     OW30244   1.112   6.190   1.270  0.3892  0.3639  0.1216
 9782SOL    HW130245   1.115   6.204   1.171 -0.8319  3.1083  0.3952
 9782SOL    HW230246   1.150   6.270   1.316  2.4917 -1.5423  1.9377
 9783SOL     OW30247   4.333   6.327   4.508  0.0710  0.2163  0.7594
 9783SOL    HW130248   4.305   6.403   4.567 -0.8942 -0.2809  0.9416
 9783SOL    HW230249   4.264   6.311   4.438  0.9756  0.4770 -0.2273
 9784SOL     OW30250   3.885   0.651   3.428 -0.0445 -0.0642  0.2449
 9784SOL    HW130251   3.791   0.618   3.440 -0.2520  0.2940 -0.3647
 9784SOL    HW230252   3.884   0.750   3.411  0.4238 -0.0934  0.0269
 9785SOL     OW30253   4.610   4.752   3.867  0.0187  0.5198  0.5785
 9785SOL    HW130254   4.664   4.677   3.905  0.9668  1.0282  0.2717
 9785SOL    HW230255   4.671   4.825   3.836 -0.7960  0.7555 -0.5640
 9786SOL     OW30256   1.267   3.083   0.416  0.0333 -0.4340 -0.6103
 9786SOL    HW130257   1.351   3.078   0.363  1.0084  0.0487  0.8285
 9786SOL    HW230258   1.288   3.075   0.514 -1.4650  0.8794 -0.1345
 9787SOL     OW30259   4.377   1.152   0.115  0.1085  0.4402  0.1826
 9787SOL    HW130260   4.337   1.115   0.199  1.8657 -0.8375  0.5009
 9787SOL    HW230261   4.423   1.239   0.134 -0.7682  0.9151  0.2044
 9788SOL     OW30262   0.450   6.666   4.299 -0.2773  0.3940  0.4293
 9788SOL    HW130263   0.513   6.724   4.350 -0.2201  1.3235 -0.6641
 9788SOL    HW230264   0.502   6.602   4.242 -0.3039  0.9073 -0.1859
 9789SOL     OW30265   1.492   0.014   6.948 -0.0325 -0.4716 -0.5931
 9789SOL    HW130266   1.531  -0.015   7.035 -0.2276 -2.0844 -1.0155
 9789SOL    HW230267   1.557   0.074   6.901 -0.2272  1.0366  0.9549
 9790SOL     OW30268   6.657   3.604   4.028  0.1772 -0.6176  0.0237
 9790SOL    HW130269   6.563   3.592   4.061  0.4177 -0.1564  0.8884
 9790SOL    HW230270   6.664   3.567   3.935 -0.7123 -1.1753  0.1662
 9791SOL     OW30271   2.126   6.913   4.421  0.1564  0.3594  0.3884
 9791SOL    HW130272   2.110   6.995   4.366 -0.3524 -0.7531 -1.1809
 9791SOL    HW230273   2.212   6.922   4.471  0.0548  1.8717  0.3225
 9792SOL     OW30274   4.817   4.932   0.386 -0.6186  0.3715 -0.4212
 9792SOL    HW130275   4.843   4.927   0.289 -0.2188  0.9020 -0.3468
 9792SOL    HW230276   4.895   4.905   0.442 -1.5867 -2.4545 -0.2750
 9793SOL     OW30277   4.017   5.117   1.875 -0.0691 -0.1100 -0.9255
 9793SOL    HW130278   4.097   5.176   1.884 -0.8945  0.9377 -0.3067
 9793SOL    HW230279   4.027   5.059   1.794  1.3384 -0.0494 -0.8119
 9794SOL     OW30280   5.153   4.242   6.888 -1.1575 -0.0091 -0.0700
 9794SOL    HW130281   5.085   4.315   6.882 -0.9623  0.2068  0.3299
 9794SOL    HW230282   5.109   4.158   6.920 -1.0868  0.3460  0.9984
 9795SOL     OW30283   2.281   1.604   4.600 -0.2321 -0.0896  0.1051
 9795SOL    HW130284   2.258   1.547   4.678 -1.7876 -0.3012 -0.4703
 9795SOL    HW230285   2.379   1.595   4.579  0.3330  0.3601  2.2971
 9796SOL     OW30286   4.709   3.148   1.623 -0.5627 -0.0135 -0.5473
 9796SOL    HW130287   4.755   3.229   1.660  3.1475 -2.0290 -0.2650
 9796SOL    HW230288   4.648   3.109   1.692  0.9244  0.1709  0.9344
 9797SOL     OW30289   2.524   6.914   6.273 -0.2178 -0.0270  0.4680
 9797SOL    HW130290   2.532   6.819   6.243 -0.1040 -0.1251  0.8093
 9797SOL    HW230291   2.469   6.918   6.356  1.0073  0.0449  1.3019
 9798SOL     OW30292   1.243   1.656   2.045  0.2297  0.5881  0.1610
 9798SOL    HW130293   1.320   1.596   2.021 -1.3681 -1.1005 -1.0713
 9798SOL    HW230294   1.182   1.609   2.108 -0.8222  1.0678 -0.4606
 9799SOL     OW30295   2.968   3.690   3.782  0.1785 -0.0203  0.2666
 9799SOL    HW130296   2.936   3.685   3.687  2.1339  0.2224 -0.4371
 9799SOL    HW230297   2.999   3.783   3.802  0.5360 -0.2723  0.8981
 9800SOL     OW30298   2.630   6.547   3.364  0.2189  0.2922  0.1414
 9800SOL    HW130299   2.558   6.522   3.429  0.1663 -0.0633 -0.0477
 9800SOL    HW230300   2.691   6.615   3.405 -0.1223  0.4649  0.3672
 9801SOL     OW30301   4.457   2.698   6.688  0.4624 -0.6863  0.0654
 9801SOL    HW130302   4.533   2.760   6.706  1.0559 -1.2723 -0.3639
 9801SOL    HW230303   4.463   2.619   6.749  0.2971 -0.8186 -0.0878
 9802SOL     OW30304   0.841   3.809   1.265  0.0125  0.3241 -0.5489
 9802SOL    HW130305   0.843   3.893   1.318 -2.7221  0.7292 -0.9176
 9802SOL    HW230306   0.824   3.731   1.325  1.2140  0.1974 -0.3618
 9803SOL     OW30307   6.571   0.478   1.948  0.6608 -0.3975  0.1448
 9803SOL    HW130308   6.517   0.478   1.864  0.3769 -2.3868  0.2759
 9803SOL    HW230309   6.637   0.403   1.946  0.1711 -0.9406  1.9682
 9804SOL     OW30310   0.233   5.780   1.578  0.0955  0.3530 -0.4755
 9804SOL    HW130311   0.319   5.750   1.536 -0.4084  0.1751 -1.3978
 9804SOL    HW230312   0.173   5.701   1.592 -0.8163  0.7299 -1.9477
 9805SOL     OW30313   6.735   0.633   5.280  0.3036  0.0137 -0.2163
 9805SOL    HW130314   6.725   0.536   5.257  0.2704 -0.6854  2.4049
 9805SOL    HW230315   6.832   0.657   5.284  0.3938 -0.4639  0.9900
 9806SOL     OW30316   1.417   1.648   0.989  0.0329 -0.2730 -0.1659
 9806SOL    HW130317   1.420   1.724   1.053 -1.3717 -0.5993  0.3224
 9806SOL    HW230318   1.344   1.663   0.922 -1.3358 -1.8832  0.8901
 9807SOL     OW30319   1.472   3.209   6.426  0.1880  0.3581 -0.2124
 9807SOL    HW130320   1.412   3.228   6.349  0.3897  1.2278 -0.1667
 9807SOL    HW230321   1.564   3.189   6.394 -0.0074 -0.5167 -0.2563
 9808SOL     OW30322   6.199   6.983   0.627  0.3800 -0.5626  0.0821
 9808SOL    HW130323   6.158   7.044   0.560  1.9915 -0.3177 -0.7474
 9808SOL    HW230324   6.201   6.890   0.591  0.5777 -0.5636  0.0916
 9809SOL     OW30325   1.279   1.964   0.234 -0.1645 -0.4276  0.2783
 9809SOL    HW130326   1.306   1.908   0.312  2.2198 -0.2635 -0.3536
 9809SOL    HW230327   1.224   2.042   0.266  2.7154  0.9764  2.1982
 9810SOL     OW30328   1.562   3.038   3.546 -0.2152 -0.9376 -0.8767
 9810SOL    HW130329   1.607   2.988   3.472  1.7514  0.6789 -0.8855
 9810SOL    HW230330   1.562   3.136   3.523  0.8315 -0.3490  1.4140
 9811SOL     OW30331   6.064   4.153   5.167  0.1129  0.6246  0.1848
 9811SOL    HW130332   6.114   4.067   5.167  0.0803  0.5886 -0.9099
 9811SOL    HW230333   6.119   4.223   5.121 -0.7403  0.6433 -0.8244
 9812SOL     OW30334   3.458   2.426   5.340 -0.1427 -0.8552 -0.9202
 9812SOL    HW130335   3.397   2.415   5.419  0.2683  3.5004  0.2529
 9812SOL    HW230336   3.406   2.409   5.256 -2.0174 -0.6360  0.1308
 9813SOL     OW30337   5.823   1.086   5.893  0.6399 -0.5649  0.1706
 9813SOL    HW130338   5.738   1.035   5.903  0.8714 -0.8408  0.8025
 9813SOL    HW230339   5.890   1.053   5.960  1.1438 -0.1507 -0.1191
 9814SOL     OW30340   0.563   1.894   6.976  0.0156  0.1839 -0.2488
 9814SOL    HW130341   0.485   1.942   6.935 -0.8344 -0.1019  0.9644
 9814SOL    HW230342   0.533   1.803   7.006  1.0228 -0.2228 -0.4477
 9815SOL     OW30343   5.498   2.530   1.864  0.8473  0.0739  0.3252
 9815SOL    HW130344   5.529   2.587   1.940 -0.5692  0.8823  0.3174
 9815SOL    HW230345   5.489   2.435   1.896  0.2188  0.4117  1.1893
 9816SOL     OW30346   6.931   1.837   4.819  0.2346  0.0248  0.1114
 9816SOL    HW130347   7.018   1.792   4.838  0.4994 -0.2800 -1.6924
 9816SOL    HW230348   6.912   1.903   4.892  1.2965 -0.8503  1.2367
 9817SOL     OW30349   1.603   4.527   2.148  0.7477  0.6484  0.5049
 9817SOL    HW130350   1.675   4.592   2.169 -0.1491  0.8688  3.2120
 9817SOL    HW230351   1.522   4.577   2.117 -0.0473  0.9606  2.8857
 9818SOL     OW30352   0.816   3.234   4.183 -0.3912 -0.4726 -0.1909
 9818SOL    HW130353   0.773   3.202   4.099 -0.9062 -2.1382  0.6684
 9818SOL    HW230354   0.801   3.333   4.192 -0.8034 -0.3715 -1.7562
 9819SOL     OW30355   5.618   3.318   4.234 -0.1238  0.5798  0.2672
 9819SOL    HW130356   5.520   3.329   4.253 -0.2472 -1.6250  1.0966
 9819SOL    HW230357   5.667   3.302   4.319  0.8593  0.8795 -0.2340
 9820SOL     OW30358   3.584   1.782   5.124  0.4333 -0.1902  0.2233
 9820SOL    HW130359   3.612   1.864   5.175  0.5811 -0.5547  0.7317
 9820SOL    HW230360   3.569   1.707   5.188 -1.0681 -0.1901 -0.0939
 9821SOL     OW30361   5.589   0.779   0.914  0.9909 -0.1541  0.1739
 9821SOL    HW130362   5.627   0.696   0.874 -0.9604 -0.5394 -1.0073
 9821SOL    HW230363   5.650   0.857   0.894  1.2183 -0.7398 -1.5600
 9822SOL     OW30364   3.267   6.514   3.574  0.1893  0.3183 -0.4923
 9822SOL    HW130365   3.356   6.560   3.572  0.2304  0.2719  0.2671
 9822SOL    HW230366   3.241   6.490   3.480  2.2752 -2.2006 -0.5237
 9823SOL     OW30367   1.265   0.790   1.943  0.4507  0.3717 -0.0771
 9823SOL    HW130368   1.298   0.870   1.893  2.0111 -0.2778 -0.1416
 9823SOL    HW230369   1.203   0.737   1.885  1.3326  0.2454 -0.9319
 9824SOL     OW30370   2.602   6.683   2.407  0.1568  0.4751 -0.0420
 9824SOL    HW130371   2.537   6.715   2.339  0.3312  0.9753  0.0219
 9824SOL    HW230372   2.694   6.683   2.367 -0.0024 -1.3905 -0.5371
 9825SOL     OW30373   6.129   0.936   5.130 -0.7950  0.2335 -0.3448
 9825SOL    HW130374   6.168   1.027   5.142 -1.3680  0.7804 -2.3134
 9825SOL    HW230375   6.060   0.938   5.058 -0.4852 -1.8587 -0.7738
 9826SOL     OW30376   3.477   6.848   4.721 -0.5071  0.0733 -0.0910
 9826SOL    HW130377   3.543   6.814   4.654 -0.7593 -0.4402 -0.0897
 9826SOL    HW230378   3.409   6.905   4.676 -0.3108  0.2508 -0.1643
 9827SOL     OW30379   1.616   3.669   3.170 -0.5209 -0.0674  0.2214
 9827SOL    HW130380   1.622   3.671   3.070 -1.9547 -0.6893  0.0991
 9827SOL    HW230381   1.644   3.579   3.203 -1.6611 -0.4325  0.2296
 9828SOL     OW30382   3.008   2.020   4.966  0.1156  0.2658 -0.7766
 9828SOL    HW130383   2.952   2.042   4.886  0.0820  0.9984 -0.5678
 9828SOL    HW230384   3.054   2.103   4.998  0.7142 -0.1733 -0.4794
 9829SOL     OW30385   4.140   5.226   6.373 -0.3652 -0.1071  0.1636
 9829SOL    HW130386   4.049   5.187   6.388 -0.2457 -0.2721  0.4795
 9829SOL    HW230387   4.200   5.199   6.448 -0.1685  0.3489  0.1758
 9830SOL     OW30388   4.721   1.908   4.016  0.2031 -0.3180 -0.3333
 9830SOL    HW130389   4.807   1.882   3.972 -0.5293 -0.9431 -1.4493
 9830SOL    HW230390   4.664   1.959   3.952  1.1701  3.4253  1.4705
 9831SOL     OW30391   0.148   4.877   1.848  0.4894 -0.2663 -0.1977
 9831SOL    HW130392   0.237   4.838   1.875  0.7203  0.4724  0.1295
 9831SOL    HW230393   0.109   4.927   1.925  2.1814  3.7635 -1.6996
 9832SOL     OW30394   4.769   6.125   3.946  0.5570 -0.2516 -0.0092
 9832SOL    HW130395   4.724   6.190   3.884 -0.4772  0.1294  1.1247
 9832SOL    HW230396   4.703   6.058   3.978  1.1855 -0.7104  0.3384
 9833SOL     OW30397   3.501   3.132   3.874  0.0281  0.3683  0.1835
 9833SOL    HW130398   3.422   3.135   3.812 -0.6342 -0.8221  0.9226
 9833SOL    HW230399   3.525   3.037   3.893  1.2206  0.7165  0.5255
 9834SOL     OW30400   2.136   3.289   3.919 -0.2984 -0.3012 -0.2244
 9834SOL    HW130401   2.155   3.191   3.917 -0.4414 -0.3306 -1.6444
 9834SOL    HW230402   2.172   3.329   4.003  3.6503 -0.8222 -1.4773
 9835SOL     OW30403   4.063   4.175   5.181 -0.8052 -0.2959 -0.0987
 9835SOL    HW130404   4.130   4.247   5.168 -0.4965 -0.1537  1.9285
 9835SOL    HW230405   4.071   4.107   5.108 -0.5475  1.2710 -1.5633
 9836SOL     OW30406   1.418   4.158   5.005  0.3250  0.4824 -0.2903
 9836SOL    HW130407   1.346   4.194   4.947 -1.0731 -0.8546  0.5332
 9836SOL    HW230408   1.388   4.072   5.046  1.8782  0.5670  1.1434
 9837SOL     OW30409   6.505   1.045   2.768 -0.4527  0.3460 -0.0349
 9837SOL    HW130410   6.560   1.069   2.688  0.0696  3.7723  1.1857
 9837SOL    HW230411   6.565   1.012   2.841 -0.7240 -1.0723 -0.4245
 9838SOL     OW30412   0.771   6.272   0.813  0.0984 -0.5618 -0.1936
 9838SOL    HW130413   0.766   6.182   0.855 -2.1437 -0.4368 -0.0778
 9838SOL    HW230414   0.750   6.265   0.715 -0.3212 -0.1433 -0.1380
 9839SOL     OW30415   4.803   6.064   4.422 -0.0611 -0.7127  0.2870
 9839SOL    HW130416   4.885   6.019   4.387 -0.6653 -1.2139 -0.5212
 9839SOL    HW230417   4.724   6.035   4.368 -0.6824  0.2023  0.6912
 9840SOL     OW30418   4.587   0.872   6.003 -0.6149 -0.2181  0.2333
 9840SOL    HW130419   4.603   0.804   5.932 -1.6930 -0.0901 -0.1516
 9840SOL    HW230420   4.537   0.950   5.965  0.9539  1.0203  0.5513
 9841SOL     OW30421   1.996   5.626   4.500  0.0378  0.0079 -0.3513
 9841SOL    HW130422   2.027   5.654   4.591 -0.1136 -1.3866  0.1671
 9841SOL    HW230423   2.066   5.649   4.432  1.0875 -0.7767  0.4263
 9842SOL     OW30424   3.093   2.521   0.388  0.6886 -0.2022 -0.5894
 9842SOL    HW130425   3.142   2.603   0.420 -0.2006 -0.4557  1.5832
 9842SOL    HW230426   2.995   2.532   0.407  0.5306 -1.6479 -0.5119
 9843SOL     OW30427   1.062   0.547   1.354 -0.0975 -0.4036 -0.0356
 9843SOL    HW130428   0.969   0.556   1.391 -0.9270 -2.6130 -1.3538
 9843SOL    HW230429   1.102   0.638   1.343 -0.3611  0.5072  4.5659
 9844SOL     OW30430   6.636   6.909   3.349  0.4933  0.0599 -0.0662
 9844SOL    HW130431   6.631   6.809   3.348 -1.0547  0.1159 -0.2712
 9844SOL    HW230432   6.564   6.946   3.291  2.4014  1.2867 -1.7545
 9845SOL     OW30433   0.372   3.647   2.883  0.7647 -0.3214 -0.2854
 9845SOL    HW130434   0.281   3.634   2.922 -0.4387 -0.0410 -2.8346
 9845SOL    HW230435   0.398   3.565   2.831  1.5457  0.0020 -0.4184
 9846SOL     OW30436   5.453   0.272   6.745 -0.3657 -0.3458  0.2780
 9846SOL    HW130437   5.477   0.267   6.842  1.6402 -0.5152 -0.1781
 9846SOL    HW230438   5.536   0.287   6.691 -1.0818 -2.5262 -1.6053
 9847SOL     OW30439   3.204   3.014   0.566  0.5561 -0.4195  0.2679
 9847SOL    HW130440   3.145   2.958   0.626 -0.3267  1.0690  0.8425
 9847SOL    HW230441   3.159   3.025   0.478  1.0394 -1.1343 -0.0802
 9848SOL     OW30442   4.067   6.385   5.357 -0.5544  0.2545 -0.1768
 9848SOL    HW130443   4.110   6.349   5.274 -0.8951  3.6142 -1.9523
 9848SOL    HW230444   4.047   6.309   5.419  2.9099 -2.0651 -1.5516
 9849SOL     OW30445   1.895   0.641   6.685  0.2827  0.2509 -0.0099
 9849SOL    HW130446   1.946   0.585   6.750  0.3383  0.3938  0.0675
 9849SOL    HW230447   1.946   0.647   6.599  0.3663  0.3416  0.0461
 9850SOL     OW30448   6.975   6.894   4.175 -0.3063  0.6689 -0.2025
 9850SOL    HW130449   7.022   6.900   4.263  0.5144  0.4971 -0.6153
 9850SOL    HW230450   6.943   6.800   4.160 -0.1893  0.6315 -0.2173
 9851SOL     OW30451   2.611   6.991   2.866  0.2942 -0.1301  0.6759
 9851SOL    HW130452   2.612   6.997   2.766  0.3755  0.1220  0.6913
 9851SOL    HW230453   2.538   6.929   2.895 -0.7648  1.0081  0.5136
 9852SOL     OW30454   2.530   2.463   4.249  0.9192  0.1709  0.4921
 9852SOL    HW130455   2.560   2.549   4.289 -0.0227  1.1223 -0.7622
 9852SOL    HW230456   2.442   2.436   4.287  0.2573  0.8255 -0.5095
 9853SOL     OW30457   5.015   3.077   5.068  0.4431  0.0682  0.0625
 9853SOL    HW130458   5.106   3.080   5.025  0.2930 -0.2198 -0.2778
 9853SOL    HW230459   4.985   3.170   5.088  0.4663  0.2169 -0.5666
 9854SOL     OW30460   1.420   4.927   5.339  0.1080  0.0549 -0.0744
 9854SOL    HW130461   1.444   4.890   5.429  2.2986 -0.4633 -0.8056
 9854SOL    HW230462   1.345   4.875   5.300 -1.3577  0.7286  1.7024
 9855SOL     OW30463   0.677   4.462   1.011  0.1909 -0.5587 -0.2211
 9855SOL    HW130464   0.709   4.545   1.057 -0.5602 -0.3993  0.0116
 9855SOL    HW230465   0.605   4.486   0.946  0.4246 -0.9446 -0.6256
 9856SOL     OW30466   6.819   4.841   4.257  0.3967  0.3448 -0.0243
 9856SOL    HW130467   6.861   4.896   4.330 -0.7509  2.2938 -0.7424
 9856SOL    HW230468   6.884   4.772   4.227  1.9397  1.2802  0.9659
 9857SOL     OW30469   6.951   1.911   2.539  0.0024 -0.4922  0.2721
 9857SOL    HW130470   6.949   1.845   2.614 -0.7597 -0.4509  0.2940
 9857SOL    HW230471   6.875   1.892   2.476 -0.3473  0.4799  0.3846
 9858SOL     OW30472   1.886   1.160   0.435  0.2155 -0.2506 -0.2838
 9858SOL    HW130473   1.806   1.209   0.402  0.8183  1.1227  0.2040
 9858SOL    HW230474   1.967   1.218   0.424  0.5328  0.1711  3.1282
 9859SOL     OW30475   1.425   5.165   4.140  0.3314  0.8590  0.3689
 9859SOL    HW130476   1.455   5.172   4.235 -0.4444  3.2624  0.5068
 9859SOL    HW230477   1.488   5.216   4.082  0.2570  0.2305 -0.2676
 9860SOL     OW30478   1.355   3.754   5.382 -0.0754  0.3771 -0.3069
 9860SOL    HW130479   1.294   3.790   5.453 -1.5910 -0.0058 -1.3776
 9860SOL    HW230480   1.430   3.704   5.425 -0.8366  0.3491  1.0416
 9861SOL     OW30481   4.228   6.596   5.646  0.0878  0.2778  0.0342
 9861SOL    HW130482   4.240   6.676   5.704 -0.7991  0.6597 -0.3033
 9861SOL    HW230483   4.176   6.620   5.564  0.7987 -0.3886 -0.6387
 9862SOL     OW30484   3.989   3.294   0.856  0.4221 -0.1069 -0.1320
 9862SOL    HW130485   4.066   3.357   0.860 -0.1186  0.5169  0.6125
 9862SOL    HW230486   4.016   3.207   0.899  0.5709  0.2575  0.5268
 9863SOL     OW30487   3.799   6.820   1.551  0.1402 -0.0761 -0.7051
 9863SOL    HW130488   3.793   6.876   1.468 -0.7987  1.5601  0.3973
 9863SOL    HW230489   3.880   6.848   1.604 -1.5499  2.0018  0.9740
 9864SOL     OW30490   2.097   0.681   6.469 -0.0611  0.8099  0.2183
 9864SOL    HW130491   2.174   0.724   6.515 -0.2934  0.5520  0.8586
 9864SOL    HW230492   2.082   0.725   6.380  0.1833  1.5334  0.5307
 9865SOL     OW30493   2.485   5.823   5.488 -0.3429  0.3552 -0.2022
 9865SOL    HW130494   2.441   5.818   5.578 -0.8475 -0.6001 -0.4907
 9865SOL    HW230495   2.415   5.842   5.419  0.1445  1.8286 -0.3262
 9866SOL     OW30496   0.131   4.265   4.986  0.4286 -0.0503 -0.2398
 9866SOL    HW130497   0.160   4.252   4.892  0.8089  1.3385 -0.3318
 9866SOL    HW230498   0.058   4.333   4.990  0.2827 -0.2324  0.4511
 9867SOL     OW30499   5.863   2.672   2.129 -0.1017 -0.0609 -0.6596
 9867SOL    HW130500   5.898   2.726   2.206  0.5679  0.7539 -1.5047
 9867SOL    HW230501   5.900   2.580   2.134  0.8157  0.2965 -0.5828
 9868SOL     OW30502   0.872   3.674   4.788  0.2271  0.3429  0.3248
 9868SOL    HW130503   0.942   3.611   4.754 -0.2207 -0.5301  1.0061
 9868SOL    HW230504   0.890   3.695   4.884  0.0975  0.8882  0.2357
 9869SOL     OW30505   0.391   3.048   5.752 -0.2435  0.5021 -0.0805
 9869SOL    HW130506   0.478   3.084   5.719  1.4864  1.3785  4.6797
 9869SOL    HW230507   0.403   2.955   5.785 -0.7422  0.9935  1.6095
 9870SOL     OW30508   4.818   7.008   1.376 -0.4660 -0.5891 -0.6342
 9870SOL    HW130509   4.791   7.103   1.394  0.6878 -0.2475 -0.5823
 9870SOL    HW230510   4.814   6.990   1.278 -1.3470 -0.7107 -0.5861
 9871SOL     OW30511   0.289   5.216   4.942  0.0247 -0.6682 -0.6735
 9871SOL    HW130512   0.218   5.188   5.006  1.6665 -1.1991  1.0191
 9871SOL    HW230513   0.274   5.172   4.854 -2.4399  0.2798 -0.7972
 9872SOL     OW30514   2.787   6.976   6.313 -0.0386  0.0779  0.2295
 9872SOL    HW130515   2.808   7.068   6.346 -0.8157  0.1818  0.4560
 9872SOL    HW230516   2.690   6.969   6.292  0.4117  0.0586 -2.1807
 9873SOL     OW30517   3.586   1.869   4.639  0.3120  0.3220  0.4587
 9873SOL    HW130518   3.682   1.884   4.614  0.6542  0.6568  1.8425
 9873SOL    HW230519   3.570   1.906   4.731 -1.1946  0.4330  0.1764
 9874SOL     OW30520   0.997   3.383   4.684 -1.0716 -0.3366 -0.9105
 9874SOL    HW130521   1.078   3.439   4.664 -0.1653 -0.7736  1.3386
 9874SOL    HW230522   1.025   3.294   4.718 -2.4680 -0.2755  0.5174
 9875SOL     OW30523   5.763   5.740   2.083 -0.8314  0.0578 -0.2244
 9875SOL    HW130524   5.754   5.828   2.129  0.2072 -0.4774  1.1006
 9875SOL    HW230525   5.810   5.676   2.144 -3.2351 -2.0054 -0.3631
 9876SOL     OW30526   4.622   1.311   3.742 -0.4528 -0.0490 -0.5058
 9876SOL    HW130527   4.642   1.223   3.700  0.3310 -0.1093 -0.0443
 9876SOL    HW230528   4.547   1.302   3.807  0.3641 -0.6472  0.3853
 9877SOL     OW30529   6.395   5.221   5.441  0.0734  0.5624  0.0737
 9877SOL    HW130530   6.363   5.305   5.398 -1.7199 -0.4702 -0.7136
 9877SOL    HW230531   6.401   5.234   5.540  0.3460  1.7614 -0.0876
 9878SOL     OW30532   3.771   2.578   5.870  0.0360 -0.4136  0.0293
 9878SOL    HW130533   3.764   2.669   5.829 -1.9547  0.2114  1.6050
 9878SOL    HW230534   3.693   2.523   5.842 -0.0076 -0.8274  0.9384
 9879SOL     OW30535   6.276   4.916   5.819 -0.1407  0.5096  0.1411
 9879SOL    HW130536   6.293   4.856   5.897  2.1267  0.8737 -0.0068
 9879SOL    HW230537   6.180   4.944   5.819 -0.0388  1.2274  3.3252
 9880SOL     OW30538   2.554   6.520   1.855  0.3579 -0.2035 -0.4500
 9880SOL    HW130539   2.501   6.569   1.787  1.5194  2.9260  0.7267
 9880SOL    HW230540   2.645   6.499   1.818 -0.7241 -3.5557 -1.6617
 9881SOL     OW30541   0.829   0.008   3.681 -0.0360  0.6445  0.3923
 9881SOL    HW130542   0.912  -0.046   3.667 -0.7438 -1.0692  2.3187
 9881SOL    HW230543   0.830   0.087   3.620  2.1175 -0.3222 -0.9431
 9882SOL     OW30544   4.068   3.494   4.377  0.4990  0.6486  0.4091
 9882SOL    HW130545   3.970   3.478   4.372  0.2330  1.3679  2.5014
 9882SOL    HW230546   4.107   3.441   4.453  1.9106 -0.3212 -0.9313
 9883SOL     OW30547   0.778   6.438   1.769 -0.3239 -0.5061 -0.7198
 9883SOL    HW130548   0.721   6.356   1.777  0.5343 -0.9300  2.2810
 9883SOL    HW230549   0.865   6.413   1.725 -0.8473 -0.7134 -1.6771
 9884SOL     OW30550   3.093   2.487   6.636  0.0798 -0.0485  0.0686
 9884SOL    HW130551   3.137   2.556   6.578 -0.5247  0.3714  0.1058
 9884SOL    HW230552   3.025   2.437   6.582  0.7078 -0.8127 -0.0338
 9885SOL     OW30553   1.338   3.660   4.330 -0.7818 -0.1159  0.8131
 9885SOL    HW130554   1.357   3.736   4.267  3.1426 -1.1825  0.4493
 9885SOL    HW230555   1.292   3.587   4.280  0.2105 -0.0398 -0.2527
 9886SOL     OW30556   5.326   1.611   2.896  0.1524  0.5601 -0.1987
 9886SOL    HW130557   5.385   1.588   2.818  1.2755 -0.1561  0.8137
 9886SOL    HW230558   5.363   1.569   2.979 -2.3349 -0.7379  0.3522
 9887SOL     OW30559   3.791   0.565   0.104  0.4239 -0.1874  0.5967
 9887SOL    HW130560   3.764   0.532   0.194 -0.8285  0.4244  0.4595
 9887SOL    HW230561   3.890   0.553   0.092  0.4480 -1.1293  1.6794
 9888SOL     OW30562   0.411   0.306   2.214  0.2497 -0.1707  0.3045
 9888SOL    HW130563   0.482   0.263   2.270 -1.2921 -2.2378  0.7698
 9888SOL    HW230564   0.368   0.237   2.156 -1.0896  1.1166 -0.2960
 9889SOL     OW30565   6.924   6.027   2.564 -0.2783 -0.7589  0.3399
 9889SOL    HW130566   6.884   6.098   2.622 -1.1944 -1.1704  0.2259
 9889SOL    HW230567   6.862   6.006   2.488 -0.4630 -2.3272  0.8845
 9890SOL     OW30568   6.267   4.064   0.490 -0.3616  0.6104  0.4251
 9890SOL    HW130569   6.316   3.987   0.451 -0.5371  0.3994  0.6203
 9890SOL    HW230570   6.237   4.125   0.417  1.1099  1.3043  0.3636
 9891SOL     OW30571   4.872   3.295   6.770 -0.3372 -0.2109 -0.1011
 9891SOL    HW130572   4.789   3.334   6.730 -0.2280  0.5104  0.3386
 9891SOL    HW230573   4.952   3.341   6.731 -0.2683  1.5097  1.8781
 9892SOL     OW30574   1.401   5.446   3.699  0.1477 -0.1609  0.6993
 9892SOL    HW130575   1.317   5.438   3.645  1.2688  0.1689 -1.1744
 9892SOL    HW230576   1.432   5.355   3.727  0.1815 -0.4386 -0.2340
 9893SOL     OW30577   5.485   5.381   2.728  0.0273  0.7469 -0.1384
 9893SOL    HW130578   5.524   5.332   2.807  0.6977 -1.0828 -1.5399
 9893SOL    HW230579   5.389   5.401   2.745  0.5924  2.0962  1.8975
 9894SOL     OW30580   4.843   0.492   0.121  0.4042  0.3750 -0.3813
 9894SOL    HW130581   4.889   0.459   0.039  0.8769  0.4866 -0.1651
 9894SOL    HW230582   4.746   0.471   0.115  0.4239  0.4407 -0.9965
 9895SOL     OW30583   5.101   2.401   5.436 -0.3850  0.0126 -0.2311
 9895SOL    HW130584   5.015   2.416   5.387  0.5510  0.0671 -1.9262
 9895SOL    HW230585   5.133   2.488   5.472 -1.8294 -0.2508  1.8775
 9896SOL     OW30586   4.898   2.585   1.481 -0.5137  0.5951 -0.1485
 9896SOL    HW130587   4.937   2.525   1.412  0.8073  1.6050 -0.3152
 9896SOL    HW230588   4.808   2.550   1.509  0.3612 -1.6474  0.0417
 9897SOL     OW30589   4.878   2.339   2.141 -0.3282 -0.0742 -0.4848
 9897SOL    HW130590   4.939   2.417   2.133  0.5490 -0.5592  1.2238
 9897SOL    HW230591   4.919   2.259   2.096  0.1924 -0.3342  0.4415
 9898SOL     OW30592   2.841   4.821   5.308 -0.4409 -0.1194  0.3545
 9898SOL    HW130593   2.847   4.747   5.376  0.4130  0.1041  0.5296
 9898SOL    HW230594   2.861   4.784   5.218  0.1666 -0.0739  0.4661
 9899SOL     OW30595   6.060   4.228   2.901 -0.0987 -0.5581 -0.0491
 9899SOL    HW130596   6.019   4.316   2.877 -1.0099 -0.5813  1.2967
 9899SOL    HW230597   6.082   4.178   2.818 -0.1195  0.6842 -0.8337
 9900SOL     OW30598   1.589   1.913   4.487  0.0290 -0.0830 -0.7021
 9900SOL    HW130599   1.573   1.950   4.395 -0.9470 -0.4409 -0.6824
 9900SOL    HW230600   1.539   1.827   4.498 -0.9149  0.5893  0.5842
 9901SOL     OW30601   0.706   3.029   1.480 -0.0274 -0.5317 -0.3456
 9901SOL    HW130602   0.634   3.076   1.531  1.5283  0.3385  1.1058
 9901SOL    HW230603   0.677   3.018   1.384 -1.5134  0.9887 -0.1124
 9902SOL     OW30604   2.994   3.342   1.588  0.4530  0.0399  0.2967
 9902SOL    HW130605   2.953   3.314   1.501 -2.2401  0.0599  1.4750
 9902SOL    HW230606   3.071   3.404   1.570 -1.0703  1.4091 -2.0670
 9903SOL     OW30607   6.471   6.700   2.921 -0.2153  0.0154 -0.1403
 9903SOL    HW130608   6.373   6.698   2.899  0.1757 -1.8477 -2.0527
 9903SOL    HW230609   6.494   6.619   2.975  0.5837 -0.6859 -1.4743
 9904SOL     OW30610   6.210   3.003   4.523  0.5730  0.0135  0.1744
 9904SOL    HW130611   6.238   2.943   4.599 -0.9613 -0.1801  0.6246
 9904SOL    HW230612   6.244   2.965   4.437  3.4040  0.8878  0.8207
 9905SOL     OW30613   0.842   6.158   1.704  0.2284 -0.4449 -0.0075
 9905SOL    HW130614   0.809   6.198   1.618 -0.6835 -0.4638  0.3168
 9905SOL    HW230615   0.935   6.125   1.692  0.0200 -0.6973 -1.0794
 9906SOL     OW30616   1.553   3.395   0.223 -0.1935  0.1503  0.2303
 9906SOL    HW130617   1.550   3.361   0.129 -0.9143 -1.4215  0.7716
 9906SOL    HW230618   1.474   3.454   0.240  0.1396  0.7341 -0.2546
 9907SOL     OW30619   2.564   6.969   2.075 -0.1009  0.5072  0.4906
 9907SOL    HW130620   2.475   6.952   2.033  0.3534 -1.6013  0.2924
 9907SOL    HW230621   2.552   6.986   2.173 -0.7466  0.5312  0.4125
 9908SOL     OW30622   2.264   3.779   5.284 -0.4355 -0.8011 -0.0326
 9908SOL    HW130623   2.305   3.844   5.220  0.9135 -0.6247  0.9724
 9908SOL    HW230624   2.332   3.711   5.311 -1.6756 -2.3897 -0.6756
 9909SOL     OW30625   3.907   0.188   3.047 -0.0078 -0.6073  0.0284
 9909SOL    HW130626   3.973   0.189   2.972  1.4822  0.3572  1.2871
 9909SOL    HW230627   3.817   0.217   3.014  0.0304 -2.3841 -1.8238
 9910SOL     OW30628   5.404   5.088   2.084 -0.1565 -0.8686 -0.6065
 9910SOL    HW130629   5.344   5.056   2.157  1.1671  1.3565  1.6185
 9910SOL    HW230630   5.353   5.092   1.998 -2.6491 -0.7772  0.7871
 9911SOL     OW30631   4.431   4.093   1.327  0.0582  0.0601 -0.7689
 9911SOL    HW130632   4.496   4.019   1.337  1.3581  1.2217 -0.2738
 9911SOL    HW230633   4.341   4.056   1.303  0.5529 -1.6787 -0.0738
 9912SOL     OW30634   5.045   6.392   3.897  0.0107 -0.7557  0.3289
 9912SOL    HW130635   4.971   6.454   3.871  1.0230 -0.1226 -1.1514
 9912SOL    HW230636   5.083   6.349   3.815  1.0844 -1.2989  1.0852
 9913SOL     OW30637   3.770   1.838   3.629  0.2492 -0.5272 -0.1494
 9913SOL    HW130638   3.828   1.788   3.564  1.3793 -0.8960  1.0961
 9913SOL    HW230639   3.828   1.891   3.691 -0.8574  0.6236 -0.0736
 9914SOL     OW30640   1.278   1.428   6.951 -0.2477 -0.1390 -0.4062
 9914SOL    HW130641   1.301   1.347   6.898  0.3615  0.3771 -0.9450
 9914SOL    HW230642   1.207   1.480   6.903 -0.3528 -0.1471 -0.2599
 9915SOL     OW30643   5.287   3.082   3.890 -0.1438  0.1908 -0.3678
 9915SOL    HW130644   5.382   3.071   3.918 -0.0925  0.1566 -0.5558
 9915SOL    HW230645   5.264   3.013   3.821 -0.4814 -0.1879  0.1248
 9916SOL     OW30646   2.550   1.479   4.597 -0.4089  0.0726 -0.1148
 9916SOL    HW130647   2.528   1.390   4.636  1.5309 -0.2834  0.2701
 9916SOL    HW230648   2.578   1.468   4.502 -2.3285  0.5943 -0.7959
 9917SOL     OW30649   3.873   3.661   4.817  0.4128 -0.7005 -0.5715
 9917SOL    HW130650   3.912   3.740   4.771  0.1498 -0.5401 -0.5192
 9917SOL    HW230651   3.776   3.677   4.836  0.3182 -1.0952 -0.7041
 9918SOL     OW30652   0.201   2.059   6.614  0.3056  0.4996  0.3259
 9918SOL    HW130653   0.129   2.078   6.681 -0.4705  0.8942 -0.5970
 9918SOL    HW230654   0.286   2.040   6.662 -0.4519 -0.2026  1.4651
 9919SOL     OW30655   0.942   3.768   2.187  0.1296  0.1378 -0.0849
 9919SOL    HW130656   1.038   3.780   2.161  0.1703  0.3870  0.1816
 9919SOL    HW230657   0.884   3.803   2.113  0.2391 -0.5372 -0.4952
 9920SOL     OW30658   4.781   0.430   2.676 -0.5465 -0.1469  0.7685
 9920SOL    HW130659   4.720   0.391   2.607 -0.1967  0.8850 -0.1630
 9920SOL    HW230660   4.853   0.364   2.698 -0.4953 -0.3857 -0.0838
 9921SOL     OW30661   1.577   5.546   3.275  0.4068  0.0859  0.5415
 9921SOL    HW130662   1.486   5.572   3.242  0.4173 -0.1930  0.2845
 9921SOL    HW230663   1.644   5.614   3.246  0.3704 -0.0105  0.2266
 9922SOL     OW30664   6.155   3.583   6.948  0.4440  0.0091  0.1541
 9922SOL    HW130665   6.156   3.559   6.850  0.6705 -1.7723  0.5519
 9922SOL    HW230666   6.150   3.682   6.958 -0.3196  0.1989 -1.6634
 9923SOL     OW30667   5.564   3.714   0.902 -0.1043 -0.1639  0.1009
 9923SOL    HW130668   5.590   3.715   0.998 -0.0507 -0.3980  0.0877
 9923SOL    HW230669   5.465   3.726   0.894  0.0126  0.9613  0.1430
 9924SOL     OW30670   6.394   2.769   4.072 -0.3779 -0.6580 -0.5125
 9924SOL    HW130671   6.326   2.696   4.066 -0.9829 -0.0446 -1.3244
 9924SOL    HW230672   6.456   2.763   3.995 -0.5716 -0.1853 -0.7109
 9925SOL     OW30673   1.174   3.561   6.562 -0.1689  0.1222 -0.2375
 9925SOL    HW130674   1.261   3.605   6.541 -0.3467  0.2942 -0.6257
 9925SOL    HW230675   1.176   3.525   6.655  0.2889  0.1922 -0.2195
 9926SOL     OW30676   1.511   3.415   1.090  0.2883 -0.1254 -0.0227
 9926SOL    HW130677   1.432   3.421   1.029 -0.1774 -1.6534  0.3823
 9926SOL    HW230678   1.511   3.325   1.135  2.5132 -0.3443 -0.3775
 9927SOL     OW30679   6.583   1.353   0.028 -0.6493 -0.0550 -0.4179
 9927SOL    HW130680   6.640   1.346   0.109 -1.1579  0.9529  0.0450
 9927SOL    HW230681   6.525   1.272   0.020 -0.3457 -0.3146  0.0292
 9928SOL     OW30682   5.854   5.191   1.601  0.5326 -0.3344 -0.2481
 9928SOL    HW130683   5.805   5.187   1.688  1.8322 -0.2610  0.5038
 9928SOL    HW230684   5.790   5.215   1.528 -0.5352 -0.1856  0.7139
 9929SOL     OW30685   2.630   4.128   5.469  0.3541 -0.1238 -0.0975
 9929SOL    HW130686   2.613   4.037   5.431  0.7054 -0.6564  0.9828
 9929SOL    HW230687   2.666   4.188   5.397  2.0035 -1.3902 -0.3721
 9930SOL     OW30688   6.644   2.206   4.805 -0.3361  0.9937 -0.0609
 9930SOL    HW130689   6.648   2.281   4.740 -0.6159  0.8118 -0.2920
 9930SOL    HW230690   6.730   2.202   4.857 -0.0413  1.0269 -0.5400
 9931SOL     OW30691   2.022   4.136   6.507  0.0802 -0.1839 -0.2639
 9931SOL    HW130692   2.020   4.236   6.507 -1.6125 -0.1879 -1.1198
 9931SOL    HW230693   2.035   4.103   6.413 -0.6135 -0.7625 -0.1635
 9932SOL     OW30694   1.571   1.514   1.248 -0.2560 -0.1574 -0.4494
 9932SOL    HW130695   1.501   1.552   1.188 -0.5350  1.5155  0.8511
 9932SOL    HW230696   1.550   1.418   1.268  0.3890 -1.0872 -3.7388
 9933SOL     OW30697   1.480   1.643   4.547 -0.3281 -0.3141  0.0260
 9933SOL    HW130698   1.532   1.571   4.592  1.4105  0.8897  0.0454
 9933SOL    HW230699   1.419   1.687   4.613 -0.7487 -1.1590  0.2161
 9934SOL     OW30700   6.208   2.602   5.810 -0.0806 -1.0041  0.0409
 9934SOL    HW130701   6.185   2.698   5.826 -0.1802 -1.1888  1.0676
 9934SOL    HW230702   6.129   2.544   5.828  0.9319 -1.6105  3.2218
 9935SOL     OW30703   2.437   1.809   1.824 -0.4802  0.0061  0.0378
 9935SOL    HW130704   2.376   1.757   1.764 -0.1305 -0.2009 -0.1390
 9935SOL    HW230705   2.497   1.866   1.768 -1.0254  0.7973  0.2306
 9936SOL     OW30706   5.367   4.884   5.922  0.1136 -0.1380  0.0963
 9936SOL    HW130707   5.400   4.807   5.869  2.6984 -0.7799  2.4009
 9936SOL    HW230708   5.319   4.851   6.003 -1.4885  0.7811 -0.4281
 9937SOL     OW30709   2.259   1.304   2.609 -0.0128  0.1937 -0.2990
 9937SOL    HW130710   2.329   1.268   2.672 -0.3614  1.1376  0.6484
 9937SOL    HW230711   2.204   1.228   2.574  0.7755 -0.4444 -0.1843
 9938SOL     OW30712   5.248   0.003   3.411  0.0374 -0.0203 -0.3583
 9938SOL    HW130713   5.227   0.018   3.508  2.2848 -1.8920  0.5054
 9938SOL    HW230714   5.308   0.076   3.378  1.2339 -0.6424  0.3865
 9939SOL     OW30715   1.418   2.470   1.140 -0.2137  1.0620  0.5729
 9939SOL    HW130716   1.354   2.546   1.147  0.2781  1.4203  1.3352
 9939SOL    HW230717   1.502   2.492   1.190 -0.1349 -0.0558  0.9661
 9940SOL     OW30718   6.031   1.237   3.814  0.1642 -0.3953 -0.1983
 9940SOL    HW130719   6.069   1.194   3.896 -1.0699 -0.3851  0.3981
 9940SOL    HW230720   5.969   1.173   3.769 -0.0813  0.0286 -0.4669
 9941SOL     OW30721   3.085   0.149   6.131  0.0439 -0.4120  0.0175
 9941SOL    HW130722   2.998   0.106   6.107 -0.0359 -0.2069 -0.0611
 9941SOL    HW230723   3.153   0.126   6.061  0.1864 -0.9733  0.3276
 9942SOL     OW30724   5.164   2.456   1.950  0.2314 -0.1075  0.0311
 9942SOL    HW130725   5.164   2.461   1.850  0.3797 -1.2333 -0.0301
 9942SOL    HW230726   5.220   2.530   1.987  0.1505  0.3348 -0.7118
 9943SOL     OW30727   1.648   2.709   6.714 -0.2603 -0.0579  0.6139
 9943SOL    HW130728   1.713   2.635   6.728 -1.4470 -1.3527 -0.3533
 9943SOL    HW230729   1.600   2.728   6.800  0.7047  0.2686  1.0962
 9944SOL     OW30730   1.805   4.969   5.489  0.6823 -0.3820  0.0015
 9944SOL    HW130731   1.899   5.002   5.476  1.4973 -2.4006  0.3648
 9944SOL    HW230732   1.756   5.031   5.550  1.6467  0.9161 -0.5027
 9945SOL     OW30733   4.822   2.293   5.454 -0.3468 -0.5086 -0.0278
 9945SOL    HW130734   4.814   2.378   5.505 -1.9693 -0.6365 -0.0478
 9945SOL    HW230735   4.918   2.263   5.456  0.0045  0.5914  1.1124
 9946SOL     OW30736   0.467   0.764   2.562 -0.0527 -0.3435 -0.9832
 9946SOL    HW130737   0.396   0.802   2.503  1.0005  1.7241 -1.0093
 9946SOL    HW230738   0.465   0.664   2.557 -1.6308 -0.2780 -2.5175
 9947SOL     OW30739   1.853   2.343   5.650 -0.0028 -0.2159  0.6306
 9947SOL    HW130740   1.760   2.312   5.630 -0.1101  1.3297 -1.6900
 9947SOL    HW230741   1.853   2.443   5.659  1.4044 -0.2274  0.9383
 9948SOL     OW30742   0.121   5.970   4.866 -0.3021  0.7161 -0.0758
 9948SOL    HW130743   0.099   5.886   4.915 -0.1080  0.7562  0.0847
 9948SOL    HW230744   0.188   6.023   4.920 -0.1574  0.8047 -0.3420
 9949SOL     OW30745   0.068   5.370   4.059 -0.3306  0.0288 -0.1280
 9949SOL    HW130746   0.087   5.453   4.008 -1.4720  0.5597  0.2849
 9949SOL    HW230747  -0.019   5.331   4.028  0.3318 -1.1780 -0.5244
 9950SOL     OW30748   5.190   5.511   5.845 -0.0708 -0.6577 -0.0165
 9950SOL    HW130749   5.258   5.440   5.826  1.6666  1.3186 -1.7567
 9950SOL    HW230750   5.235   5.590   5.887 -1.6637  0.0117  0.4951
 9951SOL     OW30751   6.685   3.235   2.232  0.3035 -0.1072  0.5473
 9951SOL    HW130752   6.707   3.170   2.305 -0.7385 -2.1066 -0.7984
 9951SOL    HW230753   6.767   3.250   2.176  1.1708  1.6138  2.1574
 9952SOL     OW30754   0.319   3.894   0.967  0.1177  0.0521  0.6131
 9952SOL    HW130755   0.319   3.813   0.908 -1.3060  0.2987  0.2425
 9952SOL    HW230756   0.403   3.895   1.022  0.7499 -0.9907 -0.2948
 9953SOL     OW30757   6.401   1.859   4.019 -0.7225  0.3737 -0.7142
 9953SOL    HW130758   6.305   1.879   3.998 -0.8172 -0.5841 -1.2252
 9953SOL    HW230759   6.444   1.814   3.941  0.0676  0.5399 -0.3797
 9954SOL     OW30760   1.803   2.357   5.042 -0.8176 -0.6514 -0.5981
 9954SOL    HW130761   1.777   2.398   5.130  0.5404  2.2730 -1.4307
 9954SOL    HW230762   1.876   2.291   5.056 -2.0027 -1.7777  0.6394
 9955SOL     OW30763   5.088   1.929   6.128 -0.5916 -0.5046 -0.0214
 9955SOL    HW130764   5.142   1.869   6.069  0.0461 -0.8329  0.8773
 9955SOL    HW230765   5.133   2.019   6.133 -0.6789 -0.4577 -0.0789
 9956SOL     OW30766   6.522   4.066   2.996 -0.5285  0.5612 -0.5842
 9956SOL    HW130767   6.498   4.052   2.900 -0.3083 -2.0303 -0.3539
 9956SOL    HW230768   6.565   3.983   3.032 -1.1752  1.2138  1.9262
 9957SOL     OW30769   4.623   1.134   2.553  0.0314  0.1941 -0.5239
 9957SOL    HW130770   4.553   1.079   2.600 -2.0895  1.7570 -1.6358
 9957SOL    HW230771   4.660   1.081   2.476 -0.1801 -0.5599 -0.1176
 9958SOL     OW30772   4.198   5.283   0.041 -0.3642 -0.1719 -0.5251
 9958SOL    HW130773   4.192   5.311   0.137 -1.2060 -1.6780 -0.1114
 9958SOL    HW230774   4.153   5.351  -0.016  0.2309  0.7974  0.1183
 9959SOL     OW30775   4.427   3.380   1.365 -0.4409 -0.2639 -0.0398
 9959SOL    HW130776   4.375   3.449   1.315  1.1654  0.4072 -0.8635
 9959SOL    HW230777   4.490   3.334   1.302 -0.8818 -1.9067  0.6747
 9960SOL     OW30778   0.534   1.305   1.122  0.0157 -0.4853  0.1639
 9960SOL    HW130779   0.532   1.404   1.129  0.3422 -0.5638  1.8689
 9960SOL    HW230780   0.498   1.276   1.033  0.0559  1.1487 -0.4012
 9961SOL     OW30781   1.622   4.896   2.202 -0.7146  0.1136 -0.0471
 9961SOL    HW130782   1.663   4.828   2.141 -1.0532 -0.3525  0.2378
 9961SOL    HW230783   1.677   4.979   2.201 -0.8461  0.1953 -1.1658
 9962SOL     OW30784   4.277   1.186   1.242 -0.3245 -0.3462  0.1896
 9962SOL    HW130785   4.312   1.201   1.335 -1.7029 -0.3354  0.7425
 9962SOL    HW230786   4.332   1.117   1.196  1.3323  0.7450  0.4437
 9963SOL     OW30787   0.152   3.996   6.246 -0.7233 -0.4836  0.1298
 9963SOL    HW130788   0.059   4.012   6.277 -0.5613  2.7560 -0.7004
 9963SOL    HW230789   0.170   4.051   6.164  2.0091 -0.7470  0.4588
 9964SOL     OW30790   2.232   5.804   0.493  0.7299  0.2832 -0.0213
 9964SOL    HW130791   2.257   5.780   0.399  1.6598 -2.4520  0.8457
 9964SOL    HW230792   2.310   5.787   0.553 -0.4899  0.0301  1.5500
 9965SOL     OW30793   3.786   5.698   3.561  0.1526  0.1141 -0.0833
 9965SOL    HW130794   3.851   5.773   3.567  0.1825  0.2197 -1.3873
 9965SOL    HW230795   3.808   5.629   3.629 -0.8554  1.9873  2.2835
 9966SOL     OW30796   3.274   5.375   1.240 -0.2795  0.0811  0.0996
 9966SOL    HW130797   3.280   5.424   1.153 -1.0951 -0.5764 -0.3430
 9966SOL    HW230798   3.179   5.351   1.258 -0.0220 -0.4187  0.8294
 9967SOL     OW30799   6.450   5.130   3.483  0.2106 -0.1958  0.0426
 9967SOL    HW130800   6.442   5.155   3.386 -1.2637  1.3092  0.4929
 9967SOL    HW230801   6.546   5.121   3.507  0.7546  2.0182 -0.9837
 9968SOL     OW30802   2.248   5.473   0.353  0.2883  0.4717 -0.0660
 9968SOL    HW130803   2.234   5.570   0.338  1.0971  0.3848 -1.6367
 9968SOL    HW230804   2.163   5.430   0.383 -0.4722  1.4053 -0.8479
 9969SOL     OW30805   1.733   3.507   4.206  0.5663 -0.0977 -0.3061
 9969SOL    HW130806   1.664   3.468   4.266  0.3109  2.0871  0.9586
 9969SOL    HW230807   1.812   3.446   4.201 -0.5716 -1.6510 -0.0907
 9970SOL     OW30808   5.581   4.879   1.487  0.3600  1.1023  0.6715
 9970SOL    HW130809   5.548   4.951   1.549 -0.8402 -0.6119  2.1211
 9970SOL    HW230810   5.643   4.819   1.537  0.2652  0.3450 -0.1138
 9971SOL     OW30811   2.589   2.693   1.741 -0.0204  0.2263  0.4811
 9971SOL    HW130812   2.644   2.609   1.739 -1.6897 -0.9621  1.5305
 9971SOL    HW230813   2.564   2.719   1.647  1.4728  0.2362  0.0673
 9972SOL     OW30814   2.930   4.820   6.157  0.5048  0.5164  0.0695
 9972SOL    HW130815   2.844   4.864   6.133  1.3770  1.3558 -1.6849
 9972SOL    HW230816   2.964   4.767   6.079  1.7643  0.5200  0.5873
 9973SOL     OW30817   4.462   2.794   5.423  0.1023 -1.2013  0.0515
 9973SOL    HW130818   4.536   2.838   5.474 -1.1485 -1.0535  1.8231
 9973SOL    HW230819   4.494   2.705   5.389  1.2445 -0.9179  0.3345
 9974SOL     OW30820   0.420   3.638   2.507  0.1880 -0.1213 -0.1528
 9974SOL    HW130821   0.436   3.589   2.592 -0.7125  1.1590  0.8098
 9974SOL    HW230822   0.484   3.714   2.499 -0.8488  0.8416  0.3077
 9975SOL     OW30823   5.351   5.023   6.629  1.1773 -0.2315  0.3078
 9975SOL    HW130824   5.394   4.959   6.565  1.5169  0.9644 -0.7013
 9975SOL    HW230825   5.252   5.006   6.631  0.7122  1.4823 -2.7452
 9976SOL     OW30826   1.665   5.729   6.028  0.3189 -0.1006  0.6476
 9976SOL    HW130827   1.685   5.807   6.088  0.0358  0.9974 -0.6310
 9976SOL    HW230828   1.636   5.763   5.939  0.5994 -1.6969 -0.0785
 9977SOL     OW30829   5.016   4.830   4.010  0.1081 -0.0525 -0.0879
 9977SOL    HW130830   5.089   4.762   4.013  0.9524  0.8499  0.9000
 9977SOL    HW230831   4.944   4.805   4.075 -0.0514 -0.5035 -0.4384
 9978SOL     OW30832   6.484   1.984   4.683  0.6876 -0.3831 -0.3975
 9978SOL    HW130833   6.538   2.054   4.730  0.8457 -0.0311 -1.0851
 9978SOL    HW230834   6.480   1.901   4.738  0.7498  0.0687  0.2925
 9979SOL     OW30835   5.565   3.233   5.876  0.2331  0.4636  0.1073
 9979SOL    HW130836   5.649   3.234   5.822  0.7526 -0.6736  0.8546
 9979SOL    HW230837   5.585   3.197   5.967 -0.5091  2.7769  1.2629
 9980SOL     OW30838   2.424   0.355   1.035  0.0863  0.2827 -0.3173
 9980SOL    HW130839   2.336   0.313   1.059 -0.1314  1.1531  0.4799
 9980SOL    HW230840   2.478   0.291   0.980 -0.4635 -0.8154  0.3824
 9981SOL     OW30841   2.356   0.861   1.410 -0.0447 -0.0557  0.1591
 9981SOL    HW130842   2.381   0.771   1.375  1.6625  0.7417 -0.7974
 9981SOL    HW230843   2.349   0.926   1.334  1.7625  1.2584  1.0151
 9982SOL     OW30844   0.288   3.064   3.862  0.3261  0.0782  0.5345
 9982SOL    HW130845   0.381   3.077   3.829 -0.1399  0.2393 -0.7741
 9982SOL    HW230846   0.229   3.137   3.827 -0.7500 -1.2684 -0.5799
 9983SOL     OW30847   0.434   2.366   2.126  0.1782  0.0695 -0.0795
 9983SOL    HW130848   0.528   2.367   2.093  0.6707 -1.6731  1.1253
 9983SOL    HW230849   0.378   2.314   2.061  0.5817 -0.9839  0.3832
 9984SOL     OW30850   1.357   5.970   5.035  0.0532  0.2868  0.5719
 9984SOL    HW130851   1.257   5.966   5.028  0.0329  1.2753  0.2264
 9984SOL    HW230852   1.385   5.940   5.127 -0.5003 -0.6929  0.4355
 9985SOL     OW30853   1.770   4.909   0.227  0.1358 -0.0723  0.3473
 9985SOL    HW130854   1.850   4.944   0.178 -0.3254  1.0156  0.3501
 9985SOL    HW230855   1.689   4.962   0.203 -0.3640 -0.3810  1.2663
 9986SOL     OW30856   5.012   4.427   0.764 -0.0205  0.8472 -0.2772
 9986SOL    HW130857   4.949   4.351   0.782 -0.7239  1.2882 -0.8267
 9986SOL    HW230858   4.973   4.486   0.694  0.1757  2.1159  0.6546
 9987SOL     OW30859   5.973   3.162   3.268  0.2291 -0.6128  0.3129
 9987SOL    HW130860   5.888   3.213   3.280  0.3025 -0.6609  1.0628
 9987SOL    HW230861   5.973   3.118   3.178  0.1735  0.7152 -0.3621
 9988SOL     OW30862   0.419   5.828   6.290  0.2817  0.0504 -0.1295
 9988SOL    HW130863   0.497   5.819   6.228  1.4438  2.9143  0.7574
 9988SOL    HW230864   0.348   5.882   6.247 -0.6925 -1.3904 -0.4061
 9989SOL     OW30865   5.632   3.669   3.694 -0.3561  0.3183  0.0055
 9989SOL    HW130866   5.718   3.702   3.733  0.5382 -1.0916 -0.6774
 9989SOL    HW230867   5.559   3.680   3.761  1.2832 -2.8424  2.6055
 9990SOL     OW30868   1.916   1.113   2.791  0.0428  0.0227  0.3438
 9990SOL    HW130869   2.001   1.103   2.842  1.7437 -2.6063 -2.6695
 9990SOL    HW230870   1.851   1.043   2.820 -1.0009  1.6339  2.1901
 9991SOL     OW30871   1.865   4.002   5.450 -0.3492  0.4538  0.4307
 9991SOL    HW130872   1.766   3.997   5.435 -0.5692  0.2085  1.7638
 9991SOL    HW230873   1.909   3.921   5.411 -0.6345  0.6851 -0.3861
 9992SOL     OW30874   2.501   3.166   0.525  0.4144 -0.3910  0.1419
 9992SOL    HW130875   2.457   3.219   0.598  2.7512  1.3265  0.4448
 9992SOL    HW230876   2.584   3.122   0.561  1.9433  0.9563 -1.5013
 9993SOL     OW30877   5.583   1.153   2.401  0.1161  0.5777  0.1723
 9993SOL    HW130878   5.496   1.122   2.439  0.4832  1.3070  1.6787
 9993SOL    HW230879   5.641   1.073   2.384 -0.9277  0.0606 -1.1382
 9994SOL     OW30880   6.992   3.702   2.687  0.3611  0.6216  0.0411
 9994SOL    HW130881   7.051   3.626   2.661  2.3377  2.3723 -0.8952
 9994SOL    HW230882   7.021   3.785   2.639 -1.9073  1.9366  0.7591
 9995SOL     OW30883   1.627   2.937   3.805  0.0669 -0.4069 -0.0589
 9995SOL    HW130884   1.635   2.997   3.726 -1.8698 -0.1616 -0.1106
 9995SOL    HW230885   1.639   2.842   3.775 -2.2506 -0.4633 -1.0083
 9996SOL     OW30886   4.066   3.353   0.329 -0.2025 -0.1473  0.2276
 9996SOL    HW130887   4.128   3.431   0.322  1.6274 -1.3890  1.7287
 9996SOL    HW230888   4.073   3.298   0.245 -1.5501  1.2528 -0.8667
 9997SOL     OW30889   6.379   1.480   0.674  0.5270  0.6188 -0.5620
 9997SOL    HW130890   6.330   1.495   0.759  0.2228  0.5249 -0.7216
 9997SOL    HW230891   6.475   1.508   0.686  1.1350 -1.7064  0.5761
 9998SOL     OW30892   4.578   4.892   6.611  0.5781  0.1074 -0.3544
 9998SOL    HW130893   4.546   4.938   6.528  1.4250 -0.3953 -0.9732
 9998SOL    HW230894   4.506   4.896   6.680 -0.1386  0.5494 -1.0981
 9999SOL     OW30895   1.270   4.746   5.183 -0.2607 -0.5079  0.1131
 9999SOL    HW130896   1.292   4.724   5.088  0.7963  0.6371  0.0817
 9999SOL    HW230897   1.179   4.789   5.187 -1.2644 -2.4788 -0.0989
10000SOL     OW30898   4.663   1.370   0.893  0.4121  0.1385  0.0515
10000SOL    HW130899   4.573   1.397   0.859  0.1731 -0.8048 -0.0871
10000SOL    HW230900   4.733   1.428   0.850  0.0840 -0.7389 -1.7964
10001SOL     OW30901   4.892   6.960   6.988 -0.1890  0.6600  0.1742
10001SOL    HW130902   4.924   7.010   6.907 -0.4847  1.7426  0.7042
10001SOL    HW230903   4.820   6.896   6.961 -0.4295  1.1572 -0.3907
10002SOL     OW30904   1.751   1.627   0.960 -0.0319  0.0105 -0.3528
10002SOL    HW130905   1.690   1.556   0.926  0.6515  0.1312 -1.9486
10002SOL    HW230906   1.697   1.701   1.000 -0.7560 -1.2438  1.0712
10003SOL     OW30907   1.048   2.463   2.072 -0.2850  0.0702 -0.0502
10003SOL    HW130908   1.039   2.399   1.996  0.7076 -0.5028  0.3005
10003SOL    HW230909   0.959   2.504   2.091 -0.7976 -0.6956 -0.7259
10004SOL     OW30910   5.583   3.608   4.514 -0.2421 -0.0025 -0.0308
10004SOL    HW130911   5.576   3.520   4.560  2.3109 -0.8314 -1.0544
10004SOL    HW230912   5.620   3.676   4.577 -0.6317 -0.0828  0.2865
10005SOL     OW30913   2.589   4.396   1.691 -0.2532  0.0153 -0.7202
10005SOL    HW130914   2.546   4.333   1.756 -0.3549 -0.1382 -0.9336
10005SOL    HW230915   2.591   4.488   1.729 -1.7752  0.2510 -1.1414
10006SOL     OW30916   5.966   0.905   6.088  0.3251 -0.1151  0.0936
10006SOL    HW130917   5.881   0.878   6.133 -0.1213  2.3107  0.8376
10006SOL    HW230918   6.044   0.873   6.142 -0.1626 -0.1511  0.7845
10007SOL     OW30919   0.945   4.843   3.833 -0.2810  0.1607 -0.4037
10007SOL    HW130920   1.018   4.865   3.898  2.2915 -3.0747 -1.9158
10007SOL    HW230921   0.862   4.817   3.883  0.0588  2.2521  1.3877
10008SOL     OW30922   3.897   1.318   3.895 -0.2577  0.4083  0.5279
10008SOL    HW130923   3.802   1.346   3.907 -1.2431 -1.5432 -1.7992
10008SOL    HW230924   3.915   1.303   3.797  2.3906  0.5066  0.9293
10009SOL     OW30925   2.131   3.806   0.278  0.1504  0.1531  0.2022
10009SOL    HW130926   2.188   3.727   0.256  1.2280  1.4194 -1.9298
10009SOL    HW230927   2.179   3.864   0.344  0.0767 -0.1776  0.5471
10010SOL     OW30928   1.440   5.297   0.221  0.3549  0.0080 -0.3621
10010SOL    HW130929   1.359   5.355   0.231 -0.5135 -1.2713  0.1496
10010SOL    HW230930   1.506   5.321   0.292 -0.0994  0.2131  0.0004
10011SOL     OW30931   6.113   6.773   5.815 -0.5465 -0.0544 -0.0861
10011SOL    HW130932   6.164   6.815   5.740  0.3690 -0.1469  0.4759
10011SOL    HW230933   6.035   6.721   5.777 -1.3472  1.6152 -0.8145
10012SOL     OW30934   6.134   0.742   0.936 -0.3611  0.3518 -0.6598
10012SOL    HW130935   6.179   0.677   0.997  1.7542  1.2778 -1.1342
10012SOL    HW230936   6.102   0.693   0.855  1.5197 -0.1195 -1.1841
10013SOL     OW30937   2.385   2.728   4.331 -0.0491  0.0423 -0.9634
10013SOL    HW130938   2.352   2.783   4.408  1.7325 -0.9027  0.5636
10013SOL    HW230939   2.309   2.683   4.286 -0.9460 -2.5710  2.7691
10014SOL     OW30940   0.386   0.717   1.269  0.3052  0.3472  0.6670
10014SOL    HW130941   0.299   0.676   1.297  0.3348  0.1565  0.4822
10014SOL    HW230942   0.371   0.812   1.243  0.2466  0.4774  1.1581
10015SOL     OW30943   1.858   5.287   0.070 -0.4916  0.0835 -0.4642
10015SOL    HW130944   1.875   5.189   0.085 -1.5418 -0.1253 -0.5791
10015SOL    HW230945   1.922   5.321   0.001  0.8900 -0.1584  0.6601
10016SOL     OW30946   2.137   6.821   3.901 -0.1672 -0.4304 -0.4220
10016SOL    HW130947   2.199   6.759   3.853  1.6104  1.0460 -0.1284
10016SOL    HW230948   2.139   6.800   3.999  1.1586  0.6081 -0.1914
10017SOL     OW30949   1.537   0.963   1.003 -0.0668  0.1970  0.0452
10017SOL    HW130950   1.536   0.895   1.076 -1.7431 -0.6392 -0.6906
10017SOL    HW230951   1.568   1.050   1.039 -0.5881 -0.2693  1.7014
10018SOL     OW30952   0.156   5.088   3.350  0.5545  0.4163 -0.3689
10018SOL    HW130953   0.123   5.081   3.444  1.2138 -0.0583 -0.1643
10018SOL    HW230954   0.253   5.112   3.351  1.0402 -1.3404 -0.8609
10019SOL     OW30955   1.200   0.180   2.571  0.3039  0.1611 -0.9392
10019SOL    HW130956   1.192   0.115   2.495  1.8008 -1.7177  0.4068
10019SOL    HW230957   1.136   0.154   2.643  0.9471  0.1434 -0.3687
10020SOL     OW30958   6.903   0.966   1.761 -0.5281 -0.0630  0.2054
10020SOL    HW130959   6.839   0.890   1.776 -2.7800  1.4042 -1.3261
10020SOL    HW230960   6.991   0.930   1.729 -0.9400 -2.0969  1.2191
10021SOL     OW30961   6.548   2.698   3.161  0.1869  0.1583 -0.9120
10021SOL    HW130962   6.480   2.759   3.119  1.2162  0.6431 -1.9390
10021SOL    HW230963   6.524   2.683   3.257 -0.5528  1.5204 -0.8525
10022SOL     OW30964   1.821   5.436   1.159 -0.4053 -0.1007 -0.1877
10022SOL    HW130965   1.726   5.467   1.164 -0.6600 -1.0288  2.6216
10022SOL    HW230966   1.845   5.416   1.064 -2.9838  0.2323 -0.9846
10023SOL     OW30967   2.708   5.994   4.833  0.4355  0.3956  0.2641
10023SOL    HW130968   2.684   5.962   4.925 -2.0883  0.2205 -0.3900
10023SOL    HW230969   2.788   5.944   4.801  0.9259 -0.0643  2.0789
10024SOL     OW30970   2.272   5.937   3.246 -0.4511  0.1463  0.1354
10024SOL    HW130971   2.328   5.866   3.289 -1.9683 -0.4714  1.2004
10024SOL    HW230972   2.272   6.019   3.303  0.7629  0.8228 -0.7664
10025SOL     OW30973   0.799   3.908   6.587 -0.0974 -0.2173  0.1959
10025SOL    HW130974   0.878   3.967   6.606 -0.3435  1.9056 -4.0580
10025SOL    HW230975   0.831   3.815   6.568  1.1300  0.1154  0.5090
10026SOL     OW30976   4.304   1.218   2.688  0.3429  0.2654  0.0947
10026SOL    HW130977   4.229   1.284   2.694 -1.4620 -1.6354 -0.4335
10026SOL    HW230978   4.391   1.267   2.678 -0.9819  2.5221 -1.1834
10027SOL     OW30979   6.797   3.037   6.315 -0.2967  0.4460  0.0357
10027SOL    HW130980   6.785   3.114   6.252 -0.1335 -0.8262 -1.6221
10027SOL    HW230981   6.883   3.048   6.365  0.4214  0.7055 -1.1970
10028SOL     OW30982   3.684   1.557   2.822  0.5614 -0.1840 -0.6660
10028SOL    HW130983   3.649   1.498   2.894  1.4732  0.7218  0.5544
10028SOL    HW230984   3.619   1.558   2.745 -0.4139 -1.1740  0.1117
10029SOL     OW30985   1.643   2.258   3.006 -0.5751  0.5153  0.1009
10029SOL    HW130986   1.731   2.278   2.963 -0.2064 -1.0493  0.0802
10029SOL    HW230987   1.592   2.193   2.951 -1.0571  0.1812  0.9127
10030SOL     OW30988   1.592   3.136   5.375 -0.1184 -0.2214 -0.1615
10030SOL    HW130989   1.640   3.113   5.290 -1.3786  0.6439 -1.1573
10030SOL    HW230990   1.494   3.137   5.358 -0.3743  0.3903  1.2102
10031SOL     OW30991   4.938   6.312   5.368  1.0369 -0.7463  0.4901
10031SOL    HW130992   4.901   6.246   5.432 -0.7106 -0.4747 -0.1842
10031SOL    HW230993   4.886   6.309   5.283  1.9442  0.3881 -0.1414
10032SOL     OW30994   5.067   0.121   4.151 -0.1889  0.2473  0.6890
10032SOL    HW130995   4.996   0.063   4.190 -0.1795  0.6036  1.2394
10032SOL    HW230996   5.113   0.172   4.223 -0.4111  1.1937  0.1756
10033SOL     OW30997   5.007   3.928   4.054 -0.0165  0.3224 -0.3100
10033SOL    HW130998   5.102   3.923   4.085  0.0466 -0.6405 -0.6085
10033SOL    HW230999   4.997   3.877   3.968 -1.0771 -0.8471  0.4599
10034SOL     OW31000   4.317   0.715   3.871  0.4300  0.2403  0.1199
10034SOL    HW131001   4.302   0.784   3.941 -1.1144 -0.9067  0.9837
10034SOL    HW231002   4.383   0.749   3.804 -0.9519  2.9071 -0.0154
10035SOL     OW31003   1.471   1.098   2.454 -0.4506  0.1473  0.1851
10035SOL    HW131004   1.486   1.006   2.417 -1.6727 -0.3234  0.7876
10035SOL    HW231005   1.553   1.153   2.442  0.8026 -1.4512  1.0452
10036SOL     OW31006   0.377   2.955   0.032 -0.2149 -0.1273 -0.1588
10036SOL    HW131007   0.471   2.938   0.060 -0.6642 -1.5288  0.5662
10036SOL    HW231008   0.377   3.008  -0.054  1.2826 -2.5495 -1.7761
10037SOL     OW31009   5.642   2.840   0.606  0.1345 -0.1708 -0.4036
10037SOL    HW131010   5.661   2.751   0.648  1.1521  0.0906 -0.2851
10037SOL    HW231011   5.547   2.843   0.576 -0.1694 -0.9566  0.4295
10038SOL     OW31012   4.692   6.790   6.907 -0.0857 -0.0084  0.0514
10038SOL    HW131013   4.711   6.783   6.809  2.4335 -0.6895  0.5213
10038SOL    HW231014   4.647   6.707   6.938 -0.0138 -0.2084 -0.3683
10039SOL     OW31015   3.876   6.384   4.848 -0.5340  0.1629 -0.7854
10039SOL    HW131016   3.855   6.480   4.829 -0.3790  0.1978 -0.7816
10039SOL    HW231017   3.961   6.378   4.899 -0.3618  0.0031 -1.0893
10040SOL     OW31018   4.708   4.376   5.737 -0.5608 -0.5495 -0.2069
10040SOL    HW131019   4.769   4.445   5.697 -0.5046  1.6459  3.2403
10040SOL    HW231020   4.614   4.396   5.710 -0.3351 -0.4083 -0.9092
10041SOL     OW31021   5.759   5.949   6.759 -0.0322  0.1122 -0.3430
10041SOL    HW131022   5.703   6.031   6.769 -1.1253 -0.6591  0.0116
10041SOL    HW231023   5.753   5.914   6.666  0.5581  0.5042 -0.5373
10042SOL     OW31024   0.676   1.344   5.121 -0.6520  0.2655 -0.0267
10042SOL    HW131025   0.644   1.420   5.179 -0.3903 -0.4606  1.1090
10042SOL    HW231026   0.672   1.371   5.025 -1.9919  1.1908  0.2591
10043SOL     OW31027   1.551   2.161   4.621 -0.1454 -0.2553 -0.3082
10043SOL    HW131028   1.576   2.075   4.576 -2.1927 -0.9992 -0.1106
10043SOL    HW231029   1.612   2.175   4.699 -0.3288 -2.0412  0.2194
10044SOL     OW31030   0.705   2.891   4.843 -0.3157 -0.2844  0.1452
10044SOL    HW131031   0.753   2.972   4.811 -1.9738  0.6802 -0.0115
10044SOL    HW231032   0.607   2.910   4.849 -0.6856 -2.1087  0.6413
10045SOL     OW31033   4.620   5.649   4.249 -0.0978  0.1107  0.2016
10045SOL    HW131034   4.535   5.688   4.284 -0.3852 -0.6438  0.3731
10045SOL    HW231035   4.611   5.549   4.244  0.3083  0.1271 -1.0526
10046SOL     OW31036   0.017   3.954   2.560  0.6062  0.0508 -0.1205
10046SOL    HW131037  -0.065   4.011   2.549  0.5614  0.0198  0.0533
10046SOL    HW231038   0.096   4.005   2.527  0.4895 -0.0003 -0.4910
10047SOL     OW31039   0.373   3.963   5.007  0.3183 -0.0423 -0.0225
10047SOL    HW131040   0.377   4.032   4.935  0.8455  1.1467  1.1112
10047SOL    HW231041   0.430   3.885   4.981  1.6886  0.9983 -0.2571
10048SOL     OW31042   4.717   1.655   4.071 -0.5486  0.4762 -0.2404
10048SOL    HW131043   4.687   1.750   4.055  0.1441  0.6623 -0.4342
10048SOL    HW231044   4.812   1.655   4.102 -0.4401 -0.1802 -0.5679
10049SOL     OW31045   1.818   6.198   5.529  0.3941 -0.3474 -0.0331
10049SOL    HW131046   1.888   6.136   5.494 -1.0076 -1.0007 -1.8332
10049SOL    HW231047   1.760   6.149   5.594 -0.3470 -0.8068 -1.0064
10050SOL     OW31048   6.421   3.162   6.137 -0.8469 -0.5576  0.3263
10050SOL    HW131049   6.476   3.149   6.219  1.2883  0.0495 -0.9404
10050SOL    HW231050   6.407   3.074   6.092 -1.1756 -0.7565  0.8145
10051SOL     OW31051   5.162   4.261   4.400  0.5883  0.2136 -0.0618
10051SOL    HW131052   5.073   4.218   4.390  1.1169 -0.6899 -1.1653
10051SOL    HW231053   5.179   4.321   4.321  0.3951  1.4851  0.8308
10052SOL     OW31054   1.234   1.987   4.607  0.7562  0.1154  0.1750
10052SOL    HW131055   1.214   1.909   4.547 -1.3546  1.6222 -1.2418
10052SOL    HW231056   1.304   2.044   4.565  1.4746 -0.3870  0.6621
10053SOL     OW31057   5.144   6.200   2.412 -0.1549 -0.0797  0.0159
10053SOL    HW131058   5.140   6.100   2.419 -1.4159 -0.0683 -0.3329
10053SOL    HW231059   5.202   6.236   2.485 -0.8856 -0.9648  1.0701
10054SOL     OW31060   6.695   4.629   6.294 -0.1544 -0.4726  0.2490
10054SOL    HW131061   6.786   4.665   6.274 -0.6352  0.9813  0.5075
10054SOL    HW231062   6.646   4.613   6.208 -0.1405  0.1015  0.1282
10055SOL     OW31063   6.026   0.847   3.906 -0.1323 -0.7456  0.5917
10055SOL    HW131064   5.929   0.872   3.903 -0.0431 -0.3547  0.8798
10055SOL    HW231065   6.038   0.771   3.969 -0.3874 -1.4496 -0.1931
10056SOL     OW31066   5.509   3.819   3.437 -0.0787 -0.1090  0.4713
10056SOL    HW131067   5.437   3.884   3.461  2.3024  2.3817  1.3580
10056SOL    HW231068   5.527   3.758   3.514  0.0803  0.5938  1.0017
10057SOL     OW31069   4.533   0.965   5.738  0.2446  0.2813  0.5274
10057SOL    HW131070   4.625   1.000   5.757 -0.1397  0.4836  2.1188
10057SOL    HW231071   4.537   0.865   5.731  0.6513  0.3210  0.1412
10058SOL     OW31072   1.405   3.879   4.188  0.3761 -0.7744 -0.1208
10058SOL    HW131073   1.347   3.961   4.196  0.5600 -0.3786 -2.3031
10058SOL    HW231074   1.501   3.907   4.183  0.6081 -1.2870  1.0053
10059SOL     OW31075   4.935   6.275   0.845  0.1776 -0.3634  0.1123
10059SOL    HW131076   4.919   6.291   0.748  0.7396 -0.3013  0.0275
10059SOL    HW231077   4.898   6.186   0.871 -0.5414 -0.1124 -0.0132
10060SOL     OW31078   0.057   2.333   2.477  0.5507 -0.5317 -0.3787
10060SOL    HW131079   0.118   2.389   2.421  0.9839 -1.3007 -0.6915
10060SOL    HW231080   0.108   2.296   2.555  0.0647  0.1617  0.2799
10061SOL     OW31081   4.738   0.403   4.932  0.0849 -0.3795 -0.2984
10061SOL    HW131082   4.826   0.431   4.893  0.1591 -0.0507  0.1016
10061SOL    HW231083   4.754   0.351   5.016 -0.0985 -0.5346 -0.3589
10062SOL     OW31084   0.518   6.118   5.762 -0.0817  1.1668  0.2566
10062SOL    HW131085   0.508   6.217   5.749 -1.4650  1.3223  2.0411
10062SOL    HW231086   0.437   6.071   5.725 -0.0138  0.8403  0.5185
10063SOL     OW31087   2.058   2.042   2.369 -0.0782  0.9322 -0.2693
10063SOL    HW131088   2.142   2.002   2.331 -0.0974  0.5445  0.0988
10063SOL    HW231089   2.068   2.053   2.468 -0.2841  1.3217 -0.2911
10064SOL     OW31090   4.998   6.500   0.993 -0.2139  0.1044 -0.0289
10064SOL    HW131091   4.941   6.511   1.075  0.4104  0.0702  0.4168
10064SOL    HW231092   4.970   6.417   0.945  0.5620 -0.8461  1.1083
10065SOL     OW31093   2.231   0.213   2.327  0.2667 -0.1384 -0.4979
10065SOL    HW131094   2.160   0.145   2.309  0.1673 -0.0466 -0.4592
10065SOL    HW231095   2.263   0.251   2.240 -0.4712  0.5640 -0.4741
10066SOL     OW31096   1.876   3.503   2.054 -0.0391 -0.2143 -0.0432
10066SOL    HW131097   1.925   3.525   2.139 -0.8195  0.3358  0.2739
10066SOL    HW231098   1.934   3.446   1.996  0.7255 -0.1139  0.6076
10067SOL     OW31099   0.400   4.841   3.699  0.3152 -0.3889 -0.0096
10067SOL    HW131100   0.441   4.843   3.608  0.7813  0.2507  0.2053
10067SOL    HW231101   0.358   4.929   3.719 -2.8640 -1.5581 -0.9509
10068SOL     OW31102   6.537   4.137   3.656 -0.5006 -0.1047 -0.5086
10068SOL    HW131103   6.503   4.183   3.737  1.3532 -0.1730  0.3626
10068SOL    HW231104   6.462   4.089   3.610 -1.2143 -2.0505  2.4550
10069SOL     OW31105   2.185   6.608   2.191  0.3057 -0.1204  0.3648
10069SOL    HW131106   2.241   6.538   2.236  0.5296 -0.8396 -0.9860
10069SOL    HW231107   2.114   6.563   2.137 -0.1049  0.7357  0.1849
10070SOL     OW31108   4.876   5.385   4.357  0.8840 -0.3021 -0.5409
10070SOL    HW131109   4.877   5.415   4.261  2.1699  0.4614 -0.3083
10070SOL    HW231110   4.794   5.420   4.402  1.3854  1.2934 -0.7934
10071SOL     OW31111   5.465   5.995   3.666  0.0794 -0.1905  0.4929
10071SOL    HW131112   5.458   5.900   3.637  1.8632 -0.2638  0.1937
10071SOL    HW231113   5.394   6.014   3.735 -0.2177 -1.7588  0.6597
10072SOL     OW31114   1.465   6.208   5.003 -0.1144 -0.5747  0.4767
10072SOL    HW131115   1.424   6.118   5.018 -0.2616 -1.1360 -2.7044
10072SOL    HW231116   1.395   6.273   4.974  0.6000 -0.6959 -1.7291
10073SOL     OW31117   5.523   4.180   4.735  0.0884 -0.7461  0.1663
10073SOL    HW131118   5.623   4.187   4.739  0.1184 -0.1507 -1.1883
10073SOL    HW231119   5.497   4.098   4.684 -0.1239 -1.1705  0.9499
10074SOL     OW31120   2.523   6.574   5.374 -0.0570  0.3794  0.2493
10074SOL    HW131121   2.545   6.536   5.284 -0.5075 -0.3513  0.4389
10074SOL    HW231122   2.543   6.506   5.444 -0.7245  0.5473  0.6113
10075SOL     OW31123   6.481   1.719   2.223 -0.0555  0.0570  0.0634
10075SOL    HW131124   6.489   1.655   2.147 -1.1822 -1.0594  0.8398
10075SOL    HW231125   6.474   1.668   2.309  1.6746  1.2839  1.0107
10076SOL     OW31126   1.060   6.774   3.912 -0.2641  0.4430  0.0343
10076SOL    HW131127   1.009   6.699   3.870 -1.1287  1.2917 -0.4940
10076SOL    HW231128   1.070   6.757   4.010 -1.5900  0.2329  0.1567
10077SOL     OW31129   2.557   2.701   6.056  0.0784 -0.2511 -0.5410
10077SOL    HW131130   2.484   2.744   6.004 -1.5232  0.2744  1.9527
10077SOL    HW231131   2.533   2.606   6.076  0.5175 -0.3579 -0.5108
10078SOL     OW31132   6.348   4.593   2.393  0.1150 -0.2461 -0.3391
10078SOL    HW131133   6.354   4.552   2.302  0.9543 -0.4355 -0.2088
10078SOL    HW231134   6.375   4.525   2.461 -0.7101 -0.1649  0.0692
10079SOL     OW31135   6.271   2.233   4.743 -0.3141  0.1891  0.3476
10079SOL    HW131136   6.349   2.189   4.700 -1.2521 -0.8743 -0.3156
10079SOL    HW231137   6.302   2.313   4.794  0.9492  1.0957 -1.6961
10080SOL     OW31138   3.261   1.209   3.395  0.2243  0.0452  0.2574
10080SOL    HW131139   3.306   1.171   3.476 -0.6786 -0.6967  0.4258
10080SOL    HW231140   3.277   1.308   3.392 -0.2587  0.1927  1.7149
10081SOL     OW31141   6.305   6.482   2.253 -0.5856 -0.0875 -0.2490
10081SOL    HW131142   6.310   6.383   2.265 -0.1561 -0.0797 -0.3609
10081SOL    HW231143   6.365   6.528   2.318 -1.2388  0.1349  0.2176
10082SOL     OW31144   5.729   4.127   0.583 -0.4942 -0.1225  0.1214
10082SOL    HW131145   5.736   4.172   0.672 -1.1517  0.4924 -0.1269
10082SOL    HW231146   5.741   4.029   0.594  0.8376  0.0913  0.6908
10083SOL     OW31147   5.923   1.497   1.447 -0.4048  0.4742  0.1043
10083SOL    HW131148   5.844   1.540   1.491 -0.9710 -1.2367  0.8601
10083SOL    HW231149   5.946   1.547   1.364 -1.5790  1.6724  0.4656
10084SOL     OW31150   3.039   1.053   3.492  0.8876 -0.2362  0.8158
10084SOL    HW131151   3.131   1.078   3.459  1.0612 -0.3482  1.2108
10084SOL    HW231152   3.040   0.958   3.522  0.2137 -0.7623 -0.7446
10085SOL     OW31153   1.430   6.551   2.095 -0.0642  0.0835 -0.1756
10085SOL    HW131154   1.425   6.486   2.170 -0.7733  0.7355  0.3592
10085SOL    HW231155   1.459   6.641   2.130  0.1000  0.2673 -0.7647
10086SOL     OW31156   3.864   6.073   1.789  0.0248 -0.2361 -0.8159
10086SOL    HW131157   3.952   6.104   1.825 -0.0197 -0.8159 -0.1889
10086SOL    HW231158   3.862   6.088   1.690  1.3098 -1.2811 -1.0447
10087SOL     OW31159   6.985   0.720   5.357 -0.4373  0.2609 -0.0231
10087SOL    HW131160   7.067   0.673   5.325  0.7718  2.6962 -0.7746
10087SOL    HW231161   6.983   0.718   5.457  1.5330  1.5337  0.1246
10088SOL     OW31162   0.668   0.471   2.253  0.4071 -0.2331  0.1141
10088SOL    HW131163   0.582   0.520   2.241 -0.4400 -1.6406  0.1866
10088SOL    HW231164   0.661   0.380   2.211  1.6956 -0.5529  0.5397
10089SOL     OW31165   4.469   2.099   2.927 -0.0248 -0.3763  0.6569
10089SOL    HW131166   4.504   2.058   3.011  1.3472  0.5515  0.5875
10089SOL    HW231167   4.426   2.187   2.948  2.1193  0.8572  0.2499
10090SOL     OW31168   0.152   5.090   1.464 -0.0584 -0.4798  0.0566
10090SOL    HW131169   0.125   5.000   1.431  0.8942 -0.6515 -0.2973
10090SOL    HW231170   0.117   5.105   1.556 -1.0249 -0.8210 -0.2428
10091SOL     OW31171   0.599   4.773   0.002  0.6785  0.1094 -0.0981
10091SOL    HW131172   0.540   4.853  -0.008  0.1752 -0.2465 -0.0360
10091SOL    HW231173   0.571   4.721   0.082 -0.8017 -1.5953 -1.6226
10092SOL     OW31174   2.154   3.338   5.004 -0.1543 -0.0321  0.3216
10092SOL    HW131175   2.206   3.376   5.080  3.2249  0.2070 -1.8446
10092SOL    HW231176   2.197   3.253   4.974 -0.7845  0.3511 -1.8462
10093SOL     OW31177   0.316   4.390   6.210 -0.1483 -0.1271  0.0827
10093SOL    HW131178   0.252   4.363   6.138 -0.5290 -1.0207  0.7456
10093SOL    HW231179   0.313   4.323   6.284  0.0784  0.8947  1.0365
10094SOL     OW31180   2.092   5.371   1.660 -0.5682  0.5411 -0.3616
10094SOL    HW131181   1.999   5.340   1.637 -0.3647  0.7984 -1.6490
10094SOL    HW231182   2.157   5.321   1.603  0.1532 -0.0611  0.9447
10095SOL     OW31183   0.209   2.618   5.266 -0.4224  0.0244  0.8945
10095SOL    HW131184   0.262   2.701   5.249  0.8395 -0.7046  1.1484
10095SOL    HW231185   0.268   2.537   5.255 -1.0504 -0.7475  2.8031
10096SOL     OW31186   4.738   4.331   2.756  0.1049  0.0822  0.1311
10096SOL    HW131187   4.793   4.368   2.831 -0.0547  1.0959 -0.2413
10096SOL    HW231188   4.763   4.236   2.741  0.2445 -0.1016  1.3775
10097SOL     OW31189   1.946   6.956   0.423  0.7008  0.2846 -0.3850
10097SOL    HW131190   2.031   6.961   0.476 -0.1422  2.1653  0.8967
10097SOL    HW231191   1.906   6.865   0.432  2.9632 -0.9393 -1.7277
10098SOL     OW31192   3.029   6.502   4.621  0.2589 -0.1937 -0.3165
10098SOL    HW131193   2.947   6.528   4.672  0.8220  2.1617 -0.4932
10098SOL    HW231194   3.107   6.500   4.683  0.4178 -0.3707 -0.5219
10099SOL     OW31195   0.676   5.933   5.136 -0.0443  0.0286  0.0499
10099SOL    HW131196   0.602   5.867   5.122  1.0510 -1.1728 -0.1825
10099SOL    HW231197   0.703   5.933   5.233  0.5259 -0.4906 -0.1063
10100SOL     OW31198   0.833   0.226   4.511 -0.0756  0.1048 -0.4007
10100SOL    HW131199   0.866   0.273   4.430 -0.7610  1.0821 -0.1331
10100SOL    HW231200   0.869   0.132   4.513  1.9778  0.8368 -0.5420
10101SOL     OW31201   5.193   4.138   1.082 -0.0912  0.4686 -0.0533
10101SOL    HW131202   5.104   4.101   1.052 -0.0480  1.1331 -1.0404
10101SOL    HW231203   5.266   4.082   1.045 -0.0020  1.8514 -2.1014
10102SOL     OW31204   1.594   1.305   1.640  0.4592 -0.1130  0.1208
10102SOL    HW131205   1.648   1.389   1.648 -1.4249  1.2745 -0.7061
10102SOL    HW231206   1.602   1.268   1.548 -2.1879  1.8550 -1.0692
10103SOL     OW31207   2.829   0.165   5.765 -0.3285  0.7538  0.1891
10103SOL    HW131208   2.811   0.067   5.778  3.8367 -0.4263 -1.5198
10103SOL    HW231209   2.803   0.215   5.848 -2.9152 -1.6288  0.9805
10104SOL     OW31210   1.849   5.896   4.548 -0.2238  0.3741  0.0427
10104SOL    HW131211   1.917   5.827   4.573 -0.5212 -0.4093 -1.2331
10104SOL    HW231212   1.895   5.978   4.515  0.1268 -0.5301 -1.7924
10105SOL     OW31213   0.666   1.696   0.887 -0.2926  0.1682  0.5028
10105SOL    HW131214   0.693   1.694   0.983  1.5688  0.2381  0.0138
10105SOL    HW231215   0.572   1.729   0.879 -0.2961  0.6516  2.2544
10106SOL     OW31216   5.003   5.323   0.630  0.1409 -0.0249  1.1804
10106SOL    HW131217   5.034   5.318   0.535 -0.7758  1.8024  0.7357
10106SOL    HW231218   4.903   5.334   0.632 -0.1627 -2.3657  2.4634
10107SOL     OW31219   0.707   2.537   1.636 -0.2676 -0.5011 -0.5466
10107SOL    HW131220   0.763   2.591   1.699 -2.5009  0.5818  0.6353
10107SOL    HW231221   0.695   2.588   1.551 -0.2772 -0.2681 -0.4072
10108SOL     OW31222   5.811   5.119   6.653 -0.0403 -0.0538  0.1218
10108SOL    HW131223   5.758   5.071   6.722 -1.2463  1.0985  0.0218
10108SOL    HW231224   5.793   5.217   6.658 -0.1443  0.0718 -1.7872
10109SOL     OW31225   3.500   0.706   1.280  0.1520  0.1197  0.0659
10109SOL    HW131226   3.445   0.638   1.330 -0.0905  0.3070  0.0564
10109SOL    HW231227   3.528   0.779   1.343  1.6626 -0.7250  0.4265
10110SOL     OW31228   5.803   6.885   5.414  0.4863 -0.1442 -0.4823
10110SOL    HW131229   5.827   6.936   5.497  1.4166 -0.8038 -0.3254
10110SOL    HW231230   5.814   6.787   5.431 -0.8118 -0.3866 -0.9244
10111SOL     OW31231   5.627   3.940   4.033  0.5144 -0.5466  0.0970
10111SOL    HW131232   5.639   4.039   4.041 -0.0897 -0.4458 -0.2248
10111SOL    HW231233   5.626   3.899   4.125  2.6140 -0.4947  0.1882
10112SOL     OW31234   5.113   3.693   3.486  0.1160 -1.0538 -0.2134
10112SOL    HW131235   5.172   3.643   3.422  0.9547 -0.6400  0.2170
10112SOL    HW231236   5.034   3.728   3.438  1.2188  0.0884 -1.2626
10113SOL     OW31237   3.991   5.896   1.403  0.1532  0.2833  0.1062
10113SOL    HW131238   4.029   5.871   1.314  1.0257 -0.9100  0.7984
10113SOL    HW231239   3.963   5.813   1.452 -0.5281  0.9408  0.8604
10114SOL     OW31240   5.021   1.093   0.480  0.1076 -0.2908  0.0333
10114SOL    HW131241   5.114   1.099   0.516 -0.2763 -0.2520  1.0512
10114SOL    HW231242   5.022   1.045   0.392  1.2186  0.7049 -0.5210
10115SOL     OW31243   4.166   1.882   4.566  0.2590  0.4367  0.0454
10115SOL    HW131244   4.136   1.927   4.482  1.0806  1.2774  0.1866
10115SOL    HW231245   4.094   1.890   4.635 -0.5534 -0.5370 -0.6569
10116SOL     OW31246   1.699   0.395   1.565 -0.2349  0.3932  0.6343
10116SOL    HW131247   1.638   0.370   1.489 -0.7032  1.9428  0.4627
10116SOL    HW231248   1.651   0.457   1.626  1.7818  3.4590 -0.6520
10117SOL     OW31249   5.413   5.151   4.910  0.2199 -0.1044 -0.3779
10117SOL    HW131250   5.417   5.086   4.986  1.2653 -2.0611 -2.0242
10117SOL    HW231251   5.503   5.193   4.898 -0.1536  0.8196 -0.0656
10118SOL     OW31252   1.419   3.126   1.700 -0.2871 -0.2610  0.3224
10118SOL    HW131253   1.346   3.144   1.634  0.0403  1.3006  0.3480
10118SOL    HW231254   1.385   3.064   1.772 -2.0733  1.5472  1.1312
10119SOL     OW31255   0.347   4.152   3.382 -0.0109  0.4583  0.1375
10119SOL    HW131256   0.348   4.109   3.292  0.1718 -1.2159  0.9094
10119SOL    HW231257   0.438   4.187   3.404  0.2215 -0.1389  0.1316
10120SOL     OW31258   1.017   2.764   5.212 -0.1321 -0.0192  0.4652
10120SOL    HW131259   1.072   2.826   5.267  0.5192 -0.1498 -0.0247
10120SOL    HW231260   1.031   2.784   5.115 -1.4911  0.4083  0.3306
10121SOL     OW31261   6.013   5.552   5.508 -0.1682  0.1194 -0.2898
10121SOL    HW131262   6.100   5.594   5.535 -0.2691 -0.9447  1.8736
10121SOL    HW231263   6.026   5.498   5.424  0.5144  2.3597 -1.7018
10122SOL     OW31264   5.500   4.007   2.215 -0.3884  0.5040  0.3863
10122SOL    HW131265   5.571   4.039   2.278  1.2702 -1.1052 -0.5583
10122SOL    HW231266   5.477   3.912   2.237 -2.0073  0.8822  0.4246
10123SOL     OW31267   4.833   6.716   0.129 -0.4271 -0.3613  0.4576
10123SOL    HW131268   4.840   6.693   0.032 -0.7541  0.8534  0.1363
10123SOL    HW231269   4.771   6.792   0.141  0.8234  0.5456  1.4609
10124SOL     OW31270   1.212   5.020   1.753  0.3191 -0.3084  1.0118
10124SOL    HW131271   1.114   5.020   1.775  0.4352 -0.5434  1.5284
10124SOL    HW231272   1.226   4.967   1.669  0.0278 -0.4666  1.0597
10125SOL     OW31273   4.067   1.927   2.833  0.7228 -0.2602  0.0275
10125SOL    HW131274   4.063   1.987   2.914 -1.5692  1.3745 -1.1730
10125SOL    HW231275   4.039   1.835   2.859  1.3728 -0.1191  1.3456
10126SOL     OW31276   4.816   1.028   0.667  0.1225 -0.2606 -0.2592
10126SOL    HW131277   4.843   1.090   0.741  0.9317 -1.9269  0.9028
10126SOL    HW231278   4.870   1.049   0.586  1.2987 -0.2204  0.4983
10127SOL     OW31279   4.849   3.575   5.945  0.1403  0.1662  0.5103
10127SOL    HW131280   4.779   3.542   6.008 -0.5897  0.5598 -0.0854
10127SOL    HW231281   4.842   3.674   5.936 -1.0531 -0.0486 -1.6485
10128SOL     OW31282   3.900   1.304   6.567  0.4012 -0.1640  0.1259
10128SOL    HW131283   3.987   1.269   6.533  0.9463  0.6193  0.6518
10128SOL    HW231284   3.894   1.286   6.666  1.5288  2.6826  0.8173
10129SOL     OW31285   6.304   3.747   3.854 -0.1012  0.2811 -0.0110
10129SOL    HW131286   6.279   3.830   3.805 -2.6680  0.0430  0.7502
10129SOL    HW231287   6.285   3.759   3.952  0.0684 -1.0045  0.1979
10130SOL     OW31288   0.149   3.008   2.551  0.5375 -0.0381  0.0928
10130SOL    HW131289   0.188   3.071   2.618  0.1554  0.7823 -0.4390
10130SOL    HW231290   0.089   2.942   2.597  1.3850 -0.3871  0.7228
10131SOL     OW31291   1.753   1.547   5.628 -0.2851 -0.0027  0.3420
10131SOL    HW131292   1.697   1.603   5.689 -0.2861 -0.2659  0.5864
10131SOL    HW231293   1.705   1.534   5.541  0.9206  2.7355 -0.8236
10132SOL     OW31294   1.846   6.485   6.786 -0.1092  0.8670  0.2490
10132SOL    HW131295   1.829   6.579   6.757 -1.8949  0.8366  1.0283
10132SOL    HW231296   1.849   6.481   6.886 -2.3949 -0.2030  0.3372
10133SOL     OW31297   4.426   0.712   1.015 -0.1707 -0.5323  0.4474
10133SOL    HW131298   4.375   0.709   0.929 -2.2460 -0.5704  1.5977
10133SOL    HW231299   4.524   0.709   0.996 -0.4418  2.2826 -2.0380
10134SOL     OW31300   0.448   4.724   4.932 -0.1862  0.2163  0.3449
10134SOL    HW131301   0.386   4.790   4.974 -0.9633  0.6575 -1.3801
10134SOL    HW231302   0.439   4.636   4.977 -1.9242  0.3292  0.2767
10135SOL     OW31303   5.139   3.046   3.642 -0.2307  0.0101  0.5081
10135SOL    HW131304   5.131   2.955   3.600  0.7663 -0.4108  1.2023
10135SOL    HW231305   5.181   3.109   3.578  2.0388 -0.8305  1.0820
10136SOL     OW31306   6.804   3.049   2.417 -0.2765 -0.0665 -0.0415
10136SOL    HW131307   6.775   3.023   2.509 -1.2822  0.0351 -0.3267
10136SOL    HW231308   6.904   3.056   2.415 -0.2712  0.4326  1.1728
10137SOL     OW31309   3.257   4.935   4.258  0.3080  0.2082 -0.3598
10137SOL    HW131310   3.354   4.930   4.236  0.3356 -0.4789 -0.1095
10137SOL    HW231311   3.204   4.892   4.186  0.3240 -1.0531  0.3550
10138SOL     OW31312   3.585   2.198   6.809  0.1413  1.2395 -0.0353
10138SOL    HW131313   3.616   2.287   6.843  0.6287  1.3378 -0.7000
10138SOL    HW231314   3.537   2.149   6.881  2.0209  1.0140  1.1325
10139SOL     OW31315   3.868   3.662   2.347 -0.0330 -0.2667  0.0850
10139SOL    HW131316   3.862   3.568   2.314 -0.0147 -0.0009 -0.7120
10139SOL    HW231317   3.925   3.666   2.429 -1.7467 -1.2574  1.3869
10140SOL     OW31318   5.239   5.232   6.111 -0.9274 -0.0073 -0.1639
10140SOL    HW131319   5.227   5.173   6.032  0.5090 -1.9206  0.9535
10140SOL    HW231320   5.260   5.176   6.192  0.3907  1.9994  0.9842
10141SOL     OW31321   5.090   0.410   3.273  0.4795  0.1336  0.0587
10141SOL    HW131322   5.126   0.358   3.196 -1.6531 -0.2089 -0.7598
10141SOL    HW231323   5.057   0.499   3.242  0.1669  0.2444  0.6819
10142SOL     OW31324   6.661   6.820   5.838  0.0041 -0.4546  0.3543
10142SOL    HW131325   6.710   6.865   5.764  0.2749  0.1639  0.9036
10142SOL    HW231326   6.633   6.728   5.808  0.0064 -0.1724 -0.5467
10143SOL     OW31327   0.425   2.761   5.804  0.7011  0.4312  0.1180
10143SOL    HW131328   0.490   2.751   5.880  0.5184 -1.3514  0.0810
10143SOL    HW231329   0.335   2.730   5.833  0.0159  2.1694 -0.0683
10144SOL     OW31330   2.621   1.127   4.413 -0.1210 -0.1925  0.2554
10144SOL    HW131331   2.530   1.119   4.455  0.5127 -1.5476  1.4494
10144SOL    HW231332   2.612   1.121   4.314 -1.7366  3.6554 -0.0261
10145SOL     OW31333   2.093   5.099   4.463 -0.0353  0.3454 -0.4810
10145SOL    HW131334   2.142   5.185   4.472 -0.0338  0.2443  0.5841
10145SOL    HW231335   2.148   5.035   4.409  1.6780 -0.2025  1.7429
10146SOL     OW31336   5.029   5.252   4.000 -0.2763  0.0504  0.1674
10146SOL    HW131337   5.088   5.307   4.059  0.0390  3.3252 -2.8849
10146SOL    HW231338   4.935   5.254   4.035  0.4052 -0.9852  2.2831
10147SOL     OW31339   6.276   5.354   4.640  0.2112 -0.4020  0.4069
10147SOL    HW131340   6.310   5.348   4.546 -0.2132 -1.8610  0.3152
10147SOL    HW231341   6.178   5.333   4.642 -0.1694  1.2830  0.9822
10148SOL     OW31342   3.703   5.376   6.994  0.3098 -0.3544 -0.2691
10148SOL    HW131343   3.643   5.455   6.975  0.5123  0.0199  0.6157
10148SOL    HW231344   3.651   5.292   6.980 -0.0583 -0.0609 -0.7369
10149SOL     OW31345   3.149   4.222   6.885  0.1540 -0.1727 -0.3807
10149SOL    HW131346   3.086   4.166   6.939 -0.4913 -0.2980 -1.2436
10149SOL    HW231347   3.143   4.196   6.788  0.8773  0.4278 -0.5976
10150SOL     OW31348   3.332   4.309   1.196 -0.1357 -0.0826  0.1477
10150SOL    HW131349   3.372   4.390   1.152 -0.5389 -1.0690 -2.1758
10150SOL    HW231350   3.236   4.326   1.217  0.1732  0.5525  1.1167
10151SOL     OW31351   1.112   5.729   6.390  0.2949 -0.1308  0.0091
10151SOL    HW131352   1.145   5.702   6.299 -0.1473 -1.0595  0.1129
10151SOL    HW231353   1.137   5.824   6.407 -0.3561  0.3371 -1.4329
10152SOL     OW31354   6.709   5.823   4.640  0.0985 -0.4109 -0.1745
10152SOL    HW131355   6.797   5.864   4.667 -1.9307  2.0248  3.6218
10152SOL    HW231356   6.660   5.887   4.581 -0.1851 -0.5977 -0.1385
10153SOL     OW31357   4.254   5.495   3.238 -0.3113 -0.1627  0.0660
10153SOL    HW131358   4.318   5.560   3.197 -0.3583 -1.4924 -2.2504
10153SOL    HW231359   4.191   5.544   3.298  0.3335  1.7524 -0.7549
10154SOL     OW31360   3.237   6.585   5.832 -0.1552 -0.1221  0.0451
10154SOL    HW131361   3.278   6.579   5.923  1.0883  1.4539 -0.3741
10154SOL    HW231362   3.309   6.592   5.763 -1.0802 -1.3270 -1.0979
10155SOL     OW31363   3.089   1.798   6.603 -0.6085  0.5813 -0.3773
10155SOL    HW131364   3.074   1.870   6.535 -1.6594  0.3932 -0.3713
10155SOL    HW231365   3.103   1.711   6.557 -0.7466  0.5526 -0.3660
10156SOL     OW31366   6.783   0.559   2.168  0.1619  0.4511  0.6476
10156SOL    HW131367   6.706   0.548   2.105 -0.2508 -1.7504  1.4173
10156SOL    HW231368   6.851   0.487   2.151  0.4481  0.3376  2.1026
10157SOL     OW31369   1.155   6.980   0.607  0.2039  0.0396 -0.7015
10157SOL    HW131370   1.158   6.885   0.637  2.4954  1.0035  2.6872
10157SOL    HW231371   1.248   7.012   0.589 -0.4364  1.8453 -0.9743
10158SOL     OW31372   5.834   0.727   2.108  0.5722  0.6172 -0.4191
10158SOL    HW131373   5.776   0.771   2.039 -3.1983  0.2621  2.1937
10158SOL    HW231374   5.794   0.639   2.134  2.6109  0.0908  1.2320
10159SOL     OW31375   0.768   4.283   1.207 -0.1125 -0.3341 -0.6072
10159SOL    HW131376   0.859   4.250   1.185  0.6694  0.8062  0.7295
10159SOL    HW231377   0.743   4.357   1.145  0.2864 -0.0026 -0.3785
10160SOL     OW31378   6.723   3.956   2.751  0.1502  0.5798  0.3554
10160SOL    HW131379   6.716   3.909   2.663  1.1224 -0.1577  0.6455
10160SOL    HW231380   6.639   4.007   2.769 -0.5434 -0.2605 -0.4253
10161SOL     OW31381   3.154   3.532   1.971  0.4000 -0.2436 -0.7141
10161SOL    HW131382   3.249   3.501   1.972  0.0231 -1.5191 -1.4417
10161SOL    HW231383   3.145   3.608   1.906  0.8704 -0.3084 -0.8627
10162SOL     OW31384   3.706   3.361   0.793  0.1228  0.1703  0.6451
10162SOL    HW131385   3.805   3.348   0.806  0.5298  0.6424 -1.5951
10162SOL    HW231386   3.675   3.438   0.849  0.7737 -0.6453  2.1964
10163SOL     OW31387   5.790   3.515   1.352 -0.3575  0.1256  0.2518
10163SOL    HW131388   5.838   3.499   1.266  1.7035  0.0873  1.3491
10163SOL    HW231389   5.697   3.479   1.345  0.4353 -1.8226 -1.2279
10164SOL     OW31390   6.426   4.468   4.261 -0.6239 -0.0192  0.0904
10164SOL    HW131391   6.355   4.529   4.298 -0.8633 -0.4353  0.3163
10164SOL    HW231392   6.495   4.452   4.332 -0.9318 -0.5823  0.2664
10165SOL     OW31393   0.405   2.706   5.028 -0.3971  0.5523  0.1704
10165SOL    HW131394   0.417   2.716   5.126 -2.3364  0.2340  0.4708
10165SOL    HW231395   0.410   2.797   4.985  1.7379  0.5822  0.3336
10166SOL     OW31396   1.942   2.194   3.311 -0.0231  0.0793  0.4731
10166SOL    HW131397   1.905   2.110   3.349 -0.0071 -0.3636 -0.4491
10166SOL    HW231398   2.008   2.233   3.375  1.9680 -2.0251 -0.1130
10167SOL     OW31399   2.918   2.855   6.594 -0.0109 -0.3787  0.0770
10167SOL    HW131400   2.891   2.802   6.675  0.3342  0.0317  0.4648
10167SOL    HW231401   2.899   2.952   6.609  0.6768 -0.2177 -0.0664
10168SOL     OW31402   6.440   4.657   6.498  0.1445  0.5359 -0.0242
10168SOL    HW131403   6.498   4.576   6.506 -1.4634 -0.8629 -1.5965
10168SOL    HW231404   6.494   4.733   6.461  1.8448  0.4406  2.0926
10169SOL     OW31405   5.797   4.156   2.931  0.6071 -0.5601 -0.7895
10169SOL    HW131406   5.773   4.059   2.931  0.9850 -0.6803  0.7680
10169SOL    HW231407   5.896   4.165   2.926  0.5671 -0.2426 -1.0279
10170SOL     OW31408   0.289   5.665   5.455 -0.2610 -0.0892 -0.4274
10170SOL    HW131409   0.342   5.746   5.429 -1.0488  0.3398 -0.7380
10170SOL    HW231410   0.202   5.694   5.494  0.0067 -0.7725  0.7248
10171SOL     OW31411   0.030   1.600   3.910 -0.7680  0.2238 -0.5222
10171SOL    HW131412   0.011   1.516   3.961 -0.3798 -0.2117 -1.0754
10171SOL    HW231413  -0.011   1.594   3.819 -1.1410  0.8396 -0.4020
10172SOL     OW31414   1.322   6.398   5.646 -0.2388 -0.0904  0.2574
10172SOL    HW131415   1.230   6.420   5.614  0.0995 -1.8305 -2.1435
10172SOL    HW231416   1.365   6.334   5.583  1.7298 -1.2730  2.6443
10173SOL     OW31417   0.024   3.253   2.823 -0.0571  0.1533  0.2029
10173SOL    HW131418  -0.042   3.184   2.853  0.3120 -0.4659 -0.3845
10173SOL    HW231419   0.047   3.313   2.900  1.5309 -1.9226  1.4456
10174SOL     OW31420   6.438   0.035   4.428 -0.3324  0.3683 -0.0961
10174SOL    HW131421   6.469   0.035   4.524  0.5736  2.4397 -0.3325
10174SOL    HW231422   6.342   0.007   4.424 -0.1688 -0.5047  1.3212
10175SOL     OW31423   6.520   1.415   2.699  0.2806 -0.0209  0.7282
10175SOL    HW131424   6.451   1.359   2.653  0.6779  2.3972 -3.3944
10175SOL    HW231425   6.477   1.471   2.770 -1.6579  0.0303 -0.4166
10176SOL     OW31426   0.759   4.910   6.048 -0.2717 -0.0433  0.0908
10176SOL    HW131427   0.854   4.937   6.064  0.4353 -2.2035 -0.0519
10176SOL    HW231428   0.737   4.923   5.952 -0.2565  0.8377  0.2013
10177SOL     OW31429   3.150   1.957   2.723  0.6616  0.5060  0.3726
10177SOL    HW131430   3.210   1.940   2.645 -1.0867  1.9329 -1.3839
10177SOL    HW231431   3.081   2.025   2.698 -0.7733  0.0583  2.7720
10178SOL     OW31432   0.228   1.016   5.533 -0.1662 -0.2811  0.2192
10178SOL    HW131433   0.137   0.981   5.509 -0.8906  1.8555 -0.3931
10178SOL    HW231434   0.272   1.054   5.451  0.8448 -0.3492  0.7168
10179SOL     OW31435   6.608   4.197   5.245 -0.4427 -0.4500  0.2161
10179SOL    HW131436   6.626   4.250   5.162 -0.9998 -1.1553 -0.3801
10179SOL    HW231437   6.658   4.110   5.240  1.6179  0.5651  1.8389
10180SOL     OW31438   3.975   0.209   6.088  0.4428 -0.1060 -0.0809
10180SOL    HW131439   3.887   0.216   6.043  0.9843 -1.8371 -1.5366
10180SOL    HW231440   3.994   0.294   6.137 -2.1765  0.1521  0.6234
10181SOL     OW31441   6.612   4.401   2.082  0.4090  0.3095  0.0547
10181SOL    HW131442   6.691   4.360   2.037  0.0102  0.7312 -1.0530
10181SOL    HW231443   6.603   4.363   2.174  0.2001 -1.8836 -0.8283
10182SOL     OW31444   4.686   0.467   1.191 -0.2536 -0.5408 -0.1847
10182SOL    HW131445   4.603   0.420   1.161  0.4924 -1.7856 -0.3409
10182SOL    HW231446   4.692   0.556   1.145 -0.1237 -1.5853 -2.2864
10183SOL     OW31447   0.964   2.018   0.346  0.0777 -0.4284  0.4055
10183SOL    HW131448   0.983   2.026   0.248 -2.3016  0.3411 -0.0485
10183SOL    HW231449   0.976   2.107   0.390  1.4352 -0.8349  0.9256
10184SOL     OW31450   4.390   0.519   5.154  0.6322 -0.3509 -0.1539
10184SOL    HW131451   4.460   0.588   5.136 -0.1460 -0.1451 -2.6565
10184SOL    HW231452   4.318   0.525   5.085 -1.6207 -0.9331  1.9844
10185SOL     OW31453   5.045   3.984   2.799  0.0001 -0.4677 -0.5453
10185SOL    HW131454   5.027   3.894   2.838 -2.1080 -0.1711 -0.7242
10185SOL    HW231455   5.089   4.042   2.868  0.1043 -1.2067  0.0223
10186SOL     OW31456   4.851   3.662   4.440  0.1577 -0.1806 -0.5883
10186SOL    HW131457   4.868   3.733   4.508  2.4498 -1.4767  0.2969
10186SOL    HW231458   4.845   3.573   4.486  0.2004 -0.8969 -1.9233
10187SOL     OW31459   0.313   3.754   0.121 -0.0644 -0.1093 -0.0124
10187SOL    HW131460   0.402   3.796   0.103  1.3160 -1.6241  2.7144
10187SOL    HW231461   0.322   3.655   0.114 -1.6798 -0.2718 -0.1076
10188SOL     OW31462   4.573   4.064   6.072  0.0685 -0.0310 -0.3248
10188SOL    HW131463   4.586   4.163   6.073 -1.0192  0.1193  0.6654
10188SOL    HW231464   4.633   4.021   6.140  1.6351 -0.2370 -1.7672
10189SOL     OW31465   1.337   0.783   0.604 -0.0693  0.4462  0.4226
10189SOL    HW131466   1.248   0.754   0.567  0.0253 -0.9235  1.1975
10189SOL    HW231467   1.322   0.836   0.688 -0.1547 -0.9524  1.3264
10190SOL     OW31468   5.899   3.533   2.890 -0.1908 -0.3614  0.0802
10190SOL    HW131469   5.947   3.457   2.846  0.3827 -0.9395  1.6143
10190SOL    HW231470   5.895   3.517   2.989  0.2163  1.7414  0.4897
10191SOL     OW31471   5.036   5.529   6.793 -0.1580  0.7137 -0.1818
10191SOL    HW131472   5.023   5.543   6.891  0.8694  1.0190 -0.0808
10191SOL    HW231473   5.111   5.464   6.778 -2.3797 -1.9271 -0.7212
10192SOL     OW31474   5.402   0.523   5.214 -0.1067 -0.1144  0.1855
10192SOL    HW131475   5.364   0.468   5.289  1.2063  0.3447  1.2196
10192SOL    HW231476   5.383   0.619   5.231 -0.0327 -0.0269 -0.2280
10193SOL     OW31477   4.637   3.332   1.193 -0.7169 -0.5365 -0.1614
10193SOL    HW131478   4.728   3.362   1.222 -0.6597 -2.0896  1.4193
10193SOL    HW231479   4.646   3.254   1.130 -0.9489 -0.3041 -0.4841
10194SOL     OW31480   5.024   4.351   4.061 -0.1944 -0.2418  0.0160
10194SOL    HW131481   4.961   4.310   4.128 -2.1220 -0.8984 -2.0523
10194SOL    HW231482   5.089   4.410   4.108 -1.5358 -0.5522  2.4409
10195SOL     OW31483   6.846   6.340   6.038 -0.5717 -1.2458  0.1014
10195SOL    HW131484   6.760   6.316   5.993 -0.1706 -0.5144 -1.1011
10195SOL    HW231485   6.919   6.281   6.003  0.3376  1.2040 -2.5522
10196SOL     OW31486   4.506   1.334   6.520 -0.2092  0.3962  0.7173
10196SOL    HW131487   4.564   1.377   6.451 -1.5798  0.4219 -0.4737
10196SOL    HW231488   4.552   1.254   6.558  1.2212  1.2929  0.9422
10197SOL     OW31489   5.445   1.653   5.504 -0.0905 -0.1288  0.1143
10197SOL    HW131490   5.496   1.573   5.472 -0.9967 -0.3886 -0.7142
10197SOL    HW231491   5.385   1.686   5.431  0.3057  1.3537  0.4071
10198SOL     OW31492   2.911   6.492   1.473  0.1639  0.1626  0.2223
10198SOL    HW131493   3.011   6.492   1.481  0.1804 -2.1260  0.8773
10198SOL    HW231494   2.884   6.438   1.394 -0.5757  2.0069 -0.8392
10199SOL     OW31495   0.776   2.701   6.850  0.2713  0.3520  0.0472
10199SOL    HW131496   0.730   2.650   6.923 -1.5663  0.9274 -0.6372
10199SOL    HW231497   0.869   2.725   6.879 -0.6055  1.1222  2.4796
10200SOL     OW31498   4.359   2.383   5.348 -0.1553 -0.3653  0.0959
10200SOL    HW131499   4.308   2.321   5.408  0.6175 -3.8963 -2.6140
10200SOL    HW231500   4.303   2.407   5.269  1.3102 -2.1073 -1.5623
10201SOL     OW31501   1.303   3.513   0.263  0.2350 -0.5479  0.2647
10201SOL    HW131502   1.236   3.581   0.233  1.9590  0.2962 -1.9881
10201SOL    HW231503   1.277   3.423   0.226 -0.6256 -0.6099  0.9918
10202SOL     OW31504   1.970   4.214   2.001 -0.0683  0.1863  0.4638
10202SOL    HW131505   2.037   4.271   2.049  0.4547  0.0715 -0.1185
10202SOL    HW231506   1.898   4.272   1.962  1.0771  0.6067 -1.1261
10203SOL     OW31507   5.800   3.595   2.107 -0.1279 -0.3847  0.0234
10203SOL    HW131508   5.847   3.508   2.087 -1.0846 -0.8753 -0.1623
10203SOL    HW231509   5.702   3.579   2.111 -0.1912  0.2469  2.2910
10204SOL     OW31510   4.249   4.856   6.066  0.2201  0.0739  0.3098
10204SOL    HW131511   4.267   4.947   6.104  1.3389  0.5171 -1.2018
10204SOL    HW231512   4.273   4.855   5.969 -2.3041 -1.0760 -0.3967
10205SOL     OW31513   3.925   1.154   2.496  0.1572 -0.1415  0.0816
10205SOL    HW131514   3.872   1.104   2.428  0.9774  0.0275 -0.6963
10205SOL    HW231515   3.905   1.252   2.490 -0.4826 -0.2201  0.7401
10206SOL     OW31516   6.759   6.694   4.447  0.2959 -0.0403  0.4356
10206SOL    HW131517   6.762   6.720   4.544  0.0900 -2.4817  1.1609
10206SOL    HW231518   6.688   6.747   4.401  0.1118  0.8711  1.7058
10207SOL     OW31519   6.581   2.870   5.280 -0.1129 -0.0458 -0.6249
10207SOL    HW131520   6.677   2.845   5.267  0.5450  1.8411  0.1760
10207SOL    HW231521   6.567   2.965   5.252 -1.9086 -0.4596 -1.2871
10208SOL     OW31522   5.268   5.557   3.523 -0.3850  0.1445  0.3837
10208SOL    HW131523   5.271   5.469   3.476  1.6241  2.1721 -3.9156
10208SOL    HW231524   5.196   5.614   3.482 -1.5643  0.6867  2.9827
10209SOL     OW31525   0.498   1.511   5.554 -0.2950 -0.0131 -0.3977
10209SOL    HW131526   0.504   1.594   5.610 -1.9076 -0.1069 -0.0503
10209SOL    HW231527   0.404   1.478   5.553  0.2916 -1.7649 -0.6732
10210SOL     OW31528   4.999   6.026   1.198 -0.1438 -0.2016  0.2199
10210SOL    HW131529   4.906   6.002   1.172  0.0210 -2.4068  1.3958
10210SOL    HW231530   4.997   6.098   1.268 -1.0191 -0.6452  0.6682
10211SOL     OW31531   4.555   4.746   4.528 -0.0033 -0.5961  0.0783
10211SOL    HW131532   4.461   4.779   4.535  0.5951  1.0851  0.6390
10211SOL    HW231533   4.586   4.715   4.617  0.7753  1.2660  0.5056
10212SOL     OW31534   5.023   1.084   4.183 -0.2926 -0.2284 -0.6105
10212SOL    HW131535   4.980   1.173   4.166  0.4536  0.1124 -0.7615
10212SOL    HW231536   5.108   1.078   4.131 -0.4347 -1.1154 -0.7590
10213SOL     OW31537   3.962   1.896   1.933  0.0267 -0.1523  0.2573
10213SOL    HW131538   3.900   1.859   2.003  0.1795 -2.4930 -0.7557
10213SOL    HW231539   3.923   1.880   1.842  0.7056  1.1489 -0.2932
10214SOL     OW31540   5.666   1.895   1.323 -0.4852  0.1591  0.0095
10214SOL    HW131541   5.599   1.822   1.310  0.8881 -1.1182 -0.1013
10214SOL    HW231542   5.638   1.976   1.272 -0.7009 -1.1613 -2.0741
10215SOL     OW31543   3.396   2.865   3.524  0.8162  0.0310  0.5657
10215SOL    HW131544   3.362   2.895   3.435 -0.7539 -0.0177  1.1226
10215SOL    HW231545   3.368   2.771   3.541  3.1625 -0.8249  0.1209
10216SOL     OW31546   1.337   6.750   3.055 -0.2774 -0.7196  0.2512
10216SOL    HW131547   1.343   6.802   2.971 -1.9780  0.6832  0.9441
10216SOL    HW231548   1.407   6.781   3.120 -1.4384  0.9422  0.7533
10217SOL     OW31549   1.141   2.691   1.928 -0.3841  0.0543 -0.4746
10217SOL    HW131550   1.110   2.731   2.014 -0.3284  1.8711 -1.2539
10217SOL    HW231551   1.182   2.602   1.946 -0.0063  0.5614  1.4234
10218SOL     OW31552   6.643   0.171   2.443 -0.6525  0.2044  0.3868
10218SOL    HW131553   6.661   0.141   2.349  0.0411  1.1026  0.2229
10218SOL    HW231554   6.578   0.247   2.443  1.4507  2.1029  0.3730
10219SOL     OW31555   1.453   2.511   3.534 -0.0678 -0.3069  0.5852
10219SOL    HW131556   1.524   2.546   3.473 -0.5392 -0.0487  0.1781
10219SOL    HW231557   1.401   2.439   3.487  0.7768 -1.4604  1.3523
10220SOL     OW31558   6.814   0.569   3.039  0.2941 -0.2948  0.7662
10220SOL    HW131559   6.726   0.551   3.083  0.0397 -0.1550  0.3230
10220SOL    HW231560   6.804   0.645   2.975  0.8204 -0.0648  0.9550
10221SOL     OW31561   1.895   3.383   3.063  0.4026  0.0115 -0.2569
10221SOL    HW131562   1.961   3.434   3.117  0.5260  0.4698 -0.8303
10221SOL    HW231563   1.943   3.312   3.010  0.1433 -1.2740  1.1502
10222SOL     OW31564   2.797   4.877   5.594 -0.4097 -0.1350 -0.5430
10222SOL    HW131565   2.791   4.821   5.511  1.4055 -0.8922 -0.2272
10222SOL    HW231566   2.814   4.972   5.569 -0.3083 -0.2855 -1.0675
10223SOL     OW31567   3.479   3.349   0.274  0.2476 -0.2508  0.0128
10223SOL    HW131568   3.485   3.352   0.174 -1.1543  0.1847 -0.0830
10223SOL    HW231569   3.389   3.383   0.303  0.4664 -0.7914  1.4039
10224SOL     OW31570   5.666   2.579   5.233 -0.1991 -0.0598 -0.2220
10224SOL    HW131571   5.660   2.640   5.312  0.6152 -1.1750  0.7376
10224SOL    HW231572   5.717   2.625   5.160  0.0303  0.5674  0.3194
10225SOL     OW31573   6.073   5.850   6.234  0.2974 -0.3088  0.4700
10225SOL    HW131574   5.981   5.872   6.265  0.4334  0.8118  0.1230
10225SOL    HW231575   6.103   5.764   6.276 -0.4334 -0.0539  1.5438
10226SOL     OW31576   2.859   6.224   6.000  0.1453  0.2494  0.2890
10226SOL    HW131577   2.836   6.257   5.908 -0.7699  0.4165  0.5677
10226SOL    HW231578   2.958   6.209   6.006  0.1182 -0.7102 -1.0309
10227SOL     OW31579   5.734   5.794   1.472  0.8783  0.4514  0.5353
10227SOL    HW131580   5.804   5.853   1.513 -0.1875  1.4487  0.9793
10227SOL    HW231581   5.720   5.714   1.530 -0.5540  1.8043  2.1738
10228SOL     OW31582   6.395   0.554   3.365  1.2113 -1.0952 -0.0021
10228SOL    HW131583   6.473   0.538   3.426  3.1896  2.0584 -1.4792
10228SOL    HW231584   6.321   0.597   3.416  1.7165 -1.0802  0.7353
10229SOL     OW31585   3.026   2.175   3.825  0.7492 -0.3834 -0.8598
10229SOL    HW131586   3.096   2.223   3.772  1.1397 -0.7760 -0.7130
10229SOL    HW231587   3.032   2.202   3.921 -0.6270  1.1011 -1.1538
10230SOL     OW31588   6.253   6.230   1.079  0.8810  0.7209 -0.7496
10230SOL    HW131589   6.192   6.284   1.137 -0.7972 -0.5763 -1.2316
10230SOL    HW231590   6.348   6.251   1.102  0.2787  1.3844  1.3867
10231SOL     OW31591   6.806   4.526   5.404 -0.0785  0.3131  0.6425
10231SOL    HW131592   6.856   4.554   5.486 -1.1684  0.2397  1.3647
10231SOL    HW231593   6.720   4.482   5.431 -0.9020  1.1175 -0.5430
10232SOL     OW31594   3.460   0.477   4.314 -0.5942  0.2336  0.3893
10232SOL    HW131595   3.403   0.530   4.376 -0.0614  0.7105  0.4746
10232SOL    HW231596   3.514   0.538   4.257  0.1329 -0.2066  0.5875
10233SOL     OW31597   3.524   4.476   5.551  0.8708 -0.4942  0.2143
10233SOL    HW131598   3.539   4.450   5.647 -0.7725 -0.3132  0.5458
10233SOL    HW231599   3.570   4.563   5.533 -1.1602  0.9957  1.7166
10234SOL     OW31600   6.006   6.308   1.263 -0.3047 -0.1215 -0.5873
10234SOL    HW131601   5.919   6.286   1.307 -0.1577 -0.4325 -0.4486
10234SOL    HW231602   6.020   6.407   1.263  0.0282 -0.1495  0.7161
10235SOL     OW31603   2.918   2.157   1.759 -0.9424  0.2030  0.0844
10235SOL    HW131604   2.937   2.225   1.830 -0.8933 -0.1278  0.3903
10235SOL    HW231605   2.938   2.065   1.794 -0.5319  0.0655 -0.4919
10236SOL     OW31606   1.198   6.555   1.962  0.0280  0.0095 -0.1474
10236SOL    HW131607   1.295   6.550   1.987  0.2548 -0.0443 -1.0071
10236SOL    HW231608   1.176   6.648   1.930 -0.5337  0.4038  1.2952
10237SOL     OW31609   1.071   3.979   3.584 -0.4146  0.4289 -0.2941
10237SOL    HW131610   1.169   4.001   3.591 -0.2530 -0.5040  0.5110
10237SOL    HW231611   1.051   3.896   3.636 -1.9780  1.6439  1.1653
10238SOL     OW31612   3.366   4.020   2.726 -0.6357 -0.4285  0.1088
10238SOL    HW131613   3.318   4.041   2.811 -0.1621  1.7263 -0.0866
10238SOL    HW231614   3.448   4.078   2.719 -1.3651  0.4410 -2.4017
10239SOL     OW31615   2.152   3.821   6.991 -0.4023  0.0406 -0.5328
10239SOL    HW131616   2.080   3.857   6.933  0.6693  0.0480 -1.9057
10239SOL    HW231617   2.122   3.824   7.087 -1.6512  1.3993 -0.9213
10240SOL     OW31618   1.542   3.641   1.324  0.0864  0.0297 -0.1954
10240SOL    HW131619   1.605   3.718   1.320 -0.2257  0.2643 -0.7626
10240SOL    HW231620   1.593   3.555   1.315  0.2954  0.2326 -1.0297
10241SOL     OW31621   1.314   0.704   3.351  0.1710  0.0078 -0.2282
10241SOL    HW131622   1.370   0.634   3.307 -1.1123  0.7308 -3.2426
10241SOL    HW231623   1.218   0.675   3.350  0.0129  0.2366  1.8994
10242SOL     OW31624   1.208   1.268   2.961  0.2940  0.4980  0.0125
10242SOL    HW131625   1.203   1.313   3.050 -0.5095  0.8195 -0.1913
10242SOL    HW231626   1.145   1.312   2.897 -0.9747 -1.2963 -0.0378
10243SOL     OW31627   1.402   4.287   2.097  0.2011  0.4861  0.0580
10243SOL    HW131628   1.440   4.232   2.022 -0.5607  1.0405 -0.7464
10243SOL    HW231629   1.473   4.349   2.132  0.5622  0.2215 -0.1998
10244SOL     OW31630   0.271   4.817   2.782  0.5472  0.2551 -0.2406
10244SOL    HW131631   0.215   4.737   2.802  0.3770  0.6203  0.8386
10244SOL    HW231632   0.213   4.891   2.748  0.4834  0.3617  0.0887
10245SOL     OW31633   2.096   3.498   2.269  0.0522  0.2637  0.3284
10245SOL    HW131634   2.156   3.512   2.191 -2.0510 -1.6978 -1.7850
10245SOL    HW231635   2.112   3.408   2.309 -1.4416 -0.3062 -0.2914
10246SOL     OW31636   2.999   3.929   4.751 -0.3134  0.0745  0.5281
10246SOL    HW131637   3.004   3.841   4.797 -0.6558 -0.3054 -0.1363
10246SOL    HW231638   2.999   4.003   4.818  3.5277 -0.2228  1.0496
10247SOL     OW31639   0.189   2.887   0.608  0.5513  0.5647 -0.2234
10247SOL    HW131640   0.187   2.828   0.527 -0.6101 -0.9713  0.8492
10247SOL    HW231641   0.109   2.946   0.607  0.0092 -0.1371  0.2415
10248SOL     OW31642   2.765   6.533   1.085 -0.2420 -0.5289  0.3381
10248SOL    HW131643   2.845   6.578   1.045  0.6196 -1.9465  0.4132
10248SOL    HW231644   2.708   6.496   1.012 -1.4957  1.5049  0.2226
10249SOL     OW31645   2.535   3.955   5.692  0.1379 -0.2268  0.2042
10249SOL    HW131646   2.516   4.004   5.607 -0.1232  1.7951  1.3553
10249SOL    HW231647   2.578   4.017   5.757 -0.2168 -1.5427  1.7617
10250SOL     OW31648   0.054   2.458   3.799 -0.3601  0.5849  0.0217
10250SOL    HW131649  -0.027   2.403   3.819 -1.1590  1.4114 -0.8080
10250SOL    HW231650   0.029   2.532   3.737  1.4381 -0.2990 -1.8788
10251SOL     OW31651   3.612   1.281   4.331 -0.8724 -0.9267  0.0922
10251SOL    HW131652   3.676   1.268   4.407  1.4940  0.7090 -1.4764
10251SOL    HW231653   3.589   1.378   4.324  0.1610 -0.7989 -2.1371
10252SOL     OW31654   4.691   5.445   4.819  0.0635  0.5024 -0.2154
10252SOL    HW131655   4.738   5.365   4.858  0.2885  0.0335 -1.3983
10252SOL    HW231656   4.639   5.491   4.890 -2.0949 -2.1134  0.0679
10253SOL     OW31657   2.934   5.204   6.703 -0.0291 -0.0039  0.0671
10253SOL    HW131658   2.939   5.158   6.615  3.4398 -0.2276  0.2221
10253SOL    HW231659   2.951   5.138   6.777 -1.5888  0.4077  0.8368
10254SOL     OW31660   4.877   1.336   4.171 -0.2930  1.0242 -0.1762
10254SOL    HW131661   4.845   1.346   4.077 -1.6833  0.6151  0.2194
10254SOL    HW231662   4.809   1.377   4.233  0.4827  1.0685  0.6660
10255SOL     OW31663   2.929   0.265   0.720 -0.7240  0.0385 -0.1654
10255SOL    HW131664   2.915   0.311   0.632 -0.7824 -2.5376 -1.6010
10255SOL    HW231665   2.906   0.168   0.711  2.2848 -1.0000  1.8180
10256SOL     OW31666   4.177   2.876   1.732  0.5326 -0.5129  0.5686
10256SOL    HW131667   4.125   2.956   1.763  2.4431  1.0593 -0.0820
10256SOL    HW231668   4.116   2.797   1.725 -1.3203  0.7440  1.7216
10257SOL     OW31669   2.257   6.200   6.860  0.1161  0.2329 -0.1990
10257SOL    HW131670   2.251   6.197   6.960 -0.5693 -0.5899 -0.2497
10257SOL    HW231671   2.248   6.294   6.828  0.5617  0.5277  0.5222
10258SOL     OW31672   3.170   1.730   2.884  0.4253  0.2723 -0.1177
10258SOL    HW131673   3.148   1.819   2.846  3.2345  0.3079 -2.0029
10258SOL    HW231674   3.269   1.715   2.880  0.1821 -2.4660  1.2289
10259SOL     OW31675   0.763   2.658   3.240  0.4104 -0.3875 -0.6852
10259SOL    HW131676   0.825   2.682   3.166 -0.1018  2.1593 -0.3903
10259SOL    HW231677   0.683   2.718   3.237  0.6217  0.1810  2.2179
10260SOL     OW31678   2.726   1.121   3.841 -0.1099  0.3184 -0.4083
10260SOL    HW131679   2.823   1.146   3.848  0.0349  0.8260 -3.2094
10260SOL    HW231680   2.670   1.202   3.858  0.0489  0.5172 -0.8097
10261SOL     OW31681   1.519   4.651   1.319 -0.5714  0.2367  0.2246
10261SOL    HW131682   1.578   4.645   1.400 -2.1330  3.7770  1.8210
10261SOL    HW231683   1.423   4.642   1.347 -1.1002  0.5783 -1.3851
10262SOL     OW31684   3.187   6.960   5.911  0.3179 -0.3869  0.0569
10262SOL    HW131685   3.109   6.900   5.893  0.0410 -0.3251  1.0036
10262SOL    HW231686   3.234   6.929   5.994  1.5706 -0.6942 -0.7294
10263SOL     OW31687   1.052   0.214   0.696 -0.8590  0.3798  0.1201
10263SOL    HW131688   1.011   0.265   0.621  0.1567  2.1165  0.7100
10263SOL    HW231689   1.094   0.130   0.660  1.8977  2.4034 -1.7442
10264SOL     OW31690   5.872   0.231   6.456  0.0050 -0.3771  0.9644
10264SOL    HW131691   5.955   0.260   6.505  1.2521 -1.8151 -0.1796
10264SOL    HW231692   5.867   0.131   6.457 -0.9083 -0.3578 -0.2999
10265SOL     OW31693   2.581   2.398   1.153  0.7640  0.0079  0.2144
10265SOL    HW131694   2.495   2.370   1.113 -0.8021  1.5426  2.2708
10265SOL    HW231695   2.621   2.321   1.203  0.5343 -0.6674 -0.6140
10266SOL     OW31696   2.979   3.602   4.284  0.0968  0.6424  0.5872
10266SOL    HW131697   2.985   3.619   4.186 -0.6846 -1.2744  0.1630
10266SOL    HW231698   2.927   3.518   4.300 -0.9978  1.6635  2.7146
10267SOL     OW31699   5.078   3.406   6.614  0.6526 -0.2709 -0.4209
10267SOL    HW131700   5.158   3.388   6.670  2.3963 -1.3827 -3.0706
10267SOL    HW231701   5.106   3.455   6.531 -1.3284 -1.0187 -1.6075
10268SOL     OW31702   6.109   6.146   1.682 -0.2126  0.0145 -0.0254
10268SOL    HW131703   6.162   6.175   1.602 -1.2489  1.2705 -0.2774
10268SOL    HW231704   6.040   6.079   1.654 -0.0914 -0.1054 -0.0418
10269SOL     OW31705   0.116   4.489   0.370  0.1240 -0.2991 -0.3393
10269SOL    HW131706   0.171   4.408   0.391  1.0502  0.3286 -0.2658
10269SOL    HW231707   0.074   4.479   0.280 -0.4687 -1.2212  0.0295
10270SOL     OW31708   4.001   4.944   2.847  0.3000 -0.3694 -0.0046
10270SOL    HW131709   4.074   4.911   2.787  0.6851 -1.8264  1.2246
10270SOL    HW231710   3.912   4.917   2.810  0.4654 -0.2689 -0.4909
10271SOL     OW31711   2.354   2.141   6.491  0.0441 -0.1284 -0.4300
10271SOL    HW131712   2.330   2.209   6.561 -0.6898 -1.6766  0.8782
10271SOL    HW231713   2.446   2.160   6.457 -0.8474  2.7157 -1.6288
10272SOL     OW31714   1.937   0.940   5.666 -0.3101  0.6395  0.2322
10272SOL    HW131715   1.869   0.871   5.644  0.9069 -0.4773 -0.1466
10272SOL    HW231716   1.893   1.017   5.713 -1.8071 -0.0422 -0.0101
10273SOL     OW31717   2.281   0.154   1.889 -0.2444  1.0239 -0.4890
10273SOL    HW131718   2.298   0.224   1.958 -1.3222  0.3504  0.5058
10273SOL    HW231719   2.194   0.172   1.844 -0.8807 -0.0406  0.2746
10274SOL     OW31720   2.207   4.022   0.454  0.1241  0.0610  0.4994
10274SOL    HW131721   2.302   4.050   0.445 -0.2071  0.8211 -0.9072
10274SOL    HW231722   2.148   4.088   0.409 -0.9664 -1.1481  0.0726
10275SOL     OW31723   6.537   6.282   1.314 -0.3571 -0.5710  0.0148
10275SOL    HW131724   6.480   6.264   1.394 -0.8032  0.5161 -0.0380
10275SOL    HW231725   6.623   6.325   1.343  0.3813 -2.0086  0.0739
10276SOL     OW31726   4.981   3.772   6.346 -0.2816  0.0194  0.0165
10276SOL    HW131727   5.036   3.770   6.263  0.6741 -1.1344  0.6406
10276SOL    HW231728   4.999   3.690   6.400 -1.8581  0.1153  0.7521
10277SOL     OW31729   2.394   5.170   4.713 -0.0652 -0.5146  0.3070
10277SOL    HW131730   2.354   5.240   4.654  0.1421 -1.1277 -0.5665
10277SOL    HW231731   2.347   5.171   4.801 -1.2398 -0.4508 -0.3051
10278SOL     OW31732   0.220   1.794   3.873 -0.0293  0.0065  0.7303
10278SOL    HW131733   0.255   1.833   3.958  0.7493  0.7235  0.1054
10278SOL    HW231734   0.149   1.727   3.894 -0.3441  0.6711  1.9078
10279SOL     OW31735   3.100   5.334   2.916  0.4305 -0.0742 -0.4568
10279SOL    HW131736   3.131   5.426   2.896 -0.4088  0.4682  0.6432
10279SOL    HW231737   3.014   5.316   2.868 -0.3749  0.4007  0.7683
10280SOL     OW31738   5.898   2.295   6.055 -0.4691 -0.3617 -0.0655
10280SOL    HW131739   5.935   2.285   5.962 -1.3037 -1.3416 -0.3124
10280SOL    HW231740   5.871   2.390   6.070  0.6344  0.0263 -0.4480
10281SOL     OW31741   0.534   1.713   2.983 -0.0436 -0.5000  0.4576
10281SOL    HW131742   0.470   1.653   2.935  0.9126 -0.8256 -0.4569
10281SOL    HW231743   0.487   1.797   3.009 -1.2077 -1.3075  1.0793
10282SOL     OW31744   5.785   2.686   4.414  0.4636 -0.1138  0.6672
10282SOL    HW131745   5.771   2.606   4.355  2.8848  1.0921 -1.7902
10282SOL    HW231746   5.851   2.663   4.485  0.0038 -0.6997  0.9149
10283SOL     OW31747   1.439   2.735   0.310 -0.2408  0.2454 -0.1394
10283SOL    HW131748   1.353   2.748   0.261  0.4789  1.8179 -1.0727
10283SOL    HW231749   1.507   2.696   0.249 -0.3935 -1.4671  0.7308
10284SOL     OW31750   5.140   2.431   4.987 -0.6168 -0.1145 -0.2474
10284SOL    HW131751   5.099   2.513   5.026  0.5649  1.3787 -1.9807
10284SOL    HW231752   5.103   2.350   5.032 -3.1012  1.2717  0.3667
10285SOL     OW31753   5.686   5.909   1.864  0.5355  0.0455  0.5566
10285SOL    HW131754   5.682   5.841   1.937  0.9552 -1.7516 -1.0159
10285SOL    HW231755   5.637   5.874   1.783  0.8204  1.5979 -0.3313
10286SOL     OW31756   3.782   0.986   2.338 -0.4020  0.0573  0.4712
10286SOL    HW131757   3.743   1.067   2.295 -0.0869 -0.0624 -0.0452
10286SOL    HW231758   3.809   0.920   2.267  0.5896  0.0725  0.8156
10287SOL     OW31759   2.199   0.657   2.806  0.1629 -0.3968  0.4571
10287SOL    HW131760   2.264   0.608   2.749 -1.1306 -1.2365 -0.3658
10287SOL    HW231761   2.188   0.610   2.893  1.1414  0.1336  0.8819
10288SOL     OW31762   0.044   5.597   2.717 -0.1853  0.1318 -0.2617
10288SOL    HW131763  -0.055   5.612   2.726 -0.0565  1.0784 -0.3281
10288SOL    HW231764   0.088   5.680   2.685  0.5299 -0.5483 -1.0983
10289SOL     OW31765   1.445   4.646   6.904  0.1807 -0.3944 -0.1503
10289SOL    HW131766   1.493   4.581   6.963 -0.3265  0.3552  1.1477
10289SOL    HW231767   1.404   4.598   6.827  0.5215 -1.4785  0.3276
10290SOL     OW31768   3.553   2.955   1.575  0.1313  0.1400 -0.3885
10290SOL    HW131769   3.468   2.924   1.532  0.3222  1.5209 -1.8691
10290SOL    HW231770   3.547   3.053   1.594  1.8175  0.5433 -1.6723
10291SOL     OW31771   5.569   6.690   3.732 -0.4495 -0.1920  0.5259
10291SOL    HW131772   5.560   6.789   3.720 -0.4032 -0.3145 -0.5677
10291SOL    HW231773   5.503   6.643   3.674 -0.7927 -0.8081  1.3807
10292SOL     OW31774   2.718   2.108   5.581 -0.0800 -0.5211 -0.1912
10292SOL    HW131775   2.789   2.176   5.597 -0.2692  0.1276 -1.9075
10292SOL    HW231776   2.761   2.020   5.558  0.1509 -0.7172  0.9183
10293SOL     OW31777   3.006   3.903   2.083  0.6058  0.2819 -0.0258
10293SOL    HW131778   3.041   3.996   2.070  0.8446  0.2357  0.2643
10293SOL    HW231779   3.001   3.856   1.995  0.9926  0.3919 -0.1100
10294SOL     OW31780   5.046   2.404   2.348  0.3712 -0.0958  0.1528
10294SOL    HW131781   4.966   2.343   2.352  0.9265 -0.9090 -0.6809
10294SOL    HW231782   5.020   2.490   2.304 -0.5329  0.4686  1.7406
10295SOL     OW31783   1.311   4.844   6.406  0.2017  0.1283 -0.5891
10295SOL    HW131784   1.386   4.813   6.348 -1.1913  1.1891 -3.1340
10295SOL    HW231785   1.234   4.873   6.348 -2.0900 -0.6336  1.8713
10296SOL     OW31786   3.273   2.280   0.658 -0.7014  0.8016  0.4253
10296SOL    HW131787   3.301   2.208   0.593  1.7413  0.6724  1.5266
10296SOL    HW231788   3.180   2.261   0.690 -0.3169 -1.5777  0.2870
10297SOL     OW31789   2.400   0.243   5.262  0.2788  0.1460 -0.0426
10297SOL    HW131790   2.450   0.309   5.318 -0.2407  0.0483  0.5579
10297SOL    HW231791   2.457   0.164   5.243  0.7356  0.5452 -0.3419
10298SOL     OW31792   2.648   5.043   6.505  0.0563  0.1860 -0.1281
10298SOL    HW131793   2.660   4.999   6.416  3.1354  0.3967  0.0704
10298SOL    HW231794   2.598   4.981   6.566  0.6792 -1.3330 -1.0890
10299SOL     OW31795   4.910   3.593   1.896 -0.3133  0.2290 -0.2545
10299SOL    HW131796   4.867   3.683   1.903 -2.3922 -0.7140 -0.1133
10299SOL    HW231797   4.990   3.599   1.836  0.1191  2.3106  0.4319
10300SOL     OW31798   0.991   4.753   2.365  0.2260  0.3660  0.4748
10300SOL    HW131799   1.021   4.846   2.386 -1.5568  1.1056 -0.0758
10300SOL    HW231800   0.916   4.757   2.299  0.5407 -1.5073 -0.0333
10301SOL     OW31801   0.140   2.082   4.392 -0.4224 -0.4706 -0.0349
10301SOL    HW131802   0.141   1.985   4.419 -0.6147 -0.5488 -0.2974
10301SOL    HW231803   0.056   2.125   4.424 -0.9476 -0.7192 -1.0103
10302SOL     OW31804   1.989   1.119   4.038  0.2132 -0.0922  0.4260
10302SOL    HW131805   2.044   1.180   3.980 -1.9896  1.5212 -0.0889
10302SOL    HW231806   1.961   1.039   3.986  0.9990 -0.2934  0.3063
10303SOL     OW31807   4.091   6.178   1.890  0.0183  0.0859 -0.4289
10303SOL    HW131808   4.113   6.201   1.985 -2.5533 -0.9062  0.4755
10303SOL    HW231809   4.164   6.122   1.852  0.2123 -1.1519  1.6262
10304SOL     OW31810   0.245   6.888   0.498  0.0124 -0.2207 -0.1371
10304SOL    HW131811   0.250   6.852   0.591 -1.5139 -0.6084 -0.1703
10304SOL    HW231812   0.305   6.834   0.438  0.2124 -0.6298  0.4210
10305SOL     OW31813   1.517   4.451   0.072 -0.2808  0.1093  0.0596
10305SOL    HW131814   1.573   4.404   0.140  1.0950  2.5462  0.7226
10305SOL    HW231815   1.443   4.391   0.042  1.4544 -2.4904  0.6784
10306SOL     OW31816   4.696   0.384   5.983 -0.3815 -0.0858 -0.4727
10306SOL    HW131817   4.726   0.311   6.044 -1.1810  0.5150  0.6889
10306SOL    HW231818   4.617   0.430   6.023 -0.5855  0.6959 -1.7158
10307SOL     OW31819   3.138   1.924   4.702  0.3613  0.3566  0.1150
10307SOL    HW131820   3.113   2.007   4.752  0.1066  1.2069 -1.3473
10307SOL    HW231821   3.186   1.861   4.763  0.8793  1.7229  1.1797
10308SOL     OW31822   0.831   4.966   5.076 -0.8968  0.5757 -0.2482
10308SOL    HW131823   0.798   5.035   5.011  0.5919  0.4740 -1.1746
10308SOL    HW231824   0.755   4.929   5.128 -2.1325  0.7562 -1.8574
10309SOL     OW31825   0.619   1.021   5.589  0.2492  0.0104  0.4302
10309SOL    HW131826   0.535   1.011   5.643 -0.1689 -1.9279 -0.4702
10309SOL    HW231827   0.611   0.966   5.506  2.1376  0.3711 -0.0251
10310SOL     OW31828   3.967   1.742   0.071  0.2096  0.1104 -0.2342
10310SOL    HW131829   3.932   1.650   0.054 -0.4241 -0.0410  1.6278
10310SOL    HW231830   4.058   1.752   0.032  0.4466 -1.4405 -0.1056
10311SOL     OW31831   0.370   1.740   0.559  0.0848 -0.0991 -0.3121
10311SOL    HW131832   0.464   1.767   0.539 -0.0962  1.6768  1.0437
10311SOL    HW231833   0.310   1.819   0.552 -0.8546 -0.5728  1.6073
10312SOL     OW31834   5.253   5.697   1.600 -0.6108  0.4883 -0.0495
10312SOL    HW131835   5.238   5.661   1.693  1.1925  1.6272  0.7275
10312SOL    HW231836   5.310   5.633   1.549  0.5674  1.0488  0.5233
10313SOL     OW31837   3.509   6.648   1.140  0.1624  0.6353 -0.2283
10313SOL    HW131838   3.511   6.601   1.229 -0.1371  0.0191 -0.5369
10313SOL    HW231839   3.557   6.593   1.072  0.3707  1.0943 -0.4564
10314SOL     OW31840   6.454   2.770   1.451  0.5175 -0.0144  0.2827
10314SOL    HW131841   6.511   2.826   1.511  1.7718 -1.1060  0.1544
10314SOL    HW231842   6.358   2.790   1.468  0.8471 -0.0534  2.4409
10315SOL     OW31843   5.286   6.103   4.096 -0.4086  0.0603  0.8696
10315SOL    HW131844   5.192   6.087   4.128 -0.6843  0.5263  0.3035
10315SOL    HW231845   5.298   6.200   4.075  0.3344  0.0784  1.3470
10316SOL     OW31846   5.351   1.298   6.069 -0.1130 -0.6998  0.3036
10316SOL    HW131847   5.375   1.258   6.157 -0.5599 -0.4908  0.5243
10316SOL    HW231848   5.329   1.395   6.082 -1.2376 -0.9202  0.1429
10317SOL     OW31849   5.646   3.453   5.029 -0.1479 -0.4665 -0.5018
10317SOL    HW131850   5.725   3.497   5.073  0.2282 -1.2462 -0.3794
10317SOL    HW231851   5.677   3.375   4.975 -0.9845 -1.8838  0.9688
10318SOL     OW31852   5.835   6.033   6.246 -0.3711  0.1236 -0.1174
10318SOL    HW131853   5.795   6.109   6.297 -1.8112 -1.2622  0.9193
10318SOL    HW231854   5.911   6.066   6.191 -0.4904  2.1668  0.8592
10319SOL     OW31855   1.235   2.899   5.395 -0.2000  0.4181 -0.1748
10319SOL    HW131856   1.304   2.830   5.371 -1.4745 -0.4455 -1.5490
10319SOL    HW231857   1.268   2.989   5.367  0.8546  0.1781  0.2473
10320SOL     OW31858   1.735   1.182   2.472  0.3932 -0.1081 -0.0550
10320SOL    HW131859   1.778   1.185   2.562 -1.9140  1.4440  1.1173
10320SOL    HW231860   1.719   1.275   2.440 -1.8616 -0.5741 -0.4556
10321SOL     OW31861   5.035   1.808   0.884  0.2649 -0.6679 -0.2172
10321SOL    HW131862   5.064   1.881   0.822  0.3926  0.5818  1.2257
10321SOL    HW231863   5.103   1.799   0.957 -1.7586  0.7783  2.0015
10322SOL     OW31864   0.057   4.682   4.907 -0.1171  0.0266  0.4822
10322SOL    HW131865   0.034   4.597   4.956  0.1939  0.1402  0.8335
10322SOL    HW231866   0.058   4.758   4.972 -1.0329  0.4191  0.0603
10323SOL     OW31867   5.112   2.346   5.907 -0.2514  0.1893 -0.2419
10323SOL    HW131868   5.102   2.433   5.859  0.2041  1.3279  1.6274
10323SOL    HW231869   5.022   2.303   5.916 -0.4493  0.3133 -1.4025
10324SOL     OW31870   3.784   1.708   0.670  0.1789  0.1922  0.2591
10324SOL    HW131871   3.822   1.793   0.707  1.0666 -0.0335 -0.1065
10324SOL    HW231872   3.797   1.705   0.571 -0.4372 -0.0802  0.1803
10325SOL     OW31873   4.281   4.422   0.754 -0.0620 -0.0948  0.8097
10325SOL    HW131874   4.186   4.446   0.732  0.1007 -0.4109 -0.2989
10325SOL    HW231875   4.303   4.334   0.713  1.0712  0.5361 -0.0087
10326SOL     OW31876   3.071   5.073   4.051  0.5040 -0.2721 -0.2784
10326SOL    HW131877   3.015   5.034   4.124  1.1737  0.2047  0.5077
10326SOL    HW231878   3.077   5.172   4.062 -0.5420 -0.0073 -1.8090
10327SOL     OW31879   0.655   3.164   0.776  0.2571 -1.1112  0.3335
10327SOL    HW131880   0.660   3.248   0.829 -0.2857 -0.7261 -0.2217
10327SOL    HW231881   0.563   3.127   0.779  0.2641 -1.1839 -0.1856
10328SOL     OW31882   5.864   2.969   1.208  0.3357  0.2619 -0.0567
10328SOL    HW131883   5.923   3.004   1.135  1.9495  0.1935  1.1374
10328SOL    HW231884   5.894   3.007   1.295 -1.8198  0.6827  0.5459
10329SOL     OW31885   4.116   6.638   2.959 -0.6973 -0.4798 -0.2630
10329SOL    HW131886   4.019   6.662   2.969 -0.5814 -0.4638  0.9283
10329SOL    HW231887   4.152   6.608   3.047  0.0564 -1.7476 -0.9716
10330SOL     OW31888   4.925   6.604   2.304 -0.2503 -0.2731 -0.4510
10330SOL    HW131889   4.900   6.509   2.321  0.9987 -0.5056  0.1509
10330SOL    HW231890   4.844   6.655   2.273 -1.0208 -1.4192 -0.3597
10331SOL     OW31891   6.408   0.831   6.814  0.1800  0.1837 -0.1295
10331SOL    HW131892   6.420   0.853   6.717  0.1851  1.7934  0.2047
10331SOL    HW231893   6.315   0.854   6.842  0.9217  2.2438  0.8297
10332SOL     OW31894   6.896   6.663   0.214 -0.4714 -0.3823  0.1940
10332SOL    HW131895   6.813   6.715   0.190  0.9799  0.6957 -3.1726
10332SOL    HW231896   6.876   6.566   0.213 -1.4149 -0.2386 -2.4303
10333SOL     OW31897   2.338   6.139   5.396  0.3900 -0.2232 -0.5915
10333SOL    HW131898   2.277   6.067   5.360 -0.8580 -0.5403  1.9571
10333SOL    HW231899   2.364   6.117   5.489  3.3093  0.6833 -1.0974
10334SOL     OW31900   4.067   5.540   2.896 -0.3175 -0.8500  0.6571
10334SOL    HW131901   4.105   5.458   2.938  0.1840 -1.6800 -1.3032
10334SOL    HW231902   4.107   5.621   2.940  0.2538 -1.6573  1.6738
10335SOL     OW31903   3.679   4.026   5.783 -0.3894  0.2780 -0.2015
10335SOL    HW131904   3.646   3.934   5.759 -2.9705  1.3881 -1.2845
10335SOL    HW231905   3.690   4.033   5.882  3.9848 -2.3763 -0.2363
10336SOL     OW31906   0.170   0.684   2.124  1.0039  0.5064  0.3396
10336SOL    HW131907   0.252   0.704   2.070  3.0460 -1.0584  2.6175
10336SOL    HW231908   0.178   0.592   2.163 -1.5594  0.5880  1.1974
10337SOL     OW31909   6.392   5.985   6.437 -0.9752 -0.2227 -0.1264
10337SOL    HW131910   6.460   6.054   6.462 -1.7532  0.6947 -0.4808
10337SOL    HW231911   6.362   6.000   6.343 -1.3414 -0.8918 -0.1252
10338SOL     OW31912   2.882   6.052   2.364  0.0403  0.0737  0.0397
10338SOL    HW131913   2.953   6.061   2.434 -0.2984 -0.8523  0.5288
10338SOL    HW231914   2.806   6.113   2.385  1.7080  3.1046 -1.9079
10339SOL     OW31915   3.272   4.742   6.240  0.0410  0.5728 -0.2675
10339SOL    HW131916   3.204   4.813   6.225 -0.8336 -0.5123 -1.6660
10339SOL    HW231917   3.227   4.653   6.246  1.1506  0.0551  1.0309
10340SOL     OW31918   1.693   3.156   0.720  0.6484  0.4211 -0.8681
10340SOL    HW131919   1.763   3.098   0.677  2.0964  0.8202  0.8047
10340SOL    HW231920   1.716   3.252   0.705 -0.8255  0.5917 -2.2150
10341SOL     OW31921   2.577   3.843   0.570 -0.1181  0.5071 -0.6392
10341SOL    HW131922   2.529   3.862   0.655  0.5878  1.1470 -0.3622
10341SOL    HW231923   2.577   3.745   0.551  0.1309  0.3114  0.3565
10342SOL     OW31924   2.190   0.804   5.049 -0.0297  0.2070 -0.0494
10342SOL    HW131925   2.097   0.778   5.024  0.1571  0.4411 -1.0043
10342SOL    HW231926   2.190   0.898   5.084  0.2080  1.2347 -2.6057
10343SOL     OW31927   0.684   5.314   0.880 -0.0740  0.5531 -0.2572
10343SOL    HW131928   0.644   5.332   0.970  1.1438 -1.6719  0.7917
10343SOL    HW231929   0.682   5.216   0.861  0.5541  0.8814 -2.2679
10344SOL     OW31930   4.237   3.481   0.514 -0.3702 -0.2816 -0.3212
10344SOL    HW131931   4.303   3.407   0.501 -0.7667 -0.5404 -0.8813
10344SOL    HW231932   4.180   3.462   0.593  1.0376  0.5475  0.9354
10345SOL     OW31933   1.115   1.718   6.023 -0.3201  0.4506 -0.1909
10345SOL    HW131934   1.145   1.785   6.091  0.8335  1.6255 -1.7926
10345SOL    HW231935   1.045   1.759   5.964 -1.9148 -0.8230  0.7045
10346SOL     OW31936   0.611   5.664   0.082  0.3154  0.3491  0.0645
10346SOL    HW131937   0.567   5.591   0.135 -2.3207  1.6453 -0.1471
10346SOL    HW231938   0.582   5.657  -0.014  0.1264  1.5406  0.0170
10347SOL     OW31939   5.934   3.491   1.588 -0.2393  0.7026  0.3539
10347SOL    HW131940   5.895   3.541   1.666 -0.2935  1.8399 -0.3780
10347SOL    HW231941   5.862   3.468   1.523 -0.5689 -2.1466  1.5723
10348SOL     OW31942   6.948   2.069   0.648  0.3076 -0.2990 -0.1881
10348SOL    HW131943   7.020   2.008   0.614  1.2545  1.1642 -0.8798
10348SOL    HW231944   6.966   2.092   0.744  0.1542 -0.7639 -0.0403
10349SOL     OW31945   6.994   0.709   1.261 -0.1727 -0.1542  0.2403
10349SOL    HW131946   6.973   0.792   1.313  0.0938 -0.3466  0.6667
10349SOL    HW231947   6.921   0.691   1.196  0.6989  1.5215 -1.2777
10350SOL     OW31948   1.627   0.502   6.433  0.1640 -0.3824 -0.5588
10350SOL    HW131949   1.554   0.465   6.376  0.0257 -0.0224 -0.6130
10350SOL    HW231950   1.595   0.583   6.481  0.1000 -0.9816  0.4520
10351SOL     OW31951   3.354   2.548   6.190  0.0709  0.0343 -0.0822
10351SOL    HW131952   3.342   2.525   6.093 -3.5385  0.8030  0.0492
10351SOL    HW231953   3.363   2.464   6.243  0.5144 -0.4666 -0.9256
10352SOL     OW31954   4.874   6.964   4.278 -0.4105 -0.0509 -0.7231
10352SOL    HW131955   4.906   6.875   4.246  2.0749 -0.2821  2.0154
10352SOL    HW231956   4.774   6.965   4.279 -0.5947 -3.6822  1.2516
10353SOL     OW31957   6.876   3.019   4.460  0.1197 -0.2176 -0.8691
10353SOL    HW131958   6.934   3.100   4.455  0.3152 -0.2200  0.8312
10353SOL    HW231959   6.836   3.012   4.552 -0.8994 -1.3605 -1.3764
10354SOL     OW31960   4.854   3.717   3.007 -0.8912  0.1405  0.1572
10354SOL    HW131961   4.889   3.630   3.041 -1.7357 -0.2696 -0.0061
10354SOL    HW231962   4.859   3.719   2.907 -0.7762  0.3167  0.1667
10355SOL     OW31963   1.537   0.251   3.337 -0.7303  0.7462  0.0187
10355SOL    HW131964   1.463   0.200   3.294 -0.3167  0.5074 -0.4258
10355SOL    HW231965   1.620   0.194   3.340 -0.8573  0.5828  1.5407
10356SOL     OW31966   5.812   4.089   3.810 -0.9760 -0.2027  0.1278
10356SOL    HW131967   5.778   4.180   3.835  0.4910  0.1166  1.1095
10356SOL    HW231968   5.771   4.021   3.872 -2.0877 -0.2334 -0.6180
10357SOL     OW31969   2.155   2.253   6.094 -1.1561  0.4101  0.3832
10357SOL    HW131970   2.211   2.329   6.063  1.8361 -1.3741  1.0674
10357SOL    HW231971   2.082   2.236   6.027  1.3663  0.4822 -2.5783
10358SOL     OW31972   6.429   4.245   3.875 -0.4744 -0.2626 -0.4800
10358SOL    HW131973   6.457   4.338   3.898 -3.5493  0.5873  0.2969
10358SOL    HW231974   6.413   4.193   3.959 -3.5827  0.1816 -0.6730
10359SOL     OW31975   6.149   3.997   1.398 -0.2376 -0.6548 -0.3302
10359SOL    HW131976   6.082   4.039   1.460  0.4095 -1.0336  0.6436
10359SOL    HW231977   6.237   4.042   1.409 -0.1204 -0.7162 -0.9999
10360SOL     OW31978   5.023   5.633   1.434  0.1560 -0.1003 -0.5426
10360SOL    HW131979   5.111   5.643   1.479 -0.4338 -0.1995  0.6548
10360SOL    HW231980   5.034   5.651   1.336  1.1907  1.4825 -0.1710
10361SOL     OW31981   1.842   6.709   3.369  0.3093  0.2814  0.2507
10361SOL    HW131982   1.839   6.619   3.327  0.7975  0.7827 -0.9128
10361SOL    HW231983   1.777   6.713   3.445 -0.2353 -0.8151 -0.1374
10362SOL     OW31984   1.325   5.465   4.422 -0.3688 -0.1757  0.0495
10362SOL    HW131985   1.271   5.482   4.340  0.0275 -0.7350 -0.3304
10362SOL    HW231986   1.300   5.531   4.493  1.7776  2.7378 -1.6572
10363SOL     OW31987   4.063   1.961   1.312  0.2393 -0.0199  0.7111
10363SOL    HW131988   4.050   1.936   1.217  0.7934  0.8331  0.3971
10363SOL    HW231989   4.062   1.879   1.369  0.2639 -0.5657 -0.0660
10364SOL     OW31990   3.191   4.068   2.275 -0.9744 -0.2630 -0.4775
10364SOL    HW131991   3.158   4.045   2.366 -1.0802  2.3373  0.2224
10364SOL    HW231992   3.157   4.158   2.249  0.2596 -0.3139 -2.4788
10365SOL     OW31993   3.175   5.909   0.727 -0.0522  0.2573 -0.4812
10365SOL    HW131994   3.217   5.910   0.818 -1.3801 -1.5197  0.2189
10365SOL    HW231995   3.103   5.978   0.722 -1.6501 -1.2317  0.7396
10366SOL     OW31996   3.768   0.289   5.661 -0.2480  0.3508  0.3160
10366SOL    HW131997   3.691   0.346   5.689 -0.1855  0.9862 -0.7613
10366SOL    HW231998   3.768   0.278   5.561  0.3836 -0.6196  0.4013
10367SOL     OW31999   1.065   2.234   3.408 -0.0387 -0.0274 -0.2404
10367SOL    HW132000   0.994   2.177   3.366 -1.5330  2.7943 -1.8301
10367SOL    HW232001   1.031   2.272   3.494  0.0028  0.4276 -0.4268
10368SOL     OW32002   2.777   0.714   6.792  0.1507  0.0830  0.2551
10368SOL    HW132003   2.725   0.641   6.835 -0.5865  0.8942  0.7961
10368SOL    HW232004   2.800   0.689   6.699 -1.5525 -0.1645 -0.1307
10369SOL     OW32005   3.541   0.300   5.283  0.0057  0.6824  0.1096
10369SOL    HW132006   3.481   0.252   5.347  0.3750 -0.8109 -0.6023
10369SOL    HW232007   3.499   0.386   5.256 -1.8457 -0.3100 -0.3561
10370SOL     OW32008   5.546   2.845   6.199 -0.0661 -0.3645 -0.1360
10370SOL    HW132009   5.630   2.869   6.150  1.0460  0.3711  2.0192
10370SOL    HW232010   5.543   2.746   6.212  0.1688 -0.4526 -0.6972
10371SOL     OW32011   1.934   5.243   4.241 -0.0207 -0.0064 -0.3215
10371SOL    HW132012   1.898   5.320   4.294 -0.4023  1.3824 -2.4894
10371SOL    HW232013   1.911   5.254   4.145  0.1277 -2.7546 -0.7608
10372SOL     OW32014   1.342   2.256   0.873  0.1074  0.1844 -0.1079
10372SOL    HW132015   1.343   2.232   0.970 -0.1848  0.2964 -0.0759
10372SOL    HW232016   1.429   2.299   0.848  0.3851 -0.3212 -0.0191
10373SOL     OW32017   1.433   6.131   5.820 -0.1099  0.1047 -0.5979
10373SOL    HW132018   1.531   6.114   5.809  0.3095  0.0895  2.2173
10373SOL    HW232019   1.406   6.209   5.765  1.4810  0.1124 -1.4365
10374SOL     OW32020   3.787   1.820   1.746  0.5188 -0.1045 -0.3757
10374SOL    HW132021   3.728   1.763   1.690 -1.6143  1.1008  0.5381
10374SOL    HW232022   3.739   1.904   1.772  1.3474 -0.5220  3.1401
10375SOL     OW32023   4.577   1.462   6.880 -0.0399  0.2754 -0.1153
10375SOL    HW132024   4.573   1.420   6.971 -1.4780 -0.0936 -0.3258
10375SOL    HW232025   4.562   1.391   6.811 -0.1029  0.7508 -0.5886
10376SOL     OW32026   1.261   5.463   5.218 -0.2027 -0.2063  0.1761
10376SOL    HW132027   1.202   5.382   5.210 -1.3136  0.6331 -0.3794
10376SOL    HW232028   1.206   5.545   5.206  1.1455  0.6022 -0.7349
10377SOL     OW32029   6.150   3.383   4.023 -0.2975  0.1463 -0.4207
10377SOL    HW132030   6.169   3.290   4.053 -2.6950 -0.2770  0.0419
10377SOL    HW232031   6.236   3.432   4.007  1.0751 -1.1218  2.4257
10378SOL     OW32032   5.375   5.945   0.342  0.3715 -0.4379  0.3415
10378SOL    HW132033   5.289   5.896   0.357  0.1294  0.0526  0.5672
10378SOL    HW232034   5.358   6.043   0.339  1.2773 -0.0413  3.6377
10379SOL     OW32035   3.068   5.876   4.026  0.1537  0.8663 -0.3866
10379SOL    HW132036   3.056   5.954   3.964  0.1239  0.6592 -0.6450
10379SOL    HW232037   3.166   5.862   4.043  0.2169  0.4200 -1.0493
10380SOL     OW32038   1.071   3.004   3.314  0.1139  0.8716  0.0198
10380SOL    HW132039   1.101   3.079   3.374  1.3293  0.7902 -0.4525
10380SOL    HW232040   1.000   2.951   3.360  1.0877  0.7458  1.4438
10381SOL     OW32041   3.191   4.137   5.766 -0.3977 -0.0726 -0.1377
10381SOL    HW132042   3.162   4.045   5.740 -2.2336  0.6964 -1.0026
10381SOL    HW232043   3.118   4.202   5.745  1.0628  1.6743 -0.0834
10382SOL     OW32044   4.578   2.784   6.087  0.0511 -0.2675 -0.1446
10382SOL    HW132045   4.479   2.775   6.098 -0.0034  0.7613  0.3676
10382SOL    HW232046   4.622   2.695   6.105 -0.7375 -0.6105  0.1332
10383SOL     OW32047   2.043   4.195   0.267 -0.1248 -0.4031  0.2535
10383SOL    HW132048   1.981   4.248   0.210 -1.2047 -1.5831  0.2783
10383SOL    HW232049   2.057   4.242   0.354  0.9805  1.0623 -0.6803
10384SOL     OW32050   1.407   1.868   1.669  0.1587  0.4512 -0.9747
10384SOL    HW132051   1.363   1.792   1.621  1.0077 -0.0063 -1.0516
10384SOL    HW232052   1.358   1.886   1.754  0.2431 -0.5466 -0.6958
10385SOL     OW32053   2.560   5.925   5.079  0.0344  0.5612  0.0654
10385SOL    HW132054   2.550   5.835   5.121 -0.5010  0.9610  0.8187
10385SOL    HW232055   2.579   5.993   5.150  1.4514  0.9000 -0.6007
10386SOL     OW32056   5.994   2.258   4.717  0.4040  0.0805  0.2028
10386SOL    HW132057   6.094   2.265   4.722  0.6665 -2.9830  1.4124
10386SOL    HW232058   5.961   2.203   4.794 -2.3593  1.7754  0.3421
10387SOL     OW32059   5.332   2.847   4.951 -0.3198 -0.1917  0.2876
10387SOL    HW132060   5.399   2.776   4.971 -0.4831 -0.4421 -0.0536
10387SOL    HW232061   5.264   2.851   5.025 -0.7426 -0.9024 -0.0511
10388SOL     OW32062   2.071   6.593   1.477  0.0768 -0.0679  0.1271
10388SOL    HW132063   2.069   6.527   1.402  0.9009  1.4247 -1.2819
10388SOL    HW232064   1.981   6.636   1.487  0.7787  2.4243 -2.6507
10389SOL     OW32065   6.769   6.718   1.380  0.9449  0.1509 -0.3458
10389SOL    HW132066   6.699   6.787   1.400 -1.3088 -1.3623 -2.3790
10389SOL    HW232067   6.844   6.761   1.330  0.3048  1.4208 -0.2535
10390SOL     OW32068   3.229   3.702   2.339  0.2756 -0.0772  0.5982
10390SOL    HW132069   3.140   3.704   2.295  0.4819 -0.0359  0.1790
10390SOL    HW232070   3.248   3.790   2.381  1.2829  0.8641 -1.6704
10391SOL     OW32071   2.014   5.596   5.535 -0.0363  0.3782  0.3614
10391SOL    HW132072   1.944   5.537   5.495  1.2291 -0.9835  0.0829
10391SOL    HW232073   2.084   5.616   5.466  0.4145  0.8310  0.9410
10392SOL     OW32074   5.295   5.069   0.337 -0.8764  0.8134 -0.0055
10392SOL    HW132075   5.326   5.121   0.416 -0.8725  2.1446 -0.8503
10392SOL    HW232076   5.246   4.987   0.368 -1.2603  1.5324  1.3740
10393SOL     OW32077   1.604   2.358   2.080 -0.1429 -0.1941  0.3665
10393SOL    HW132078   1.691   2.361   2.032  0.4515 -1.1464  1.3609
10393SOL    HW232079   1.602   2.280   2.143 -2.7317 -1.8299 -1.5366
10394SOL     OW32080   3.327   6.422   6.926 -0.4174  0.2914  0.5727
10394SOL    HW132081   3.318   6.520   6.906 -1.7548  0.8306  3.3854
10394SOL    HW232082   3.243   6.389   6.968  0.5810 -1.7373  1.0936
10395SOL     OW32083   0.885   0.452   1.727  0.1241 -0.3218 -0.8562
10395SOL    HW132084   0.846   0.542   1.707  1.5721  0.8948  1.4357
10395SOL    HW232085   0.844   0.384   1.666 -1.5464  1.7353 -2.1661
10396SOL     OW32086   2.311   6.734   3.697 -0.2736  0.1693 -0.3716
10396SOL    HW132087   2.226   6.772   3.661 -0.6357  0.1901  0.4686
10396SOL    HW232088   2.387   6.795   3.675 -0.6317  0.6575 -0.2684
10397SOL     OW32089   4.955   2.070   4.141  0.4308 -0.1879  0.4002
10397SOL    HW132090   4.883   2.120   4.094  0.8253  0.3262  0.3310
10397SOL    HW232091   5.042   2.082   4.092  0.3056 -1.9294 -0.2987
10398SOL     OW32092   5.325   2.018   6.940  0.4972 -0.2039 -0.1967
10398SOL    HW132093   5.305   1.988   7.033 -1.0922  1.8161  0.1864
10398SOL    HW232094   5.263   1.972   6.876 -0.2081  0.3237  0.0871
10399SOL     OW32095   6.182   0.952   3.689  0.5595  0.3823  0.0909
10399SOL    HW132096   6.257   0.887   3.679  0.1654  0.2394 -3.0278
10399SOL    HW232097   6.104   0.907   3.731  1.0019 -0.5446 -0.0691
10400SOL     OW32098   2.720   5.601   1.081  0.2972 -0.1816  0.5832
10400SOL    HW132099   2.625   5.579   1.104 -0.2448  1.1812 -0.2230
10400SOL    HW232100   2.733   5.595   0.982  0.9509  0.0561  0.6476
10401SOL     OW32101   0.533   0.707   2.206  0.0374 -0.7040 -0.0655
10401SOL    HW132102   0.499   0.708   2.112  0.0118 -2.7297 -0.1237
10401SOL    HW232103   0.518   0.796   2.248 -0.3905  0.0897 -1.8183
10402SOL     OW32104   1.730   2.579   4.601  0.0398 -0.4934 -0.0838
10402SOL    HW132105   1.653   2.532   4.556 -0.3569  0.4874 -0.4594
10402SOL    HW232106   1.697   2.662   4.645  0.7639 -0.4644  0.4148
10403SOL     OW32107   6.194   1.716   3.391  0.0637  0.0103 -0.0555
10403SOL    HW132108   6.247   1.721   3.306 -0.9372 -0.1727 -0.7074
10403SOL    HW232109   6.248   1.754   3.466  0.5130  1.3114 -0.9937
10404SOL     OW32110   0.518   6.247   3.939  0.2216 -0.4537  0.2090
10404SOL    HW132111   0.494   6.262   3.843  0.0643 -1.5526  0.0640
10404SOL    HW232112   0.618   6.239   3.948  0.1241 -3.0402 -0.3124
10405SOL     OW32113   2.034   6.837   5.273 -0.0852  0.4159  0.2073
10405SOL    HW132114   2.079   6.919   5.306  1.2253 -0.3947  0.5047
10405SOL    HW232115   2.087   6.756   5.300 -1.9344 -0.6270  0.9455
10406SOL     OW32116   2.106   3.755   4.372  0.0527  0.7740  0.1382
10406SOL    HW132117   2.054   3.769   4.287  0.6441 -1.2451 -0.6140
10406SOL    HW232118   2.155   3.840   4.395 -0.4913  1.5145 -1.2707
10407SOL     OW32119   1.655   1.057   6.851 -0.4571 -0.4734 -1.0095
10407SOL    HW132120   1.719   1.058   6.774  0.8650  0.0377  0.0640
10407SOL    HW232121   1.674   0.977   6.908 -1.0523 -0.5419 -0.9058
10408SOL     OW32122   4.238   4.692   2.424 -0.0866  0.3974 -0.0343
10408SOL    HW132123   4.178   4.634   2.369 -0.3946  0.1244  0.5669
10408SOL    HW232124   4.229   4.787   2.396 -0.2369  0.2604 -0.4494
10409SOL     OW32125   0.444   5.457   6.654  0.1366  0.1561  0.0347
10409SOL    HW132126   0.526   5.445   6.599  0.5699  0.1024  0.6742
10409SOL    HW232127   0.453   5.540   6.710 -0.8384  0.9255 -0.9007
10410SOL     OW32128   6.100   2.141   0.220 -0.6282  0.1264 -0.6203
10410SOL    HW132129   6.055   2.088   0.292  1.7199  0.2255  1.0492
10410SOL    HW232130   6.096   2.238   0.242  1.8224  0.0435  0.5805
10411SOL     OW32131   4.486   4.281   5.519 -0.2401 -0.2976  0.2892
10411SOL    HW132132   4.478   4.261   5.422 -0.6671 -0.0417  0.2689
10411SOL    HW232133   4.449   4.372   5.538  0.3754 -0.1065  0.6020
10412SOL     OW32134   1.292   6.307   1.631 -0.2850  0.2607  0.1597
10412SOL    HW132135   1.215   6.338   1.687 -1.1385 -0.0965 -0.7871
10412SOL    HW232136   1.270   6.319   1.534  0.3329 -1.0328 -0.1589
10413SOL     OW32137   5.593   2.714   0.960 -0.2391 -0.1067 -0.5062
10413SOL    HW132138   5.565   2.804   0.928 -0.0575 -0.0190 -0.4174
10413SOL    HW232139   5.596   2.713   1.060 -0.2661 -0.2188 -0.5059
10414SOL     OW32140   3.900   0.272   6.546  0.1782 -0.0814 -0.0142
10414SOL    HW132141   3.910   0.258   6.645 -1.5949 -2.4851 -0.0880
10414SOL    HW232142   3.908   0.184   6.499  1.9675  1.1287 -2.1801
10415SOL     OW32143   1.383   5.434   2.715  0.2741 -0.2424 -0.3150
10415SOL    HW132144   1.356   5.520   2.757 -1.2428 -0.9104  0.1452
10415SOL    HW232145   1.483   5.425   2.719  0.3336  0.7060  1.1658
10416SOL     OW32146   6.632   2.246   4.321  0.2170  0.1579  0.1549
10416SOL    HW132147   6.687   2.303   4.260 -1.5010  1.1485 -0.5481
10416SOL    HW232148   6.579   2.181   4.268 -1.7832  1.4446  0.4271
10417SOL     OW32149   4.459   4.793   4.103  0.0952  0.5063  0.0579
10417SOL    HW132150   4.469   4.759   4.009 -0.9721  1.5423 -0.4536
10417SOL    HW232151   4.498   4.885   4.110  0.4055  0.3311  0.7020
10418SOL     OW32152   6.021   3.851   4.068 -0.2765  0.1329  0.6433
10418SOL    HW132153   6.101   3.790   4.069 -0.1500  0.2956  1.8171
10418SOL    HW232154   6.044   3.935   4.020 -0.3674 -0.6219 -0.7541
10419SOL     OW32155   3.975   5.791   6.279  0.1213 -1.0165  0.3820
10419SOL    HW132156   4.048   5.842   6.235  2.9676 -4.1194  1.0317
10419SOL    HW232157   3.972   5.813   6.377 -2.3941  1.7051 -0.1685
10420SOL     OW32158   6.256   3.070   5.072 -0.3886 -0.1558 -0.5308
10420SOL    HW132159   6.159   3.057   5.094 -0.0728 -0.5317  0.7729
10420SOL    HW232160   6.298   2.981   5.053  0.0420 -0.2058  0.5504
10421SOL     OW32161   1.359   3.682   6.042  0.4614 -0.0443  0.5608
10421SOL    HW132162   1.406   3.645   5.962 -0.4142 -0.2050  0.1095
10421SOL    HW232163   1.413   3.756   6.080  0.7689  0.2125 -0.3378
10422SOL     OW32164   0.600   3.662   6.092 -0.1411  0.2932  0.0641
10422SOL    HW132165   0.530   3.713   6.042  0.8635  0.8764 -0.7755
10422SOL    HW232166   0.558   3.617   6.171 -1.1760  1.9014  0.4792
10423SOL     OW32167   2.968   5.005   4.723  0.2161  0.0852  0.2195
10423SOL    HW132168   3.047   4.963   4.679 -0.4130 -1.0930  0.1683
10423SOL    HW232169   2.905   4.934   4.752 -0.3682  0.9620  1.1486
10424SOL     OW32170   3.126   0.928   1.287 -0.4754 -0.9447  0.2272
10424SOL    HW132171   3.029   0.947   1.297 -0.4728 -0.7400 -0.1279
10424SOL    HW232172   3.138   0.843   1.236 -0.5080 -2.5728  2.7585
10425SOL     OW32173   2.560   5.385   1.704 -0.2898  0.1933 -0.1363
10425SOL    HW132174   2.659   5.396   1.707  0.1633 -2.2962 -2.3451
10425SOL    HW232175   2.525   5.419   1.617 -0.8983 -1.5232 -0.6105
10426SOL     OW32176   5.871   4.019   5.855  0.5170 -0.2844 -0.5725
10426SOL    HW132177   5.954   4.008   5.800 -0.3543  0.5793 -2.1326
10426SOL    HW232178   5.798   3.963   5.815  0.4582 -1.4954  1.1214
10427SOL     OW32179   5.103   6.413   6.901  0.2100 -0.3924  0.2920
10427SOL    HW132180   5.036   6.345   6.872 -0.2715  1.1721 -2.5851
10427SOL    HW232181   5.175   6.421   6.832 -0.1746  2.5080  0.0906
10428SOL     OW32182   0.625   2.902   5.164 -0.3048  0.5679  0.0715
10428SOL    HW132183   0.613   3.001   5.165  1.5050  0.8195  1.5384
10428SOL    HW232184   0.653   2.872   5.073 -0.4964  1.4371 -0.2819
10429SOL     OW32185   0.182   3.220   2.372 -0.1520  0.3902 -0.1593
10429SOL    HW132186   0.164   3.139   2.427 -1.1652  1.7678  1.6716
10429SOL    HW232187   0.192   3.194   2.276  0.7346 -1.9987  0.5113
10430SOL     OW32188   3.554   5.870   3.767 -0.2302 -0.4510 -0.3668
10430SOL    HW132189   3.526   5.814   3.845 -2.4291  0.7921 -0.1693
10430SOL    HW232190   3.531   5.822   3.682 -0.9451 -0.4081 -0.2072
10431SOL     OW32191   3.998   6.174   5.549  0.1656 -0.5592  0.9231
10431SOL    HW132192   4.023   6.129   5.635 -0.8774 -1.6690  0.6611
10431SOL    HW232193   3.907   6.145   5.521  1.0308 -1.3185 -1.2956
10432SOL     OW32194   0.859   0.612   5.128 -0.0547 -0.4308 -0.1372
10432SOL    HW132195   0.842   0.520   5.091 -1.8015 -0.6696  1.0997
10432SOL    HW232196   0.861   0.607   5.228 -0.1077  0.8634 -0.0567
10433SOL     OW32197   1.962   6.310   5.155 -0.3577  0.4997  0.4572
10433SOL    HW132198   1.869   6.325   5.122 -0.5542 -0.6503  0.4644
10433SOL    HW232199   1.967   6.223   5.204  0.5400  0.9403  1.1776
10434SOL     OW32200   3.203   6.119   5.528  0.5149 -0.0109 -0.5594
10434SOL    HW132201   3.207   6.020   5.517 -0.3358 -0.0112 -0.9285
10434SOL    HW232202   3.129   6.156   5.472  0.9832  0.8639 -0.6264
10435SOL     OW32203   2.342   2.759   5.091 -0.0887  0.1656  0.5190
10435SOL    HW132204   2.335   2.858   5.091 -2.4569  0.0981  2.4293
10435SOL    HW232205   2.379   2.728   5.179  2.0908 -0.6469 -0.6096
10436SOL     OW32206   1.224   4.122   4.169 -0.1960  0.2333 -0.1729
10436SOL    HW132207   1.189   4.102   4.078 -1.9096  0.4600  0.4142
10436SOL    HW232208   1.283   4.203   4.165  0.1535 -0.0583 -1.1494
10437SOL     OW32209   5.863   4.228   2.574 -0.2314  0.3059 -0.5179
10437SOL    HW132210   5.821   4.296   2.635 -1.1577 -0.0051 -0.7864
10437SOL    HW232211   5.859   4.138   2.617 -0.8105  0.1005 -0.9875
10438SOL     OW32212   5.778   6.331   0.050 -0.2545  0.1591 -0.6817
10438SOL    HW132213   5.861   6.332   0.106 -0.0268  1.6670 -0.9986
10438SOL    HW232214   5.803   6.332  -0.046 -0.6496 -1.0015 -0.8084
10439SOL     OW32215   6.584   1.923   5.643  0.1039  0.5290  0.1011
10439SOL    HW132216   6.549   2.004   5.597 -1.7308 -0.1581  0.2256
10439SOL    HW232217   6.679   1.939   5.671 -0.5998  3.1118  1.2627
10440SOL     OW32218   0.980   0.033   1.422  0.2517  0.0546 -0.3280
10440SOL    HW132219   0.881   0.016   1.421 -0.0462  1.4674  0.8509
10440SOL    HW232220   1.008   0.076   1.336  0.1221 -1.6217 -1.2444
10441SOL     OW32221   4.186   0.879   3.251 -0.2436  0.3134 -0.3058
10441SOL    HW132222   4.203   0.960   3.306  0.0366  0.0532 -0.0045
10441SOL    HW232223   4.268   0.857   3.198  0.3663 -0.9035  1.0912
10442SOL     OW32224   5.373   5.197   4.201 -0.4839  0.3418  0.8460
10442SOL    HW132225   5.420   5.236   4.280 -1.2902  1.0009  1.0103
10442SOL    HW232226   5.274   5.199   4.216 -0.6116 -0.3303  0.1855
10443SOL     OW32227   5.254   3.308   2.411  0.5757 -0.0306  0.5029
10443SOL    HW132228   5.205   3.242   2.468  0.6014  1.2005  2.0292
10443SOL    HW232229   5.191   3.345   2.342  0.4220 -1.2243 -0.0150
10444SOL     OW32230   1.997   4.737   2.593 -0.1496 -0.3754 -0.3457
10444SOL    HW132231   1.902   4.717   2.568 -0.2278  0.3614 -0.6612
10444SOL    HW232232   2.005   4.834   2.619  0.4665 -0.4906 -0.0839
10445SOL     OW32233   1.736   3.174   3.091 -0.2160  0.7966  0.2802
10445SOL    HW132234   1.798   3.251   3.076  0.2616  0.8026  1.9950
10445SOL    HW232235   1.788   3.098   3.132 -0.7023 -0.4170 -1.2481
10446SOL     OW32236   1.780   2.615   6.231 -0.1223 -0.3547 -0.4159
10446SOL    HW132237   1.717   2.537   6.232  0.3579 -0.7647  1.3735
10446SOL    HW232238   1.870   2.586   6.262 -0.2647  1.1078  1.6186
10447SOL     OW32239   6.347   6.820   2.069 -0.2850 -0.7820  0.2362
10447SOL    HW132240   6.256   6.859   2.082 -0.0818  0.1730 -0.9723
10447SOL    HW232241   6.338   6.725   2.037 -0.8305 -0.9597  0.8934
10448SOL     OW32242   3.260   6.629   4.273 -0.0028 -0.3847  0.1586
10448SOL    HW132243   3.205   6.549   4.296 -0.2558  0.0670  1.2101
10448SOL    HW232244   3.357   6.610   4.292 -0.0634 -0.4518  0.4099
10449SOL     OW32245   2.548   6.256   6.417 -0.0697  0.9475  0.2926
10449SOL    HW132246   2.472   6.262   6.482  0.8150  0.5347  1.3946
10449SOL    HW232247   2.621   6.318   6.446  1.1184 -0.6359  0.8040
10450SOL     OW32248   6.651   1.373   6.718  0.0572  0.0714  0.1699
10450SOL    HW132249   6.595   1.391   6.798 -0.1935  0.3473 -0.0619
10450SOL    HW232250   6.593   1.367   6.637  0.1453 -1.6508  0.1990
10451SOL     OW32251   3.132   6.515   1.807  0.2367 -0.0998 -0.0269
10451SOL    HW132252   3.105   6.604   1.846  0.6951 -0.4884  1.1966
10451SOL    HW232253   3.076   6.443   1.848  0.1678 -0.4395 -0.7047
10452SOL     OW32254   5.886   4.872   2.820 -0.2006  0.0254 -0.2632
10452SOL    HW132255   5.891   4.837   2.726  1.1774 -0.4977 -0.0073
10452SOL    HW232256   5.943   4.953   2.829 -2.2162  1.5684 -0.4574
10453SOL     OW32257   5.732   0.995   2.722  0.3427 -0.1285  0.2371
10453SOL    HW132258   5.737   0.991   2.622  1.5057 -1.1214  0.3089
10453SOL    HW232259   5.784   1.073   2.755 -1.1949  1.0285  0.0255
10454SOL     OW32260   6.598   0.909   2.529  0.4032  0.8457 -0.0225
10454SOL    HW132261   6.521   0.937   2.471  0.7206 -0.5887 -1.2140
10454SOL    HW232262   6.592   0.810   2.545  1.4871  0.8816  0.6537
10455SOL     OW32263   1.824   6.985   6.640  0.3155  0.4287  0.0867
10455SOL    HW132264   1.796   7.022   6.551 -1.0418 -0.4582  0.1204
10455SOL    HW232265   1.793   7.046   6.713  0.2832  0.4941  0.0182
10456SOL     OW32266   0.838   5.868   5.864  0.0319  0.0806  0.8006
10456SOL    HW132267   0.761   5.909   5.913 -1.0484 -0.2120 -0.5839
10456SOL    HW232268   0.873   5.932   5.796 -0.1022 -0.3936  0.2750
10457SOL     OW32269   4.901   2.780   2.030 -0.1257 -0.2248  0.3077
10457SOL    HW132270   4.830   2.849   2.043 -0.4741 -0.6134  0.5142
10457SOL    HW232271   4.976   2.818   1.976  0.5300  0.8513  1.9379
10458SOL     OW32272   6.195   1.177   0.236 -0.3676 -0.0656 -0.2724
10458SOL    HW132273   6.145   1.155   0.320 -0.3924  0.7485 -0.0651
10458SOL    HW232274   6.270   1.112   0.223 -0.2606 -0.0917  0.4713
10459SOL     OW32275   5.143   5.662   0.711 -0.7289  0.0475 -0.6531
10459SOL    HW132276   5.136   5.573   0.756  0.5231  0.8060  1.2056
10459SOL    HW232277   5.195   5.653   0.626 -0.1285 -0.9390 -0.2004
10460SOL     OW32278   6.494   4.075   2.020 -0.4222  0.0760  0.5337
10460SOL    HW132279   6.578   4.127   2.037 -1.1346  0.9196  1.7140
10460SOL    HW232280   6.499   4.031   1.931  2.0760 -1.5175  1.3659
10461SOL     OW32281   6.158   3.354   5.477 -0.3601  0.0741 -0.5137
10461SOL    HW132282   6.228   3.333   5.409  0.0063  1.4833 -0.6085
10461SOL    HW232283   6.159   3.453   5.496  0.4488 -0.4073  2.4681
10462SOL     OW32284   5.892   3.099   3.851  0.5403 -0.7536 -0.1380
10462SOL    HW132285   5.797   3.078   3.828 -0.2216  0.6202  1.5230
10462SOL    HW232286   5.899   3.195   3.877  2.5403 -0.6625 -0.8699
10463SOL     OW32287   5.901   1.378   6.124 -0.0821  0.1478 -0.1379
10463SOL    HW132288   5.964   1.392   6.047 -0.6218 -1.5128 -0.9282
10463SOL    HW232289   5.883   1.466   6.168  0.8693  1.0253 -1.4058
10464SOL     OW32290   6.077   4.827   0.914  0.0346 -0.2061 -0.4272
10464SOL    HW132291   6.006   4.818   0.844 -0.2247  1.6411 -0.4386
10464SOL    HW232292   6.136   4.904   0.892 -0.8550  1.3094  2.0321
10465SOL     OW32293   5.039   4.750   1.566 -0.1427 -0.7705  0.2495
10465SOL    HW132294   5.012   4.744   1.470 -0.7666  2.5648  0.0704
10465SOL    HW232295   5.126   4.799   1.573 -0.8791  0.4799  1.3691
10466SOL     OW32296   5.602   3.413   0.250  0.2654 -0.1006 -0.1668
10466SOL    HW132297   5.601   3.438   0.153  1.5375  0.1070 -0.1413
10466SOL    HW232298   5.582   3.494   0.305  0.2000 -0.0691 -0.2369
10467SOL     OW32299   2.032   3.420   0.807  0.2629  0.0300  0.2898
10467SOL    HW132300   2.104   3.380   0.749  2.1862  1.1556  1.7810
10467SOL    HW232301   1.944   3.410   0.762  1.2608 -1.8565 -1.4061
10468SOL     OW32302   3.913   5.633   1.582 -0.2489 -0.0629 -0.3212
10468SOL    HW132303   3.915   5.679   1.671  1.6897  0.1271 -0.4263
10468SOL    HW232304   3.865   5.546   1.591  0.7564 -0.5058  1.1691
10469SOL     OW32305   4.299   2.686   6.048  0.0527 -0.4559 -0.2295
10469SOL    HW132306   4.302   2.594   6.009 -0.2597 -0.3008 -0.6286
10469SOL    HW232307   4.219   2.694   6.108 -0.5215 -0.1318 -1.0152
10470SOL     OW32308   1.922   2.412   3.659 -0.5127  0.7870 -0.2714
10470SOL    HW132309   1.899   2.447   3.749  1.4371 -0.0654  0.6208
10470SOL    HW232310   1.880   2.323   3.646 -1.8076  1.4459 -0.7340
10471SOL     OW32311   2.660   0.435   0.157  0.2397  0.4465 -0.6257
10471SOL    HW132312   2.615   0.352   0.190  0.8867 -0.0075 -0.8414
10471SOL    HW232313   2.741   0.409   0.103  0.6573  1.2313 -0.3920
10472SOL     OW32314   3.633   4.096   2.194 -0.7768 -0.6838  0.1899
10472SOL    HW132315   3.590   4.125   2.279 -0.3428 -0.8574  0.4697
10472SOL    HW232316   3.691   4.170   2.159 -2.5094  0.1563 -1.0185
10473SOL     OW32317   6.087   6.848   0.257  0.0705 -0.2796  0.4731
10473SOL    HW132318   6.020   6.878   0.324 -0.3141  0.9336 -0.4161
10473SOL    HW232319   6.042   6.831   0.170  0.5534 -1.9035  0.5040
10474SOL     OW32320   4.868   1.900   4.337  0.0335  0.0235  0.0470
10474SOL    HW132321   4.885   1.953   4.253 -2.6705  2.2702  0.7436
10474SOL    HW232322   4.861   1.962   4.415 -1.1864 -1.6019  1.3142
10475SOL     OW32323   3.261   6.554   1.045 -0.1883 -0.1247 -0.7314
10475SOL    HW132324   3.348   6.586   1.083 -0.8023  0.5025  0.1802
10475SOL    HW232325   3.243   6.601   0.959  0.3123 -0.1611 -0.8566
10476SOL     OW32326   5.556   6.860   0.855 -0.3755  0.5441  0.2201
10476SOL    HW132327   5.647   6.890   0.826 -0.8470  2.4197  0.5518
10476SOL    HW232328   5.560   6.831   0.950  0.1492 -0.8307 -0.1911
10477SOL     OW32329   4.869   1.241   4.555 -0.7621 -0.0665  0.2887
10477SOL    HW132330   4.897   1.246   4.651  0.6154  0.1670 -0.1057
10477SOL    HW232331   4.801   1.168   4.544 -0.9957 -0.0499  1.4400
10478SOL     OW32332   6.581   1.026   0.779  0.5871 -0.4880 -0.1413
10478SOL    HW132333   6.507   1.078   0.820  0.4567 -0.6674 -0.1469
10478SOL    HW232334   6.546   0.938   0.746  0.4193  0.1469 -1.7316
10479SOL     OW32335   6.350   0.842   2.621  0.0679 -0.0677 -0.0820
10479SOL    HW132336   6.430   0.889   2.656  2.0176 -2.4648 -1.0126
10479SOL    HW232337   6.356   0.745   2.644 -1.4111 -0.7065 -2.1072
10480SOL     OW32338   1.850   0.176   4.698 -0.0525  0.0747 -0.4778
10480SOL    HW132339   1.885   0.260   4.656  1.2134  0.1995  0.7322
10480SOL    HW232340   1.900   0.098   4.661 -0.6182 -0.0576 -0.9624
10481SOL     OW32341   0.606   1.907   3.524 -0.4038  0.1345 -0.0021
10481SOL    HW132342   0.620   1.831   3.460  2.4770  1.2491 -0.8600
10481SOL    HW232343   0.682   1.909   3.589 -0.4651  2.2102  0.0496
10482SOL     OW32344   6.784   5.286   2.633  0.1266  0.0411 -0.5476
10482SOL    HW132345   6.884   5.287   2.619  0.3282 -0.1654  0.8001
10482SOL    HW232346   6.754   5.375   2.667  0.0127 -0.2287  0.0703
10483SOL     OW32347   3.032   6.735   5.923 -0.0706 -0.3566  0.2082
10483SOL    HW132348   2.976   6.680   5.985 -0.4766 -0.8785 -0.6012
10483SOL    HW232349   3.099   6.676   5.878 -1.6985 -0.6340 -2.0516
10484SOL     OW32350   5.080   0.974   0.850 -0.1101  0.0940 -0.0325
10484SOL    HW132351   5.177   0.987   0.867 -0.0669 -0.5424  0.2344
10484SOL    HW232352   5.028   1.049   0.891  0.3010  0.6994 -0.6113
10485SOL     OW32353   3.737   5.201   5.314 -0.0032  0.1788  0.2529
10485SOL    HW132354   3.763   5.106   5.296 -0.6648  0.3889 -2.1025
10485SOL    HW232355   3.703   5.209   5.408 -0.3774 -1.9912  0.3521
10486SOL     OW32356   6.580   3.084   1.055  0.4672 -0.6777 -0.2447
10486SOL    HW132357   6.548   3.030   0.977  0.2388 -1.3645  0.3239
10486SOL    HW232358   6.670   3.123   1.032 -0.1578  0.1875 -1.3346
10487SOL     OW32359   5.157   6.471   1.282 -0.1114  0.0209  0.2697
10487SOL    HW132360   5.200   6.381   1.284 -0.3179 -0.0799  0.1691
10487SOL    HW232361   5.124   6.491   1.190  0.2457  0.3478  0.2088
10488SOL     OW32362   4.880   0.947   4.740  0.7395 -0.1599 -0.2933
10488SOL    HW132363   4.932   1.027   4.711 -1.0020  0.8890 -0.6178
10488SOL    HW232364   4.828   0.911   4.663 -0.6763  0.1109  0.5147
10489SOL     OW32365   1.541   6.388   6.062  0.2390  0.6345 -0.8526
10489SOL    HW132366   1.535   6.333   5.978 -2.7116 -0.2347 -0.1900
10489SOL    HW232367   1.565   6.329   6.139 -2.6732  0.1604 -0.1858
10490SOL     OW32368   6.548   0.294   2.168  0.0823 -0.4897  0.4145
10490SOL    HW132369   6.500   0.357   2.107  0.7006 -0.5677 -0.1759
10490SOL    HW232370   6.490   0.214   2.186 -0.4617 -0.0374  0.6714
10491SOL     OW32371   6.382   3.195   0.266 -0.3475  0.7012  0.5054
10491SOL    HW132372   6.298   3.152   0.300 -0.4723  2.2298  2.3100
10491SOL    HW232373   6.359   3.279   0.218  0.0012 -0.3843 -1.7079
10492SOL     OW32374   6.803   4.183   1.006 -0.0565  0.0659 -0.5285
10492SOL    HW132375   6.723   4.243   1.004 -0.4848 -0.4228  1.0605
10492SOL    HW232376   6.809   4.134   0.919 -0.1010  1.8426 -1.5887
10493SOL     OW32377   3.118   0.105   0.156 -0.2043 -0.3893  0.0134
10493SOL    HW132378   3.110   0.046   0.236  0.8352  0.5411  0.8469
10493SOL    HW232379   3.027   0.136   0.128 -0.6136 -1.0509  0.5744
10494SOL     OW32380   4.895   3.417   4.558  0.3335  0.4120 -0.1706
10494SOL    HW132381   4.895   3.377   4.650 -2.4394 -0.1706 -0.3417
10494SOL    HW232382   4.880   3.345   4.491  1.6820  0.9292 -1.0722
10495SOL     OW32383   3.441   6.756   5.264 -0.3622 -0.1479 -0.3248
10495SOL    HW132384   3.383   6.686   5.305 -0.8455 -0.8847 -2.1986
10495SOL    HW232385   3.520   6.712   5.220  0.0918  0.6196 -0.2994
10496SOL     OW32386   6.609   3.448   6.012  0.0489  1.2241  0.1989
10496SOL    HW132387   6.670   3.400   5.949  0.2074  0.8782  0.6188
10496SOL    HW232388   6.520   3.402   6.014  0.2767  0.8029  0.7830
10497SOL     OW32389   1.410   5.744   1.482 -0.1106  0.2660  0.3954
10497SOL    HW132390   1.346   5.805   1.529 -0.2754 -1.1467  2.1195
10497SOL    HW232391   1.501   5.752   1.523 -0.1257 -0.5887  0.6217
10498SOL     OW32392   3.191   6.726   2.183  0.3757 -0.0222 -0.0058
10498SOL    HW132393   3.115   6.782   2.217 -0.2997 -1.0082  0.1279
10498SOL    HW232394   3.231   6.674   2.259  1.7301  1.0785  0.0900
10499SOL     OW32395   4.229   5.824   1.848  0.4208  0.0696 -0.4286
10499SOL    HW132396   4.162   5.840   1.921 -0.3435  0.5664 -1.2225
10499SOL    HW232397   4.240   5.907   1.794 -0.6031 -0.8822 -2.1692
10500SOL     OW32398   6.734   1.288   1.160 -0.0990  0.3503  0.3325
10500SOL    HW132399   6.753   1.195   1.128  1.4182  0.8841 -0.4143
10500SOL    HW232400   6.675   1.334   1.095  1.0436  0.6431 -0.5379
10501SOL     OW32401   2.290   5.741   3.574 -0.1161  0.4870  0.6056
10501SOL    HW132402   2.369   5.757   3.514 -0.4151  0.6052  0.2362
10501SOL    HW232403   2.318   5.748   3.669  0.3372  0.4468  0.4754
10502SOL     OW32404   2.803   1.264   1.131 -0.0390 -0.2368  0.0574
10502SOL    HW132405   2.752   1.217   1.204 -1.7302 -0.4156 -1.1702
10502SOL    HW232406   2.804   1.207   1.049  0.4272  0.6267 -0.5509
10503SOL     OW32407   4.027   1.278   1.331  0.2718 -0.3216 -0.4685
10503SOL    HW132408   4.060   1.371   1.349  0.0780 -0.5405  1.1339
10503SOL    HW232409   4.105   1.220   1.306  0.7041 -0.1694  0.4765
10504SOL     OW32410   0.414   1.238   0.892  0.0720 -0.8224 -0.2676
10504SOL    HW132411   0.418   1.257   0.794 -0.7466 -1.3056 -0.4089
10504SOL    HW232412   0.323   1.206   0.916 -1.2186  3.3785  1.4251
10505SOL     OW32413   5.118   0.762   1.796 -0.2298 -0.1101  0.3381
10505SOL    HW132414   5.213   0.735   1.778  0.0555  1.1275 -0.1533
10505SOL    HW232415   5.106   0.780   1.894  0.6392  1.7616  0.1465
10506SOL     OW32416   0.051   6.247   6.385 -0.0303  0.1714 -0.0460
10506SOL    HW132417  -0.040   6.207   6.393  0.1200 -0.2769 -0.4903
10506SOL    HW232418   0.075   6.293   6.471 -0.5060 -0.0603  0.2169
10507SOL     OW32419   3.223   6.248   0.283  0.4909  0.0067  0.3350
10507SOL    HW132420   3.282   6.172   0.311  1.3699  0.0017 -1.3784
10507SOL    HW232421   3.263   6.334   0.315  1.0791 -0.0480 -0.2331
10508SOL     OW32422   0.426   6.806   5.089 -0.2257 -0.3644  0.2259
10508SOL    HW132423   0.456   6.781   5.181 -1.1027  1.4277  1.0472
10508SOL    HW232424   0.424   6.725   5.031  0.7821 -1.4500  1.6531
10509SOL     OW32425   2.407   6.389   5.550  0.0756 -0.4910  0.0594
10509SOL    HW132426   2.368   6.321   5.613 -0.2711  0.5753  1.0415
10509SOL    HW232427   2.355   6.389   5.464 -0.7549 -0.5750  0.5467
10510SOL     OW32428   5.303   5.478   6.180  0.1396  0.2571 -0.3767
10510SOL    HW132429   5.272   5.386   6.158  1.6804 -0.6507  0.9874
10510SOL    HW232430   5.402   5.484   6.167  0.4770  0.8970  1.9713
10511SOL     OW32431   4.931   6.254   2.038 -0.2216 -0.2907 -0.2001
10511SOL    HW132432   4.961   6.161   2.016 -2.6978 -1.3001  0.4123
10511SOL    HW232433   4.972   6.318   1.973  1.8365 -1.7047 -0.4126
10512SOL     OW32434   3.402   0.203   5.490  0.1983 -0.1858 -0.0903
10512SOL    HW132435   3.310   0.195   5.453 -1.1224 -2.3619  3.2237
10512SOL    HW232436   3.445   0.113   5.494  1.6483  0.4909  0.3690
10513SOL     OW32437   0.650   5.258   5.300  0.0944  0.0977  0.1053
10513SOL    HW132438   0.741   5.298   5.303  0.0212  0.2837 -0.0982
10513SOL    HW232439   0.615   5.260   5.206 -0.3035  0.4542  0.2561
10514SOL     OW32440   0.149   5.757   6.036 -0.0881 -0.5852 -0.2617
10514SOL    HW132441   0.089   5.707   6.098  1.1370 -2.2258 -0.3360
10514SOL    HW232442   0.176   5.698   5.960  1.4866  0.1461 -0.3169
10515SOL     OW32443   0.343   3.829   3.296  0.5322 -0.3660 -0.0023
10515SOL    HW132444   0.358   3.904   3.232 -0.7542 -0.1144 -0.0367
10515SOL    HW232445   0.250   3.834   3.332  1.0490 -0.8029  1.4913
10516SOL     OW32446   3.619   1.632   1.617 -0.1540 -0.4068  0.0482
10516SOL    HW132447   3.667   1.565   1.675 -0.2374  0.9974  1.8341
10516SOL    HW232448   3.524   1.604   1.605 -0.0425 -0.9034  0.2972
10517SOL     OW32449   0.200   3.209   3.336 -0.6539 -0.3881 -0.3599
10517SOL    HW132450   0.105   3.187   3.315 -0.9902  1.8610 -1.5190
10517SOL    HW232451   0.215   3.204   3.435 -2.4840  0.9157  0.0421
10518SOL     OW32452   1.233   4.569   6.008  0.2035  0.0227 -0.6386
10518SOL    HW132453   1.229   4.666   6.031  0.8735 -0.5314  2.1702
10518SOL    HW232454   1.145   4.540   5.969 -0.2718  1.5731 -0.7755
10519SOL     OW32455   2.883   2.085   7.009 -0.4758 -0.0142  0.0559
10519SOL    HW132456   2.838   2.012   7.060  0.4803 -1.5636 -1.2177
10519SOL    HW232457   2.971   2.106   7.052 -0.1414 -0.5925 -0.3213
10520SOL     OW32458   1.340   2.398   6.242 -0.3471  0.0430  0.3157
10520SOL    HW132459   1.311   2.494   6.242  1.1824  0.6377 -2.7345
10520SOL    HW232460   1.307   2.353   6.159  2.7399 -0.7249 -0.6133
10521SOL     OW32461   4.138   5.334   2.326  0.3073  0.1350 -0.3676
10521SOL    HW132462   4.052   5.282   2.336 -0.3088  1.3545  0.9878
10521SOL    HW232463   4.117   5.432   2.322  1.5913  0.4021 -0.9789
10522SOL     OW32464   5.440   5.873   6.921 -0.0868  0.5648 -0.4081
10522SOL    HW132465   5.527   5.900   6.963 -0.7202  1.8908  0.0965
10522SOL    HW232466   5.445   5.777   6.893  1.3440  0.4668  0.1143
10523SOL     OW32467   6.587   5.785   4.892 -0.2841 -0.0674 -0.5227
10523SOL    HW132468   6.632   5.786   4.802 -0.7251 -1.8265 -0.7964
10523SOL    HW232469   6.493   5.752   4.882 -0.3672 -0.1917  0.5742
10524SOL     OW32470   2.023   1.411   4.339  0.1784  0.0462  0.3568
10524SOL    HW132471   2.031   1.494   4.394  0.5491  0.3516 -0.1449
10524SOL    HW232472   2.108   1.360   4.344 -1.1980 -2.2798  3.6878
10525SOL     OW32473   3.424   0.952   5.291  0.3637  0.3402  0.0133
10525SOL    HW132474   3.414   1.030   5.229 -1.2889 -0.0654 -0.2602
10525SOL    HW232475   3.374   0.969   5.376 -0.8093 -0.7788 -0.4195
10526SOL     OW32476   1.223   5.212   6.087  0.4138  0.3316  0.3061
10526SOL    HW132477   1.260   5.217   6.179  0.8342  3.3287  0.0678
10526SOL    HW232478   1.284   5.159   6.028  0.1619 -1.5622  1.6595
10527SOL     OW32479   6.975   1.611   4.338 -0.1025 -0.3924  0.0060
10527SOL    HW132480   6.907   1.662   4.285  1.0511  1.2831  0.0285
10527SOL    HW232481   7.005   1.531   4.287 -1.5871 -0.7922 -0.2800
10528SOL     OW32482   1.529   2.725   6.198 -0.2421 -0.0595 -0.6440
10528SOL    HW132483   1.628   2.709   6.195 -0.3454 -0.6534 -1.0787
10528SOL    HW232484   1.490   2.677   6.277  0.1970  2.4952  1.2564
10529SOL     OW32485   1.742   3.725   4.016 -0.5693  0.3895  0.1229
10529SOL    HW132486   1.650   3.756   3.991 -0.2432  0.2703 -1.3129
10529SOL    HW232487   1.736   3.665   4.096 -1.5048  1.9514  1.2997
10530SOL     OW32488   1.740   0.065   1.006 -0.3149 -0.1109  0.6679
10530SOL    HW132489   1.809  -0.008   1.006  0.3997  0.5054  2.3639
10530SOL    HW232490   1.651   0.026   1.032 -0.1135 -0.5296  0.7539
10531SOL     OW32491   1.893   1.915   5.540  0.0523  0.1585  0.1131
10531SOL    HW132492   1.935   1.992   5.492  0.1604  0.9477  1.4169
10531SOL    HW232493   1.925   1.913   5.635 -1.3399 -0.3966  0.6089
10532SOL     OW32494   1.613   4.439   6.118 -0.0176 -0.6998 -0.5830
10532SOL    HW132495   1.562   4.386   6.186 -2.0318 -0.1702 -1.6229
10532SOL    HW232496   1.612   4.535   6.143 -0.7414 -0.5070 -1.3274
10533SOL     OW32497   2.447   1.392   5.376 -0.6476 -0.2588 -0.5442
10533SOL    HW132498   2.465   1.489   5.392 -1.4758  0.0496 -1.3772
10533SOL    HW232499   2.401   1.354   5.457 -0.4858  0.0899 -0.2850
10534SOL     OW32500   6.398   6.430   5.981  0.0071 -0.5268 -0.3677
10534SOL    HW132501   6.364   6.519   6.009 -2.8599 -1.6287  0.0074
10534SOL    HW232502   6.324   6.379   5.935  1.5230 -2.7324 -0.5012
10535SOL     OW32503   5.584   2.468   6.766  0.3790  0.1825  0.0747
10535SOL    HW132504   5.502   2.417   6.740  0.2527  0.5487 -0.2495
10535SOL    HW232505   5.569   2.566   6.748  0.7123  0.3041  0.4543
10536SOL     OW32506   4.652   2.151   2.710  0.1103  0.4816 -0.4690
10536SOL    HW132507   4.586   2.097   2.761  0.0993  0.9711  0.0433
10536SOL    HW232508   4.745   2.122   2.734  0.1057 -0.3210 -1.3128
10537SOL     OW32509   2.815   6.301   5.167 -0.6487 -0.0989  0.7638
10537SOL    HW132510   2.871   6.349   5.234  0.1979 -0.8161  0.5967
10537SOL    HW232511   2.853   6.210   5.151  0.6270  0.8439 -2.4602
10538SOL     OW32512   4.619   3.396   6.642 -0.1340 -0.3141 -0.0304
10538SOL    HW132513   4.593   3.357   6.553  0.6175 -3.5135  1.0029
10538SOL    HW232514   4.540   3.442   6.682 -1.8592 -2.5958 -0.5596
10539SOL     OW32515   0.529   1.713   6.684  1.0777  0.0119  0.5140
10539SOL    HW132516   0.608   1.655   6.667 -0.3309 -1.0366 -3.5352
10539SOL    HW232517   0.452   1.683   6.628 -0.1184  5.0554 -1.1184
10540SOL     OW32518   1.888   4.071   3.432  0.0146  0.2951  0.0029
10540SOL    HW132519   1.876   3.987   3.378  0.0600 -0.2616  0.8349
10540SOL    HW232520   1.930   4.141   3.375 -1.5293  0.3084 -1.1939
10541SOL     OW32521   3.508   3.274   2.407 -0.7661 -0.8006 -0.1934
10541SOL    HW132522   3.443   3.217   2.458  0.9282 -0.3204  2.7221
10541SOL    HW232523   3.600   3.237   2.418  0.0351  1.0459 -0.3798
10542SOL     OW32524   4.917   1.859   6.831  0.3806 -0.5258 -0.9655
10542SOL    HW132525   5.008   1.845   6.791  1.0610 -2.3490  1.0122
10542SOL    HW232526   4.863   1.776   6.820 -0.0844 -0.3916  0.1679
10543SOL     OW32527   6.311   1.203   6.188 -0.5374 -0.0770 -0.0530
10543SOL    HW132528   6.293   1.165   6.097  0.0304  0.4640 -0.3997
10543SOL    HW232529   6.233   1.185   6.248 -1.8959  1.4553 -1.2570
10544SOL     OW32530   2.292   1.146   3.295  1.1256 -0.0489  0.5256
10544SOL    HW132531   2.341   1.219   3.344 -0.8361  1.6798  0.0249
10544SOL    HW232532   2.195   1.168   3.291  0.4051 -2.8626  0.5629
10545SOL     OW32533   6.755   1.922   3.792  0.1251  0.7310  0.4070
10545SOL    HW132534   6.749   1.877   3.703  0.1834  0.4476  0.5461
10545SOL    HW232535   6.835   1.982   3.794  1.7216 -1.2819  1.1720
10546SOL     OW32536   2.179   1.506   5.972  0.1385  0.0482  0.0733
10546SOL    HW132537   2.260   1.500   5.914 -0.0420  1.0162 -0.3120
10546SOL    HW232538   2.097   1.504   5.915 -0.0810 -0.2165  0.3972
10547SOL     OW32539   5.847   2.435   2.357  0.0590  0.5877  0.3855
10547SOL    HW132540   5.923   2.371   2.346 -1.8653 -2.4270  2.7156
10547SOL    HW232541   5.803   2.451   2.269 -0.7304 -3.2907 -0.0895
10548SOL     OW32542   3.569   3.774   5.724 -0.3850  0.1182 -0.0106
10548SOL    HW132543   3.469   3.773   5.730 -0.4382  0.4165 -0.6976
10548SOL    HW232544   3.597   3.727   5.640  0.0314  0.4443 -0.0545
10549SOL     OW32545   5.552   6.786   1.516  0.2784 -0.2852 -0.6883
10549SOL    HW132546   5.519   6.693   1.496  1.4672 -0.6550 -1.0119
10549SOL    HW232547   5.508   6.820   1.599  1.1371 -1.8516  0.4646
10550SOL     OW32548   4.028   3.887   5.693 -0.1663 -0.0847  0.5396
10550SOL    HW132549   4.029   3.971   5.748 -1.3086  1.3260 -1.4576
10550SOL    HW232550   3.947   3.887   5.634 -0.1078 -2.5604  0.3719
10551SOL     OW32551   1.556   2.407   6.890  0.2769 -0.6126 -0.8524
10551SOL    HW132552   1.646   2.417   6.849  0.5695  1.2933  0.1438
10551SOL    HW232553   1.562   2.349   6.972  0.7531  0.1206 -0.3632
10552SOL     OW32554   3.970   1.690   3.973 -0.4113 -0.3100  0.0576
10552SOL    HW132555   3.881   1.644   3.966 -1.9476  2.3146  0.8644
10552SOL    HW232556   4.000   1.718   3.882 -0.0343 -1.7690 -0.2987
10553SOL     OW32557   2.562   4.642   0.398 -0.0518 -0.1104  0.4331
10553SOL    HW132558   2.611   4.717   0.352 -0.5687  1.0479  1.7301
10553SOL    HW232559   2.506   4.593   0.331 -0.6237  1.4032 -0.2273
10554SOL     OW32560   5.061   6.405   0.266 -0.4181  0.0793 -0.5965
10554SOL    HW132561   5.074   6.332   0.199  2.5866 -0.4823  0.4567
10554SOL    HW232562   5.006   6.370   0.343  2.0681 -1.6290  0.5299
10555SOL     OW32563   2.334   2.077   1.617  0.3000  0.5948  0.3881
10555SOL    HW132564   2.245   2.096   1.658  0.1136 -1.0806  0.7992
10555SOL    HW232565   2.406   2.113   1.677 -0.0369 -0.0880  1.2255
10556SOL     OW32566   1.015   2.148   5.650  0.0012 -0.2361  0.9485
10556SOL    HW132567   0.983   2.239   5.624 -0.7508 -0.4805  0.9840
10556SOL    HW232568   0.943   2.081   5.632 -1.2446 -0.2326  4.9920
10557SOL     OW32569   2.026   2.748   2.646 -0.0463 -0.4194 -0.1723
10557SOL    HW132570   2.068   2.696   2.572  0.4352  0.3142 -0.4250
10557SOL    HW232571   2.057   2.843   2.642 -1.9462  0.2389 -0.5451
10558SOL     OW32572   3.047   1.085   4.830 -0.0579  0.4011  0.1344
10558SOL    HW132573   3.147   1.090   4.827 -0.0548  1.1223  0.9602
10558SOL    HW232574   3.009   1.177   4.823 -0.7861 -0.0362 -2.5890
10559SOL     OW32575   5.710   1.079   1.026 -0.0564  0.0260  0.0874
10559SOL    HW132576   5.787   1.036   0.979 -0.4886 -0.6835  0.0125
10559SOL    HW232577   5.732   1.174   1.046  1.4084 -0.5238  1.3424
10560SOL     OW32578   4.686   6.543   4.922  0.3060  0.7300  0.0522
10560SOL    HW132579   4.752   6.584   4.985  2.3000  1.1200 -2.1696
10560SOL    HW232580   4.603   6.599   4.921  1.2354  2.1759  0.4045
10561SOL     OW32581   4.117   5.495   1.429 -0.3337  0.2246 -0.5805
10561SOL    HW132582   4.044   5.536   1.483 -0.2263 -0.8992  0.4385
10561SOL    HW232583   4.088   5.488   1.333 -1.2988  0.3864 -0.3016
10562SOL     OW32584   6.619   0.575   0.880  0.1844  0.4757  0.4706
10562SOL    HW132585   6.584   0.613   0.795  2.2338  0.8101 -0.2783
10562SOL    HW232586   6.705   0.528   0.862  1.2294  1.4863  2.5176
10563SOL     OW32587   5.643   0.638   4.541 -0.0917  0.4625  0.0560
10563SOL    HW132588   5.686   0.615   4.453  0.7221 -0.5892  0.7045
10563SOL    HW232589   5.714   0.658   4.608 -0.7200  1.6696  0.3863
10564SOL     OW32590   6.344   6.983   2.751 -0.3599  0.3124  0.3495
10564SOL    HW132591   6.262   6.953   2.800 -0.8810 -0.7235 -1.0971
10564SOL    HW232592   6.321   6.999   2.655  1.1287  0.0230 -0.0718
10565SOL     OW32593   0.286   2.676   6.904  0.0216 -0.3989  0.0708
10565SOL    HW132594   0.305   2.755   6.845  2.5954  0.8153  2.2970
10565SOL    HW232595   0.187   2.661   6.909 -0.4251  1.1788 -2.2456
10566SOL     OW32596   4.708   2.357   1.210 -0.1266 -0.0773  0.4678
10566SOL    HW132597   4.757   2.438   1.179 -0.4386  0.6682  1.8295
10566SOL    HW232598   4.768   2.277   1.202 -0.0272  0.1367 -1.4820
10567SOL     OW32599   0.969   2.247   5.341  0.0851 -0.5146  0.2435
10567SOL    HW132600   0.945   2.205   5.253  2.5450 -2.2232  0.2740
10567SOL    HW232601   0.957   2.346   5.336 -0.1993 -0.6127 -1.9007
10568SOL     OW32602   5.528   2.469   1.245 -1.0379 -0.3495  0.7976
10568SOL    HW132603   5.563   2.549   1.196  0.3541 -1.5884 -0.2955
10568SOL    HW232604   5.432   2.455   1.220 -1.0299  0.4419  0.2872
10569SOL     OW32605   0.150   3.058   1.144  0.0696 -0.1895 -0.1395
10569SOL    HW132606   0.165   3.002   1.063 -0.9195 -1.3467  0.4321
10569SOL    HW232607   0.107   3.002   1.215 -1.5167  1.4326  0.2612
10570SOL     OW32608   2.688   6.006   3.865 -0.0709  0.1934 -0.2477
10570SOL    HW132609   2.669   6.094   3.823  0.2801  0.8524  0.9315
10570SOL    HW232610   2.641   6.000   3.954  1.0759 -0.1938  0.3584
10571SOL     OW32611   1.816   5.456   4.980  0.7097  0.0314 -0.3004
10571SOL    HW132612   1.911   5.447   5.011  0.3972  2.7686  1.9349
10571SOL    HW232613   1.771   5.368   4.985  2.2432 -0.7239  2.0247
10572SOL     OW32614   6.826   3.914   3.806 -0.7056  0.3097 -0.4155
10572SOL    HW132615   6.812   3.976   3.729  0.4353 -0.1796 -1.0377
10572SOL    HW232616   6.779   3.828   3.788 -0.2763  0.1232 -0.6722
10573SOL     OW32617   4.284   6.999   3.791 -0.6196  0.7018  0.2105
10573SOL    HW132618   4.262   6.903   3.772  1.0214  0.0926  1.1565
10573SOL    HW232619   4.205   7.042   3.836 -0.6893 -0.8205  1.6877
10574SOL     OW32620   0.471   1.554   4.755 -0.0009 -0.0818  0.0635
10574SOL    HW132621   0.485   1.644   4.713  0.1519 -0.0685  0.1416
10574SOL    HW232622   0.373   1.535   4.761 -0.0134 -0.4310 -1.0250
10575SOL     OW32623   0.472   0.706   4.093 -0.3794  0.0417 -0.0776
10575SOL    HW132624   0.407   0.730   4.165 -1.2444 -0.0269 -0.8137
10575SOL    HW232625   0.495   0.609   4.101 -1.0407 -0.1426 -0.3199
10576SOL     OW32626   0.108   5.271   0.410  0.0151 -0.2898 -0.2378
10576SOL    HW132627   0.102   5.172   0.397  0.5321 -0.8290  2.7317
10576SOL    HW232628   0.204   5.297   0.418 -0.1685 -0.1061  1.9657
10577SOL     OW32629   1.921   0.479   6.956 -0.5140  0.0164 -0.3791
10577SOL    HW132630   1.952   0.568   6.988  0.4219  0.3076 -1.9968
10577SOL    HW232631   1.844   0.449   7.011 -0.7964  1.7819  0.2454
10578SOL     OW32632   5.208   2.265   3.005  0.3657 -0.2406  0.0281
10578SOL    HW132633   5.280   2.264   2.937 -0.3028 -0.4176 -0.6878
10578SOL    HW232634   5.125   2.306   2.966 -0.3440 -1.2936  0.3869
10579SOL     OW32635   4.891   1.461   1.886  0.3782  0.1458 -0.2558
10579SOL    HW132636   4.923   1.541   1.936  2.5038 -0.0003 -1.2681
10579SOL    HW232637   4.826   1.489   1.816 -1.7408  0.4803  1.7178
10580SOL     OW32638   6.537   6.750   5.127  0.3007 -0.0340  0.2932
10580SOL    HW132639   6.516   6.783   5.035  1.0428 -0.3682 -0.0088
10580SOL    HW232640   6.522   6.823   5.193  0.4294  0.4283 -0.1836
10581SOL     OW32641   1.125   1.790   2.758  0.2013 -0.3754  0.3236
10581SOL    HW132642   1.074   1.717   2.713 -0.3655 -1.4475  2.5558
10581SOL    HW232643   1.080   1.878   2.739 -0.1671 -0.8173 -0.9257
10582SOL     OW32644   5.402   3.682   5.419 -0.5144  0.5152 -0.2211
10582SOL    HW132645   5.399   3.583   5.431  2.0856  0.2694 -0.9868
10582SOL    HW232646   5.419   3.703   5.322  0.9709  1.6031  0.2449
10583SOL     OW32647   2.064   0.768   4.305  0.0491 -0.3355 -0.0872
10583SOL    HW132648   2.129   0.695   4.326 -0.3840 -0.5973  0.3290
10583SOL    HW232649   2.114   0.845   4.265  0.4018 -1.1829 -1.3665
10584SOL     OW32650   5.722   4.273   0.875  0.3204 -0.2354 -0.7068
10584SOL    HW132651   5.749   4.346   0.938  1.1405 -1.7974  0.8273
10584SOL    HW232652   5.629   4.291   0.841  0.6372  1.6773 -0.6666
10585SOL     OW32653   1.085   1.831   0.501  0.4511 -0.1441 -0.3530
10585SOL    HW132654   1.052   1.907   0.444  0.2785 -0.0029 -0.0638
10585SOL    HW232655   1.184   1.820   0.486 -0.0709 -2.1172 -3.0467
10586SOL     OW32656   2.154   5.707   3.091 -0.8760 -0.3833  0.4246
10586SOL    HW132657   2.149   5.782   3.157  0.3827 -0.9227  1.1711
10586SOL    HW232658   2.249   5.679   3.079 -0.6019  1.6273 -3.9277
10587SOL     OW32659   5.594   4.013   6.676  0.5345 -0.1901 -0.1939
10587SOL    HW132660   5.518   4.043   6.735  0.9567  0.1898  0.1668
10587SOL    HW232661   5.632   4.093   6.628 -0.2370 -0.5823 -1.5154
10588SOL     OW32662   0.658   4.970   3.041  0.5069 -0.1792  0.8689
10588SOL    HW132663   0.630   4.880   3.008  0.1365 -0.1506  1.0925
10588SOL    HW232664   0.577   5.021   3.070  0.4557  1.0249 -1.1956
10589SOL     OW32665   0.511   0.279   5.781  0.3209 -0.0088  0.4097
10589SOL    HW132666   0.587   0.331   5.820  2.6634 -0.1549 -3.4003
10589SOL    HW232667   0.529   0.181   5.790  1.7985 -0.0769 -2.1968
10590SOL     OW32668   0.989   5.785   1.925  0.0903 -0.4285  0.1149
10590SOL    HW132669   0.902   5.749   1.890  0.2538 -1.3578  0.6371
10590SOL    HW232670   1.055   5.710   1.932  1.5529  0.5544 -2.0539
10591SOL     OW32671   2.083   6.014   3.783  0.6715 -0.4443 -0.5900
10591SOL    HW132672   2.071   6.040   3.878 -0.9965  1.4435 -1.2601
10591SOL    HW232673   2.048   5.921   3.769  2.7637 -1.5552  0.9637
10592SOL     OW32674   5.008   3.498   0.564 -0.1189 -0.2833  0.3317
10592SOL    HW132675   5.049   3.484   0.654  1.6700 -1.7239 -0.6255
10592SOL    HW232676   5.076   3.537   0.502 -1.8412  2.3954 -0.0030
10593SOL     OW32677   6.766   3.765   6.368  0.0400 -0.1226 -0.1300
10593SOL    HW132678   6.835   3.725   6.427 -0.4914  0.1663  0.7074
10593SOL    HW232679   6.677   3.725   6.389 -0.1823  0.1038 -0.6235
10594SOL     OW32680   5.400   3.603   4.169 -0.1665 -0.0052  0.2369
10594SOL    HW132681   5.323   3.652   4.127 -0.3972 -0.4381  0.1457
10594SOL    HW232682   5.367   3.519   4.211 -0.1341  0.9400  2.3029
10595SOL     OW32683   1.667   0.800   6.977 -0.4587 -0.3381  0.5459
10595SOL    HW132684   1.756   0.788   7.020 -0.6021  0.2221  1.0054
10595SOL    HW232685   1.594   0.776   7.042 -0.6712  0.4177  0.6013
10596SOL     OW32686   6.402   0.758   0.274 -0.4858 -0.2871 -0.1007
10596SOL    HW132687   6.311   0.751   0.314 -0.6479  2.4424  0.1683
10596SOL    HW232688   6.431   0.853   0.273  1.8504 -0.9326 -1.3955
10597SOL     OW32689   3.513   0.350   3.557 -0.5587  0.8018 -0.2422
10597SOL    HW132690   3.540   0.260   3.522 -1.1312  0.6716 -0.3644
10597SOL    HW232691   3.594   0.398   3.591 -0.1141  0.5735 -0.9378
10598SOL     OW32692   3.880   1.461   0.345 -0.6029  0.0675  0.0866
10598SOL    HW132693   3.815   1.387   0.331 -1.3911  0.9345 -1.0060
10598SOL    HW232694   3.948   1.460   0.271 -0.8043  0.6168 -0.1097
10599SOL     OW32695   3.264   3.349   6.047 -0.6495  0.2389 -0.0467
10599SOL    HW132696   3.312   3.382   5.966  0.4671  0.7844  0.8108
10599SOL    HW232697   3.165   3.358   6.033 -0.4736  0.4113 -1.3011
10600SOL     OW32698   3.284   2.909   6.572 -0.0585 -0.7913  0.2289
10600SOL    HW132699   3.239   2.966   6.640  2.7925  1.3090  0.5552
10600SOL    HW232700   3.233   2.912   6.486 -1.0804  0.5489  0.8503
10601SOL     OW32701   0.553   5.264   5.004 -0.7110 -0.1119  0.1249
10601SOL    HW132702   0.620   5.193   4.984  0.4361  0.9713 -0.0501
10601SOL    HW232703   0.461   5.226   4.998 -0.1176 -1.9097  1.3860
10602SOL     OW32704   5.841   1.213   2.830  0.1133 -0.0380 -0.8793
10602SOL    HW132705   5.756   1.259   2.857  0.2967 -0.6482  0.8897
10602SOL    HW232706   5.907   1.282   2.799 -0.7134  0.5298 -1.4256
10603SOL     OW32707   3.577   4.911   5.363 -0.1849  0.0198  0.5448
10603SOL    HW132708   3.578   4.935   5.266  0.0750 -0.8786  0.3102
10603SOL    HW232709   3.487   4.933   5.402 -0.3912  0.1087  0.0303
10604SOL     OW32710   5.263   4.499   4.723  0.3119 -0.2888 -0.1323
10604SOL    HW132711   5.248   4.590   4.761  0.4922  0.1459 -1.0905
10604SOL    HW232712   5.301   4.439   4.794  0.2027  0.3764  0.4960
10605SOL     OW32713   0.882   4.536   1.328 -0.6824 -0.2044  0.4328
10605SOL    HW132714   0.930   4.451   1.304 -0.2229  0.4484 -1.0504
10605SOL    HW232715   0.869   4.539   1.427  0.1130 -1.5728  0.6101
10606SOL     OW32716   1.150   0.680   3.032 -1.1606 -0.0642 -0.6353
10606SOL    HW132717   1.079   0.686   2.962 -2.6967  1.0926  0.9494
10606SOL    HW232718   1.221   0.747   3.014 -1.2813 -0.1255 -1.3466
10607SOL     OW32719   3.745   4.199   6.505 -1.1370 -0.2036 -0.4244
10607SOL    HW132720   3.808   4.189   6.581 -1.5173  3.1180  0.4858
10607SOL    HW232721   3.734   4.296   6.483 -3.1849 -0.8778 -2.9174
10608SOL     OW32722   6.124   0.727   6.592  0.2111 -0.0759 -0.1239
10608SOL    HW132723   6.144   0.786   6.514  1.9781  1.0633  1.1076
10608SOL    HW232724   6.202   0.667   6.609  0.2994  0.4425  1.3981
10609SOL     OW32725   1.991   2.300   2.925  0.7477 -0.3016  0.3718
10609SOL    HW132726   2.036   2.377   2.879  1.9765 -1.3524 -0.2527
10609SOL    HW232727   2.023   2.294   3.019  1.5780 -0.7496  0.0726
10610SOL     OW32728   1.533   3.354   4.329 -0.4123  0.2018  0.2563
10610SOL    HW132729   1.454   3.364   4.389 -0.8085 -1.8715  0.1459
10610SOL    HW232730   1.575   3.265   4.343  2.2016  1.3999  0.5996
10611SOL     OW32731   3.170   2.589   5.353 -0.2373  0.3688  0.0936
10611SOL    HW132732   3.099   2.623   5.291 -0.2856  1.1721  0.5780
10611SOL    HW232733   3.207   2.503   5.316 -0.6205  0.5562 -0.7733
10612SOL     OW32734   2.367   0.771   0.678  0.4316  0.1693  0.0510
10612SOL    HW132735   2.346   0.698   0.744  0.0828  1.1721  1.0886
10612SOL    HW232736   2.376   0.858   0.727 -0.1181  0.9992 -1.2730
10613SOL     OW32737   5.636   0.095   5.508 -0.0660 -0.0392  0.0668
10613SOL    HW132738   5.663   0.010   5.463  1.8413  0.0641  0.9085
10613SOL    HW232739   5.562   0.077   5.572 -0.9190 -0.6943 -1.0648
10614SOL     OW32740   6.779   4.396   3.370 -0.2109 -0.2975  0.2992
10614SOL    HW132741   6.781   4.352   3.460  0.4235 -3.6149 -1.1496
10614SOL    HW232742   6.699   4.455   3.363 -1.3083 -1.3963  2.4369
10615SOL     OW32743   3.775   5.636   6.472 -0.0283 -0.2187 -0.1529
10615SOL    HW132744   3.703   5.683   6.422 -0.2562  1.1148  1.3467
10615SOL    HW232745   3.855   5.695   6.478  0.6692 -1.0967 -0.4998
10616SOL     OW32746   3.171   5.956   0.166  0.4681  0.3027 -0.5144
10616SOL    HW132747   3.080   5.975   0.130  0.4629  0.7852 -0.2442
10616SOL    HW232748   3.239   5.969   0.094  0.3960  0.6610 -0.5196
10617SOL     OW32749   2.400   1.244   0.997  0.0383 -0.5534 -0.1651
10617SOL    HW132750   2.442   1.327   1.035 -0.1170 -0.5278 -0.0513
10617SOL    HW232751   2.306   1.235   1.030 -0.2201 -0.3417 -0.8199
10618SOL     OW32752   5.508   3.263   6.429 -0.0497  0.0924 -0.1348
10618SOL    HW132753   5.527   3.292   6.523  1.3326 -0.2896 -0.2680
10618SOL    HW232754   5.573   3.192   6.402 -2.2901 -1.9600 -0.4074
10619SOL     OW32755   6.958   4.657   1.073 -0.3498  0.2683  0.0690
10619SOL    HW132756   6.864   4.631   1.095 -1.2565  2.1081 -1.3367
10619SOL    HW232757   6.974   4.751   1.101 -0.0195  1.0650 -2.4684
10620SOL     OW32758   1.324   4.277   0.093  0.1708  0.0794  0.6780
10620SOL    HW132759   1.309   4.184   0.061 -1.2171  0.1639  1.0284
10620SOL    HW232760   1.361   4.275   0.186  0.6534 -0.1257  0.4812
10621SOL     OW32761   1.037   6.436   2.165 -0.4029 -0.5070  0.3882
10621SOL    HW132762   0.943   6.425   2.133 -2.1107  3.1631  3.3164
10621SOL    HW232763   1.091   6.480   2.093 -2.0339  0.7541 -0.1381
10622SOL     OW32764   5.457   2.664   0.243 -0.1779  0.1291  0.0107
10622SOL    HW132765   5.407   2.662   0.329 -2.0795 -2.5550 -1.0177
10622SOL    HW232766   5.550   2.628   0.257 -0.2359  0.3704  1.0565
10623SOL     OW32767   1.594   6.208   4.750  0.4536 -0.0956  0.4093
10623SOL    HW132768   1.555   6.216   4.842 -0.8670  0.7438 -0.1834
10623SOL    HW232769   1.671   6.271   4.741 -0.5043  1.1250  0.4291
10624SOL     OW32770   0.172   1.180   4.360 -0.5489  0.3072  0.3083
10624SOL    HW132771   0.190   1.123   4.280 -2.0357  0.9108 -0.4942
10624SOL    HW232772   0.181   1.124   4.443 -1.5838 -1.0305 -0.4338
10625SOL     OW32773   5.861   4.481   1.022  0.1412  0.0030 -0.3234
10625SOL    HW132774   5.794   4.502   1.093 -0.0120  0.6348 -0.6530
10625SOL    HW232775   5.922   4.409   1.055 -0.2421 -0.0635  0.2557
10626SOL     OW32776   3.140   4.525   6.447  0.4383 -0.2729  0.2149
10626SOL    HW132777   3.165   4.534   6.544  1.5582  1.7733 -0.2116
10626SOL    HW232778   3.222   4.504   6.394  0.4828  1.8640 -0.6477
10627SOL     OW32779   6.839   6.848   1.061 -0.5090 -0.3224  0.7170
10627SOL    HW132780   6.922   6.850   1.117  0.2052 -2.2374 -0.1822
10627SOL    HW232781   6.864   6.860   0.965 -1.2407 -1.0878  0.4208
10628SOL     OW32782   6.443   0.047   4.754 -0.2671  0.1078  0.4027
10628SOL    HW132783   6.349   0.067   4.726 -0.8486 -0.2731  1.9781
10628SOL    HW232784   6.479   0.124   4.806  1.6686  1.8727 -3.1743
10629SOL     OW32785   1.147   4.711   3.388 -0.1572 -0.3110 -0.6807
10629SOL    HW132786   1.186   4.787   3.440  2.1504 -2.1928  0.5780
10629SOL    HW232787   1.059   4.685   3.428  0.2207  0.1293  0.4889
10630SOL     OW32788   0.612   6.509   4.067  0.4746  0.4676  0.6530
10630SOL    HW132789   0.547   6.451   4.018  1.1393 -0.2728  0.6494
10630SOL    HW232790   0.618   6.598   4.020  2.1647 -0.6868 -1.5175
10631SOL     OW32791   0.367   4.652   6.815 -0.1328  0.0892 -0.2748
10631SOL    HW132792   0.392   4.578   6.877 -0.6744 -0.1419 -0.3225
10631SOL    HW232793   0.373   4.740   6.862 -0.4748 -0.0791  0.0877
10632SOL     OW32794   5.065   6.986   5.131  0.0201  0.6035  0.0789
10632SOL    HW132795   4.988   6.928   5.106 -0.8167  0.1674  3.2121
10632SOL    HW232796   5.031   7.078   5.154  0.7863  1.1115 -0.7280
10633SOL     OW32797   1.969   4.495   6.918 -0.7245  0.3427 -0.5128
10633SOL    HW132798   1.943   4.574   6.974 -1.3337 -1.4050  1.8107
10633SOL    HW232799   2.067   4.499   6.898 -0.5687  1.2201  0.3567
10634SOL     OW32800   2.754   5.120   1.324 -0.1776  0.0788  0.4184
10634SOL    HW132801   2.753   5.109   1.224 -0.5952  3.2262 -0.0302
10634SOL    HW232802   2.757   5.217   1.346 -0.1314 -0.5438  3.5246
10635SOL     OW32803   2.710   1.993   0.506 -0.0891  0.3500  0.4615
10635SOL    HW132804   2.640   2.001   0.577 -0.5681 -0.5922  0.1057
10635SOL    HW232805   2.694   2.064   0.436 -0.5487  0.2952  0.5041
10636SOL     OW32806   0.812   3.262   2.239 -0.8694 -0.1904  0.0261
10636SOL    HW132807   0.888   3.200   2.220 -1.0033 -0.2723 -0.2573
10636SOL    HW232808   0.779   3.247   2.332  1.6128  2.1503  1.4421
10637SOL     OW32809   3.666   4.996   5.943 -0.1869 -0.1214  0.3806
10637SOL    HW132810   3.584   5.020   5.996 -0.1858  2.2665 -0.5637
10637SOL    HW232811   3.644   4.999   5.845  0.9648  0.3784  0.1176
10638SOL     OW32812   6.606   5.657   5.263 -0.3652 -0.0884 -0.0132
10638SOL    HW132813   6.628   5.605   5.345 -2.4426 -2.6695 -0.9276
10638SOL    HW232814   6.573   5.594   5.192  0.3800  2.1476 -2.5024
10639SOL     OW32815   0.306   4.262   4.237  0.0925  0.0923 -0.9412
10639SOL    HW132816   0.352   4.174   4.249  2.1261  0.9607 -1.8958
10639SOL    HW232817   0.373   4.336   4.249 -1.5211  1.5159 -0.3683
10640SOL     OW32818   2.738   6.533   3.910 -0.6353 -0.4695  0.0315
10640SOL    HW132819   2.646   6.495   3.923 -0.2960 -2.1167 -1.8902
10640SOL    HW232820   2.784   6.484   3.836  1.7266  0.4800  0.7836
10641SOL     OW32821   4.530   2.112   6.332 -0.7777  0.2265 -0.1269
10641SOL    HW132822   4.462   2.039   6.327  1.2330 -1.6897 -1.4309
10641SOL    HW232823   4.499   2.190   6.277 -2.0425 -0.4708 -0.4418
10642SOL     OW32824   1.060   4.113   1.532  0.4442  0.1183  0.4705
10642SOL    HW132825   1.105   4.173   1.466  0.3041  0.7303  0.9258
10642SOL    HW232826   1.110   4.114   1.618  0.7810 -0.8899  0.2973
10643SOL     OW32827   1.952   5.259   5.313  0.6225  0.0302  0.0021
10643SOL    HW132828   1.882   5.315   5.358 -0.3525 -0.9653 -0.2118
10643SOL    HW232829   1.970   5.178   5.370  2.8498  1.0803  0.8799
10644SOL     OW32830   5.659   1.974   2.760  0.1950  0.1610 -0.0724
10644SOL    HW132831   5.730   1.937   2.701  0.5208  0.8141 -0.0895
10644SOL    HW232832   5.618   1.899   2.813 -0.1753 -0.4472 -1.1896
10645SOL     OW32833   1.379   0.847   5.379 -0.0183  0.1840 -0.2348
10645SOL    HW132834   1.284   0.826   5.400 -0.7556  1.4753 -2.0867
10645SOL    HW232835   1.384   0.916   5.308  2.3178  1.6617  1.2099
10646SOL     OW32836   6.552   1.718   6.556 -0.2166  0.2658  0.1997
10646SOL    HW132837   6.594   1.806   6.577  0.9060 -0.3598  0.6848
10646SOL    HW232838   6.564   1.698   6.458  1.3007 -0.2170  0.4533
10647SOL     OW32839   2.915   5.806   1.081  0.0584  0.3721  0.0096
10647SOL    HW132840   2.849   5.731   1.067  1.0040 -0.2415 -1.3020
10647SOL    HW232841   2.872   5.892   1.055 -0.5141  0.0834 -0.0354
10648SOL     OW32842   5.161   6.054   6.711 -0.2384  0.4256  0.1162
10648SOL    HW132843   5.218   6.094   6.639 -2.0154  0.7160 -1.2211
10648SOL    HW232844   5.185   5.958   6.722  0.9787  0.7097  0.1081
10649SOL     OW32845   0.960   4.678   3.616  0.0966  0.1530 -0.8453
10649SOL    HW132846   0.946   4.737   3.695  1.1882 -0.2990 -0.3033
10649SOL    HW232847   1.053   4.643   3.616 -0.8965 -2.7581 -0.3335
10650SOL     OW32848   0.827   0.335   1.204  0.3682  0.1221 -0.3580
10650SOL    HW132849   0.898   0.354   1.136  0.2835 -0.0144 -0.4858
10650SOL    HW232850   0.869   0.315   1.292  0.5512 -1.2687 -0.7365
10651SOL     OW32851   4.145   5.511   6.573  0.6143 -0.4906 -0.2724
10651SOL    HW132852   4.077   5.445   6.603 -0.0356 -0.0916 -0.8277
10651SOL    HW232853   4.154   5.507   6.473  0.5217  0.2961 -0.3214
10652SOL     OW32854   3.426   6.060   0.316 -0.2424  0.8053  0.5604
10652SOL    HW132855   3.519   6.025   0.308  0.2145  2.1585 -0.4606
10652SOL    HW232856   3.367   5.989   0.355  1.1654 -0.1309  1.0824
10653SOL     OW32857   4.654   4.311   4.109  0.5132  0.0637  0.3101
10653SOL    HW132858   4.725   4.270   4.166  0.7515  0.6709  0.4612
10653SOL    HW232859   4.597   4.371   4.166 -0.7394 -1.1588  0.4025
10654SOL     OW32860   2.495   0.873   2.267  0.2606 -0.0131  0.9091
10654SOL    HW132861   2.478   0.875   2.169  1.2884  1.3240  0.7338
10654SOL    HW232862   2.428   0.813   2.311 -2.1780  1.7334 -0.1971
10655SOL     OW32863   4.530   5.232   1.891 -0.3183 -0.4427 -0.2617
10655SOL    HW132864   4.597   5.157   1.882 -0.3803 -0.3407 -1.8468
10655SOL    HW232865   4.569   5.316   1.853 -1.1075 -0.2328 -0.6278
10656SOL     OW32866   0.960   2.481   6.678  0.0887  0.0844  0.1071
10656SOL    HW132867   0.996   2.568   6.712 -1.6973  0.8248  0.2158
10656SOL    HW232868   0.985   2.408   6.742 -0.8052  0.9967  1.5521
10657SOL     OW32869   0.204   5.545   0.371 -0.5252 -0.0047 -0.3548
10657SOL    HW132870   0.115   5.501   0.378  0.0825 -1.4953 -1.4873
10657SOL    HW232871   0.195   5.630   0.319 -1.9741  2.1649  3.0696
10658SOL     OW32872   6.879   2.811   4.021  0.0797  0.0163  0.4936
10658SOL    HW132873   6.957   2.824   3.959 -0.1363  0.1698  0.2519
10658SOL    HW232874   6.901   2.848   4.111  0.4732 -0.3908  0.5698
10659SOL     OW32875   4.962   6.456   6.563  0.5925 -0.6201 -0.5110
10659SOL    HW132876   4.919   6.419   6.645  0.9471 -3.0783 -1.3225
10659SOL    HW232877   4.895   6.509   6.511 -0.1452 -0.5623  0.4774
10660SOL     OW32878   4.390   4.149   6.269 -0.0198 -0.0481  0.0564
10660SOL    HW132879   4.421   4.137   6.175  1.4205  0.7643  0.3951
10660SOL    HW232880   4.427   4.235   6.305 -0.7706 -0.2196  1.2726
10661SOL     OW32881   1.336   6.987   2.255  0.2566 -0.0685 -0.3580
10661SOL    HW132882   1.416   7.040   2.226  0.2466  0.0030 -0.2558
10661SOL    HW232883   1.253   7.033   2.222  0.2853 -0.5344 -1.0992
10662SOL     OW32884   6.841   1.224   1.726 -0.4347 -0.2356  1.0103
10662SOL    HW132885   6.877   1.133   1.744  0.9111 -0.1650 -0.9999
10662SOL    HW232886   6.747   1.216   1.691  0.9445 -1.3462 -3.0577
10663SOL     OW32887   6.325   1.272   2.141 -0.2381  0.0069  0.4543
10663SOL    HW132888   6.370   1.336   2.079  0.5499 -1.3233 -0.3983
10663SOL    HW232889   6.268   1.209   2.089  1.1701 -1.7343  0.9169
10664SOL     OW32890   2.091   4.600   4.788 -0.3187  0.3733  0.2881
10664SOL    HW132891   2.136   4.660   4.722  1.2603 -1.8090 -0.7257
10664SOL    HW232892   2.158   4.572   4.857 -0.3023 -2.1091 -0.6481
10665SOL     OW32893   6.494   1.112   2.300 -0.1787  0.1618  0.1700
10665SOL    HW132894   6.542   1.163   2.371  0.5379 -0.7471  0.3640
10665SOL    HW232895   6.420   1.167   2.263 -0.9886  0.4364  2.0772
10666SOL     OW32896   3.858   3.077   6.667 -0.0047  0.0953 -0.1203
10666SOL    HW132897   3.830   3.143   6.597 -0.3747  0.8021  0.6593
10666SOL    HW232898   3.839   3.116   6.758 -1.4480 -1.5997  0.3616
10667SOL     OW32899   3.312   2.032   6.940  0.4597  0.2347  0.1217
10667SOL    HW132900   3.250   2.105   6.966  0.9115  0.0461  1.8437
10667SOL    HW232901   3.373   2.011   7.017  0.0247 -2.2777 -0.1506
10668SOL     OW32902   1.893   3.270   4.970 -0.0108 -0.3590  0.1677
10668SOL    HW132903   1.988   3.300   4.965  0.4561 -1.8138 -0.4067
10668SOL    HW232904   1.858   3.255   4.877 -0.2705 -1.3281  0.4044
10669SOL     OW32905   0.296   6.786   0.757 -0.2850 -0.4750 -0.0561
10669SOL    HW132906   0.338   6.846   0.825  0.5433  0.7601 -1.5716
10669SOL    HW232907   0.345   6.699   0.754 -0.7196 -0.7944  1.3086
10670SOL     OW32908   4.047   3.207   5.051  0.0076  0.2259  0.0721
10670SOL    HW132909   4.113   3.245   5.116 -0.3173 -0.6119  0.9201
10670SOL    HW232910   3.977   3.156   5.101  0.3150 -1.3054 -0.9863
10671SOL     OW32911   1.902   1.852   3.545 -0.0197 -0.1631  0.1007
10671SOL    HW132912   1.834   1.905   3.495  0.0583  0.5090  0.6897
10671SOL    HW232913   1.918   1.765   3.498 -0.0640  0.3768 -0.9356
10672SOL     OW32914   6.822   2.116   0.037  0.1178 -0.1892 -0.0970
10672SOL    HW132915   6.723   2.125   0.024  0.2431  0.5362 -0.5924
10672SOL    HW232916   6.841   2.036   0.094 -0.5990 -2.1266 -2.4107
10673SOL     OW32917   0.817   1.942   1.209 -0.5216  0.5782  0.0697
10673SOL    HW132918   0.774   1.857   1.178  0.2552  1.0975 -2.6892
10673SOL    HW232919   0.915   1.928   1.219 -0.7094  0.5023  2.2747
10674SOL     OW32920   1.894   2.933   1.458 -0.2562 -0.3430 -0.2773
10674SOL    HW132921   1.837   2.853   1.478  2.0445 -2.3128 -1.0072
10674SOL    HW232922   1.914   2.982   1.542 -0.5585 -1.4091  0.4388
10675SOL     OW32923   0.204   1.180   0.259  0.1088 -0.5059  0.3388
10675SOL    HW132924   0.109   1.207   0.246 -0.0705 -2.0813 -2.4731
10675SOL    HW232925   0.208   1.088   0.297  0.5183 -0.2621  0.8903
10676SOL     OW32926   6.398   5.524   6.433  0.4463 -0.1753 -0.9845
10676SOL    HW132927   6.446   5.580   6.501  1.4610 -0.3381 -1.5536
10676SOL    HW232928   6.464   5.483   6.370 -0.0964 -3.1440  0.2122
10677SOL     OW32929   6.595   1.362   1.648 -0.0555  0.3486  0.5992
10677SOL    HW132930   6.503   1.369   1.611 -0.6024 -0.5936  1.7211
10677SOL    HW232931   6.662   1.382   1.576 -1.0545 -1.5971 -0.9560
10678SOL     OW32932   4.651   6.570   2.011 -0.3971 -0.0257 -0.4010
10678SOL    HW132933   4.698   6.612   2.089 -0.6889  1.8055 -1.1617
10678SOL    HW232934   4.676   6.619   1.927 -1.4023 -0.8801 -1.2239
10679SOL     OW32935   4.528   5.018   5.669 -0.8036 -0.4805 -0.7889
10679SOL    HW132936   4.457   5.087   5.655  0.1707  0.3963 -1.5875
10679SOL    HW232937   4.530   4.955   5.591 -0.3914 -0.2018 -1.0097
10680SOL     OW32938   3.486   1.083   3.176  0.0539 -0.1550 -0.0351
10680SOL    HW132939   3.418   1.014   3.150 -0.8362  0.9127 -0.6081
10680SOL    HW232940   3.550   1.098   3.101 -0.0654  0.0204 -0.1010
10681SOL     OW32941   0.608   5.533   6.433  0.3477 -0.2426 -0.5632
10681SOL    HW132942   0.656   5.446   6.423  1.4442  0.1555  0.8109
10681SOL    HW232943   0.675   5.608   6.434 -0.5169  0.5596 -1.0475
10682SOL     OW32944   1.499   3.069   2.282  0.3209  0.6396 -0.0336
10682SOL    HW132945   1.483   3.163   2.312 -0.6099  0.4600  0.0578
10682SOL    HW232946   1.429   3.009   2.321  0.4720  0.0256 -0.6904
10683SOL     OW32947   4.115   0.767   5.711  0.1536 -0.3573 -0.2804
10683SOL    HW132948   4.182   0.829   5.752 -0.6706  0.9161 -0.7769
10683SOL    HW232949   4.148   0.736   5.622  1.4394 -2.2272  0.7884
10684SOL     OW32950   3.760   4.065   1.266 -0.5573 -0.7869  0.5929
10684SOL    HW132951   3.804   3.978   1.248 -1.4151 -0.7946 -1.8878
10684SOL    HW232952   3.668   4.049   1.303 -0.1939 -0.8726  1.4833
10685SOL     OW32953   6.250   3.877   2.059 -0.3343 -0.8152  0.5095
10685SOL    HW132954   6.268   3.862   2.156 -1.3418 -0.1168  0.8223
10685SOL    HW232955   6.324   3.932   2.019 -0.0357 -0.9098  0.9315
10686SOL     OW32956   3.392   5.506   6.301 -0.6075 -0.6260  0.6813
10686SOL    HW132957   3.369   5.410   6.287  1.1544 -1.2828  1.8607
10686SOL    HW232958   3.317   5.564   6.269 -1.4604 -2.3559 -0.5896
10687SOL     OW32959   0.056   4.096   1.920  0.3698 -0.3727  0.4294
10687SOL    HW132960  -0.001   4.098   2.002 -0.4056 -0.0820 -0.0991
10687SOL    HW232961   0.151   4.079   1.945  0.3738  1.0501  1.4999
10688SOL     OW32962   6.304   3.510   2.660  0.2862 -0.3154  0.1123
10688SOL    HW132963   6.293   3.548   2.568  0.6474  0.3087  0.3230
10688SOL    HW232964   6.402   3.507   2.683  0.1412  0.4514  0.8531
10689SOL     OW32965   2.403   5.654   4.388 -0.0918  0.0568 -0.2377
10689SOL    HW132966   2.397   5.720   4.463 -1.3978 -0.8991  0.5411
10689SOL    HW232967   2.336   5.581   4.402  1.3276 -1.4813 -1.0311
10690SOL     OW32968   6.452   6.894   3.957  0.1731 -0.2445  0.3527
10690SOL    HW132969   6.428   6.982   3.916 -1.2297 -1.2542 -1.1229
10690SOL    HW232970   6.543   6.899   3.998 -0.2478  2.1426  1.1278
10691SOL     OW32971   5.559   3.445   3.046  0.5371 -0.4854  0.5495
10691SOL    HW132972   5.510   3.401   3.121  1.2241  0.4223  1.5702
10691SOL    HW232973   5.603   3.375   2.989 -0.4424 -1.2086  0.6660
10692SOL     OW32974   2.815   5.791   2.507 -0.3720  0.0054  0.1555
10692SOL    HW132975   2.912   5.773   2.525 -0.8094 -1.1016  1.6162
10692SOL    HW232976   2.806   5.871   2.447  1.4195  0.2663  0.1833
10693SOL     OW32977   0.792   1.703   3.100  0.1075  0.0705 -0.2567
10693SOL    HW132978   0.709   1.676   3.052  0.6937 -0.5219 -0.9830
10693SOL    HW232979   0.833   1.783   3.054  1.0736 -0.9568 -1.2561
10694SOL     OW32980   3.886   0.274   1.411 -0.2110  0.4996 -0.0681
10694SOL    HW132981   3.905   0.220   1.329 -2.5739  0.6949 -0.8156
10694SOL    HW232982   3.951   0.249   1.483  1.4627 -0.1985 -1.7347
10695SOL     OW32983   0.742   1.502   2.502  0.5125 -0.5094 -0.7264
10695SOL    HW132984   0.782   1.411   2.513  3.0115  0.5480 -0.4044
10695SOL    HW232985   0.804   1.560   2.448 -0.3888  1.3666  0.1565
10696SOL     OW32986   5.634   4.737   0.856  0.0509  0.5351  0.1765
10696SOL    HW132987   5.595   4.693   0.775  1.8096 -0.4139 -0.2144
10696SOL    HW232988   5.587   4.704   0.938  0.4132 -1.0438 -0.2203
10697SOL     OW32989   1.874   5.390   3.082  0.3657 -0.3806 -0.1291
10697SOL    HW132990   1.812   5.319   3.116  0.7355 -1.4426 -1.5495
10697SOL    HW232991   1.895   5.454   3.156  0.2257 -1.8921  1.2836
10698SOL     OW32992   3.494   0.966   4.068  0.0227  0.8196 -0.9580
10698SOL    HW132993   3.430   0.920   4.008 -0.2689 -0.6938  0.4493
10698SOL    HW232994   3.445   1.030   4.127 -0.6116 -1.6264  1.3745
10699SOL     OW32995   4.879   2.110   1.685 -0.0794  0.1261 -0.3299
10699SOL    HW132996   4.799   2.057   1.658  0.2279 -0.4609 -0.1139
10699SOL    HW232997   4.850   2.188   1.741 -0.4390 -0.6632  0.6313
10700SOL     OW32998   4.868   2.128   1.184 -0.2886 -0.2043 -0.1481
10700SOL    HW132999   4.916   2.106   1.269 -0.3338 -0.0703 -0.0867
10700SOL    HW233000   4.849   2.044   1.134 -0.6116 -0.3234  0.1662
10701SOL     OW33001   2.989   5.253   0.113  0.0128 -0.2152 -0.3011
10701SOL    HW133002   3.073   5.257   0.166 -0.2602  0.2064  0.1054
10701SOL    HW233003   2.997   5.181   0.043  0.9769  0.3238 -0.7561
10702SOL     OW33004   6.122   3.104   1.346 -0.6425 -0.5939 -0.6738
10702SOL    HW133005   6.214   3.130   1.318 -0.6618 -1.5292 -1.6666
10702SOL    HW233006   6.125   3.015   1.393 -0.9597 -0.3288 -0.1440
10703SOL     OW33007   2.925   3.593   3.225  0.4399 -0.3580  0.5451
10703SOL    HW133008   2.990   3.567   3.153  0.6854 -1.1330  1.0330
10703SOL    HW233009   2.861   3.660   3.189  0.8486 -0.3879 -0.2624
10704SOL     OW33010   5.855   6.007   2.479 -0.2301  0.0471 -0.2487
10704SOL    HW133011   5.951   6.010   2.505 -0.5808  3.7578  1.1500
10704SOL    HW233012   5.847   5.970   2.386  2.4015 -1.1013 -0.0985
10705SOL     OW33013   4.630   4.587   0.755 -0.2269 -0.3209 -0.2462
10705SOL    HW133014   4.584   4.590   0.844  1.4664  0.2158  0.6482
10705SOL    HW233015   4.671   4.496   0.741 -0.4572 -0.3923 -0.4739
10706SOL     OW33016   5.119   0.275   3.043  0.2449  0.2322  0.4450
10706SOL    HW133017   5.082   0.183   3.053  0.5203  0.3656  3.7179
10706SOL    HW233018   5.046   0.337   3.015 -0.9928 -0.2739  2.4077
10707SOL     OW33019   0.839   6.917   4.161 -0.1816 -0.1852  0.3683
10707SOL    HW133020   0.878   6.966   4.083  2.0353  2.2958  2.8131
10707SOL    HW233021   0.741   6.934   4.165 -0.0486  1.1132 -0.8758
10708SOL     OW33022   6.473   0.332   2.812  0.0882 -0.4527 -0.0585
10708SOL    HW133023   6.528   0.267   2.864  0.4739 -0.3226 -0.2976
10708SOL    HW233024   6.377   0.303   2.812  0.3086 -1.2079 -0.4465
10709SOL     OW33025   0.918   0.844   6.216  0.2518  0.2376  0.3208
10709SOL    HW133026   0.923   0.923   6.156 -1.0027 -0.6150 -0.9852
10709SOL    HW233027   0.822   0.828   6.241  0.7777  0.9586  3.1490
10710SOL     OW33028   0.745   6.956   5.654  0.1957  0.3168 -0.2084
10710SOL    HW133029   0.658   6.926   5.615 -0.9006 -0.2098  2.3730
10710SOL    HW233030   0.775   7.040   5.609 -1.3393  0.2043 -1.5430
10711SOL     OW33031   2.150   1.927   3.571 -0.2890  0.4746 -0.5391
10711SOL    HW133032   2.174   1.874   3.652  0.6116 -1.7522 -2.1370
10711SOL    HW233033   2.056   1.906   3.543 -0.6712  1.3999  0.0267
10712SOL     OW33034   4.091   0.655   3.003 -0.1704 -0.3014  0.1862
10712SOL    HW133035   4.118   0.598   2.926  4.1973  0.9348  0.5448
10712SOL    HW233036   4.036   0.732   2.969  1.3203  0.0131 -1.7000
10713SOL     OW33037   1.562   5.505   1.303 -0.5939  0.0635  0.9631
10713SOL    HW133038   1.583   5.471   1.396 -1.6875 -1.0647  0.8169
10713SOL    HW233039   1.567   5.605   1.303 -1.6866  0.1604  2.5305
10714SOL     OW33040   4.800   5.743   3.542  0.4700 -0.8345 -0.0423
10714SOL    HW133041   4.796   5.790   3.629 -0.5764 -1.5569  0.3282
10714SOL    HW233042   4.787   5.809   3.467 -2.0344 -0.5989  0.4986
10715SOL     OW33043   3.732   1.079   3.594  0.2594  0.0994  0.5964
10715SOL    HW133044   3.716   1.089   3.692  2.0760 -1.4940  1.1192
10715SOL    HW233045   3.830   1.075   3.577  0.0170  1.8255 -1.4930
10716SOL     OW33046   1.948   2.036   3.924 -0.6407  0.7436 -0.0275
10716SOL    HW133047   1.882   1.996   3.861  0.0489 -1.0607  0.3352
10716SOL    HW233048   1.928   2.006   4.018 -0.5271  1.8597  0.3759
10717SOL     OW33049   6.829   2.634   2.200 -0.0075 -0.1734  0.1586
10717SOL    HW133050   6.895   2.571   2.158 -0.3068 -0.1287 -0.3906
10717SOL    HW233051   6.866   2.669   2.286  0.6566 -0.2012 -0.1131
10718SOL     OW33052   5.816   4.869   0.236 -0.1482  0.0424 -0.5757
10718SOL    HW133053   5.890   4.936   0.241 -1.5847  1.6858 -0.8573
10718SOL    HW233054   5.841   4.790   0.293  0.5270  1.8512  1.8396
10719SOL     OW33055   3.004   5.326   1.271  0.0189  0.4707 -0.0235
10719SOL    HW133056   2.907   5.352   1.279  0.1365  0.9792 -0.1617
10719SOL    HW233057   3.013   5.252   1.205 -0.3107  0.2053  0.2248
10720SOL     OW33058   5.594   4.248   5.119 -0.5058 -0.1382 -0.2635
10720SOL    HW133059   5.548   4.204   5.196 -0.3004 -0.1509 -0.1474
10720SOL    HW233060   5.623   4.340   5.145 -0.7024 -0.0308 -0.4217
10721SOL     OW33061   1.049   2.329   4.269  0.1928 -0.3093  0.0164
10721SOL    HW133062   1.014   2.337   4.176 -0.3854 -1.1600  0.1474
10721SOL    HW233063   1.120   2.398   4.284 -1.0819  1.1574 -0.4022
10722SOL     OW33064   5.023   4.302   0.263  0.6979 -0.2499  0.3224
10722SOL    HW133065   4.990   4.384   0.309 -0.2662 -0.7950  0.6423
10722SOL    HW233066   4.987   4.221   0.310  0.4516 -0.8358 -0.8448
10723SOL     OW33067   5.076   4.637   6.620 -0.0586 -0.7100  0.4580
10723SOL    HW133068   5.050   4.606   6.712 -2.6396  0.3868  0.1860
10723SOL    HW233069   5.002   4.616   6.556  1.2569 -0.5177 -1.1857
10724SOL     OW33070   3.318   5.573   0.496  0.0616  0.4353 -0.1669
10724SOL    HW133071   3.391   5.506   0.482  0.3040  1.1901 -2.9805
10724SOL    HW233072   3.348   5.640   0.564  0.8741 -0.7438  0.6954
10725SOL     OW33073   1.871   5.563   5.921  0.0346 -0.1611  0.1822
10725SOL    HW133074   1.845   5.495   5.853 -1.2527 -0.5344  1.0232
10725SOL    HW233075   1.789   5.601   5.964  0.8034 -0.0276  1.6035
10726SOL     OW33076   4.854   6.579   5.143  0.3662 -0.1303  0.3901
10726SOL    HW133077   4.804   6.565   5.229  0.1334  0.1281  0.2968
10726SOL    HW233078   4.895   6.670   5.142 -0.7719  0.3956 -0.3426
10727SOL     OW33079   2.937   6.100   5.395 -0.3211  0.3056  0.0683
10727SOL    HW133080   2.886   6.016   5.415  1.5017 -0.9796 -0.4068
10727SOL    HW233081   2.923   6.166   5.468  0.2246 -1.4066  1.7870
10728SOL     OW33082   4.805   1.185   2.733 -0.1503 -0.0637 -0.0628
10728SOL    HW133083   4.793   1.264   2.793  0.2742  0.8972 -1.1864
10728SOL    HW233084   4.733   1.186   2.663  0.1960 -0.3349 -0.4270
10729SOL     OW33085   6.854   2.265   3.865 -0.4776 -0.4448  0.4831
10729SOL    HW133086   6.915   2.193   3.833 -1.0530 -0.5539 -0.3986
10729SOL    HW233087   6.853   2.266   3.965 -1.2724 -2.3802  0.5302
10730SOL     OW33088   1.353   6.097   2.235 -0.6144  0.2663  0.7138
10730SOL    HW133089   1.419   6.022   2.229  0.3211  1.1565 -0.8840
10730SOL    HW233090   1.266   6.068   2.197 -0.2328 -0.0033  0.0258
10731SOL     OW33091   2.318   4.203   1.142  0.5003 -0.0596  0.0313
10731SOL    HW133092   2.399   4.145   1.136 -0.3450 -1.3917  0.9110
10731SOL    HW233093   2.311   4.240   1.235 -0.4450 -0.8055  0.2686
10732SOL     OW33094   0.261   6.103   2.748 -0.2297  0.4085  0.3681
10732SOL    HW133095   0.228   6.108   2.842 -0.3862  1.7478  0.2591
10732SOL    HW233096   0.235   6.185   2.699  0.9494  0.2986 -0.4992
10733SOL     OW33097   6.252   3.681   5.312 -0.0078  0.1457 -0.0839
10733SOL    HW133098   6.203   3.666   5.398 -0.0593  0.2305 -0.0981
10733SOL    HW233099   6.233   3.605   5.250 -0.8240  0.5964 -0.4076
10734SOL     OW33100   1.089   7.005   5.875  0.0987  0.1544 -0.4354
10734SOL    HW133101   1.121   6.989   5.968 -1.3581 -1.6769 -0.1790
10734SOL    HW233102   1.144   6.952   5.811 -0.7108 -0.8885 -0.2830
10735SOL     OW33103   1.319   6.626   2.615  0.2862 -0.1361  0.1887
10735SOL    HW133104   1.225   6.655   2.601  0.7163  2.0636  1.3913
10735SOL    HW233105   1.321   6.537   2.661 -1.2076  0.0287  0.6036
10736SOL     OW33106   0.953   0.879   5.065 -0.2308  0.4770  0.7439
10736SOL    HW133107   0.895   0.960   5.073  0.9968  1.3834  0.8724
10736SOL    HW233108   0.897   0.796   5.071 -1.7539  1.2997 -1.0231
10737SOL     OW33109   0.002   2.935   1.356 -0.4281 -0.4307  0.0809
10737SOL    HW133110  -0.091   2.916   1.323 -1.3890  2.1969  0.9799
10737SOL    HW233111  -0.003   2.975   1.447  1.4764  0.9451 -0.3467
10738SOL     OW33112   2.558   0.161   0.370 -0.3621  0.5212  0.0425
10738SOL    HW133113   2.549   0.234   0.437  3.0826  1.1702 -0.0339
10738SOL    HW233114   2.615   0.088   0.408  0.8425  0.4487 -1.7784
10739SOL     OW33115   0.783   1.737   2.098  0.3670  0.1398 -0.0479
10739SOL    HW133116   0.840   1.784   2.031  0.8830 -0.5790 -0.1221
10739SOL    HW233117   0.734   1.662   2.053  0.0025  0.2330  0.1902
10740SOL     OW33118   5.981   4.919   6.179 -0.2037  0.1360  0.1538
10740SOL    HW133119   5.909   4.902   6.112 -0.5578 -0.9100  0.7685
10740SOL    HW233120   6.050   4.980   6.140  0.1394 -1.2464 -1.5267
10741SOL     OW33121   4.341   2.006   3.498 -0.2383 -0.2053  0.0546
10741SOL    HW133122   4.321   2.103   3.485  0.5827 -0.2711 -2.3229
10741SOL    HW233123   4.431   1.986   3.460  0.4042 -1.6032  2.1504
10742SOL     OW33124   5.758   2.505   0.833  0.4736  0.5996 -0.0441
10742SOL    HW133125   5.709   2.580   0.877 -0.2488  0.3034 -0.3254
10742SOL    HW233126   5.800   2.447   0.903 -2.0989 -0.8556  0.4120
10743SOL     OW33127   3.978   1.251   3.575  0.0590  0.6201 -0.3521
10743SOL    HW133128   4.041   1.261   3.498  1.8497  0.9655  1.0797
10743SOL    HW233129   4.018   1.190   3.643 -1.2549  0.7044  0.5264
10744SOL     OW33130   5.061   1.887   2.591 -0.0284 -0.4644  0.4044
10744SOL    HW133131   5.082   1.790   2.601 -0.1906 -0.5826 -0.4013
10744SOL    HW233132   4.997   1.901   2.516  1.2111  0.4139 -0.5450
10745SOL     OW33133   2.206   3.837   1.263 -0.2857  0.0359  0.0642
10745SOL    HW133134   2.187   3.739   1.264  0.2129 -0.0623 -0.1013
10745SOL    HW233135   2.135   3.885   1.316  0.0988 -0.5270  1.1023
10746SOL     OW33136   0.603   4.860   1.368 -0.1106 -0.0387 -0.2894
10746SOL    HW133137   0.507   4.846   1.342  0.1639  0.2484 -1.5194
10746SOL    HW233138   0.623   4.805   1.449 -1.3008 -0.1397 -0.0401
10747SOL     OW33139   5.259   1.953   4.302  0.4408  0.1031  0.0651
10747SOL    HW133140   5.164   1.929   4.322 -0.0162  1.1705 -0.7337
10747SOL    HW233141   5.266   2.052   4.286  1.5324 -0.0837 -0.7175
10748SOL     OW33142   5.219   5.523   0.162  0.3471  0.2225 -0.3019
10748SOL    HW133143   5.271   5.443   0.132  0.2967 -0.0970  0.4566
10748SOL    HW233144   5.276   5.605   0.151  0.6092  0.0123 -0.5345
10749SOL     OW33145   1.907   4.765   2.857 -0.0171 -0.3954 -0.3667
10749SOL    HW133146   1.947   4.754   2.766  0.5834  0.3355 -0.2009
10749SOL    HW233147   1.868   4.857   2.865 -1.1029 -0.8445 -0.2752
10750SOL     OW33148   5.250   4.038   3.256  0.1986 -0.0158  0.3071
10750SOL    HW133149   5.283   3.950   3.289  0.2208  0.1686  0.7920
10750SOL    HW233150   5.155   4.051   3.284  0.6751  0.7978  1.6618
10751SOL     OW33151   0.818   3.065   4.457 -0.0094 -0.2100  0.5669
10751SOL    HW133152   0.719   3.057   4.457 -0.1557  0.9911 -0.7671
10751SOL    HW233153   0.855   3.016   4.378  0.3998 -0.2122  0.7600
10752SOL     OW33154   3.426   4.356   6.917  0.2858 -0.3582  0.4402
10752SOL    HW133155   3.507   4.296   6.914 -0.0333 -0.7706 -1.1441
10752SOL    HW233156   3.347   4.306   6.882 -0.3111  0.5365  0.4911
10753SOL     OW33157   5.658   1.762   4.530  0.4796 -0.2381 -0.1778
10753SOL    HW133158   5.673   1.664   4.549  0.2443 -0.4198 -0.9221
10753SOL    HW233159   5.561   1.782   4.538  0.5936  0.0704  0.5529
10754SOL     OW33160   6.366   2.422   3.424 -0.2239 -0.4617  0.2632
10754SOL    HW133161   6.441   2.356   3.416 -1.3005 -1.5975 -0.9260
10754SOL    HW233162   6.311   2.400   3.504 -1.0387 -1.5576 -0.5587
10755SOL     OW33163   6.603   3.834   6.904 -0.0529  1.2316 -0.0025
10755SOL    HW133164   6.668   3.762   6.882  0.6786  1.3464  1.6160
10755SOL    HW233165   6.639   3.922   6.877  0.2625  1.2447  0.4486
10756SOL     OW33166   5.212   2.364   0.349 -0.3954  0.0187  0.5042
10756SOL    HW133167   5.241   2.278   0.389  0.7919  0.4225  0.5533
10756SOL    HW233168   5.180   2.349   0.255  0.8847 -0.3143  0.1124
10757SOL     OW33169   0.118   3.803   6.905  0.2645 -0.1935  0.1460
10757SOL    HW133170   0.198   3.805   6.965  0.6072 -0.0131 -0.3038
10757SOL    HW233171   0.035   3.798   6.959  0.6172 -1.5097  0.6142
10758SOL     OW33172   6.351   5.620   6.107  0.4523  0.4618 -0.1898
10758SOL    HW133173   6.274   5.645   6.166 -0.8243 -2.8805 -0.2097
10758SOL    HW233174   6.324   5.628   6.011  1.1894  2.0770 -0.2956
10759SOL     OW33175   0.107   3.102   6.224 -0.3166  0.5409  0.2473
10759SOL    HW133176   0.183   3.090   6.160 -0.7500  0.3444 -0.2397
10759SOL    HW233177   0.051   3.180   6.196 -1.6888 -0.7659 -0.8370
10760SOL     OW33178   0.340   6.220   1.190  0.2866  0.1690 -0.0131
10760SOL    HW133179   0.351   6.236   1.092  4.1044 -1.1572  0.0336
10760SOL    HW233180   0.391   6.289   1.241 -0.4590 -0.0059  0.9915
10761SOL     OW33181   1.145   3.495   5.997  0.1939 -0.0524  0.2793
10761SOL    HW133182   1.125   3.443   6.080 -1.5090  1.9401  1.2112
10761SOL    HW233183   1.229   3.547   6.010  0.6323 -0.7432  0.2431
10762SOL     OW33184   4.429   0.240   5.506  0.3914  0.0742 -0.2669
10762SOL    HW133185   4.483   0.228   5.590  0.0006  0.5198  0.0567
10762SOL    HW233186   4.480   0.297   5.442  0.8462 -0.5619 -0.4846
10763SOL     OW33187   4.404   5.823   2.340  0.2014 -0.2717 -0.1251
10763SOL    HW133188   4.402   5.734   2.294  0.2378  0.0507 -0.7661
10763SOL    HW233189   4.370   5.813   2.433  0.1059 -0.9387 -0.2250
10764SOL     OW33190   5.379   2.232   4.677 -0.4397 -0.1193 -0.6068
10764SOL    HW133191   5.289   2.268   4.702 -0.5695 -1.9869  2.0200
10764SOL    HW233192   5.390   2.140   4.715  1.8787 -0.7186 -2.4987
10765SOL     OW33193   6.878   4.047   2.993  0.0401 -0.5563  0.4292
10765SOL    HW133194   6.809   4.020   2.925 -0.2547  0.3110  0.3771
10765SOL    HW233195   6.853   4.009   3.082 -1.3041  0.9286  0.7245
10766SOL     OW33196   2.911   2.643   6.803 -0.0114  0.4865  0.1171
10766SOL    HW133197   2.885   2.593   6.886  0.8976 -0.1245  0.0563
10766SOL    HW233198   2.963   2.582   6.743  2.7449  1.9185  0.8429
10767SOL     OW33199   0.084   6.152   5.560 -0.3143  0.3256  0.9324
10767SOL    HW133200   0.105   6.100   5.477 -0.4498  0.0062  1.0977
10767SOL    HW233201   0.045   6.241   5.534  1.5229  1.0861  0.6067
10768SOL     OW33202   5.510   5.553   5.476 -0.0491  0.4816  0.1386
10768SOL    HW133203   5.535   5.593   5.388  1.1609  1.1652  0.7761
10768SOL    HW233204   5.568   5.474   5.495 -1.9622 -1.2542 -0.7878
10769SOL     OW33205   3.003   5.730   4.241 -0.0630  0.2900  0.4136
10769SOL    HW133206   2.932   5.752   4.309  0.6161  2.0132  0.6222
10769SOL    HW233207   2.996   5.795   4.165  0.3395 -0.4969 -0.3083
10770SOL     OW33208   5.243   0.041   3.939  0.1800  0.0033 -0.3424
10770SOL    HW133209   5.241  -0.059   3.938 -0.5914  0.0015  0.1078
10770SOL    HW233210   5.170   0.074   3.999  1.8025  0.8074  1.2641
10771SOL     OW33211   5.494   6.316   2.847 -0.0189  0.2869 -0.1870
10771SOL    HW133212   5.416   6.355   2.797  0.0188  0.9701  0.2650
10771SOL    HW233213   5.460   6.258   2.921 -0.1975  2.2668  1.3775
10772SOL     OW33214   0.699   5.742   2.864  0.4481 -0.3108 -0.4124
10772SOL    HW133215   0.607   5.760   2.827 -0.2577 -2.3298  0.2670
10772SOL    HW233216   0.753   5.826   2.858 -1.9664  1.4727  0.7569
10773SOL     OW33217   6.661   0.063   0.660  0.1348  0.2165 -0.5843
10773SOL    HW133218   6.677  -0.031   0.687  0.6797 -0.6598 -3.5383
10773SOL    HW233219   6.748   0.108   0.641 -0.1876  0.7936 -0.7328
10774SOL     OW33220   6.501   1.797   0.680 -0.0812  0.3714  0.1944
10774SOL    HW133221   6.413   1.806   0.726 -0.9133 -0.4302 -1.1712
10774SOL    HW233222   6.560   1.875   0.704 -1.8336  1.9120 -0.3084
10775SOL     OW33223   1.357   3.321   1.474 -0.0733  0.1629 -0.2169
10775SOL    HW133224   1.307   3.382   1.412 -0.9309 -0.6809 -0.3800
10775SOL    HW233225   1.378   3.369   1.559 -0.1987  0.8690 -0.5764
10776SOL     OW33226   1.081   0.437   3.123  0.0918 -0.2530  0.0945
10776SOL    HW133227   1.030   0.386   3.054 -0.7874 -0.3197  0.7738
10776SOL    HW233228   1.106   0.526   3.086  0.2669 -0.5688 -0.5585
10777SOL     OW33229   4.347   1.114   3.275  0.5196  0.3386  0.5663
10777SOL    HW133230   4.302   1.164   3.348  0.3218  0.9394  0.0418
10777SOL    HW233231   4.293   1.121   3.191 -1.2502 -3.4074  1.1718
10778SOL     OW33232   0.982   0.228   5.766 -0.0445  0.3987  0.5952
10778SOL    HW133233   1.018   0.137   5.789 -1.7668 -0.2013  1.0746
10778SOL    HW233234   0.931   0.223   5.680  0.0950  0.9895  0.4712
10779SOL     OW33235   1.177   5.137   4.020  0.0061 -0.3471 -0.0369
10779SOL    HW133236   1.171   5.038   4.006  2.5398 -0.8008  1.3047
10779SOL    HW233237   1.249   5.156   4.087 -1.0979  2.3796  0.5114
10780SOL     OW33238   0.761   6.134   4.267 -0.3600  0.2082  0.3344
10780SOL    HW133239   0.845   6.083   4.288 -0.3040  0.4093  0.6177
10780SOL    HW233240   0.738   6.192   4.346 -2.8054 -2.5596  1.8424
10781SOL     OW33241   3.762   6.677   4.325 -0.2495  0.1555  0.0589
10781SOL    HW133242   3.833   6.666   4.255  0.7448 -0.8136  1.1600
10781SOL    HW233243   3.674   6.647   4.289  0.2090 -0.1660 -0.8254
10782SOL     OW33244   5.360   3.778   2.549 -0.2860 -0.1195 -0.2116
10782SOL    HW133245   5.366   3.765   2.648  0.1934  0.9519 -0.0869
10782SOL    HW233246   5.287   3.843   2.528  0.6259  0.8368 -0.4484
10783SOL     OW33247   1.658   2.686   3.738  0.1049 -0.2838 -0.4070
10783SOL    HW133248   1.726   2.674   3.665  0.8744  0.7356  0.1030
10783SOL    HW233249   1.671   2.615   3.806  0.7992 -0.0023 -0.2291
10784SOL     OW33250   2.075   0.320   0.594 -0.2426  0.2348 -0.1419
10784SOL    HW133251   2.114   0.295   0.506 -1.7381  2.2843 -1.4779
10784SOL    HW233252   1.975   0.324   0.587 -0.3118  2.4608  0.9887
10785SOL     OW33253   1.267   3.429   0.878 -0.3804 -0.0051 -0.8375
10785SOL    HW133254   1.259   3.528   0.892  0.6018  0.1769 -1.5334
10785SOL    HW233255   1.175   3.389   0.874 -0.8126  0.5389  1.6510
10786SOL     OW33256   4.785   1.447   3.930 -0.6869 -0.1897  0.9562
10786SOL    HW133257   4.732   1.423   3.849  0.6983  1.1158 -0.4262
10786SOL    HW233258   4.760   1.540   3.960  0.9589  0.5781  0.0850
10787SOL     OW33259   4.216   0.304   4.466 -0.4284  0.4069 -0.2143
10787SOL    HW133260   4.188   0.400   4.468  1.9904  1.3292 -2.9153
10787SOL    HW233261   4.308   0.296   4.504 -1.4382 -1.3258  2.0858
10788SOL     OW33262   1.506   2.640   2.138 -0.5373  1.0163 -0.0628
10788SOL    HW133263   1.438   2.642   2.212  0.7048 -3.5835  1.5491
10788SOL    HW233264   1.523   2.546   2.111  3.0004  2.1608 -2.5958
10789SOL     OW33265   0.023   0.339   1.900 -0.2406 -0.6052 -0.6563
10789SOL    HW133266  -0.019   0.320   1.988  1.7839 -4.0909 -0.2431
10789SOL    HW233267  -0.021   0.283   1.829  0.2226 -0.2353 -1.2515
10790SOL     OW33268   0.916   0.158   5.522  0.4014  0.1478 -0.1657
10790SOL    HW133269   0.857   0.198   5.453  1.3143 -0.0358 -1.0851
10790SOL    HW233270   1.006   0.139   5.482  0.5556 -1.1430  0.7217
10791SOL     OW33271   1.059   2.237   1.920 -0.3320 -0.1464 -0.4011
10791SOL    HW133272   1.034   2.165   1.856 -1.6305 -1.8714  1.9203
10791SOL    HW233273   1.108   2.198   1.998  1.8303  1.9808 -0.5750
10792SOL     OW33274   5.939   0.774   2.963 -0.1162 -0.4960  0.3931
10792SOL    HW133275   6.033   0.743   2.949 -0.0770  0.9654 -4.0619
10792SOL    HW233276   5.877   0.715   2.910 -1.2110  0.9062  0.0662
10793SOL     OW33277   3.520   6.680   3.608  0.1328 -0.8883 -0.4103
10793SOL    HW133278   3.488   6.774   3.598 -0.0644 -0.7934  0.9158
10793SOL    HW233279   3.580   6.673   3.687  0.5537 -1.7891 -0.7893
10794SOL     OW33280   2.751   3.606   1.855  0.0882  0.3028  0.0025
10794SOL    HW133281   2.786   3.524   1.901  1.6576  1.0066  0.1330
10794SOL    HW233282   2.700   3.580   1.774  2.5077 -0.7882 -1.2679
10795SOL     OW33283   4.766   4.855   3.242 -0.4093 -0.4644  0.2420
10795SOL    HW133284   4.678   4.836   3.197 -0.3069 -0.8556  0.2019
10795SOL    HW233285   4.799   4.771   3.286 -0.8218  0.0699  1.6155
10796SOL     OW33286   2.321   6.815   0.172  0.2592 -0.1111  0.4271
10796SOL    HW133287   2.298   6.913   0.172 -1.9055 -0.5690 -0.8534
10796SOL    HW233288   2.246   6.763   0.132  1.7924 -2.2252  0.1493
10797SOL     OW33289   4.431   0.758   6.279  0.0991 -0.2510 -0.1930
10797SOL    HW133290   4.362   0.778   6.209  1.6193 -0.2345 -1.7750
10797SOL    HW233291   4.518   0.798   6.252  0.7811 -0.3861  1.6783
10798SOL     OW33292   1.946   0.947   0.811 -0.5466 -0.5080 -0.1195
10798SOL    HW133293   2.022   0.886   0.789 -0.7375 -0.8822  0.2581
10798SOL    HW233294   1.975   1.042   0.797 -0.1572 -0.6694 -0.4237
10799SOL     OW33295   4.204   2.258   2.773 -0.3683  0.3311  0.3886
10799SOL    HW133296   4.275   2.267   2.703 -0.0125  0.2287  0.7339
10799SOL    HW233297   4.115   2.247   2.728  0.0722 -1.7688 -0.1135
10800SOL     OW33298   2.121   5.368   0.638  0.0958 -0.5338  0.0522
10800SOL    HW133299   2.128   5.309   0.559  1.2797  0.1401 -0.3770
10800SOL    HW233300   2.094   5.460   0.609  1.3511 -0.0647  0.2917
10801SOL     OW33301   2.611   0.799   2.849 -0.1066  0.2716 -0.7220
10801SOL    HW133302   2.587   0.807   2.946  2.0565 -1.5276  0.0420
10801SOL    HW233303   2.537   0.838   2.794  0.2071  5.0730  1.6814
10802SOL     OW33304   1.764   4.114   3.848 -0.0655 -0.1964 -0.6766
10802SOL    HW133305   1.806   4.032   3.810 -0.2161 -0.1122 -1.0296
10802SOL    HW233306   1.700   4.088   3.921  2.0604 -0.2018  1.2789
10803SOL     OW33307   4.321   4.942   4.805 -0.2316 -0.3261 -0.3771
10803SOL    HW133308   4.393   4.984   4.750  0.9437 -2.1541 -0.3198
10803SOL    HW233309   4.361   4.874   4.866 -1.9536 -0.9528  0.1124
10804SOL     OW33310   0.839   6.325   0.324  0.4528  0.0473 -0.2450
10804SOL    HW133311   0.827   6.420   0.297 -1.4174 -0.0359  0.1995
10804SOL    HW233312   0.934   6.298   0.309  1.6176  2.6353  1.7378
10805SOL     OW33313   1.371   6.442   0.915 -0.2969  0.4903  0.3394
10805SOL    HW133314   1.342   6.402   0.829  1.0725 -0.2351  0.1910
10805SOL    HW233315   1.375   6.541   0.906  1.3192  0.3525 -0.9434
10806SOL     OW33316   6.338   4.439   0.002  0.2825 -0.0138  0.1247
10806SOL    HW133317   6.397   4.504  -0.046  0.6268  0.8677  1.6727
10806SOL    HW233318   6.264   4.410  -0.058  1.1978  0.3463 -1.2168
10807SOL     OW33319   3.482   6.974   3.647  0.3083  0.1271  0.4175
10807SOL    HW133320   3.537   6.962   3.730  0.4127 -1.5778  0.1385
10807SOL    HW233321   3.536   7.021   3.578  0.0952  1.9268  1.3991
10808SOL     OW33322   2.297   3.575   0.515 -0.3896 -0.4582  0.4089
10808SOL    HW133323   2.220   3.615   0.564 -0.5563  0.3583 -0.4923
10808SOL    HW233324   2.320   3.632   0.436  0.3446 -1.3503 -0.0462
10809SOL     OW33325   3.833   0.363   4.375 -0.0700  0.0473 -1.1119
10809SOL    HW133326   3.786   0.418   4.306 -2.2866 -0.2364  0.0688
10809SOL    HW233327   3.870   0.281   4.333  2.0460  1.6587 -2.6380
10810SOL     OW33328   1.479   1.398   5.564 -0.0245 -0.2083  0.4143
10810SOL    HW133329   1.480   1.454   5.481 -0.0496 -0.1757  0.4360
10810SOL    HW233330   1.388   1.357   5.575  0.8945 -3.0978 -1.5266
10811SOL     OW33331   4.197   5.350   5.105 -0.1573  0.2440  0.0921
10811SOL    HW133332   4.208   5.392   5.015 -1.2512  0.6553  0.1352
10811SOL    HW233333   4.260   5.272   5.114  0.2332  0.4405 -0.8723
10812SOL     OW33334   6.727   3.683   2.646  0.0303 -0.1277  0.1802
10812SOL    HW133335   6.720   3.694   2.547 -0.7045  1.2931  0.3676
10812SOL    HW233336   6.824   3.671   2.671  0.1574 -1.1657 -0.7521
10813SOL     OW33337   2.968   0.284   0.985 -0.2669 -0.1187  0.3908
10813SOL    HW133338   3.053   0.233   0.997  0.5489  1.0535 -0.2163
10813SOL    HW233339   2.943   0.285   0.888 -2.6267 -2.9564  0.8159
10814SOL     OW33340   3.134   1.721   5.538  0.1882  0.0337 -0.7341
10814SOL    HW133341   3.166   1.770   5.619  0.2957 -1.7488  0.3330
10814SOL    HW233342   3.056   1.770   5.498  0.4364  1.1822  0.1364
10815SOL     OW33343   5.053   4.700   2.828  0.2312  0.1420 -0.3360
10815SOL    HW133344   5.122   4.630   2.808  1.7083  1.7660 -1.1700
10815SOL    HW233345   5.034   4.752   2.745  0.3530  1.7381  0.6133
10816SOL     OW33346   6.896   0.980   2.080  0.1400 -0.0046 -0.1127
10816SOL    HW133347   6.917   1.022   1.992 -1.2081  0.6717 -0.1313
10816SOL    HW233348   6.797   0.968   2.089  0.2259  0.1903  1.4145
10817SOL     OW33349   5.875   4.989   2.302  0.2008  0.1788  0.4336
10817SOL    HW133350   5.789   5.002   2.254  0.9843  0.6391 -0.9016
10817SOL    HW233351   5.898   5.072   2.352 -0.3921 -0.1426  1.2610
10818SOL     OW33352   6.474   1.743   5.420  0.0237  0.5527 -0.1877
10818SOL    HW133353   6.564   1.722   5.381  1.3234  2.3048  1.6591
10818SOL    HW233354   6.484   1.808   5.495 -2.5856 -0.8164  1.5197
10819SOL     OW33355   0.998   5.497   6.431 -1.0172  0.0970  0.1164
10819SOL    HW133356   1.022   5.594   6.431 -0.2258 -0.0928 -0.2175
10819SOL    HW233357   0.996   5.464   6.336  0.1771 -0.5588  0.3049
10820SOL     OW33358   6.483   6.518   4.833 -0.0879 -0.1267  0.2954
10820SOL    HW133359   6.477   6.553   4.740 -0.4106  0.6046  0.5908
10820SOL    HW233360   6.484   6.594   4.898 -1.2996 -0.6493  0.9674
10821SOL     OW33361   6.756   6.719   3.099 -0.5192  0.2921 -0.6169
10821SOL    HW133362   6.706   6.701   3.184 -0.4449 -0.3063 -0.6987
10821SOL    HW233363   6.752   6.817   3.079 -1.2157  0.3290 -0.3474
10822SOL     OW33364   2.705   0.925   2.059 -0.0195 -0.0099  0.6740
10822SOL    HW133365   2.774   0.991   2.029 -0.7423  0.2414 -0.4952
10822SOL    HW233366   2.618   0.945   2.014 -0.8696 -0.3303  2.1127
10823SOL     OW33367   1.922   4.054   1.748  0.2283 -0.6058 -0.0165
10823SOL    HW133368   1.906   4.019   1.840 -2.0471  0.7775  0.1966
10823SOL    HW233369   1.979   4.136   1.753  1.4843 -1.4638 -0.0289
10824SOL     OW33370   6.497   1.154   3.928  0.3067  0.2243  0.4606
10824SOL    HW133371   6.538   1.173   3.839  1.5105  2.1899  1.3626
10824SOL    HW233372   6.438   1.074   3.921  1.9918 -0.9473 -1.6010
10825SOL     OW33373   1.820   1.912   0.163 -0.7289  0.1676  0.5711
10825SOL    HW133374   1.832   1.942   0.258  3.4691  1.3014 -0.1112
10825SOL    HW233375   1.758   1.975   0.116 -2.1515  0.1194  2.2526
10826SOL     OW33376   5.812   4.070   5.082  0.3149  0.4169 -0.2065
10826SOL    HW133377   5.905   4.096   5.107 -0.3122  1.1987  1.4606
10826SOL    HW233378   5.749   4.144   5.104 -0.7458 -0.1660 -1.1433
10827SOL     OW33379   0.233   3.709   3.961  0.2411 -0.0450  0.3794
10827SOL    HW133380   0.168   3.763   4.014  1.5612  1.1459  0.8385
10827SOL    HW233381   0.224   3.730   3.864 -1.2818 -1.2630  0.2045
10828SOL     OW33382   0.264   6.790   1.101  0.2719 -0.0275 -0.2142
10828SOL    HW133383   0.312   6.709   1.067 -0.1391  1.1366 -4.0603
10828SOL    HW233384   0.235   6.846   1.024 -2.1574  2.3016  2.1677
10829SOL     OW33385   1.782   2.789   1.854  0.2557 -0.2273 -0.4856
10829SOL    HW133386   1.839   2.841   1.918 -0.0997  0.4839 -0.7369
10829SOL    HW233387   1.687   2.791   1.886  0.3703 -1.5244  0.0109
10830SOL     OW33388   5.902   0.398   3.940  0.2624  0.6125 -0.0713
10830SOL    HW133389   5.869   0.421   4.031  0.4407  1.1905 -0.1466
10830SOL    HW233390   5.853   0.453   3.872 -1.7017 -1.6071 -0.5658
10831SOL     OW33391   3.573   0.954   0.324  0.4275 -0.2925  0.0453
10831SOL    HW133392   3.473   0.958   0.328  0.3898 -0.4136 -0.7424
10831SOL    HW233393   3.603   0.950   0.229  1.2230  0.7779  0.2366
10832SOL     OW33394   1.380   2.126   0.534 -0.0988 -0.1296 -0.6533
10832SOL    HW133395   1.303   2.141   0.595  1.0911 -0.7885  1.0893
10832SOL    HW233396   1.425   2.040   0.557  0.7784 -0.0763 -2.0508
10833SOL     OW33397   4.180   1.440   3.991 -0.1409 -0.0853 -0.0075
10833SOL    HW133398   4.085   1.424   3.964  0.1255  0.2958 -1.2825
10833SOL    HW233399   4.188   1.531   4.031 -0.1185  0.3786 -1.0317
10834SOL     OW33400   0.821   1.106   5.129  0.5717 -0.0550  0.0082
10834SOL    HW133401   0.890   1.136   5.195  0.0324 -0.6310  0.8666
10834SOL    HW233402   0.757   1.180   5.111  1.0703  0.2968 -0.3425
10835SOL     OW33403   6.027   1.648   2.705  0.3666 -0.4057 -0.3951
10835SOL    HW133404   5.953   1.636   2.639 -1.1594 -1.1902  1.3890
10835SOL    HW233405   5.991   1.689   2.789  1.4223 -2.9634  1.4238
10836SOL     OW33406   0.381   2.046   4.599 -0.2678 -0.3998 -0.7618
10836SOL    HW133407   0.412   2.055   4.694 -0.4298  0.4576 -0.7775
10836SOL    HW233408   0.306   2.111   4.582  0.2990  0.0311 -1.6989
10837SOL     OW33409   6.164   0.526   6.315 -0.4091  0.4149 -0.0051
10837SOL    HW133410   6.075   0.487   6.289 -0.5081  0.0662  0.8515
10837SOL    HW233411   6.224   0.453   6.346  0.4363  0.5494 -1.2450
10838SOL     OW33412   6.584   1.256   6.296  0.2670 -0.0818 -0.0903
10838SOL    HW133413   6.610   1.168   6.336  1.2213 -0.9131 -2.3773
10838SOL    HW233414   6.484   1.262   6.291  0.1845 -0.8639  0.4166
10839SOL     OW33415   1.820   1.974   0.426  0.9863 -0.1908  0.1599
10839SOL    HW133416   1.914   1.996   0.454  1.3816 -0.6252 -0.7552
10839SOL    HW233417   1.790   1.890   0.470  0.5327  0.6177  1.4521
10840SOL     OW33418   3.533   4.883   2.545  0.1889  0.0719 -0.1907
10840SOL    HW133419   3.570   4.872   2.453 -0.6370  1.0359 -0.6542
10840SOL    HW233420   3.440   4.845   2.549 -0.9409  2.5941 -0.6040
10841SOL     OW33421   3.561   0.392   5.892  1.2000  0.3853 -0.6914
10841SOL    HW133422   3.476   0.439   5.916  1.1282  0.2779 -0.7304
10841SOL    HW233423   3.629   0.458   5.861  2.4420  1.0171  2.8351
10842SOL     OW33424   5.286   2.676   0.914 -0.1124 -0.4705  0.4603
10842SOL    HW133425   5.373   2.714   0.881  0.6865 -0.8518  2.0297
10842SOL    HW233426   5.216   2.747   0.914  0.3502 -0.0032 -0.2548
10843SOL     OW33427   0.831   2.945   1.074  0.1498 -0.2747 -0.4390
10843SOL    HW133428   0.826   2.907   1.167  0.3504  1.2330  0.2144
10843SOL    HW233429   0.823   3.045   1.078  1.6687 -0.0433 -1.8889
10844SOL     OW33430   6.751   5.369   4.759 -0.0078  0.2117  0.2423
10844SOL    HW133431   6.691   5.419   4.696 -0.7431  2.0550  2.2613
10844SOL    HW233432   6.697   5.300   4.807 -0.9349  2.5390  2.7916
10845SOL     OW33433   1.923   0.456   2.075  0.4037  0.2210 -0.1117
10845SOL    HW133434   1.980   0.459   2.158  2.7917  2.3971 -1.6708
10845SOL    HW233435   1.894   0.548   2.051  0.7581 -0.1781 -2.3020
10846SOL     OW33436   3.443   0.418   6.850 -0.4180  1.0862 -0.3412
10846SOL    HW133437   3.419   0.507   6.891  1.3153  2.1272 -1.4451
10846SOL    HW233438   3.492   0.433   6.764 -0.6274 -0.9817 -0.8725
10847SOL     OW33439   3.924   0.099   5.110  0.1183 -0.1926 -0.3107
10847SOL    HW133440   3.926  -0.000   5.124 -0.3233  0.0651  2.0860
10847SOL    HW233441   3.837   0.125   5.069  0.0722 -0.7518 -0.5775
10848SOL     OW33442   2.656   1.682   0.873  0.2467  0.1143  0.0735
10848SOL    HW133443   2.750   1.688   0.840  0.5176 -1.9541  0.3347
10848SOL    HW233444   2.594   1.668   0.795  0.1108  1.5418 -0.1048
10849SOL     OW33445   4.352   4.795   5.291 -0.1188  0.6385  0.1295
10849SOL    HW133446   4.406   4.878   5.299 -0.2008  0.5723  1.7470
10849SOL    HW233447   4.285   4.792   5.365 -4.1550  1.9517 -3.1242
10850SOL     OW33448   3.066   0.505   0.682 -0.0049 -0.0345  0.0126
10850SOL    HW133449   3.015   0.575   0.732 -1.1326 -0.5554 -0.3698
10850SOL    HW233450   3.054   0.416   0.727 -1.1353 -0.5363 -1.1905
10851SOL     OW33451   2.811   2.463   6.574  0.4205  0.1134 -0.0188
10851SOL    HW133452   2.772   2.554   6.591  1.0659  0.6805 -1.4171
10851SOL    HW233453   2.792   2.404   6.652 -1.9775  0.7671 -0.0189
10852SOL     OW33454   2.759   6.928   5.838  0.7394  0.3563  0.0447
10852SOL    HW133455   2.820   6.928   5.918 -2.1285 -0.5642  2.4455
10852SOL    HW233456   2.702   6.846   5.840  0.4468  0.3704 -2.9680
10853SOL     OW33457   5.302   0.508   5.979 -0.0588  0.2475 -0.0525
10853SOL    HW133458   5.350   0.482   6.063  0.4689  2.4519  0.4076
10853SOL    HW233459   5.213   0.464   5.976 -0.9394  1.6131  2.7332
10854SOL     OW33460   6.113   5.105   6.052 -0.6350  0.1402  0.0779
10854SOL    HW133461   6.198   5.066   6.088 -1.1243 -0.2766  0.8178
10854SOL    HW233462   6.132   5.194   6.012  0.3406 -0.4201 -0.7631
10855SOL     OW33463   2.573   6.580   1.315 -0.0931 -0.1533 -0.3137
10855SOL    HW133464   2.630   6.527   1.252 -0.6018 -0.8107 -0.2297
10855SOL    HW233465   2.477   6.568   1.292 -0.5140 -2.5691  2.1345
10856SOL     OW33466   5.014   2.171   2.011 -0.0574  0.5222 -0.6722
10856SOL    HW133467   5.090   2.114   2.042 -0.8229  0.1437  0.5737
10856SOL    HW233468   5.049   2.243   1.950  1.2186  0.0561 -0.5136
10857SOL     OW33469   6.143   4.329   4.277 -0.0521  0.2344 -0.3580
10857SOL    HW133470   6.122   4.427   4.283  0.8908  0.4881 -0.9843
10857SOL    HW233471   6.215   4.307   4.343  0.3487  0.1344 -0.8329
10858SOL     OW33472   3.600   1.315   6.184  0.6039  0.0203 -0.5868
10858SOL    HW133473   3.555   1.300   6.273 -1.0366 -0.8331 -1.5056
10858SOL    HW233474   3.694   1.345   6.199  0.2644  0.2518  1.4365
10859SOL     OW33475   1.854   3.295   3.550 -0.5021  0.3531  0.5326
10859SOL    HW133476   1.929   3.264   3.491  0.3216  1.2148  1.0921
10859SOL    HW233477   1.862   3.252   3.640 -0.7988  0.3040  0.5368
10860SOL     OW33478   4.915   1.255   0.060  0.0650 -0.3861  0.3549
10860SOL    HW133479   4.920   1.248  -0.040 -1.8817  1.4020  0.0536
10860SOL    HW233480   4.908   1.164   0.100 -0.6769 -1.0681 -1.2447
10861SOL     OW33481   4.301   2.499   0.505 -0.0416 -0.3986  0.0083
10861SOL    HW133482   4.337   2.458   0.588 -1.1732  1.6913  1.6421
10861SOL    HW233483   4.241   2.434   0.458 -0.0207 -1.3545  1.2736
10862SOL     OW33484   4.844   0.612   5.754  0.3748  0.1230 -0.3282
10862SOL    HW133485   4.870   0.570   5.842 -0.2645 -0.5836 -0.4647
10862SOL    HW233486   4.819   0.540   5.690  1.9111  0.5502 -1.4699
10863SOL     OW33487   2.373   0.722   2.452 -0.1915  0.6596 -0.0942
10863SOL    HW133488   2.382   0.637   2.504  4.2152  1.1477  0.3524
10863SOL    HW233489   2.353   0.797   2.516 -0.8830  0.4324 -0.0337
10864SOL     OW33490   2.368   3.509   6.778  0.0345 -0.1962  0.0719
10864SOL    HW133491   2.407   3.573   6.844 -2.1679  1.1722  0.1714
10864SOL    HW233492   2.408   3.526   6.688 -0.7319  1.6445  0.0210
10865SOL     OW33493   5.004   4.313   1.960  0.1249 -0.1039  0.3652
10865SOL    HW133494   4.919   4.260   1.954  0.3879 -0.6248  1.1295
10865SOL    HW233495   5.027   4.329   2.056  1.3641 -0.7473  0.2004
10866SOL     OW33496   5.102   4.958   6.680  0.3586  0.3637 -0.1620
10866SOL    HW133497   5.019   4.925   6.635 -1.6718  1.5727  2.4249
10866SOL    HW233498   5.136   4.887   6.741 -0.1814  0.6816  0.5232
10867SOL     OW33499   2.921   3.286   0.303 -0.0789  0.1784  0.4451
10867SOL    HW133500   2.970   3.214   0.352 -0.7168 -0.1634  0.5880
10867SOL    HW233501   2.833   3.251   0.273  0.1152  0.5262 -0.5554
10868SOL     OW33502   0.984   2.793   2.673  0.1982  0.3551 -0.3599
10868SOL    HW133503   1.070   2.750   2.701  0.4128 -0.7594 -2.5237
10868SOL    HW233504   0.908   2.756   2.727  0.9526  0.7194  0.9801
10869NA      NA33505   6.264   1.747   5.281 -0.3734 -0.4757 -0.2531
10870NA      NA33506   4.635   4.108   5.613 -0.1057 -0.2832  0.2242
10871NA      NA33507   0.981   3.862   2.423  0.4256 -0.0187 -0.1573
10872NA      NA33508   4.935   4.802   3.012 -0.5859  0.1212 -0.1011
10873NA      NA33509   4.080   2.243   5.100  0.1950 -0.6315  0.2844
10874NA      NA33510   2.579   4.887   1.680 -0.0976  0.0144  0.0067
10875NA      NA33511   0.110   4.751   0.381 -0.0419 -0.0525 -0.0223
10876NA      NA33512   3.344   3.491   2.363  0.3257  0.2950 -0.2071
10877NA      NA33513   4.526   3.918   6.739 -0.3984  0.1349 -0.0044
10878NA      NA33514   4.118   0.059   5.765 -0.3739  0.0313 -0.5302
10879NA      NA33515   5.869   5.793   1.076  0.1032  0.2029 -0.1408
10880NA      NA33516   1.709   0.802   6.118 -0.2366  0.3795 -0.4581
10881NA      NA33517   4.455   4.707   2.005 -0.0049  0.4779 -0.4108
10882NA      NA33518   3.570   3.200   0.679 -0.5163  0.4464 -0.3404
   7.01202   7.01202   7.01202
