CNT in water
33518
    1C        C    1   2.853   2.775   4.748 -0.0875  0.1837 -0.2152
    1C        C    2   2.900   2.722   4.870  0.0463  0.4652 -0.1449
    1C        C    3   2.840   2.773   4.985 -0.0943  0.4506 -0.2129
    1C        C    4   2.843   2.768   4.261  1.0958  0.9480  0.1691
    1C        C    5   2.900   2.728   4.383  0.5028  0.4170  0.2754
    1C        C    6   2.846   2.772   4.506 -0.1452  0.2042  0.0673
    1C        C    7   3.016   2.640   4.627  0.2531  0.2471 -0.0271
    1C        C    8   2.899   2.720   4.626  0.2113  0.1837 -0.1004
    1C        C    9   3.079   2.604   4.748 -0.1040  0.3016  0.1762
    1C        C   10   3.011   2.634   4.868  0.0128  0.4131  0.2157
    1C        C   11   3.188   2.502   4.979  0.1883  0.1132  0.2351
    1C        C   12   3.065   2.569   4.979  0.3063  0.3335  0.0293
    1C        C   13   2.853   2.772   3.771 -0.2040  0.0376  0.0312
    1C        C   14   2.902   2.722   3.894  0.0710  0.1098 -0.0495
    1C        C   15   2.850   2.772   4.016 -0.2018  0.0900 -0.1596
    1C        C   16   3.017   2.646   4.140  0.7985  1.4153 -0.1949
    1C        C   17   2.900   2.725   4.139  0.4139  0.8435 -0.1150
    1C        C   18   3.079   2.611   4.262  0.2366  0.9904 -0.0321
    1C        C   19   3.018   2.649   4.383  0.3301  0.1617  0.2793
    1C        C   20   3.212   2.562   4.503  0.3557 -0.3896 -0.0701
    1C        C   21   3.079   2.610   4.504  0.5258  0.0809  0.1531
    1C        C   22   3.279   2.533   4.624  0.1637 -0.2532  0.0686
    1C        C   23   3.210   2.548   4.747 -0.2000  0.0854 -0.1748
    1C        C   24   3.415   2.479   4.865 -0.2223  0.6324  0.3035
    1C        C   25   3.274   2.502   4.865 -0.3455 -0.1108 -0.1720
    1C        C   26   3.492   2.468   4.981  0.1490  0.1494  0.0168
    1C        C   27   2.856   2.773   3.280  0.8696  0.4352 -0.2877
    1C        C   28   2.903   2.722   3.403  0.4954  0.5300 -0.1042
    1C        C   29   2.854   2.773   3.525  0.5103  0.8417 -0.2277
    1C        C   30   3.018   2.640   3.652 -0.1426  0.4238 -0.0054
    1C        C   31   2.909   2.730   3.649 -0.2926  0.2361 -0.0755
    1C        C   32   3.077   2.604   3.775 -0.0818  0.3096 -0.0709
    1C        C   33   3.014   2.637   3.897  0.1998  0.2867  0.0777
    1C        C   34   3.208   2.551   4.014  0.2781  0.1159 -0.2336
    1C        C   35   3.077   2.605   4.019  0.2967  0.1338 -0.0160
    1C        C   36   3.277   2.539   4.137 -0.1669  0.4506  0.0458
    1C        C   37   3.211   2.561   4.260 -0.0680  0.1803  0.1436
    1C        C   38   3.418   2.510   4.380  0.3742  0.0669  0.5144
    1C        C   39   3.280   2.541   4.381  0.3043 -0.2055 -0.1290
    1C        C   40   3.488   2.502   4.502  0.4583 -0.4179  0.4374
    1C        C   41   3.417   2.504   4.624  0.1712 -0.2167  0.2663
    1C        C   42   3.630   2.489   4.745  0.0062 -0.7874  0.0717
    1C        C   43   3.488   2.478   4.743 -0.0488 -0.1559  0.4121
    1C        C   44   3.706   2.493   4.863  0.0981 -0.5663  0.0032
    1C        C   45   3.631   2.472   4.979  0.1502  0.1962  0.1832
    1C        C   46   2.841   2.756   2.793 -0.1910 -0.0721  0.1115
    1C        C   47   2.900   2.716   2.916 -0.2741 -0.7693 -0.0673
    1C        C   48   2.851   2.769   3.037  0.4104  0.3249 -0.2535
    1C        C   49   3.017   2.635   3.162  0.2014 -0.1384 -0.2718
    1C        C   50   2.904   2.719   3.158  0.3639  0.0788 -0.3336
    1C        C   51   3.076   2.598   3.285 -0.2106  0.1183  0.0053
    1C        C   52   3.015   2.636   3.406 -0.0446 -0.1689  0.1787
    1C        C   53   3.207   2.550   3.528  0.1218  0.0922  0.3086
    1C        C   54   3.074   2.599   3.529  0.1920  0.2774  0.1980
    1C        C   55   3.278   2.528   3.649  0.0951  0.0857  0.3193
    1C        C   56   3.209   2.552   3.769 -0.0868  0.2802  0.1722
    1C        C   57   3.415   2.507   3.891  0.5642  0.6929  0.1819
    1C        C   58   3.277   2.536   3.892  0.5667  0.6898 -0.1382
    1C        C   59   3.485   2.512   4.014  0.1408  0.1502  0.4475
    1C        C   60   3.416   2.517   4.137 -0.2482 -0.0553  0.2331
    1C        C   61   3.628   2.502   4.258 -0.1046 -0.2636 -0.1344
    1C        C   62   3.487   2.500   4.258 -0.1155  0.3621  0.2129
    1C        C   63   3.701   2.503   4.379  0.0684  0.2387 -0.2442
    1C        C   64   3.629   2.500   4.501  0.4583 -0.2540 -0.0264
    1C        C   65   3.837   2.541   4.622 -0.0527  0.5241  0.0989
    1C        C   66   3.700   2.505   4.623  0.0140  0.2842  0.2110
    1C        C   67   3.908   2.562   4.742  0.0219  0.0778  0.1324
    1C        C   68   3.843   2.530   4.863 -0.1613  0.4258  0.1269
    1C        C   69   4.053   2.588   4.978 -0.1332  0.2500  0.0535
    1C        C   70   3.923   2.537   4.978 -0.0328 -0.0072  0.0665
    1C        C   71   2.818   2.734   2.309  0.3687 -0.1154  0.1171
    1C        C   72   2.883   2.698   2.429  0.2681  0.3916  0.3291
    1C        C   73   2.829   2.745   2.551 -0.4725 -0.2342  0.2599
    1C        C   74   3.011   2.630   2.671  0.1966  0.4921 -0.2606
    1C        C   75   2.891   2.705   2.672 -0.3356 -0.3364  0.1585
    1C        C   76   3.071   2.591   2.793  0.2208  0.1673 -0.3741
    1C        C   77   3.015   2.635   2.915  0.6700  0.5511 -0.3050
    1C        C   78   3.204   2.544   3.041  0.1622 -0.2100  0.1058
    1C        C   79   3.074   2.598   3.038  0.2181 -0.0931 -0.2778
    1C        C   80   3.275   2.529   3.162 -0.0362 -0.6612  0.1645
    1C        C   81   3.208   2.549   3.285 -0.2898 -0.0971 -0.0632
    1C        C   82   3.415   2.503   3.403 -0.3432  0.1191  0.2206
    1C        C   83   3.276   2.528   3.407 -0.3131  0.3149  0.0205
    1C        C   84   3.487   2.496   3.524  0.1148  0.6230 -0.0197
    1C        C   85   3.416   2.501   3.646  0.1839  0.5803  0.0173
    1C        C   86   3.625   2.494   3.770  0.1405 -0.0785  0.2460
    1C        C   87   3.484   2.489   3.769  0.1341  0.2589  0.0084
    1C        C   88   3.695   2.510   3.891  0.2052 -0.1140  0.2065
    1C        C   89   3.627   2.511   4.014  0.1359 -0.8528  0.1713
    1C        C   90   3.837   2.537   4.137  0.2773 -0.5680  0.1313
    1C        C   91   3.698   2.514   4.136  0.3233 -0.8152  0.0558
    1C        C   92   3.903   2.567   4.258  0.4857 -0.3029 -0.0506
    1C        C   93   3.836   2.542   4.380  0.1985 -0.2129 -0.1942
    1C        C   94   4.025   2.640   4.497 -0.2642  0.0998  0.1522
    1C        C   95   3.906   2.564   4.501 -0.0553 -0.2359 -0.0482
    1C        C   96   4.085   2.677   4.619  0.3746 -0.6532  0.0708
    1C        C   97   4.032   2.632   4.741 -0.2650  0.5936  0.2686
    1C        C   98   4.193   2.769   4.861 -0.2487  0.4679 -0.2232
    1C        C   99   4.100   2.660   4.863  0.4560 -0.1377  0.0448
    1C        C  100   4.213   2.848   4.975  0.2727 -0.3296  0.2512
    1C        C  101   2.822   2.737   2.072 -0.4550 -0.5710 -0.0803
    1C        C  102   2.987   2.595   2.191  0.0539  0.0477 -0.1132
    1C        C  103   2.869   2.676   2.189 -0.1838 -0.2895 -0.0386
    1C        C  104   3.065   2.586   2.310  0.0825  0.1717 -0.1183
    1C        C  105   3.005   2.627   2.431  0.0784  0.0387 -0.0713
    1C        C  106   3.201   2.532   2.552  0.0992 -0.1956  0.1137
    1C        C  107   3.073   2.592   2.550  0.3106  0.2578 -0.1331
    1C        C  108   3.269   2.514   2.675  0.0865  0.0514  0.1602
    1C        C  109   3.199   2.532   2.796  0.0514 -0.1810  0.1750
    1C        C  110   3.408   2.499   2.917  0.2513  0.1508  0.5942
    1C        C  111   3.268   2.515   2.918  0.2186 -0.0631  0.0994
    1C        C  112   3.482   2.491   3.037  0.2116 -0.4071  0.5851
    1C        C  113   3.413   2.501   3.160  0.0161 -0.4316  0.4775
    1C        C  114   3.626   2.494   3.280  0.0705  0.0871 -0.1020
    1C        C  115   3.485   2.492   3.281  0.0747 -0.0329  0.4739
    1C        C  116   3.695   2.509   3.402 -0.3054  0.0447  0.1130
    1C        C  117   3.628   2.500   3.527  0.1245  0.0747  0.3421
    1C        C  118   3.834   2.544   3.646  0.3206 -0.5956 -0.2367
    1C        C  119   3.697   2.507   3.650  0.2369 -0.2281  0.2929
    1C        C  120   3.898   2.570   3.769  0.2592 -0.4201 -0.2473
    1C        C  121   3.832   2.544   3.891  0.3817 -0.8210 -0.2705
    1C        C  122   4.022   2.637   4.012 -0.1379 -0.4538 -0.2398
    1C        C  123   3.899   2.568   4.014 -0.2304 -0.2732 -0.0461
    1C        C  124   4.085   2.676   4.132  0.0090 -0.3318 -0.3611
    1C        C  125   4.023   2.641   4.255  0.5435 -0.4081 -0.1183
    1C        C  126   4.193   2.770   4.375 -0.3645  0.0359 -0.3313
    1C        C  127   4.086   2.677   4.376  0.0388 -0.4232  0.1469
    1C        C  128   4.243   2.818   4.497 -0.1915  0.2348 -0.4867
    1C        C  129   4.193   2.768   4.619 -0.0087 -0.1967 -0.5899
    1C        C  130   4.331   2.934   4.740 -0.2054 -0.2557  0.0084
    1C        C  131   4.245   2.821   4.739 -0.0706 -0.3523 -0.4995
    1C        C  132   4.362   3.001   4.861  0.0393 -0.1365 -0.1222
    1C        C  133   4.296   2.959   4.977 -0.1119 -0.0274 -0.1681
    1C        C  134   3.171   2.469   2.085 -0.1594  0.3073  0.2034
    1C        C  135   3.039   2.517   2.084 -0.5315 -0.6885  0.1262
    1C        C  136   3.257   2.478   2.195 -0.0426 -0.8240  0.2205
    1C        C  137   3.195   2.529   2.311 -0.4156 -1.0061  0.1061
    1C        C  138   3.408   2.492   2.430 -0.2318 -0.6795  0.3611
    1C        C  139   3.268   2.509   2.430 -0.2570 -0.8602  0.0373
    1C        C  140   3.480   2.486   2.551 -0.1735 -0.1659  0.3525
    1C        C  141   3.409   2.497   2.673  0.0681 -0.1498  0.4927
    1C        C  142   3.620   2.498   2.789 -0.0103 -0.6550 -0.4073
    1C        C  143   3.479   2.491   2.795  0.0196 -0.5834  0.4995
    1C        C  144   3.691   2.501   2.911 -0.1032 -0.2744 -0.3630
    1C        C  145   3.623   2.489   3.035  0.1995 -0.6803 -0.2358
    1C        C  146   3.829   2.537   3.157 -0.0009  0.1978  0.0367
    1C        C  147   3.694   2.493   3.157 -0.0026  0.2079 -0.1422
    1C        C  148   3.896   2.564   3.278  0.0496 -0.3882  0.1438
    1C        C  149   3.831   2.546   3.402 -0.1779 -0.4278  0.0164
    1C        C  150   4.026   2.628   3.524  0.2589 -0.5428 -0.2640
    1C        C  151   3.900   2.565   3.524  0.3387 -0.6937 -0.2386
    1C        C  152   4.083   2.672   3.646 -0.0331 -0.8925 -0.0047
    1C        C  153   4.019   2.643   3.768  0.3421 -0.5548  0.2684
    1C        C  154   4.189   2.769   3.888  0.3780 -0.0833  0.1002
    1C        C  155   4.079   2.680   3.890  0.1840  0.1628  0.1302
    1C        C  156   4.238   2.820   4.010 -0.4840  0.4220  0.2321
    1C        C  157   4.194   2.766   4.132 -0.0254 -0.2934  0.0781
    1C        C  158   4.336   2.927   4.252 -0.1833  0.2819 -0.0458
    1C        C  159   4.243   2.820   4.253  0.2641 -0.1047 -0.1304
    1C        C  160   4.369   2.987   4.375 -0.2396  0.0226  0.0901
    1C        C  161   4.327   2.932   4.499 -0.6022  0.5308  0.1916
    1C        C  162   4.441   3.115   4.616 -0.3086  0.2702  0.2937
    1C        C  163   4.374   2.991   4.618 -0.3919  0.3176  0.2114
    1C        C  164   4.467   3.186   4.735 -0.1868  0.3775  0.1984
    1C        C  165   4.430   3.125   4.856 -0.1403 -0.0331  0.0042
    1C        C  166   4.523   3.318   4.968  0.4176 -0.2659  0.0682
    1C        C  167   4.482   3.185   4.971  0.0528 -0.1583 -0.0176
    1C        C  168   3.471   2.443   2.075 -0.1203 -0.0029  0.2276
    1C        C  169   3.398   2.463   2.192  0.0355 -0.1666  0.3531
    1C        C  170   3.619   2.469   2.306 -0.0522 -0.3369  0.0787
    1C        C  171   3.476   2.466   2.309 -0.0438 -0.4282  0.4145
    1C        C  172   3.692   2.488   2.426  0.1166 -0.2256 -0.0449
    1C        C  173   3.621   2.486   2.548 -0.1843 -0.0812 -0.2174
    1C        C  174   3.829   2.541   2.668 -0.0491 -0.0467  0.1863
    1C        C  175   3.694   2.500   2.669  0.1032 -0.5630 -0.3344
    1C        C  176   3.893   2.562   2.792  0.0082 -0.3313  0.2011
    1C        C  177   3.827   2.537   2.914 -0.1280 -0.2153  0.1492
    1C        C  178   4.020   2.629   3.035  0.0936 -0.1735 -0.2014
    1C        C  179   3.894   2.565   3.035  0.1705 -0.3208  0.0080
    1C        C  180   4.079   2.669   3.157 -0.0909 -0.4635 -0.0172
    1C        C  181   4.017   2.636   3.279  0.2425 -0.7176  0.0795
    1C        C  182   4.190   2.760   3.396 -0.0867  0.4674 -0.2418
    1C        C  183   4.081   2.669   3.401 -0.0444  0.4292 -0.0800
    1C        C  184   4.237   2.812   3.518 -0.5351 -0.1754  0.2079
    1C        C  185   4.190   2.764   3.643 -0.6864 -0.1259  0.1652
    1C        C  186   4.335   2.918   3.762 -0.5351  0.3604 -0.3436
    1C        C  187   4.243   2.812   3.764 -0.3359  0.1966 -0.1152
    1C        C  188   4.376   2.976   3.884 -0.3368  0.1710 -0.3248
    1C        C  189   4.332   2.926   4.008 -0.4724  0.4015 -0.2838
    1C        C  190   4.450   3.104   4.131 -0.9053  0.4513  0.1295
    1C        C  191   4.377   2.983   4.129 -0.5938  0.2727 -0.1840
    1C        C  192   4.473   3.172   4.253 -0.4724  0.1393  0.2201
    1C        C  193   4.437   3.110   4.374 -0.3536  0.0793  0.2173
    1C        C  194   4.495   3.319   4.488 -0.4857  0.1223 -0.0048
    1C        C  195   4.459   3.183   4.493 -0.3036  0.0862  0.1976
    1C        C  196   4.518   3.391   4.608  0.7008  0.1213 -0.2181
    1C        C  197   4.508   3.323   4.731  0.5014  0.1622 -0.2134
    1C        C  198   4.555   3.535   4.851 -0.1214 -0.1473  0.0885
    1C        C  199   4.539   3.393   4.851  0.1179 -0.1736  0.0839
    1C        C  200   4.580   3.620   4.963 -0.1951 -0.2645  0.1935
    1C        C  201   3.610   2.424   2.072 -0.1088  0.1117 -0.0438
    1C        C  202   3.826   2.511   2.185 -0.0175 -0.3583  0.2275
    1C        C  203   3.690   2.466   2.183 -0.1807  0.1454 -0.0066
    1C        C  204   3.901   2.538   2.302  0.0316 -0.0973  0.1337
    1C        C  205   3.829   2.519   2.422  0.1716 -0.4495  0.1598
    1C        C  206   4.018   2.621   2.546 -0.1831  0.1360  0.0782
    1C        C  207   3.891   2.560   2.542  0.1158 -0.4957  0.2012
    1C        C  208   4.082   2.656   2.667 -0.0259  0.1628 -0.0139
    1C        C  209   4.019   2.625   2.790  0.0249 -0.3742 -0.1226
    1C        C  210   4.189   2.754   2.909  0.3198 -0.5032  0.3671
    1C        C  211   4.077   2.669   2.912  0.3810 -0.6041 -0.2085
    1C        C  212   4.245   2.798   3.030 -0.2134  0.2340  0.3542
    1C        C  213   4.191   2.754   3.153 -0.4482  0.0181  0.1724
    1C        C  214   4.332   2.916   3.270  0.1782  0.2567 -0.3084
    1C        C  215   4.244   2.806   3.274  0.1547  0.2838 -0.2014
    1C        C  216   4.363   2.977   3.393 -0.8184 -0.0047  0.0721
    1C        C  217   4.332   2.916   3.517 -0.7721  0.0338  0.0985
    1C        C  218   4.434   3.103   3.641 -0.1645  0.3895 -0.5617
    1C        C  219   4.372   2.976   3.639 -0.5411  0.5717 -0.2425
    1C        C  220   4.467   3.166   3.762 -0.8287  0.3521 -0.3644
    1C        C  221   4.444   3.101   3.885 -0.4630  0.2338 -0.3623
    1C        C  222   4.504   3.304   4.004 -0.7061 -0.1521  0.0893
    1C        C  223   4.474   3.166   4.006 -0.5446 -0.1852 -0.1181
    1C        C  224   4.517   3.378   4.124 -0.4186 -0.1998  0.0810
    1C        C  225   4.507   3.309   4.247 -0.2133  0.0691  0.2418
    1C        C  226   4.519   3.527   4.364 -0.2256  0.2208 -0.2805
    1C        C  227   4.513   3.386   4.365  0.0208  0.2179  0.1260
    1C        C  228   4.529   3.600   4.485  0.1055 -0.0226 -0.1631
    1C        C  229   4.534   3.531   4.608  0.0479  0.1985 -0.0396
    1C        C  230   4.507   3.744   4.726  0.1771 -0.0694 -0.2113
    1C        C  231   4.535   3.604   4.728  0.7223  0.0440  0.0523
    1C        C  232   4.497   3.820   4.844  0.3899  0.0526 -0.2741
    1C        C  233   4.547   3.756   4.958 -0.1707 -0.2708 -0.2093
    1C        C  234   4.021   2.601   2.067 -0.9434  0.6198  0.3699
    1C        C  235   3.894   2.545   2.067 -0.6935  0.0477 -0.0504
    1C        C  236   4.090   2.641   2.182  0.2512 -0.1926 -0.0517
    1C        C  237   4.027   2.604   2.303 -0.0652  0.0902 -0.1295
    1C        C  238   4.199   2.732   2.425 -0.0860 -0.3653 -0.1665
    1C        C  239   4.086   2.645   2.425 -0.0956 -0.3496  0.0335
    1C        C  240   4.251   2.785   2.544 -0.2971 -0.2195 -0.1399
    1C        C  241   4.195   2.741   2.666  0.3172 -0.2955  0.1190
    1C        C  242   4.337   2.903   2.786  0.1966 -0.5886 -0.0015
    1C        C  243   4.246   2.795   2.786  0.2766 -0.6535  0.2984
    1C        C  244   4.377   2.962   2.907 -0.0214  0.0939 -0.2620
    1C        C  245   4.339   2.904   3.030 -0.1951  0.2178 -0.2588
    1C        C  246   4.438   3.098   3.148 -0.1110  0.3530 -0.1870
    1C        C  247   4.380   2.969   3.149 -0.0862  0.3457 -0.3700
    1C        C  248   4.455   3.165   3.272 -0.1726  0.2465 -0.1242
    1C        C  249   4.428   3.103   3.395 -0.2446 -0.2931 -0.4119
    1C        C  250   4.496   3.303   3.515  0.6565 -0.0603 -0.0925
    1C        C  251   4.456   3.168   3.517 -0.2301  0.1906 -0.6761
    1C        C  252   4.513   3.372   3.637  0.2760 -0.3591  0.1311
    1C        C  253   4.505   3.302   3.760 -0.5315  0.2864  0.4489
    1C        C  254   4.520   3.514   3.879 -0.3499  0.3325 -0.2328
    1C        C  255   4.518   3.373   3.881 -0.4154  0.3450  0.4001
    1C        C  256   4.522   3.590   3.998 -0.0333  0.0162 -0.0413
    1C        C  257   4.528   3.519   4.120  0.3704 -0.2707 -0.2303
    1C        C  258   4.498   3.733   4.241 -0.3038 -0.0561 -0.7079
    1C        C  259   4.519   3.593   4.239 -0.2751 -0.0498 -0.4191
    1C        C  260   4.476   3.803   4.361 -0.1380 -0.3806 -0.4933
    1C        C  261   4.494   3.737   4.485  0.4978  0.0750 -0.3406
    1C        C  262   4.427   3.941   4.605 -0.1773 -0.2892 -0.1094
    1C        C  263   4.479   3.810   4.604  0.2331 -0.1266 -0.2533
    1C        C  264   4.402   4.011   4.725  0.3666 -0.0011 -0.1632
    1C        C  265   4.436   3.947   4.846  0.0987 -0.0902 -0.1366
    1C        C  266   4.317   4.127   4.960  0.7203  0.5963  0.0449
    1C        C  267   4.391   4.009   4.964  0.5618  0.4871 -0.2620
    1C        C  268   4.258   2.778   2.065 -0.0848 -0.0305  0.1069
    1C        C  269   4.202   2.726   2.182 -0.0210  0.1674  0.2250
    1C        C  270   4.342   2.890   2.300 -0.0648  0.3423 -0.0961
    1C        C  271   4.252   2.779   2.303  0.1710  0.1581  0.1483
    1C        C  272   4.382   2.953   2.420 -0.4893  0.2710  0.0814
    1C        C  273   4.340   2.895   2.542  0.2395 -0.6492 -0.0974
    1C        C  274   4.438   3.085   2.662 -0.6983 -0.2549 -0.0036
    1C        C  275   4.381   2.956   2.662  0.0009 -0.5651 -0.0600
    1C        C  276   4.463   3.155   2.782  0.3495  0.1358 -0.4384
    1C        C  277   4.439   3.089   2.904 -0.1685  0.1580 -0.5286
    1C        C  278   4.499   3.295   3.023 -0.8387  0.1621 -0.2107
    1C        C  279   4.467   3.158   3.024 -0.5151  0.0891 -0.4084
    1C        C  280   4.512   3.363   3.147 -0.8496  0.3992 -0.3413
    1C        C  281   4.499   3.299   3.272 -0.3789  0.3119 -0.3377
    1C        C  282   4.520   3.513   3.390  0.4659  0.0138  0.0139
    1C        C  283   4.511   3.372   3.393 -0.5757  0.0707 -0.1737
    1C        C  284   4.523   3.583   3.513 -0.0199 -0.0602  0.0720
    1C        C  285   4.520   3.513   3.636 -0.5191 -0.3190 -0.0836
    1C        C  286   4.495   3.725   3.754 -0.0964  0.2187  0.1049
    1C        C  287   4.509   3.585   3.757  0.2325  0.2415 -0.3375
    1C        C  288   4.486   3.797   3.876  0.8077  0.2982  0.1276
    1C        C  289   4.501   3.729   3.998 -0.0208  0.0153  0.0745
    1C        C  290   4.424   3.930   4.116  0.0754  0.7330 -0.1284
    1C        C  291   4.481   3.801   4.118 -0.0327  0.6854 -0.3309
    1C        C  292   4.392   3.994   4.238  0.2743  0.4051  0.0934
    1C        C  293   4.426   3.935   4.362  0.7239 -0.0551 -0.2507
    1C        C  294   4.322   4.123   4.479 -0.2685 -0.5820 -0.2504
    1C        C  295   4.395   4.002   4.482 -0.1413 -0.5017 -0.2210
    1C        C  296   4.281   4.183   4.600 -0.3350 -0.5241 -0.3055
    1C        C  297   4.321   4.128   4.724  0.5139  0.0977 -0.2991
    1C        C  298   4.200   4.312   4.837  0.3528 -0.1665  0.1915
    1C        C  299   4.284   4.196   4.843  0.9234  0.2175 -0.2383
    1C        C  300   4.172   4.403   4.943  0.4829  0.2858 -0.1607
    1C        C  301   4.351   2.882   2.065  0.0485 -0.1496  0.0257
    1C        C  302   4.465   3.070   2.175 -0.4097  0.3375  0.1997
    1C        C  303   4.401   2.942   2.182  0.1610  0.0349 -0.1183
    1C        C  304   4.481   3.141   2.297 -0.0761  0.4451  0.0897
    1C        C  305   4.446   3.079   2.419 -0.3215  0.1806 -0.1180
    1C        C  306   4.499   3.287   2.533 -0.3263 -0.1954  0.1253
    1C        C  307   4.464   3.150   2.539 -0.4393 -0.1647  0.1022
    1C        C  308   4.514   3.358   2.654 -0.7801  0.3583 -0.1420
    1C        C  309   4.499   3.291   2.778 -0.8295  0.4696 -0.0917
    1C        C  310   4.518   3.503   2.898 -0.5379  0.4121 -0.3792
    1C        C  311   4.513   3.362   2.899 -0.8677  0.4287 -0.0672
    1C        C  312   4.512   3.573   3.020 -0.5965  0.1884 -0.2569
    1C        C  313   4.516   3.504   3.143 -0.0668  0.3835 -0.1611
    1C        C  314   4.495   3.716   3.263 -0.0334  0.0206 -0.1805
    1C        C  315   4.510   3.576   3.264  0.1357  0.0412  0.0513
    1C        C  316   4.479   3.786   3.385  0.8988  0.1170 -0.1068
    1C        C  317   4.502   3.722   3.509  0.5464  0.0259 -0.0876
    1C        C  318   4.430   3.923   3.630  0.2638  0.0452 -0.2206
    1C        C  319   4.483   3.792   3.631 -0.2494 -0.1669 -0.0908
    1C        C  320   4.397   3.989   3.750  0.5787  0.3997 -0.3257
    1C        C  321   4.426   3.924   3.873  0.3240  0.0583 -0.4438
    1C        C  322   4.316   4.109   3.988 -0.3064 -0.2911  0.2828
    1C        C  323   4.395   3.992   3.993  0.4562  0.1932 -0.4880
    1C        C  324   4.266   4.160   4.110 -0.5363 -0.1215  0.1177
    1C        C  325   4.316   4.113   4.234 -0.0381  0.2012  0.0357
    1C        C  326   4.174   4.270   4.354 -0.5147 -0.2132  0.2205
    1C        C  327   4.277   4.174   4.355 -0.2021  0.1258  0.0159
    1C        C  328   4.130   4.332   4.473  0.2894  0.4162  0.1929
    1C        C  329   4.187   4.288   4.595 -0.2899 -0.4625  0.1498
    1C        C  330   4.016   4.421   4.713  0.3641  0.0154  0.0814
    1C        C  331   4.134   4.343   4.714  0.2112 -0.2130  0.2562
    1C        C  332   3.966   4.481   4.831  0.2419  0.1755 -0.0529
    1C        C  333   4.051   4.473   4.942  0.2281 -0.1547 -0.0662
    1C        C  334   4.550   3.263   2.064 -0.3955 -0.1158  0.0879
    1C        C  335   4.535   3.124   2.063 -0.3372 -0.1198  0.0255
    1C        C  336   4.534   3.349   2.173  0.0740  0.0864 -0.0038
    1C        C  337   4.518   3.278   2.294 -0.4641  0.5488  0.1986
    1C        C  338   4.528   3.497   2.411  0.0151  0.2125  0.0862
    1C        C  339   4.518   3.356   2.412  0.0184  0.2163  0.4156
    1C        C  340   4.529   3.570   2.532 -0.2130  0.6355 -0.1718
    1C        C  341   4.529   3.498   2.653 -0.0257  0.2742 -0.3895
    1C        C  342   4.489   3.708   2.773 -0.4287  0.2831 -0.2558
    1C        C  343   4.521   3.570   2.774 -0.3598  0.3009 -0.4308
    1C        C  344   4.472   3.776   2.895 -0.7409  0.0526 -0.1713
    1C        C  345   4.490   3.713   3.020 -1.0151  0.1212 -0.0987
    1C        C  346   4.429   3.917   3.139  0.5966  0.5320 -0.2054
    1C        C  347   4.481   3.785   3.141 -0.3448  0.1593 -0.0662
    1C        C  348   4.398   3.980   3.261  0.7125  0.3354 -0.0725
    1C        C  349   4.426   3.916   3.384  0.8107  0.0814 -0.2229
    1C        C  350   4.317   4.098   3.500  0.1272 -0.1744  0.4198
    1C        C  351   4.400   3.983   3.506  0.5319  0.0731 -0.2749
    1C        C  352   4.269   4.154   3.620  0.0454  0.2529  0.1943
    1C        C  353   4.322   4.108   3.743  0.3708  0.2953  0.0736
    1C        C  354   4.177   4.265   3.863  0.4961  0.0748 -0.0622
    1C        C  355   4.277   4.165   3.864  0.6243  0.2064  0.2105
    1C        C  356   4.123   4.310   3.985  0.0244  0.0528 -0.2622
    1C        C  357   4.168   4.262   4.109  0.1644  0.5552 -0.1190
    1C        C  358   4.008   4.399   4.230  0.4012  0.4281 -0.1429
    1C        C  359   4.125   4.319   4.231  0.2298  0.1828  0.0803
    1C        C  360   3.950   4.446   4.350 -0.0243  0.0336 -0.1974
    1C        C  361   4.018   4.417   4.471 -0.0309 -0.0185 -0.2075
    1C        C  362   3.826   4.515   4.592  0.1258 -0.4698  0.2388
    1C        C  363   3.954   4.455   4.591 -0.0474 -0.8370  0.0437
    1C        C  364   3.760   4.547   4.712  0.0802 -0.4197  0.1991
    1C        C  365   3.834   4.531   4.832 -0.0219 -0.5130  0.2495
    1C        C  366   3.630   4.593   4.950  0.5415  0.3612  0.0532
    1C        C  367   3.767   4.569   4.949  0.5054  0.1394  0.3420
    1C        C  368   4.505   3.566   2.050  0.3028 -0.0085 -0.4485
    1C        C  369   4.514   3.489   2.167 -0.1625  0.0332 -0.3868
    1C        C  370   4.500   3.703   2.287 -0.1953 -0.3055 -0.4941
    1C        C  371   4.516   3.563   2.287 -0.4396 -0.3320 -0.1590
    1C        C  372   4.478   3.776   2.406 -0.1963 -0.0380 -0.6608
    1C        C  373   4.501   3.709   2.528 -0.5607  0.5597 -0.2585
    1C        C  374   4.422   3.906   2.649  0.3348  0.7362 -0.1436
    1C        C  375   4.479   3.776   2.650 -0.2593  0.4767 -0.1598
    1C        C  376   4.394   3.972   2.771  0.0752  0.5870 -0.1238
    1C        C  377   4.430   3.911   2.893  0.1258  0.3267 -0.2690
    1C        C  378   4.316   4.091   3.014  0.3128  0.4802  0.3934
    1C        C  379   4.398   3.976   3.014 -0.3177  0.0259 -0.2240
    1C        C  380   4.267   4.145   3.135 -0.1134  0.0047  0.4368
    1C        C  381   4.315   4.094   3.257 -0.1054 -0.2404  0.3350
    1C        C  382   4.175   4.256   3.375 -0.6224 -0.8622  0.1529
    1C        C  383   4.270   4.151   3.378  0.6537  0.2591  0.3932
    1C        C  384   4.118   4.301   3.496 -0.0477 -0.0150  0.1159
    1C        C  385   4.174   4.258   3.619  0.4375  0.6185  0.1328
    1C        C  386   4.007   4.390   3.744  0.2067  0.2661  0.2068
    1C        C  387   4.122   4.309   3.740  0.4638  0.6239  0.1452
    1C        C  388   3.944   4.423   3.866 -0.3004 -0.0234  0.0303
    1C        C  389   4.011   4.396   3.987 -0.0037  0.0140 -0.1216
    1C        C  390   3.821   4.495   4.105  0.1427  0.2477  0.2484
    1C        C  391   3.950   4.438   4.107  0.0814  0.0828 -0.1004
    1C        C  392   3.754   4.523   4.226 -0.4365 -0.6074  0.1405
    1C        C  393   3.821   4.504   4.348 -0.5214 -1.0351  0.1207
    1C        C  394   3.619   4.558   4.473  0.2433 -0.1099  0.5155
    1C        C  395   3.759   4.537   4.470  0.2511 -0.0295  0.2501
    1C        C  396   3.546   4.571   4.593 -0.2526  0.1019  0.1945
    1C        C  397   3.621   4.572   4.712  0.1728  0.1044 -0.0703
    1C        C  398   3.413   4.548   4.833  0.3809  0.1618 -0.0083
    1C        C  399   3.551   4.578   4.835  0.5342 -0.5364  0.1697
    1C        C  400   3.339   4.528   4.950  0.1539 -0.3954 -0.2425
    1C        C  401   4.495   3.704   2.051  0.5189  0.0022 -0.0014
    1C        C  402   4.455   3.916   2.165  0.4298  0.4212 -0.0930
    1C        C  403   4.493   3.780   2.169 -0.3030  0.2136 -0.1489
    1C        C  404   4.406   3.975   2.283  0.5956  0.4288 -0.0282
    1C        C  405   4.422   3.906   2.405  0.2871  0.1753 -0.1320
    1C        C  406   4.311   4.086   2.528 -0.1324  0.2045  0.2280
    1C        C  407   4.387   3.967   2.527 -0.0424  0.2650 -0.2716
    1C        C  408   4.269   4.142   2.651 -0.1503  0.3419  0.1588
    1C        C  409   4.316   4.089   2.773  0.3057  0.7371  0.1584
    1C        C  410   4.171   4.248   2.890  0.0868  0.1052 -0.3687
    1C        C  411   4.271   4.149   2.893  0.4304  0.4651  0.3403
    1C        C  412   4.117   4.295   3.011 -0.0282 -0.6538 -0.1185
    1C        C  413   4.174   4.252   3.133 -0.2115 -0.0800  0.1808
    1C        C  414   4.001   4.375   3.255 -0.0050  0.0552 -0.2536
    1C        C  415   4.124   4.305   3.254 -0.0407 -0.0296  0.2347
    1C        C  416   3.941   4.414   3.376  0.2643  0.3293 -0.2027
    1C        C  417   3.999   4.376   3.499  0.0054  0.0892 -0.1487
    1C        C  418   3.811   4.470   3.621  0.0503 -0.5431 -0.1022
    1C        C  419   3.943   4.419   3.622  0.0811 -0.4759  0.0906
    1C        C  420   3.746   4.501   3.742  0.1621 -0.1175 -0.1464
    1C        C  421   3.814   4.479   3.864 -0.0160  0.6619  0.1090
    1C        C  422   3.612   4.545   3.984 -0.1403 -0.1922 -0.2253
    1C        C  423   3.749   4.514   3.985 -0.1666 -0.3341  0.3306
    1C        C  424   3.544   4.556   4.108  0.2800 -0.4339  0.0325
    1C        C  425   3.614   4.547   4.230 -0.4076 -0.4727  0.4356
    1C        C  426   3.404   4.553   4.354  0.0173  0.3434 -0.2838
    1C        C  427   3.545   4.560   4.352  0.0461  0.1044  0.6364
    1C        C  428   3.330   4.548   4.474  0.2065 -0.1644 -0.1841
    1C        C  429   3.405   4.562   4.593 -0.2437 -0.0711  0.0919
    1C        C  430   3.195   4.528   4.717 -0.0875  0.7186 -0.1716
    1C        C  431   3.335   4.551   4.715 -0.0238  0.3704  0.2614
    1C        C  432   3.126   4.499   4.838  0.3349  0.1182 -0.0708
    1C        C  433   3.202   4.507   4.955  0.1010  0.0100  0.0883
    1C        C  434   4.381   4.123   2.049  0.0480  0.0579 -0.3646
    1C        C  435   4.455   4.004   2.056  0.4167  0.2930 -0.1954
    1C        C  436   4.302   4.161   2.162  0.1777 -0.1311 -0.2105
    1C        C  437   4.330   4.096   2.285  0.4466  0.3340 -0.0274
    1C        C  438   4.179   4.248   2.402  0.4526  0.1184 -0.4250
    1C        C  439   4.280   4.150   2.406  0.5140  0.1989  0.0602
    1C        C  440   4.118   4.290   2.522 -0.0667 -0.0444 -0.6281
    1C        C  441   4.173   4.245   2.645  0.0253  0.4739 -0.4773
    1C        C  442   4.004   4.374   2.769  0.2831  0.3252  0.4448
    1C        C  443   4.121   4.295   2.766  0.4697  0.6087 -0.3395
    1C        C  444   3.940   4.409   2.889 -0.3384  0.0081  0.2163
    1C        C  445   3.997   4.370   3.012  0.5764  0.3274 -0.0956
    1C        C  446   3.810   4.471   3.131  0.3551  0.5966 -0.0865
    1C        C  447   3.940   4.414   3.134  0.3424  0.5437 -0.2775
    1C        C  448   3.745   4.492   3.254  0.3301  0.1383 -0.0131
    1C        C  449   3.811   4.471   3.377  0.3449  0.5249  0.0528
    1C        C  450   3.607   4.529   3.498 -0.1146 -0.6030 -0.1968
    1C        C  451   3.744   4.494   3.499  0.0447 -0.0107 -0.0008
    1C        C  452   3.539   4.545   3.621  0.0543  0.3330 -0.2067
    1C        C  453   3.611   4.541   3.743  0.3357  0.5097 -0.3586
    1C        C  454   3.398   4.549   3.866 -0.0156  0.0741  0.1881
    1C        C  455   3.539   4.555   3.863  0.0220 -0.7348 -0.3772
    1C        C  456   3.330   4.541   3.990 -0.3772  0.7804  0.0483
    1C        C  457   3.403   4.552   4.110  0.2284  0.7118 -0.3016
    1C        C  458   3.198   4.500   4.234  0.3224 -0.1541  0.4443
    1C        C  459   3.333   4.540   4.233  0.1417  0.4569 -0.3714
    1C        C  460   3.125   4.489   4.355 -0.1257  0.3675  0.2255
    1C        C  461   3.192   4.519   4.475  0.1766 -0.0175  0.1541
    1C        C  462   3.000   4.435   4.600 -0.0287 -0.0340  0.3568
    1C        C  463   3.123   4.503   4.598 -0.1865  0.2427 -0.0127
    1C        C  464   2.935   4.397   4.720 -0.3201  0.1003  0.2408
    1C        C  465   2.993   4.445   4.840  0.1538  0.5517 -0.1664
    1C        C  466   2.801   4.343   4.956  0.6597 -0.2087 -0.5893
    1C        C  467   2.904   4.438   4.952  0.2790  0.2295 -0.0882
    1C        C  468   4.123   4.287   2.042 -0.0349  0.0158 -0.0897
    1C        C  469   4.190   4.249   2.160  0.3750  0.1182 -0.2869
    1C        C  470   4.007   4.371   2.280 -0.0289 -0.3036  0.3456
    1C        C  471   4.127   4.295   2.279  0.1425 -0.0295 -0.3508
    1C        C  472   3.943   4.408   2.400  0.2471  0.1311  0.3585
    1C        C  473   4.002   4.370   2.522 -0.1346 -0.1278  0.4663
    1C        C  474   3.815   4.465   2.643  0.0715  0.1717 -0.0952
    1C        C  475   3.945   4.409   2.645 -0.0022  0.0078  0.4882
    1C        C  476   3.746   4.488   2.764  0.2503  0.3956 -0.0305
    1C        C  477   3.811   4.467   2.888 -0.6108 -0.5716  0.2902
    1C        C  478   3.605   4.520   3.007 -0.3129  0.5837  0.0900
    1C        C  479   3.744   4.493   3.009 -0.3454  0.3913  0.2456
    1C        C  480   3.536   4.528   3.130 -0.4446  0.3215  0.0397
    1C        C  481   3.607   4.524   3.252  0.3770  0.3417 -0.4255
    1C        C  482   3.398   4.542   3.376  0.2239 -0.0843  0.0554
    1C        C  483   3.539   4.538   3.375  0.2103 -0.6619 -0.3885
    1C        C  484   3.329   4.530   3.498  0.2133  0.5695  0.1224
    1C        C  485   3.398   4.541   3.621  0.0450  0.3870  0.2409
    1C        C  486   3.192   4.502   3.745  0.0094 -0.4203  0.1449
    1C        C  487   3.329   4.538   3.743  0.0120 -0.4148  0.2106
    1C        C  488   3.128   4.481   3.869  0.0393  0.2249  0.2782
    1C        C  489   3.194   4.505   3.991 -0.1518 -0.0900  0.4480
    1C        C  490   3.004   4.413   4.112  0.3478 -0.5909  0.1470
    1C        C  491   3.128   4.480   4.113  0.0770 -0.0889  0.5743
    1C        C  492   2.945   4.379   4.236  0.3744 -0.5495  0.1699
    1C        C  493   2.999   4.426   4.358  0.0120  0.0858  0.0907
    1C        C  494   2.830   4.304   4.479  0.3022 -0.1703  0.0311
    1C        C  495   2.934   4.399   4.481  0.3677 -0.2480  0.2046
    1C        C  496   2.776   4.258   4.602  0.0835  0.1488  0.0520
    1C        C  497   2.819   4.315   4.724 -0.3860  0.1933  0.1943
    1C        C  498   2.665   4.166   4.845  0.0236 -0.7005  0.2506
    1C        C  499   2.753   4.277   4.842 -0.6271 -0.1901 -0.0623
    1C        C  500   2.597   4.121   4.958 -0.0680 -0.1969  0.3949
    1C        C  501   4.000   4.352   2.039 -0.2352 -0.3613 -0.0898
    1C        C  502   3.815   4.459   2.158  0.1879 -0.3524  0.2550
    1C        C  503   3.942   4.399   2.158 -0.0915 -0.9555  0.2224
    1C        C  504   3.745   4.484   2.278 -0.1134 -0.3257  0.0742
    1C        C  505   3.808   4.450   2.400  0.1589 -0.1497 -0.0195
    1C        C  506   3.607   4.512   2.522  0.0176 -0.0210 -0.1532
    1C        C  507   3.744   4.480   2.522 -0.0434 -0.2881 -0.0905
    1C        C  508   3.535   4.521   2.643  0.2969  0.1935  0.0001
    1C        C  509   3.609   4.521   2.764  0.3215  0.7077 -0.0109
    1C        C  510   3.395   4.527   2.887  0.0375  0.3286  0.2736
    1C        C  511   3.536   4.532   2.884  0.0356  0.3295 -0.1402
    1C        C  512   3.327   4.518   3.010 -0.1387  0.2637  0.1782
    1C        C  513   3.395   4.532   3.133 -0.4514  0.0398  0.3839
    1C        C  514   3.189   4.492   3.255 -0.4324 -0.5737 -0.0270
    1C        C  515   3.324   4.531   3.256 -0.3310 -0.9110  0.4579
    1C        C  516   3.125   4.466   3.378 -0.3106  0.2634  0.2189
    1C        C  517   3.192   4.494   3.499  0.2354  0.4664 -0.1262
    1C        C  518   3.006   4.403   3.626  0.5222 -0.1525  0.5942
    1C        C  519   3.127   4.477   3.623  0.2708  0.2374 -0.1374
    1C        C  520   2.945   4.367   3.748  0.4536 -0.4132  0.4811
    1C        C  521   3.006   4.409   3.868  0.2389 -0.1162  0.4873
    1C        C  522   2.846   4.270   3.991 -0.1703 -0.3035  0.1118
    1C        C  523   2.951   4.365   3.990  0.1285 -0.6302  0.2572
    1C        C  524   2.792   4.230   4.115  0.1496 -0.7414  0.1075
    1C        C  525   2.840   4.284   4.237 -0.1195 -0.0137 -0.1088
    1C        C  526   2.702   4.129   4.363 -0.0182  0.1252 -0.0065
    1C        C  527   2.788   4.240   4.360  0.1202  0.0138 -0.0005
    1C        C  528   2.651   4.082   4.487 -0.3883  0.3848 -0.0652
    1C        C  529   2.689   4.147   4.606 -0.0518  0.2527 -0.1060
    1C        C  530   2.588   3.960   4.734  0.5213 -0.2313  0.2703
    1C        C  531   2.642   4.091   4.727  0.4414 -0.2237 -0.1340
    1C        C  532   2.544   3.902   4.856 -0.2206  0.0416  0.1267
    1C        C  533   2.536   3.995   4.964 -0.5436  0.0170  0.1227
    1C        C  534   3.619   4.560   2.046  0.1189 -0.3435 -0.2052
    1C        C  535   3.748   4.505   2.044  0.1632 -0.2585  0.3082
    1C        C  536   3.536   4.543   2.161  0.2713 -0.2508 -0.0833
    1C        C  537   3.607   4.520   2.282 -0.2537 -0.8580  0.1114
    1C        C  538   3.394   4.528   2.401 -0.2980 -0.2168  0.2303
    1C        C  539   3.535   4.532   2.402 -0.2980 -0.1498  0.0144
    1C        C  540   3.321   4.522   2.522 -0.0568 -0.5477  0.3608
    1C        C  541   3.394   4.523   2.643  0.2895 -0.0330  0.1525
    1C        C  542   3.186   4.486   2.767  0.2941 -0.3291 -0.0287
    1C        C  543   3.323   4.520   2.765  0.2968 -0.3149  0.1526
    1C        C  544   3.122   4.460   2.890  0.0271 -0.1432 -0.1241
    1C        C  545   3.191   4.482   3.012 -0.1454  0.2609 -0.0966
    1C        C  546   2.996   4.398   3.135 -0.5144  0.4905  0.2708
    1C        C  547   3.123   4.460   3.134 -0.5969  0.6519 -0.2701
    1C        C  548   2.940   4.359   3.259  0.0261 -0.3899  0.2416
    1C        C  549   2.999   4.403   3.380 -0.0325 -0.2983  0.2361
    1C        C  550   2.841   4.269   3.504  1.0535 -0.5224 -0.0181
    1C        C  551   2.943   4.367   3.505  0.4297  0.1244  0.5636
    1C        C  552   2.784   4.227   3.626  0.4713 -0.2068 -0.1809
    1C        C  553   2.836   4.277   3.748  0.3400 -0.2767 -0.1014
    1C        C  554   2.697   4.118   3.873 -0.0734  0.0951 -0.0898
    1C        C  555   2.793   4.222   3.870  0.0339 -0.0092 -0.0939
    1C        C  556   2.654   4.065   3.997 -0.5495  0.2835 -0.1750
    1C        C  557   2.699   4.124   4.117 -0.3258 -0.3182  0.0379
    1C        C  558   2.598   3.943   4.246 -0.3246 -0.1171 -0.2249
    1C        C  559   2.662   4.069   4.242  0.2592 -0.4061  0.1662
    1C        C  560   2.566   3.884   4.370  0.1524  0.0191 -0.0415
    1C        C  561   2.589   3.955   4.490  0.2612  0.0677 -0.0992
    1C        C  562   2.529   3.754   4.614 -0.7371  0.5478  0.1568
    1C        C  563   2.563   3.891   4.613  0.3688  0.2714  0.0212
    1C        C  564   2.522   3.685   4.737 -0.0340 -0.2104 -0.2277
    1C        C  565   2.527   3.760   4.858  0.0248  0.0086 -0.3709
    1C        C  566   2.537   3.546   4.972 -0.3203  0.6840 -0.5348
    1C        C  567   2.538   3.685   4.976  0.0229  0.6695  0.0468
    1C        C  568   3.330   4.479   2.042  0.3225  0.0608  0.1772
    1C        C  569   3.396   4.520   2.158  0.1561  0.3898  0.1576
    1C        C  570   3.188   4.467   2.283  0.0712 -0.3261  0.1280
    1C        C  571   3.323   4.509   2.280  0.0361 -0.2202  0.0364
    1C        C  572   3.119   4.450   2.405  0.0750 -0.2598  0.1404
    1C        C  573   3.185   4.484   2.526 -0.1646 -0.1778  0.2507
    1C        C  574   2.992   4.397   2.649 -0.4763  0.4209  0.1234
    1C        C  575   3.116   4.463   2.647 -0.2875  0.0802  0.2273
    1C        C  576   2.935   4.357   2.772 -0.1258  0.2192  0.2222
    1C        C  577   3.001   4.388   2.892 -0.2641  0.3518  0.2656
    1C        C  578   2.830   4.263   3.014 -0.1092  0.0907  0.3321
    1C        C  579   2.939   4.353   3.015 -0.3665  0.4049  0.2317
    1C        C  580   2.776   4.222   3.138 -0.6629 -0.0437  0.0460
    1C        C  581   2.831   4.269   3.259  0.0454 -0.4122 -0.1348
    1C        C  582   2.701   4.108   3.387  0.3980 -0.1619  0.0050
    1C        C  583   2.786   4.221   3.383  0.6194 -0.3281  0.1064
    1C        C  584   2.661   4.052   3.511  0.4072 -0.1736 -0.0027
    1C        C  585   2.694   4.119   3.631  0.6844 -0.3688  0.0254
    1C        C  586   2.593   3.932   3.757 -0.1491 -0.0149  0.1479
    1C        C  587   2.653   4.060   3.752  0.2305 -0.2034 -0.0525
    1C        C  588   2.566   3.869   3.881 -0.3456 -0.0461  0.0824
    1C        C  589   2.589   3.940   4.001 -0.3128  0.1686 -0.0558
    1C        C  590   2.535   3.740   4.125  0.0897 -0.2170 -0.0025
    1C        C  591   2.567   3.877   4.125 -0.3373 -0.1227 -0.2118
    1C        C  592   2.524   3.674   4.250  0.0811 -0.0876  0.0584
    1C        C  593   2.537   3.745   4.371 -0.0274  0.0638 -0.0270
    1C        C  594   2.515   3.538   4.495 -0.5624  0.5367 -0.3511
    1C        C  595   2.526   3.679   4.495 -0.4601  0.5219  0.1752
    1C        C  596   2.523   3.468   4.617 -0.4256  0.3267 -0.4891
    1C        C  597   2.522   3.543   4.737 -0.3379 -0.2050 -0.1599
    1C        C  598   2.542   3.328   4.861 -0.2881 -0.0424 -0.5105
    1C        C  599   2.536   3.469   4.856 -0.2985 -0.0312 -0.0624
    1C        C  600   2.532   3.249   4.976 -0.7054 -0.0468 -0.5539
    1C        C  601   3.198   4.438   2.045  0.2907  0.1492  0.0256
    1C        C  602   2.985   4.391   2.161  0.1991 -0.2263 -0.0044
    1C        C  603   3.120   4.438   2.162  0.3110 -0.5434  0.0445
    1C        C  604   2.925   4.356   2.285  0.1676 -0.1600  0.0009
    1C        C  605   2.989   4.395   2.405 -0.1501  0.2676  0.0347
    1C        C  606   2.817   4.274   2.530 -0.0496 -0.0086  0.0183
    1C        C  607   2.927   4.363   2.528 -0.0632  0.0116  0.0133
    1C        C  608   2.768   4.221   2.651 -0.1283  0.0475  0.0132
    1C        C  609   2.824   4.270   2.772 -0.0236  0.0832 -0.0468
    1C        C  610   2.686   4.107   2.896  0.5041 -0.0503 -0.0766
    1C        C  611   2.773   4.218   2.893  0.3857  0.0490  0.1116
    1C        C  612   2.654   4.049   3.021  0.4993 -0.1072 -0.1037
    1C        C  613   2.697   4.105   3.143 -0.2604 -0.3054  0.2598
    1C        C  614   2.584   3.928   3.267 -0.3067 -0.2254  0.1945
    1C        C  615   2.657   4.049   3.266 -0.1810 -0.3026  0.2842
    1C        C  616   2.557   3.866   3.391 -0.0110 -0.1715  0.2857
    1C        C  617   2.584   3.934   3.512  0.1501  0.0004  0.1498
    1C        C  618   2.525   3.732   3.637 -0.6074  0.1817  0.0466
    1C        C  619   2.568   3.867   3.635 -0.1833  0.0460  0.1279
    1C        C  620   2.514   3.665   3.761 -0.7074 -0.0678 -0.1021
    1C        C  621   2.523   3.734   3.883 -0.7332  0.0737 -0.1855
    1C        C  622   2.513   3.524   4.009 -0.6638  0.1343 -0.3848
    1C        C  623   2.523   3.665   4.006 -1.2162  0.1787 -0.1288
    1C        C  624   2.521   3.459   4.134 -0.4444  0.2627 -0.3373
    1C        C  625   2.518   3.533   4.253 -0.5329 -0.0608 -0.1447
    1C        C  626   2.541   3.324   4.376 -0.1482  0.1580 -0.1300
    1C        C  627   2.513   3.462   4.375 -0.4518  0.0902 -0.0622
    1C        C  628   2.564   3.255   4.498 -0.6338 -0.1364 -0.2115
    1C        C  629   2.537   3.328   4.616 -0.5609  0.3212 -0.4819
    1C        C  630   2.600   3.124   4.741  0.3119  0.3713 -0.1283
    1C        C  631   2.562   3.261   4.738  0.1502  0.3125 -0.6316
    1C        C  632   2.617   3.051   4.862 -0.1472  0.0032 -0.2869
    1C        C  633   2.558   3.112   4.977 -0.8055 -0.0636 -0.5872
    1C        C  634   2.787   4.297   2.054  0.3223 -0.1420  0.0293
    1C        C  635   2.895   4.386   2.050  0.2876 -0.1034 -0.0824
    1C        C  636   2.753   4.224   2.168 -0.3475  0.2163  0.0670
    1C        C  637   2.816   4.265   2.288 -0.2937  0.3866 -0.0184
    1C        C  638   2.686   4.103   2.412 -0.0515  0.1880 -0.3518
    1C        C  639   2.763   4.221   2.411 -0.3128  0.3645 -0.0321
    1C        C  640   2.645   4.044   2.533  0.0392  0.1593 -0.3313
    1C        C  641   2.685   4.107   2.652  0.2688 -0.2475 -0.1892
    1C        C  642   2.582   3.921   2.777 -0.2264  0.2286 -0.3241
    1C        C  643   2.645   4.048   2.774  0.5025 -0.1173 -0.0458
    1C        C  644   2.568   3.855   2.901  0.1230  0.3320 -0.2244
    1C        C  645   2.587   3.925   3.022  0.3471 -0.0248 -0.0524
    1C        C  646   2.523   3.726   3.149  0.4117  0.1765 -0.4362
    1C        C  647   2.554   3.864   3.146 -0.6427  0.4340 -0.0778
    1C        C  648   2.514   3.656   3.272 -0.3851  0.1082 -0.5279
    1C        C  649   2.526   3.728   3.393 -0.6709 -0.0363 -0.4146
    1C        C  650   2.505   3.520   3.520 -0.0573  0.4147 -0.2958
    1C        C  651   2.510   3.661   3.516 -0.3781  0.4298 -0.1241
    1C        C  652   2.513   3.452   3.643 -0.6467  0.4007 -0.2679
    1C        C  653   2.514   3.523   3.765 -0.2825 -0.0619 -0.0023
    1C        C  654   2.540   3.313   3.890 -0.3060 -0.1648 -0.0317
    1C        C  655   2.515   3.452   3.887 -0.9936 -0.2930 -0.1335
    1C        C  656   2.561   3.247   4.013 -0.6413  0.0443  0.1343
    1C        C  657   2.545   3.320   4.133  0.2617  0.3857  0.0468
    1C        C  658   2.607   3.121   4.261 -0.0420  0.1978  0.0826
    1C        C  659   2.554   3.251   4.256 -0.3003  0.0798 -0.0895
    1C        C  660   2.635   3.054   4.382 -0.2706  0.2860  0.1791
    1C        C  661   2.605   3.120   4.503 -0.1478  0.0333  0.3416
    1C        C  662   2.715   2.938   4.627  0.3736  0.1055 -0.3440
    1C        C  663   2.631   3.052   4.623 -0.2337 -0.3228  0.1516
    1C        C  664   2.754   2.877   4.748 -0.1106  0.1570 -0.1621
    1C        C  665   2.697   2.933   4.865  0.0581  0.1528 -0.0813
    1C        C  666   2.745   2.875   4.984 -0.2583  0.3053  0.1217
    1C        C  667   2.684   4.021   2.052  0.2947 -0.0243 -0.6297
    1C        C  668   2.686   4.099   2.168  0.6384 -0.3252 -0.4285
    1C        C  669   2.592   3.910   2.293  0.3747 -0.1139  0.1462
    1C        C  670   2.648   4.041   2.291  0.7374 -0.2760 -0.3717
    1C        C  671   2.559   3.846   2.415 -0.5582  0.2445  0.0907
    1C        C  672   2.583   3.917   2.535 -0.6143  0.4709 -0.0275
    1C        C  673   2.517   3.717   2.660 -0.3914  0.0383  0.0842
    1C        C  674   2.555   3.852   2.657 -0.2632  0.0001 -0.1877
    1C        C  675   2.513   3.649   2.784  0.1970  0.0551  0.1173
    1C        C  676   2.528   3.719   2.905 -0.1939  0.4289 -0.0455
    1C        C  677   2.504   3.512   3.028 -0.5363  0.0051 -0.2377
    1C        C  678   2.512   3.653   3.029 -0.1215 -0.0146 -0.2724
    1C        C  679   2.505   3.445   3.152 -0.4741  0.0405 -0.2186
    1C        C  680   2.506   3.515   3.274  0.0610  0.0845 -0.2482
    1C        C  681   2.535   3.309   3.399 -0.5651  0.1458 -0.0833
    1C        C  682   2.510   3.448   3.398 -0.2679  0.1981 -0.1754
    1C        C  683   2.563   3.246   3.522 -0.4181  0.1921 -0.0933
    1C        C  684   2.538   3.313   3.644 -0.2162  0.4798 -0.2131
    1C        C  685   2.612   3.116   3.769  0.0439  0.3509 -0.2672
    1C        C  686   2.557   3.246   3.767  0.3437  0.4772 -0.2991
    1C        C  687   2.641   3.054   3.892  0.2162  0.7629 -0.0988
    1C        C  688   2.612   3.115   4.016  0.1897  0.3622  0.0927
    1C        C  689   2.717   2.936   4.138 -0.3316  0.0810 -0.2217
    1C        C  690   2.642   3.056   4.140 -0.4495 -0.0017  0.0742
    1C        C  691   2.753   2.877   4.261  0.2197  0.2352 -0.3113
    1C        C  692   2.713   2.936   4.383  0.4013  0.7261 -0.4917
    1C        C  693   2.754   2.878   4.505 -0.0762  0.2578 -0.5600
    1C        C  694   2.629   3.892   2.055 -0.3839  0.2645 -0.4125
    1C        C  695   2.530   3.705   2.175  0.9523  0.0522 -0.0081
    1C        C  696   2.577   3.838   2.173  0.3052  0.2846 -0.0897
    1C        C  697   2.521   3.635   2.297  0.6241  0.0534 -0.0289
    1C        C  698   2.522   3.710   2.417  0.3915 -0.0185  0.0191
    1C        C  699   2.488   3.504   2.542  0.4421 -0.0241  0.0909
    1C        C  700   2.498   3.644   2.540  0.2906 -0.0130  0.0037
    1C        C  701   2.496   3.435   2.665 -0.0695 -0.2211  0.0176
    1C        C  702   2.511   3.508   2.785 -0.6631  0.0585 -0.0760
    1C        C  703   2.522   3.298   2.911 -0.4200 -0.0933  0.1052
    1C        C  704   2.512   3.439   2.907 -0.3446 -0.0947 -0.1643
    1C        C  705   2.545   3.234   3.035 -0.1900  0.1843  0.2077
    1C        C  706   2.531   3.306   3.156 -0.0416  0.1333  0.2548
    1C        C  707   2.600   3.107   3.279 -0.6597 -0.3253  0.2861
    1C        C  708   2.548   3.238   3.278 -0.2136 -0.1450  0.1246
    1C        C  709   2.634   3.045   3.402 -0.5463 -0.2183  0.3079
    1C        C  710   2.612   3.113   3.523 -0.2761  0.2463  0.1005
    1C        C  711   2.715   2.931   3.648  0.0470  0.1277  0.0420
    1C        C  712   2.640   3.051   3.647 -0.5188 -0.2298 -0.0855
    1C        C  713   2.761   2.879   3.771  0.2482  0.4291  0.0957
    1C        C  714   2.715   2.934   3.893  0.1650  0.7346 -0.0757
    1C        C  715   2.758   2.879   4.016  0.2909  0.5170 -0.2181
    1C        C  716   2.454   3.500   2.061  0.3962 -0.1881  0.0391
    1C        C  717   2.491   3.636   2.059 -0.0279 -0.0644  0.3786
    1C        C  718   2.474   3.424   2.181  0.8435  0.1586  0.1875
    1C        C  719   2.489   3.497   2.302  0.4432  0.1052  0.2697
    1C        C  720   2.506   3.286   2.426  0.3319 -0.2006  0.2853
    1C        C  721   2.488   3.426   2.424  0.9695 -0.1167  0.1499
    1C        C  722   2.528   3.219   2.549  0.5532 -0.0984  0.3018
    1C        C  723   2.517   3.295   2.667  0.3508 -0.1547  0.3211
    1C        C  724   2.579   3.093   2.790 -0.6420 -0.5232  0.4913
    1C        C  725   2.541   3.229   2.790 -0.4326 -0.4644  0.3119
    1C        C  726   2.623   3.037   2.911  0.5175  0.3245  0.4753
    1C        C  727   2.593   3.101   3.033 -0.0564  0.2305  0.3873
    1C        C  728   2.719   2.933   3.157  0.5863  0.4149  0.0038
    1C        C  729   2.632   3.044   3.157  0.2854  0.1843  0.2604
    1C        C  730   2.759   2.875   3.280  0.6314  0.2130 -0.1054
    1C        C  731   2.714   2.929   3.402  0.6389  0.5632 -0.2521
    1C        C  732   2.762   2.879   3.526  0.4510  0.7893 -0.0872
    1C        C  733   2.488   3.197   2.073 -0.1761 -0.2889  0.1312
    1C        C  734   2.488   3.282   2.185 -0.1905  0.0456 -0.1212
    1C        C  735   2.573   3.082   2.306 -0.2776  0.2284  0.0919
    1C        C  736   2.518   3.213   2.306 -0.5907  0.0975  0.0087
    1C        C  737   2.605   3.016   2.427  0.0848  0.0392 -0.1051
    1C        C  738   2.575   3.086   2.546  0.0502 -0.2765  0.0727
    1C        C  739   2.696   2.914   2.671 -0.3197 -0.1621 -0.0851
    1C        C  740   2.609   3.026   2.669  0.0980  0.1736  0.2819
    1C        C  741   2.746   2.860   2.792  0.0690  0.1684 -0.0933
    1C        C  742   2.704   2.921   2.912  0.2602  0.1362 -0.0086
    1C        C  743   2.755   2.872   3.035  0.2600  0.1935  0.0155
    1C        C  744   2.540   3.068   2.070 -0.7184 -0.5150  0.1655
    1C        C  745   2.683   2.901   2.186  0.4139  0.5410  0.1372
    1C        C  746   2.599   3.014   2.185 -0.4289 -0.0740  0.2291
    1C        C  747   2.726   2.842   2.308  0.7786  0.2379 -0.1338
    1C        C  748   2.687   2.902   2.429  0.1187  0.0582 -0.2478
    1C        C  749   2.736   2.851   2.552 -0.2484 -0.0303 -0.1331
    1C        C  750   2.726   2.838   2.069  0.3928  0.2705  0.2727
    1C        C  751   3.643   2.295   2.007 -0.1755  0.2813 -0.4181
    1C        O  752   3.659   2.191   2.077 -0.0145  0.2103 -0.5625
    1C        O  753   3.722   2.279   1.893  0.6630  0.3333  0.1463
    1C        C  754   4.644   3.046   2.000 -0.0844  0.1766  0.0951
    1C        O  755   4.645   2.990   1.887  0.5063  0.3919 -0.0076
    1C        O  756   4.771   3.048   2.060 -0.1798  0.0782  0.3033
    1C        C  757   4.408   4.205   1.928  0.7381 -0.1561 -0.3600
    1C        O  758   4.484   4.305   1.928  0.7835 -0.1651  1.3723
    1C        O  759   4.352   4.178   1.803 -0.2685  0.2387 -0.0030
    1C        C  760   3.600   4.680   1.961 -0.9281 -0.1658  0.2668
    1C        O  761   3.670   4.782   1.985  0.0563 -0.7125 -0.2052
    1C        O  762   3.597   4.656   1.823 -0.7357  0.0711  0.2220
    1C        C  763   2.877   4.494   1.950  0.1762 -0.2002 -0.1679
    1C        O  764   2.933   4.494   1.837  0.0324  0.3399 -0.2416
    1C        O  765   2.815   4.615   1.980  0.4492 -0.0052 -0.3797
    1C        C  766   2.335   3.478   1.976  0.5451  0.2601 -0.2921
    1C        O  767   2.347   3.444   1.856  0.1290  0.2060 -0.3202
    1C        O  768   2.208   3.513   2.022  0.4599 -0.4659  0.0417
    1C        C  769   4.683   3.573   5.059  0.2003 -0.3282 -0.2588
    1C        O  770   4.671   3.580   5.184  0.3158 -0.3918 -0.2437
    1C        O  771   4.817   3.569   5.019  0.1595  0.0814 -0.4401
    1C        C  772   4.266   4.434   5.053 -0.0947  0.1843  0.3656
    1C        O  773   4.232   4.422   5.174 -0.0329  0.0660  0.3719
    1C        O  774   4.378   4.516   5.034 -0.2382  0.2551 -0.1945
    1C        C  775   4.145   2.510   5.064 -0.2089  0.2249  0.1099
    1C        O  776   4.181   2.398   5.019  0.1575  0.3664  0.0503
    1C        O  777   4.139   2.515   5.204  0.0091  0.1875  0.1207
    1C        C  778   2.861   4.557   5.028  0.1509  0.1111  0.0246
    1C        O  779   2.809   4.659   4.977 -0.3420 -0.2471 -0.1923
    1C        O  780   2.835   4.545   5.165  0.2004  0.3462  0.0554
    1C        C  781   2.457   3.045   5.063 -0.6828 -0.0021 -0.3979
    1C        O  782   2.378   2.951   5.035  0.0706 -0.6426 -0.4123
    1C        O  783   2.481   3.052   5.200 -0.0574  0.5254 -0.5314
    1C        C  784   2.429   3.998   5.066 -0.4343  0.1229  0.2325
    1C        O  785   2.307   3.998   5.034 -0.2780 -0.6939 -0.3957
    1C        O  786   2.466   3.940   5.188  0.6819  0.1807 -0.0705
    1C        C  787   2.956   2.477   1.968 -0.3590  0.4700 -0.4186
    1C        O  788   2.967   2.534   1.857  0.2272  0.4599 -0.3692
    1C        O  789   2.898   2.351   1.956 -0.1478  0.3193  0.0967
    1C        C  790   3.180   2.375   5.055  0.4126 -0.2454 -0.3297
    1C        O  791   3.133   2.268   5.009 -1.1571  0.3134 -0.1111
    1C        O  792   3.251   2.356   5.175 -0.0287  0.3724  0.0373
    1C        H  793   4.282   3.021   5.063 -0.3980 -0.9142  0.4296
    1C        H  794   4.144   2.838   5.056 -2.0386  1.5772 -1.3014
    1C        H  795   4.516   3.120   5.049  1.6043  0.2721 -0.2931
    1C        H  796   4.581   3.350   5.052  0.8627  0.5852 -0.5488
    1C        H  797   4.557   3.818   5.045 -0.0469  0.9033 -1.0287
    1C        H  798   4.404   3.962   5.059 -0.5101  0.5906 -0.0587
    1C        H  799   4.266   4.153   5.051 -2.5682 -1.2352 -1.1083
    1C        H  800   3.996   4.465   5.033  0.8299 -0.1237  0.3057
    1C        H  801   3.823   4.616   5.027 -0.2865 -0.3112  1.2042
    1C        H  802   3.594   4.667   5.019 -0.0896  0.4701 -0.3866
    1C        H  803   3.380   4.540   5.048 -0.5079  0.1144 -0.0253
    1C        H  804   3.150   4.538   5.044 -0.0074 -1.4352  0.5623
    1C        H  805   3.885   2.492   5.068  1.1655 -0.8240  0.1818
    1C        H  806   3.677   2.403   5.047 -0.0488 -0.3725 -0.2513
    1C        H  807   3.016   2.578   5.074  1.1562  0.4372  0.4601
    1C        H  808   3.444   2.453   5.076  1.0932 -3.5846  0.0557
    1C        H  809   2.898   2.766   5.075  2.0558  2.1447 -1.3755
    1C        H  810   2.740   2.933   5.074 -0.5301  0.8001 -0.2084
    1C        H  811   2.544   3.300   5.070  1.5102  0.0437 -0.8301
    1C        H  812   2.515   3.500   5.066 -2.2296 -0.2015 -1.3757
    1C        H  813   2.557   3.735   5.069  0.3503  0.1689  0.2473
    1C        H  814   2.557   4.201   5.017 -0.5134  0.5050 -0.8265
    1C        H  815   2.789   4.294   5.050  0.8045  0.7594 -0.0517
    1C        H  816   2.695   2.874   1.973 -0.6847 -0.4227  0.3373
    1C        H  817   2.843   2.702   1.973  0.4242  0.1406 -0.1619
    1C        H  818   3.201   2.410   2.001  0.3131  1.7350 -0.6588
    1C        H  819   3.439   2.507   1.994  0.0351 -1.2681 -0.8653
    1C        H  820   3.833   2.566   1.981 -1.6094  0.2223  0.6227
    1C        H  821   4.072   2.592   1.974 -1.7846 -0.0321 -0.0412
    1C        H  822   4.231   2.739   1.969 -2.2726  0.0203  0.6539
    1C        H  823   4.395   2.909   1.972 -0.6506  1.7351  0.1943
    1C        H  824   4.588   3.308   1.974 -0.6444 -0.5201 -0.2217
    1C        H  825   4.475   3.516   1.960  0.5844  0.9226 -1.0690
    1C        H  826   4.449   3.744   1.963 -3.6177 -1.9369  1.0486
    1C        H  827   3.788   4.488   1.946 -1.6589  0.0324 -0.5332
    1C        H  828   3.955   4.369   1.944  0.6679  1.0949 -0.2909
    1C        H  829   4.126   4.203   1.976  1.9646  0.6457 -0.8922
    1C        H  830   4.522   3.974   1.978  1.7411 -0.4562  1.1897
    1C        H  831   2.587   3.862   1.962  0.0452 -1.1149 -0.1889
    1C        H  832   2.683   4.067   1.956  0.8874  0.5933 -0.3458
    1C        H  833   2.718   4.302   1.972  0.5955 -1.0373 -0.2657
    1C        H  834   3.375   4.489   1.946  0.2006 -1.1682 -0.0180
    1C        H  835   3.152   4.411   1.952  1.6757  1.4799 -1.0977
    1C        H  836   2.552   3.026   1.973 -0.8385  0.3882 -0.2501
    1C        H  837   2.405   3.215   2.008 -0.1302 -0.1153  0.1187
    1C        H  838   2.443   3.698   1.986 -0.3802  0.4984  1.0800
    2V3OU   H29  839   2.806   3.566   1.943  0.2745  3.2984  1.7144
    2V3OU   C27  840   2.789   3.502   2.034  0.2849  0.0314 -0.4411
    2V3OU   H27  841   2.741   3.573   2.106  0.0002  2.3710 -2.7718
    2V3OU   H28  842   2.734   3.407   2.011  2.7966 -1.1424 -2.2039
    2V3OU   O11  843   2.917   3.477   2.092  0.1934 -0.1502 -0.3197
    2V3OU   C15  844   2.931   3.397   2.204 -0.5298  0.4494  0.2046
    2V3OU   C13  845   3.059   3.373   2.257 -0.2626  0.2461 -0.5334
    2V3OU   C14  846   3.083   3.264   2.342 -0.2359  0.4909 -0.2284
    2V3OU   C16  847   2.982   3.183   2.390 -0.1825  0.1906 -0.6217
    2V3OU    H6  848   2.993   3.104   2.466 -1.0006  0.2612 -0.4146
    2V3OU   C12  849   3.219   3.224   2.386 -0.3325  0.4576  0.0424
    2V3OU    O2  850   3.241   3.120   2.451 -0.0581  0.2438 -0.3866
    2V3OU   C10  851   3.330   3.308   2.340  0.1412 -0.0782  0.1979
    2V3OU    C8  852   3.460   3.274   2.377  0.1067  0.2160  0.5914
    2V3OU   O10  853   3.492   3.157   2.438  0.0910 -0.1219 -0.0373
    2V3OU   H26  854   3.404   3.114   2.441 -0.5034  0.9799 -0.9759
    2V3OU    C6  855   3.569   3.355   2.334 -0.0627  0.1847  0.0919
    2V3OU    C5  856   3.539   3.473   2.267 -0.3672  0.0731  0.0318
    2V3OU    C4  857   3.706   3.296   2.330  0.0264  0.4335 -0.6407
    2V3OU    H4  858   3.721   3.216   2.409 -1.7309 -1.2628 -1.9332
    2V3OU    H5  859   3.711   3.233   2.237  0.6022 -0.3636 -0.0876
    2V3OU    C2  860   3.820   3.398   2.328 -0.1192  0.6091 -0.1293
    2V3OU    O6  861   3.808   3.469   2.452 -0.4042 -0.4357  0.4581
    2V3OU   H21  862   3.764   3.551   2.425 -0.6635 -0.5820  0.4364
    2V3OU    C3  863   3.787   3.494   2.214  0.1847  0.2179 -0.5481
    2V3OU    H2  864   3.865   3.573   2.201  0.6275  0.1249  1.3365
    2V3OU    H3  865   3.779   3.445   2.113 -2.9324  0.8462 -0.7233
    2V3OU   C25  866   3.951   3.321   2.313 -0.4285  0.0566 -0.0459
    2V3OU    O7  867   4.004   3.290   2.206  0.1307  0.6673  0.0437
    2V3OU   C26  868   4.030   3.286   2.438 -0.3227  0.4896  0.0125
    2V3OU   H22  869   4.071   3.379   2.485  1.9375  0.1074 -1.0504
    2V3OU   H23  870   4.120   3.224   2.411 -0.4212  0.2056  0.3267
    2V3OU    O8  871   3.954   3.213   2.531 -0.1643  0.1608 -0.1131
    2V3OU   H24  872   3.920   3.274   2.599 -2.7233 -2.5942  1.3464
    2V3OU    C1  873   3.654   3.564   2.233 -0.0142 -0.3335  0.1219
    2V3OU    H1  874   3.627   3.621   2.139 -1.0315  0.3263  0.7865
    2V3OU    O3  875   3.656   3.652   2.346 -0.4638  0.0200 -0.1403
    2V3OU   C19  876   3.623   3.791   2.340  0.1678  0.1749 -0.1783
    2V3OU    H9  877   3.529   3.797   2.277  0.2655  0.1464 -0.3263
    2V3OU    O4  878   3.720   3.849   2.256  0.3943  0.1683  0.0764
    2V3OU   C20  879   3.850   3.875   2.307  0.2953 -0.1748  0.5027
    2V3OU   H10  880   3.904   3.776   2.317  1.7501  0.3146 -1.8032
    2V3OU   C24  881   3.613   3.859   2.477 -0.0419  0.2112 -0.2115
    2V3OU   H16  882   3.550   3.793   2.543  0.1750 -0.8703 -1.0554
    2V3OU   H17  883   3.564   3.959   2.463  2.1010  1.1945 -1.0644
    2V3OU   C23  884   3.752   3.876   2.540  0.0511 -0.3519 -0.2565
    2V3OU   H15  885   3.796   3.772   2.549  0.6683 -0.4903 -3.6259
    2V3OU    N1  886   3.739   3.957   2.659  0.0882 -0.1432 -0.3939
    2V3OU   H19  887   3.804   3.913   2.721 -0.6811 -1.9118 -0.7752
    2V3OU   H20  888   3.650   3.945   2.704  0.3847 -0.4146  0.1287
    2V3OU   C21  889   3.849   3.948   2.441  0.5758 -0.0827  0.4545
    2V3OU   H11  890   3.952   3.936   2.486  0.9617  0.2674 -0.3243
    2V3OU    O5  891   3.822   4.087   2.446  0.1282 -0.1153 -0.8153
    2V3OU   H18  892   3.784   4.090   2.536  0.9264 -0.9288 -0.4425
    2V3OU   C22  893   3.910   3.954   2.193 -0.4516  0.3388  0.4627
    2V3OU   H12  894   3.857   4.053   2.190 -2.1679 -0.5151  1.5279
    2V3OU   H13  895   3.907   3.899   2.096  0.9678  3.5127 -1.5646
    2V3OU   H14  896   4.021   3.960   2.212 -0.5112 -1.8885  1.8515
    2V3OU   C11  897   3.166   3.473   2.242  0.2696 -0.2529 -0.1503
    2V3OU    O1  898   3.141   3.592   2.213 -0.0537 -0.2465  0.1383
    2V3OU    C9  899   3.304   3.427   2.268  0.2697 -0.1440  0.0435
    2V3OU    C7  900   3.407   3.515   2.234 -0.2377  0.4245 -0.0425
    2V3OU    O9  901   3.389   3.620   2.147  0.7928  0.6218 -0.0192
    2V3OU   H25  902   3.294   3.628   2.130  0.7555 -0.1192 -0.1783
    2V3OU   C17  903   2.831   3.310   2.255  0.0993 -0.7191 -0.5210
    2V3OU    H7  904   2.730   3.348   2.240  0.2547  0.6376  1.5329
    2V3OU   C18  905   2.852   3.210   2.348 -0.5319 -0.2180  0.1707
    2V3OU    H8  906   2.780   3.172   2.422  0.5257  0.2849  1.5054
    3SOL     OW  907   2.420   5.843   6.677  0.3424 -0.0371  0.1097
    3SOL    HW1  908   2.514   5.810   6.673  0.9712  1.3694  2.1656
    3SOL    HW2  909   2.416   5.938   6.647 -0.8371 -0.6662 -2.0151
    4SOL     OW  910   0.125   6.483   2.388 -0.3403  0.2458 -0.0760
    4SOL    HW1  911   0.132   6.521   2.480 -1.4534 -1.4020  0.7365
    4SOL    HW2  912   0.211   6.437   2.364  0.1069  1.0457 -0.0705
    5SOL     OW  913   4.499   2.510   2.751  0.0217 -0.0258  0.7792
    5SOL    HW1  914   4.565   2.491   2.824 -0.5889 -0.0980  1.3226
    5SOL    HW2  915   4.421   2.448   2.759 -0.2304  0.2200  0.2929
    6SOL     OW  916   3.313   0.462   0.895  0.5104 -0.0873 -0.8912
    6SOL    HW1  917   3.298   0.400   0.972  0.8017 -2.1925 -2.4398
    6SOL    HW2  918   3.232   0.519   0.882  1.7900  3.1066  3.2170
    7SOL     OW  919   5.748   2.338   3.978 -0.2130 -0.2275  0.2157
    7SOL    HW1  920   5.723   2.433   3.996 -0.0787 -0.5253  2.1707
    7SOL    HW2  921   5.775   2.294   4.064 -2.4622 -2.6870 -0.2217
    8SOL     OW  922   4.278   0.604   0.405 -0.1581  0.5370 -0.0488
    8SOL    HW1  923   4.218   0.593   0.484 -0.2787  0.2131 -0.1853
    8SOL    HW2  924   4.372   0.615   0.436 -0.3059  1.2244  0.1750
    9SOL     OW  925   5.189   0.179   6.931 -0.6382  0.0942  0.8363
    9SOL    HW1  926   5.226   0.195   6.840 -0.3954  1.2993  1.1268
    9SOL    HW2  927   5.203   0.083   6.956 -1.0586 -0.3419 -0.5346
   10SOL     OW  928   3.152   3.258   0.091 -0.0604 -0.4071  0.2130
   10SOL    HW1  929   3.208   3.261   0.174 -0.4652 -0.7036  0.5032
   10SOL    HW2  930   3.065   3.306   0.109  0.0217 -0.1102 -0.1741
   11SOL     OW  931   1.945   1.137   4.296  0.5420 -0.1380  0.0363
   11SOL    HW1  932   2.001   1.179   4.225  1.0830 -2.1643 -0.7904
   11SOL    HW2  933   1.978   1.166   4.386  1.9304 -0.0908 -0.4719
   12SOL     OW  934   5.809   6.473   4.288  0.4431 -0.3119 -0.3340
   12SOL    HW1  935   5.848   6.536   4.354  0.8476 -2.2556  1.3770
   12SOL    HW2  936   5.882   6.418   4.247 -0.1579 -1.9247  0.6739
   13SOL     OW  937   2.919   6.330   2.194 -0.1672 -0.3186  0.1548
   13SOL    HW1  938   2.866   6.371   2.120  0.5681 -0.4888 -0.4831
   13SOL    HW2  939   2.893   6.372   2.281 -0.3324  0.5958 -0.3220
   14SOL     OW  940   2.280   5.701   4.687 -0.6892 -0.4121 -0.6373
   14SOL    HW1  941   2.231   5.787   4.701  1.3802  1.3841 -3.1847
   14SOL    HW2  942   2.362   5.700   4.744  1.5942  1.5424 -3.5126
   15SOL     OW  943   0.482   6.775   6.867 -0.2915 -0.1723 -0.6808
   15SOL    HW1  944   0.443   6.865   6.850 -2.0111 -0.4367  1.4201
   15SOL    HW2  945   0.410   6.705   6.859  0.4517 -1.0647  0.1640
   16SOL     OW  946   3.965   1.986   0.379  0.6146  0.0292  0.0219
   16SOL    HW1  947   4.037   2.047   0.411  0.0363  0.6170  0.2133
   16SOL    HW2  948   3.942   1.921   0.452  0.5808  0.1848  0.1503
   17SOL     OW  949   5.575   4.416   6.393 -0.6097  0.1012 -0.0199
   17SOL    HW1  950   5.610   4.340   6.448  0.6048  0.0213 -0.8627
   17SOL    HW2  951   5.539   4.381   6.307  0.5046  0.5217 -0.6723
   18SOL     OW  952   4.855   0.831   5.197 -0.3628  0.2166  0.2307
   18SOL    HW1  953   4.861   0.826   5.098  1.5573  1.1529  0.2626
   18SOL    HW2  954   4.820   0.921   5.224  1.2783  0.8345  0.4122
   19SOL     OW  955   0.667   2.284   2.647 -0.3109  0.2297  0.0866
   19SOL    HW1  956   0.580   2.295   2.598 -0.8230 -0.7517  0.7420
   19SOL    HW2  957   0.705   2.374   2.668 -0.7836  0.6648 -0.8742
   20SOL     OW  958   0.143   1.488   3.108 -0.3825  0.0529 -0.1584
   20SOL    HW1  959   0.150   1.552   3.184  0.8741  1.4531 -1.3900
   20SOL    HW2  960   0.228   1.437   3.098 -0.7798 -0.6209 -0.2298
   21SOL     OW  961   3.559   2.819   0.812 -0.7625  0.7265 -0.6517
   21SOL    HW1  962   3.519   2.811   0.904  1.7567  4.0134  0.9305
   21SOL    HW2  963   3.567   2.727   0.772 -0.7889 -1.0493  2.9646
   22SOL     OW  964   3.251   6.577   5.686  0.2240  0.2300 -0.0535
   22SOL    HW1  965   3.244   6.477   5.684  0.8705  0.1223  1.5655
   22SOL    HW2  966   3.227   6.610   5.777 -0.5300  1.6230 -0.7303
   23SOL     OW  967   4.842   6.752   3.541 -0.4742 -0.0483  0.3068
   23SOL    HW1  968   4.808   6.720   3.453 -0.0520  0.6388 -0.1137
   23SOL    HW2  969   4.914   6.691   3.573 -1.3994 -0.9473  0.7304
   24SOL     OW  970   4.334   1.724   2.630 -0.1988  0.1829  0.2501
   24SOL    HW1  971   4.405   1.766   2.686  0.0718 -1.6552  1.3649
   24SOL    HW2  972   4.372   1.700   2.540 -0.2654  1.9127 -0.2721
   25SOL     OW  973   3.439   0.764   5.658  0.0442 -0.1647  0.7868
   25SOL    HW1  974   3.506   0.690   5.651  1.5947  1.2410 -0.1108
   25SOL    HW2  975   3.425   0.804   5.567  0.7110  1.8422  1.5151
   26SOL     OW  976   1.408   0.573   0.708  0.0860 -0.0704  0.1177
   26SOL    HW1  977   1.422   0.589   0.610 -0.7053  0.9468  0.1585
   26SOL    HW2  978   1.366   0.654   0.750  0.6964 -0.3774  1.3648
   27SOL     OW  979   2.231   4.040   2.369 -0.1976  1.0479  0.0883
   27SOL    HW1  980   2.312   4.093   2.394 -0.0723  1.0457 -0.3159
   27SOL    HW2  981   2.175   4.092   2.304 -0.4336  0.9771  0.2322
   28SOL     OW  982   2.576   2.659   5.767 -0.9567 -0.2451  0.1384
   28SOL    HW1  983   2.490   2.689   5.727  0.1495  2.1554 -0.6426
   28SOL    HW2  984   2.600   2.718   5.844  0.1055 -0.7095  0.1878
   29SOL     OW  985   6.033   1.608   1.319 -0.7266  0.1164 -0.0957
   29SOL    HW1  986   6.085   1.523   1.328 -0.8422 -0.1380 -1.5334
   29SOL    HW2  987   5.937   1.587   1.303 -1.0226  0.5582  1.0729
   30SOL     OW  988   4.058   0.827   5.955  0.4257  0.6384 -0.2529
   30SOL    HW1  989   4.097   0.915   5.930 -0.5777  1.6965  1.6395
   30SOL    HW2  990   4.064   0.815   6.054  0.8601 -1.6021 -0.5144
   31SOL     OW  991   0.131   1.524   6.682 -0.2635 -0.4310 -0.2191
   31SOL    HW1  992   0.097   1.572   6.763 -0.3829  0.1376 -0.6032
   31SOL    HW2  993   0.228   1.545   6.668  0.1436 -1.6361  0.5704
   32SOL     OW  994   1.005   1.243   2.321 -0.2604  0.3160 -0.1516
   32SOL    HW1  995   0.970   1.281   2.407  4.5040  1.9509  1.4123
   32SOL    HW2  996   1.040   1.318   2.265  2.0963 -1.1216 -0.7098
   33SOL     OW  997   1.684   4.518   6.201 -0.2754  0.0278  0.3746
   33SOL    HW1  998   1.757   4.580   6.170  0.0787  0.0542  1.2361
   33SOL    HW2  999   1.653   4.547   6.292 -2.0296  0.5878 -0.3766
   34SOL     OW 1000   1.786   0.638   4.787 -0.4718 -0.2597  0.3771
   34SOL    HW1 1001   1.866   0.658   4.730 -0.6729 -0.9569 -0.1601
   34SOL    HW2 1002   1.725   0.717   4.788 -1.4235 -0.8926 -1.9756
   35SOL     OW 1003   5.221   4.101   1.312 -0.6055 -0.3557 -0.1556
   35SOL    HW1 1004   5.215   4.005   1.285  3.3039 -1.6437  2.6796
   35SOL    HW2 1005   5.177   4.113   1.401 -0.9664  0.4988 -0.4405
   36SOL     OW 1006   0.603   1.700   4.727 -0.4782  0.4335 -0.2687
   36SOL    HW1 1007   0.618   1.668   4.634 -0.6726  1.8407 -0.8011
   36SOL    HW2 1008   0.571   1.624   4.784  0.9749 -0.7680 -0.9890
   37SOL     OW 1009   1.464   1.353   1.127  0.0318 -0.1581  0.1869
   37SOL    HW1 1010   1.560   1.332   1.113 -0.2183 -0.4516 -1.2265
   37SOL    HW2 1011   1.449   1.451   1.113  0.0475 -0.1965 -0.1109
   38SOL     OW 1012   0.415   5.157   1.419  0.0642 -0.6593 -0.4207
   38SOL    HW1 1013   0.443   5.060   1.423  0.6589 -0.4634  0.4564
   38SOL    HW2 1014   0.341   5.173   1.484  2.0197  0.0968  1.7532
   39SOL     OW 1015   5.897   4.488   4.778  0.8997 -0.3497  0.7085
   39SOL    HW1 1016   5.849   4.576   4.779  0.8240 -0.3709 -0.1312
   39SOL    HW2 1017   5.832   4.415   4.799  0.8751 -0.2421  1.0075
   40SOL     OW 1018   2.775   1.774   0.377 -0.0062 -0.4376  0.0446
   40SOL    HW1 1019   2.801   1.685   0.416  0.2471 -0.4811 -0.2137
   40SOL    HW2 1020   2.702   1.761   0.309  0.2047 -0.4852 -0.1775
   41SOL     OW 1021   6.589   4.148   4.377 -0.2047 -0.0434  0.6025
   41SOL    HW1 1022   6.666   4.087   4.358 -0.2231 -0.4922  1.9019
   41SOL    HW2 1023   6.572   4.205   4.297  2.2757  0.9334  0.6815
   42SOL     OW 1024   1.687   4.546   6.482  0.4316 -0.7806  0.2767
   42SOL    HW1 1025   1.668   4.455   6.519  0.7751 -1.2176 -0.5893
   42SOL    HW2 1026   1.775   4.545   6.435 -0.4524 -0.5469 -1.4650
   43SOL     OW 1027   0.483   6.396   5.526 -0.7108 -0.3133  0.4407
   43SOL    HW1 1028   0.559   6.334   5.507  0.1806  1.1538 -1.0364
   43SOL    HW2 1029   0.437   6.367   5.610 -0.1871 -2.7803 -0.0466
   44SOL     OW 1030   1.245   1.831   6.410 -0.5096  0.5732  0.2258
   44SOL    HW1 1031   1.193   1.798   6.331 -1.0421  0.0056  0.7945
   44SOL    HW2 1032   1.265   1.928   6.399  1.0522  0.1135 -1.4756
   45SOL     OW 1033   5.869   6.064   2.715 -0.3597 -0.0975 -0.2358
   45SOL    HW1 1034   5.866   6.085   2.617  0.7446 -1.9461 -0.7115
   45SOL    HW2 1035   5.959   6.086   2.751 -0.7976  0.6835  0.4137
   46SOL     OW 1036   6.680   2.880   3.215  0.3114 -0.0256 -0.1512
   46SOL    HW1 1037   6.761   2.866   3.157  1.0206  1.4506  0.4236
   46SOL    HW2 1038   6.679   2.811   3.288  1.3029  0.1868  0.0820
   47SOL     OW 1039   5.155   3.410   0.561  0.0123  0.2893 -0.2851
   47SOL    HW1 1040   5.203   3.497   0.553 -1.0597  0.8708 -0.6752
   47SOL    HW2 1041   5.219   3.335   0.542  0.9244  0.9882 -0.0520
   48SOL     OW 1042   6.341   4.091   5.269 -0.2204  0.1220 -0.3128
   48SOL    HW1 1043   6.245   4.076   5.295 -0.4680  1.8178 -0.0954
   48SOL    HW2 1044   6.362   4.040   5.186 -0.8474 -1.5100  0.5022
   49SOL     OW 1045   5.951   3.067   3.531  0.0105  0.7142  0.0054
   49SOL    HW1 1046   5.896   3.007   3.473  0.2820  1.4850 -1.0733
   49SOL    HW2 1047   5.898   3.149   3.554  0.2426  0.8518  0.0518
   50SOL     OW 1048   6.394   1.151   4.824  0.1838  0.3836  0.1140
   50SOL    HW1 1049   6.361   1.157   4.730  0.1767  1.6628  0.1745
   50SOL    HW2 1050   6.464   1.081   4.831 -1.4725 -1.4203 -0.3264
   51SOL     OW 1051   2.121   1.819   3.194 -0.1091  0.0482  0.2107
   51SOL    HW1 1052   2.160   1.911   3.200  1.3265 -0.3902 -1.4126
   51SOL    HW2 1053   2.173   1.757   3.253  0.0531 -0.0632 -0.0500
   52SOL     OW 1054   5.895   3.114   3.187 -0.3086 -0.1362  0.8058
   52SOL    HW1 1055   5.956   3.139   3.112 -0.2620  0.0051  0.8884
   52SOL    HW2 1056   5.918   3.023   3.221  0.4324  0.2618  1.4052
   53SOL     OW 1057   4.586   5.986   3.720  0.1401 -0.0845 -0.3258
   53SOL    HW1 1058   4.629   5.909   3.768  1.1033  1.1210  0.8305
   53SOL    HW2 1059   4.494   5.960   3.690  0.3107 -1.5553  0.3525
   54SOL     OW 1060   2.630   4.503   0.807  0.5024  0.2639  0.2387
   54SOL    HW1 1061   2.646   4.517   0.709 -0.2644 -0.5749 -0.0205
   54SOL    HW2 1062   2.536   4.528   0.829  0.3768 -0.4523  0.5617
   55SOL     OW 1063   2.269   3.598   5.520 -0.2908  0.0039 -0.4273
   55SOL    HW1 1064   2.274   3.646   5.432 -1.6701 -0.8068 -0.9689
   55SOL    HW2 1065   2.177   3.564   5.535  0.5290 -2.1770  0.1098
   56SOL     OW 1066   6.477   5.681   1.202 -0.2230  0.3027  0.6509
   56SOL    HW1 1067   6.570   5.646   1.188 -0.6518 -0.3456 -0.6660
   56SOL    HW2 1068   6.476   5.779   1.185  0.1629  0.2586  0.3568
   57SOL     OW 1069   4.551   6.625   0.929 -0.0776  0.2771 -0.0615
   57SOL    HW1 1070   4.518   6.568   1.004  1.1016  1.1612  1.1806
   57SOL    HW2 1071   4.523   6.719   0.944 -1.0415  0.2457 -1.5039
   58SOL     OW 1072   1.699   5.095   5.086 -0.2529 -0.0694 -0.0522
   58SOL    HW1 1073   1.632   5.169   5.087  0.4861  0.8319  4.0943
   58SOL    HW2 1074   1.662   5.016   5.134  1.1467  0.0641  1.3632
   59SOL     OW 1075   0.828   3.500   4.480 -0.4989 -0.0312  0.4299
   59SOL    HW1 1076   0.807   3.577   4.541 -1.6098  0.0887 -0.0865
   59SOL    HW2 1077   0.868   3.425   4.533 -1.1172  0.2063  1.2456
   60SOL     OW 1078   4.947   3.026   4.055 -0.0967  0.0058 -0.2052
   60SOL    HW1 1079   5.037   3.056   4.024 -0.4817  0.6840 -0.6911
   60SOL    HW2 1080   4.952   2.998   4.151  0.1886  2.1990  0.4885
   61SOL     OW 1081   6.790   1.442   5.566  0.8010  0.2712 -0.4454
   61SOL    HW1 1082   6.757   1.494   5.645  0.9413  1.5978 -1.2288
   61SOL    HW2 1083   6.771   1.345   5.580 -1.6469  0.7525  0.0268
   62SOL     OW 1084   1.880   1.883   1.051  0.4008 -0.0335 -0.1758
   62SOL    HW1 1085   1.902   1.942   0.973  1.2100  0.2581  0.2667
   62SOL    HW2 1086   1.939   1.802   1.049 -1.4793 -1.4789 -1.4484
   63SOL     OW 1087   1.132   0.512   4.678 -0.7405 -0.0996 -0.2042
   63SOL    HW1 1088   1.048   0.557   4.648 -1.0872 -0.7664 -0.2561
   63SOL    HW2 1089   1.116   0.414   4.688 -0.6461  0.0444  2.0777
   64SOL     OW 1090   4.889   4.703   6.320  0.4224  0.3803  0.1691
   64SOL    HW1 1091   4.860   4.797   6.337  1.9856  0.7278  1.1687
   64SOL    HW2 1092   4.956   4.702   6.246  0.0550 -0.0203 -0.1620
   65SOL     OW 1093   6.046   5.027   6.124  0.5786 -0.1191  0.1186
   65SOL    HW1 1094   6.109   5.000   6.196  1.0230 -0.8802 -0.5338
   65SOL    HW2 1095   6.097   5.043   6.039  0.0272  0.4482 -0.1180
   66SOL     OW 1096   4.484   5.728   5.888 -0.1515  0.9614 -0.4764
   66SOL    HW1 1097   4.461   5.791   5.814  0.0131  1.8998  0.2425
   66SOL    HW2 1098   4.427   5.647   5.883 -1.2540  1.7323 -0.6989
   67SOL     OW 1099   4.814   4.785   5.287  0.1723  0.6593  0.0619
   67SOL    HW1 1100   4.872   4.738   5.354  0.4065  1.0130  0.1086
   67SOL    HW2 1101   4.742   4.723   5.257  1.3880 -0.2654 -1.0420
   68SOL     OW 1102   5.372   0.269   1.054 -0.1466  0.2676 -0.2618
   68SOL    HW1 1103   5.427   0.280   1.138 -0.8239 -0.3911  0.2788
   68SOL    HW2 1104   5.416   0.202   0.994  0.4033  0.8268 -0.5029
   69SOL     OW 1105   0.268   2.465   6.950  0.0152 -0.5276 -0.0617
   69SOL    HW1 1106   0.197   2.533   6.962  0.0663 -0.7715  2.0665
   69SOL    HW2 1107   0.259   2.422   6.860 -0.8978  1.2371 -0.8572
   70SOL     OW 1108   6.065   4.453   3.839 -0.2059  0.1825  0.4468
   70SOL    HW1 1109   6.007   4.466   3.759 -0.8357 -0.0472  0.8554
   70SOL    HW2 1110   6.041   4.367   3.884  0.7025 -0.0908  0.4244
   71SOL     OW 1111   4.393   0.754   2.377 -0.3726 -0.3901  0.2274
   71SOL    HW1 1112   4.404   0.763   2.278  1.0875 -2.4561  0.1302
   71SOL    HW2 1113   4.451   0.821   2.423 -0.8697  0.4170 -0.2960
   72SOL     OW 1114   3.129   6.527   3.589  0.1581  0.1715  0.2810
   72SOL    HW1 1115   3.220   6.493   3.565 -0.1971 -1.4772  1.1737
   72SOL    HW2 1116   3.070   6.451   3.616 -1.4034  1.2440  0.0607
   73SOL     OW 1117   2.718   0.445   0.711  0.1447 -0.1872 -0.2357
   73SOL    HW1 1118   2.700   0.543   0.721 -3.2270 -0.6421 -0.9116
   73SOL    HW2 1119   2.649   0.393   0.761  1.6804 -2.2792 -0.1615
   74SOL     OW 1120   4.880   5.153   0.918 -0.2901 -0.2134 -0.1923
   74SOL    HW1 1121   4.810   5.191   0.858 -0.8837  1.6542  1.5748
   74SOL    HW2 1122   4.839   5.128   1.005  0.8184 -1.5024 -0.0051
   75SOL     OW 1123   4.226   0.095   0.113 -0.0459 -0.2252  0.1358
   75SOL    HW1 1124   4.143   0.137   0.150 -1.3536 -1.3742 -1.2823
   75SOL    HW2 1125   4.306   0.150   0.136 -1.3652  1.6612  0.4281
   76SOL     OW 1126   4.678   3.687   1.159  0.5274  0.4669  0.2711
   76SOL    HW1 1127   4.708   3.634   1.080 -1.9306  0.7009 -0.9259
   76SOL    HW2 1128   4.589   3.653   1.191  0.0859  2.2251  1.0572
   77SOL     OW 1129   1.238   1.186   3.416 -0.3432 -0.6132 -0.3021
   77SOL    HW1 1130   1.166   1.143   3.362 -0.6602 -0.5031  0.0336
   77SOL    HW2 1131   1.304   1.116   3.445 -0.5133 -0.7717 -0.2957
   78SOL     OW 1132   4.675   1.791   2.379 -0.2229  0.4755  0.1157
   78SOL    HW1 1133   4.684   1.848   2.297 -1.3798  0.1956 -0.2176
   78SOL    HW2 1134   4.701   1.845   2.460  2.2677  0.3579 -0.5182
   79SOL     OW 1135   2.456   4.576   0.182 -0.1387 -0.0821  0.1420
   79SOL    HW1 1136   2.435   4.573   0.279 -2.5177 -1.0786 -0.3337
   79SOL    HW2 1137   2.393   4.639   0.136 -1.4545 -2.2233 -1.1968
   80SOL     OW 1138   3.319   0.840   3.834 -0.2036 -0.3513 -0.1738
   80SOL    HW1 1139   3.263   0.920   3.812 -4.2536 -2.3928  1.7600
   80SOL    HW2 1140   3.365   0.854   3.921 -0.2831  0.1317 -0.2087
   81SOL     OW 1141   3.935   6.766   2.287 -0.0114 -0.0067  0.4108
   81SOL    HW1 1142   3.906   6.852   2.329 -0.0472 -0.5273  1.4943
   81SOL    HW2 1143   4.034   6.768   2.272 -0.1351  0.5645 -0.4237
   82SOL     OW 1144   4.787   4.297   1.769  0.2597  0.4475 -0.1093
   82SOL    HW1 1145   4.745   4.364   1.708  1.1926  1.2817  0.1395
   82SOL    HW2 1146   4.733   4.291   1.853 -0.0647  0.5869 -0.3062
   83SOL     OW 1147   2.010   0.682   0.277 -0.3288  0.5459 -0.1370
   83SOL    HW1 1148   2.001   0.706   0.180 -1.4791 -1.1668 -0.5014
   83SOL    HW2 1149   2.091   0.625   0.289 -0.3691  0.4818 -0.1651
   84SOL     OW 1150   5.311   3.918   2.736  0.3460  0.5426 -0.2293
   84SOL    HW1 1151   5.401   3.920   2.781 -0.2931 -0.6782  1.1835
   84SOL    HW2 1152   5.283   3.823   2.722 -0.8709  0.9048 -0.3595
   85SOL     OW 1153   3.703   0.926   2.172 -0.2008 -0.3199  0.3929
   85SOL    HW1 1154   3.611   0.890   2.153 -0.2246  0.3791 -0.8822
   85SOL    HW2 1155   3.759   0.853   2.211 -0.6743 -1.3447 -0.7761
   86SOL     OW 1156   0.167   2.902   5.107  0.5178  0.1335 -0.3701
   86SOL    HW1 1157   0.161   2.865   5.014  0.6030 -0.5150 -0.1258
   86SOL    HW2 1158   0.115   2.987   5.112  1.5915  0.8738 -1.3411
   87SOL     OW 1159   3.707   5.278   1.467  0.2679  0.2836  0.0084
   87SOL    HW1 1160   3.614   5.263   1.434  0.4603 -1.3111  0.0849
   87SOL    HW2 1161   3.749   5.353   1.416 -1.1820  1.3324  0.2821
   88SOL     OW 1162   4.250   1.115   6.154 -0.3730 -0.1847 -0.2837
   88SOL    HW1 1163   4.184   1.103   6.228  0.8774 -0.6527  0.7954
   88SOL    HW2 1164   4.242   1.039   6.089 -0.0956 -0.9033  0.4997
   89SOL     OW 1165   2.172   2.706   6.871  0.3497  0.2726  0.1756
   89SOL    HW1 1166   2.094   2.657   6.911 -0.5515  1.9977  0.6154
   89SOL    HW2 1167   2.253   2.689   6.927  0.0988 -0.8244  0.2297
   90SOL     OW 1168   3.380   5.580   2.332 -0.4741 -0.0756 -0.4579
   90SOL    HW1 1169   3.324   5.567   2.250 -0.8351 -0.1058 -0.2106
   90SOL    HW2 1170   3.430   5.666   2.326  0.0990 -0.4425 -1.0558
   91SOL     OW 1171   5.126   4.198   4.828  0.1267 -0.5753 -0.0927
   91SOL    HW1 1172   5.183   4.170   4.905 -0.5918 -0.5221  0.4702
   91SOL    HW2 1173   5.107   4.296   4.835 -0.7705 -0.7612  0.2326
   92SOL     OW 1174   4.355   3.618   0.634 -0.2723  0.2808  0.2968
   92SOL    HW1 1175   4.449   3.650   0.623  0.2626 -1.4737 -0.5051
   92SOL    HW2 1176   4.317   3.656   0.719  1.5733  0.0461  1.2743
   93SOL     OW 1177   2.921   3.321   0.965 -0.2927  0.0559 -0.1259
   93SOL    HW1 1178   3.016   3.325   0.997 -0.5350  0.1495  0.6028
   93SOL    HW2 1179   2.871   3.251   1.016 -0.4014 -0.6101 -1.1185
   94SOL     OW 1180   0.037   6.032   4.523 -0.3113 -0.1556  0.1523
   94SOL    HW1 1181  -0.046   6.087   4.532 -0.0421  0.6307 -1.5984
   94SOL    HW2 1182   0.014   5.936   4.532 -1.4228  0.0531 -0.2706
   95SOL     OW 1183   0.770   0.441   5.477 -0.4302  0.2764 -0.0008
   95SOL    HW1 1184   0.701   0.397   5.533 -0.5159 -1.1105 -1.1495
   95SOL    HW2 1185   0.852   0.457   5.532 -1.2054  0.7838  1.0301
   96SOL     OW 1186   2.261   0.542   5.385 -0.0434 -0.9093 -0.1098
   96SOL    HW1 1187   2.320   0.618   5.356 -1.1937  0.4987  1.0517
   96SOL    HW2 1188   2.271   0.527   5.483 -1.0426 -1.1529 -0.0322
   97SOL     OW 1189   2.026   3.577   6.694 -0.9559  0.3294  0.0365
   97SOL    HW1 1190   1.938   3.552   6.734 -0.8530 -0.4497 -0.2137
   97SOL    HW2 1191   2.022   3.565   6.594 -0.5974  0.3924  0.0138
   98SOL     OW 1192   1.517   4.106   0.719 -0.6107 -0.0963  0.0548
   98SOL    HW1 1193   1.505   4.035   0.650  0.6323 -0.4036  0.1328
   98SOL    HW2 1194   1.515   4.065   0.811 -2.7517  0.3722  0.2744
   99SOL     OW 1195   4.069   1.719   1.832  0.1027  0.7961  0.1423
   99SOL    HW1 1196   4.070   1.806   1.882  1.6282  1.2188 -0.5744
   99SOL    HW2 1197   4.072   1.643   1.897  1.6083  1.3303  0.7523
  100SOL     OW 1198   5.894   4.777   4.353  0.5878  0.1030 -0.5119
  100SOL    HW1 1199   5.951   4.859   4.344 -0.2176  0.7795  0.3549
  100SOL    HW2 1200   5.816   4.797   4.412 -0.8565 -0.6679 -2.0915
  101SOL     OW 1201   1.035   5.221   2.339  0.2997 -0.2820  0.3486
  101SOL    HW1 1202   1.015   5.153   2.268  0.1379  0.0208  0.1007
  101SOL    HW2 1203   1.028   5.178   2.429  2.6122 -1.2245  0.1452
  102SOL     OW 1204   4.601   5.912   1.441 -0.1866 -0.7277 -0.5117
  102SOL    HW1 1205   4.652   5.826   1.430  0.7636 -0.0815 -1.3009
  102SOL    HW2 1206   4.652   5.973   1.501  0.1425  0.0530 -1.5708
  103SOL     OW 1207   1.115   0.369   2.161 -0.4690  0.0704  0.4157
  103SOL    HW1 1208   1.180   0.360   2.237 -1.8064  0.2820  1.6274
  103SOL    HW2 1209   1.043   0.434   2.187 -1.5247 -0.6604 -0.6284
  104SOL     OW 1210   2.499   5.059   3.297 -0.4193  0.1737 -0.7099
  104SOL    HW1 1211   2.473   5.050   3.201 -2.4698  1.3528 -0.3109
  104SOL    HW2 1212   2.561   5.137   3.308 -1.5833  1.1518 -0.8715
  105SOL     OW 1213   6.577   1.876   6.382  0.5919 -0.6076  0.7358
  105SOL    HW1 1214   6.508   1.944   6.408 -0.3926 -0.7192 -1.3523
  105SOL    HW2 1215   6.535   1.785   6.383 -0.1582 -0.4621 -2.8393
  106SOL     OW 1216   4.939   5.070   3.269  0.0270  0.5642  0.0222
  106SOL    HW1 1217   4.863   5.124   3.304 -0.6813  0.0161 -0.6345
  106SOL    HW2 1218   4.904   4.994   3.215  1.0553  0.5213 -0.6161
  107SOL     OW 1219   0.019   6.785   0.353 -0.9046 -0.0914 -0.7206
  107SOL    HW1 1220   0.014   6.849   0.429 -0.3537  0.6874 -1.3269
  107SOL    HW2 1221   0.019   6.835   0.266 -0.6244 -0.9180 -1.2136
  108SOL     OW 1222   1.795   6.398   4.096 -0.2611 -0.0292  0.1252
  108SOL    HW1 1223   1.835   6.306   4.088  2.7280  1.0882  0.8907
  108SOL    HW2 1224   1.834   6.457   4.026 -1.5015  0.9014  0.1896
  109SOL     OW 1225   2.009   6.892   3.465 -0.1214  0.1211  0.0124
  109SOL    HW1 1226   1.986   6.917   3.371  0.0968  2.9338  0.6349
  109SOL    HW2 1227   1.924   6.876   3.517 -0.2384 -1.7175 -0.6569
  110SOL     OW 1228   1.912   5.918   4.765 -0.1275 -0.1983  0.2209
  110SOL    HW1 1229   1.909   5.913   4.865  1.8470  3.4404  0.6313
  110SOL    HW2 1230   1.821   5.943   4.730 -0.2749  0.9795  1.3785
  111SOL     OW 1231   0.778   0.319   0.073 -0.3986 -0.3355 -0.4758
  111SOL    HW1 1232   0.754   0.377   0.150 -0.9224 -1.5577  0.3138
  111SOL    HW2 1233   0.878   0.316   0.063 -0.3689  0.6844 -0.5377
  112SOL     OW 1234   3.191   1.414   6.374  0.7240 -0.0160 -0.2312
  112SOL    HW1 1235   3.143   1.484   6.321  1.0552 -0.9038 -1.7627
  112SOL    HW2 1236   3.125   1.349   6.410  0.6044 -0.3164 -0.9595
  113SOL     OW 1237   0.148   5.130   3.790  0.4240 -0.0430 -0.3866
  113SOL    HW1 1238   0.176   5.034   3.788  1.6474  0.3009 -0.3858
  113SOL    HW2 1239   0.150   5.164   3.884 -2.1952 -0.6074 -0.0597
  114SOL     OW 1240   1.699   5.802   1.363 -0.1231 -0.0217  0.5504
  114SOL    HW1 1241   1.627   5.867   1.386 -0.2065 -0.1639  0.6873
  114SOL    HW2 1242   1.772   5.808   1.430  0.4128  0.7648 -0.0813
  115SOL     OW 1243   5.477   1.353   4.872 -0.3627  0.5880  0.2780
  115SOL    HW1 1244   5.562   1.307   4.897 -1.0445 -0.3114  0.9829
  115SOL    HW2 1245   5.479   1.377   4.775  0.4285 -0.0159  0.1397
  116SOL     OW 1246   4.692   6.855   1.844 -0.4069 -0.2150  0.3229
  116SOL    HW1 1247   4.605   6.895   1.871 -0.2505  1.2303 -1.1099
  116SOL    HW2 1248   4.676   6.773   1.789 -0.7984 -0.8394  1.3482
  117SOL     OW 1249   2.437   1.833   5.932  0.5755  0.3006  0.3772
  117SOL    HW1 1250   2.507   1.871   5.871 -1.7371  1.6481 -1.6454
  117SOL    HW2 1251   2.466   1.744   5.966  2.1788 -0.3650 -2.4581
  118SOL     OW 1252   3.000   1.733   2.809 -0.5829 -0.6103 -0.3619
  118SOL    HW1 1253   2.950   1.652   2.839 -0.2069 -0.7785 -0.1829
  118SOL    HW2 1254   3.065   1.761   2.880  0.1458 -0.8674 -0.9189
  119SOL     OW 1255   2.555   0.567   5.827  0.1956  0.1412 -0.3688
  119SOL    HW1 1256   2.577   0.661   5.852 -3.1223  1.0393 -0.3705
  119SOL    HW2 1257   2.589   0.505   5.898 -0.4600  1.7046  1.3824
  120SOL     OW 1258   4.905   0.012   0.560  0.1591  0.2047  0.0934
  120SOL    HW1 1259   4.816  -0.024   0.531 -0.0492  0.6444  0.1930
  120SOL    HW2 1260   4.909   0.110   0.544  0.2654  0.3533  1.0197
  121SOL     OW 1261   1.365   3.057   6.180  0.1870 -0.1246 -0.3486
  121SOL    HW1 1262   1.420   3.089   6.256  0.3224  0.1010 -0.5398
  121SOL    HW2 1263   1.409   3.083   6.094 -0.6242  0.8037 -0.5099
  122SOL     OW 1264   2.557   2.778   6.799  0.5267 -0.0542 -0.4290
  122SOL    HW1 1265   2.603   2.866   6.795  0.9864 -0.2229  0.8209
  122SOL    HW2 1266   2.543   2.744   6.706 -0.4733  1.7286 -0.9794
  123SOL     OW 1267   0.371   1.165   3.436  0.2405  0.3602 -0.5330
  123SOL    HW1 1268   0.420   1.238   3.483  1.2281  0.9127 -2.3278
  123SOL    HW2 1269   0.290   1.203   3.392  0.3340  0.2267 -0.8225
  124SOL     OW 1270   3.308   1.359   1.366  0.3856 -0.0099 -0.2554
  124SOL    HW1 1271   3.368   1.430   1.328  1.1126  0.4948  1.7021
  124SOL    HW2 1272   3.226   1.401   1.403  0.5358 -0.2414  0.3591
  125SOL     OW 1273   2.232   3.512   0.745 -0.7041  0.3612  0.5173
  125SOL    HW1 1274   2.176   3.504   0.662 -0.1936 -0.1069  0.2129
  125SOL    HW2 1275   2.212   3.599   0.790  1.4128  2.2497 -1.9003
  126SOL     OW 1276   3.495   3.274   1.637  0.5406 -0.9713  0.5255
  126SOL    HW1 1277   3.567   3.239   1.696  1.7914  0.1277 -0.2763
  126SOL    HW2 1278   3.413   3.295   1.691 -0.0789 -4.3940  1.1274
  127SOL     OW 1279   0.372   5.412   5.426  0.4952 -0.5216  0.2811
  127SOL    HW1 1280   0.315   5.405   5.508  1.2520 -1.0231  0.7806
  127SOL    HW2 1281   0.315   5.397   5.345 -0.4085  0.7303  0.6576
  128SOL     OW 1282   3.327   0.374   1.185  0.2388 -0.1018  0.0457
  128SOL    HW1 1283   3.410   0.319   1.193 -0.9800 -1.8131  1.4678
  128SOL    HW2 1284   3.329   0.448   1.252  0.4746 -0.3294  0.2881
  129SOL     OW 1285   2.935   2.866   5.956  0.3188 -0.2983  0.0343
  129SOL    HW1 1286   2.969   2.897   5.867  0.8014 -1.4385 -0.1965
  129SOL    HW2 1287   3.012   2.829   6.009 -0.1247 -0.4844  0.5512
  130SOL     OW 1288   0.937   1.705   0.281  0.0918 -0.3159 -0.0917
  130SOL    HW1 1289   0.947   1.744   0.190  0.1098  0.0231  0.0541
  130SOL    HW2 1290   0.963   1.773   0.350  1.1428 -0.9280  0.1400
  131SOL     OW 1291   3.595   0.197   4.000  0.0729 -0.3194 -0.2686
  131SOL    HW1 1292   3.509   0.236   4.034 -1.0680 -3.5080  0.8171
  131SOL    HW2 1293   3.668   0.213   4.066 -0.9280 -1.9205  1.3078
  132SOL     OW 1294   2.780   2.948   1.702 -0.5671 -0.3126  0.0957
  132SOL    HW1 1295   2.794   2.854   1.670 -0.2275 -0.2381  0.0173
  132SOL    HW2 1296   2.866   2.983   1.739 -0.7733 -0.1385  0.4050
  133SOL     OW 1297   5.893   0.455   5.162 -0.4334  0.6154  0.0035
  133SOL    HW1 1298   5.900   0.546   5.203  2.2876  0.0215  1.0407
  133SOL    HW2 1299   5.934   0.456   5.071 -2.0827  0.7943 -0.7784
  134SOL     OW 1300   0.069   0.136   2.728 -0.1925  0.2202  0.2495
  134SOL    HW1 1301   0.015   0.202   2.780 -1.8042 -0.3402 -0.6612
  134SOL    HW2 1302   0.092   0.175   2.639  0.0402  0.0545  0.2337
  135SOL     OW 1303   5.777   3.218   3.736 -0.4659 -0.2772  0.2237
  135SOL    HW1 1304   5.736   3.139   3.690 -0.9847  0.3239 -0.3846
  135SOL    HW2 1305   5.746   3.302   3.690 -0.6776  0.3251  1.4393
  136SOL     OW 1306   1.645   4.265   6.498  0.3148 -0.8047 -0.5521
  136SOL    HW1 1307   1.572   4.259   6.429 -0.5124  1.4503  0.0445
  136SOL    HW2 1308   1.722   4.208   6.469  0.1455  0.2992 -3.5677
  137SOL     OW 1309   6.586   3.087   2.942  0.5488  0.0174 -0.0028
  137SOL    HW1 1310   6.619   3.048   2.856  1.1675  0.0125  0.2298
  137SOL    HW2 1311   6.644   3.164   2.968  0.9574 -0.5719  0.8885
  138SOL     OW 1312   1.461   5.023   1.600 -0.2773 -0.0691  0.1528
  138SOL    HW1 1313   1.468   4.996   1.696 -0.0076  1.8602  0.7100
  138SOL    HW2 1314   1.475   5.122   1.591  1.3422 -0.3945 -2.0429
  139SOL     OW 1315   2.837   2.309   5.994  0.1666 -0.0366  0.2080
  139SOL    HW1 1316   2.914   2.359   6.034 -0.7185  2.2239 -0.7143
  139SOL    HW2 1317   2.870   2.226   5.950  1.5880 -0.8637  2.6540
  140SOL     OW 1318   2.135   6.041   3.791  0.7027 -0.4280  0.2006
  140SOL    HW1 1319   2.039   6.027   3.766  0.5366  0.4289  0.3167
  140SOL    HW2 1320   2.183   6.085   3.715  0.5920  0.6720  0.7456
  141SOL     OW 1321   0.001   2.900   7.009  0.1160 -0.0903 -0.2479
  141SOL    HW1 1322   0.053   2.942   6.935  0.5555  1.3782  0.8470
  141SOL    HW2 1323   0.014   2.953   7.093 -0.7931 -1.4039  0.7596
  142SOL     OW 1324   1.422   4.176   1.690 -0.2193 -0.0767  0.4718
  142SOL    HW1 1325   1.371   4.090   1.686 -0.3365 -0.1514  2.4728
  142SOL    HW2 1326   1.515   4.161   1.658 -0.2241 -0.9722  0.8462
  143SOL     OW 1327   5.384   2.826   1.170  0.8904  0.5067  0.5176
  143SOL    HW1 1328   5.331   2.763   1.113 -0.3851  1.5178  0.5436
  143SOL    HW2 1329   5.477   2.789   1.182  0.1879 -1.3755  0.5725
  144SOL     OW 1330   0.967   5.991   6.759 -0.3028  0.5773 -0.1074
  144SOL    HW1 1331   1.049   6.000   6.702  0.7650  1.4406  1.4667
  144SOL    HW2 1332   0.897   6.055   6.728 -0.7255 -0.6920 -1.9397
  145SOL     OW 1333   0.077   4.581   6.444 -0.2980 -0.3962  0.5868
  145SOL    HW1 1334  -0.008   4.536   6.417  0.6644 -1.6478 -0.4130
  145SOL    HW2 1335   0.154   4.520   6.430  1.0489  1.4547 -0.5723
  146SOL     OW 1336   4.987   1.015   5.633 -0.0143  0.0670 -0.1005
  146SOL    HW1 1337   5.035   0.940   5.677  0.0642  0.6539  0.8388
  146SOL    HW2 1338   5.052   1.086   5.605  0.0095 -0.5616 -1.7348
  147SOL     OW 1339   5.775   3.795   5.285  0.3839 -0.0477 -0.2531
  147SOL    HW1 1340   5.782   3.704   5.244 -1.5169 -0.4661  0.2657
  147SOL    HW2 1341   5.706   3.848   5.236  0.4017  0.5807  0.3899
  148SOL     OW 1342   5.269   6.486   0.575 -0.3425  0.4572 -0.0930
  148SOL    HW1 1343   5.209   6.531   0.642 -0.8848 -0.3845  0.0117
  148SOL    HW2 1344   5.215   6.457   0.496  0.1305  0.6418 -0.4888
  149SOL     OW 1345   5.818   1.976   4.733  1.0192 -0.0133 -0.0873
  149SOL    HW1 1346   5.751   1.982   4.807 -1.2021  0.1952 -1.9950
  149SOL    HW2 1347   5.894   2.038   4.752 -0.4629  1.5349  1.0757
  150SOL     OW 1348   5.043   6.907   0.889 -0.3630 -0.2024 -0.0390
  150SOL    HW1 1349   5.053   6.888   0.791  0.8968  0.5637 -0.0796
  150SOL    HW2 1350   5.064   7.003   0.906  0.0214 -0.4756  1.0696
  151SOL     OW 1351   2.191   6.303   0.454 -0.3205 -0.5983  0.4946
  151SOL    HW1 1352   2.213   6.351   0.370  1.0839 -2.2746 -0.1601
  151SOL    HW2 1353   2.094   6.276   0.453 -1.0292  1.7347  0.7001
  152SOL     OW 1354   6.281   0.370   2.369 -0.0339  0.1638  0.7290
  152SOL    HW1 1355   6.288   0.301   2.442  0.7366 -0.3040  0.2318
  152SOL    HW2 1356   6.222   0.444   2.399 -0.3654 -0.4057  1.5284
  153SOL     OW 1357   2.336   2.105   4.181  0.2450  0.7438  0.1871
  153SOL    HW1 1358   2.295   2.036   4.122  0.9961 -0.0896  0.6205
  153SOL    HW2 1359   2.341   2.071   4.275 -1.3941  2.2378  0.8910
  154SOL     OW 1360   0.024   2.146   6.312 -0.4326 -0.2557  0.0481
  154SOL    HW1 1361  -0.000   2.060   6.267 -2.6851  1.1931 -1.6926
  154SOL    HW2 1362   0.114   2.176   6.280  0.2040 -1.6879  0.3714
  155SOL     OW 1363   0.371   2.468   4.275 -0.4939  0.3371  0.0236
  155SOL    HW1 1364   0.405   2.412   4.351  2.1349  1.3078 -0.3346
  155SOL    HW2 1365   0.303   2.532   4.309  1.2664  1.3672  1.8303
  156SOL     OW 1366   0.472   2.387   1.294  0.1101  0.4069 -0.0531
  156SOL    HW1 1367   0.508   2.322   1.227 -0.4125 -3.4316  3.0178
  156SOL    HW2 1368   0.373   2.392   1.287  0.0947  0.3655  0.1150
  157SOL     OW 1369   6.334   0.291   2.980  0.8063 -0.3312 -0.0109
  157SOL    HW1 1370   6.397   0.249   3.046  1.4904  0.7846  0.0813
  157SOL    HW2 1371   6.298   0.221   2.918  0.6541 -1.2881  1.1385
  158SOL     OW 1372   1.908   4.242   2.603 -0.2913  0.6593 -0.1779
  158SOL    HW1 1373   1.998   4.233   2.559  0.0412  2.1478  0.1172
  158SOL    HW2 1374   1.919   4.290   2.690 -1.3636  0.7681 -0.0930
  159SOL     OW 1375   4.626   4.451   3.863 -0.4963  0.1849 -0.6827
  159SOL    HW1 1376   4.623   4.380   3.792  0.6786  1.7254 -2.3525
  159SOL    HW2 1377   4.551   4.515   3.849  1.2906  2.0722 -2.3841
  160SOL     OW 1378   4.107   4.618   6.761 -0.0365  0.0303  0.5597
  160SOL    HW1 1379   4.151   4.659   6.841  0.1996 -1.1702  1.0573
  160SOL    HW2 1380   4.175   4.567   6.708 -0.2195  0.7113 -0.3450
  161SOL     OW 1381   2.742   5.882   3.880 -0.0226 -0.1882 -0.2599
  161SOL    HW1 1382   2.757   5.935   3.796  1.7951  1.6502  1.1213
  161SOL    HW2 1383   2.719   5.788   3.856  1.6033 -0.0301 -2.8328
  162SOL     OW 1384   2.726   4.176   6.762  0.5174  0.4237  0.2385
  162SOL    HW1 1385   2.691   4.223   6.681  0.6448  0.6975  0.3413
  162SOL    HW2 1386   2.826   4.185   6.765  0.5157  0.3854  0.4054
  163SOL     OW 1387   5.412   5.898   2.143  0.0494 -0.3117 -0.3451
  163SOL    HW1 1388   5.477   5.899   2.067 -0.5585 -1.3303 -0.8938
  163SOL    HW2 1389   5.455   5.855   2.223  0.1136 -0.8395 -0.6591
  164SOL     OW 1390   6.206   4.214   2.027 -0.3800 -0.1809  0.8499
  164SOL    HW1 1391   6.296   4.174   2.009 -0.1572  0.1304  1.2605
  164SOL    HW2 1392   6.138   4.141   2.035  0.3473 -0.6690  3.5623
  165SOL     OW 1393   6.238   2.838   2.091  0.4059  0.4060 -0.4468
  165SOL    HW1 1394   6.228   2.790   2.004 -1.6163  1.4199 -0.8304
  165SOL    HW2 1395   6.204   2.780   2.165 -0.6903  0.6655 -0.7304
  166SOL     OW 1396   0.657   3.068   0.748  0.5427  0.0483  0.0172
  166SOL    HW1 1397   0.703   2.979   0.750  1.5051  0.5523  0.5568
  166SOL    HW2 1398   0.680   3.116   0.663  0.2270 -0.1011 -0.1563
  167SOL     OW 1399   4.347   2.726   0.463  0.0018  0.0795 -0.3325
  167SOL    HW1 1400   4.393   2.811   0.490 -0.7556  0.5922 -0.6076
  167SOL    HW2 1401   4.399   2.648   0.496  1.8405  0.5831 -1.8229
  168SOL     OW 1402   4.181   3.386   1.644  0.1421  0.1971  0.4898
  168SOL    HW1 1403   4.149   3.362   1.735  0.7742 -0.5091  0.5391
  168SOL    HW2 1404   4.194   3.303   1.590  0.1590  0.5841 -0.1086
  169SOL     OW 1405   5.657   0.951   0.298 -0.6851 -0.3851 -0.5135
  169SOL    HW1 1406   5.688   0.886   0.229 -1.8647 -1.5840  0.0380
  169SOL    HW2 1407   5.566   0.925   0.330  0.2563 -0.5864  2.3148
  170SOL     OW 1408   0.591   6.349   4.156  0.2423 -0.5123  0.3461
  170SOL    HW1 1409   0.535   6.365   4.237 -1.8985  1.7762 -1.4234
  170SOL    HW2 1410   0.595   6.251   4.136  0.1081 -1.0383  2.6478
  171SOL     OW 1411   4.718   2.935   6.337 -0.0077  0.3857  0.1369
  171SOL    HW1 1412   4.767   3.022   6.346  1.4551 -0.0649 -2.6259
  171SOL    HW2 1413   4.683   2.926   6.244 -0.9109 -1.6164  0.6257
  172SOL     OW 1414   5.288   2.135   2.106  0.0352 -0.2657  0.0324
  172SOL    HW1 1415   5.282   2.235   2.108  0.0364 -0.2282 -1.2521
  172SOL    HW2 1416   5.382   2.107   2.126  0.7225  0.1415 -2.3096
  173SOL     OW 1417   6.344   6.118   5.142 -0.1767 -0.5100 -0.7105
  173SOL    HW1 1418   6.261   6.074   5.176  0.0345 -0.2816  0.1172
  173SOL    HW2 1419   6.372   6.191   5.205  0.2826 -0.1484 -1.3201
  174SOL     OW 1420   3.953   6.056   2.956  0.0267  0.1983 -0.5154
  174SOL    HW1 1421   4.039   6.034   2.910  1.4245  0.9336  1.6177
  174SOL    HW2 1422   3.896   6.111   2.896  0.9452 -0.4495 -2.0383
  175SOL     OW 1423   4.031   0.515   1.716 -0.1604 -0.1607 -0.2200
  175SOL    HW1 1424   4.080   0.529   1.630  0.7592 -0.4689  0.2380
  175SOL    HW2 1425   3.998   0.603   1.751 -0.8603 -0.0786 -1.0624
  176SOL     OW 1426   5.955   5.400   1.430 -0.0253 -0.1006  0.1533
  176SOL    HW1 1427   5.991   5.493   1.420 -0.8670  0.1605 -0.5880
  176SOL    HW2 1428   5.931   5.384   1.525 -0.5668  0.7130  0.1614
  177SOL     OW 1429   5.805   3.743   2.234  0.2896 -0.4052  0.2001
  177SOL    HW1 1430   5.729   3.685   2.262 -0.6676 -0.2527 -1.9030
  177SOL    HW2 1431   5.879   3.686   2.198  0.4497 -0.4583  0.6103
  178SOL     OW 1432   3.506   2.665   6.003 -0.4313 -0.8244  0.1503
  178SOL    HW1 1433   3.432   2.618   6.051 -1.3317 -0.8525 -1.1984
  178SOL    HW2 1434   3.545   2.604   5.934  0.0168 -0.3955  0.0165
  179SOL     OW 1435   3.845   1.257   4.869 -0.4653 -0.1943 -0.3023
  179SOL    HW1 1436   3.884   1.292   4.954 -1.3832  1.2400 -0.4285
  179SOL    HW2 1437   3.916   1.254   4.799  0.5582 -2.3483  0.7077
  180SOL     OW 1438   0.355   5.313   5.920 -0.6165  0.4952 -0.0386
  180SOL    HW1 1439   0.361   5.278   5.827 -0.8709  0.9688 -0.2411
  180SOL    HW2 1440   0.390   5.407   5.922 -0.4435  0.4227  0.3767
  181SOL     OW 1441   4.036   3.870   4.925 -0.4111 -0.8815 -0.3033
  181SOL    HW1 1442   4.071   3.779   4.945  1.0928 -0.6397 -1.6471
  181SOL    HW2 1443   4.044   3.927   5.007  3.5246 -0.5293 -0.7542
  182SOL     OW 1444   3.584   3.469   6.293 -0.1273 -0.1675 -0.1606
  182SOL    HW1 1445   3.582   3.567   6.309 -2.1625 -0.2530  0.4571
  182SOL    HW2 1446   3.596   3.451   6.195  1.2646  0.6447 -0.1576
  183SOL     OW 1447   5.718   1.897   3.801 -0.2827 -0.2057  0.1074
  183SOL    HW1 1448   5.725   1.825   3.871 -0.9610  0.2721  0.6762
  183SOL    HW2 1449   5.810   1.927   3.775 -0.0175 -0.5411  0.6343
  184SOL     OW 1450   0.992   6.302   4.060 -0.3013 -0.0059 -0.2199
  184SOL    HW1 1451   0.906   6.305   4.009  0.3898 -0.1212 -1.4226
  184SOL    HW2 1452   1.058   6.365   4.019  0.8294 -1.3523 -0.5379
  185SOL     OW 1453   0.518   2.054   0.436  0.4806  0.2201  0.3702
  185SOL    HW1 1454   0.555   2.115   0.506 -0.3594  0.3754  0.6996
  185SOL    HW2 1455   0.580   1.978   0.421  0.8996  0.4448  0.9430
  186SOL     OW 1456   6.060   6.256   5.193 -0.4685 -0.4728 -0.2413
  186SOL    HW1 1457   6.056   6.156   5.183 -0.8672 -0.5673  0.6852
  186SOL    HW2 1458   5.967   6.292   5.200 -0.3886  0.1406 -1.9732
  187SOL     OW 1459   4.066   1.529   2.706 -0.4346 -0.5496 -0.1203
  187SOL    HW1 1460   4.160   1.555   2.682 -0.6214  0.5219  0.3016
  187SOL    HW2 1461   4.001   1.590   2.661 -0.9681 -1.4713 -0.6571
  188SOL     OW 1462   1.162   1.824   3.887  0.1014  0.6011 -0.0001
  188SOL    HW1 1463   1.261   1.835   3.877 -0.2423  2.0296 -3.1329
  188SOL    HW2 1464   1.127   1.766   3.814 -1.4853  0.9437  0.4415
  189SOL     OW 1465   3.395   5.635   1.943 -0.2058 -0.2560  0.3006
  189SOL    HW1 1466   3.303   5.647   1.979 -0.0837 -0.8926  0.8521
  189SOL    HW2 1467   3.457   5.703   1.982 -0.2249 -0.4978  0.7595
  190SOL     OW 1468   6.165   1.549   5.707 -0.5371  0.3764 -0.0526
  190SOL    HW1 1469   6.125   1.623   5.653  1.1958  1.2011 -0.2462
  190SOL    HW2 1470   6.260   1.534   5.680 -0.2844 -0.6796  1.2648
  191SOL     OW 1471   4.888   1.512   0.766  0.1210  0.4434 -0.2694
  191SOL    HW1 1472   4.986   1.528   0.759  0.1310  1.4940  1.5911
  191SOL    HW2 1473   4.869   1.415   0.748  1.4163  0.3180 -1.1315
  192SOL     OW 1474   0.406   5.812   3.241 -0.6201  0.2693 -0.1256
  192SOL    HW1 1475   0.325   5.800   3.299 -1.3175  1.7986 -0.7096
  192SOL    HW2 1476   0.407   5.742   3.170 -0.9831 -0.2571  0.3811
  193SOL     OW 1477   5.971   1.962   6.401 -0.0732  0.0820 -0.1824
  193SOL    HW1 1478   6.018   2.037   6.447  1.4254 -1.5571  1.0887
  193SOL    HW2 1479   5.877   1.954   6.436  0.5638 -0.1787  1.5586
  194SOL     OW 1480   5.524   6.752   3.727 -0.0788  0.5674 -0.1609
  194SOL    HW1 1481   5.538   6.661   3.765  3.6034  0.0210 -2.3427
  194SOL    HW2 1482   5.486   6.744   3.635  1.7167  1.0238 -0.9900
  195SOL     OW 1483   1.663   5.973   4.620 -0.3929 -0.5276 -0.2980
  195SOL    HW1 1484   1.610   5.983   4.704 -1.7588  1.5212 -1.2963
  195SOL    HW2 1485   1.630   6.039   4.552  2.9517  0.3448 -1.2801
  196SOL     OW 1486   3.132   0.951   1.482  0.5971 -0.2172 -0.1374
  196SOL    HW1 1487   3.223   0.931   1.519 -1.0160 -4.3006  2.2518
  196SOL    HW2 1488   3.086   1.017   1.541  0.2006 -2.2396  1.9695
  197SOL     OW 1489   2.549   0.486   0.505  0.2295 -0.0789  0.2522
  197SOL    HW1 1490   2.638   0.470   0.463  0.4436  2.5310 -0.5018
  197SOL    HW2 1491   2.557   0.557   0.574 -1.1804 -0.1734  0.5400
  198SOL     OW 1492   4.989   6.314   0.630  0.3216 -0.9848 -0.1724
  198SOL    HW1 1493   5.034   6.280   0.713  1.5322 -0.3688 -0.5563
  198SOL    HW2 1494   5.057   6.326   0.558 -0.6996 -1.4136 -1.2374
  199SOL     OW 1495   5.578   0.173   3.811 -0.3225  0.5024 -0.0489
  199SOL    HW1 1496   5.581   0.239   3.886 -0.6657  2.0815 -1.3704
  199SOL    HW2 1497   5.644   0.100   3.829  0.8591  1.7551  0.9750
  200SOL     OW 1498   0.624   5.043   1.762  0.0457  0.7873  0.2949
  200SOL    HW1 1499   0.648   5.095   1.681 -2.1730  0.8118 -0.4133
  200SOL    HW2 1500   0.550   5.089   1.812  0.0664 -0.1825  1.2819
  201SOL     OW 1501   0.861   5.967   6.320  0.3940  0.6133 -0.3189
  201SOL    HW1 1502   0.938   6.030   6.315  0.6704  0.4031  0.8413
  201SOL    HW2 1503   0.775   6.019   6.321  0.6465  1.0817  1.5968
  202SOL     OW 1504   4.833   0.599   6.087 -0.3785 -0.3534 -0.6945
  202SOL    HW1 1505   4.826   0.499   6.085 -2.8813 -0.2598  0.1657
  202SOL    HW2 1506   4.766   0.636   6.151  2.1527  1.8011  0.9268
  203SOL     OW 1507   3.590   1.130   4.341  0.1715  0.0645  0.0728
  203SOL    HW1 1508   3.508   1.117   4.285  0.0923  1.2621 -0.1189
  203SOL    HW2 1509   3.588   1.220   4.383  2.0007  0.6607 -0.9938
  204SOL     OW 1510   6.664   0.624   5.795 -0.2648  0.3135  0.4869
  204SOL    HW1 1511   6.698   0.673   5.875  1.2172 -1.0992  0.7684
  204SOL    HW2 1512   6.620   0.689   5.732 -0.5694  1.5850  1.9641
  205SOL     OW 1513   0.677   0.665   4.242  0.4602 -0.0585  0.5094
  205SOL    HW1 1514   0.584   0.629   4.248  1.1583 -1.7480  1.8278
  205SOL    HW2 1515   0.680   0.757   4.282 -0.2763 -0.7470  2.2140
  206SOL     OW 1516   0.505   3.605   0.719 -0.3088  0.1288 -0.5081
  206SOL    HW1 1517   0.428   3.665   0.740 -0.6387 -0.6458  0.5563
  206SOL    HW2 1518   0.559   3.645   0.645 -1.7141  0.6920 -1.2663
  207SOL     OW 1519   5.929   1.641   3.408 -0.5314  0.1102 -0.2507
  207SOL    HW1 1520   6.000   1.710   3.421 -0.5818  0.4279 -1.5103
  207SOL    HW2 1521   5.850   1.663   3.466  1.2303 -1.6085  3.1157
  208SOL     OW 1522   4.253   2.078   5.150 -0.4901 -0.5178 -0.9688
  208SOL    HW1 1523   4.266   2.033   5.062 -1.6585 -1.7589 -0.5466
  208SOL    HW2 1524   4.282   2.015   5.223 -0.1449  0.2450 -0.4371
  209SOL     OW 1525   6.126   2.854   4.991 -0.1385  1.0732  0.3381
  209SOL    HW1 1526   6.037   2.827   4.954  0.2708 -1.7237  1.1794
  209SOL    HW2 1527   6.119   2.946   5.029 -2.2243  1.5389 -0.9714
  210SOL     OW 1528   6.290   2.717   1.497  0.5644 -0.0226 -0.0699
  210SOL    HW1 1529   6.381   2.743   1.528  0.2333  0.7293  0.3030
  210SOL    HW2 1530   6.270   2.763   1.410  1.2337 -1.6117 -1.1171
  211SOL     OW 1531   0.907   6.280   2.984 -0.3173  0.0430 -0.7456
  211SOL    HW1 1532   0.999   6.252   3.012 -0.3857  0.7064  0.2052
  211SOL    HW2 1533   0.861   6.204   2.938  0.0228 -0.9231  0.4423
  212SOL     OW 1534   0.494   3.150   6.421 -0.2310 -0.1291  0.6299
  212SOL    HW1 1535   0.521   3.231   6.370 -0.0203  0.0442  1.0076
  212SOL    HW2 1536   0.468   3.176   6.514  0.5955 -0.5745  1.0071
  213SOL     OW 1537   4.364   5.916   0.549  0.2900  0.3159  0.0254
  213SOL    HW1 1538   4.422   5.992   0.519 -1.3007  0.6611 -2.5428
  213SOL    HW2 1539   4.290   5.903   0.483  0.3316 -3.3224  0.4645
  214SOL     OW 1540   6.232   5.823   0.807  0.1252 -0.4091 -0.2738
  214SOL    HW1 1541   6.284   5.867   0.881  0.3791  0.1127 -0.7581
  214SOL    HW2 1542   6.134   5.840   0.822  0.1907 -0.0797 -0.1949
  215SOL     OW 1543   2.047   2.389   6.704 -0.1552  0.7404 -0.6372
  215SOL    HW1 1544   2.070   2.295   6.680  0.8062  1.5038 -2.9759
  215SOL    HW2 1545   2.128   2.435   6.741 -0.0696  1.1877 -1.3626
  216SOL     OW 1546   2.390   5.868   2.837  0.1757 -0.0750 -0.4851
  216SOL    HW1 1547   2.477   5.855   2.789 -0.0390  0.4310 -1.0215
  216SOL    HW2 1548   2.369   5.965   2.843  0.3903 -0.1107  1.0032
  217SOL     OW 1549   0.304   2.198   3.919 -0.1204  0.6263  0.5314
  217SOL    HW1 1550   0.391   2.165   3.954 -0.7335 -0.7338  0.8258
  217SOL    HW2 1551   0.295   2.296   3.939  2.1259  1.2547 -1.1594
  218SOL     OW 1552   6.492   3.816   5.124  0.1608  0.4955  0.0367
  218SOL    HW1 1553   6.530   3.793   5.035 -2.5507 -0.6479 -0.9376
  218SOL    HW2 1554   6.556   3.876   5.174  1.4618  1.7509 -2.9119
  219SOL     OW 1555   6.152   0.997   0.435 -0.0592 -0.0417  0.3985
  219SOL    HW1 1556   6.169   0.999   0.533 -2.6754 -0.2803  0.9173
  219SOL    HW2 1557   6.054   0.988   0.417  0.1982  1.2531 -2.2572
  220SOL     OW 1558   1.940   6.267   1.834 -0.2288  0.6533  0.4379
  220SOL    HW1 1559   2.038   6.260   1.851 -0.4512  0.5331  1.8170
  220SOL    HW2 1560   1.924   6.302   1.742  1.1030  0.7040  0.2081
  221SOL     OW 1561   6.540   3.065   1.531 -0.4209 -0.3508  0.5104
  221SOL    HW1 1562   6.445   3.089   1.511  0.3097  0.9091 -1.7810
  221SOL    HW2 1563   6.574   3.121   1.606 -0.5381  1.6835 -0.8707
  222SOL     OW 1564   2.282   5.790   3.833  0.4717 -0.0479 -0.3001
  222SOL    HW1 1565   2.362   5.842   3.863  0.4595 -0.3931  0.3451
  222SOL    HW2 1566   2.201   5.848   3.839  0.8457  0.7512 -2.2649
  223SOL     OW 1567   5.811   2.892   6.469 -0.0668  0.9122 -0.5668
  223SOL    HW1 1568   5.826   2.838   6.386  0.6710  0.2188 -0.0044
  223SOL    HW2 1569   5.713   2.902   6.485 -0.2253 -0.1250 -0.7921
  224SOL     OW 1570   0.984   2.390   4.860 -0.6504 -0.4913 -0.6732
  224SOL    HW1 1571   0.889   2.393   4.891 -0.6123  0.1683 -0.6091
  224SOL    HW2 1572   1.041   2.351   4.932 -0.2086  2.9931  1.0829
  225SOL     OW 1573   6.145   2.400   6.200 -0.2373 -0.5299 -0.6185
  225SOL    HW1 1574   6.233   2.409   6.153 -0.9577 -1.1815 -2.1655
  225SOL    HW2 1575   6.071   2.411   6.134 -1.2895 -1.7089  0.3159
  226SOL     OW 1576   1.469   0.480   1.154 -0.1946 -0.3716 -0.1238
  226SOL    HW1 1577   1.392   0.545   1.161  1.4058  1.6955 -0.7262
  226SOL    HW2 1578   1.531   0.511   1.083  0.8936 -2.3666 -0.0865
  227SOL     OW 1579   0.316   4.850   1.544  0.4090 -0.8717  0.3728
  227SOL    HW1 1580   0.414   4.836   1.559  0.7499 -0.3662 -1.1687
  227SOL    HW2 1581   0.295   4.839   1.447 -0.4601  2.1983  0.0871
  228SOL     OW 1582   3.485   6.835   2.682  0.4998 -0.7974  0.0186
  228SOL    HW1 1583   3.496   6.923   2.635  0.1838 -0.8579 -0.1687
  228SOL    HW2 1584   3.483   6.850   2.781  1.9218 -0.7421  0.0555
  229SOL     OW 1585   0.373   6.314   0.982 -0.7358 -0.1380  0.1764
  229SOL    HW1 1586   0.337   6.399   1.022  0.5753  0.5254  0.0150
  229SOL    HW2 1587   0.361   6.316   0.883  0.3765  0.4324  0.0354
  230SOL     OW 1588   4.294   6.576   2.407 -0.1378 -0.4713 -0.4509
  230SOL    HW1 1589   4.364   6.571   2.336 -0.2352  1.6287 -0.7736
  230SOL    HW2 1590   4.250   6.487   2.417  0.4885 -1.0510 -2.3925
  231SOL     OW 1591   6.282   1.246   4.544  0.1691  0.0929 -0.2239
  231SOL    HW1 1592   6.228   1.325   4.516 -0.5513 -0.2756  0.1109
  231SOL    HW2 1593   6.239   1.162   4.510  0.1077 -0.2557  0.7066
  232SOL     OW 1594   0.641   3.947   0.505 -0.0291 -0.0882  0.0196
  232SOL    HW1 1595   0.573   3.954   0.578 -0.0385 -1.4444  0.1605
  232SOL    HW2 1596   0.595   3.930   0.418  0.0867 -0.1582 -0.0271
  233SOL     OW 1597   4.163   1.783   6.926  0.7849 -0.4621 -0.1567
  233SOL    HW1 1598   4.203   1.817   7.012  1.3772  0.3581 -0.7436
  233SOL    HW2 1599   4.214   1.702   6.896 -0.8476 -2.1958  1.4294
  234SOL     OW 1600   5.174   1.437   5.551 -0.0247  0.4456 -0.4614
  234SOL    HW1 1601   5.196   1.340   5.541  0.9288  0.6171 -0.0459
  234SOL    HW2 1602   5.238   1.492   5.497 -0.5257  0.8583 -0.6544
  235SOL     OW 1603   3.681   0.793   1.437  0.0371  0.3859  0.2719
  235SOL    HW1 1604   3.729   0.739   1.368  2.1409  0.8001  1.3456
  235SOL    HW2 1605   3.604   0.841   1.394 -2.2641 -3.6664 -0.6649
  236SOL     OW 1606   5.627   4.086   4.233  0.2732  0.5669 -0.0686
  236SOL    HW1 1607   5.657   4.002   4.278 -3.6559 -1.2178 -0.3641
  236SOL    HW2 1608   5.666   4.091   4.141 -0.8007 -1.9945 -0.7408
  237SOL     OW 1609   0.240   2.806   2.151 -0.1245 -0.6470  0.2545
  237SOL    HW1 1610   0.326   2.848   2.120  1.1094 -2.0295  1.6033
  237SOL    HW2 1611   0.230   2.820   2.250 -0.5290 -2.0350  0.4289
  238SOL     OW 1612   4.110   1.796   6.265 -0.9597 -0.2951 -0.0184
  238SOL    HW1 1613   4.184   1.856   6.234 -1.3608  0.5300  0.5839
  238SOL    HW2 1614   4.066   1.837   6.345 -2.0867 -0.7626 -0.3862
  239SOL     OW 1615   6.503   6.289   6.716  0.0493 -0.2096 -0.6626
  239SOL    HW1 1616   6.484   6.220   6.646  1.1663  0.5901 -1.8065
  239SOL    HW2 1617   6.418   6.317   6.759 -0.5807 -1.2484 -1.1842
  240SOL     OW 1618   1.399   2.513   4.624  0.8288  0.2143 -0.0660
  240SOL    HW1 1619   1.316   2.495   4.571  0.0811 -0.1016  1.1644
  240SOL    HW2 1620   1.431   2.606   4.606 -1.3602  1.3402  1.4207
  241SOL     OW 1621   3.652   6.281   5.027 -0.4862 -0.3687 -0.6892
  241SOL    HW1 1622   3.560   6.242   5.036 -1.1513  1.0140 -1.2849
  241SOL    HW2 1623   3.702   6.269   5.113 -0.7756 -2.1927 -0.7363
  242SOL     OW 1624   4.004   3.935   4.661 -0.0982  0.2598  0.1796
  242SOL    HW1 1625   3.921   3.988   4.646 -2.6853 -3.5041 -0.4226
  242SOL    HW2 1626   4.016   3.920   4.760 -1.2840 -0.6680  0.2081
  243SOL     OW 1627   4.019   0.286   6.234  0.2473  0.0870 -0.1267
  243SOL    HW1 1628   3.968   0.291   6.148 -0.8002 -2.2914  0.2659
  243SOL    HW2 1629   3.954   0.287   6.311  1.1135  1.4114  0.6177
  244SOL     OW 1630   5.053   2.253   5.017 -0.4207 -0.0158 -0.2155
  244SOL    HW1 1631   5.005   2.207   4.942  0.2932 -1.2430  0.0558
  244SOL    HW2 1632   5.027   2.211   5.104  1.1993 -0.7989 -0.0728
  245SOL     OW 1633   5.627   4.103   3.175 -0.4874 -0.1038 -0.4965
  245SOL    HW1 1634   5.616   4.196   3.139 -1.4661 -1.0451 -2.8369
  245SOL    HW2 1635   5.720   4.072   3.157 -0.5872 -0.0812 -1.0959
  246SOL     OW 1636   4.534   1.445   2.846  0.2657  0.0375 -0.0660
  246SOL    HW1 1637   4.520   1.351   2.816  2.5249 -0.1330 -0.7917
  246SOL    HW2 1638   4.555   1.502   2.766  0.1200  0.9081  0.5058
  247SOL     OW 1639   2.544   2.276   1.813  0.2779  0.0682 -0.1451
  247SOL    HW1 1640   2.609   2.297   1.740 -1.6506  1.0663 -1.6608
  247SOL    HW2 1641   2.521   2.360   1.863 -2.9488  0.7041 -2.3820
  248SOL     OW 1642   1.320   2.029   4.157 -0.3172 -0.0893 -0.3733
  248SOL    HW1 1643   1.389   1.974   4.204 -2.9601 -1.3070  2.4701
  248SOL    HW2 1644   1.343   2.126   4.165  0.0387 -0.3313  2.4833
  249SOL     OW 1645   3.968   0.235   5.686 -0.0502 -0.0369  0.0582
  249SOL    HW1 1646   3.956   0.164   5.755  0.8471 -0.2720 -0.0124
  249SOL    HW2 1647   3.880   0.258   5.646 -0.5840  0.0890  1.2606
  250SOL     OW 1648   4.593   3.808   0.629 -0.6416 -0.6450 -0.6012
  250SOL    HW1 1649   4.506   3.853   0.613 -0.9890 -1.4909 -1.1418
  250SOL    HW2 1650   4.668   3.873   0.617 -1.1700 -0.0603 -0.7104
  251SOL     OW 1651   4.705   4.123   5.507 -0.3517 -0.1782 -0.1327
  251SOL    HW1 1652   4.726   4.028   5.531 -1.3499 -0.3177  0.2648
  251SOL    HW2 1653   4.786   4.180   5.521  0.4039 -1.0475 -0.8515
  252SOL     OW 1654   5.032   5.883   0.608 -0.3559  0.1083 -0.1986
  252SOL    HW1 1655   5.022   5.885   0.509 -2.0853 -0.1188 -0.0704
  252SOL    HW2 1656   4.996   5.968   0.647 -2.9691 -1.1404  0.3904
  253SOL     OW 1657   3.804   5.524   6.596  0.8286 -0.0063  0.4629
  253SOL    HW1 1658   3.734   5.540   6.665  0.0051  1.3222 -0.6125
  253SOL    HW2 1659   3.797   5.431   6.562 -1.0817  0.3558 -0.2818
  254SOL     OW 1660   5.580   1.492   4.302 -0.0294  0.1179  0.2917
  254SOL    HW1 1661   5.636   1.487   4.219 -1.3386  0.2639 -0.6327
  254SOL    HW2 1662   5.591   1.582   4.345 -0.6375  0.6679 -0.6808
  255SOL     OW 1663   1.289   3.789   4.898 -0.1344 -0.6206  0.1053
  255SOL    HW1 1664   1.216   3.827   4.954 -0.2685 -1.3395  0.4195
  255SOL    HW2 1665   1.251   3.755   4.812 -0.4604 -2.5261  0.9575
  256SOL     OW 1666   6.553   4.615   5.618 -0.5722  0.3765 -1.0290
  256SOL    HW1 1667   6.543   4.634   5.716 -0.7968  1.1819 -1.2077
  256SOL    HW2 1668   6.590   4.695   5.572 -0.7291  0.0926 -1.6485
  257SOL     OW 1669   4.878   5.853   3.653  0.0431 -0.1524  0.6959
  257SOL    HW1 1670   4.842   5.834   3.744  0.5358  2.2322  1.4459
  257SOL    HW2 1671   4.974   5.878   3.660  0.3568 -0.8914 -0.6228
  258SOL     OW 1672   1.780   4.455   3.991  0.2777  0.4380  0.7213
  258SOL    HW1 1673   1.738   4.546   3.985 -1.2367 -0.3277 -1.2298
  258SOL    HW2 1674   1.811   4.426   3.900 -0.1912 -1.4032  1.1074
  259SOL     OW 1675   2.383   1.945   2.429 -0.3222  0.0254 -0.2775
  259SOL    HW1 1676   2.428   1.891   2.501 -0.0260 -0.6939 -0.9901
  259SOL    HW2 1677   2.451   1.977   2.364 -0.1024  3.4033  1.4097
  260SOL     OW 1678   3.081   1.191   1.596 -0.1106  0.2240 -0.0765
  260SOL    HW1 1679   3.168   1.191   1.645  0.7284  0.8097 -1.5027
  260SOL    HW2 1680   3.074   1.274   1.541 -0.2580 -1.1187 -2.2054
  261SOL     OW 1681   0.070   2.969   1.147 -0.3932 -0.0139 -0.5388
  261SOL    HW1 1682   0.015   2.913   1.085 -0.1916  0.1957 -0.9148
  261SOL    HW2 1683   0.074   2.925   1.237 -1.6252  0.2491 -0.3381
  262SOL     OW 1684   1.465   3.925   0.545  0.2417  0.2950  0.3524
  262SOL    HW1 1685   1.494   3.959   0.455 -0.9418  1.5164  0.4157
  262SOL    HW2 1686   1.393   3.857   0.533  0.4347  0.0822  0.3742
  263SOL     OW 1687   0.333   6.215   4.815  0.1795 -0.3910  0.4261
  263SOL    HW1 1688   0.381   6.143   4.864  2.4340 -0.6081 -1.9156
  263SOL    HW2 1689   0.325   6.190   4.718 -0.0736  1.9513 -0.2168
  264SOL     OW 1690   5.184   2.498   6.125  0.0508 -0.4675  0.7696
  264SOL    HW1 1691   5.148   2.487   6.218  0.8457  0.1674  1.1706
  264SOL    HW2 1692   5.241   2.580   6.121 -0.7467  0.0413 -0.5381
  265SOL     OW 1693   5.104   5.418   2.208 -0.3075  0.5853  0.0927
  265SOL    HW1 1694   5.137   5.499   2.255 -2.7114  0.8709  1.4474
  265SOL    HW2 1695   5.168   5.343   2.221  1.0760  1.7676  0.3196
  266SOL     OW 1696   3.557   2.685   5.401  0.8675 -0.2967  0.1943
  266SOL    HW1 1697   3.596   2.750   5.337  0.0935  0.1694  0.1915
  266SOL    HW2 1698   3.457   2.683   5.391  0.6442  0.4270  1.9671
  267SOL     OW 1699   2.552   5.938   0.534 -0.2799 -0.2587  0.7674
  267SOL    HW1 1700   2.644   5.975   0.549  1.1690 -1.3558 -3.9113
  267SOL    HW2 1701   2.485   6.012   0.544  1.5397  1.5275  0.5108
  268SOL     OW 1702   3.216   6.160   6.008  0.7608  0.7844  0.3101
  268SOL    HW1 1703   3.142   6.157   6.075  0.6361 -1.3930  0.1595
  268SOL    HW2 1704   3.221   6.072   5.960  2.4132  1.4430 -0.8299
  269SOL     OW 1705   2.007   3.976   1.639  0.5305  0.0162 -0.0520
  269SOL    HW1 1706   1.992   4.071   1.664  1.4931 -0.3853  2.2494
  269SOL    HW2 1707   2.091   3.942   1.682  0.3875 -1.7960 -1.0771
  270SOL     OW 1708   5.945   0.977   5.694  0.4962 -0.1145  0.5664
  270SOL    HW1 1709   5.913   0.911   5.763 -0.1389  1.1875  1.5494
  270SOL    HW2 1710   5.906   0.953   5.605  1.6358 -2.0492  0.5194
  271SOL     OW 1711   6.585   2.238   6.494  0.3092 -0.3148 -0.3096
  271SOL    HW1 1712   6.546   2.298   6.424  0.9212 -1.0059 -1.2637
  271SOL    HW2 1713   6.517   2.169   6.520 -0.0999  0.2569  0.1785
  272SOL     OW 1714   3.881   5.315   3.948  0.0486  1.0985 -0.0629
  272SOL    HW1 1715   3.839   5.402   3.975  0.9720  1.2912  0.8225
  272SOL    HW2 1716   3.940   5.330   3.869  0.5806  1.3973  0.3776
  273SOL     OW 1717   1.062   4.011   5.631  0.2555  0.3974 -0.7074
  273SOL    HW1 1718   0.973   4.043   5.601 -0.4430 -0.4725  0.3335
  273SOL    HW2 1719   1.130   4.027   5.560 -0.8463  0.5423 -1.7493
  274SOL     OW 1720   3.676   2.123   2.359 -0.3064  0.5900 -0.0922
  274SOL    HW1 1721   3.771   2.110   2.386 -0.0721 -0.1127 -1.1832
  274SOL    HW2 1722   3.672   2.170   2.272 -0.8928 -0.4970 -0.6807
  275SOL     OW 1723   5.976   4.202   3.936  0.2243  0.1597 -0.1786
  275SOL    HW1 1724   5.879   4.208   3.962  0.0698 -0.7613 -0.5079
  275SOL    HW2 1725   5.990   4.119   3.882  0.7894  1.3549 -1.9233
  276SOL     OW 1726   0.596   0.081   1.965  0.4347 -0.5586 -0.1173
  276SOL    HW1 1727   0.578   0.018   2.040 -0.2252 -0.7307 -0.4063
  276SOL    HW2 1728   0.512   0.093   1.911  0.5934  0.4196 -0.1790
  277SOL     OW 1729   1.157   4.841   2.882  0.4462  0.3150  0.3440
  277SOL    HW1 1730   1.073   4.803   2.844  1.0245 -0.9668  0.2508
  277SOL    HW2 1731   1.166   4.814   2.978 -0.4550  2.5848  1.1121
  278SOL     OW 1732   6.801   5.900   1.209  0.4878 -0.1097 -0.0241
  278SOL    HW1 1733   6.817   5.884   1.111  1.6162 -1.8509  0.3962
  278SOL    HW2 1734   6.839   5.988   1.235  2.1096 -0.5664 -0.7412
  279SOL     OW 1735   5.768   1.284   4.925  0.1498  0.2844 -0.5801
  279SOL    HW1 1736   5.781   1.323   4.834 -1.2967  2.3555  0.0129
  279SOL    HW2 1737   5.777   1.357   4.993  0.8446 -1.1439  0.9302
  280SOL     OW 1738   4.177   0.043   2.320  0.1106  0.3143 -0.1916
  280SOL    HW1 1739   4.200  -0.049   2.288  3.4175  0.7646  0.5880
  280SOL    HW2 1740   4.142   0.038   2.413  1.3259 -0.1110  0.2612
  281SOL     OW 1741   2.240   5.515   3.225  0.5247  0.2067  0.4597
  281SOL    HW1 1742   2.251   5.613   3.204  0.5558  0.1431  0.1720
  281SOL    HW2 1743   2.181   5.505   3.305  0.7559  0.4728  0.6691
  282SOL     OW 1744   2.834   1.962   4.999 -0.2541  0.1736 -0.2649
  282SOL    HW1 1745   2.778   1.884   5.026  0.6568  0.1914  1.8814
  282SOL    HW2 1746   2.779   2.026   4.945 -1.7940 -0.6198  0.3041
  283SOL     OW 1747   5.534   0.670   5.129  0.4518  0.4969  0.0368
  283SOL    HW1 1748   5.553   0.657   5.226  1.3725 -0.5131 -0.2565
  283SOL    HW2 1749   5.620   0.662   5.077 -0.4123 -2.5589 -1.1784
  284SOL     OW 1750   1.158   5.050   3.485  0.0973  0.1940 -0.0166
  284SOL    HW1 1751   1.062   5.058   3.514 -0.0336 -0.6951 -0.1823
  284SOL    HW2 1752   1.214   5.023   3.563  0.6480  3.0644  0.7065
  285SOL     OW 1753   5.289   5.113   4.138  0.3402  0.2917  0.4688
  285SOL    HW1 1754   5.377   5.158   4.155  0.8307 -0.1735 -0.7545
  285SOL    HW2 1755   5.224   5.140   4.209  1.6237  0.1831  1.7412
  286SOL     OW 1756   3.876   4.282   6.256 -0.3422 -0.1309 -0.5710
  286SOL    HW1 1757   3.782   4.306   6.279  0.0198  0.7359  0.0417
  286SOL    HW2 1758   3.937   4.358   6.278  0.4334 -0.4614 -1.5106
  287SOL     OW 1759   0.616   6.144   6.101  0.7995  0.1169  0.6164
  287SOL    HW1 1760   0.644   6.187   6.015 -0.9877  0.1126 -0.0075
  287SOL    HW2 1761   0.547   6.201   6.146  1.0739 -0.3149  1.6267
  288SOL     OW 1762   3.931   2.690   6.686 -0.2255  0.6833  0.0351
  288SOL    HW1 1763   3.887   2.686   6.596 -2.2526  0.4415  0.9796
  288SOL    HW2 1764   4.029   2.702   6.674  0.1252 -2.9620 -2.2997
  289SOL     OW 1765   5.731   5.417   6.304  0.4103 -0.5015  0.3738
  289SOL    HW1 1766   5.759   5.344   6.240 -0.7104 -0.2716 -0.4137
  289SOL    HW2 1767   5.706   5.499   6.252  0.2777 -0.0303  1.1647
  290SOL     OW 1768   5.201   1.850   4.092 -0.7355  0.5725 -0.0880
  290SOL    HW1 1769   5.165   1.823   4.003 -0.4170 -1.5008  0.3576
  290SOL    HW2 1770   5.265   1.925   4.081  0.8538 -0.9352 -1.9115
  291SOL     OW 1771   2.103   2.241   4.192  0.0935 -0.5167 -0.0650
  291SOL    HW1 1772   2.096   2.323   4.249 -1.7317  0.3962 -1.5269
  291SOL    HW2 1773   2.197   2.207   4.195  1.1000  2.0762 -0.0504
  292SOL     OW 1774   1.930   1.939   3.781 -0.3070 -0.0250  0.0577
  292SOL    HW1 1775   1.999   1.987   3.727 -0.4663  0.4400  0.2683
  292SOL    HW2 1776   1.967   1.850   3.810  0.5559  0.6141  0.9750
  293SOL     OW 1777   3.818   6.240   0.830 -0.8526 -0.1119 -0.1095
  293SOL    HW1 1778   3.813   6.338   0.812  0.2319 -0.2572 -1.3820
  293SOL    HW2 1779   3.914   6.213   0.841 -1.1242 -1.0495  0.0327
  294SOL     OW 1780   0.636   6.006   1.942  0.2756 -0.0846  0.0370
  294SOL    HW1 1781   0.541   6.003   1.972 -0.1117  0.2764 -1.0972
  294SOL    HW2 1782   0.668   5.913   1.923 -0.3680 -0.1038 -1.0680
  295SOL     OW 1783   3.312   1.815   5.006  0.1575 -0.4884  0.3194
  295SOL    HW1 1784   3.244   1.886   4.988  0.3887 -0.6507 -1.3947
  295SOL    HW2 1785   3.396   1.836   4.955  1.6803  0.0577  2.8777
  296SOL     OW 1786   6.631   0.340   3.432  0.1103 -0.4444 -0.4128
  296SOL    HW1 1787   6.663   0.337   3.338  0.6107 -2.3028 -0.2239
  296SOL    HW2 1788   6.531   0.344   3.433  0.1378  1.2454 -0.9881
  297SOL     OW 1789   3.028   4.713   1.398 -0.1109  0.3851  0.3289
  297SOL    HW1 1790   3.091   4.695   1.322  0.4413  0.1815  0.8347
  297SOL    HW2 1791   3.068   4.681   1.483 -0.0588  2.0114  0.9492
  298SOL     OW 1792   2.113   5.733   1.821 -0.4345 -0.4583 -0.2191
  298SOL    HW1 1793   2.119   5.710   1.918 -1.8820  0.0967  0.0305
  298SOL    HW2 1794   2.154   5.822   1.804 -0.2831 -0.5061 -0.1014
  299SOL     OW 1795   4.209   2.488   6.141  0.7162 -0.0135  0.0521
  299SOL    HW1 1796   4.289   2.547   6.150  0.1608  0.9082 -0.7529
  299SOL    HW2 1797   4.174   2.493   6.048  0.5219 -1.4848  0.0145
  300SOL     OW 1798   5.139   6.849   2.701 -0.0807 -0.3417 -0.0161
  300SOL    HW1 1799   5.207   6.900   2.648 -0.0220 -0.1721  0.2192
  300SOL    HW2 1800   5.051   6.852   2.655  0.6463 -2.8863 -1.7940
  301SOL     OW 1801   6.074   4.713   1.327  0.6510 -0.4713  0.4035
  301SOL    HW1 1802   6.099   4.666   1.411  0.2515  0.2493  0.9413
  301SOL    HW2 1803   6.038   4.804   1.349  2.9750  0.8095 -0.6661
  302SOL     OW 1804   0.635   0.034   3.547 -0.0544  0.1050 -0.4022
  302SOL    HW1 1805   0.629   0.023   3.646 -2.3900 -2.4541 -0.7166
  302SOL    HW2 1806   0.668  -0.050   3.506  0.8237  1.1137 -1.8363
  303SOL     OW 1807   5.445   0.834   1.508  0.4336 -0.3587 -0.2537
  303SOL    HW1 1808   5.468   0.740   1.481 -0.9200 -1.0726  0.9470
  303SOL    HW2 1809   5.362   0.863   1.460 -1.1074 -1.0760  1.8178
  304SOL     OW 1810   2.437   1.193   4.093  0.0644  0.2350  0.0077
  304SOL    HW1 1811   2.367   1.177   4.024 -1.7126 -2.0024  2.1631
  304SOL    HW2 1812   2.522   1.147   4.066  0.0248  0.9925 -1.5161
  305SOL     OW 1813   2.024   3.493   1.270 -0.5431  0.1367 -0.3217
  305SOL    HW1 1814   1.960   3.564   1.241  0.1426  1.1948  0.6670
  305SOL    HW2 1815   2.015   3.478   1.369  2.6365  2.4178  0.4836
  306SOL     OW 1816   2.327   6.815   3.971  0.4301  0.1563 -0.0248
  306SOL    HW1 1817   2.348   6.749   3.899 -1.1857  0.7869 -1.1446
  306SOL    HW2 1818   2.354   6.778   4.060  0.5920 -1.5244 -0.7408
  307SOL     OW 1819   4.192   1.209   6.850 -0.4942 -0.4744  0.4897
  307SOL    HW1 1820   4.129   1.153   6.796  1.6273 -1.6861 -0.8433
  307SOL    HW2 1821   4.238   1.152   6.918 -0.8763  0.4251  1.5474
  308SOL     OW 1822   0.348   3.144   5.911  0.2385  0.0961  0.0490
  308SOL    HW1 1823   0.351   3.142   5.811 -1.6149  1.6096 -0.0759
  308SOL    HW2 1824   0.346   3.050   5.946 -1.0863 -0.4646 -1.4182
  309SOL     OW 1825   4.351   4.278   6.296 -0.0644 -0.2089 -0.0443
  309SOL    HW1 1826   4.368   4.343   6.370  0.6455  0.5273 -0.8298
  309SOL    HW2 1827   4.319   4.192   6.334  0.1834  0.1916  1.1125
  310SOL     OW 1828   0.673   5.776   3.325 -0.0889  0.1934 -0.2663
  310SOL    HW1 1829   0.699   5.683   3.297  0.1709  0.3725 -0.6118
  310SOL    HW2 1830   0.579   5.793   3.297 -1.0871 -0.9079  2.0642
  311SOL     OW 1831   5.275   5.336   1.549 -0.4052 -0.1717 -0.3436
  311SOL    HW1 1832   5.300   5.405   1.617  0.4409 -1.2282  0.4481
  311SOL    HW2 1833   5.293   5.372   1.457  3.9721 -0.6778  0.0886
  312SOL     OW 1834   3.982   0.429   3.786 -0.0677 -0.1743 -0.6805
  312SOL    HW1 1835   3.941   0.483   3.713  1.9720  1.8275 -0.4650
  312SOL    HW2 1836   3.944   0.457   3.874  0.5527  0.5355 -0.6256
  313SOL     OW 1837   4.032   4.198   0.824 -0.2963 -0.0996 -0.2204
  313SOL    HW1 1838   4.090   4.254   0.883 -0.4583 -2.9101  2.9035
  313SOL    HW2 1839   3.938   4.199   0.860 -0.8802 -0.3204 -1.6783
  314SOL     OW 1840   4.489   5.017   6.678 -0.5511 -0.1035  0.3969
  314SOL    HW1 1841   4.481   5.116   6.669  1.5095  0.0236 -0.9344
  314SOL    HW2 1842   4.406   4.973   6.644 -0.4794  1.1273 -1.5158
  315SOL     OW 1843   1.754   1.944   2.286 -0.2078 -0.4838 -0.4598
  315SOL    HW1 1844   1.727   1.925   2.192  1.3016 -2.1981 -0.6070
  315SOL    HW2 1845   1.816   2.022   2.289 -1.4999  0.5954 -0.6444
  316SOL     OW 1846   1.936   2.042   4.234  0.7604 -0.0417  0.0559
  316SOL    HW1 1847   1.877   2.029   4.154  1.6223 -3.4147 -0.1509
  316SOL    HW2 1848   1.998   2.119   4.217 -2.2520  2.4730 -0.4265
  317SOL     OW 1849   0.774   6.600   0.644  0.5372 -1.0886  0.1779
  317SOL    HW1 1850   0.728   6.512   0.635 -0.0086 -1.1918  2.9982
  317SOL    HW2 1851   0.739   6.649   0.724  1.5618  1.2659 -0.6941
  318SOL     OW 1852   1.035   5.951   5.677  0.0727 -0.1427 -0.3298
  318SOL    HW1 1853   1.100   5.876   5.691 -0.0798 -0.5098 -1.4789
  318SOL    HW2 1854   1.074   6.018   5.614 -0.5616 -0.2540 -0.8553
  319SOL     OW 1855   6.294   5.814   3.589  0.4675  0.8358  0.3148
  319SOL    HW1 1856   6.352   5.733   3.597  0.2349  0.5064 -1.1526
  319SOL    HW2 1857   6.200   5.786   3.568  1.1097  1.4541 -4.5186
  320SOL     OW 1858   6.137   3.218   6.951  0.0938 -0.2673 -0.0965
  320SOL    HW1 1859   6.049   3.195   6.907 -0.9510 -0.8693  2.1836
  320SOL    HW2 1860   6.146   3.317   6.957 -1.1592 -0.1887  0.9600
  321SOL     OW 1861   2.379   1.307   1.098 -0.5404 -0.4960 -0.9633
  321SOL    HW1 1862   2.464   1.280   1.053  1.2554  0.6017  1.5064
  321SOL    HW2 1863   2.349   1.395   1.061 -0.2841 -0.6189 -1.4761
  322SOL     OW 1864   3.255   3.785   3.597 -0.2253 -0.3418  0.5058
  322SOL    HW1 1865   3.286   3.692   3.576 -1.0216 -0.6123  0.4712
  322SOL    HW2 1866   3.219   3.827   3.514  2.2003  0.8608 -0.0104
  323SOL     OW 1867   2.464   3.460   6.942  0.1337  0.2550 -0.0628
  323SOL    HW1 1868   2.382   3.403   6.948  0.2422 -0.1591 -1.9182
  323SOL    HW2 1869   2.497   3.462   6.847  1.0001  2.1936  0.2149
  324SOL     OW 1870   3.067   2.347   6.439  0.0967  0.3072 -0.3302
  324SOL    HW1 1871   2.999   2.343   6.511  0.7685  1.3146  0.3862
  324SOL    HW2 1872   3.074   2.441   6.405  1.0953  0.2135 -0.4109
  325SOL     OW 1873   1.310   2.441   1.105 -0.0381  0.9688  0.6342
  325SOL    HW1 1874   1.360   2.523   1.078 -1.6857  1.7899 -0.0045
  325SOL    HW2 1875   1.256   2.460   1.187 -1.7604  1.0709 -0.4878
  326SOL     OW 1876   0.398   5.873   5.624  0.4251 -0.6157 -0.1397
  326SOL    HW1 1877   0.487   5.888   5.668  0.9515 -0.5181 -1.1927
  326SOL    HW2 1878   0.402   5.905   5.529 -0.2327 -2.0762 -0.6925
  327SOL     OW 1879   2.943   5.011   4.199  0.0074 -0.0693  0.0939
  327SOL    HW1 1880   2.985   5.066   4.271 -0.6965 -1.3398  1.5227
  327SOL    HW2 1881   3.009   4.999   4.124  0.2716  2.4216 -0.1628
  328SOL     OW 1882   0.864   3.891   1.728 -0.9159  0.1961 -0.4979
  328SOL    HW1 1883   0.858   3.872   1.827  1.2111 -0.3321 -0.4117
  328SOL    HW2 1884   0.912   3.815   1.683 -0.7803  0.9958 -1.7421
  329SOL     OW 1885   3.269   4.136   3.871 -0.1144  0.4130 -0.1246
  329SOL    HW1 1886   3.345   4.181   3.917 -1.6744  1.9327  1.1000
  329SOL    HW2 1887   3.266   4.166   3.775 -0.2829  1.8697  0.3104
  330SOL     OW 1888   2.613   0.320   0.110 -0.0237  0.8016 -0.1162
  330SOL    HW1 1889   2.698   0.371   0.117 -1.1744  2.7261  0.8042
  330SOL    HW2 1890   2.590   0.280   0.199  0.7281 -1.1719 -0.7655
  331SOL     OW 1891   3.611   5.141   6.678  0.6315 -0.3603  0.0042
  331SOL    HW1 1892   3.539   5.124   6.611  0.2093  0.9858  0.0893
  331SOL    HW2 1893   3.661   5.056   6.696 -0.3594 -1.1121 -0.7165
  332SOL     OW 1894   3.688   1.373   4.381 -0.2770 -0.1654 -0.0026
  332SOL    HW1 1895   3.704   1.400   4.476 -2.0170 -0.4870  0.4333
  332SOL    HW2 1896   3.734   1.437   4.320  2.3353 -0.9412  1.0245
  333SOL     OW 1897   2.555   0.115   4.209  0.0999  0.3405  0.5501
  333SOL    HW1 1898   2.648   0.151   4.217 -0.5620  1.8334  2.0547
  333SOL    HW2 1899   2.518   0.138   4.119  1.3396 -0.7530 -0.2860
  334SOL     OW 1900   2.028   1.330   2.276  0.1527 -0.1536 -0.3610
  334SOL    HW1 1901   2.082   1.311   2.194 -0.4912 -0.9652 -0.6216
  334SOL    HW2 1902   2.088   1.343   2.354  0.7730  0.5200 -0.9351
  335SOL     OW 1903   5.535   6.086   6.040 -0.3171  0.5786  0.5211
  335SOL    HW1 1904   5.582   6.169   6.011 -0.5442  1.3619  2.2468
  335SOL    HW2 1905   5.437   6.094   6.020 -0.3675  0.8266  0.8470
  336SOL     OW 1906   1.560   0.402   3.779 -0.0424 -0.0704 -0.4851
  336SOL    HW1 1907   1.595   0.468   3.712  0.1949 -0.0254 -0.3196
  336SOL    HW2 1908   1.479   0.439   3.823  1.0870  0.9093  0.8913
  337SOL     OW 1909   2.325   5.234   6.793  0.1343  0.7650 -0.3317
  337SOL    HW1 1910   2.386   5.302   6.835  2.1001  0.0753 -1.9707
  337SOL    HW2 1911   2.323   5.247   6.694 -0.6508 -0.6462 -0.5271
  338SOL     OW 1912   1.934   1.995   6.665  0.0209 -0.1040 -0.4587
  338SOL    HW1 1913   1.865   2.043   6.611  0.5255  0.7860 -0.3259
  338SOL    HW2 1914   2.025   2.030   6.644  0.2454  0.1576  0.8280
  339SOL     OW 1915   3.792   6.394   3.392  0.0567  0.3186 -0.1446
  339SOL    HW1 1916   3.747   6.345   3.466  1.0727  2.5704  2.1055
  339SOL    HW2 1917   3.891   6.379   3.397  0.0624 -0.5450 -1.9228
  340SOL     OW 1918   5.515   5.764   6.368  0.1212  0.3361  0.3337
  340SOL    HW1 1919   5.488   5.859   6.356  0.5653  0.2309 -1.8550
  340SOL    HW2 1920   5.542   5.725   6.280 -0.2688 -1.8980  1.1336
  341SOL     OW 1921   6.541   2.408   6.304  0.0709  0.6765  0.0805
  341SOL    HW1 1922   6.487   2.405   6.219 -0.9541 -1.4601  0.7445
  341SOL    HW2 1923   6.632   2.444   6.284  0.0907 -0.4075 -2.0663
  342SOL     OW 1924   6.197   3.637   6.523  0.2657  0.5958  0.7145
  342SOL    HW1 1925   6.155   3.726   6.504 -1.1948 -0.4898 -1.7710
  342SOL    HW2 1926   6.138   3.584   6.584  0.3613  0.7707  0.9582
  343SOL     OW 1927   0.558   4.600   1.378  0.0937 -0.6671 -0.2523
  343SOL    HW1 1928   0.598   4.530   1.318  2.4257 -0.3755  0.8427
  343SOL    HW2 1929   0.508   4.556   1.452 -1.5472 -1.0511 -1.5328
  344SOL     OW 1930   1.440   6.757   1.213 -0.3090  0.2050  0.1790
  344SOL    HW1 1931   1.510   6.691   1.239 -1.8678 -1.0677  1.3412
  344SOL    HW2 1932   1.423   6.820   1.288 -0.7838  0.1478  0.1267
  345SOL     OW 1933   5.923   1.099   2.738  0.0045  0.1149  0.9955
  345SOL    HW1 1934   5.986   1.172   2.709 -0.5339  0.2206  0.0467
  345SOL    HW2 1935   5.974   1.013   2.747  0.2160  0.0814 -0.2705
  346SOL     OW 1936   3.189   0.830   2.058  0.5951  0.3169 -0.6864
  346SOL    HW1 1937   3.162   0.737   2.033 -0.1289  0.1931  0.5160
  346SOL    HW2 1938   3.284   0.830   2.089  1.1028  0.2609 -2.1575
  347SOL     OW 1939   2.111   4.417   4.269  0.4555 -0.8448  0.0094
  347SOL    HW1 1940   2.140   4.323   4.287 -1.1146 -1.3070  0.2761
  347SOL    HW2 1941   2.147   4.477   4.341  1.8352 -1.1451 -0.4023
  348SOL     OW 1942   2.905   3.516   4.410  0.1098 -0.0233 -0.3930
  348SOL    HW1 1943   2.909   3.555   4.502 -0.7825  0.1141 -0.4038
  348SOL    HW2 1944   2.917   3.417   4.416  1.4017  0.1243 -0.2720
  349SOL     OW 1945   0.486   5.425   2.337 -0.2630 -0.6954  0.5560
  349SOL    HW1 1946   0.548   5.417   2.416 -1.6004 -2.4076  1.5004
  349SOL    HW2 1947   0.505   5.511   2.289  0.6752  0.3614  2.6606
  350SOL     OW 1948   3.851   2.022   1.647  0.2211  0.1884  0.0118
  350SOL    HW1 1949   3.852   1.925   1.671 -0.9412  0.2934  0.5532
  350SOL    HW2 1950   3.768   2.065   1.683  1.0492  1.5513  0.3864
  351SOL     OW 1951   1.425   1.354   0.399  0.3758  0.1561  0.2040
  351SOL    HW1 1952   1.395   1.281   0.461  0.6071  0.4639  0.6849
  351SOL    HW2 1953   1.460   1.314   0.314 -1.1442 -0.2286 -0.2751
  352SOL     OW 1954   3.519   2.072   4.446 -0.0867 -0.1508 -0.2755
  352SOL    HW1 1955   3.565   2.137   4.507  0.2658 -0.6666  0.0064
  352SOL    HW2 1956   3.434   2.041   4.487 -1.5026  1.9452 -1.4278
  353SOL     OW 1957   1.928   5.245   2.296 -0.4603 -0.2645 -0.1715
  353SOL    HW1 1958   1.931   5.157   2.248  1.1413 -0.0946 -0.4428
  353SOL    HW2 1959   2.009   5.254   2.353 -0.4611  1.1599 -0.3683
  354SOL     OW 1960   3.119   1.905   0.787  0.1160 -0.1434  0.0353
  354SOL    HW1 1961   3.206   1.946   0.815 -0.2520  0.4871  0.2664
  354SOL    HW2 1962   3.047   1.975   0.788 -0.6790 -0.9442  1.1451
  355SOL     OW 1963   6.985   3.150   2.005 -0.2118 -0.2805  0.3749
  355SOL    HW1 1964   7.023   3.063   2.036 -1.1318 -0.5298  0.8408
  355SOL    HW2 1965   6.946   3.138   1.913  1.0959  0.0599 -0.2476
  356SOL     OW 1966   4.491   5.717   2.988 -0.4367 -0.4036 -1.1973
  356SOL    HW1 1967   4.583   5.695   2.953 -1.5299 -1.8786 -3.4369
  356SOL    HW2 1968   4.477   5.672   3.076  0.8280 -0.5047 -1.0245
  357SOL     OW 1969   0.196   1.744   5.491  0.1134  0.1303  0.3057
  357SOL    HW1 1970   0.191   1.785   5.400 -1.7761 -1.7968 -0.5384
  357SOL    HW2 1971   0.166   1.810   5.560  1.5098  1.5898 -0.4324
  358SOL     OW 1972   5.184   0.867   1.383  0.4051 -0.2323 -0.2351
  358SOL    HW1 1973   5.112   0.936   1.392  0.5541 -0.0575 -0.3794
  358SOL    HW2 1974   5.150   0.791   1.328  0.9875  0.7750 -2.0828
  359SOL     OW 1975   0.727   2.818   1.883  0.4454 -0.1333 -0.4443
  359SOL    HW1 1976   0.793   2.822   1.958  1.6931 -1.0277 -1.4494
  359SOL    HW2 1977   0.761   2.757   1.812 -0.8015  0.5426 -1.6693
  360SOL     OW 1978   6.927   5.377   6.085 -0.7330  0.2174  0.5252
  360SOL    HW1 1979   6.928   5.280   6.107  0.3759  0.3441  1.1211
  360SOL    HW2 1980   7.005   5.399   6.026 -0.9642  0.7555  0.4084
  361SOL     OW 1981   6.192   0.588   3.960 -0.3863 -0.1464  0.0169
  361SOL    HW1 1982   6.249   0.516   3.920 -1.5903 -2.0684  1.6050
  361SOL    HW2 1983   6.244   0.673   3.963  1.1145 -0.9128 -1.8561
  362SOL     OW 1984   5.940   3.146   0.199 -0.8468  0.1899  0.1454
  362SOL    HW1 1985   6.003   3.125   0.273 -1.7865 -2.1145  0.3703
  362SOL    HW2 1986   5.952   3.241   0.170  1.0422  0.4858  1.7552
  363SOL     OW 1987   5.147   5.076   4.968  0.3504 -1.1191  0.0687
  363SOL    HW1 1988   5.129   5.037   5.058  1.4792 -0.6101  0.5252
  363SOL    HW2 1989   5.063   5.073   4.914 -1.0605  0.7566  1.9655
  364SOL     OW 1990   5.429   5.338   6.205  0.0673  0.2719  0.2460
  364SOL    HW1 1991   5.491   5.394   6.259  1.8275 -1.3214 -0.0345
  364SOL    HW2 1992   5.429   5.244   6.241 -0.7889 -0.1799 -0.8814
  365SOL     OW 1993   4.799   4.357   2.781  0.6361  0.5644  0.2874
  365SOL    HW1 1994   4.835   4.365   2.689 -1.8065 -0.1362 -0.8158
  365SOL    HW2 1995   4.772   4.262   2.799 -1.2398  1.1222  0.7286
  366SOL     OW 1996   6.486   0.307   6.885  0.1771 -0.8958 -0.1593
  366SOL    HW1 1997   6.568   0.363   6.900  0.2931 -1.6048  2.3265
  366SOL    HW2 1998   6.421   0.358   6.829  0.6436  1.4049  1.2200
  367SOL     OW 1999   5.939   4.389   0.817 -0.2147  0.0494 -0.0818
  367SOL    HW1 2000   5.870   4.324   0.785 -0.3213 -0.6441  1.4623
  367SOL    HW2 2001   5.893   4.468   0.858 -0.2060 -1.1278  2.3964
  368SOL     OW 2002   6.699   4.557   4.679  0.4927  0.1829 -0.1390
  368SOL    HW1 2003   6.754   4.519   4.753  1.4399  0.7057 -0.5503
  368SOL    HW2 2004   6.625   4.494   4.656  1.2040 -0.7662  0.1158
  369SOL     OW 2005   5.418   6.281   1.978  0.0260 -0.3236 -0.7448
  369SOL    HW1 2006   5.511   6.294   1.943  0.3439  0.7989  0.4275
  369SOL    HW2 2007   5.370   6.215   1.920  0.3204  1.7638 -3.6216
  370SOL     OW 2008   0.892   2.714   4.882  0.2478 -0.0540 -0.6520
  370SOL    HW1 2009   0.872   2.806   4.916  2.8856  0.2585  0.2415
  370SOL    HW2 2010   0.806   2.664   4.870 -1.1575  1.9902  0.3153
  371SOL     OW 2011   2.221   2.240   6.326  0.6418 -0.2667  0.2854
  371SOL    HW1 2012   2.308   2.268   6.366  0.6128  0.4925 -0.1736
  371SOL    HW2 2013   2.188   2.158   6.373  1.1549 -0.0371  1.0653
  372SOL     OW 2014   2.043   1.689   2.823  0.2722 -0.9827  0.1423
  372SOL    HW1 2015   2.048   1.708   2.725 -0.8050 -1.4696 -0.0177
  372SOL    HW2 2016   2.004   1.599   2.837  0.8505 -1.1056  1.0217
  373SOL     OW 2017   0.525   5.493   3.519  0.3318 -0.3963  0.3302
  373SOL    HW1 2018   0.485   5.409   3.557  0.9973 -1.0554 -0.3915
  373SOL    HW2 2019   0.619   5.502   3.551  1.4343 -1.7464 -2.1933
  374SOL     OW 2020   3.373   1.836   3.887 -0.3143 -0.4213 -0.2337
  374SOL    HW1 2021   3.273   1.832   3.890 -0.3081 -1.6723 -0.9413
  374SOL    HW2 2022   3.406   1.890   3.964 -1.5275 -0.0529  0.0586
  375SOL     OW 2023   0.768   5.263   3.513 -0.2496  0.1284  0.0229
  375SOL    HW1 2024   0.822   5.180   3.528 -0.3906  0.2204  1.1289
  375SOL    HW2 2025   0.828   5.343   3.514 -0.4382  0.2873  1.8578
  376SOL     OW 2026   1.514   1.555   5.646  0.0771 -0.4375  0.1183
  376SOL    HW1 2027   1.567   1.498   5.708  0.7484  0.3095  0.2330
  376SOL    HW2 2028   1.575   1.613   5.593 -0.4219 -1.4303 -1.6464
  377SOL     OW 2029   5.891   2.225   1.097  0.6537  0.0225 -0.6257
  377SOL    HW1 2030   5.988   2.205   1.106  0.8120  0.8575 -0.3722
  377SOL    HW2 2031   5.879   2.320   1.067  0.0123 -1.1814 -4.7386
  378SOL     OW 2032   3.614   3.417   0.885 -0.8167 -0.0209 -0.0972
  378SOL    HW1 2033   3.575   3.348   0.824  0.8957 -0.5075 -0.7000
  378SOL    HW2 2034   3.555   3.498   0.886 -0.4342  0.4211 -3.2243
  379SOL     OW 2035   0.105   3.822   0.020  0.3173 -0.1281  0.2671
  379SOL    HW1 2036   0.142   3.884  -0.049 -1.8772 -0.7149 -1.5837
  379SOL    HW2 2037   0.146   3.842   0.109  2.3012  1.5312 -0.9363
  380SOL     OW 2038   1.430   0.644   0.441 -0.5612 -0.0168 -0.1734
  380SOL    HW1 2039   1.451   0.582   0.366  0.3447 -0.4616  0.4211
  380SOL    HW2 2040   1.416   0.736   0.406  1.5824  0.1432 -0.7474
  381SOL     OW 2041   6.217   5.166   1.613  0.2474 -0.1942  0.0898
  381SOL    HW1 2042   6.244   5.121   1.699 -0.1699  1.3319  1.0669
  381SOL    HW2 2043   6.255   5.258   1.611  2.7258 -1.1363 -2.7445
  382SOL     OW 2044   3.584   0.307   6.263 -0.4873  0.3736 -0.0336
  382SOL    HW1 2045   3.503   0.249   6.269 -0.1415  0.0635  2.8492
  382SOL    HW2 2046   3.557   0.399   6.236 -1.6068 -0.0412 -0.3855
  383SOL     OW 2047   4.882   1.338   0.345  0.4451  0.5621 -0.0356
  383SOL    HW1 2048   4.901   1.429   0.310  1.1028  0.7668  0.8072
  383SOL    HW2 2049   4.790   1.334   0.383  0.3093  0.7888 -0.3469
  384SOL     OW 2050   6.255   6.162   4.876  0.0011 -0.3551 -0.3178
  384SOL    HW1 2051   6.185   6.226   4.908  0.6753  0.2741 -0.0740
  384SOL    HW2 2052   6.311   6.133   4.953  0.8326  0.1790 -0.7075
  385SOL     OW 2053   3.459   6.415   4.201  0.0989  0.8373  0.0908
  385SOL    HW1 2054   3.476   6.508   4.235  1.8276  0.4389  0.3988
  385SOL    HW2 2055   3.422   6.359   4.274  2.7100  0.2955  1.1330
  386SOL     OW 2056   2.467   4.483   4.617 -0.3398  0.3005 -0.6125
  386SOL    HW1 2057   2.441   4.557   4.555 -1.9782 -0.0460 -0.3687
  386SOL    HW2 2058   2.487   4.401   4.564  1.3917  0.8463 -0.8762
  387SOL     OW 2059   0.455   5.886   4.559  0.2944 -0.3361 -0.1947
  387SOL    HW1 2060   0.394   5.965   4.551  1.0846  0.4610  1.3006
  387SOL    HW2 2061   0.443   5.844   4.649  0.4172 -1.4879 -0.7028
  388SOL     OW 2062   0.636   2.503   4.139  0.2559 -0.1033  0.0573
  388SOL    HW1 2063   0.610   2.581   4.081  1.2820  0.7957  0.7562
  388SOL    HW2 2064   0.566   2.489   4.209  1.1633  1.7992  1.4474
  389SOL     OW 2065   3.377   3.573   2.576 -0.0004 -0.6175 -0.0465
  389SOL    HW1 2066   3.299   3.518   2.603 -0.8514  0.4315 -0.2751
  389SOL    HW2 2067   3.347   3.644   2.511  0.3189  2.2908  2.7409
  390SOL     OW 2068   3.433   1.517   5.870  0.3238 -0.0175 -0.3418
  390SOL    HW1 2069   3.341   1.519   5.833  0.0476 -0.2736  0.3159
  390SOL    HW2 2070   3.448   1.430   5.918  0.8139  0.1356 -0.2054
  391SOL     OW 2071   0.710   5.061   6.578 -0.3721  0.4804 -0.1371
  391SOL    HW1 2072   0.731   5.010   6.494 -0.4622  0.6779 -0.2796
  391SOL    HW2 2073   0.671   4.998   6.645 -0.4101  0.3423 -0.2865
  392SOL     OW 2074   2.156   5.398   1.735  0.1472 -0.0157  0.0361
  392SOL    HW1 2075   2.253   5.403   1.758 -0.0695 -0.8717  1.2789
  392SOL    HW2 2076   2.106   5.353   1.810 -1.1113 -0.1672 -0.8497
  393SOL     OW 2077   2.697   5.207   1.329  0.1528 -0.2583  0.6862
  393SOL    HW1 2078   2.621   5.216   1.265  0.2784 -0.0244  0.5656
  393SOL    HW2 2079   2.681   5.130   1.390 -0.1233 -0.2821  0.5845
  394SOL     OW 2080   1.429   1.504   1.452 -0.0102  0.4099 -0.6645
  394SOL    HW1 2081   1.428   1.411   1.414 -0.0240  0.7545 -1.5308
  394SOL    HW2 2082   1.441   1.499   1.551 -1.4988 -0.5745 -0.5071
  395SOL     OW 2083   4.877   3.813   4.005  0.0040 -0.5531  0.1449
  395SOL    HW1 2084   4.948   3.884   4.002  0.8335 -1.3333  0.7314
  395SOL    HW2 2085   4.798   3.848   4.055  0.4410 -0.0692  0.5218
  396SOL     OW 2086   3.575   3.043   2.022 -0.2145  0.6748 -0.3851
  396SOL    HW1 2087   3.580   2.944   2.040 -1.5234  0.1453 -2.5910
  396SOL    HW2 2088   3.499   3.082   2.074 -0.4580  0.2890 -0.4489
  397SOL     OW 2089   4.459   0.492   5.682  0.7627  0.1618  0.5221
  397SOL    HW1 2090   4.499   0.513   5.771 -1.0952  2.0162  1.0174
  397SOL    HW2 2091   4.365   0.461   5.694 -0.1110  2.0586 -0.7805
  398SOL     OW 2092   2.300   6.778   2.778 -0.6411  0.9073 -0.0895
  398SOL    HW1 2093   2.384   6.756   2.727 -1.6947  0.1296 -1.5662
  398SOL    HW2 2094   2.318   6.855   2.839  1.7638 -0.6344  1.3542
  399SOL     OW 2095   4.566   1.422   4.376 -0.2195  0.2434  0.1925
  399SOL    HW1 2096   4.575   1.347   4.309 -1.3033  0.2872 -0.0193
  399SOL    HW2 2097   4.636   1.490   4.359 -1.8648  1.4208 -2.4580
  400SOL     OW 2098   5.821   5.433   0.086 -0.4426  0.7456  0.1813
  400SOL    HW1 2099   5.783   5.411  -0.004 -0.6281 -1.7858  0.7874
  400SOL    HW2 2100   5.912   5.393   0.095 -0.2549  1.3210  0.9628
  401SOL     OW 2101   4.589   0.709   6.707 -0.1664  0.0196 -0.0470
  401SOL    HW1 2102   4.528   0.772   6.660 -1.0621  0.9637  2.2340
  401SOL    HW2 2103   4.539   0.626   6.730  0.5216 -0.8286 -1.4817
  402SOL     OW 2104   6.422   2.212   4.092  0.0152  0.1985 -0.0104
  402SOL    HW1 2105   6.345   2.205   4.028 -0.1443 -0.1813  0.2196
  402SOL    HW2 2106   6.452   2.121   4.119  0.1869  0.3520  0.3294
  403SOL     OW 2107   3.647   6.512   5.474 -0.2441 -0.1610  0.0899
  403SOL    HW1 2108   3.704   6.446   5.425 -0.3277  0.8373 -1.3951
  403SOL    HW2 2109   3.703   6.589   5.504 -0.3960 -0.2708  0.6825
  404SOL     OW 2110   0.904   3.833   5.302  0.0606 -0.3712 -0.1434
  404SOL    HW1 2111   0.884   3.738   5.277  0.2511 -1.7053  4.0833
  404SOL    HW2 2112   0.818   3.880   5.323  0.0967 -0.1779 -0.4254
  405SOL     OW 2113   1.858   3.195   3.805 -0.5949  0.1271  0.2119
  405SOL    HW1 2114   1.880   3.181   3.709 -1.8022 -1.8049  0.1581
  405SOL    HW2 2115   1.937   3.172   3.862 -0.9858 -2.3880 -0.1724
  406SOL     OW 2116   0.636   3.934   5.237  0.2648  0.1634 -0.4530
  406SOL    HW1 2117   0.608   3.883   5.155 -0.1001  1.0677 -0.9043
  406SOL    HW2 2118   0.672   4.023   5.209  0.6382  0.2690  0.3479
  407SOL     OW 2119   0.264   3.473   4.148  0.2594  0.3738  0.5035
  407SOL    HW1 2120   0.344   3.418   4.123  0.0325  0.3578 -0.2081
  407SOL    HW2 2121   0.294   3.564   4.177  0.5175  0.4978 -0.1352
  408SOL     OW 2122   4.446   2.103   3.541  0.3370 -0.6330  0.0108
  408SOL    HW1 2123   4.440   2.061   3.631 -0.0599 -0.1496  0.2137
  408SOL    HW2 2124   4.424   2.035   3.471  0.3267 -0.9242  0.2964
  409SOL     OW 2125   5.013   2.417   0.230 -0.1476  0.1780 -0.2116
  409SOL    HW1 2126   5.083   2.475   0.188 -0.1216 -0.0576 -0.4930
  409SOL    HW2 2127   4.923   2.457   0.213 -0.1090  0.2938 -0.1495
  410SOL     OW 2128   0.678   2.386   0.824  0.1369 -0.3250 -0.1249
  410SOL    HW1 2129   0.765   2.413   0.864  0.1744 -2.6748  1.6182
  410SOL    HW2 2130   0.695   2.334   0.740  0.3820 -0.0772 -0.2277
  411SOL     OW 2131   6.598   0.863   6.607 -0.0541 -0.1656 -0.6253
  411SOL    HW1 2132   6.687   0.816   6.601 -1.1329 -2.2204 -1.7686
  411SOL    HW2 2133   6.598   0.941   6.545  1.0166 -0.0119 -0.4562
  412SOL     OW 2134   5.119   4.533   3.420 -0.1946  0.4986 -0.3226
  412SOL    HW1 2135   5.188   4.566   3.356  0.4544  0.0025  0.1113
  412SOL    HW2 2136   5.154   4.538   3.513 -0.8190  0.4232 -0.0763
  413SOL     OW 2137   4.476   3.319   0.847 -0.4325 -0.1920 -0.5290
  413SOL    HW1 2138   4.417   3.305   0.927  0.1970  0.8810  0.1470
  413SOL    HW2 2139   4.420   3.330   0.765 -1.0939 -1.1216 -0.2142
  414SOL     OW 2140   4.730   6.328   4.074 -0.0958 -0.2570  0.3710
  414SOL    HW1 2141   4.662   6.397   4.099 -1.1205 -1.9703  2.7031
  414SOL    HW2 2142   4.691   6.237   4.085  1.4859 -1.2878 -1.8021
  415SOL     OW 2143   0.945   6.742   5.481  0.3329 -0.1375 -0.4544
  415SOL    HW1 2144   0.874   6.782   5.423 -2.7440 -3.1020  0.8831
  415SOL    HW2 2145   0.961   6.648   5.454 -1.0160 -1.5652  3.0669
  416SOL     OW 2146   4.755   4.421   5.231  0.4901 -0.7935  0.3634
  416SOL    HW1 2147   4.728   4.516   5.212  0.0188 -0.9277  0.3460
  416SOL    HW2 2148   4.678   4.360   5.209  0.9275 -1.2164 -0.0148
  417SOL     OW 2149   2.424   7.006   0.007  0.6738 -0.2072 -0.0088
  417SOL    HW1 2150   2.350   6.983  -0.056  0.4799  1.4477 -0.4332
  417SOL    HW2 2151   2.512   6.985  -0.036  0.5006 -1.2600  0.1163
  418SOL     OW 2152   0.362   0.057   5.334  0.0991  0.0593 -0.3836
  418SOL    HW1 2153   0.337   0.086   5.241 -0.3938 -1.5348 -0.7814
  418SOL    HW2 2154   0.360   0.136   5.395 -0.1440  1.0368 -1.6113
  419SOL     OW 2155   1.612   1.114   3.075  0.3086  0.1321  0.1018
  419SOL    HW1 2156   1.631   1.205   3.037 -1.4208  0.4625 -0.0404
  419SOL    HW2 2157   1.585   1.124   3.171  0.4947 -0.2780  0.1976
  420SOL     OW 2158   5.906   1.659   0.832 -0.5386 -0.2131 -0.0210
  420SOL    HW1 2159   5.843   1.610   0.772 -1.6336  0.4435  0.5611
  420SOL    HW2 2160   6.000   1.634   0.810 -0.6935  1.7180 -3.6376
  421SOL     OW 2161   5.330   2.702   5.517  0.1430  0.4514 -0.2860
  421SOL    HW1 2162   5.390   2.624   5.534 -0.3251 -0.0808 -1.0610
  421SOL    HW2 2163   5.386   2.782   5.492  0.8056  1.0142  2.6143
  422SOL     OW 2164   5.549   1.039   1.013  0.4384  0.1630  0.3999
  422SOL    HW1 2165   5.554   1.110   1.082 -0.4815  1.1872 -0.5381
  422SOL    HW2 2166   5.477   0.973   1.038 -1.4470  1.7333 -0.5761
  423SOL     OW 2167   0.562   0.172   6.263  0.5151  0.0264 -0.2185
  423SOL    HW1 2168   0.592   0.153   6.357  0.3959 -0.4361 -0.2743
  423SOL    HW2 2169   0.604   0.258   6.232 -1.4295  1.5939  1.1674
  424SOL     OW 2170   1.185   6.284   2.730  0.0698 -0.4895 -0.0700
  424SOL    HW1 2171   1.108   6.349   2.727 -1.5300 -2.2114  1.2268
  424SOL    HW2 2172   1.250   6.314   2.800  0.6438  0.9925 -1.1804
  425SOL     OW 2173   4.853   1.336   3.890  0.2406  0.3249 -0.2056
  425SOL    HW1 2174   4.934   1.395   3.890  0.7287 -0.3216 -0.9794
  425SOL    HW2 2175   4.771   1.392   3.900  0.8024  0.9272  1.3481
  426SOL     OW 2176   2.574   4.595   4.167 -0.5368  0.2018 -0.0882
  426SOL    HW1 2177   2.533   4.543   4.092  0.9762  1.9859 -2.2848
  426SOL    HW2 2178   2.566   4.693   4.148 -1.3464  0.8131  2.8371
  427SOL     OW 2179   5.780   6.282   4.692 -0.2494 -0.1600 -0.1366
  427SOL    HW1 2180   5.825   6.194   4.680 -1.5142 -0.6542 -1.6580
  427SOL    HW2 2181   5.740   6.287   4.783  2.0639 -0.0399  0.9359
  428SOL     OW 2182   1.634   6.687   0.301  0.5733 -0.0487 -0.1873
  428SOL    HW1 2183   1.598   6.721   0.388 -0.2901  0.2049 -0.6370
  428SOL    HW2 2184   1.577   6.612   0.268  0.6726  0.1049 -0.7175
  429SOL     OW 2185   0.995   5.118   5.658 -0.3233  0.0445 -0.8603
  429SOL    HW1 2186   0.970   5.044   5.721 -0.8590  0.1591 -0.9327
  429SOL    HW2 2187   0.953   5.204   5.688 -3.6099 -0.5189 -3.2313
  430SOL     OW 2188   2.220   6.297   2.379  0.2584  0.1147 -0.1413
  430SOL    HW1 2189   2.188   6.261   2.291  4.6806 -0.6535 -1.7084
  430SOL    HW2 2190   2.234   6.220   2.442 -1.0144  0.4515  0.5749
  431SOL     OW 2191   3.032   5.506   6.363  0.1530  0.1939 -0.4412
  431SOL    HW1 2192   2.938   5.530   6.339 -0.2752 -0.6541  0.3277
  431SOL    HW2 2193   3.092   5.583   6.342 -0.7156  0.7759 -0.8781
  432SOL     OW 2194   0.533   1.999   1.915 -0.0015 -0.4803  0.2918
  432SOL    HW1 2195   0.512   1.928   1.983 -1.1080 -1.0622 -0.6173
  432SOL    HW2 2196   0.448   2.037   1.880  0.4903 -1.0079 -1.5837
  433SOL     OW 2197   1.057   5.696   6.117  0.5867  0.4936  0.0213
  433SOL    HW1 2198   1.110   5.642   6.183  2.6579 -0.2420 -2.0905
  433SOL    HW2 2199   1.059   5.792   6.144 -1.1456 -0.0869  2.5545
  434SOL     OW 2200   5.147   5.854   3.612 -0.3078  0.9082  0.0963
  434SOL    HW1 2201   5.182   5.772   3.568  0.3917  0.8962  0.6491
  434SOL    HW2 2202   5.195   5.934   3.575  0.5368  0.8686  1.0475
  435SOL     OW 2203   3.839   4.339   6.627  0.0878  0.0108  0.5532
  435SOL    HW1 2204   3.800   4.391   6.552  1.0197  2.4021  1.6289
  435SOL    HW2 2205   3.939   4.338   6.619  0.1017 -1.7981  0.4875
  436SOL     OW 2206   3.560   5.385   3.484 -0.2527 -0.5715  0.0555
  436SOL    HW1 2207   3.598   5.405   3.574 -0.7794 -0.4851  0.2654
  436SOL    HW2 2208   3.504   5.302   3.489 -1.6368  0.3291  0.2105
  437SOL     OW 2209   1.665   5.755   5.886  0.0737  0.2004 -0.0400
  437SOL    HW1 2210   1.595   5.808   5.933  0.2028  0.2273  0.1244
  437SOL    HW2 2211   1.654   5.765   5.787 -0.0855  0.2932 -0.0130
  438SOL     OW 2212   1.229   3.108   3.903 -0.0526  0.5499 -0.3372
  438SOL    HW1 2213   1.242   3.023   3.851 -0.4786  0.6187 -0.5625
  438SOL    HW2 2214   1.303   3.172   3.880  0.4134  0.1528  0.0239
  439SOL     OW 2215   0.525   6.474   2.568 -0.3157 -0.2151 -0.2371
  439SOL    HW1 2216   0.534   6.384   2.609 -2.2496 -0.5761 -0.4983
  439SOL    HW2 2217   0.589   6.483   2.491  0.5775 -0.9723  0.3950
  440SOL     OW 2218   5.314   1.651   6.940  0.3703 -0.4064  0.3292
  440SOL    HW1 2219   5.328   1.553   6.953 -0.2688 -0.5008  0.3378
  440SOL    HW2 2220   5.225   1.666   6.898  0.7351  0.1358 -0.2630
  441SOL     OW 2221   0.851   3.957   3.094 -1.0698 -0.2232  0.7108
  441SOL    HW1 2222   0.889   4.013   3.168 -0.5227 -2.0247  1.8655
  441SOL    HW2 2223   0.821   3.869   3.132 -0.0272 -1.5264 -1.3383
  442SOL     OW 2224   6.490   1.012   5.490 -0.2877 -0.1551  0.5057
  442SOL    HW1 2225   6.397   0.991   5.521 -0.9281 -0.1845 -1.3361
  442SOL    HW2 2226   6.509   1.109   5.505 -1.1618  0.1693 -0.4119
  443SOL     OW 2227   5.409   3.825   5.333 -0.2283  0.1451 -0.0387
  443SOL    HW1 2228   5.445   3.856   5.246  0.4506 -0.5238 -0.0002
  443SOL    HW2 2229   5.350   3.897   5.372 -1.0478  0.2049 -1.3187
  444SOL     OW 2230   3.809   0.768   6.770  0.2809 -0.7698  0.8844
  444SOL    HW1 2231   3.728   0.812   6.808  1.3126  0.7954  1.4001
  444SOL    HW2 2232   3.849   0.826   6.699  0.2648 -2.1077 -0.2571
  445SOL     OW 2233   0.155   5.751   3.407  0.3840 -0.0388  0.2840
  445SOL    HW1 2234   0.119   5.663   3.374  2.3083 -0.4141 -0.9423
  445SOL    HW2 2235   0.086   5.822   3.392 -0.0137 -0.7671 -1.7253
  446SOL     OW 2236   3.986   6.129   1.846 -0.2362 -0.5926 -0.0360
  446SOL    HW1 2237   4.008   6.210   1.792 -0.2812 -1.6499 -1.7137
  446SOL    HW2 2238   3.904   6.146   1.900 -0.8658  0.1403 -1.1815
  447SOL     OW 2239   5.491   2.550   6.727 -0.1539  0.4243 -0.4467
  447SOL    HW1 2240   5.580   2.562   6.772 -0.1975  0.9933 -0.4977
  447SOL    HW2 2241   5.492   2.467   6.671 -0.2839 -0.6205  1.0317
  448SOL     OW 2242   2.467   0.913   3.300  0.3719  0.8810 -0.4603
  448SOL    HW1 2243   2.528   0.916   3.379  2.0975  0.6626 -1.7149
  448SOL    HW2 2244   2.390   0.974   3.315  1.1483  1.5604  0.9942
  449SOL     OW 2245   1.926   3.056   4.565 -0.1969  0.0266  0.4230
  449SOL    HW1 2246   1.974   3.111   4.633  0.0673 -0.4351  0.6202
  449SOL    HW2 2247   1.965   3.072   4.475 -2.3936  2.8338 -0.1599
  450SOL     OW 2248   1.207   4.505   3.804 -0.2552  0.2805  0.2188
  450SOL    HW1 2249   1.128   4.453   3.772  0.1169 -1.0984  1.4192
  450SOL    HW2 2250   1.176   4.590   3.848 -1.0702 -0.2968  0.7665
  451SOL     OW 2251   5.801   2.616   4.061 -0.1466  0.2164 -0.9926
  451SOL    HW1 2252   5.872   2.656   4.003  2.9779 -0.6538  1.9353
  451SOL    HW2 2253   5.746   2.690   4.101 -0.4032  0.9653 -2.6525
  452SOL     OW 2254   3.448   4.572   1.511 -0.2085 -0.4980 -0.3602
  452SOL    HW1 2255   3.369   4.514   1.531 -1.1347 -0.0363 -2.4629
  452SOL    HW2 2256   3.528   4.537   1.562 -1.2696 -2.1812  0.2515
  453SOL     OW 2257   3.077   5.981   5.138 -0.0177  0.0550  0.9728
  453SOL    HW1 2258   3.151   5.958   5.076 -1.0479 -3.2316  0.7768
  453SOL    HW2 2259   2.996   6.008   5.086 -0.0147  0.1689  1.0260
  454SOL     OW 2260   0.459   4.656   6.568 -0.0493  0.3362  0.2229
  454SOL    HW1 2261   0.503   4.597   6.501 -0.5778  0.0883  0.0902
  454SOL    HW2 2262   0.376   4.612   6.603 -0.7793  1.2326 -0.3213
  455SOL     OW 2263   5.193   1.765   5.736  0.2623 -0.4610  0.3229
  455SOL    HW1 2264   5.102   1.726   5.725  0.6750 -0.8444 -2.3485
  455SOL    HW2 2265   5.187   1.865   5.737 -0.1059 -0.4150 -1.7461
  456SOL     OW 2266   1.289   0.317   3.124 -0.1899  0.1284  0.4988
  456SOL    HW1 2267   1.368   0.333   3.065 -0.6378  1.1902  0.1654
  456SOL    HW2 2268   1.295   0.375   3.204 -1.8937  2.2188 -0.7743
  457SOL     OW 2269   0.839   3.671   3.098 -0.5651  0.2251 -0.0754
  457SOL    HW1 2270   0.822   3.657   3.000  0.8112 -1.7682 -0.0911
  457SOL    HW2 2271   0.775   3.616   3.151  0.5814 -1.0767  0.0278
  458SOL     OW 2272   3.082   0.272   3.602 -0.0144  0.6865  0.0331
  458SOL    HW1 2273   3.179   0.283   3.581  0.0192 -0.7743 -0.7386
  458SOL    HW2 2274   3.028   0.286   3.519 -0.5341  2.0773  0.5795
  459SOL     OW 2275   1.730   0.130   4.232  1.0225 -0.1023  0.2632
  459SOL    HW1 2276   1.731   0.190   4.312  0.1618  0.7075 -0.3056
  459SOL    HW2 2277   1.693   0.041   4.257 -0.4869  0.5606  0.5199
  460SOL     OW 2278   6.212   6.950   4.564 -0.1497  0.0682 -0.2300
  460SOL    HW1 2279   6.195   6.957   4.465  0.9682 -0.5667 -0.4861
  460SOL    HW2 2280   6.310   6.942   4.580 -0.2491  1.0392  1.0072
  461SOL     OW 2281   0.073   5.363   5.852 -0.1624  0.5882  0.3014
  461SOL    HW1 2282   0.164   5.324   5.844 -0.4091  0.1866 -0.6750
  461SOL    HW2 2283   0.063   5.440   5.788 -0.8634 -0.0965 -0.4463
  462SOL     OW 2284   3.867   3.135   5.847  0.0625  0.0780 -0.0542
  462SOL    HW1 2285   3.895   3.183   5.930 -1.8834  0.3084  0.5283
  462SOL    HW2 2286   3.942   3.079   5.813  1.9349  2.3455  0.0972
  463SOL     OW 2287   6.071   1.385   3.904  1.1730 -0.0133 -0.4518
  463SOL    HW1 2288   6.012   1.465   3.905  1.0771 -0.0360  1.7903
  463SOL    HW2 2289   6.032   1.314   3.845  0.0509  0.7329 -0.6209
  464SOL     OW 2290   2.781   0.072   4.847  0.0613  0.3023  0.1553
  464SOL    HW1 2291   2.719   0.147   4.823 -0.3775  0.2480  1.0936
  464SOL    HW2 2292   2.830   0.094   4.931  0.6001 -0.0849 -0.0491
  465SOL     OW 2293   0.803   4.135   6.613 -0.3501  0.4092 -0.2037
  465SOL    HW1 2294   0.722   4.084   6.585  0.5179 -1.3271  0.2587
  465SOL    HW2 2295   0.885   4.087   6.582  0.5351  0.8994  1.2534
  466SOL     OW 2296   3.611   6.244   3.206  0.1033  0.1425 -0.1646
  466SOL    HW1 2297   3.661   6.326   3.231  0.7105  1.4745 -4.8317
  466SOL    HW2 2298   3.671   6.164   3.210  1.1437  0.8808 -0.7513
  467SOL     OW 2299   0.317   6.275   1.997 -1.3315 -0.1462  0.7191
  467SOL    HW1 2300   0.251   6.336   1.954 -1.2844 -0.2641  0.4800
  467SOL    HW2 2301   0.296   6.180   1.973  1.6329 -0.0351 -3.3076
  468SOL     OW 2302   4.271   5.220   5.664 -0.4735  0.2150  0.2069
  468SOL    HW1 2303   4.226   5.143   5.708  0.6783 -0.7973 -0.3213
  468SOL    HW2 2304   4.370   5.202   5.658 -0.5408  0.3150 -2.6398
  469SOL     OW 2305   4.808   5.804   5.078 -0.0749  0.4548  0.2381
  469SOL    HW1 2306   4.861   5.750   5.144  0.9104  1.1524  0.0393
  469SOL    HW2 2307   4.715   5.767   5.071  0.4306 -0.9053  0.4644
  470SOL     OW 2308   4.967   5.859   2.208 -0.7667  0.3208  0.0463
  470SOL    HW1 2309   5.043   5.852   2.143 -1.5924  1.4666 -1.0872
  470SOL    HW2 2310   4.921   5.771   2.215  0.1502 -0.1620  0.1051
  471SOL     OW 2311   3.476   1.694   5.191  0.8116  0.6129  0.0838
  471SOL    HW1 2312   3.480   1.766   5.260  1.3127  1.1235 -0.4751
  471SOL    HW2 2313   3.410   1.719   5.120  2.0107  1.1958 -0.8533
  472SOL     OW 2314   6.455   4.349   6.167 -0.0611 -0.0468  0.3724
  472SOL    HW1 2315   6.481   4.316   6.077  0.2640  1.7773 -0.2224
  472SOL    HW2 2316   6.375   4.297   6.199 -0.9175  0.0777 -1.4703
  473SOL     OW 2317   4.930   1.886   4.204  0.6443 -0.9386 -0.3582
  473SOL    HW1 2318   5.011   1.882   4.146  1.1042  0.9539  0.0924
  473SOL    HW2 2319   4.924   1.976   4.248 -1.1659 -1.3759  0.4008
  474SOL     OW 2320   6.624   5.291   6.183 -0.5693 -0.4036  0.6521
  474SOL    HW1 2321   6.600   5.263   6.090 -2.8149  1.6773  0.5094
  474SOL    HW2 2322   6.703   5.353   6.179 -0.7226 -0.2335  0.1048
  475SOL     OW 2323   7.023   2.883   6.340 -0.3534  0.3535  0.2735
  475SOL    HW1 2324   7.050   2.902   6.245  1.9747 -1.1481  0.5587
  475SOL    HW2 2325   7.006   2.785   6.351 -2.6432  0.7678  0.9996
  476SOL     OW 2326   5.016   3.637   1.840  0.0310  0.3674  0.5860
  476SOL    HW1 2327   5.044   3.732   1.853  0.3639  0.4525 -0.5704
  476SOL    HW2 2328   4.932   3.634   1.786  0.9515 -0.0045 -0.8855
  477SOL     OW 2329   1.797   6.296   3.705 -0.1337  0.1933  0.2824
  477SOL    HW1 2330   1.802   6.201   3.736 -0.7996  0.4665  1.2680
  477SOL    HW2 2331   1.833   6.356   3.777 -1.0400  0.7851  0.2564
  478SOL     OW 2332   2.786   6.049   3.674  0.3702  0.2970  0.2473
  478SOL    HW1 2333   2.782   6.086   3.582 -2.2599  2.3958  1.0770
  478SOL    HW2 2334   2.786   6.125   3.740 -0.6759 -1.1435  1.9933
  479SOL     OW 2335   5.069   1.864   0.243  0.1639  0.8261  0.0730
  479SOL    HW1 2336   4.990   1.849   0.303  0.4169  2.1211  0.7765
  479SOL    HW2 2337   5.149   1.818   0.281 -0.0361  0.2798 -0.1540
  480SOL     OW 2338   1.574   6.668   1.740  0.6404 -0.5664 -0.7380
  480SOL    HW1 2339   1.487   6.637   1.701  0.3109  1.0357 -1.3799
  480SOL    HW2 2340   1.607   6.747   1.688  1.9514 -0.4968  0.1561
  481SOL     OW 2341   0.002   7.015   0.517 -0.1354 -0.2695 -0.1924
  481SOL    HW1 2342  -0.034   7.026   0.610 -2.2798 -0.3616 -0.9661
  481SOL    HW2 2343  -0.059   7.059   0.452  2.0462  0.9783 -1.4923
  482SOL     OW 2344   5.425   0.109   3.504 -0.1643  0.1063  0.1621
  482SOL    HW1 2345   5.505   0.169   3.512  0.0255  0.3018 -2.4073
  482SOL    HW2 2346   5.365   0.143   3.431  0.6462 -3.4671 -2.4635
  483SOL     OW 2347   5.121   1.849   1.529  0.4299 -0.3797  0.1584
  483SOL    HW1 2348   5.220   1.841   1.521  0.5055  0.1292  0.5332
  483SOL    HW2 2349   5.097   1.878   1.622  0.0696  1.7004 -0.5309
  484SOL     OW 2350   0.702   3.775   5.695 -0.4977  0.1792  0.1893
  484SOL    HW1 2351   0.706   3.675   5.682 -1.0093  0.3839 -1.8488
  484SOL    HW2 2352   0.631   3.813   5.636 -1.1419  1.6502  1.8421
  485SOL     OW 2353   5.430   3.859   1.989  0.1325 -0.7574 -0.3330
  485SOL    HW1 2354   5.440   3.814   2.078  0.4720 -1.8468 -0.9003
  485SOL    HW2 2355   5.490   3.939   1.985  2.1247 -2.1666 -0.4694
  486SOL     OW 2356   0.107   2.608   6.283  0.3517 -0.4494  0.1554
  486SOL    HW1 2357   0.048   2.532   6.254 -0.6636  0.2777  0.2692
  486SOL    HW2 2358   0.197   2.598   6.241  1.6759 -3.9663  3.2899
  487SOL     OW 2359   0.293   0.138   2.123 -0.0280 -0.3808  0.4953
  487SOL    HW1 2360   0.281   0.057   2.182 -1.2919 -0.8484 -0.3580
  487SOL    HW2 2361   0.290   0.220   2.179 -2.6471 -0.7283  1.0047
  488SOL     OW 2362   1.032   6.771   2.176  0.1153 -0.0239 -0.1968
  488SOL    HW1 2363   1.053   6.675   2.189 -0.4292 -0.3801 -1.7286
  488SOL    HW2 2364   1.064   6.824   2.254  1.6869 -1.2495  0.0178
  489SOL     OW 2365   5.093   6.023   6.358  0.7626  0.4358 -0.4348
  489SOL    HW1 2366   5.009   5.997   6.405  1.6174 -1.3575  0.2199
  489SOL    HW2 2367   5.071   6.072   6.274 -0.9671 -0.7409 -0.7244
  490SOL     OW 2368   2.282   4.550   5.815 -0.1673 -0.2031 -0.1671
  490SOL    HW1 2369   2.364   4.493   5.805  0.5288  0.8520 -0.7243
  490SOL    HW2 2370   2.201   4.498   5.786  0.2746 -1.3176  0.5425
  491SOL     OW 2371   2.505   2.301   6.387 -0.4338  0.2993  0.0772
  491SOL    HW1 2372   2.548   2.325   6.300 -0.1660  0.1485  0.1642
  491SOL    HW2 2373   2.541   2.213   6.418 -0.2354  0.5320  0.5271
  492SOL     OW 2374   2.266   1.398   4.636 -0.3565 -0.1743 -0.0562
  492SOL    HW1 2375   2.236   1.380   4.543 -0.1588  0.0775 -0.1716
  492SOL    HW2 2376   2.290   1.495   4.645  1.4926 -0.5657 -0.2929
  493SOL     OW 2377   4.340   6.375   5.731  0.0861 -0.3626 -0.0749
  493SOL    HW1 2378   4.314   6.292   5.682 -0.4008 -0.3527  0.1627
  493SOL    HW2 2379   4.342   6.452   5.667  2.8402 -0.9475 -0.8148
  494SOL     OW 2380   1.474   2.262   5.111 -0.2540 -0.4075 -0.3045
  494SOL    HW1 2381   1.485   2.312   5.025 -0.9559  0.5137  0.1282
  494SOL    HW2 2382   1.552   2.280   5.170  0.7243 -1.8347 -1.1172
  495SOL     OW 2383   3.955   5.665   4.408 -0.1249 -0.2510  0.1982
  495SOL    HW1 2384   3.870   5.634   4.450 -0.5500  1.8135  1.0085
  495SOL    HW2 2385   3.952   5.765   4.398  1.2987 -0.3461 -1.8376
  496SOL     OW 2386   6.689   2.325   1.866  0.2077 -0.4856  0.1303
  496SOL    HW1 2387   6.712   2.405   1.811 -1.1129  0.5901  1.0495
  496SOL    HW2 2388   6.767   2.263   1.872  0.9202  0.2296 -1.4561
  497SOL     OW 2389   4.143   6.566   5.590 -0.4771 -0.0321  0.4066
  497SOL    HW1 2390   4.141   6.613   5.501 -0.5721  0.6391  0.7590
  497SOL    HW2 2391   4.083   6.486   5.586  0.7571 -0.9595 -0.6454
  498SOL     OW 2392   0.101   3.919   2.715  0.2567 -0.4502 -0.0969
  498SOL    HW1 2393   0.169   3.875   2.657 -1.4992  0.3204 -2.9783
  498SOL    HW2 2394   0.146   3.963   2.792  2.7779 -1.4086 -0.9140
  499SOL     OW 2395   1.844   4.719   4.519  0.4252  0.6491  0.0229
  499SOL    HW1 2396   1.840   4.765   4.430  1.7754 -2.8229 -2.0341
  499SOL    HW2 2397   1.758   4.671   4.537  0.8643 -0.3242 -0.4320
  500SOL     OW 2398   4.814   3.912   4.276 -0.0653 -0.5633 -0.5171
  500SOL    HW1 2399   4.826   3.818   4.307 -2.4496 -1.0812 -0.9881
  500SOL    HW2 2400   4.888   3.969   4.313  0.8840 -2.4182  0.5681
  501SOL     OW 2401   3.169   0.523   0.200  0.0833 -0.2589  0.2483
  501SOL    HW1 2402   3.072   0.535   0.176  0.2558 -1.4050 -1.1609
  501SOL    HW2 2403   3.209   0.612   0.223 -0.5752  0.7137 -2.0826
  502SOL     OW 2404   6.343   5.177   0.201  0.1753 -0.2504 -0.1469
  502SOL    HW1 2405   6.426   5.208   0.247  0.1357  0.4193 -0.5176
  502SOL    HW2 2406   6.359   5.171   0.103 -0.5982  1.2540 -0.3971
  503SOL     OW 2407   1.141   5.489   5.595 -0.5055 -0.0735  0.2996
  503SOL    HW1 2408   1.113   5.549   5.521  0.0978 -1.3567 -1.0285
  503SOL    HW2 2409   1.178   5.543   5.671  1.7609  1.1851 -1.5819
  504SOL     OW 2410   0.716   5.557   1.791  0.2808  0.1877  0.2207
  504SOL    HW1 2411   0.636   5.547   1.732 -0.3085  0.9733  0.8741
  504SOL    HW2 2412   0.713   5.488   1.863  0.9401 -0.6965 -0.5673
  505SOL     OW 2413   4.289   7.013   6.891  0.4460  0.0255 -0.7189
  505SOL    HW1 2414   4.243   7.051   6.972 -0.4628 -0.9053 -0.7696
  505SOL    HW2 2415   4.331   6.925   6.915  1.1078  0.2612 -0.9985
  506SOL     OW 2416   2.695   5.738   1.711  0.2768  0.1019  0.4668
  506SOL    HW1 2417   2.744   5.689   1.783 -0.9405  0.7177  1.7769
  506SOL    HW2 2418   2.713   5.836   1.720  1.0511  0.0988 -0.8335
  507SOL     OW 2419   2.728   0.500   2.662 -0.2066 -0.1047 -0.3991
  507SOL    HW1 2420   2.791   0.571   2.632 -0.0596 -0.2453 -0.4289
  507SOL    HW2 2421   2.651   0.541   2.711  0.2701  0.0175  0.2693
  508SOL     OW 2422   5.755   2.876   3.419 -0.0606  0.2061  0.2285
  508SOL    HW1 2423   5.725   2.792   3.464 -2.2656  0.6445 -0.3228
  508SOL    HW2 2424   5.751   2.865   3.320  0.8773  0.5566  0.1389
  509SOL     OW 2425   3.903   6.411   0.421  0.3092  0.1773  0.1191
  509SOL    HW1 2426   3.898   6.331   0.480  0.7801 -0.1259 -0.2461
  509SOL    HW2 2427   3.821   6.467   0.435  0.3831  0.0754  0.9962
  510SOL     OW 2428   7.004   6.091   6.385  0.5571  0.1051  0.3280
  510SOL    HW1 2429   7.058   6.173   6.364  0.3654  0.5214  1.4044
  510SOL    HW2 2430   7.024   6.060   6.477 -1.4891  0.6713  1.0265
  511SOL     OW 2431   1.189   0.478   1.302 -0.2994 -0.5870  0.4217
  511SOL    HW1 2432   1.159   0.487   1.397 -0.6414 -2.4758  0.5236
  511SOL    HW2 2433   1.288   0.493   1.296 -0.5136  1.2175  0.7762
  512SOL     OW 2434   6.291   3.789   1.499 -0.3746  0.1185 -0.3359
  512SOL    HW1 2435   6.231   3.801   1.577 -0.4496  1.6356 -0.5913
  512SOL    HW2 2436   6.362   3.860   1.500 -0.1149 -0.0992 -1.3991
  513SOL     OW 2437   5.644   1.055   3.970 -0.0280  0.5442  0.1330
  513SOL    HW1 2438   5.735   1.019   3.953 -0.2957  0.7366 -1.9536
  513SOL    HW2 2439   5.625   1.054   4.069  1.0141 -2.4128  0.3964
  514SOL     OW 2440   6.763   0.677   4.193  0.4340 -0.3568  0.0531
  514SOL    HW1 2441   6.832   0.732   4.146  0.4578  0.3280  0.8671
  514SOL    HW2 2442   6.714   0.621   4.126  1.0841 -0.0915 -0.6616
  515SOL     OW 2443   3.456   0.257   6.956 -0.4762  0.0118  0.2809
  515SOL    HW1 2444   3.481   0.161   6.941 -0.2409 -0.3122  2.3883
  515SOL    HW2 2445   3.506   0.292   7.036 -0.8378  1.7822 -0.2355
  516SOL     OW 2446   3.879   5.057   2.203 -0.1410  0.0379 -0.5205
  516SOL    HW1 2447   3.840   4.997   2.273  1.2333  0.6788  0.8431
  516SOL    HW2 2448   3.819   5.135   2.189 -0.3650 -0.0293  0.0453
  517SOL     OW 2449   3.763   4.278   1.329  0.1441 -0.7083  0.1588
  517SOL    HW1 2450   3.670   4.315   1.326  0.4698  0.1623  0.4534
  517SOL    HW2 2451   3.809   4.309   1.412  0.4287 -1.8169  0.4281
  518SOL     OW 2452   3.507   1.287   6.014  0.1631 -0.9663  0.0916
  518SOL    HW1 2453   3.485   1.192   5.988  1.2773 -1.1259 -0.3571
  518SOL    HW2 2454   3.607   1.298   6.016  0.0433  0.2066  0.1337
  519SOL     OW 2455   0.779   1.377   2.505  0.7085 -0.3768  0.2262
  519SOL    HW1 2456   0.735   1.382   2.594  1.0434  2.6449  0.3217
  519SOL    HW2 2457   0.710   1.365   2.434  0.1973 -0.3271  0.7084
  520SOL     OW 2458   0.833   3.218   0.875  0.7211  0.1249 -0.1060
  520SOL    HW1 2459   0.788   3.244   0.960  0.6173 -2.7044  0.8217
  520SOL    HW2 2460   0.803   3.126   0.848  2.9381 -0.2577 -1.5793
  521SOL     OW 2461   5.423   4.606   6.056 -0.4181  0.1530  1.1353
  521SOL    HW1 2462   5.504   4.658   6.081 -0.5805  0.6337  0.6762
  521SOL    HW2 2463   5.413   4.605   5.956 -1.1576  0.3904  1.1972
  522SOL     OW 2464   3.651   3.609   1.311  0.0035  0.2774 -0.1470
  522SOL    HW1 2465   3.744   3.636   1.338 -0.0745  0.3020  0.1027
  522SOL    HW2 2466   3.633   3.517   1.344 -0.4336  0.6641  0.7266
  523SOL     OW 2467   5.157   4.425   2.343  0.6740  0.1171 -0.6920
  523SOL    HW1 2468   5.228   4.425   2.272 -1.0020 -0.0439 -2.4834
  523SOL    HW2 2469   5.114   4.515   2.346  0.5071  0.0179 -0.1236
  524SOL     OW 2470   1.557   4.595   2.295  0.4502  0.0068 -0.1112
  524SOL    HW1 2471   1.564   4.677   2.238 -0.2329  0.5290  0.5472
  524SOL    HW2 2472   1.627   4.597   2.366 -0.2617  0.5568  0.5788
  525SOL     OW 2473   2.412   4.891   6.538 -0.4775 -0.9678  0.2511
  525SOL    HW1 2474   2.417   4.848   6.628  1.9683 -0.9956  0.1692
  525SOL    HW2 2475   2.419   4.820   6.468 -2.1974 -0.9263 -0.0103
  526SOL     OW 2476   2.848   6.216   3.888  0.3960 -0.1385  0.3001
  526SOL    HW1 2477   2.790   6.211   3.969  0.2631  0.5606  0.2490
  526SOL    HW2 2478   2.944   6.202   3.914  0.3218 -0.2217  0.5287
  527SOL     OW 2479   1.172   2.089   1.178  0.5285 -1.0649 -0.1588
  527SOL    HW1 2480   1.196   2.087   1.275 -0.5254 -1.3698  0.1017
  527SOL    HW2 2481   1.073   2.092   1.168  0.6311  1.5033 -1.1894
  528SOL     OW 2482   6.947   4.824   4.947  0.1567  0.3479  0.0123
  528SOL    HW1 2483   6.916   4.915   4.921  0.3722  0.7687  1.1820
  528SOL    HW2 2484   6.868   4.769   4.975  0.1322  0.4757  0.1953
  529SOL     OW 2485   0.347   1.017   5.225 -0.1649 -0.1573  0.3237
  529SOL    HW1 2486   0.430   1.070   5.243 -0.4519  0.0260  1.1588
  529SOL    HW2 2487   0.371   0.931   5.181  0.4467  0.0016  0.3413
  530SOL     OW 2488   4.603   2.880   0.911  0.4018  0.9314  0.7847
  530SOL    HW1 2489   4.507   2.908   0.906  0.1219  0.1753  1.7239
  530SOL    HW2 2490   4.658   2.941   0.854 -0.7919  0.6020 -0.7675
  531SOL     OW 2491   6.888   1.881   1.797 -0.3041  0.0371 -0.4437
  531SOL    HW1 2492   6.791   1.887   1.775 -0.1538  0.9122 -0.9173
  531SOL    HW2 2493   6.904   1.917   1.889 -0.6674 -1.8556  0.4165
  532SOL     OW 2494   6.054   3.597   6.238 -0.0418  0.2523 -0.3410
  532SOL    HW1 2495   6.128   3.588   6.305 -1.6888 -1.0194  1.4083
  532SOL    HW2 2496   6.060   3.687   6.194  1.6576  0.7614  0.8195
  533SOL     OW 2497   2.527   6.322   5.948 -0.6567  0.5121 -0.2809
  533SOL    HW1 2498   2.462   6.249   5.969 -0.2596  0.0759 -0.5343
  533SOL    HW2 2499   2.526   6.341   5.849 -0.4558  0.5540 -0.2763
  534SOL     OW 2500   0.379   6.571   2.041  0.1589 -0.1638 -0.0206
  534SOL    HW1 2501   0.388   6.474   2.067  0.2006 -0.4264 -0.9719
  534SOL    HW2 2502   0.285   6.601   2.056  0.7998  0.5863  3.2898
  535SOL     OW 2503   6.615   3.841   2.314  0.4987  0.3020  0.9861
  535SOL    HW1 2504   6.617   3.750   2.272  0.4846  0.9469 -0.4796
  535SOL    HW2 2505   6.677   3.843   2.392  2.8953 -0.1167 -0.8035
  536SOL     OW 2506   5.358   5.043   3.567  0.6965  0.4063  0.3841
  536SOL    HW1 2507   5.265   5.006   3.569  0.8437  0.0067  2.2910
  536SOL    HW2 2508   5.392   5.042   3.473 -0.5349 -1.2009 -0.0995
  537SOL     OW 2509   3.684   6.994   2.386  0.0960  0.0956  0.0872
  537SOL    HW1 2510   3.585   6.987   2.376  0.0003  0.3149  0.8683
  537SOL    HW2 2511   3.713   7.087   2.364  0.0980  0.0976  0.0971
  538SOL     OW 2512   0.931   3.894   4.338 -0.7348 -0.0179 -0.3210
  538SOL    HW1 2513   1.024   3.858   4.330 -0.6056  0.3145 -0.3571
  538SOL    HW2 2514   0.868   3.836   4.287 -0.2383  0.9043 -2.0743
  539SOL     OW 2515   6.943   4.659   2.658  0.6303 -0.2142  0.2995
  539SOL    HW1 2516   7.029   4.688   2.701  0.6402 -2.9274  2.3164
  539SOL    HW2 2517   6.961   4.584   2.595 -0.3695 -1.8756  1.9041
  540SOL     OW 2518   0.037   0.130   5.039 -0.0436  0.1207 -0.3106
  540SOL    HW1 2519  -0.030   0.188   4.993 -0.3149 -1.4556 -2.0279
  540SOL    HW2 2520   0.005   0.108   5.131 -1.3765  0.2468 -0.7248
  541SOL     OW 2521   4.268   5.770   3.487  0.2782 -0.5215  0.3429
  541SOL    HW1 2522   4.329   5.804   3.416  0.8409 -2.2058 -0.0372
  541SOL    HW2 2523   4.289   5.815   3.574  0.5669  0.4970 -0.2377
  542SOL     OW 2524   2.910   6.702   6.584 -0.4414 -0.0945 -0.3978
  542SOL    HW1 2525   2.900   6.798   6.612 -0.6785 -0.2322  0.0016
  542SOL    HW2 2526   3.001   6.688   6.546  0.3390 -0.1567  1.3973
  543SOL     OW 2527   4.703   3.933   1.315 -0.1617  0.4551  0.3691
  543SOL    HW1 2528   4.695   4.016   1.258  0.3546  1.0680  1.1657
  543SOL    HW2 2529   4.683   3.853   1.259  1.0700  0.9728 -0.8824
  544SOL     OW 2530   5.779   6.640   6.037  0.4419 -0.3616 -0.0316
  544SOL    HW1 2531   5.729   6.702   5.977  1.5444 -1.0959 -1.8043
  544SOL    HW2 2532   5.720   6.612   6.113 -0.7799  1.1376 -0.3771
  545SOL     OW 2533   4.184   1.654   1.589  0.2778 -0.2672  0.1446
  545SOL    HW1 2534   4.172   1.567   1.541 -0.9094  1.1453 -2.3130
  545SOL    HW2 2535   4.159   1.642   1.686  0.3438 -2.6666 -0.0676
  546SOL     OW 2536   2.075   3.313   1.927 -0.3750 -0.0965 -0.2981
  546SOL    HW1 2537   2.131   3.374   1.983  0.3150 -1.2162  0.2883
  546SOL    HW2 2538   2.135   3.257   1.869 -1.0358  0.3739 -1.4558
  547SOL     OW 2539   3.324   0.736   0.215  0.2657  0.1280 -0.1192
  547SOL    HW1 2540   3.239   0.763   0.170  0.1563  0.4973  0.3072
  547SOL    HW2 2541   3.400   0.786   0.175  0.3078 -0.3280 -0.6189
  548SOL     OW 2542   2.539   2.803   1.732 -0.2069  0.1985 -0.0366
  548SOL    HW1 2543   2.573   2.891   1.699  0.6947 -0.0372  0.2492
  548SOL    HW2 2544   2.489   2.757   1.658 -0.4843  0.8386 -0.2581
  549SOL     OW 2545   5.212   3.674   2.774  0.4099 -0.2612 -0.2771
  549SOL    HW1 2546   5.112   3.673   2.779  0.4183 -1.9040  0.3122
  549SOL    HW2 2547   5.243   3.587   2.735  1.6215  0.2320 -0.4428
  550SOL     OW 2548   6.808   5.273   4.262  0.0302 -0.1794 -0.2727
  550SOL    HW1 2549   6.713   5.306   4.258 -0.4695 -1.6402 -3.3078
  550SOL    HW2 2550   6.870   5.348   4.237 -0.5147  0.2109 -0.4914
  551SOL     OW 2551   6.963   1.058   2.915 -0.6195  0.4211  0.0043
  551SOL    HW1 2552   6.878   1.026   2.957 -1.5496  1.3995 -1.0302
  551SOL    HW2 2553   6.953   1.155   2.890  1.3690  0.9935  1.2171
  552SOL     OW 2554   6.369   4.391   6.655  0.0888 -0.1652 -0.0502
  552SOL    HW1 2555   6.356   4.438   6.569  1.7234 -2.6309 -1.8012
  552SOL    HW2 2556   6.308   4.312   6.660 -0.1866  0.0952  1.2131
  553SOL     OW 2557   2.326   6.121   2.792  0.0086 -0.5808 -0.1879
  553SOL    HW1 2558   2.235   6.112   2.834  0.2529 -0.0828  0.4725
  553SOL    HW2 2559   2.350   6.218   2.786  0.1374 -0.6638 -1.1679
  554SOL     OW 2560   5.342   2.087   6.721 -0.4079 -0.1787 -0.4883
  554SOL    HW1 2561   5.356   2.105   6.818 -0.3330 -0.8954 -0.3584
  554SOL    HW2 2562   5.280   2.009   6.710 -1.0412  0.3908 -1.0247
  555SOL     OW 2563   3.817   6.085   3.672 -0.0396 -0.5100 -0.4748
  555SOL    HW1 2564   3.903   6.071   3.624  0.8646  0.5267  0.7782
  555SOL    HW2 2565   3.743   6.039   3.622  1.3558 -2.1693 -1.0832
  556SOL     OW 2566   5.715   6.945   3.795  0.0818 -0.1950  0.1637
  556SOL    HW1 2567   5.659   6.881   3.742 -0.7209  0.7849 -0.2177
  556SOL    HW2 2568   5.790   6.979   3.738 -0.0514 -0.0862  0.0510
  557SOL     OW 2569   5.965   5.582   4.811  0.1464  0.1882  0.0610
  557SOL    HW1 2570   5.949   5.677   4.836 -0.0940  0.3903 -0.8375
  557SOL    HW2 2571   6.047   5.548   4.858  0.7961  1.1306 -0.3624
  558SOL     OW 2572   3.722   4.116   5.548  0.5676  0.4206 -0.5625
  558SOL    HW1 2573   3.685   4.045   5.488  1.6206 -0.0871 -0.6275
  558SOL    HW2 2574   3.724   4.082   5.642  1.4116  0.2118 -0.6462
  559SOL     OW 2575   0.100   5.646   5.216  0.3979 -0.4229  0.0520
  559SOL    HW1 2576   0.070   5.692   5.133 -0.3409 -0.5311  0.2503
  559SOL    HW2 2577   0.129   5.553   5.194 -0.0013 -0.5233 -0.0595
  560SOL     OW 2578   5.788   4.901   3.412 -0.1120  0.9789  0.1345
  560SOL    HW1 2579   5.869   4.958   3.412  0.7290 -0.1815 -0.1762
  560SOL    HW2 2580   5.756   4.888   3.506  0.1131  1.3515  0.2623
  561SOL     OW 2581   6.183   1.622   2.042  0.5508 -0.0763  0.2896
  561SOL    HW1 2582   6.276   1.592   2.065  0.3896 -3.0897 -2.3362
  561SOL    HW2 2583   6.188   1.704   1.984  1.5624 -0.2693  0.0836
  562SOL     OW 2584   4.317   1.569   6.874 -0.1034  0.4762  0.6487
  562SOL    HW1 2585   4.386   1.589   6.803 -0.5291 -0.8766 -0.1731
  562SOL    HW2 2586   4.348   1.492   6.929 -0.8188  0.0565  0.4688
  563SOL     OW 2587   2.741   0.829   2.875 -0.1221  0.2385 -0.3267
  563SOL    HW1 2588   2.744   0.924   2.845 -0.9155  0.1705 -0.6529
  563SOL    HW2 2589   2.830   0.786   2.861  0.0156  0.7107 -0.9365
  564SOL     OW 2590   0.082   3.578   0.624 -0.3370 -0.0571  0.9133
  564SOL    HW1 2591   0.087   3.554   0.721  1.3465 -1.3457  0.5608
  564SOL    HW2 2592   0.010   3.524   0.580 -0.0516 -0.6485  1.1545
  565SOL     OW 2593   4.056   3.602   4.178  0.3903 -0.4208 -0.1310
  565SOL    HW1 2594   4.110   3.593   4.262  1.4685 -1.1062 -0.8696
  565SOL    HW2 2595   3.962   3.625   4.202  0.7984 -0.0372  1.2375
  566SOL     OW 2596   0.641   4.896   2.604 -0.1007 -0.3310  0.0840
  566SOL    HW1 2597   0.690   4.858   2.525 -0.0916 -0.2890  0.0691
  566SOL    HW2 2598   0.562   4.948   2.572  0.9786  1.3175 -0.0229
  567SOL     OW 2599   3.675   1.870   1.143 -0.2966 -0.2572 -0.1914
  567SOL    HW1 2600   3.729   1.788   1.161 -1.0698 -0.7923 -0.2506
  567SOL    HW2 2601   3.607   1.882   1.215 -0.3438  0.2005 -0.3082
  568SOL     OW 2602   3.781   0.774   0.234  0.7594  0.1707  0.4334
  568SOL    HW1 2603   3.875   0.795   0.261  0.8813 -1.0032  0.9875
  568SOL    HW2 2604   3.782   0.707   0.160  0.3732  1.5180 -0.8384
  569SOL     OW 2605   0.970   2.931   0.769  0.6745 -0.4356  0.0377
  569SOL    HW1 2606   1.004   2.911   0.677 -0.2641  3.3608 -1.3487
  569SOL    HW2 2607   0.885   2.882   0.785  0.2090 -0.2221 -1.6628
  570SOL     OW 2608   3.796   0.733   5.840 -0.3064  0.9748 -0.1724
  570SOL    HW1 2609   3.727   0.802   5.863  0.3283  1.2260  1.0675
  570SOL    HW2 2610   3.887   0.771   5.856  0.0637  0.0293  0.0350
  571SOL     OW 2611   3.925   4.835   3.829  0.4718  0.2636  0.6446
  571SOL    HW1 2612   3.849   4.780   3.863  0.3763  1.5776  2.7659
  571SOL    HW2 2613   3.896   4.887   3.748 -0.9804  0.9052  1.5404
  572SOL     OW 2614   2.978   5.243   4.741  0.3254 -0.4824 -0.0808
  572SOL    HW1 2615   3.034   5.254   4.823 -0.9084 -1.9404  1.0116
  572SOL    HW2 2616   2.905   5.178   4.759 -2.0109  1.6099 -1.2917
  573SOL     OW 2617   6.942   1.119   6.923 -0.3870  0.5566  0.2345
  573SOL    HW1 2618   6.848   1.141   6.949 -0.9750 -0.8832 -0.5489
  573SOL    HW2 2619   6.955   1.139   6.826 -0.1678 -0.0681  0.1295
  574SOL     OW 2620   3.485   0.502   6.000  0.2516  0.1977 -0.0988
  574SOL    HW1 2621   3.478   0.446   5.917  0.2860 -0.7482  0.5190
  574SOL    HW2 2622   3.577   0.538   6.008 -0.2610  1.9771 -1.5046
  575SOL     OW 2623   5.028   3.142   0.911  0.2690  0.3627  0.3793
  575SOL    HW1 2624   5.089   3.134   0.990  0.6332  0.0234  0.0692
  575SOL    HW2 2625   5.032   3.235   0.875  0.9966  0.2064  0.0470
  576SOL     OW 2626   1.221   3.247   2.886 -0.0655  0.0927 -0.5514
  576SOL    HW1 2627   1.213   3.151   2.913 -0.8300  0.7969  2.0497
  576SOL    HW2 2628   1.294   3.290   2.939  0.6617  0.8655 -2.1089
  577SOL     OW 2629   2.637   1.576   3.311 -0.2751 -0.5458  0.5747
  577SOL    HW1 2630   2.667   1.643   3.244 -1.7610 -0.3076  0.1156
  577SOL    HW2 2631   2.572   1.619   3.374 -1.1713 -1.5189  0.3328
  578SOL     OW 2632   6.316   6.731   4.289  0.3288  0.5564 -0.2448
  578SOL    HW1 2633   6.409   6.724   4.326 -0.8063  1.3418  3.1719
  578SOL    HW2 2634   6.269   6.808   4.333 -2.2154 -0.3369 -1.2284
  579SOL     OW 2635   1.495   5.003   3.515  0.1760  0.1189 -0.6409
  579SOL    HW1 2636   1.466   5.086   3.468  1.8938 -0.3645 -2.7284
  579SOL    HW2 2637   1.478   4.924   3.456 -0.2330 -0.8693  0.7648
  580SOL     OW 2638   4.239   3.240   6.240 -0.1899 -0.4045  0.1829
  580SOL    HW1 2639   4.271   3.242   6.335 -0.6073 -0.3246  0.3252
  580SOL    HW2 2640   4.314   3.214   6.180 -0.7054 -4.1684  0.8833
  581SOL     OW 2641   2.791   3.644   1.368 -0.3068  0.1449 -1.0803
  581SOL    HW1 2642   2.736   3.602   1.295  1.0038  1.1701 -2.7189
  581SOL    HW2 2643   2.880   3.599   1.372  0.0382  0.8400 -0.8776
  582SOL     OW 2644   3.582   6.027   3.544 -0.2917  0.3181  0.1950
  582SOL    HW1 2645   3.506   6.044   3.481  0.5707 -1.2733 -1.3512
  582SOL    HW2 2646   3.546   6.015   3.637 -1.7822  0.8590 -0.2798
  583SOL     OW 2647   3.982   5.384   3.459 -0.0053  0.1402  0.0328
  583SOL    HW1 2648   4.047   5.442   3.410 -1.2817  0.3800 -1.4450
  583SOL    HW2 2649   3.891   5.393   3.417 -1.0117 -0.1823  2.0256
  584SOL     OW 2650   2.822   4.707   6.657  0.1907  0.5575 -0.1576
  584SOL    HW1 2651   2.823   4.763   6.573 -0.6535  0.8839  0.0411
  584SOL    HW2 2652   2.897   4.736   6.716  2.0405 -0.9920 -1.6252
  585SOL     OW 2653   3.112   1.647   0.898 -0.1911  0.4137  0.0498
  585SOL    HW1 2654   3.094   1.672   0.993 -0.8105  1.3479 -0.2983
  585SOL    HW2 2655   3.117   1.730   0.842  3.2362  0.1256 -0.2568
  586SOL     OW 2656   2.986   1.067   6.606 -0.1115  0.2038  0.3982
  586SOL    HW1 2657   2.983   1.073   6.706  1.1136 -0.1651  0.4832
  586SOL    HW2 2658   3.001   0.971   6.580 -2.1608  0.0154 -0.2195
  587SOL     OW 2659   2.625   2.438   2.054  0.1537  0.2068 -0.1531
  587SOL    HW1 2660   2.721   2.409   2.050  0.3552  0.4440  1.8712
  587SOL    HW2 2661   2.571   2.367   2.100 -0.2376  0.9614  0.5701
  588SOL     OW 2662   2.799   5.056   1.527  0.0528 -0.0679 -0.8146
  588SOL    HW1 2663   2.710   5.069   1.571 -0.8672  0.3751 -2.7430
  588SOL    HW2 2664   2.871   5.061   1.597 -1.2950  1.2223  0.5557
  589SOL     OW 2665   2.483   4.612   1.469 -0.1738 -0.2603  0.4997
  589SOL    HW1 2666   2.458   4.590   1.374  0.2276  0.0720  0.3151
  589SOL    HW2 2667   2.581   4.630   1.474 -0.3855  0.8900  0.7531
  590SOL     OW 2668   5.247   1.696   3.263  0.1096 -0.1975  0.1870
  590SOL    HW1 2669   5.234   1.665   3.357 -0.8035  1.2579  0.5688
  590SOL    HW2 2670   5.214   1.790   3.254 -0.3549 -0.5058 -1.7310
  591SOL     OW 2671   4.934   0.355   4.325 -0.1261 -0.7629 -0.2730
  591SOL    HW1 2672   4.900   0.428   4.265 -3.0589 -0.1883  1.8482
  591SOL    HW2 2673   4.874   0.275   4.317 -0.8953 -0.5063  2.0758
  592SOL     OW 2674   4.426   0.113   3.358  0.9357  0.5478  0.6070
  592SOL    HW1 2675   4.342   0.130   3.307  1.4770  1.8127  0.0745
  592SOL    HW2 2676   4.422   0.024   3.402 -0.8964  0.8188  1.0415
  593SOL     OW 2677   6.295   4.154   4.053 -0.3783  0.2672  0.1890
  593SOL    HW1 2678   6.276   4.082   4.119  1.4617  1.2676  1.9036
  593SOL    HW2 2679   6.237   4.141   3.972 -1.2251 -2.1699  1.1023
  594SOL     OW 2680   4.048   0.044   1.642  0.7981 -0.7389  0.2631
  594SOL    HW1 2681   4.057   0.114   1.571  0.4205 -1.3044 -0.3588
  594SOL    HW2 2682   3.964  -0.008   1.627 -0.4564  0.5146  2.3829
  595SOL     OW 2683   4.754   0.957   4.377 -0.3946  0.5047  0.2384
  595SOL    HW1 2684   4.826   1.025   4.381  0.5933 -0.2520 -2.3668
  595SOL    HW2 2685   4.784   0.873   4.422 -0.0534  0.5354  0.0689
  596SOL     OW 2686   0.544   5.567   1.563 -0.0947  0.1381  0.2628
  596SOL    HW1 2687   0.536   5.667   1.556  2.3335  0.3078 -1.5829
  596SOL    HW2 2688   0.577   5.531   1.476  0.1047 -2.1634  1.2288
  597SOL     OW 2689   4.103   6.864   6.341  0.2280 -0.3471  0.5955
  597SOL    HW1 2690   4.134   6.843   6.434 -0.7601  2.3538  1.6475
  597SOL    HW2 2691   4.027   6.929   6.345 -2.0179 -2.5054 -2.0413
  598SOL     OW 2692   3.947   3.094   5.171  0.3363 -0.2652  0.1678
  598SOL    HW1 2693   3.919   3.140   5.255  0.2582 -0.5249  0.2847
  598SOL    HW2 2694   3.937   2.995   5.182 -0.0699 -0.2785 -0.2932
  599SOL     OW 2695   2.053   0.353   2.845  0.0308  0.0492 -0.1900
  599SOL    HW1 2696   2.031   0.388   2.755  0.0886 -0.5119 -0.4234
  599SOL    HW2 2697   2.091   0.427   2.901 -0.3182  0.4744 -0.5117
  600SOL     OW 2698   0.160   1.709   4.940  0.0714 -0.4414 -0.0377
  600SOL    HW1 2699   0.104   1.650   4.997  0.8245 -2.2760 -1.1050
  600SOL    HW2 2700   0.229   1.755   4.997 -1.1400  0.2250  0.9491
  601SOL     OW 2701   1.887   6.387   2.599 -0.2072  0.1434 -0.1451
  601SOL    HW1 2702   1.894   6.344   2.509 -0.2298  0.4592 -0.3005
  601SOL    HW2 2703   1.881   6.317   2.669 -1.1263 -0.1129 -0.4655
  602SOL     OW 2704   2.670   0.001   5.850  0.7156 -0.3060  0.1837
  602SOL    HW1 2705   2.747   0.017   5.788  0.6949 -0.0506  0.2222
  602SOL    HW2 2706   2.668   0.073   5.920 -1.0752  1.2371 -1.3322
  603SOL     OW 2707   2.870   2.728   6.239  0.2471  0.1047 -0.8804
  603SOL    HW1 2708   2.793   2.791   6.231  1.3691  1.6227 -0.1331
  603SOL    HW2 2709   2.938   2.750   6.169  0.1859 -1.0002 -1.3085
  604SOL     OW 2710   0.588   0.833   1.082  0.4959 -0.2029  0.4178
  604SOL    HW1 2711   0.517   0.818   1.012 -1.7329 -0.8744  2.6503
  604SOL    HW2 2712   0.625   0.744   1.110 -0.2858 -0.1573  1.6484
  605SOL     OW 2713   6.554   4.857   1.265  0.0443 -0.5620 -0.3168
  605SOL    HW1 2714   6.632   4.912   1.292 -1.8348  1.5310  1.2179
  605SOL    HW2 2715   6.576   4.807   1.181  3.3534 -1.0110  0.6645
  606SOL     OW 2716   4.420   6.217   6.562  0.0549  0.3642  0.0317
  606SOL    HW1 2717   4.502   6.218   6.618 -1.2641 -0.1420  2.0961
  606SOL    HW2 2718   4.357   6.147   6.595 -1.5451  1.2352 -0.9760
  607SOL     OW 2719   6.342   4.758   5.047 -0.2442  0.3200 -0.0638
  607SOL    HW1 2720   6.373   4.844   5.006 -1.9510  1.1822  0.3710
  607SOL    HW2 2721   6.341   4.768   5.147  1.9690 -1.0899  0.1591
  608SOL     OW 2722   3.640   1.179   0.342 -0.0601 -0.8328  0.5463
  608SOL    HW1 2723   3.697   1.225   0.275 -1.8322  1.7944  0.6990
  608SOL    HW2 2724   3.649   1.223   0.431 -2.3761 -0.1957  0.5310
  609SOL     OW 2725   3.926   3.084   2.065 -0.0931 -0.0926 -0.0856
  609SOL    HW1 2726   3.871   3.026   2.124  0.5843 -1.7315 -0.9994
  609SOL    HW2 2727   3.947   3.170   2.112 -1.9967 -0.1230  0.8957
  610SOL     OW 2728   6.001   5.019   0.975 -0.0548 -0.3568  0.2360
  610SOL    HW1 2729   5.980   4.924   0.956  0.6450 -0.3164 -0.8679
  610SOL    HW2 2730   6.069   5.025   1.048 -1.6744 -0.5845  1.8474
  611SOL     OW 2731   3.811   0.325   0.244 -0.1271 -0.3648  0.2349
  611SOL    HW1 2732   3.728   0.377   0.265  0.8604  1.5247 -0.4104
  611SOL    HW2 2733   3.873   0.326   0.322  0.7040  1.0713 -0.4176
  612SOL     OW 2734   3.050   5.661   3.127 -0.4348  0.1451 -0.5615
  612SOL    HW1 2735   3.114   5.620   3.063 -0.0295 -0.9504  0.5077
  612SOL    HW2 2736   3.092   5.741   3.170  0.1720 -0.4755  0.0205
  613SOL     OW 2737   3.735   4.565   5.674  0.4144  0.7951  0.4024
  613SOL    HW1 2738   3.664   4.496   5.661 -1.7223  2.2409  3.1586
  613SOL    HW2 2739   3.708   4.649   5.625  1.1533  0.8264  0.0338
  614SOL     OW 2740   4.241   4.058   6.411  0.2699 -0.1517 -0.0541
  614SOL    HW1 2741   4.168   4.035   6.347 -0.7993 -1.3445  1.5225
  614SOL    HW2 2742   4.272   3.975   6.458 -0.8388  0.9556  2.8863
  615SOL     OW 2743   6.207   3.428   0.898 -0.2427 -0.6339  0.1074
  615SOL    HW1 2744   6.176   3.471   0.813  1.1039 -0.4501 -0.3228
  615SOL    HW2 2745   6.306   3.437   0.905 -0.4395  0.4890  2.3205
  616SOL     OW 2746   0.121   2.247   3.379  0.0924 -0.4327 -0.3992
  616SOL    HW1 2747   0.182   2.243   3.459 -0.0033 -0.8930 -0.3468
  616SOL    HW2 2748   0.026   2.253   3.411  0.1483  1.5446 -0.4643
  617SOL     OW 2749   6.841   5.100   4.838  0.4236  0.3313  0.5471
  617SOL    HW1 2750   6.786   5.157   4.900 -0.4691  0.1541 -0.0731
  617SOL    HW2 2751   6.798   5.098   4.748  1.1456 -0.2845  0.2121
  618SOL     OW 2752   1.485   3.256   1.674  0.2117 -0.2629 -0.7614
  618SOL    HW1 2753   1.423   3.198   1.621 -1.6351  0.2348  0.7399
  618SOL    HW2 2754   1.549   3.200   1.725 -0.5620 -0.9096 -0.4922
  619SOL     OW 2755   2.524   5.926   5.405 -0.6345 -0.2640  0.4910
  619SOL    HW1 2756   2.476   5.850   5.449 -0.5935 -0.8464 -0.4508
  619SOL    HW2 2757   2.478   5.950   5.320  2.4896 -3.0985 -2.2972
  620SOL     OW 2758   5.920   2.074   2.094  0.5545  0.0715 -0.0529
  620SOL    HW1 2759   5.918   2.030   2.183  0.2980  0.2380  0.0256
  620SOL    HW2 2760   5.916   2.004   2.022 -1.3116 -0.0155  0.0664
  621SOL     OW 2761   2.286   5.584   5.152 -0.1114  0.0249 -0.1214
  621SOL    HW1 2762   2.221   5.508   5.152  0.3908 -0.4083 -0.4659
  621SOL    HW2 2763   2.274   5.638   5.070 -0.2332  0.1152 -0.0447
  622SOL     OW 2764   2.606   2.085   1.155 -0.7482  0.4773  0.4951
  622SOL    HW1 2765   2.560   2.113   1.071  0.3464 -1.2323 -0.7377
  622SOL    HW2 2766   2.694   2.043   1.132  0.0033  0.8103  2.5732
  623SOL     OW 2767   6.402   6.241   5.949 -0.1206  0.1261  0.4780
  623SOL    HW1 2768   6.355   6.246   5.861  2.1744 -2.5464 -1.0640
  623SOL    HW2 2769   6.376   6.157   5.996  1.8727 -0.6480  0.2845
  624SOL     OW 2770   0.560   3.344   1.794 -0.6800  0.2808  0.2602
  624SOL    HW1 2771   0.496   3.299   1.855  0.3411 -1.6876 -0.0391
  624SOL    HW2 2772   0.556   3.300   1.704 -0.3720  1.4908 -0.3664
  625SOL     OW 2773   1.535   2.275   1.181  0.3290  0.2844 -0.0071
  625SOL    HW1 2774   1.468   2.336   1.137 -0.8919 -0.2249  1.0648
  625SOL    HW2 2775   1.615   2.327   1.208  0.4428  0.8995 -1.4157
  626SOL     OW 2776   1.245   4.987   3.249  0.0028  0.5172 -0.2780
  626SOL    HW1 2777   1.221   5.030   3.336  0.5276  0.5563 -0.1492
  626SOL    HW2 2778   1.169   4.995   3.185  0.1578  1.7966 -0.3157
  627SOL     OW 2779   5.848   1.265   0.139 -0.0045 -0.2689  0.4294
  627SOL    HW1 2780   5.945   1.243   0.135  0.1982  0.5116  0.8359
  627SOL    HW2 2781   5.799   1.216   0.067  0.4310 -1.8979  1.1813
  628SOL     OW 2782   5.579   6.994   5.511 -0.2336  0.0184  0.6140
  628SOL    HW1 2783   5.649   6.927   5.533 -0.5192  0.1945  2.1691
  628SOL    HW2 2784   5.622   7.084   5.498  0.2171 -0.5226 -2.0558
  629SOL     OW 2785   5.849   5.913   5.828 -0.0253  0.4184 -0.4948
  629SOL    HW1 2786   5.790   5.992   5.808  1.8436  1.3561 -2.7700
  629SOL    HW2 2787   5.927   5.944   5.882 -2.0617 -1.0611  3.7393
  630SOL     OW 2788   6.855   3.532   1.789 -0.7709  0.5385 -0.0002
  630SOL    HW1 2789   6.937   3.573   1.748 -0.4591 -0.2811 -0.2037
  630SOL    HW2 2790   6.795   3.500   1.716 -0.6408 -0.0945  0.1692
  631SOL     OW 2791   1.353   5.803   5.150 -0.5177  0.0556  0.0254
  631SOL    HW1 2792   1.392   5.751   5.074  1.7614 -0.0211  1.1554
  631SOL    HW2 2793   1.337   5.898   5.122 -1.2557 -0.3478 -0.9786
  632SOL     OW 2794   2.816   0.535   0.983  0.4569  0.3889 -0.2891
  632SOL    HW1 2795   2.779   0.613   0.932  0.0205 -0.5072 -1.3923
  632SOL    HW2 2796   2.741   0.483   1.024  0.6084 -0.3843 -0.9717
  633SOL     OW 2797   4.974   3.225   1.341 -0.2648  0.1159  0.0112
  633SOL    HW1 2798   4.995   3.287   1.416  0.4522 -0.3565  0.2166
  633SOL    HW2 2799   4.883   3.244   1.306  0.1471  1.6688 -0.3082
  634SOL     OW 2800   4.872   2.560   1.470  0.4954  0.2953 -0.9073
  634SOL    HW1 2801   4.863   2.463   1.493  0.3627  0.4579 -0.2543
  634SOL    HW2 2802   4.967   2.588   1.480  0.2170  0.6967  0.8314
  635SOL     OW 2803   3.143   4.946   1.490 -0.5810 -0.5630  0.6096
  635SOL    HW1 2804   3.049   4.961   1.459  0.5851  2.5219 -2.0261
  635SOL    HW2 2805   3.174   4.856   1.459 -3.0919 -2.5331  3.2117
  636SOL     OW 2806   5.855   5.396   5.575 -0.4383 -0.2292  0.0187
  636SOL    HW1 2807   5.890   5.460   5.645 -1.2304 -1.4641  1.5909
  636SOL    HW2 2808   5.804   5.448   5.506  2.9756  1.4562 -1.4992
  637SOL     OW 2809   6.275   4.217   1.706 -0.1499 -0.0335 -0.1892
  637SOL    HW1 2810   6.226   4.170   1.634 -0.7511  0.5526 -0.1738
  637SOL    HW2 2811   6.314   4.150   1.770  0.4743 -0.5572 -1.1014
  638SOL     OW 2812   5.642   4.660   1.507 -0.1501  0.0852 -0.0068
  638SOL    HW1 2813   5.663   4.575   1.458 -1.5779 -0.0803 -0.3726
  638SOL    HW2 2814   5.623   4.733   1.442  1.2671  0.7648  0.3086
  639SOL     OW 2815   4.525   6.503   1.956 -0.0371 -0.5505  0.4231
  639SOL    HW1 2816   4.549   6.406   1.970  0.1583 -0.6849 -0.7638
  639SOL    HW2 2817   4.518   6.548   2.045  0.8613 -1.4184  0.9565
  640SOL     OW 2818   1.817   3.725   4.029 -0.2051  0.0638 -0.4963
  640SOL    HW1 2819   1.729   3.694   4.066  0.4299 -0.1298  0.9203
  640SOL    HW2 2820   1.801   3.793   3.958 -1.4871  0.4770  0.1559
  641SOL     OW 2821   0.038   0.220   3.907  0.5022  0.2078  0.0865
  641SOL    HW1 2822   0.080   0.291   3.963  0.1892  0.3386  0.1558
  641SOL    HW2 2823   0.109   0.158   3.873  0.7538  0.4423  0.1816
  642SOL     OW 2824   1.146   2.378   0.401 -0.1019 -0.3068 -0.7502
  642SOL    HW1 2825   1.208   2.372   0.323 -0.6383  0.1231 -1.2208
  642SOL    HW2 2826   1.193   2.349   0.484  1.3411  1.8734 -0.7445
  643SOL     OW 2827   5.231   0.002   5.058  0.1802 -0.3942 -0.1432
  643SOL    HW1 2828   5.213   0.099   5.078 -0.8676 -0.3957 -0.9425
  643SOL    HW2 2829   5.144  -0.046   5.047  0.6958 -1.3543 -0.0895
  644SOL     OW 2830   2.236   0.707   3.921  0.1132  1.1381 -0.0915
  644SOL    HW1 2831   2.240   0.686   4.019  1.7688 -0.4806 -0.4566
  644SOL    HW2 2832   2.177   0.640   3.875  0.0328  1.3734 -0.3352
  645SOL     OW 2833   4.990   1.939   1.740 -0.7777  0.4329  0.6905
  645SOL    HW1 2834   4.932   2.018   1.723  0.3817  1.2242  0.2339
  645SOL    HW2 2835   5.045   1.955   1.822  2.4337  2.0111 -1.5318
  646SOL     OW 2836   4.003   0.667   5.076 -0.3620  0.0774  0.3683
  646SOL    HW1 2837   3.940   0.686   5.000 -0.3455  1.7138  0.7228
  646SOL    HW2 2838   4.046   0.752   5.106  1.6094 -0.9158  0.5260
  647SOL     OW 2839   6.776   4.317   5.154 -0.0295  0.4825  1.0990
  647SOL    HW1 2840   6.801   4.341   5.248 -0.1864  0.7281  1.0773
  647SOL    HW2 2841   6.677   4.304   5.148 -0.2462  2.1318  0.6028
  648SOL     OW 2842   6.795   4.191   2.695 -0.4840 -0.4753  0.1017
  648SOL    HW1 2843   6.736   4.265   2.662 -0.7655 -0.5491  0.4313
  648SOL    HW2 2844   6.867   4.173   2.628  1.0867  1.7383  1.0772
  649SOL     OW 2845   4.203   4.196   0.092  0.2811  0.9489 -0.2353
  649SOL    HW1 2846   4.132   4.192   0.021  1.1614 -1.2526 -1.0668
  649SOL    HW2 2847   4.160   4.213   0.181 -1.4997 -1.5932 -0.4961
  650SOL     OW 2848   6.036   3.908   6.480  0.1412  0.2079  0.2267
  650SOL    HW1 2849   5.976   3.851   6.536  0.1532 -0.6115 -0.5817
  650SOL    HW2 2850   5.986   3.990   6.451  0.1664  0.6882  1.4921
  651SOL     OW 2851   0.065   6.497   6.188  0.4584  0.0371 -0.0345
  651SOL    HW1 2852   0.093   6.449   6.271 -2.6948 -0.7309  0.6991
  651SOL    HW2 2853   0.088   6.441   6.108 -0.1021 -1.1241  0.5996
  652SOL     OW 2854   0.804   0.068   3.908 -0.4730 -0.1504  0.2095
  652SOL    HW1 2855   0.734  -0.003   3.901 -0.1553 -0.4078 -0.3992
  652SOL    HW2 2856   0.865   0.047   3.985 -0.7856 -0.1721  0.4527
  653SOL     OW 2857   3.898   4.930   4.214 -0.4674  0.3206 -0.0167
  653SOL    HW1 2858   3.936   5.021   4.200 -2.5958  1.1073 -1.0403
  653SOL    HW2 2859   3.884   4.915   4.312 -0.0679  1.0953  0.1647
  654SOL     OW 2860   5.288   4.084   5.380  0.4290 -0.1336  0.2531
  654SOL    HW1 2861   5.332   4.084   5.470  0.6868 -1.0625  0.1365
  654SOL    HW2 2862   5.190   4.067   5.391  0.5996 -1.1232  0.3054
  655SOL     OW 2863   1.314   6.551   3.690 -0.1518 -0.5755 -0.1728
  655SOL    HW1 2864   1.287   6.547   3.787 -1.8940  0.3527 -0.5942
  655SOL    HW2 2865   1.400   6.602   3.682  0.2316 -1.0080  0.9122
  656SOL     OW 2866   3.102   0.363   1.848 -0.2249 -0.0598 -0.2642
  656SOL    HW1 2867   3.086   0.285   1.909  0.6895  0.4718  0.6736
  656SOL    HW2 2868   3.070   0.339   1.756  0.0573 -1.5590 -0.0096
  657SOL     OW 2869   1.718   2.423   1.638  0.6153  0.1463  0.3817
  657SOL    HW1 2870   1.652   2.478   1.586  0.8112  0.1052  0.0920
  657SOL    HW2 2871   1.730   2.334   1.594  0.8255  0.1341  0.4622
  658SOL     OW 2872   3.868   3.694   0.350 -0.3028  0.9521 -0.2391
  658SOL    HW1 2873   3.926   3.645   0.284 -0.0161  2.3809 -1.0808
  658SOL    HW2 2874   3.924   3.757   0.403 -0.4354 -0.5603  1.8088
  659SOL     OW 2875   2.160   6.692   4.611  0.1739  0.2800 -0.4096
  659SOL    HW1 2876   2.202   6.734   4.692 -0.6629 -0.7795  0.6082
  659SOL    HW2 2877   2.177   6.749   4.531  2.9045  0.3048  0.0779
  660SOL     OW 2878   5.286   2.758   0.502 -0.9204  0.4111 -0.7622
  660SOL    HW1 2879   5.310   2.694   0.429 -1.7510 -0.0415 -0.6526
  660SOL    HW2 2880   5.316   2.720   0.590  0.4873  1.1641 -0.8898
  661SOL     OW 2881   4.868   6.888   3.053  0.2229  0.4948 -0.6330
  661SOL    HW1 2882   4.868   6.974   3.104  0.4440 -0.8178  1.7347
  661SOL    HW2 2883   4.962   6.858   3.038  0.1556  0.8281 -1.7894
  662SOL     OW 2884   5.198   0.254   5.154  0.2447 -0.3374 -0.1674
  662SOL    HW1 2885   5.167   0.242   5.248 -0.5600  0.3231 -0.3393
  662SOL    HW2 2886   5.160   0.338   5.116  1.3791 -0.0749 -0.7601
  663SOL     OW 2887   2.432   4.364   5.246 -0.3902 -0.6622  0.8384
  663SOL    HW1 2888   2.434   4.464   5.238  0.8029 -0.7299  0.1308
  663SOL    HW2 2889   2.357   4.328   5.190 -2.1009 -0.0723  2.6150
  664SOL     OW 2890   0.184   0.117   5.763  0.4180  0.4951 -0.2605
  664SOL    HW1 2891   0.093   0.093   5.731  0.5142  0.4586 -0.5054
  664SOL    HW2 2892   0.185   0.115   5.863  0.6170 -1.2456 -0.2672
  665SOL     OW 2893   3.382   5.173   2.367 -0.2333 -0.4797 -0.6040
  665SOL    HW1 2894   3.356   5.227   2.287 -2.4822 -0.3426  0.1417
  665SOL    HW2 2895   3.446   5.224   2.423  1.4937 -0.6291 -2.3202
  666SOL     OW 2896   5.799   1.005   0.851  0.1894  0.5400 -0.4090
  666SOL    HW1 2897   5.739   1.041   0.922 -0.9002 -0.4951 -0.7632
  666SOL    HW2 2898   5.744   0.982   0.770  1.0584 -0.4105 -0.7513
  667SOL     OW 2899   0.571   4.421   2.444  0.3352  0.1071 -0.7736
  667SOL    HW1 2900   0.501   4.362   2.485 -0.0027  0.6266 -0.5937
  667SOL    HW2 2901   0.639   4.444   2.513  0.3405  0.1178 -0.7828
  668SOL     OW 2902   6.213   1.291   5.451  0.0073  0.0022 -0.8303
  668SOL    HW1 2903   6.139   1.269   5.515  1.1743 -0.3048  0.4611
  668SOL    HW2 2904   6.203   1.237   5.368 -0.0260 -1.6665  0.2158
  669SOL     OW 2905   5.665   0.610   3.575  0.1678  0.2069 -0.2265
  669SOL    HW1 2906   5.757   0.591   3.610  1.5155  2.0963 -2.4539
  669SOL    HW2 2907   5.668   0.617   3.475 -2.3010  0.8801 -0.3069
  670SOL     OW 2908   3.047   3.596   1.687  0.0634 -0.4649 -0.5360
  670SOL    HW1 2909   3.093   3.673   1.643  1.8785 -1.1487  0.0467
  670SOL    HW2 2910   2.959   3.580   1.643  0.4164  0.8386 -1.8080
  671SOL     OW 2911   2.254   6.082   2.035 -0.1459 -0.2210  0.1189
  671SOL    HW1 2912   2.158   6.053   2.039 -0.2892  0.3429  0.9440
  671SOL    HW2 2913   2.270   6.131   1.949  0.1013 -2.6369 -1.3210
  672SOL     OW 2914   6.444   0.378   1.113 -0.5956 -0.5047 -0.1180
  672SOL    HW1 2915   6.387   0.410   1.189 -1.0585  1.0030 -1.0516
  672SOL    HW2 2916   6.519   0.442   1.098 -0.9799 -0.3306 -1.4302
  673SOL     OW 2917   5.119   0.298   1.713 -0.5912  1.0652  0.7012
  673SOL    HW1 2918   5.110   0.271   1.809 -0.3136 -1.3324  0.1347
  673SOL    HW2 2919   5.034   0.278   1.665 -0.5196  1.6778  0.3112
  674SOL     OW 2920   0.458   1.084   3.685 -0.0030  0.6171 -0.0348
  674SOL    HW1 2921   0.384   1.017   3.693  1.9481 -1.7239 -0.2754
  674SOL    HW2 2922   0.507   1.069   3.599  1.6426  1.0552  0.7795
  675SOL     OW 2923   1.390   2.618   3.129 -0.0708 -0.0898 -0.0480
  675SOL    HW1 2924   1.422   2.709   3.099  0.5681  0.2678  1.6001
  675SOL    HW2 2925   1.467   2.567   3.167 -0.6729 -0.8403  0.1821
  676SOL     OW 2926   3.781   5.831   2.752 -0.7611 -0.0742 -0.0885
  676SOL    HW1 2927   3.768   5.922   2.791 -0.2772  0.1713 -0.4897
  676SOL    HW2 2928   3.833   5.774   2.816 -1.9269 -0.3991  0.6058
  677SOL     OW 2929   4.031   2.462   0.339  0.5713  0.2965  0.8340
  677SOL    HW1 2930   3.975   2.414   0.272  0.6764 -2.1304  2.3700
  677SOL    HW2 2931   4.081   2.536   0.294 -0.1760 -0.5412 -1.5181
  678SOL     OW 2932   3.469   5.519   4.423 -0.3842  0.6438 -0.0619
  678SOL    HW1 2933   3.407   5.452   4.463 -0.4596  0.2835 -0.7598
  678SOL    HW2 2934   3.418   5.577   4.359  0.2805 -0.7735 -1.9859
  679SOL     OW 2935   4.616   2.081   2.745 -0.0676  0.0657 -0.4579
  679SOL    HW1 2936   4.672   2.050   2.668 -0.0900 -0.1918 -0.3678
  679SOL    HW2 2937   4.583   2.003   2.797  2.8684  0.2405  1.9746
  680SOL     OW 2938   5.368   6.030   6.592 -0.3101  0.4088  0.4191
  680SOL    HW1 2939   5.454   6.081   6.599 -0.2454  0.5044 -0.9365
  680SOL    HW2 2940   5.362   5.987   6.502 -1.4958  0.0551  0.6594
  681SOL     OW 2941   1.836   3.751   1.175  1.1215  0.0106 -0.3118
  681SOL    HW1 2942   1.856   3.847   1.196 -0.3855  0.4788 -0.9451
  681SOL    HW2 2943   1.754   3.722   1.224  0.1629 -0.2182 -1.9697
  682SOL     OW 2944   1.270   0.450   0.223 -0.4101  0.1030  0.3401
  682SOL    HW1 2945   1.346   0.505   0.190  1.4544 -3.2108 -1.4128
  682SOL    HW2 2946   1.298   0.399   0.305 -1.6548  0.7464  1.1952
  683SOL     OW 2947   5.882   3.039   6.989  0.4700 -0.0443  0.0902
  683SOL    HW1 2948   5.818   2.963   6.999 -3.1384  2.8395  0.9239
  683SOL    HW2 2949   5.911   3.070   7.080 -1.1788  1.8442  0.0410
  684SOL     OW 2950   0.177   0.649   5.224  0.2665 -0.1062 -0.0744
  684SOL    HW1 2951   0.212   0.714   5.292 -0.4440 -0.3456  0.5432
  684SOL    HW2 2952   0.116   0.697   5.161 -0.3575 -0.1842  0.4585
  685SOL     OW 2953   3.681   1.426   5.273 -0.2043  0.2655  0.4301
  685SOL    HW1 2954   3.590   1.466   5.261  0.8028  3.3657  1.8985
  685SOL    HW2 2955   3.691   1.393   5.367  0.8007  1.9986  0.9875
  686SOL     OW 2956   6.253   2.831   3.970  0.5664  0.1347  0.3538
  686SOL    HW1 2957   6.325   2.815   4.038 -0.4891  0.9874  1.7191
  686SOL    HW2 2958   6.215   2.922   3.984 -0.9956 -0.4263 -0.1311
  687SOL     OW 2959   1.498   3.494   5.066  0.1023 -0.1264  0.2864
  687SOL    HW1 2960   1.469   3.401   5.043  0.5775 -0.1838 -0.1281
  687SOL    HW2 2961   1.587   3.490   5.112  1.3022  0.2143 -1.8317
  688SOL     OW 2962   6.514   2.423   6.973  0.0380  0.1399 -0.4410
  688SOL    HW1 2963   6.585   2.430   6.902  1.4957 -0.1469  0.9160
  688SOL    HW2 2964   6.432   2.471   6.944  1.5923  2.5348 -1.1154
  689SOL     OW 2965   0.075   5.535   6.545  0.7369 -0.2466  0.3257
  689SOL    HW1 2966   0.137   5.461   6.569  3.3421  1.6306 -0.1316
  689SOL    HW2 2967   0.035   5.517   6.454  2.0721 -0.6693 -0.2016
  690SOL     OW 2968   0.220   0.466   4.364 -0.3889 -0.2290  0.4244
  690SOL    HW1 2969   0.133   0.507   4.335 -0.7990 -0.5137  1.2303
  690SOL    HW2 2970   0.219   0.369   4.340  0.7302  0.2321 -1.8233
  691SOL     OW 2971   3.599   1.718   6.294  0.4089  0.1764  0.1090
  691SOL    HW1 2972   3.555   1.681   6.211  2.0698 -2.2404  0.2032
  691SOL    HW2 2973   3.561   1.673   6.374  1.3680 -0.2244  0.3553
  692SOL     OW 2974   4.409   0.312   4.154  0.0647  0.1308 -0.3721
  692SOL    HW1 2975   4.362   0.224   4.154  0.4026 -0.0520 -0.3490
  692SOL    HW2 2976   4.496   0.303   4.106  0.2636  0.3643 -0.0595
  693SOL     OW 2977   5.753   2.101   3.380 -1.2384 -0.1865  0.7826
  693SOL    HW1 2978   5.775   2.180   3.437 -3.2053  0.4481  0.7322
  693SOL    HW2 2979   5.765   2.124   3.284  1.5225 -1.0786  0.8407
  694SOL     OW 2980   3.368   6.585   5.317  0.2369 -0.3173 -0.3073
  694SOL    HW1 2981   3.369   6.676   5.273 -0.3743 -1.2570 -2.4206
  694SOL    HW2 2982   3.460   6.546   5.314  0.2897 -0.1914 -0.3637
  695SOL     OW 2983   5.503   1.113   5.237 -0.1041  0.3583 -0.0915
  695SOL    HW1 2984   5.599   1.124   5.209  0.1402 -0.9721  0.1481
  695SOL    HW2 2985   5.449   1.084   5.158  0.0311 -0.5684  0.1475
  696SOL     OW 2986   3.591   5.772   3.956  0.2628  0.7302 -0.2923
  696SOL    HW1 2987   3.537   5.693   3.928  2.2043 -0.5636 -0.6285
  696SOL    HW2 2988   3.568   5.850   3.899 -1.5464  0.3802 -0.1037
  697SOL     OW 2989   0.740   4.615   3.758 -0.7019 -0.2368 -0.1508
  697SOL    HW1 2990   0.762   4.630   3.854  0.6238 -0.9285 -0.3151
  697SOL    HW2 2991   0.692   4.528   3.748  2.1597 -1.9205 -0.4007
  698SOL     OW 2992   5.165   6.258   6.949  0.4125  0.3858  0.5261
  698SOL    HW1 2993   5.191   6.225   6.858 -0.3435 -0.6989  0.6764
  698SOL    HW2 2994   5.244   6.251   7.010  0.0820 -2.1108  0.7808
  699SOL     OW 2995   0.824   3.099   0.054 -0.0862 -0.1599  0.0827
  699SOL    HW1 2996   0.751   3.042   0.017 -0.0031 -0.5476  0.5131
  699SOL    HW2 2997   0.894   3.113  -0.017  0.8760 -2.2446  0.5549
  700SOL     OW 2998   2.518   0.799   2.411  0.4252  0.3706  0.5371
  700SOL    HW1 2999   2.575   0.782   2.491  0.2895  0.0581  0.5722
  700SOL    HW2 3000   2.440   0.735   2.412  1.1812 -0.6150 -0.5848
  701SOL     OW 3001   5.871   3.625   5.617  0.2685  0.3511 -0.2270
  701SOL    HW1 3002   5.967   3.598   5.606  0.8131  2.0097  0.0832
  701SOL    HW2 3003   5.861   3.722   5.592 -1.4693  0.0305 -0.8980
  702SOL     OW 3004   1.893   6.790   3.799 -0.1017  0.2074 -0.0761
  702SOL    HW1 3005   1.837   6.820   3.723  0.5436  1.2031 -0.1702
  702SOL    HW2 3006   1.933   6.869   3.845  1.4116 -0.4829 -0.1556
  703SOL     OW 3007   2.715   3.659   6.509 -0.1701  0.0394  0.0298
  703SOL    HW1 3008   2.804   3.622   6.483  0.3388  0.4023  1.1956
  703SOL    HW2 3009   2.722   3.757   6.523 -0.6381  0.0043  0.5664
  704SOL     OW 3010   1.008   2.612   0.354  0.0067  0.2890  0.2082
  704SOL    HW1 3011   1.030   2.515   0.367  0.2195 -0.0575 -2.2799
  704SOL    HW2 3012   1.040   2.642   0.264 -3.1167  1.7233 -0.5781
  705SOL     OW 3013   5.101   3.511   1.552 -0.1959  0.4745 -0.0774
  705SOL    HW1 3014   5.173   3.573   1.583 -0.4841 -0.1821  2.0847
  705SOL    HW2 3015   5.104   3.427   1.606 -1.2734 -0.4504 -1.3822
  706SOL     OW 3016   4.347   2.408   4.319 -0.3325 -0.6014 -0.1486
  706SOL    HW1 3017   4.386   2.388   4.229 -1.4950 -2.0094 -0.3904
  706SOL    HW2 3018   4.378   2.497   4.351  0.7106 -0.4212 -1.6025
  707SOL     OW 3019   4.543   4.816   2.852  0.5205 -0.0038  0.4225
  707SOL    HW1 3020   4.478   4.744   2.826  0.9440 -0.1151 -0.3761
  707SOL    HW2 3021   4.495   4.904   2.857  0.2884 -0.0982 -0.0826
  708SOL     OW 3022   1.629   2.667   2.027  0.5708  0.1439  0.6977
  708SOL    HW1 3023   1.632   2.595   2.096 -0.5982 -1.6116 -0.9927
  708SOL    HW2 3024   1.571   2.742   2.060 -1.9982 -1.7492  0.7301
  709SOL     OW 3025   2.733   4.806   6.977 -0.0472 -0.1402 -0.0673
  709SOL    HW1 3026   2.821   4.824   6.933 -0.5349 -1.1722 -1.5158
  709SOL    HW2 3027   2.746   4.799   7.076  1.1397  1.7952 -0.0328
  710SOL     OW 3028   3.611   1.186   1.438  0.1508  0.5012  0.3232
  710SOL    HW1 3029   3.553   1.240   1.500 -0.3236  1.8476 -1.2021
  710SOL    HW2 3030   3.639   1.244   1.361  0.5918 -1.1342 -0.7992
  711SOL     OW 3031   0.149   3.375   6.891  0.5450 -0.1228 -0.4910
  711SOL    HW1 3032   0.059   3.364   6.934  0.9828 -0.2928  0.3995
  711SOL    HW2 3033   0.219   3.337   6.951  1.3194  0.8793 -0.7385
  712SOL     OW 3034   4.333   1.613   3.548  0.3261 -0.1193  0.7614
  712SOL    HW1 3035   4.323   1.517   3.522 -1.5878  0.4977 -1.1148
  712SOL    HW2 3036   4.393   1.660   3.483 -0.5127  0.3836  0.3196
  713SOL     OW 3037   2.596   2.387   5.727 -0.3585  0.2283 -0.0316
  713SOL    HW1 3038   2.531   2.331   5.778  0.1122 -0.1487  0.1645
  713SOL    HW2 3039   2.592   2.481   5.760  0.7663 -0.2374  1.5619
  714SOL     OW 3040   0.302   4.691   2.788  0.0408 -0.2527 -0.3168
  714SOL    HW1 3041   0.218   4.739   2.813  1.1433  0.8585  1.5828
  714SOL    HW2 3042   0.292   4.650   2.698 -2.1549  0.7207 -0.5854
  715SOL     OW 3043   6.016   0.785   6.798 -0.2657  0.0452  0.1958
  715SOL    HW1 3044   6.023   0.810   6.701 -0.3739 -0.3943  0.0701
  715SOL    HW2 3045   6.107   0.786   6.839 -0.3137  1.0199  0.2954
  716SOL     OW 3046   2.129   1.464   1.312 -0.2081  0.3335  0.4203
  716SOL    HW1 3047   2.118   1.498   1.405  1.5059 -0.1305  0.8284
  716SOL    HW2 3048   2.226   1.458   1.290 -0.3814 -3.2303  0.0077
  717SOL     OW 3049   0.948   5.263   1.817 -0.5202  0.3831  0.6658
  717SOL    HW1 3050   0.855   5.263   1.853 -0.5502  0.6481  0.5890
  717SOL    HW2 3051   1.003   5.331   1.866 -0.0969 -0.4693  1.4018
  718SOL     OW 3052   4.374   3.002   0.221 -0.2877  0.0647 -0.3354
  718SOL    HW1 3053   4.399   3.079   0.278  0.7693 -1.1255  0.8697
  718SOL    HW2 3054   4.281   3.016   0.184 -0.4173  1.5098  0.4720
  719SOL     OW 3055   4.790   6.546   4.344 -0.6540 -0.4203 -0.2668
  719SOL    HW1 3056   4.716   6.520   4.282 -1.9445 -0.1232  1.0777
  719SOL    HW2 3057   4.809   6.644   4.334 -0.4671 -0.4873 -0.5818
  720SOL     OW 3058   1.666   5.203   4.417 -0.5295 -0.2151  0.0305
  720SOL    HW1 3059   1.752   5.195   4.366  0.2212 -2.1494  1.4727
  720SOL    HW2 3060   1.653   5.298   4.446  0.9054  0.1880 -0.5740
  721SOL     OW 3061   3.316   2.070   3.046  0.1603  0.0621 -0.3098
  721SOL    HW1 3062   3.405   2.036   3.076  0.3594 -0.2184 -1.1882
  721SOL    HW2 3063   3.318   2.087   2.948 -0.1003  2.1190  0.0039
  722SOL     OW 3064   2.394   1.178   4.737 -0.0293 -0.3319  0.1737
  722SOL    HW1 3065   2.365   1.264   4.696  2.2531  0.1042 -0.6796
  722SOL    HW2 3066   2.332   1.104   4.709  0.8212  0.1096 -3.3235
  723SOL     OW 3067   2.453   5.498   3.604  0.6536  0.0379  0.0958
  723SOL    HW1 3068   2.359   5.493   3.640  1.0045 -2.6533  0.8731
  723SOL    HW2 3069   2.517   5.471   3.675  1.8856  0.1555 -0.9360
  724SOL     OW 3070   0.778   0.353   4.230 -0.8084 -0.1881  0.3651
  724SOL    HW1 3071   0.777   0.270   4.286 -0.0743  0.1735  0.9359
  724SOL    HW2 3072   0.803   0.431   4.287  1.7783 -0.0607 -0.7654
  725SOL     OW 3073   0.050   6.290   2.160 -0.6575 -0.0786  0.3487
  725SOL    HW1 3074   0.107   6.327   2.233 -0.4255 -1.3855  0.8620
  725SOL    HW2 3075   0.074   6.334   2.073 -0.4025  0.9374  0.9287
  726SOL     OW 3076   4.016   5.533   6.812  0.4987  0.1870 -0.0622
  726SOL    HW1 3077   3.939   5.549   6.750  0.4005 -0.7593 -0.1957
  726SOL    HW2 3078   3.991   5.464   6.880  1.1042  0.1425  0.1257
  727SOL     OW 3079   5.236   5.696   5.429 -0.3649 -0.0471 -1.0128
  727SOL    HW1 3080   5.299   5.620   5.448 -1.3718 -0.9720 -1.2929
  727SOL    HW2 3081   5.288   5.781   5.422  0.6279 -0.4496  0.8306
  728SOL     OW 3082   4.756   4.196   3.144 -0.3616  0.5042 -0.5273
  728SOL    HW1 3083   4.827   4.253   3.186 -1.2299  1.0224  0.3027
  728SOL    HW2 3084   4.756   4.106   3.188 -1.0192  0.9193  0.3446
  729SOL     OW 3085   5.914   3.805   1.970 -0.5447 -0.3609  0.0411
  729SOL    HW1 3086   5.816   3.786   1.973 -0.6502 -0.0112 -0.8003
  729SOL    HW2 3087   5.931   3.899   2.001 -0.3308 -0.8143  1.3768
  730SOL     OW 3088   0.825   0.141   4.409 -0.0066  0.7032  0.0868
  730SOL    HW1 3089   0.912   0.094   4.424 -0.7501  0.0465  2.8999
  730SOL    HW2 3090   0.750   0.076   4.419 -0.9296  1.8261  0.6985
  731SOL     OW 3091   4.230   6.828   6.608 -0.4428 -0.2713  1.0222
  731SOL    HW1 3092   4.320   6.791   6.584 -1.3026 -1.9018  0.1131
  731SOL    HW2 3093   4.188   6.771   6.679 -0.6230  0.6974  1.7145
  732SOL     OW 3094   0.018   0.789   2.283  0.3508 -0.8801  0.0797
  732SOL    HW1 3095   0.070   0.731   2.221  1.0842 -0.3143  0.1459
  732SOL    HW2 3096   0.009   0.881   2.242 -3.8063 -1.8580 -1.6895
  733SOL     OW 3097   6.324   5.697   4.010 -0.2381  0.2461 -0.4670
  733SOL    HW1 3098   6.375   5.783   4.018 -1.3582  0.8837  0.0999
  733SOL    HW2 3099   6.229   5.713   4.034 -0.6933 -0.9458 -1.4004
  734SOL     OW 3100   6.597   5.935   4.621  0.1706  0.0285 -0.5116
  734SOL    HW1 3101   6.558   5.884   4.545 -0.4775 -1.5348  0.8371
  734SOL    HW2 3102   6.544   6.019   4.636 -0.3692 -0.2113 -1.0496
  735SOL     OW 3103   2.426   3.778   6.575 -0.3175 -0.3524 -0.6014
  735SOL    HW1 3104   2.484   3.817   6.503  1.1349 -0.6601  0.3580
  735SOL    HW2 3105   2.371   3.704   6.537  2.6959 -2.6314 -0.8606
  736SOL     OW 3106   1.179   2.537   3.922  0.0080 -0.3173  0.8752
  736SOL    HW1 3107   1.157   2.598   3.997 -0.4692  2.2453 -1.2138
  736SOL    HW2 3108   1.094   2.504   3.880  0.2589 -0.7664  0.7113
  737SOL     OW 3109   3.605   0.005   6.762 -0.5188  0.1211 -0.2437
  737SOL    HW1 3110   3.665   0.084   6.745 -0.1056  0.7328  3.4140
  737SOL    HW2 3111   3.633  -0.070   6.703  0.6138  1.9150 -2.1523
  738SOL     OW 3112   4.482   3.801   1.576 -0.3737  0.3743  0.0705
  738SOL    HW1 3113   4.570   3.759   1.557 -0.4798  0.0358  0.3006
  738SOL    HW2 3114   4.412   3.729   1.584 -0.4927  0.5703  0.8303
  739SOL     OW 3115   6.517   0.733   4.984 -0.1214  0.4379 -0.2078
  739SOL    HW1 3116   6.520   0.774   5.075 -0.0694  1.5016 -0.6701
  739SOL    HW2 3117   6.525   0.805   4.915 -0.2722 -0.3402 -1.0582
  740SOL     OW 3118   5.624   0.614   2.910  0.2962 -0.3803  0.1299
  740SOL    HW1 3119   5.534   0.606   2.951  0.1454 -2.1486 -0.4646
  740SOL    HW2 3120   5.631   0.553   2.831  1.9062 -0.0514 -0.0295
  741SOL     OW 3121   2.367   0.031   2.566 -0.0304 -0.4133  0.3975
  741SOL    HW1 3122   2.272   0.027   2.533  0.5471 -0.6453 -1.3169
  741SOL    HW2 3123   2.425  -0.025   2.508  1.2387  0.0341  1.1987
  742SOL     OW 3124   1.111   6.728   2.795  0.2238 -0.4915  0.1615
  742SOL    HW1 3125   1.015   6.711   2.772  0.0736  1.0360 -0.5112
  742SOL    HW2 3126   1.115   6.785   2.877  0.4751  0.6481 -0.6158
  743SOL     OW 3127   0.317   4.355   1.089  0.4539  0.2863 -0.0993
  743SOL    HW1 3128   0.356   4.433   1.138  1.5243  0.1149 -0.6408
  743SOL    HW2 3129   0.355   4.270   1.124  0.6921  0.1217 -0.7437
  744SOL     OW 3130   4.911   0.383   2.474 -0.2669 -0.0312  0.0867
  744SOL    HW1 3131   4.827   0.401   2.424 -1.2514  0.1059  1.7246
  744SOL    HW2 3132   4.988   0.426   2.426 -1.0866 -0.2831 -1.5049
  745SOL     OW 3133   2.631   5.778   6.212 -0.7889 -0.2149 -0.9469
  745SOL    HW1 3134   2.604   5.824   6.127 -1.3366  1.4799  0.1073
  745SOL    HW2 3135   2.666   5.846   6.277 -3.3811 -0.9359  1.3835
  746SOL     OW 3136   5.893   4.794   5.471 -0.8234  0.3099  0.2375
  746SOL    HW1 3137   5.945   4.818   5.553 -1.9819  1.0783  0.7755
  746SOL    HW2 3138   5.862   4.699   5.477  1.8330 -0.7301 -0.8452
  747SOL     OW 3139   3.474   6.708   5.597 -0.9324  0.5253  0.1786
  747SOL    HW1 3140   3.523   6.659   5.525 -1.0269  2.7509 -1.5011
  747SOL    HW2 3141   3.387   6.662   5.615 -0.2732 -0.8756 -0.0609
  748SOL     OW 3142   4.465   4.552   3.482  0.6454  0.3318  0.0592
  748SOL    HW1 3143   4.428   4.528   3.572 -0.7964  0.1239 -0.5545
  748SOL    HW2 3144   4.563   4.533   3.480  0.2745 -2.0392  0.7923
  749SOL     OW 3145   5.224   6.669   5.051 -0.2195 -0.1405  0.5083
  749SOL    HW1 3146   5.165   6.709   4.981  0.7203 -0.9806 -0.8122
  749SOL    HW2 3147   5.168   6.639   5.128 -1.4812 -0.5678 -0.5359
  750SOL     OW 3148   1.339   0.018   6.792  0.2848 -0.2986  0.3005
  750SOL    HW1 3149   1.306  -0.034   6.871 -0.7360  1.3769  1.0252
  750SOL    HW2 3150   1.284  -0.005   6.712 -0.1331 -0.3530  0.6030
  751SOL     OW 3151   4.310   2.415   0.970 -0.0582  0.1478 -0.1813
  751SOL    HW1 3152   4.300   2.490   0.905  1.6888  0.8586  0.3218
  751SOL    HW2 3153   4.281   2.446   1.061  1.2566  0.4478  0.1542
  752SOL     OW 3154   2.738   3.004   1.284  1.0477 -0.1765 -0.0735
  752SOL    HW1 3155   2.780   2.950   1.357  1.0203  1.8500  1.5300
  752SOL    HW2 3156   2.639   2.992   1.287  0.9569  0.6975  0.9390
  753SOL     OW 3157   0.623   2.744   6.656  0.0527  0.9605 -0.8576
  753SOL    HW1 3158   0.687   2.775   6.585  0.8820 -0.5238 -0.7960
  753SOL    HW2 3159   0.596   2.650   6.637 -0.3161  0.8024  0.3946
  754SOL     OW 3160   6.357   2.527   0.713 -0.3678 -0.4864 -0.3177
  754SOL    HW1 3161   6.377   2.458   0.782 -0.0794 -0.2772 -0.1879
  754SOL    HW2 3162   6.374   2.490   0.622 -0.5204 -0.6878 -0.2642
  755SOL     OW 3163   1.731   4.379   2.937 -0.6460 -0.0003  0.3024
  755SOL    HW1 3164   1.683   4.378   3.025  0.6159 -0.6047  1.0175
  755SOL    HW2 3165   1.821   4.338   2.949  0.6057  2.3084 -0.6884
  756SOL     OW 3166   2.290   5.694   5.586  0.7836 -0.1090  0.1899
  756SOL    HW1 3167   2.302   5.595   5.598  1.5246 -0.0556 -0.0868
  756SOL    HW2 3168   2.266   5.712   5.490  0.5405 -0.0293  0.2660
  757SOL     OW 3169   0.092   6.699   6.652  0.3866  0.4566  0.1715
  757SOL    HW1 3170   0.121   6.794   6.664  0.9052  0.3203  0.0494
  757SOL    HW2 3171   0.160   6.639   6.695  1.4141  0.0218 -1.9293
  758SOL     OW 3172   4.032   2.190   2.818 -0.1086  0.1596  0.2765
  758SOL    HW1 3173   3.933   2.188   2.830 -0.2880  0.0218 -1.0343
  758SOL    HW2 3174   4.072   2.108   2.860 -0.5395  0.2237  0.8249
  759SOL     OW 3175   1.830   3.950   3.840  0.4425 -0.0791  0.0802
  759SOL    HW1 3176   1.792   4.026   3.893  2.5517  1.1171 -0.0312
  759SOL    HW2 3177   1.755   3.903   3.792 -1.0571  1.1412  1.1239
  760SOL     OW 3178   5.489   1.450   2.977 -0.4085 -0.9433  0.0698
  760SOL    HW1 3179   5.563   1.517   2.977 -2.0384  1.0060 -0.9042
  760SOL    HW2 3180   5.514   1.371   3.032  2.7287 -0.8055 -0.9817
  761SOL     OW 3181   6.656   5.750   5.990  0.2024  0.3431 -0.3299
  761SOL    HW1 3182   6.645   5.660   5.948  0.4255  0.4928 -0.7092
  761SOL    HW2 3183   6.722   5.743   6.065  0.0288  0.1364 -0.1953
  762SOL     OW 3184   4.242   0.440   6.174 -0.0600  0.0399 -0.2075
  762SOL    HW1 3185   4.168   0.376   6.193  0.2493 -0.0318  0.8273
  762SOL    HW2 3186   4.308   0.398   6.112  0.8415 -1.1884  1.5081
  763SOL     OW 3187   5.100   5.595   5.941  0.1262 -0.7902 -0.3643
  763SOL    HW1 3188   5.122   5.504   5.977  2.4522 -0.2627 -0.3049
  763SOL    HW2 3189   5.143   5.607   5.852  0.9261  0.6592  0.1782
  764SOL     OW 3190   6.753   1.266   6.005  0.3004  0.1323 -0.0005
  764SOL    HW1 3191   6.688   1.250   5.931 -0.3836  0.5025  0.5158
  764SOL    HW2 3192   6.845   1.275   5.966  0.2015 -1.3724 -0.6338
  765SOL     OW 3193   6.478   5.697   0.702  0.1963  0.1782 -0.4523
  765SOL    HW1 3194   6.520   5.612   0.734 -0.0093 -0.0670 -0.8208
  765SOL    HW2 3195   6.399   5.719   0.760  0.4413  0.2850 -0.1631
  766SOL     OW 3196   1.749   1.807   5.631  0.0926 -0.2374 -0.1725
  766SOL    HW1 3197   1.809   1.887   5.633 -0.7928  0.4548 -0.8268
  766SOL    HW2 3198   1.679   1.819   5.561 -0.0564 -1.5914 -0.2749
  767SOL     OW 3199   6.522   6.418   2.548  0.5047  0.0451 -0.2701
  767SOL    HW1 3200   6.568   6.505   2.567 -1.0299  0.5229  1.5542
  767SOL    HW2 3201   6.425   6.434   2.534  0.4714 -1.2093 -1.7709
  768SOL     OW 3202   2.971   5.393   2.739  0.4827 -0.2916 -0.1743
  768SOL    HW1 3203   3.008   5.392   2.646  0.9840 -0.7682  0.0255
  768SOL    HW2 3204   2.975   5.301   2.777 -0.3862 -0.2344  0.0650
  769SOL     OW 3205   3.379   0.321   5.798  0.2888 -0.0036  0.3448
  769SOL    HW1 3206   3.303   0.307   5.735  0.5243 -0.7670  0.2184
  769SOL    HW2 3207   3.384   0.245   5.863  1.9077 -0.8256 -0.6587
  770SOL     OW 3208   3.193   6.842   2.961  0.5775 -0.1995 -0.2532
  770SOL    HW1 3209   3.132   6.913   2.926  1.2763 -0.2293 -1.6300
  770SOL    HW2 3210   3.285   6.880   2.972  0.3816 -0.1938  1.6560
  771SOL     OW 3211   0.726   5.166   1.524  0.3085  0.0809  0.1007
  771SOL    HW1 3212   0.725   5.262   1.554 -0.5123 -0.5993  2.4897
  771SOL    HW2 3213   0.697   5.161   1.429 -0.3090  2.1557  0.1213
  772SOL     OW 3214   0.197   2.838   0.249 -0.3557  0.0876 -0.3664
  772SOL    HW1 3215   0.251   2.761   0.283  0.0225 -0.3982 -1.9939
  772SOL    HW2 3216   0.253   2.893   0.187  0.2165  3.1489  2.5381
  773SOL     OW 3217   0.302   4.995   3.354  0.2562 -0.8777 -0.2392
  773SOL    HW1 3218   0.215   4.976   3.398 -0.5162 -1.4699 -1.9526
  773SOL    HW2 3219   0.377   4.968   3.415 -0.6162  2.1807  2.4428
  774SOL     OW 3220   1.869   1.073   0.928 -0.2704 -0.0230 -0.3399
  774SOL    HW1 3221   1.959   1.116   0.918 -0.1001 -0.3611 -0.2560
  774SOL    HW2 3222   1.814   1.093   0.847 -0.9423  2.1043  0.5844
  775SOL     OW 3223   1.875   4.016   5.601  0.3203 -0.1180 -0.4214
  775SOL    HW1 3224   1.778   4.006   5.581  0.3483  1.7166 -1.7950
  775SOL    HW2 3225   1.925   4.034   5.516  1.5821  0.7460  0.4494
  776SOL     OW 3226   6.797   6.858   5.820  0.2323  0.4397 -0.0709
  776SOL    HW1 3227   6.812   6.784   5.885  0.2663  0.2332 -0.3116
  776SOL    HW2 3228   6.703   6.854   5.786 -0.3956  1.7071  1.4053
  777SOL     OW 3229   2.890   4.794   1.782 -0.3623  0.1374 -0.9794
  777SOL    HW1 3230   2.857   4.728   1.849  2.1216  0.4333  0.6774
  777SOL    HW2 3231   2.934   4.746   1.707  3.3225 -0.3215  1.2141
  778SOL     OW 3232   3.728   6.797   6.632  0.3578 -0.0351 -0.1427
  778SOL    HW1 3233   3.814   6.798   6.682  0.5243 -1.2743 -0.3655
  778SOL    HW2 3234   3.670   6.723   6.667  0.7160 -1.3437 -2.1246
  779SOL     OW 3235   1.023   0.759   1.897  0.0409  0.4102  0.1291
  779SOL    HW1 3236   0.960   0.743   1.973  2.2733 -2.3262  1.5488
  779SOL    HW2 3237   1.052   0.855   1.897 -2.1305  1.1279  0.9276
  780SOL     OW 3238   0.356   3.982   4.298  0.5853 -0.5033  0.0614
  780SOL    HW1 3239   0.332   4.046   4.224 -0.1963  0.0208  0.7482
  780SOL    HW2 3240   0.454   3.987   4.317  0.4879  0.7451  0.3256
  781SOL     OW 3241   0.254   6.018   1.949  0.0955 -0.2098 -0.6789
  781SOL    HW1 3242   0.286   5.938   1.898  0.9611 -1.5535  1.8052
  781SOL    HW2 3243   0.216   5.988   2.036  1.7069  2.1489  0.9401
  782SOL     OW 3244   2.232   3.355   0.039  0.0034  0.5318 -0.5191
  782SOL    HW1 3245   2.163   3.404   0.092  1.2067  1.8727 -0.1624
  782SOL    HW2 3246   2.314   3.342   0.094  1.2051  1.7626 -1.9526
  783SOL     OW 3247   3.232   4.979   2.484 -0.4606  0.0191  0.7857
  783SOL    HW1 3248   3.282   5.040   2.422 -0.5739 -0.7482 -0.0903
  783SOL    HW2 3249   3.290   4.957   2.562 -0.4158  1.2360  1.1235
  784SOL     OW 3250   4.416   5.163   0.926  0.2758  0.3980  1.4254
  784SOL    HW1 3251   4.347   5.166   0.998 -0.1500  0.2531  1.0283
  784SOL    HW2 3252   4.421   5.253   0.881 -1.0964 -0.1322  0.1268
  785SOL     OW 3253   2.191   2.972   2.203 -0.1020  0.1501  0.1876
  785SOL    HW1 3254   2.209   2.923   2.288 -0.7759 -1.9094 -0.7990
  785SOL    HW2 3255   2.246   2.933   2.129  0.4769  1.9047 -0.3503
  786SOL     OW 3256   1.571   1.080   3.339 -0.4692 -0.2746 -0.0217
  786SOL    HW1 3257   1.644   1.019   3.369 -0.4679  0.0512  0.6499
  786SOL    HW2 3258   1.485   1.052   3.382 -0.2842  0.7899  1.1116
  787SOL     OW 3259   1.544   6.595   5.711 -0.5714 -0.2037 -0.0568
  787SOL    HW1 3260   1.604   6.613   5.789 -0.3028 -1.1842 -0.0220
  787SOL    HW2 3261   1.584   6.637   5.629 -1.4290  1.8195  0.4924
  788SOL     OW 3262   4.339   2.005   2.241 -0.0602 -0.2138  0.3766
  788SOL    HW1 3263   4.255   2.048   2.209  1.4416  0.8045 -2.6473
  788SOL    HW2 3264   4.409   2.076   2.252  0.9148 -1.2480  0.9837
  789SOL     OW 3265   3.863   4.690   1.746 -0.2150 -0.3682 -0.4427
  789SOL    HW1 3266   3.778   4.694   1.799 -0.3087 -0.3807 -0.5941
  789SOL    HW2 3267   3.843   4.700   1.649  0.0962  1.2206 -0.3705
  790SOL     OW 3268   0.732   1.279   3.551 -0.0730 -0.9186  0.1484
  790SOL    HW1 3269   0.672   1.300   3.628 -0.2315 -3.5726  0.8758
  790SOL    HW2 3270   0.819   1.244   3.585  0.7976  0.1511 -0.9083
  791SOL     OW 3271   2.633   0.300   4.826  0.0280  0.2102 -0.3405
  791SOL    HW1 3272   2.607   0.354   4.905 -1.5334  1.9552 -1.9385
  791SOL    HW2 3273   2.611   0.350   4.742  1.0517 -1.7919 -1.9078
  792SOL     OW 3274   0.657   6.998   3.136  0.5524  0.1357 -0.0423
  792SOL    HW1 3275   0.644   6.985   3.038 -0.7573 -0.1526  0.1493
  792SOL    HW2 3276   0.721   7.073   3.152 -0.6259  1.4279 -1.1184
  793SOL     OW 3277   4.680   5.804   3.901  0.0082 -0.0900 -0.0327
  793SOL    HW1 3278   4.601   5.781   3.958 -0.4142  0.2617 -0.4667
  793SOL    HW2 3279   4.734   5.874   3.948  0.0924 -0.3640  0.2869
  794SOL     OW 3280   3.746   3.854   6.567 -0.0518 -0.2055 -0.1108
  794SOL    HW1 3281   3.808   3.784   6.531 -0.0001 -1.1331  1.7109
  794SOL    HW2 3282   3.651   3.821   6.561 -0.2151  0.3924 -1.0402
  795SOL     OW 3283   3.259   6.350   5.402  0.0752 -0.5374 -0.1889
  795SOL    HW1 3284   3.252   6.340   5.501  0.7093  0.5227 -0.0284
  795SOL    HW2 3285   3.276   6.445   5.379 -0.3723 -0.7173 -1.3475
  796SOL     OW 3286   1.014   3.286   0.617  0.4114  0.3550  0.1076
  796SOL    HW1 3287   1.101   3.239   0.604 -1.7829 -3.9532 -1.1172
  796SOL    HW2 3288   0.978   3.264   0.708 -1.4315 -2.1584 -1.0955
  797SOL     OW 3289   3.556   0.359   0.769 -0.0492  0.1326 -0.3314
  797SOL    HW1 3290   3.523   0.408   0.688 -2.2327 -1.0326 -0.2377
  797SOL    HW2 3291   3.494   0.376   0.846  0.4495 -0.9032  0.3288
  798SOL     OW 3292   3.993   6.987   0.764 -0.1009 -0.1291  0.4722
  798SOL    HW1 3293   3.921   6.952   0.705 -0.2859 -0.7635  1.0682
  798SOL    HW2 3294   4.016   6.919   0.833 -1.2543  1.3355  2.3680
  799SOL     OW 3295   1.061   5.136   6.287 -0.2265  0.5987 -0.2252
  799SOL    HW1 3296   1.065   5.146   6.188 -1.8337  0.5745 -0.3304
  799SOL    HW2 3297   0.982   5.078   6.311 -0.3220  1.2351  1.0898
  800SOL     OW 3298   0.252   0.164   3.209  0.9005 -0.3245 -0.7194
  800SOL    HW1 3299   0.302   0.233   3.261 -0.1929  0.7323 -1.0388
  800SOL    HW2 3300   0.164   0.146   3.252  1.3570 -1.8984 -0.3707
  801SOL     OW 3301   2.285   3.884   6.007  0.8495  0.2218  0.0024
  801SOL    HW1 3302   2.244   3.887   5.916  0.8780  0.7343  0.0020
  801SOL    HW2 3303   2.379   3.851   6.000  1.1000  0.9741 -0.2503
  802SOL     OW 3304   1.665   1.848   7.020 -0.4897  0.0699 -0.0253
  802SOL    HW1 3305   1.732   1.923   7.019 -1.7664  1.2417 -0.3814
  802SOL    HW2 3306   1.577   1.882   7.054 -1.6788 -0.7482 -2.1163
  803SOL     OW 3307   0.710   1.984   5.905  0.5776  0.3176  0.1217
  803SOL    HW1 3308   0.704   1.885   5.908  0.9291  0.3163  0.7439
  803SOL    HW2 3309   0.784   2.016   5.964  0.3036  0.9640  0.1297
  804SOL     OW 3310   7.018   6.558   1.014 -0.1242 -0.2956 -0.3411
  804SOL    HW1 3311   6.970   6.480   0.973 -0.1237 -0.3352 -0.2681
  804SOL    HW2 3312   7.044   6.623   0.943  3.0053 -1.9992 -0.9719
  805SOL     OW 3313   2.889   0.371   3.411 -0.6001 -0.4962 -0.8268
  805SOL    HW1 3314   2.838   0.458   3.418 -0.3390 -0.4029  0.1325
  805SOL    HW2 3315   2.824   0.295   3.405 -0.8297 -0.2126 -2.1199
  806SOL     OW 3316   6.503   5.929   6.366  0.0757 -0.1984  0.1134
  806SOL    HW1 3317   6.483   6.020   6.402 -0.3849 -0.4948  0.6107
  806SOL    HW2 3318   6.600   5.924   6.342  0.4501 -0.0517  1.5006
  807SOL     OW 3319   0.522   2.504   5.348 -0.4369  0.7112 -0.0242
  807SOL    HW1 3320   0.467   2.584   5.374  1.4649  1.0501  3.5690
  807SOL    HW2 3321   0.472   2.421   5.371 -0.5829  0.9641  0.5992
  808SOL     OW 3322   4.523   4.871   6.373  0.5591  0.8630 -0.1453
  808SOL    HW1 3323   4.424   4.862   6.374  0.7093 -1.8356 -0.9058
  808SOL    HW2 3324   4.562   4.816   6.446  1.5650 -0.7758 -1.8191
  809SOL     OW 3325   1.446   4.788   3.347  0.2424  0.2527  0.2158
  809SOL    HW1 3326   1.404   4.841   3.273  0.7623  1.1565  0.5545
  809SOL    HW2 3327   1.508   4.720   3.307 -0.5274 -0.1956 -0.2300
  810SOL     OW 3328   3.280   4.359   1.220  0.1951 -0.2865 -0.2484
  810SOL    HW1 3329   3.310   4.454   1.211  0.6769 -0.5270 -1.4072
  810SOL    HW2 3330   3.257   4.340   1.315  1.8885  0.4807  0.3555
  811SOL     OW 3331   4.183   4.944   6.088 -0.1087 -0.0867 -0.5762
  811SOL    HW1 3332   4.175   5.030   6.140 -0.4719 -0.4173 -0.0757
  811SOL    HW2 3333   4.279   4.917   6.084  0.2017  1.1059 -2.0028
  812SOL     OW 3334   1.237   0.895   2.544  0.1790  0.2253 -0.0241
  812SOL    HW1 3335   1.302   0.932   2.478  0.1911  0.8398  0.3239
  812SOL    HW2 3336   1.184   0.821   2.502  1.0840 -0.2690 -0.3177
  813SOL     OW 3337   3.866   6.423   4.108 -0.4935  0.0780  0.1089
  813SOL    HW1 3338   3.952   6.386   4.073 -0.3692  0.7820 -0.3666
  813SOL    HW2 3339   3.884   6.509   4.156 -0.9052  0.1264  0.1787
  814SOL     OW 3340   6.775   5.773   2.909  0.6946 -0.1801  0.2093
  814SOL    HW1 3341   6.686   5.729   2.896  1.5472 -1.7052 -0.7976
  814SOL    HW2 3342   6.784   5.849   2.845  0.1968 -0.1199  0.2030
  815SOL     OW 3343   6.886   3.132   3.924  0.2301 -0.3683  0.1845
  815SOL    HW1 3344   6.934   3.191   3.989  0.2326 -0.1949  0.0264
  815SOL    HW2 3345   6.841   3.188   3.854  0.1374 -0.5483  0.0974
  816SOL     OW 3346   5.441   5.334   2.409 -0.0567  0.1391 -0.5556
  816SOL    HW1 3347   5.407   5.417   2.453 -1.4496 -0.1791 -0.9722
  816SOL    HW2 3348   5.422   5.255   2.467  0.1720 -0.0304 -0.7067
  817SOL     OW 3349   1.845   6.652   2.983 -0.3935  0.5055 -0.0391
  817SOL    HW1 3350   1.774   6.609   2.928 -0.4784 -2.1847  1.9721
  817SOL    HW2 3351   1.822   6.645   3.079  2.1809  0.3146  0.6446
  818SOL     OW 3352   5.962   2.393   3.018  0.6615  0.3093 -0.5207
  818SOL    HW1 3353   6.022   2.314   3.013 -0.8223 -0.8521 -0.5574
  818SOL    HW2 3354   5.871   2.368   2.986  0.3926  2.2989 -1.4634
  819SOL     OW 3355   6.487   3.558   1.430  0.3176 -0.4326  0.5335
  819SOL    HW1 3356   6.562   3.590   1.489  1.1771  2.2630 -1.7940
  819SOL    HW2 3357   6.419   3.631   1.421  0.0849 -0.8665 -1.5740
  820SOL     OW 3358   2.764   2.465   5.155 -0.0803  0.0529 -0.1835
  820SOL    HW1 3359   2.857   2.447   5.185  0.0772 -0.2580 -0.8264
  820SOL    HW2 3360   2.729   2.547   5.200 -0.2604 -0.9867  1.6590
  821SOL     OW 3361   4.846   5.480   4.742  0.1301  0.0646  0.3152
  821SOL    HW1 3362   4.912   5.406   4.752  0.1196 -0.2367 -1.5337
  821SOL    HW2 3363   4.764   5.459   4.795 -0.1320 -1.5951 -0.6791
  822SOL     OW 3364   6.557   3.275   4.634  0.3015  0.2397  0.2139
  822SOL    HW1 3365   6.488   3.205   4.648 -1.2371  2.0536  2.5516
  822SOL    HW2 3366   6.648   3.233   4.630 -0.4602 -1.8479  2.5200
  823SOL     OW 3367   6.096   5.711   5.156  0.9887 -0.4537 -0.3820
  823SOL    HW1 3368   6.177   5.655   5.174  0.8615  0.1244  2.5005
  823SOL    HW2 3369   6.019   5.676   5.208  0.3319  1.0886 -0.2527
  824SOL     OW 3370   3.371   0.427   6.739 -0.7961  0.6325 -0.1578
  824SOL    HW1 3371   3.321   0.493   6.795 -1.4127  0.6835 -0.7528
  824SOL    HW2 3372   3.416   0.361   6.798 -2.7256 -0.2667  0.3945
  825SOL     OW 3373   5.481   4.830   2.667 -0.3209  0.1894  0.3110
  825SOL    HW1 3374   5.477   4.763   2.593  0.6430  0.8500 -0.3657
  825SOL    HW2 3375   5.569   4.878   2.665 -0.6463  0.8765  1.3090
  826SOL     OW 3376   3.082   1.805   5.240  0.0678 -0.1876 -0.6322
  826SOL    HW1 3377   2.996   1.849   5.264  1.4021  2.6398 -0.5815
  826SOL    HW2 3378   3.124   1.854   5.164  2.1689 -0.7260  0.1117
  827SOL     OW 3379   2.327   4.861   5.023  0.0845  0.0960 -0.2513
  827SOL    HW1 3380   2.340   4.911   4.937  1.7307  0.3618  0.1203
  827SOL    HW2 3381   2.415   4.824   5.054 -0.5852 -0.4987  1.0284
  828SOL     OW 3382   6.714   0.041   0.980  0.2042  0.1116  0.1807
  828SOL    HW1 3383   6.731   0.006   1.072  1.0272 -0.2135 -0.0858
  828SOL    HW2 3384   6.630  -0.001   0.943 -0.2456  0.4044  0.8522
  829SOL     OW 3385   5.611   4.429   1.365  0.2114  0.7281 -0.5349
  829SOL    HW1 3386   5.579   4.335   1.365 -0.3733  0.9210 -0.2759
  829SOL    HW2 3387   5.601   4.468   1.273  0.5039  0.5216 -0.6542
  830SOL     OW 3388   5.901   5.136   6.580  0.6519  0.0287 -0.1687
  830SOL    HW1 3389   5.832   5.065   6.596  0.8626  0.0674  1.0291
  830SOL    HW2 3390   5.893   5.170   6.487 -0.3645 -0.5891 -0.3214
  831SOL     OW 3391   6.510   0.805   5.668 -0.4478 -0.6083  0.4389
  831SOL    HW1 3392   6.412   0.803   5.688 -0.6660 -0.5815 -0.5422
  831SOL    HW2 3393   6.529   0.883   5.607 -0.0380 -1.3800 -0.4377
  832SOL     OW 3394   3.958   2.056   4.031 -0.6210  0.0644  0.1854
  832SOL    HW1 3395   3.894   2.132   4.037  0.7889  1.2429  1.0137
  832SOL    HW2 3396   4.017   2.055   4.111  0.0373 -1.3280 -0.2742
  833SOL     OW 3397   3.708   3.715   6.864  0.1769  0.6245 -0.4963
  833SOL    HW1 3398   3.729   3.667   6.949 -0.3023  2.5096  0.7604
  833SOL    HW2 3399   3.785   3.776   6.841 -0.0831  0.8065 -0.8886
  834SOL     OW 3400   6.456   5.288   1.436 -0.2236 -0.1027  0.4676
  834SOL    HW1 3401   6.430   5.192   1.429  2.1229 -0.8769  1.4608
  834SOL    HW2 3402   6.414   5.329   1.517  1.1740 -1.2076  1.8152
  835SOL     OW 3403   1.689   6.714   4.664 -0.6403 -0.4931  0.2486
  835SOL    HW1 3404   1.639   6.800   4.674 -0.3342 -0.4330  1.5090
  835SOL    HW2 3405   1.647   6.659   4.592 -0.6884  0.8032 -0.7590
  836SOL     OW 3406   3.473   6.230   4.635  0.3229 -0.6952 -0.3868
  836SOL    HW1 3407   3.475   6.136   4.671 -0.0843 -0.2336  0.9068
  836SOL    HW2 3408   3.546   6.283   4.677 -0.8432  0.1463  0.6626
  837SOL     OW 3409   7.003   6.934   1.933  0.6430 -0.1966 -0.5485
  837SOL    HW1 3410   7.002   6.865   2.005 -2.2260  1.7793  1.5362
  837SOL    HW2 3411   6.916   6.930   1.882  0.3905  1.8249 -0.3477
  838SOL     OW 3412   2.986   5.757   3.553 -0.9470  0.8242 -0.1125
  838SOL    HW1 3413   2.949   5.706   3.630 -0.8052  1.8430  0.6532
  838SOL    HW2 3414   3.081   5.783   3.573  0.3500 -1.8901 -2.0958
  839SOL     OW 3415   1.333   3.472   1.362  0.2440 -0.9984 -0.3460
  839SOL    HW1 3416   1.391   3.510   1.434 -0.3965 -1.2026  0.2966
  839SOL    HW2 3417   1.372   3.492   1.272  0.4153  0.3350  0.0162
  840SOL     OW 3418   5.998   6.496   0.133 -0.1124 -0.1324  0.3136
  840SOL    HW1 3419   5.960   6.582   0.100 -0.6786 -0.2978  0.5295
  840SOL    HW2 3420   5.968   6.421   0.073 -0.7081 -0.3602  0.8909
  841SOL     OW 3421   4.398   6.548   6.389 -0.7324 -0.5784 -0.2069
  841SOL    HW1 3422   4.379   6.601   6.472 -1.6764  1.3184 -1.5481
  841SOL    HW2 3423   4.315   6.504   6.357 -1.4825  2.1010 -2.3217
  842SOL     OW 3424   2.496   5.775   4.848  0.3118 -0.0408 -0.3400
  842SOL    HW1 3425   2.516   5.873   4.837 -0.0488  0.1073  0.2694
  842SOL    HW2 3426   2.581   5.726   4.868  0.2523  0.4206  1.1632
  843SOL     OW 3427   2.577   1.234   2.050  0.4295 -0.1733  0.0895
  843SOL    HW1 3428   2.613   1.222   1.957 -0.3374 -0.5180 -0.1690
  843SOL    HW2 3429   2.516   1.158   2.072  0.3956  0.0498  0.7798
  844SOL     OW 3430   4.942   0.274   5.938  0.1173 -0.1643 -0.1252
  844SOL    HW1 3431   5.006   0.216   5.988  1.7740  0.6165 -1.2590
  844SOL    HW2 3432   4.981   0.299   5.850 -2.3960 -0.8740 -1.5491
  845SOL     OW 3433   5.127   5.206   4.346 -0.3065 -0.0452  0.1036
  845SOL    HW1 3434   5.049   5.267   4.360 -0.0909  0.2793 -0.0976
  845SOL    HW2 3435   5.176   5.194   4.433  1.5512  2.6818 -0.4327
  846SOL     OW 3436   3.010   6.872   5.121  0.1906 -0.5429 -0.5162
  846SOL    HW1 3437   2.980   6.940   5.187  0.7646 -0.8236  0.0458
  846SOL    HW2 3438   3.054   6.917   5.043  2.4081 -0.3175  0.7788
  847SOL     OW 3439   2.168   3.215   6.842 -0.2014 -0.7282  0.0055
  847SOL    HW1 3440   2.226   3.281   6.793 -0.4781  0.0407  0.6858
  847SOL    HW2 3441   2.150   3.249   6.934 -3.5858  0.1774 -0.8844
  848SOL     OW 3442   6.755   5.989   6.763 -0.1757 -0.2554  0.1507
  848SOL    HW1 3443   6.789   5.974   6.856 -0.9339 -0.8081  0.3492
  848SOL    HW2 3444   6.655   5.986   6.764 -0.3477  2.6715 -0.1797
  849SOL     OW 3445   6.551   3.073   6.679 -0.4045 -0.3636 -0.1800
  849SOL    HW1 3446   6.496   3.152   6.652 -1.3132 -1.2051 -0.8586
  849SOL    HW2 3447   6.523   3.042   6.770  0.6040  0.6467  0.5008
  850SOL     OW 3448   0.674   1.149   4.321 -0.0254 -0.3482  0.1588
  850SOL    HW1 3449   0.645   1.058   4.349 -0.4253 -0.7220 -1.3689
  850SOL    HW2 3450   0.697   1.149   4.224 -0.6247  1.3066 -0.0314
  851SOL     OW 3451   1.198   3.583   1.789  0.4036  0.1194  0.7557
  851SOL    HW1 3452   1.287   3.620   1.766  1.1162 -1.4642  0.8465
  851SOL    HW2 3453   1.143   3.572   1.706 -0.6734  3.2917  0.9099
  852SOL     OW 3454   0.709   2.848   1.522 -0.1735  0.0605 -0.4807
  852SOL    HW1 3455   0.664   2.912   1.584  0.9254  1.8424 -1.4512
  852SOL    HW2 3456   0.770   2.789   1.575 -0.0828  0.8055  0.2705
  853SOL     OW 3457   1.653   5.203   5.893 -0.2270  0.4294  0.0743
  853SOL    HW1 3458   1.590   5.275   5.863  0.7170  0.9190 -0.7802
  853SOL    HW2 3459   1.743   5.243   5.912  0.5865 -0.6311 -1.3282
  854SOL     OW 3460   5.354   6.207   1.508  0.7081 -0.4020  0.0324
  854SOL    HW1 3461   5.262   6.240   1.488  0.3709 -1.4611 -0.2257
  854SOL    HW2 3462   5.412   6.284   1.533 -0.2209  0.2902  0.1112
  855SOL     OW 3463   4.980   6.368   2.143  0.7303  0.4794  0.1547
  855SOL    HW1 3464   5.077   6.364   2.169  0.3504  1.2063  1.8757
  855SOL    HW2 3465   4.932   6.289   2.181  0.2365  1.3385  1.3706
  856SOL     OW 3466   1.317   1.650   5.902  0.2212 -0.0599 -0.2894
  856SOL    HW1 3467   1.402   1.603   5.877 -0.3801 -1.7720  0.6895
  856SOL    HW2 3468   1.254   1.646   5.825  0.5203 -0.0466 -0.5380
  857SOL     OW 3469   0.023   4.091   2.264 -0.6602  0.1534 -0.0668
  857SOL    HW1 3470   0.020   4.105   2.363  0.8106 -0.0533  0.0298
  857SOL    HW2 3471  -0.013   4.172   2.218 -1.5318  0.1761  0.6344
  858SOL     OW 3472   2.128   3.788   2.385 -0.1139  0.3209 -0.3519
  858SOL    HW1 3473   2.163   3.882   2.385  0.2176  0.1992  0.2250
  858SOL    HW2 3474   2.032   3.790   2.413 -0.2735  0.5420 -0.8939
  859SOL     OW 3475   0.248   1.381   5.672 -0.0676 -0.0451 -0.5791
  859SOL    HW1 3476   0.328   1.426   5.632 -0.4485  0.3964 -0.8547
  859SOL    HW2 3477   0.202   1.327   5.603  0.6148 -1.2025 -0.1523
  860SOL     OW 3478   0.431   3.532   6.667  0.1726 -0.1336  0.0443
  860SOL    HW1 3479   0.494   3.608   6.686 -0.5247  0.2616  0.8663
  860SOL    HW2 3480   0.484   3.450   6.643  1.0215  0.1292  0.9335
  861SOL     OW 3481   2.432   0.343   2.897  0.2593 -0.9742 -0.1632
  861SOL    HW1 3482   2.346   0.390   2.918  0.7820 -0.0442 -0.0341
  861SOL    HW2 3483   2.420   0.287   2.815 -0.3144 -0.4059 -0.4783
  862SOL     OW 3484   0.391   3.975   2.784  0.2215 -0.1536 -0.2584
  862SOL    HW1 3485   0.400   4.052   2.847  0.8788  2.0894 -2.9018
  862SOL    HW2 3486   0.419   4.003   2.692 -1.7551 -2.8904 -1.8646
  863SOL     OW 3487   0.514   2.325   5.716  0.3659 -0.0759 -0.1501
  863SOL    HW1 3488   0.484   2.392   5.784  0.1874 -1.5868  1.3439
  863SOL    HW2 3489   0.607   2.296   5.737  0.6310  0.0865 -1.0878
  864SOL     OW 3490   4.446   6.606   3.409  0.1559 -0.5035  0.5222
  864SOL    HW1 3491   4.511   6.550   3.357  0.6749 -0.6038  1.2641
  864SOL    HW2 3492   4.389   6.659   3.346 -0.0362 -1.5214 -0.1821
  865SOL     OW 3493   1.900   5.273   5.933  0.1694 -0.1499 -0.3270
  865SOL    HW1 3494   1.919   5.303   6.027 -0.1779  1.2935 -0.6830
  865SOL    HW2 3495   1.970   5.209   5.904 -0.2025 -1.3102  1.2117
  866SOL     OW 3496   1.962   6.332   6.870  0.5593 -0.1039  0.0312
  866SOL    HW1 3497   1.946   6.427   6.845 -0.7237 -0.3335 -0.0719
  866SOL    HW2 3498   2.009   6.285   6.795 -1.2439 -0.2242 -1.0593
  867SOL     OW 3499   5.409   3.149   5.381  0.1732 -0.0313  0.4934
  867SOL    HW1 3500   5.403   3.235   5.329 -0.1340 -0.0251  0.5380
  867SOL    HW2 3501   5.477   3.158   5.453 -0.2802  0.3734  0.8723
  868SOL     OW 3502   0.416   0.501   3.467 -0.1134  0.4636  0.1968
  868SOL    HW1 3503   0.445   0.530   3.376 -1.0152 -1.0205 -0.6184
  868SOL    HW2 3504   0.391   0.581   3.521 -0.7536  1.3231 -1.2935
  869SOL     OW 3505   0.022   6.102   2.457  0.3174  0.1289 -0.1764
  869SOL    HW1 3506  -0.031   6.017   2.453  0.2087  0.2378 -1.8601
  869SOL    HW2 3507  -0.036   6.177   2.488 -0.1040 -0.0587 -0.5017
  870SOL     OW 3508   2.997   3.108   0.433  0.5878  0.1569 -0.1339
  870SOL    HW1 3509   2.984   3.137   0.528 -2.1790 -0.7109 -0.1542
  870SOL    HW2 3510   3.014   3.010   0.430 -0.4041 -0.0244 -0.5327
  871SOL     OW 3511   4.409   1.922   3.323  0.0424 -0.4789 -0.4531
  871SOL    HW1 3512   4.434   1.999   3.264  1.4878 -0.3963  0.2269
  871SOL    HW2 3513   4.432   1.836   3.277  0.9338 -0.4206 -0.1394
  872SOL     OW 3514   4.896   3.281   3.280  0.0948 -0.2444 -0.1051
  872SOL    HW1 3515   4.884   3.347   3.354  1.3157  0.9474 -0.9237
  872SOL    HW2 3516   4.888   3.188   3.317 -0.6752  0.3286  1.2500
  873SOL     OW 3517   6.211   5.360   5.364 -0.2479 -0.0930  0.0030
  873SOL    HW1 3518   6.294   5.400   5.327  0.3621 -1.4379 -0.1322
  873SOL    HW2 3519   6.138   5.361   5.295 -0.2526  0.7924  0.0177
  874SOL     OW 3520   5.649   4.874   4.447  0.2123  0.8956 -0.0186
  874SOL    HW1 3521   5.634   4.799   4.512  0.0767 -0.7846 -1.8732
  874SOL    HW2 3522   5.612   4.959   4.484 -3.7922 -0.8182  0.3833
  875SOL     OW 3523   5.384   5.041   1.181  0.9159 -0.2759  0.2208
  875SOL    HW1 3524   5.441   5.121   1.171  1.6154 -0.9483 -1.5454
  875SOL    HW2 3525   5.437   4.966   1.222  1.0132 -0.5874 -0.4631
  876SOL     OW 3526   0.471   4.493   2.955  0.5299 -0.1475 -0.6255
  876SOL    HW1 3527   0.412   4.540   2.890  0.4970  0.0728 -0.4345
  876SOL    HW2 3528   0.540   4.440   2.905  2.1063  2.0035 -0.8486
  877SOL     OW 3529   3.947   5.964   4.330 -0.2161  0.1288 -0.3630
  877SOL    HW1 3530   3.925   5.943   4.235  1.0282  0.8026 -0.8198
  877SOL    HW2 3531   4.038   6.004   4.335 -0.1551 -0.1426  1.1534
  878SOL     OW 3532   3.664   4.432   6.420  0.4035 -0.3062  0.1872
  878SOL    HW1 3533   3.650   4.531   6.421  0.2502 -0.3042  2.4958
  878SOL    HW2 3534   3.586   4.388   6.374 -0.3758  0.5493  0.6592
  879SOL     OW 3535   2.869   1.604   1.653 -0.7459  0.4807 -0.2208
  879SOL    HW1 3536   2.808   1.532   1.685 -0.6058  0.3659 -0.2075
  879SOL    HW2 3537   2.817   1.674   1.604 -0.9462  0.5998  0.1578
  880SOL     OW 3538   3.216   4.132   3.229  0.3125 -0.5186  0.1301
  880SOL    HW1 3539   3.258   4.043   3.246  1.0656 -0.3642 -0.8586
  880SOL    HW2 3540   3.286   4.199   3.206 -0.4127 -0.0929 -0.9258
  881SOL     OW 3541   5.774   3.934   4.462 -0.2579  0.6401 -0.5458
  881SOL    HW1 3542   5.705   3.891   4.520 -0.1460 -0.1986 -1.0160
  881SOL    HW2 3543   5.804   4.019   4.504 -0.1119  0.0142  0.6693
  882SOL     OW 3544   2.004   3.623   3.551 -1.0879  0.5824  1.0159
  882SOL    HW1 3545   2.007   3.556   3.477  0.1581  1.4607  0.2353
  882SOL    HW2 3546   1.923   3.681   3.540  0.1939  2.1206 -1.0003
  883SOL     OW 3547   2.837   0.696   7.021  0.4064 -0.1350 -0.5674
  883SOL    HW1 3548   2.813   0.608   6.980 -0.2400 -0.4930  0.5295
  883SOL    HW2 3549   2.767   0.764   6.998 -0.6072 -0.6327  0.8353
  884SOL     OW 3550   1.509   5.712   0.397  0.5139  0.1141  0.7588
  884SOL    HW1 3551   1.475   5.747   0.484 -0.3563  0.0358  0.4609
  884SOL    HW2 3552   1.532   5.789   0.336 -1.0254  0.2080  0.2470
  885SOL     OW 3553   4.513   5.880   6.104  0.0364 -0.0316 -0.6454
  885SOL    HW1 3554   4.507   5.828   6.019 -0.6268 -0.9755 -0.0349
  885SOL    HW2 3555   4.424   5.919   6.126  0.1293 -0.0516 -0.2192
  886SOL     OW 3556   2.759   6.729   5.588  0.1987  0.0946 -0.2577
  886SOL    HW1 3557   2.745   6.812   5.535  0.5146  0.4699  0.2413
  886SOL    HW2 3558   2.823   6.669   5.540  0.0876  0.2025 -0.5447
  887SOL     OW 3559   6.099   6.383   2.742 -0.5315 -0.5161  0.0554
  887SOL    HW1 3560   6.059   6.473   2.726  4.2086  2.3647  2.2566
  887SOL    HW2 3561   6.135   6.347   2.655  1.6461  2.1629 -0.3024
  888SOL     OW 3562   1.759   6.963   3.603  0.4691  0.2598  0.0192
  888SOL    HW1 3563   1.803   7.053   3.592 -1.4345  1.1059 -1.3560
  888SOL    HW2 3564   1.686   6.969   3.670  0.5014 -0.3322  0.1129
  889SOL     OW 3565   6.757   2.064   6.762 -0.3732  0.2386 -0.6435
  889SOL    HW1 3566   6.792   2.090   6.852 -1.5391 -1.2633  0.2956
  889SOL    HW2 3567   6.783   2.134   6.694 -0.8949  2.2704  1.1509
  890SOL     OW 3568   2.201   5.313   3.000 -0.0001  0.3354 -0.3217
  890SOL    HW1 3569   2.219   5.381   2.929 -0.3846  1.3876  0.5579
  890SOL    HW2 3570   2.259   5.331   3.079  0.3280 -0.7442 -0.3042
  891SOL     OW 3571   6.253   4.418   5.855  0.4091 -0.2446  0.3410
  891SOL    HW1 3572   6.343   4.385   5.885  0.5784 -0.0435  0.0598
  891SOL    HW2 3573   6.189   4.413   5.932  0.8195  0.1748  0.7182
  892SOL     OW 3574   3.159   3.710   5.221 -0.5446  0.5059 -0.0546
  892SOL    HW1 3575   3.074   3.731   5.172 -0.0297  0.0636 -1.1845
  892SOL    HW2 3576   3.221   3.789   5.216 -0.0742  0.0926 -1.0725
  893SOL     OW 3577   1.398   5.043   2.371  0.9934 -0.3998  0.2000
  893SOL    HW1 3578   1.497   5.029   2.369  1.1109  0.2877  0.9201
  893SOL    HW2 3579   1.378   5.141   2.368  0.2781 -0.5662 -1.3821
  894SOL     OW 3580   1.360   3.423   2.466  0.1216 -0.2268 -0.6105
  894SOL    HW1 3581   1.366   3.510   2.417  0.2500 -0.4427 -0.9892
  894SOL    HW2 3582   1.406   3.352   2.412  1.0354 -0.2933  0.2382
  895SOL     OW 3583   6.200   5.003   4.641  0.5179 -0.2023  0.7453
  895SOL    HW1 3584   6.144   4.922   4.651  0.6953 -0.3131  0.8448
  895SOL    HW2 3585   6.291   4.986   4.680  0.1562  0.4620  1.9340
  896SOL     OW 3586   5.544   3.011   0.881  0.0037 -0.0560  0.1010
  896SOL    HW1 3587   5.453   2.970   0.880  0.0763 -0.2288  0.3748
  896SOL    HW2 3588   5.613   2.938   0.875  0.1334  0.0193  0.5889
  897SOL     OW 3589   4.340   6.038   6.959  0.0540 -0.4853 -1.0760
  897SOL    HW1 3590   4.349   6.048   6.860 -1.6685  3.8031 -0.9939
  897SOL    HW2 3591   4.368   6.123   7.004  1.0385 -2.3723  2.2410
  898SOL     OW 3592   4.127   6.195   0.585  0.4832  0.3924 -0.3403
  898SOL    HW1 3593   4.206   6.235   0.632  0.6904 -0.4488  0.0529
  898SOL    HW2 3594   4.088   6.122   0.642  1.0194 -0.9596 -1.6275
  899SOL     OW 3595   6.844   6.767   0.083  0.4976 -0.5425 -0.1842
  899SOL    HW1 3596   6.798   6.854   0.068  0.7863 -0.0530  1.5509
  899SOL    HW2 3597   6.775   6.695   0.093  0.2706 -0.6696 -2.2558
  900SOL     OW 3598   0.489   1.513   4.868  0.4532  0.1651 -0.3534
  900SOL    HW1 3599   0.528   1.423   4.851 -1.2602 -1.3187  2.6686
  900SOL    HW2 3600   0.389   1.508   4.862  0.1804  1.2255  2.0053
  901SOL     OW 3601   2.333   0.156   3.611 -0.3637 -0.2292 -0.0811
  901SOL    HW1 3602   2.379   0.101   3.681  1.3966 -1.6405 -2.2096
  901SOL    HW2 3603   2.235   0.140   3.616 -0.1424 -1.4371  1.1422
  902SOL     OW 3604   0.900   2.500   1.885  0.3675  0.1014  0.0480
  902SOL    HW1 3605   0.914   2.597   1.901 -0.7727  0.4209 -0.7396
  902SOL    HW2 3606   0.891   2.452   1.973 -0.1363  0.8840  0.4304
  903SOL     OW 3607   6.742   3.073   0.022  0.0681 -0.1592  0.1014
  903SOL    HW1 3608   6.761   3.012   0.099 -0.6878 -0.8231 -0.2144
  903SOL    HW2 3609   6.644   3.092   0.017 -0.0294 -0.8394 -1.1935
  904SOL     OW 3610   2.364   4.277   2.824  0.2204  0.4176 -0.3299
  904SOL    HW1 3611   2.284   4.224   2.797 -0.9468  1.0578  1.6301
  904SOL    HW2 3612   2.437   4.265   2.756 -1.3886 -0.4605 -1.9911
  905SOL     OW 3613   6.304   4.520   6.428 -0.1689  0.1272  0.4172
  905SOL    HW1 3614   6.387   4.562   6.391 -0.4534  0.1598 -0.1893
  905SOL    HW2 3615   6.230   4.526   6.361 -0.4123 -0.7102  0.5968
  906SOL     OW 3616   0.486   1.888   5.719  0.0622  0.7245 -0.2074
  906SOL    HW1 3617   0.527   1.949   5.787  1.9176 -0.8968  0.2237
  906SOL    HW2 3618   0.432   1.818   5.765 -0.2633  0.7567 -0.5373
  907SOL     OW 3619   4.797   4.403   0.998 -0.0352  0.4256  0.2678
  907SOL    HW1 3620   4.773   4.415   1.095  0.2654  2.0306  0.1647
  907SOL    HW2 3621   4.717   4.369   0.948  0.3295 -2.3096  1.3838
  908SOL     OW 3622   1.828   4.129   2.173 -0.3883 -0.0655  0.1275
  908SOL    HW1 3623   1.841   4.209   2.114  2.1180  0.1430  0.8227
  908SOL    HW2 3624   1.877   4.144   2.259 -0.0284 -2.2649  0.3519
  909SOL     OW 3625   3.680   6.580   0.415  0.1977  0.2136  0.9199
  909SOL    HW1 3626   3.710   6.667   0.378  3.2798 -0.1356  2.3060
  909SOL    HW2 3627   3.611   6.540   0.355  2.9120  0.8886 -3.0216
  910SOL     OW 3628   2.605   0.817   0.391 -0.5893 -0.3102 -0.2666
  910SOL    HW1 3629   2.586   0.783   0.483 -0.8135  1.0230  0.2043
  910SOL    HW2 3630   2.689   0.774   0.356 -0.2756 -0.5297  0.7318
  911SOL     OW 3631   0.439   6.508   5.277 -0.0010  0.2764 -0.1802
  911SOL    HW1 3632   0.482   6.520   5.367  2.1516  1.4578 -1.2846
  911SOL    HW2 3633   0.500   6.543   5.206 -2.1916  0.5530 -2.0337
  912SOL     OW 3634   4.778   1.770   2.958  1.2242 -0.7907 -0.4746
  912SOL    HW1 3635   4.785   1.846   3.022  0.8530 -0.3048 -1.0000
  912SOL    HW2 3636   4.793   1.684   3.006  0.1010 -0.4960  0.4287
  913SOL     OW 3637   5.698   1.315   3.611 -0.8331 -0.2542 -0.4937
  913SOL    HW1 3638   5.654   1.226   3.624 -0.6172 -0.2094  0.7072
  913SOL    HW2 3639   5.644   1.386   3.657  0.0579 -0.0893  0.3412
  914SOL     OW 3640   2.161   6.259   4.677  0.3354  0.6664 -0.5037
  914SOL    HW1 3641   2.137   6.350   4.710  0.2337  0.2647  0.5588
  914SOL    HW2 3642   2.110   6.240   4.593 -1.0466  0.8673  0.2699
  915SOL     OW 3643   0.044   3.915   1.697  0.0063  0.2234  0.0819
  915SOL    HW1 3644  -0.011   3.937   1.778  0.4584 -1.7938  0.9887
  915SOL    HW2 3645   0.117   3.984   1.687 -1.4993  1.8678 -0.0687
  916SOL     OW 3646   1.650   5.078   2.982 -0.1437 -0.1323 -0.2541
  916SOL    HW1 3647   1.563   5.028   2.983  0.1745 -0.6915  0.3035
  916SOL    HW2 3648   1.690   5.076   3.073  0.9709 -0.7936 -0.7456
  917SOL     OW 3649   0.766   0.045   1.468  0.8461  0.5577 -0.2715
  917SOL    HW1 3650   0.789  -0.024   1.537  0.1812  0.2393 -0.3651
  917SOL    HW2 3651   0.835   0.043   1.396 -0.0792 -1.2588 -1.1872
  918SOL     OW 3652   2.845   1.193   1.733 -0.2598 -0.0891 -0.4859
  918SOL    HW1 3653   2.838   1.104   1.778 -2.5945  0.8396  1.1481
  918SOL    HW2 3654   2.925   1.193   1.673  0.9729 -2.5867  0.9840
  919SOL     OW 3655   6.971   5.679   0.567 -0.0417  0.2313 -0.6076
  919SOL    HW1 3656   6.915   5.599   0.591  2.0082 -1.8041 -2.1514
  919SOL    HW2 3657   6.932   5.724   0.486 -1.0320  0.6666  0.0843
  920SOL     OW 3658   0.701   3.919   3.882 -0.6329 -0.5183 -0.3095
  920SOL    HW1 3659   0.734   3.905   3.788  0.2263  0.5295 -0.1866
  920SOL    HW2 3660   0.770   3.886   3.947 -0.5552  0.1531 -0.0450
  921SOL     OW 3661   3.061   5.486   3.706 -0.1910 -0.0763  0.0825
  921SOL    HW1 3662   3.109   5.400   3.689 -0.9686 -0.3719 -0.7266
  921SOL    HW2 3663   3.127   5.561   3.709  0.3375 -0.4535 -1.1388
  922SOL     OW 3664   2.903   3.624   2.795 -0.8437 -0.3409 -0.2621
  922SOL    HW1 3665   2.858   3.578   2.872 -3.2297  1.9665 -0.1361
  922SOL    HW2 3666   2.971   3.689   2.830 -1.0809 -0.1481 -0.1565
  923SOL     OW 3667   2.015   5.494   5.618  0.3521  0.1815 -0.3590
  923SOL    HW1 3668   2.061   5.497   5.707  1.5484 -0.8373 -0.9195
  923SOL    HW2 3669   2.076   5.454   5.550  0.0299  2.3132 -2.0249
  924SOL     OW 3670   6.261   3.960   2.772  0.0433  0.0729 -0.1845
  924SOL    HW1 3671   6.253   4.032   2.840 -0.1875 -1.2616  1.2639
  924SOL    HW2 3672   6.256   3.871   2.817 -1.4863 -0.8890 -2.0794
  925SOL     OW 3673   0.718   0.742   6.146  0.1156 -0.1243 -0.1999
  925SOL    HW1 3674   0.620   0.762   6.154  0.1636 -0.0145  0.1390
  925SOL    HW2 3675   0.770   0.811   6.195  0.3455 -0.4151 -0.0311
  926SOL     OW 3676   0.013   1.622   6.910 -0.4967  0.0463 -0.5728
  926SOL    HW1 3677  -0.063   1.670   6.866 -1.2429 -0.3192  0.2891
  926SOL    HW2 3678  -0.014   1.527   6.927  0.0669 -0.0179 -0.0243
  927SOL     OW 3679   6.168   4.451   2.155  0.1876  0.3925  0.3766
  927SOL    HW1 3680   6.182   4.383   2.083 -0.3033  1.1857 -0.4947
  927SOL    HW2 3681   6.256   4.483   2.189  0.4199 -0.2055  0.3533
  928SOL     OW 3682   3.180   6.483   0.927 -0.8950  0.3763  0.5198
  928SOL    HW1 3683   3.126   6.567   0.925 -1.1108  0.2413  0.6306
  928SOL    HW2 3684   3.132   6.414   0.981  0.3807  0.9471  2.4917
  929SOL     OW 3685   1.508   6.804   5.941  0.2907  1.1276  0.3991
  929SOL    HW1 3686   1.409   6.796   5.931  0.2942  2.0417 -0.5323
  929SOL    HW2 3687   1.546   6.716   5.970 -0.5913  0.2990 -0.8785
  930SOL     OW 3688   6.404   0.861   0.382  1.1094  0.5407 -0.4327
  930SOL    HW1 3689   6.392   0.810   0.467  1.0449  1.4646  0.1306
  930SOL    HW2 3690   6.327   0.924   0.370  0.7271 -0.1089 -1.5744
  931SOL     OW 3691   0.070   0.476   5.474 -0.3757  0.0628 -0.6392
  931SOL    HW1 3692  -0.013   0.429   5.504  0.2673 -0.4329  0.4044
  931SOL    HW2 3693   0.053   0.518   5.385 -2.2276  1.2201  0.1795
  932SOL     OW 3694   4.535   5.878   2.439  0.2103  0.3514 -0.5969
  932SOL    HW1 3695   4.511   5.781   2.426  2.1923 -0.2780  0.0979
  932SOL    HW2 3696   4.501   5.908   2.528 -0.0836  0.1899 -0.6506
  933SOL     OW 3697   1.926   5.892   5.033  0.2913  0.4129 -0.0445
  933SOL    HW1 3698   1.920   5.827   5.109  0.8093 -0.4210 -0.6945
  933SOL    HW2 3699   2.022   5.912   5.013  0.3012 -1.1768 -1.9272
  934SOL     OW 3700   2.225   0.509   5.112 -0.4456  0.3750 -0.2942
  934SOL    HW1 3701   2.235   0.526   5.210  1.0436  0.0601 -0.3755
  934SOL    HW2 3702   2.219   0.410   5.096 -1.0764  0.4415 -0.4971
  935SOL     OW 3703   6.735   3.784   4.514 -0.2097  0.3498 -0.1705
  935SOL    HW1 3704   6.671   3.835   4.571 -0.9198 -0.9398  0.2305
  935SOL    HW2 3705   6.810   3.750   4.570 -0.0580  0.4490 -0.3149
  936SOL     OW 3706   2.466   6.415   5.704  0.3057  0.1715 -0.1352
  936SOL    HW1 3707   2.479   6.339   5.641  0.6690  0.9762 -1.0594
  936SOL    HW2 3708   2.369   6.440   5.707 -0.7091 -3.2509  3.7140
  937SOL     OW 3709   4.586   0.563   0.990  0.4166  0.0641  0.0508
  937SOL    HW1 3710   4.657   0.557   1.060  0.6633  0.0134 -0.2063
  937SOL    HW2 3711   4.607   0.637   0.926 -0.8003  1.4234  1.1378
  938SOL     OW 3712   6.234   5.822   6.465  0.4426 -0.2408  0.3357
  938SOL    HW1 3713   6.311   5.788   6.411  0.0005 -0.5874 -0.0986
  938SOL    HW2 3714   6.148   5.793   6.421  0.0575  0.7262  0.4215
  939SOL     OW 3715   1.743   6.459   3.506 -0.1953 -0.1114 -0.4048
  939SOL    HW1 3716   1.820   6.467   3.443  0.0401  2.8979  0.1091
  939SOL    HW2 3717   1.763   6.389   3.575  1.6914 -0.0226 -0.8072
  940SOL     OW 3718   0.772   3.533   1.806 -0.3581  0.0121  0.0539
  940SOL    HW1 3719   0.820   3.562   1.724 -0.1832  0.3274  0.2661
  940SOL    HW2 3720   0.709   3.459   1.783  0.3694 -0.5514 -0.1998
  941SOL     OW 3721   5.383   0.646   0.228  0.7447 -0.4244  0.3427
  941SOL    HW1 3722   5.409   0.587   0.151 -0.8952 -0.5101 -0.1911
  941SOL    HW2 3723   5.343   0.590   0.301  1.4724 -0.2374  0.8993
  942SOL     OW 3724   0.360   6.719   2.576 -0.1773  0.0995 -0.5127
  942SOL    HW1 3725   0.400   6.629   2.557 -1.8829 -0.7537 -0.1924
  942SOL    HW2 3726   0.429   6.790   2.558  0.8126 -1.1650 -2.0073
  943SOL     OW 3727   0.651   4.302   1.787 -0.9381  0.3554 -0.5795
  943SOL    HW1 3728   0.564   4.267   1.821  0.1244 -2.5046 -0.5720
  943SOL    HW2 3729   0.643   4.324   1.690 -1.5228 -0.4239 -0.7132
  944SOL     OW 3730   6.445   5.285   4.917 -0.0880 -0.4228  0.2210
  944SOL    HW1 3731   6.484   5.366   4.873 -3.4082  0.7181 -0.8727
  944SOL    HW2 3732   6.438   5.301   5.016 -2.1679  1.3625 -0.1625
  945SOL     OW 3733   0.483   3.629   4.779 -0.4474  0.5024  0.1797
  945SOL    HW1 3734   0.385   3.641   4.765 -0.5506 -0.4697 -0.0060
  945SOL    HW2 3735   0.506   3.651   4.874 -0.8979  0.4058  0.3108
  946SOL     OW 3736   4.708   4.157   5.068  0.2031 -1.1096 -0.2556
  946SOL    HW1 3737   4.791   4.113   5.033 -0.1955 -1.5652 -0.6302
  946SOL    HW2 3738   4.648   4.181   4.992  0.9531  1.2336 -0.2025
  947SOL     OW 3739   4.129   3.644   2.239  0.1269 -0.4721 -0.1028
  947SOL    HW1 3740   4.112   3.610   2.332 -1.6442 -0.2432 -0.3055
  947SOL    HW2 3741   4.160   3.739   2.243  3.1221 -1.3695  0.3636
  948SOL     OW 3742   6.263   2.136   4.853  0.0938 -0.3366  0.0829
  948SOL    HW1 3743   6.208   2.157   4.773 -0.0435  1.0214  0.5092
  948SOL    HW2 3744   6.232   2.049   4.893 -0.2923 -0.6739 -0.9145
  949SOL     OW 3745   2.265   3.800   0.419 -0.5358 -0.3899 -0.5152
  949SOL    HW1 3746   2.256   3.837   0.326 -0.4542  0.6195 -0.1372
  949SOL    HW2 3747   2.318   3.863   0.474 -1.1330 -0.6695  0.3995
  950SOL     OW 3748   3.821   6.149   2.060 -0.1247 -0.0967  0.4476
  950SOL    HW1 3749   3.752   6.206   2.105  1.4534  2.3680 -0.0302
  950SOL    HW2 3750   3.833   6.064   2.111 -2.7079 -0.1421  1.1220
  951SOL     OW 3751   0.992   6.703   3.629  0.2349  0.0401 -0.4019
  951SOL    HW1 3752   1.082   6.712   3.586  0.8061 -0.0573  0.7375
  951SOL    HW2 3753   0.971   6.606   3.640  0.3688  0.0622  0.0812
  952SOL     OW 3754   4.503   1.828   4.009 -0.2122 -0.5662  0.9440
  952SOL    HW1 3755   4.599   1.799   4.011 -0.1019 -0.3540 -0.3752
  952SOL    HW2 3756   4.445   1.748   3.993  0.0871 -0.2005 -2.6193
  953SOL     OW 3757   4.113   6.230   5.312  0.0928  0.0057  0.0047
  953SOL    HW1 3758   4.102   6.310   5.254 -0.1265  0.5749  0.8115
  953SOL    HW2 3759   4.210   6.219   5.337  0.2029 -0.3044 -0.5483
  954SOL     OW 3760   3.413   5.528   1.244 -0.4737  0.0306 -0.0177
  954SOL    HW1 3761   3.315   5.526   1.264 -0.5127 -0.7373 -0.2318
  954SOL    HW2 3762   3.442   5.437   1.212  0.2084  0.3820 -0.4189
  955SOL     OW 3763   1.225   4.096   2.670  0.1454 -0.0252  0.5738
  955SOL    HW1 3764   1.142   4.068   2.718 -0.4958  2.1870  0.8888
  955SOL    HW2 3765   1.252   4.187   2.701  0.6835  0.7844 -2.0270
  956SOL     OW 3766   0.755   0.188   2.838  0.1799 -0.1164 -0.4692
  956SOL    HW1 3767   0.715   0.101   2.810 -1.6773  0.3874  0.5203
  956SOL    HW2 3768   0.768   0.188   2.937  0.4583  0.6325 -0.5038
  957SOL     OW 3769   5.633   3.720   4.069 -0.4229 -0.3109  0.3915
  957SOL    HW1 3770   5.690   3.788   4.114  0.0215 -0.8934  0.7192
  957SOL    HW2 3771   5.640   3.732   3.970 -0.1702 -0.0224  0.4420
  958SOL     OW 3772   3.489   0.521   0.208  0.1562  0.3078 -0.2183
  958SOL    HW1 3773   3.555   0.558   0.273 -1.0052 -0.6403  1.6111
  958SOL    HW2 3774   3.415   0.587   0.193 -0.2033  0.0594  0.4180
  959SOL     OW 3775   2.934   6.130   4.486 -0.1513 -0.1602  0.1679
  959SOL    HW1 3776   2.943   6.101   4.390 -0.6156 -1.8363  0.6011
  959SOL    HW2 3777   2.839   6.158   4.503  0.1773  1.1951 -0.1138
  960SOL     OW 3778   1.982   3.010   3.071 -0.1079  0.0750  0.1967
  960SOL    HW1 3779   1.954   2.989   2.978 -1.1994  0.4124  0.4311
  960SOL    HW2 3780   2.076   2.979   3.086  0.7987  1.7891 -1.6119
  961SOL     OW 3781   4.793   6.584   2.209  0.1081  0.1160  0.2002
  961SOL    HW1 3782   4.806   6.654   2.139  0.7855  0.0524  0.2578
  961SOL    HW2 3783   4.854   6.508   2.192 -2.8178 -2.0268 -1.7726
  962SOL     OW 3784   0.483   0.674   4.528  0.4477  0.3541  0.0463
  962SOL    HW1 3785   0.392   0.655   4.490  0.7006  0.1876 -0.4765
  962SOL    HW2 3786   0.494   0.625   4.614  0.8673 -1.3903 -0.9716
  963SOL     OW 3787   5.776   1.872   0.016 -0.9652 -0.4487 -0.9368
  963SOL    HW1 3788   5.859   1.888  -0.038 -0.4964  0.7460  0.1071
  963SOL    HW2 3789   5.801   1.831   0.104 -1.1994  2.0731  0.3657
  964SOL     OW 3790   5.473   5.938   0.981  0.4356 -0.0745 -1.1936
  964SOL    HW1 3791   5.378   5.960   1.007  0.4415 -1.3433  0.0124
  964SOL    HW2 3792   5.498   5.990   0.899 -1.6061 -0.4181 -2.0873
  965SOL     OW 3793   5.051   1.004   6.833 -0.2093  0.4405  0.0161
  965SOL    HW1 3794   5.089   1.094   6.814  1.5135 -0.1092  0.6986
  965SOL    HW2 3795   5.083   0.940   6.763 -0.1802  0.0429  0.3919
  966SOL     OW 3796   5.342   3.477   1.172  0.1471 -0.2594 -0.1977
  966SOL    HW1 3797   5.326   3.463   1.270 -0.7654 -1.4094 -0.4935
  966SOL    HW2 3798   5.257   3.506   1.129  0.5308  0.1748 -0.6706
  967SOL     OW 3799   2.744   3.123   1.049 -0.0104 -0.1673 -0.1395
  967SOL    HW1 3800   2.740   3.085   1.142 -0.2577 -1.2540 -0.5812
  967SOL    HW2 3801   2.664   3.095   0.998  1.1055 -1.3127 -1.3227
  968SOL     OW 3802   3.441   1.093   0.776  0.4435  0.4024 -0.3734
  968SOL    HW1 3803   3.520   1.065   0.722  1.4303  0.9110  0.7747
  968SOL    HW2 3804   3.389   1.161   0.725  0.8782  0.2480 -1.0382
  969SOL     OW 3805   2.799   5.025   4.788 -0.7506 -0.7823  0.3349
  969SOL    HW1 3806   2.829   4.974   4.707  0.4008 -0.4552  0.5257
  969SOL    HW2 3807   2.820   4.972   4.870  0.8847  0.1261  0.5636
  970SOL     OW 3808   5.209   3.344   6.378  0.1374 -0.0069  0.0316
  970SOL    HW1 3809   5.185   3.247   6.379  0.8039 -0.1966 -0.7493
  970SOL    HW2 3810   5.269   3.365   6.455 -1.5083  0.2168  1.3017
  971SOL     OW 3811   2.853   2.327   1.696  1.1190 -0.3279 -0.5371
  971SOL    HW1 3812   2.907   2.391   1.640  1.3522  0.8379  0.9524
  971SOL    HW2 3813   2.874   2.342   1.793 -2.0496  0.3498  0.1435
  972SOL     OW 3814   5.328   1.873   1.071  0.6172 -0.0210  0.2692
  972SOL    HW1 3815   5.348   1.797   1.133  0.0777  0.9725  1.7130
  972SOL    HW2 3816   5.279   1.945   1.121  0.6631  1.0671 -1.1834
  973SOL     OW 3817   6.489   5.953   6.791  0.0506  0.4223  0.5239
  973SOL    HW1 3818   6.484   6.005   6.877  0.6595  0.5398  0.4935
  973SOL    HW2 3819   6.424   5.877   6.794 -0.9938  1.2824  0.4979
  974SOL     OW 3820   5.319   0.476   2.599 -0.1862 -0.2294  0.1068
  974SOL    HW1 3821   5.321   0.574   2.577 -1.2574 -0.0701  0.6157
  974SOL    HW2 3822   5.349   0.424   2.519  0.1277  0.4994 -0.2697
  975SOL     OW 3823   2.187   1.014   0.790  0.2530 -0.0943  0.0104
  975SOL    HW1 3824   2.259   1.059   0.736 -0.1298 -0.2968 -0.6780
  975SOL    HW2 3825   2.173   1.065   0.875  0.4675  0.5593 -0.3371
  976SOL     OW 3826   5.738   4.517   3.730  0.5392 -0.4925  0.0302
  976SOL    HW1 3827   5.759   4.601   3.680  1.0579 -0.2521  0.6384
  976SOL    HW2 3828   5.769   4.438   3.677 -1.1813 -0.4010 -1.1852
  977SOL     OW 3829   0.472   0.856   2.876 -0.5008  0.5484 -0.5599
  977SOL    HW1 3830   0.486   0.885   2.971  0.2186 -1.4628 -0.0081
  977SOL    HW2 3831   0.373   0.847   2.859 -0.6226 -0.6618  0.5595
  978SOL     OW 3832   5.292   2.792   6.062  0.4178 -0.2282  0.1224
  978SOL    HW1 3833   5.262   2.816   5.970 -0.2742 -0.9721  0.1426
  978SOL    HW2 3834   5.248   2.852   6.129  0.5387 -0.0090  0.0054
  979SOL     OW 3835   0.811   3.821   1.285 -0.2936  0.0117  0.0572
  979SOL    HW1 3836   0.814   3.911   1.241  0.2172 -0.7077 -1.4715
  979SOL    HW2 3837   0.890   3.767   1.254  0.7729 -0.1654  2.7960
  980SOL     OW 3838   6.165   2.120   2.470 -0.2951 -0.1994  0.0310
  980SOL    HW1 3839   6.195   2.076   2.555 -0.0348  0.4447  0.2813
  980SOL    HW2 3840   6.186   2.060   2.392  0.6970 -0.2141  0.2958
  981SOL     OW 3841   6.517   1.668   6.864  0.2793  0.3459 -0.0154
  981SOL    HW1 3842   6.596   1.629   6.817 -1.0344 -1.8020 -0.5539
  981SOL    HW2 3843   6.523   1.768   6.860  2.8885  0.2765 -0.1119
  982SOL     OW 3844   6.016   1.888   5.207  0.4444 -0.2597  0.4755
  982SOL    HW1 3845   5.981   1.794   5.213  1.6621 -0.8486 -0.9793
  982SOL    HW2 3846   5.992   1.938   5.290  0.4500 -2.1020  1.6407
  983SOL     OW 3847   5.830   4.186   2.511  0.0584 -0.0869 -0.3048
  983SOL    HW1 3848   5.855   4.277   2.543 -0.6278 -0.1606  0.4697
  983SOL    HW2 3849   5.887   4.162   2.432  1.7937  0.1058  0.8387
  984SOL     OW 3850   3.549   2.046   3.460  0.1109 -0.0678 -0.0063
  984SOL    HW1 3851   3.556   2.064   3.362 -1.0296  0.6523  0.0281
  984SOL    HW2 3852   3.467   2.091   3.497  1.2285  0.8158  1.5317
  985SOL     OW 3853   6.041   2.817   5.418  0.1939  0.1667 -0.5469
  985SOL    HW1 3854   6.064   2.830   5.514 -1.1691  1.9157 -0.4015
  985SOL    HW2 3855   6.097   2.878   5.362 -0.2648  0.4661 -0.6837
  986SOL     OW 3856   5.476   4.098   0.920 -0.3789  0.0892 -0.0674
  986SOL    HW1 3857   5.381   4.128   0.912  0.0476  1.4035 -0.5417
  986SOL    HW2 3858   5.491   4.057   1.010 -1.4314 -0.3312 -0.0640
  987SOL     OW 3859   4.429   0.841   2.118  0.3143 -0.2741  0.1646
  987SOL    HW1 3860   4.330   0.847   2.104  0.3113  0.8962  0.5562
  987SOL    HW2 3861   4.476   0.893   2.046  0.5722  0.3108  0.7420
  988SOL     OW 3862   2.822   3.924   0.407  0.1604 -0.4520 -0.0627
  988SOL    HW1 3863   2.907   3.872   0.412  1.7275  2.0611  1.5573
  988SOL    HW2 3864   2.784   3.936   0.499  0.4392  2.0137 -0.1842
  989SOL     OW 3865   0.073   2.594   6.551  0.7724 -0.5540  0.2224
  989SOL    HW1 3866   0.104   2.598   6.456  1.6768 -1.0496  0.4868
  989SOL    HW2 3867   0.080   2.684   6.593  0.1753 -0.2867 -0.2266
  990SOL     OW 3868   3.736   0.877   3.948  0.3039 -0.2577 -0.2893
  990SOL    HW1 3869   3.746   0.951   3.881  1.3769 -2.0615 -2.2840
  990SOL    HW2 3870   3.647   0.883   3.992 -0.0889  1.5237 -1.2352
  991SOL     OW 3871   6.070   3.805   4.445 -0.0964  0.3627  0.0290
  991SOL    HW1 3872   5.971   3.819   4.443  0.1795  2.8165  0.7497
  991SOL    HW2 3873   6.109   3.855   4.522  1.8904  0.6786 -1.1364
  992SOL     OW 3874   6.452   2.599   2.595  0.2355  0.4294  0.1840
  992SOL    HW1 3875   6.451   2.500   2.605  0.3978  0.4042 -0.0381
  992SOL    HW2 3876   6.496   2.641   2.674  0.0724  0.3311  0.3269
  993SOL     OW 3877   6.859   3.752   1.446  0.7856 -0.2732  0.3288
  993SOL    HW1 3878   6.889   3.822   1.510  2.2452  0.9502 -1.5981
  993SOL    HW2 3879   6.788   3.789   1.386 -0.1472 -1.2165  0.8189
  994SOL     OW 3880   3.657   4.992   2.575  0.4414  0.4642 -1.0885
  994SOL    HW1 3881   3.698   4.970   2.486  0.9074 -0.5036 -0.6552
  994SOL    HW2 3882   3.724   4.974   2.647 -0.5133 -0.5147 -0.4137
  995SOL     OW 3883   3.263   2.313   0.986  0.0613  0.5778  0.4804
  995SOL    HW1 3884   3.260   2.226   1.036 -3.0693  0.9519  1.1299
  995SOL    HW2 3885   3.273   2.294   0.888 -1.9268 -0.6721  0.4562
  996SOL     OW 3886   3.352   6.193   4.393  0.5221 -0.5376  0.1894
  996SOL    HW1 3887   3.406   6.203   4.476  2.2003  0.5318 -0.9612
  996SOL    HW2 3888   3.376   6.107   4.347 -0.5976 -1.2599  0.8905
  997SOL     OW 3889   1.412   6.746   3.099 -0.0426 -0.5654  0.1348
  997SOL    HW1 3890   1.368   6.718   3.184 -1.4829  1.2205  0.0336
  997SOL    HW2 3891   1.495   6.798   3.120 -0.6550  0.2963  0.4985
  998SOL     OW 3892   6.467   1.098   4.255 -0.0532 -0.2138 -0.2611
  998SOL    HW1 3893   6.482   0.999   4.267  0.0563 -0.6818 -3.4186
  998SOL    HW2 3894   6.379   1.123   4.295  0.1444 -1.4584  1.0454
  999SOL     OW 3895   0.654   2.537   2.213 -0.0982  0.0726 -0.6638
  999SOL    HW1 3896   0.731   2.478   2.235  0.7489  1.5462  0.5239
  999SOL    HW2 3897   0.675   2.631   2.240 -2.8880  0.3059  1.0984
 1000SOL     OW 3898   2.019   2.261   0.985  0.2910 -0.1610 -0.1880
 1000SOL    HW1 3899   2.115   2.265   1.013  0.1071  2.1220  0.2431
 1000SOL    HW2 3900   1.998   2.168   0.954  1.9534 -1.4183  2.0918
 1001SOL     OW 3901   5.152   5.596   0.637 -0.0298  0.6709  0.1606
 1001SOL    HW1 3902   5.071   5.604   0.579 -1.2531 -0.1943  1.6839
 1001SOL    HW2 3903   5.184   5.501   0.637  0.2828  0.7746  0.4899
 1002SOL     OW 3904   6.127   1.212   6.867  0.1886  0.1612 -0.3127
 1002SOL    HW1 3905   6.149   1.300   6.825  0.7947  0.1710  0.0052
 1002SOL    HW2 3906   6.130   1.221   6.967  1.8062 -0.5661 -0.2578
 1003SOL     OW 3907   0.754   6.389   5.212 -0.1160  0.2757 -0.5018
 1003SOL    HW1 3908   0.677   6.442   5.177  0.2829  0.4402 -1.1355
 1003SOL    HW2 3909   0.759   6.302   5.164 -0.1766  0.0750 -0.1450
 1004SOL     OW 3910   1.495   2.891   2.337 -0.0164  0.2601 -0.1774
 1004SOL    HW1 3911   1.427   2.964   2.341  0.4666  0.6902  0.2941
 1004SOL    HW2 3912   1.491   2.847   2.247  1.9049  3.0509 -1.7627
 1005SOL     OW 3913   2.009   4.216   5.311  0.3370  0.0299 -0.1554
 1005SOL    HW1 3914   2.033   4.139   5.252  1.2513  0.7694 -0.7789
 1005SOL    HW2 3915   1.922   4.256   5.280 -0.7521 -1.4299  0.8825
 1006SOL     OW 3916   1.151   6.221   0.921  0.6794  0.2395 -0.0194
 1006SOL    HW1 3917   1.204   6.213   1.006 -1.1543  0.3225  1.1990
 1006SOL    HW2 3918   1.141   6.317   0.896 -0.6633  0.4022  0.9911
 1007SOL     OW 3919   4.222   1.545   0.264  0.1638 -0.5836  0.1139
 1007SOL    HW1 3920   4.284   1.469   0.244 -0.8625 -2.0948  2.3192
 1007SOL    HW2 3921   4.269   1.611   0.323  0.6400 -0.1195 -0.7610
 1008SOL     OW 3922   1.717   2.432   4.548  0.2984 -0.6014 -0.2166
 1008SOL    HW1 3923   1.730   2.347   4.600  1.0367 -2.0623 -2.6172
 1008SOL    HW2 3924   1.627   2.470   4.570  0.4310 -1.2982  1.8176
 1009SOL     OW 3925   5.363   4.535   5.398 -0.4677 -0.3462 -0.1466
 1009SOL    HW1 3926   5.450   4.498   5.431 -1.0872 -0.3005  1.6810
 1009SOL    HW2 3927   5.366   4.635   5.402  0.0551 -0.2613 -1.9602
 1010SOL     OW 3928   1.817   3.013   6.902 -0.0859 -0.6347  0.2018
 1010SOL    HW1 3929   1.738   2.957   6.878  0.8814 -1.5078 -1.0455
 1010SOL    HW2 3930   1.895   2.988   6.845  1.5578 -0.8823  2.4132
 1011SOL     OW 3931   0.313   6.068   1.230 -0.0048 -0.2102 -0.3981
 1011SOL    HW1 3932   0.367   6.150   1.245 -0.2694  0.3007 -2.0166
 1011SOL    HW2 3933   0.272   6.071   1.138 -3.4149 -0.2022  0.9914
 1012SOL     OW 3934   0.150   0.673   2.075  0.0048  1.0040 -0.4374
 1012SOL    HW1 3935   0.233   0.617   2.068  0.7419  1.9200  0.6123
 1012SOL    HW2 3936   0.155   0.749   2.010 -0.1811  0.8624 -0.6191
 1013SOL     OW 3937   4.163   3.082   0.454  0.1486  0.8683  0.4358
 1013SOL    HW1 3938   4.110   3.088   0.538 -0.1454 -1.0476  0.4121
 1013SOL    HW2 3939   4.158   2.990   0.417  2.7694  0.8487 -0.0519
 1014SOL     OW 3940   0.427   4.218   6.772 -0.0927  0.2938 -0.2268
 1014SOL    HW1 3941   0.508   4.258   6.727 -1.5694  3.6766 -0.2174
 1014SOL    HW2 3942   0.441   4.219   6.871  0.6377 -1.1292 -0.2948
 1015SOL     OW 3943   3.199   5.623   6.002 -0.0628  0.0900  0.3377
 1015SOL    HW1 3944   3.110   5.668   5.998 -0.3769 -0.5562 -0.1754
 1015SOL    HW2 3945   3.219   5.597   6.096  0.2334  1.4926  0.6809
 1016SOL     OW 3946   4.019   4.649   0.045 -0.2469 -0.0385 -0.1593
 1016SOL    HW1 3947   4.029   4.550   0.051 -0.5528 -0.0478  0.2437
 1016SOL    HW2 3948   4.060   4.691   0.126 -2.0437  0.0188  0.7668
 1017SOL     OW 3949   5.030   2.709   0.640  0.9387 -0.0476 -0.2507
 1017SOL    HW1 3950   5.087   2.627   0.641  0.4417 -0.5351 -3.2315
 1017SOL    HW2 3951   5.085   2.788   0.612  0.9474  0.2320  0.5326
 1018SOL     OW 3952   2.055   3.220   4.770 -0.6689 -0.2536  0.1764
 1018SOL    HW1 3953   2.112   3.138   4.771  2.2014  1.5834  1.5333
 1018SOL    HW2 3954   2.045   3.255   4.863 -1.1986  1.3336 -0.4307
 1019SOL     OW 3955   1.506   1.218   0.798  0.1085  0.4229  0.1831
 1019SOL    HW1 3956   1.506   1.170   0.886  2.6745  1.8317  1.0477
 1019SOL    HW2 3957   1.490   1.316   0.813  1.7418  0.8658 -0.7369
 1020SOL     OW 3958   6.633   1.493   2.430  0.4535  0.9131  0.6674
 1020SOL    HW1 3959   6.691   1.467   2.507  0.0635 -2.0566  0.1204
 1020SOL    HW2 3960   6.538   1.503   2.461  0.6443  1.9177  0.9297
 1021SOL     OW 3961   6.446   0.045   6.822  0.0307  0.2005 -0.3067
 1021SOL    HW1 3962   6.446   0.145   6.829  3.7232  0.5090 -2.0909
 1021SOL    HW2 3963   6.479   0.005   6.907  0.5936  0.6841 -0.2922
 1022SOL     OW 3964   2.112   4.561   4.881  0.3683  0.4778 -0.3170
 1022SOL    HW1 3965   2.184   4.541   4.948  0.5884  0.4068 -0.5734
 1022SOL    HW2 3966   2.028   4.586   4.929  0.6444  0.8437 -0.0175
 1023SOL     OW 3967   6.914   0.140   2.131  1.1103  0.9327 -0.3204
 1023SOL    HW1 3968   6.892   0.231   2.164  0.8569  0.6136  0.4010
 1023SOL    HW2 3969   6.976   0.147   2.052  0.4223  1.7470 -0.7969
 1024SOL     OW 3970   6.491   3.281   3.621  0.1118 -1.2898 -0.2275
 1024SOL    HW1 3971   6.476   3.262   3.524 -0.5786 -1.2537 -0.1345
 1024SOL    HW2 3972   6.429   3.225   3.676 -1.3519  0.5408  0.0917
 1025SOL     OW 3973   4.315   3.033   6.921  0.2679  0.7997 -0.0650
 1025SOL    HW1 3974   4.371   3.084   6.987  0.8663  0.7233 -0.5093
 1025SOL    HW2 3975   4.365   3.023   6.836 -0.9245  1.8625 -0.9363
 1026SOL     OW 3976   3.598   2.089   1.739 -0.1005 -0.7333 -0.0261
 1026SOL    HW1 3977   3.562   2.012   1.792 -0.0214  0.1825  1.4000
 1026SOL    HW2 3978   3.622   2.164   1.800 -0.2632  0.4818 -1.3989
 1027SOL     OW 3979   2.210   0.168   1.965 -0.5939  0.6416  0.2816
 1027SOL    HW1 3980   2.308   0.147   1.973 -0.7373 -0.5681 -0.7486
 1027SOL    HW2 3981   2.198   0.264   1.939  0.4851  0.1776 -2.2961
 1028SOL     OW 3982   2.319   5.789   3.519  0.0874  0.0825 -0.2413
 1028SOL    HW1 3983   2.278   5.704   3.551 -0.9992  1.1766  1.4686
 1028SOL    HW2 3984   2.409   5.801   3.562 -0.0926  0.1473  0.1231
 1029SOL     OW 3985   1.188   0.115   5.213  0.0747  0.2092  0.1446
 1029SOL    HW1 3986   1.221   0.023   5.233  0.7971  0.1957 -0.9851
 1029SOL    HW2 3987   1.165   0.162   5.298 -0.2163 -0.9692  0.7436
 1030SOL     OW 3988   4.250   2.956   1.680 -0.1548 -0.2759 -0.2104
 1030SOL    HW1 3989   4.329   2.899   1.701  0.1778 -0.1463 -1.0602
 1030SOL    HW2 3990   4.170   2.897   1.665  0.6601 -0.7746 -3.2844
 1031SOL     OW 3991   6.665   2.995   2.709 -0.2225 -0.1938 -0.0527
 1031SOL    HW1 3992   6.602   2.983   2.631  0.3984  1.3273 -0.8271
 1031SOL    HW2 3993   6.748   3.040   2.677  0.5486 -0.6301  1.2959
 1032SOL     OW 3994   1.869   1.876   6.210 -0.4846 -0.6900 -0.3256
 1032SOL    HW1 3995   1.788   1.834   6.251 -2.6110  0.6684 -2.8609
 1032SOL    HW2 3996   1.857   1.976   6.209  1.0396 -0.4930 -1.1812
 1033SOL     OW 3997   1.126   5.406   0.313 -0.4434  0.3398 -0.2077
 1033SOL    HW1 3998   1.164   5.359   0.393  0.9481 -0.1959 -1.1388
 1033SOL    HW2 3999   1.094   5.339   0.247 -2.0385  0.7869  0.0774
 1034SOL     OW 4000   1.052   4.689   4.170 -0.2149  0.3982  0.7685
 1034SOL    HW1 4001   1.079   4.594   4.179 -2.4177 -0.4224 -0.4480
 1034SOL    HW2 4002   1.094   4.728   4.088 -1.0218 -0.2343  0.0344
 1035SOL     OW 4003   5.772   2.807   6.216  0.6685 -0.0362  0.8256
 1035SOL    HW1 4004   5.691   2.752   6.234  0.3834  0.2453  0.4113
 1035SOL    HW2 4005   5.757   2.864   6.136  1.0302  0.5070  1.1367
 1036SOL     OW 4006   4.602   6.063   3.202  0.6156  0.5247  0.1786
 1036SOL    HW1 4007   4.693   6.094   3.172 -0.1751  3.1609  0.2222
 1036SOL    HW2 4008   4.532   6.116   3.155 -0.9954 -1.9056 -0.3467
 1037SOL     OW 4009   2.854   6.656   3.514 -0.5447 -0.2158  0.2394
 1037SOL    HW1 4010   2.941   6.639   3.561 -0.8882  1.7047  1.7339
 1037SOL    HW2 4011   2.848   6.753   3.491 -2.4805 -0.2091  0.5887
 1038SOL     OW 4012   3.608   1.649   3.996  0.4344  0.4397 -0.1181
 1038SOL    HW1 4013   3.634   1.682   4.087 -0.4039  1.7247 -0.3122
 1038SOL    HW2 4014   3.567   1.724   3.944  0.9843 -0.2486 -1.6001
 1039SOL     OW 4015   3.600   2.917   2.771 -0.1768 -0.8137  0.1339
 1039SOL    HW1 4016   3.632   2.932   2.864  0.9793 -0.1806 -0.3475
 1039SOL    HW2 4017   3.501   2.930   2.767 -0.2920 -1.1804  1.3270
 1040SOL     OW 4018   5.383   1.416   3.735 -0.1905  0.8736  0.1635
 1040SOL    HW1 4019   5.368   1.387   3.641 -1.1351 -0.3909  0.6774
 1040SOL    HW2 4020   5.302   1.395   3.790  0.1404  2.0759  1.1582
 1041SOL     OW 4021   1.395   6.405   1.221 -0.0876 -0.1331  0.0561
 1041SOL    HW1 4022   1.337   6.482   1.194 -0.7609 -0.3482  0.8352
 1041SOL    HW2 4023   1.489   6.422   1.192 -0.0792  1.3288  0.8302
 1042SOL     OW 4024   2.110   6.776   0.065 -0.1915  0.1906  0.1283
 1042SOL    HW1 4025   2.096   6.822   0.153  0.2767  0.9630 -0.1886
 1042SOL    HW2 4026   2.044   6.702   0.055  1.5041 -1.8217  2.4128
 1043SOL     OW 4027   3.354   1.388   4.277 -0.1505 -0.0206 -0.6613
 1043SOL    HW1 4028   3.362   1.481   4.242  0.4089 -0.5152 -1.9237
 1043SOL    HW2 4029   3.446   1.351   4.294 -0.3494 -0.4994 -0.6092
 1044SOL     OW 4030   5.761   4.619   2.594 -0.4202 -0.2869 -0.1603
 1044SOL    HW1 4031   5.810   4.581   2.516  0.0319 -0.1364  0.0471
 1044SOL    HW2 4032   5.684   4.560   2.617  0.0816 -0.9090 -0.0454
 1045SOL     OW 4033   3.353   0.508   2.311 -0.2858  0.1130 -0.9723
 1045SOL    HW1 4034   3.280   0.573   2.333 -1.3019 -1.6798  1.2803
 1045SOL    HW2 4035   3.317   0.437   2.251  0.0343  0.0613 -1.1049
 1046SOL     OW 4036   2.105   1.134   6.545 -0.1541  0.3110  0.1715
 1046SOL    HW1 4037   2.015   1.108   6.510 -0.0353 -0.8842  0.7238
 1046SOL    HW2 4038   2.175   1.078   6.502  0.0289 -0.9270  1.9791
 1047SOL     OW 4039   0.462   0.060   1.150  0.2930 -0.0120  0.0100
 1047SOL    HW1 4040   0.395   0.134   1.153  0.2681  0.1580 -2.5103
 1047SOL    HW2 4041   0.550   0.093   1.185 -0.3464  0.4233  1.2550
 1048SOL     OW 4042   4.321   6.673   1.660 -0.1202 -0.0795 -0.8624
 1048SOL    HW1 4043   4.418   6.657   1.675 -0.2438  0.7814  1.2360
 1048SOL    HW2 4044   4.307   6.757   1.608  0.2589 -0.1881 -1.1367
 1049SOL     OW 4045   0.898   1.134   3.764  0.0086 -0.1277  0.9159
 1049SOL    HW1 4046   0.936   1.101   3.850  0.8362 -1.1392  0.1802
 1049SOL    HW2 4047   0.877   1.056   3.705  0.9213  0.6114 -0.4165
 1050SOL     OW 4048   5.722   0.460   2.681  0.1033 -0.6593  0.2133
 1050SOL    HW1 4049   5.693   0.452   2.586  0.0231 -1.0225  0.2676
 1050SOL    HW2 4050   5.822   0.462   2.686  0.1624  2.3880 -0.1317
 1051SOL     OW 4051   0.148   4.176   0.979 -0.3038  0.1352 -0.5815
 1051SOL    HW1 4052   0.214   4.251   0.980  0.6349 -0.6026 -2.0330
 1051SOL    HW2 4053   0.056   4.212   0.968 -0.3067  1.2417  2.3133
 1052SOL     OW 4054   4.776   1.980   4.986 -0.3643 -0.4928 -0.2597
 1052SOL    HW1 4055   4.689   1.982   4.937 -0.9207 -0.5633  0.7014
 1052SOL    HW2 4056   4.798   1.887   5.012  0.5709 -0.6397 -1.4440
 1053SOL     OW 4057   6.106   5.232   3.510  0.8629 -0.2945  0.1379
 1053SOL    HW1 4058   6.011   5.263   3.517  0.7849 -0.4647 -0.1607
 1053SOL    HW2 4059   6.163   5.289   3.568  0.5935 -0.1200  0.2362
 1054SOL     OW 4060   5.076   3.555   0.191  0.2739  0.3235 -0.1816
 1054SOL    HW1 4061   5.037   3.582   0.279 -1.7240 -3.4968  0.3185
 1054SOL    HW2 4062   5.166   3.598   0.179 -1.1303  4.1999  1.7287
 1055SOL     OW 4063   5.256   0.618   5.458 -0.2188  0.3859  0.1246
 1055SOL    HW1 4064   5.182   0.656   5.402 -2.0773 -1.4755  1.1752
 1055SOL    HW2 4065   5.287   0.532   5.418  1.4212  1.1375 -0.2868
 1056SOL     OW 4066   3.333   2.822   6.712 -0.2213 -0.5192 -0.1518
 1056SOL    HW1 4067   3.267   2.787   6.778  0.0788 -2.4605 -0.8198
 1056SOL    HW2 4068   3.285   2.862   6.634 -0.5789  0.1138  0.3885
 1057SOL     OW 4069   4.248   1.895   0.733  0.3282  0.5469 -0.0575
 1057SOL    HW1 4070   4.307   1.815   0.721 -0.4098 -0.0891  0.4103
 1057SOL    HW2 4071   4.156   1.864   0.760  0.4674  1.6102  1.8471
 1058SOL     OW 4072   5.398   2.948   4.489 -0.4159 -0.0286 -0.6021
 1058SOL    HW1 4073   5.429   2.853   4.475 -0.1682  0.1640 -1.4324
 1058SOL    HW2 4074   5.451   3.009   4.430 -1.3660  0.4879 -0.9392
 1059SOL     OW 4075   2.954   1.214   0.935  0.0819 -0.5149  0.8644
 1059SOL    HW1 4076   3.002   1.128   0.918  1.0154  0.1773 -0.1781
 1059SOL    HW2 4077   3.021   1.288   0.945 -0.7265  0.6546 -1.5826
 1060SOL     OW 4078   6.457   5.307   3.366  0.0556 -0.0012  0.5699
 1060SOL    HW1 4079   6.452   5.274   3.272 -0.8630 -0.5914  0.8138
 1060SOL    HW2 4080   6.417   5.399   3.371  1.1115  0.4934  0.1950
 1061SOL     OW 4081   0.701   3.649   1.472 -0.1845  0.0885 -0.0530
 1061SOL    HW1 4082   0.739   3.723   1.416 -0.3503  0.3849  0.2141
 1061SOL    HW2 4083   0.621   3.684   1.521 -0.5833 -0.4243 -0.3346
 1062SOL     OW 4084   5.150   5.725   5.074 -0.3705 -0.3464 -0.0494
 1062SOL    HW1 4085   5.167   5.732   4.975 -0.0533 -0.0643  0.0241
 1062SOL    HW2 4086   5.098   5.806   5.104 -0.9007 -0.6746 -0.0745
 1063SOL     OW 4087   1.581   4.786   0.395 -0.1653  0.4003 -0.1855
 1063SOL    HW1 4088   1.483   4.778   0.414  0.0365 -0.0282  0.6935
 1063SOL    HW2 4089   1.606   4.882   0.388 -0.3043  0.5810  1.4548
 1064SOL     OW 4090   2.013   0.023   1.804 -0.8509  0.4609 -0.4388
 1064SOL    HW1 4091   2.002   0.031   1.705  1.0476  0.3690 -0.6961
 1064SOL    HW2 4092   2.086   0.084   1.834 -1.5485  0.6540  0.9604
 1065SOL     OW 4093   4.319   0.728   1.688  0.0575 -0.2791  0.3363
 1065SOL    HW1 4094   4.288   0.660   1.622 -0.6133  0.5915 -0.2717
 1065SOL    HW2 4095   4.416   0.746   1.674 -0.0424 -0.2293 -0.3005
 1066SOL     OW 4096   5.184   0.637   2.800  0.0994 -0.3865 -0.3354
 1066SOL    HW1 4097   5.263   0.577   2.790  0.8203  0.6453 -1.1278
 1066SOL    HW2 4098   5.101   0.590   2.769 -0.0331 -2.2627  2.5162
 1067SOL     OW 4099   0.164   3.792   6.616 -0.2277  0.7501  0.4769
 1067SOL    HW1 4100   0.139   3.730   6.542 -0.3506 -0.1377  1.2474
 1067SOL    HW2 4101   0.180   3.740   6.700 -2.8929  1.9464  1.8411
 1068SOL     OW 4102   6.923   5.575   1.857 -0.0905  0.0514 -0.2336
 1068SOL    HW1 4103   6.972   5.591   1.771  0.7827 -1.2645 -0.0170
 1068SOL    HW2 4104   6.909   5.661   1.904  2.7872  0.4450  0.0716
 1069SOL     OW 4105   4.044   5.667   5.807  0.1850 -0.3983 -0.0691
 1069SOL    HW1 4106   4.015   5.585   5.758  0.3500 -0.4705 -0.0478
 1069SOL    HW2 4107   3.978   5.741   5.791 -0.7102 -0.9414  1.0465
 1070SOL     OW 4108   0.360   1.351   2.963  0.2140 -0.2961 -0.5168
 1070SOL    HW1 4109   0.355   1.449   2.945  0.0812 -0.0538  0.8081
 1070SOL    HW2 4110   0.456   1.323   2.965  0.3650  0.2486  1.3145
 1071SOL     OW 4111   1.860   0.841   3.937 -0.0263  0.2662 -0.0756
 1071SOL    HW1 4112   1.871   0.746   3.967 -0.1329  0.7219  1.5531
 1071SOL    HW2 4113   1.948   0.876   3.905 -0.3216 -0.8465 -2.3150
 1072SOL     OW 4114   2.239   0.851   2.221 -0.2859  0.3284  0.2913
 1072SOL    HW1 4115   2.169   0.824   2.154 -1.8323  0.4762  1.8011
 1072SOL    HW2 4116   2.250   0.778   2.289  1.4613  0.0688 -0.2154
 1073SOL     OW 4117   4.773   1.806   4.645  0.0003  0.0495  0.9499
 1073SOL    HW1 4118   4.817   1.717   4.654  0.3452  0.2358  1.1125
 1073SOL    HW2 4119   4.842   1.878   4.650 -0.3292  0.3460  1.3019
 1074SOL     OW 4120   2.312   4.334   1.316  0.3869  0.8363  0.0896
 1074SOL    HW1 4121   2.408   4.338   1.288  0.8122 -0.1419  1.3078
 1074SOL    HW2 4122   2.307   4.313   1.414 -1.0712 -0.3343 -0.2038
 1075SOL     OW 4123   6.202   0.395   3.183  0.7265  0.1831 -0.5091
 1075SOL    HW1 4124   6.243   0.391   3.092  0.1238  1.3402 -0.8470
 1075SOL    HW2 4125   6.225   0.482   3.227 -0.2703  0.2908 -0.1776
 1076SOL     OW 4126   0.577   2.912   6.012  0.5676  0.3759  0.0125
 1076SOL    HW1 4127   0.624   2.893   6.099  1.4614 -1.8560 -0.8875
 1076SOL    HW2 4128   0.482   2.883   6.019  0.8579 -0.6042 -0.0065
 1077SOL     OW 4129   0.170   6.841   1.749 -0.3596  0.3283  0.0022
 1077SOL    HW1 4130   0.253   6.795   1.780  0.8186  1.8555 -0.7305
 1077SOL    HW2 4131   0.130   6.891   1.826  1.7171  2.8762 -0.4117
 1078SOL     OW 4132   6.856   0.743   1.580  0.1691 -0.0939 -0.0718
 1078SOL    HW1 4133   6.774   0.800   1.576  0.7248  0.7158 -0.2034
 1078SOL    HW2 4134   6.876   0.719   1.675 -0.6992 -1.0169 -0.1110
 1079SOL     OW 4135   1.409   5.878   2.288 -0.7890  0.0636  0.2609
 1079SOL    HW1 4136   1.508   5.871   2.299 -0.8012 -1.8094 -0.5328
 1079SOL    HW2 4137   1.389   5.941   2.213 -0.2050  0.3928  0.3750
 1080SOL     OW 4138   1.842   5.449   1.994 -0.4984 -0.0747 -0.2156
 1080SOL    HW1 4139   1.912   5.399   1.942 -0.9346  0.5699 -1.4664
 1080SOL    HW2 4140   1.798   5.387   2.059  1.2955 -0.4647  0.6835
 1081SOL     OW 4141   5.254   6.614   4.626  0.1251  0.0298 -0.2858
 1081SOL    HW1 4142   5.310   6.556   4.685 -1.8041 -0.8919  0.7227
 1081SOL    HW2 4143   5.248   6.573   4.535 -0.6653 -1.0333  0.2231
 1082SOL     OW 4144   5.547   1.455   0.485  0.4060 -0.2516  0.6313
 1082SOL    HW1 4145   5.447   1.446   0.484  0.3746  0.1046  0.5958
 1082SOL    HW2 4146   5.576   1.506   0.566  0.4303  1.1264 -0.2161
 1083SOL     OW 4147   5.031   4.877   6.724 -0.1305  0.2473  0.7104
 1083SOL    HW1 4148   5.119   4.855   6.683 -0.8004 -0.2753 -0.5134
 1083SOL    HW2 4149   5.030   4.973   6.752  0.5321  0.4880 -0.0577
 1084SOL     OW 4150   5.596   5.558   0.843  0.0755 -0.3710  0.5614
 1084SOL    HW1 4151   5.521   5.621   0.865  0.7355 -0.3710  3.1262
 1084SOL    HW2 4152   5.587   5.527   0.748 -1.4173  1.9880 -0.1608
 1085SOL     OW 4153   0.630   4.325   4.364  0.0979  0.4256 -0.8282
 1085SOL    HW1 4154   0.686   4.344   4.445  2.1415  1.5337 -2.3866
 1085SOL    HW2 4155   0.688   4.286   4.292 -1.9661 -2.0558 -1.2898
 1086SOL     OW 4156   6.746   3.910   6.065  0.0512 -0.1983  0.0378
 1086SOL    HW1 4157   6.736   3.813   6.089  2.5627 -0.4085  0.4961
 1086SOL    HW2 4158   6.663   3.960   6.091 -1.1052 -2.1152  0.2238
 1087SOL     OW 4159   1.313   4.148   3.951 -0.6492 -0.4768  0.2453
 1087SOL    HW1 4160   1.360   4.125   4.036 -0.8765 -3.2188 -0.2892
 1087SOL    HW2 4161   1.361   4.223   3.905  1.5405 -1.3117  1.0763
 1088SOL     OW 4162   5.592   4.103   1.926 -0.8406 -0.4593  0.0671
 1088SOL    HW1 4163   5.671   4.116   1.986 -0.6856  0.1953 -0.2740
 1088SOL    HW2 4164   5.547   4.190   1.910  0.5475 -0.1374 -2.7040
 1089SOL     OW 4165   5.651   5.878   3.327  0.0754 -0.1468 -0.3911
 1089SOL    HW1 4166   5.586   5.914   3.260  0.8235  0.3838 -0.8468
 1089SOL    HW2 4167   5.601   5.843   3.407 -0.7979 -0.3906 -1.0349
 1090SOL     OW 4168   1.921   2.306   5.617  0.0358  0.4445  0.3442
 1090SOL    HW1 4169   1.837   2.357   5.600 -0.8321 -0.9398  0.3919
 1090SOL    HW2 4170   1.967   2.288   5.530 -0.6022 -0.2547  0.1410
 1091SOL     OW 4171   2.182   2.953   5.924 -0.4379  0.6755  0.2726
 1091SOL    HW1 4172   2.267   2.988   5.884 -0.4789  0.7499  0.2513
 1091SOL    HW2 4173   2.202   2.872   5.979 -0.3736  0.5992  0.1387
 1092SOL     OW 4174   2.169   5.324   0.216  0.0506  0.2011 -0.1547
 1092SOL    HW1 4175   2.197   5.259   0.145  1.1489  1.3237 -0.7940
 1092SOL    HW2 4176   2.114   5.396   0.175  1.7805  1.5820 -0.1892
 1093SOL     OW 4177   1.800   0.904   1.818 -0.2549  0.2591 -0.1272
 1093SOL    HW1 4178   1.739   0.826   1.827 -0.1582  0.1523 -0.4016
 1093SOL    HW2 4179   1.846   0.921   1.905  1.1706 -1.1718 -0.5460
 1094SOL     OW 4180   0.924   5.458   3.378 -0.2602  0.2817 -0.2780
 1094SOL    HW1 4181   0.834   5.487   3.346 -0.7950  0.0761  1.0078
 1094SOL    HW2 4182   0.992   5.528   3.356 -0.3646 -0.3063 -2.8267
 1095SOL     OW 4183   1.399   4.973   0.632 -0.2008 -0.8712  0.5350
 1095SOL    HW1 4184   1.332   5.004   0.699  2.1905  3.4918  1.2687
 1095SOL    HW2 4185   1.380   5.015   0.543  1.0650 -0.1220  0.5859
 1096SOL     OW 4186   2.291   3.581   1.495  0.5619  0.3855 -0.0155
 1096SOL    HW1 4187   2.313   3.638   1.575  1.4846  1.4275 -0.9782
 1096SOL    HW2 4188   2.206   3.532   1.512  0.4189  1.0515  1.3712
 1097SOL     OW 4189   2.184   3.992   4.550  0.2873  0.1731 -0.8677
 1097SOL    HW1 4190   2.193   3.893   4.555 -2.0169 -0.0829 -0.1186
 1097SOL    HW2 4191   2.205   4.031   4.640  1.7822  0.4544 -1.3218
 1098SOL     OW 4192   4.130   2.039   6.752  0.0480 -0.2455  0.1077
 1098SOL    HW1 4193   4.047   2.073   6.796  0.6370  0.8795  0.3836
 1098SOL    HW2 4194   4.171   1.969   6.810 -0.3688 -0.3664  0.2661
 1099SOL     OW 4195   3.984   1.089   5.074 -0.5272  0.4256 -0.3707
 1099SOL    HW1 4196   4.028   1.128   5.155 -0.6943 -0.0509 -0.0482
 1099SOL    HW2 4197   4.039   1.109   4.993  0.0244  0.2592 -0.0373
 1100SOL     OW 4198   3.717   1.521   4.974  0.0879  0.5794  0.2248
 1100SOL    HW1 4199   3.698   1.467   5.056 -0.8006  0.5087 -0.0162
 1100SOL    HW2 4200   3.813   1.510   4.948  0.2649  0.2555  1.0004
 1101SOL     OW 4201   5.331   1.973   5.129  0.4999  0.0929  0.2123
 1101SOL    HW1 4202   5.295   1.923   5.208 -2.4708 -0.6192 -1.4213
 1101SOL    HW2 4203   5.318   1.918   5.046  0.2671  2.2139 -1.2440
 1102SOL     OW 4204   0.692   0.718   5.607 -0.3104 -0.4584 -0.1323
 1102SOL    HW1 4205   0.700   0.666   5.692 -1.5478 -2.1448 -0.9808
 1102SOL    HW2 4206   0.690   0.655   5.529 -0.6267  0.9485 -1.3149
 1103SOL     OW 4207   3.005   1.454   1.220  0.2943 -0.0128 -0.0813
 1103SOL    HW1 4208   3.078   1.430   1.155  0.2190 -0.1263 -0.1247
 1103SOL    HW2 4209   2.923   1.402   1.197 -0.1622  0.9641 -0.7599
 1104SOL     OW 4210   2.121   3.466   4.661  0.0960  0.3115 -0.3475
 1104SOL    HW1 4211   2.088   3.378   4.694  0.8194  0.3554  0.5337
 1104SOL    HW2 4212   2.060   3.539   4.691 -0.0613  0.1986 -0.3918
 1105SOL     OW 4213   6.077   3.595   2.041  0.6990  0.2914 -0.2297
 1105SOL    HW1 4214   6.026   3.679   2.022  1.2005  0.6068 -0.1970
 1105SOL    HW2 4215   6.059   3.566   2.134 -0.4840 -0.3548 -0.6388
 1106SOL     OW 4216   1.290   4.797   0.431 -0.0069 -0.2244 -0.2721
 1106SOL    HW1 4217   1.262   4.708   0.394 -2.3048  0.8573 -1.2908
 1106SOL    HW2 4218   1.238   4.815   0.515 -1.3104  1.1455 -1.3378
 1107SOL     OW 4219   0.976   5.298   6.773 -0.4789  0.2953  0.2236
 1107SOL    HW1 4220   0.978   5.395   6.748  1.6046  0.2231 -0.1047
 1107SOL    HW2 4221   0.974   5.243   6.690 -0.4219  0.0689  0.3726
 1108SOL     OW 4222   3.301   6.292   6.995  0.1628 -0.3090 -0.3777
 1108SOL    HW1 4223   3.239   6.218   7.022 -0.1605 -0.5161 -1.6212
 1108SOL    HW2 4224   3.377   6.297   7.059 -1.0778 -0.1178  1.1423
 1109SOL     OW 4225   6.189   7.008   4.311  0.1194  0.3411 -0.0769
 1109SOL    HW1 4226   6.103   6.959   4.294 -0.1150  1.2010 -1.6398
 1109SOL    HW2 4227   6.176   7.105   4.288  0.9367  0.8978  1.6732
 1110SOL     OW 4228   4.876   3.316   2.772 -0.0251 -0.3725 -0.2895
 1110SOL    HW1 4229   4.838   3.260   2.699  0.0887 -1.4573  0.4568
 1110SOL    HW2 4230   4.875   3.265   2.858  0.2022  0.7308  0.3990
 1111SOL     OW 4231   5.928   6.556   0.397  0.0236 -0.5660 -0.7857
 1111SOL    HW1 4232   5.941   6.518   0.306 -1.1352 -0.5936 -0.9537
 1111SOL    HW2 4233   5.849   6.618   0.396  0.1008 -0.4420  0.1589
 1112SOL     OW 4234   6.775   7.002   1.827  0.5444  0.1903  0.0009
 1112SOL    HW1 4235   6.813   7.093   1.814  1.3815 -0.0273  0.7622
 1112SOL    HW2 4236   6.694   7.007   1.885 -0.5286  0.6400 -1.4838
 1113SOL     OW 4237   5.133   5.519   1.933 -0.4602  0.4597 -0.2297
 1113SOL    HW1 4238   5.123   5.462   2.014  0.6238  0.9759  0.2913
 1113SOL    HW2 4239   5.103   5.612   1.955  0.3001  0.7172 -0.2640
 1114SOL     OW 4240   1.890   0.580   0.574  0.4062  0.0053  0.1772
 1114SOL    HW1 4241   1.870   0.676   0.589 -3.7766 -0.7861  1.0087
 1114SOL    HW2 4242   1.843   0.548   0.492  0.7991 -1.5525  0.5143
 1115SOL     OW 4243   3.701   4.115   6.476  0.0716  0.2132 -0.1579
 1115SOL    HW1 4244   3.706   4.020   6.507 -0.8637  0.3534  0.4806
 1115SOL    HW2 4245   3.764   4.171   6.530 -0.0265  0.1042  0.0696
 1116SOL     OW 4246   4.564   5.218   5.139 -0.9390 -0.3502 -0.9814
 1116SOL    HW1 4247   4.549   5.126   5.176 -0.6199 -0.1330 -0.2771
 1116SOL    HW2 4248   4.505   5.233   5.060 -2.2709 -0.5306 -0.0480
 1117SOL     OW 4249   0.911   1.616   2.526  0.4063  0.0258  0.2395
 1117SOL    HW1 4250   0.912   1.517   2.512  1.5526  0.0409  0.1140
 1117SOL    HW2 4251   0.838   1.639   2.589  0.8523 -1.0487  1.2001
 1118SOL     OW 4252   2.085   2.312   5.380  0.4245  0.1566  0.3842
 1118SOL    HW1 4253   2.153   2.363   5.433  1.3780  0.8568 -1.4241
 1118SOL    HW2 4254   2.124   2.226   5.348  1.2253  1.3669 -2.2077
 1119SOL     OW 4255   3.351   4.758   1.733  0.6211  0.1598 -0.1973
 1119SOL    HW1 4256   3.435   4.705   1.749  0.5992 -0.0886 -0.8844
 1119SOL    HW2 4257   3.348   4.835   1.797  0.0375 -1.3730  1.7260
 1120SOL     OW 4258   3.568   5.932   1.816 -0.4012  0.1635 -0.1464
 1120SOL    HW1 4259   3.650   5.990   1.814  0.6581 -1.2724  0.3231
 1120SOL    HW2 4260   3.552   5.901   1.909 -1.1821 -0.0038 -0.3311
 1121SOL     OW 4261   5.930   5.443   4.251  0.5778 -0.3382  0.5604
 1121SOL    HW1 4262   6.007   5.404   4.302  0.3807  1.4382  2.3296
 1121SOL    HW2 4263   5.921   5.540   4.273 -0.5406  0.1481 -1.6966
 1122SOL     OW 4264   5.199   1.510   0.700 -0.7176 -0.8559  0.0892
 1122SOL    HW1 4265   5.211   1.424   0.748 -3.2505 -0.4440  1.6054
 1122SOL    HW2 4266   5.230   1.585   0.758 -1.4900 -0.5296  0.0917
 1123SOL     OW 4267   5.858   1.460   2.787  0.2387 -0.0093  0.2581
 1123SOL    HW1 4268   5.784   1.528   2.795  0.8525  0.7965 -0.7060
 1123SOL    HW2 4269   5.844   1.389   2.856  0.1145  1.5906  1.9917
 1124SOL     OW 4270   0.461   2.608   5.843 -0.2624 -0.1826  0.2251
 1124SOL    HW1 4271   0.536   2.674   5.836 -2.3918  2.6171  1.6301
 1124SOL    HW2 4272   0.382   2.641   5.791 -1.2944 -1.8364  0.6570
 1125SOL     OW 4273   2.248   1.934   4.491  0.6922 -0.1901  0.1590
 1125SOL    HW1 4274   2.301   1.972   4.567  2.7972 -0.7729 -0.9326
 1125SOL    HW2 4275   2.282   1.843   4.469 -0.1865 -0.2242 -1.1834
 1126SOL     OW 4276   6.558   0.289   6.237 -0.1618 -0.0576  0.1561
 1126SOL    HW1 4277   6.510   0.348   6.301  2.1476  1.1267  0.9114
 1126SOL    HW2 4278   6.552   0.328   6.145  0.3499  0.7755  0.4556
 1127SOL     OW 4279   6.782   1.494   4.561  0.7051  0.4052  0.3906
 1127SOL    HW1 4280   6.789   1.520   4.658 -2.4227  0.3757  0.7273
 1127SOL    HW2 4281   6.711   1.425   4.550  0.2164  1.2094 -2.0861
 1128SOL     OW 4282   5.521   3.302   4.001  0.2676  0.3055  0.1927
 1128SOL    HW1 4283   5.434   3.321   4.046  0.9033  0.8738  1.2395
 1128SOL    HW2 4284   5.554   3.385   3.956  1.0973  0.6290  1.3235
 1129SOL     OW 4285   0.772   0.281   0.799  0.3619  0.5468 -0.4435
 1129SOL    HW1 4286   0.826   0.343   0.855 -0.7226  0.2181  1.0609
 1129SOL    HW2 4287   0.817   0.192   0.795 -1.5393 -0.8987  3.8525
 1130SOL     OW 4288   2.081   5.756   0.662 -0.7547 -0.1412 -0.4028
 1130SOL    HW1 4289   2.043   5.849   0.653 -0.9396 -0.0356  1.0900
 1130SOL    HW2 4290   2.161   5.747   0.604 -0.0679  1.3514  0.2552
 1131SOL     OW 4291   2.516   5.513   4.067 -0.4109  0.3750  0.8914
 1131SOL    HW1 4292   2.552   5.474   4.151 -0.5236  2.8394  2.1762
 1131SOL    HW2 4293   2.444   5.579   4.089  0.4228  2.0297 -1.0442
 1132SOL     OW 4294   4.429   0.955   3.011  0.6198  0.8873  0.2213
 1132SOL    HW1 4295   4.461   0.937   3.103 -0.8511 -1.9585  0.3003
 1132SOL    HW2 4296   4.386   1.046   3.007 -0.2298  0.6572  2.6369
 1133SOL     OW 4297   1.496   1.520   0.818  0.1726  0.1225 -0.3425
 1133SOL    HW1 4298   1.552   1.602   0.830  1.4061 -0.9572  1.7297
 1133SOL    HW2 4299   1.401   1.542   0.837  0.7818  0.6679  2.6127
 1134SOL     OW 4300   5.544   0.873   3.724  1.0143  0.1821 -0.4277
 1134SOL    HW1 4301   5.598   0.916   3.652 -0.1024  2.7903  0.1659
 1134SOL    HW2 4302   5.581   0.898   3.813  0.9062 -0.9480 -0.0524
 1135SOL     OW 4303   2.360   0.291   2.623  0.0822  0.4449  0.3733
 1135SOL    HW1 4304   2.447   0.322   2.584 -0.6090  1.2410 -0.5857
 1135SOL    HW2 4305   2.344   0.196   2.597  0.4685  0.4236  0.2003
 1136SOL     OW 4306   5.505   5.811   3.567  0.1168 -1.2460 -1.2011
 1136SOL    HW1 4307   5.496   5.713   3.554  0.4249 -1.2302 -1.5515
 1136SOL    HW2 4308   5.441   5.842   3.638  0.2491 -1.7503 -0.8578
 1137SOL     OW 4309   1.260   5.306   6.611  0.0800 -0.3912  0.2453
 1137SOL    HW1 4310   1.220   5.226   6.567  1.3020 -0.1389 -1.4343
 1137SOL    HW2 4311   1.198   5.384   6.604 -0.0951 -0.5799 -0.2974
 1138SOL     OW 4312   1.132   1.079   0.864 -0.7125  0.0405  0.2941
 1138SOL    HW1 4313   1.178   1.142   0.926  0.0011 -0.3206  0.1451
 1138SOL    HW2 4314   1.036   1.072   0.889 -0.4730  0.0218  1.2565
 1139SOL     OW 4315   2.517   5.056   1.134  0.4385 -0.3011  0.5997
 1139SOL    HW1 4316   2.583   4.997   1.089  0.0091 -1.1301  1.0452
 1139SOL    HW2 4317   2.433   5.005   1.154  0.2930  0.2682  1.5574
 1140SOL     OW 4318   3.717   1.572   3.093  0.2856 -1.2115 -0.0245
 1140SOL    HW1 4319   3.704   1.599   2.998 -0.7397 -0.4598  0.2996
 1140SOL    HW2 4320   3.631   1.584   3.142  0.6360 -2.1843  0.8602
 1141SOL     OW 4321   0.438   6.015   0.872 -0.0130 -0.4397  0.2493
 1141SOL    HW1 4322   0.372   6.057   0.810  0.0308 -1.9393 -0.8349
 1141SOL    HW2 4323   0.520   6.073   0.877 -0.7910  0.6810  0.4660
 1142SOL     OW 4324   5.186   0.999   4.313 -0.1336  0.3888  0.0109
 1142SOL    HW1 4325   5.124   0.943   4.368 -1.3538  0.2724 -1.4102
 1142SOL    HW2 4326   5.169   0.981   4.216  0.8585  1.7474 -0.4394
 1143SOL     OW 4327   1.557   3.010   4.092 -0.3271  0.0770  0.1957
 1143SOL    HW1 4328   1.549   3.045   3.999  3.5291  0.9105 -0.0146
 1143SOL    HW2 4329   1.590   3.083   4.153 -0.1347 -1.1280  1.5986
 1144SOL     OW 4330   5.285   5.421   1.295 -0.3409  0.5979  0.0358
 1144SOL    HW1 4331   5.247   5.444   1.205 -0.8482  1.5309  0.4773
 1144SOL    HW2 4332   5.382   5.395   1.285 -0.5707  0.0395 -0.8534
 1145SOL     OW 4333   5.885   3.589   0.867  0.7815 -0.3934 -0.6497
 1145SOL    HW1 4334   5.854   3.520   0.932  0.4112 -0.2359 -0.6543
 1145SOL    HW2 4335   5.923   3.545   0.786 -0.0576 -0.6041 -0.9434
 1146SOL     OW 4336   6.824   1.386   2.254  0.1166  0.5217  0.1202
 1146SOL    HW1 4337   6.854   1.456   2.189 -1.7020  0.9997 -0.2671
 1146SOL    HW2 4338   6.759   1.426   2.318  1.0167 -0.2214  1.5382
 1147SOL     OW 4339   2.760   5.973   1.957  0.0051 -0.0483  0.0586
 1147SOL    HW1 4340   2.667   5.965   1.991  0.2932 -0.7889  0.7069
 1147SOL    HW2 4341   2.767   6.052   1.896 -0.6362  1.0564  1.3582
 1148SOL     OW 4342   4.026   0.320   0.479 -0.1844 -0.4977 -0.2765
 1148SOL    HW1 4343   4.035   0.403   0.534 -1.0997  1.6463 -3.1912
 1148SOL    HW2 4344   4.116   0.275   0.472  0.5630  0.8307  0.4462
 1149SOL     OW 4345   4.873   4.127   3.506  0.0962  0.4500 -0.2298
 1149SOL    HW1 4346   4.959   4.075   3.498  1.4002  2.6912 -2.5074
 1149SOL    HW2 4347   4.883   4.215   3.458 -3.0319  1.4468  0.7034
 1150SOL     OW 4348   2.842   5.787   6.528 -0.0145  0.2085  0.0642
 1150SOL    HW1 4349   2.808   5.880   6.517  0.7820  0.4714 -0.2214
 1150SOL    HW2 4350   2.936   5.781   6.496  0.2858 -0.4608  1.0008
 1151SOL     OW 4351   4.669   3.626   0.411 -0.1270  0.0001  0.3775
 1151SOL    HW1 4352   4.643   3.694   0.479 -1.1861  0.9993 -0.9533
 1151SOL    HW2 4353   4.752   3.579   0.440  0.7370  1.9683  1.3079
 1152SOL     OW 4354   3.269   5.153   6.523 -0.1729  0.4192 -1.0568
 1152SOL    HW1 4355   3.365   5.175   6.502 -0.3350  0.8432 -1.3786
 1152SOL    HW2 4356   3.215   5.160   6.439 -0.4898  0.1867 -0.8728
 1153SOL     OW 4357   6.824   0.170   3.548 -0.4539  0.5867 -0.0544
 1153SOL    HW1 4358   6.751   0.230   3.516  2.1492  3.4472 -1.1644
 1153SOL    HW2 4359   6.820   0.163   3.648 -2.2418  0.5910 -0.0995
 1154SOL     OW 4360   1.566   3.955   3.110  0.0987 -0.1209 -0.4635
 1154SOL    HW1 4361   1.495   3.886   3.099 -1.9587  1.5995  1.2555
 1154SOL    HW2 4362   1.636   3.942   3.039 -1.0221 -2.8972 -1.1914
 1155SOL     OW 4363   3.726   3.860   0.157  0.0118 -0.0883  0.5374
 1155SOL    HW1 4364   3.770   3.822   0.238  0.8241  1.1097  0.6782
 1155SOL    HW2 4365   3.640   3.905   0.184  0.3479  0.4261  0.7622
 1156SOL     OW 4366   4.979   1.295   4.594 -0.1938  0.5168 -0.6338
 1156SOL    HW1 4367   4.935   1.211   4.626 -1.3184  0.8828 -1.1640
 1156SOL    HW2 4368   5.077   1.289   4.610 -0.4914 -0.0590  1.1724
 1157SOL     OW 4369   0.239   1.017   6.242  0.2208 -0.2274 -0.1839
 1157SOL    HW1 4370   0.217   1.009   6.145  1.9843  0.8264 -0.7136
 1157SOL    HW2 4371   0.192   1.097   6.280 -1.1056 -1.0944  0.0579
 1158SOL     OW 4372   2.167   4.690   4.111  0.2500  0.5851 -0.2557
 1158SOL    HW1 4373   2.223   4.615   4.148 -0.2419  0.9263  1.2704
 1158SOL    HW2 4374   2.146   4.672   4.015 -3.4214 -3.5224  0.9661
 1159SOL     OW 4375   6.522   0.386   5.986  0.1689  0.1694  0.0662
 1159SOL    HW1 4376   6.565   0.382   5.896  1.2502  1.0325  0.5213
 1159SOL    HW2 4377   6.424   0.407   5.976 -0.1449 -1.6249 -0.9740
 1160SOL     OW 4378   6.006   3.748   1.058  0.0551  0.0559  0.2209
 1160SOL    HW1 4379   5.961   3.690   0.989 -0.8778  0.6071  0.3560
 1160SOL    HW2 4380   6.049   3.690   1.127 -0.3684 -0.4851  0.0378
 1161SOL     OW 4381   5.837   4.710   0.314 -0.1275 -0.0102  0.0218
 1161SOL    HW1 4382   5.910   4.642   0.317 -0.7879 -0.6888  1.8879
 1161SOL    HW2 4383   5.877   4.802   0.312  0.8032 -0.3510  1.5591
 1162SOL     OW 4384   1.284   1.694   0.054  0.1929  0.0128  0.2879
 1162SOL    HW1 4385   1.333   1.672   0.139  0.7249 -0.3272 -0.1017
 1162SOL    HW2 4386   1.273   1.611  -0.001 -1.3895 -0.0506  0.6419
 1163SOL     OW 4387   4.861   5.160   4.513  0.2584  0.4013 -0.3882
 1163SOL    HW1 4388   4.825   5.174   4.606 -1.0407  0.9953 -0.9584
 1163SOL    HW2 4389   4.888   5.248   4.475  0.2018  0.2351 -0.8130
 1164SOL     OW 4390   3.795   6.826   2.670 -0.2563 -0.3838  0.4309
 1164SOL    HW1 4391   3.753   6.862   2.587  0.3569 -0.0010  0.2764
 1164SOL    HW2 4392   3.765   6.880   2.749 -0.1323 -0.1708  0.3338
 1165SOL     OW 4393   4.585   4.439   4.866  0.4869 -0.3030  0.4996
 1165SOL    HW1 4394   4.506   4.452   4.925  0.4803 -0.2483  0.4791
 1165SOL    HW2 4395   4.555   4.423   4.772  0.5166  1.4928  0.1462
 1166SOL     OW 4396   3.983   4.815   1.153  0.4640 -0.4448 -0.3527
 1166SOL    HW1 4397   3.955   4.724   1.185 -1.1666 -0.0305 -0.5149
 1166SOL    HW2 4398   3.903   4.876   1.151  1.6910  1.2719  0.6355
 1167SOL     OW 4399   3.508   0.656   0.879  0.3141 -0.5206 -0.8388
 1167SOL    HW1 4400   3.427   0.601   0.895 -1.8732  2.7851  0.4506
 1167SOL    HW2 4401   3.508   0.689   0.785 -0.7588  0.7090 -0.4378
 1168SOL     OW 4402   5.302   1.227   0.830  0.0525  0.4150  0.4958
 1168SOL    HW1 4403   5.302   1.275   0.918  0.4046 -0.6099  1.0653
 1168SOL    HW2 4404   5.395   1.201   0.806 -0.3000 -1.5235  1.0692
 1169SOL     OW 4405   6.420   2.577   6.580 -0.2223 -0.1375 -0.4438
 1169SOL    HW1 4406   6.419   2.628   6.494 -3.4308  1.8755  0.6029
 1169SOL    HW2 4407   6.495   2.609   6.637 -0.1581  1.0108 -1.1429
 1170SOL     OW 4408   0.074   0.671   2.657 -0.2231  0.2297 -0.1040
 1170SOL    HW1 4409  -0.015   0.625   2.664 -0.4411  0.4404 -1.1981
 1170SOL    HW2 4410   0.142   0.622   2.711 -0.7034 -0.7389 -0.3596
 1171SOL     OW 4411   2.789   5.536   6.257  0.1280  0.1197 -0.2417
 1171SOL    HW1 4412   2.738   5.502   6.336  0.7788  1.1300  0.6516
 1171SOL    HW2 4413   2.750   5.624   6.227  1.0026  0.6538  0.1344
 1172SOL     OW 4414   3.960   2.893   6.869  0.2267 -0.3588 -0.1874
 1172SOL    HW1 4415   3.939   2.819   6.805  1.3189  0.0556 -1.0560
 1172SOL    HW2 4416   3.959   2.980   6.821  0.5197  0.0227  0.4827
 1173SOL     OW 4417   3.256   1.691   0.368  0.0210 -0.6798 -0.2202
 1173SOL    HW1 4418   3.340   1.742   0.348  0.4750 -1.8154 -1.3088
 1173SOL    HW2 4419   3.200   1.686   0.285  0.0157 -2.0059 -0.1447
 1174SOL     OW 4420   1.447   6.078   2.095 -0.7498 -0.1747  0.3518
 1174SOL    HW1 4421   1.476   6.137   2.171 -2.4992  3.2320 -1.3873
 1174SOL    HW2 4422   1.524   6.063   2.033  0.5593 -2.5657  2.3420
 1175SOL     OW 4423   2.972   4.173   6.304 -0.5438 -0.2040  0.3590
 1175SOL    HW1 4424   2.914   4.230   6.362  0.2663 -0.6306  1.6248
 1175SOL    HW2 4425   2.924   4.089   6.281 -1.0185  0.1404  0.0881
 1176SOL     OW 4426   0.570   4.017   6.257  0.0210  0.8253 -0.0987
 1176SOL    HW1 4427   0.474   4.017   6.283 -0.7314  0.1148 -2.6631
 1176SOL    HW2 4428   0.591   3.934   6.206  1.9952  1.0355  0.2724
 1177SOL     OW 4429   6.917   3.981   5.577 -0.1468 -0.6068  0.1207
 1177SOL    HW1 4430   6.911   3.902   5.516  0.2749  0.1528 -0.9292
 1177SOL    HW2 4431   6.993   3.968   5.641  1.0474 -0.3038 -1.1860
 1178SOL     OW 4432   3.102   2.565   1.622  0.5589 -0.3790 -0.6693
 1178SOL    HW1 4433   3.103   2.662   1.596 -1.9617 -0.1059 -0.0236
 1178SOL    HW2 4434   3.056   2.555   1.711  0.6555 -2.1826 -0.7894
 1179SOL     OW 4435   3.274   0.615   6.910 -0.0198  0.3980 -0.1894
 1179SOL    HW1 4436   3.360   0.663   6.926 -0.8022  1.8308 -0.1312
 1179SOL    HW2 4437   3.224   0.605   6.996  1.0997 -2.5692  0.2346
 1180SOL     OW 4438   1.554   5.669   2.674  0.4457  0.1244 -0.4614
 1180SOL    HW1 4439   1.650   5.645   2.661 -0.5627 -3.2821 -3.1577
 1180SOL    HW2 4440   1.516   5.616   2.749  0.2689  0.1229 -0.5502
 1181SOL     OW 4441   6.969   6.682   3.718 -0.2660 -0.2221  0.0390
 1181SOL    HW1 4442   6.926   6.665   3.807  0.5969 -0.2454  0.4631
 1181SOL    HW2 4443   6.929   6.621   3.650 -0.0777 -1.0762  0.6749
 1182SOL     OW 4444   4.214   0.123   3.207 -0.0930  0.3517 -0.8919
 1182SOL    HW1 4445   4.179   0.119   3.114  0.0947 -0.0843 -0.9462
 1182SOL    HW2 4446   4.161   0.190   3.260 -0.9517 -0.2335 -0.9961
 1183SOL     OW 4447   2.818   5.578   1.519  0.0560 -0.0466 -0.4941
 1183SOL    HW1 4448   2.739   5.596   1.461  0.7807  1.9751 -0.9435
 1183SOL    HW2 4449   2.803   5.619   1.609 -0.1090 -1.1887  0.0199
 1184SOL     OW 4450   6.174   1.770   6.368  0.1210  0.1130  0.1066
 1184SOL    HW1 4451   6.197   1.755   6.464 -2.0159 -0.1474  0.6326
 1184SOL    HW2 4452   6.099   1.835   6.361 -0.9275 -1.1646 -1.2613
 1185SOL     OW 4453   6.980   7.007   1.565  0.9359  0.4854  0.0410
 1185SOL    HW1 4454   6.977   6.912   1.534  1.7992  0.6094 -0.4684
 1185SOL    HW2 4455   6.924   7.018   1.647 -2.7040  0.4351 -2.2197
 1186SOL     OW 4456   5.278   6.142   6.014  0.5639 -0.2257  0.3113
 1186SOL    HW1 4457   5.268   6.224   6.070  0.5972 -0.4029  0.5777
 1186SOL    HW2 4458   5.202   6.080   6.033  0.1340  0.0637 -0.4324
 1187SOL     OW 4459   5.954   1.242   5.698  0.0845 -0.0501  0.3164
 1187SOL    HW1 4460   5.970   1.145   5.715  0.0149  0.3990  3.7346
 1187SOL    HW2 4461   6.017   1.297   5.753 -1.4475  1.8125  0.3589
 1188SOL     OW 4462   2.733   6.088   5.058  0.5927 -0.1647 -0.4175
 1188SOL    HW1 4463   2.751   6.042   5.146 -0.5166 -1.7787 -0.9838
 1188SOL    HW2 4464   2.812   6.075   4.998  1.1110  0.4368  0.1084
 1189SOL     OW 4465   2.383   4.580   0.807  0.1815 -0.7301 -0.2807
 1189SOL    HW1 4466   2.324   4.534   0.741 -1.7531  0.9451  0.1705
 1189SOL    HW2 4467   2.349   4.563   0.899 -0.9643  1.9031 -0.1228
 1190SOL     OW 4468   3.999   5.609   3.962  0.6950  0.7179  0.2992
 1190SOL    HW1 4469   3.995   5.559   3.875 -2.8129  0.5442  0.4170
 1190SOL    HW2 4470   4.041   5.699   3.947  1.1841  0.2583 -1.2994
 1191SOL     OW 4471   3.511   5.209   5.067  0.0199 -0.4112  0.0693
 1191SOL    HW1 4472   3.509   5.188   5.165 -0.0476  0.7934  0.3312
 1191SOL    HW2 4473   3.553   5.298   5.053 -0.0982 -0.5197 -0.9959
 1192SOL     OW 4474   4.817   4.227   1.465 -0.1491 -0.5471 -0.1630
 1192SOL    HW1 4475   4.759   4.215   1.385  0.2546  2.5225 -1.0256
 1192SOL    HW2 4476   4.781   4.301   1.522  1.7539  0.0169  0.3703
 1193SOL     OW 4477   0.535   3.541   5.534  0.2305 -0.0157 -0.5972
 1193SOL    HW1 4478   0.460   3.543   5.600 -0.4417  0.8143 -1.3647
 1193SOL    HW2 4479   0.518   3.608   5.462  0.6426 -1.3161 -1.9589
 1194SOL     OW 4480   0.381   1.157   1.159 -0.3794 -0.6200 -0.5431
 1194SOL    HW1 4481   0.415   1.173   1.067 -2.4318  0.1208 -1.2195
 1194SOL    HW2 4482   0.406   1.234   1.218 -0.8416 -0.1129 -1.0075
 1195SOL     OW 4483   6.274   5.626   1.756 -0.0196  0.2626  0.8881
 1195SOL    HW1 4484   6.197   5.689   1.748 -0.3252 -0.1435  0.5856
 1195SOL    HW2 4485   6.359   5.674   1.734 -0.1092  0.8730  1.8139
 1196SOL     OW 4486   5.545   4.793   2.055 -0.2977  0.0104 -0.5765
 1196SOL    HW1 4487   5.635   4.758   2.079 -0.2863 -0.0678 -0.7320
 1196SOL    HW2 4488   5.536   4.796   1.956 -0.4414  0.0814 -0.5612
 1197SOL     OW 4489   6.366   6.070   6.582  0.4153 -0.2525  0.2870
 1197SOL    HW1 4490   6.333   5.995   6.525  1.1036 -0.0400 -0.4055
 1197SOL    HW2 4491   6.427   6.034   6.652  0.4750 -0.3831  0.1689
 1198SOL     OW 4492   1.602   2.478   3.233  0.4547  0.2434  0.3733
 1198SOL    HW1 4493   1.675   2.481   3.302 -1.8476 -1.1200  3.1183
 1198SOL    HW2 4494   1.613   2.397   3.176  1.6323  0.6430 -0.0016
 1199SOL     OW 4495   3.779   2.665   1.664 -0.0342  0.4223  1.0837
 1199SOL    HW1 4496   3.730   2.714   1.737 -1.7482 -0.3183  0.4703
 1199SOL    HW2 4497   3.759   2.568   1.670 -0.4134  0.3788 -0.5138
 1200SOL     OW 4498   3.181   3.682   3.838  0.1458  0.1844  0.5652
 1200SOL    HW1 4499   3.209   3.726   3.753 -0.0418 -0.0561  0.3757
 1200SOL    HW2 4500   3.209   3.738   3.916 -1.0828  1.2232  0.2954
 1201SOL     OW 4501   1.282   6.884   5.267  0.0923 -0.4677 -0.1148
 1201SOL    HW1 4502   1.297   6.815   5.338 -0.0747 -1.5524 -1.1042
 1201SOL    HW2 4503   1.333   6.860   5.185 -0.5916  0.1677 -0.7474
 1202SOL     OW 4504   6.473   5.357   3.851 -0.2651 -1.0059  0.6750
 1202SOL    HW1 4505   6.495   5.270   3.806  1.0677  0.0857 -0.9489
 1202SOL    HW2 4506   6.558   5.407   3.868 -1.0962  1.3486 -1.4351
 1203SOL     OW 4507   1.272   6.210   0.143 -0.0755 -0.6441 -0.7250
 1203SOL    HW1 4508   1.257   6.111   0.142 -0.8348 -0.5346 -0.8653
 1203SOL    HW2 4509   1.244   6.246   0.232 -0.3304 -0.4743 -0.8766
 1204SOL     OW 4510   3.793   1.170   3.693 -0.0743 -0.3365  0.0253
 1204SOL    HW1 4511   3.837   1.205   3.610 -1.5758  0.3932 -0.4984
 1204SOL    HW2 4512   3.711   1.119   3.669  0.2015 -1.2742  1.0062
 1205SOL     OW 4513   3.066   4.297   1.719  0.2987  0.8612 -0.0266
 1205SOL    HW1 4514   3.030   4.212   1.758  2.2683  0.7726  1.8547
 1205SOL    HW2 4515   3.014   4.375   1.754  0.6661  0.6185  1.1184
 1206SOL     OW 4516   2.221   3.219   6.480  0.1442  0.0900  0.0224
 1206SOL    HW1 4517   2.278   3.158   6.535  0.4990 -0.5135 -0.9954
 1206SOL    HW2 4518   2.128   3.183   6.477 -0.8931  2.0704  3.2943
 1207SOL     OW 4519   0.604   0.740   0.624  0.1778 -0.0498 -0.1282
 1207SOL    HW1 4520   0.515   0.745   0.669 -1.2010  4.4269 -2.8125
 1207SOL    HW2 4521   0.674   0.775   0.686 -0.4226 -0.5263  0.8602
 1208SOL     OW 4522   4.773   3.108   1.685 -0.4188 -0.4443 -0.3690
 1208SOL    HW1 4523   4.738   3.067   1.769  0.6482 -0.5746  0.0258
 1208SOL    HW2 4524   4.716   3.079   1.608 -1.2571 -0.5305  0.2617
 1209SOL     OW 4525   5.076   6.550   3.992  0.1306  0.2221  0.0547
 1209SOL    HW1 4526   5.036   6.515   4.077  2.1406 -1.5044  0.3935
 1209SOL    HW2 4527   5.170   6.580   4.010  0.9350 -1.0626 -1.6789
 1210SOL     OW 4528   3.729   2.099   4.252 -0.7963 -0.1968 -0.3029
 1210SOL    HW1 4529   3.644   2.097   4.305  0.6105  2.5295  2.3574
 1210SOL    HW2 4530   3.805   2.075   4.312  0.6526  0.6664 -1.7345
 1211SOL     OW 4531   6.114   4.984   2.006  0.1517 -0.0560  0.3750
 1211SOL    HW1 4532   6.081   4.890   2.018 -2.9529  0.3387 -3.2507
 1211SOL    HW2 4533   6.188   4.985   1.939 -1.8295  0.1854 -1.9473
 1212SOL     OW 4534   5.321   2.388   0.351  0.3787 -0.1197  0.2433
 1212SOL    HW1 4535   5.319   2.462   0.284  1.0002 -0.1250  0.2180
 1212SOL    HW2 4536   5.263   2.413   0.429 -2.3170 -1.0970 -1.2842
 1213SOL     OW 4537   6.690   4.959   2.456 -0.2483 -0.6608  0.6682
 1213SOL    HW1 4538   6.614   5.009   2.500 -0.0738 -0.3846  0.6600
 1213SOL    HW2 4539   6.660   4.923   2.368  0.0957  0.8507 -0.1008
 1214SOL     OW 4540   3.369   3.642   0.198 -0.6895  0.7513  0.0793
 1214SOL    HW1 4541   3.389   3.697   0.117 -0.5945  0.8164  0.1469
 1214SOL    HW2 4542   3.354   3.702   0.276 -1.7526  0.7354 -0.0972
 1215SOL     OW 4543   0.324   3.157   3.151  0.4823 -0.4063 -0.3523
 1215SOL    HW1 4544   0.363   3.096   3.220 -1.0896  2.3304  3.2583
 1215SOL    HW2 4545   0.397   3.211   3.110  1.2378 -0.3624  0.9904
 1216SOL     OW 4546   6.050   5.829   6.857 -0.2502 -0.2881  0.6583
 1216SOL    HW1 4547   6.074   5.908   6.914  1.1616 -1.7085  2.1318
 1216SOL    HW2 4548   6.133   5.787   6.820 -0.8661 -1.7280  0.8228
 1217SOL     OW 4549   1.573   4.329   1.375  0.0996 -0.9831  0.0455
 1217SOL    HW1 4550   1.594   4.397   1.445 -0.5253 -0.0278 -0.6684
 1217SOL    HW2 4551   1.647   4.328   1.307 -0.2850 -0.3971 -0.3932
 1218SOL     OW 4552   6.327   4.064   4.370 -0.1678  0.2491  0.4385
 1218SOL    HW1 4553   6.425   4.086   4.365 -0.5663  2.1859  0.1369
 1218SOL    HW2 4554   6.310   4.006   4.449  1.3637 -1.0454 -0.1281
 1219SOL     OW 4555   4.802   5.324   1.482  0.9356  0.4587  0.2107
 1219SOL    HW1 4556   4.841   5.341   1.392  0.8581 -0.4834 -0.0075
 1219SOL    HW2 4557   4.703   5.322   1.477  0.9477 -0.5374  0.1267
 1220SOL     OW 4558   1.261   5.744   4.051 -0.0728 -0.1310  0.4823
 1220SOL    HW1 4559   1.239   5.749   4.149  1.3434 -0.5213  0.8408
 1220SOL    HW2 4560   1.315   5.662   4.033 -0.6134 -0.2404 -0.7001
 1221SOL     OW 4561   3.281   4.939   1.917 -0.2137 -0.8225  0.3081
 1221SOL    HW1 4562   3.191   4.927   1.959  0.2082 -1.1142  1.1735
 1221SOL    HW2 4563   3.352   4.917   1.985  0.5495  1.4770  0.3500
 1222SOL     OW 4564   6.105   0.637   6.252 -0.1938 -0.2131  0.1915
 1222SOL    HW1 4565   6.083   0.546   6.285  0.8030  0.2410  2.2578
 1222SOL    HW2 4566   6.173   0.679   6.312  1.2905  0.9465 -2.1271
 1223SOL     OW 4567   3.061   1.465   1.491 -0.0025  0.0284  0.2598
 1223SOL    HW1 4568   3.028   1.441   1.400  0.7581 -0.4985  0.1039
 1223SOL    HW2 4569   2.999   1.529   1.534 -0.7885 -0.3260 -0.3243
 1224SOL     OW 4570   4.000   3.747   6.877 -0.3940  0.7857  0.0384
 1224SOL    HW1 4571   3.977   3.834   6.921 -0.1992 -0.2408  2.3141
 1224SOL    HW2 4572   3.979   3.672   6.939 -0.2852 -0.8020 -1.7611
 1225SOL     OW 4573   3.626   3.544   6.633 -0.4370  0.1670  0.2592
 1225SOL    HW1 4574   3.649   3.621   6.692 -0.3171 -0.3175  0.8553
 1225SOL    HW2 4575   3.526   3.534   6.628 -0.4260 -0.3849  1.1580
 1226SOL     OW 4576   1.049   6.495   0.149 -0.2858 -1.4168 -0.7004
 1226SOL    HW1 4577   1.010   6.457   0.066 -0.2101  0.7057 -1.7669
 1226SOL    HW2 4578   1.057   6.423   0.218  1.6574 -3.7928 -3.1906
 1227SOL     OW 4579   5.941   3.864   5.494 -0.0311 -0.5794 -0.2632
 1227SOL    HW1 4580   5.874   3.848   5.421 -0.7475 -0.5213  0.3722
 1227SOL    HW2 4581   6.026   3.816   5.472 -0.1638 -0.3972 -1.2319
 1228SOL     OW 4582   3.440   3.377   1.167  0.2003 -0.0162  0.1826
 1228SOL    HW1 4583   3.455   3.299   1.107 -1.0760  0.0721 -0.2849
 1228SOL    HW2 4584   3.496   3.368   1.250  1.9504 -0.1713 -0.9636
 1229SOL     OW 4585   3.490   5.882   5.926  0.5720  0.0332 -0.0572
 1229SOL    HW1 4586   3.522   5.962   5.975 -0.2063  0.6188 -0.4743
 1229SOL    HW2 4587   3.390   5.877   5.933  0.5779 -0.6607 -0.3886
 1230SOL     OW 4588   4.575   0.999   3.581  0.3175  0.1085  0.2495
 1230SOL    HW1 4589   4.551   1.020   3.486  0.9578 -1.0303 -0.1689
 1230SOL    HW2 4590   4.603   1.084   3.627 -1.3869  0.9325 -0.1422
 1231SOL     OW 4591   2.258   2.478   5.563  0.1534  0.4279 -0.0859
 1231SOL    HW1 4592   2.297   2.570   5.573 -0.8125  0.8601 -0.2103
 1231SOL    HW2 4593   2.294   2.436   5.479  0.0041  0.9924 -0.4340
 1232SOL     OW 4594   6.795   2.875   5.979  0.0248 -0.6087  0.2260
 1232SOL    HW1 4595   6.765   2.827   6.062 -0.1714  1.3766  1.3743
 1232SOL    HW2 4596   6.716   2.916   5.934  0.4429  0.6856  0.6430
 1233SOL     OW 4597   6.947   3.869   5.088  0.3921 -0.9833  0.3811
 1233SOL    HW1 4598   7.041   3.900   5.077 -0.6194  1.5230 -2.3376
 1233SOL    HW2 4599   6.937   3.776   5.051  1.9306 -1.7439  1.7301
 1234SOL     OW 4600   6.695   5.423   6.602  0.2665 -0.3953 -0.0206
 1234SOL    HW1 4601   6.725   5.516   6.579 -0.5041  0.3712  1.8929
 1234SOL    HW2 4602   6.774   5.367   6.626  0.5294  0.4703  1.1578
 1235SOL     OW 4603   4.585   4.368   2.156  0.1692  0.5629  0.8205
 1235SOL    HW1 4604   4.531   4.334   2.079 -0.6213  0.4334  1.4188
 1235SOL    HW2 4605   4.666   4.415   2.122 -0.2431  0.6276 -0.0921
 1236SOL     OW 4606   4.593   1.000   0.290  0.3600 -0.1720  0.2109
 1236SOL    HW1 4607   4.612   1.068   0.361  1.3700 -0.9833  0.7394
 1236SOL    HW2 4608   4.599   1.044   0.200 -2.0457  1.1333  0.6041
 1237SOL     OW 4609   2.909   5.120   1.128  0.2531 -0.7546  1.0254
 1237SOL    HW1 4610   2.841   5.155   1.192 -0.4611  0.5682 -0.3811
 1237SOL    HW2 4611   2.872   5.039   1.081 -0.4211  0.0027  0.2110
 1238SOL     OW 4612   2.297   0.798   1.075 -0.2297 -0.6761  0.3599
 1238SOL    HW1 4613   2.307   0.859   1.154 -1.3401 -0.4927  0.3676
 1238SOL    HW2 4614   2.204   0.802   1.040  0.7030  0.7880 -2.2543
 1239SOL     OW 4615   6.239   6.840   6.587 -0.7691  0.4848  0.3747
 1239SOL    HW1 4616   6.246   6.780   6.667 -1.1618 -1.8602 -1.2435
 1239SOL    HW2 4617   6.306   6.913   6.594  0.7122 -0.9257  1.8173
 1240SOL     OW 4618   0.112   6.604   2.639  0.1577  0.4912  0.5138
 1240SOL    HW1 4619   0.168   6.680   2.606 -0.9554  1.3443  0.5186
 1240SOL    HW2 4620   0.075   6.627   2.729 -0.8545  0.3159  0.1617
 1241SOL     OW 4621   4.522   4.469   4.602  0.1084  0.0478  0.2549
 1241SOL    HW1 4622   4.544   4.442   4.508 -1.7623 -1.4632  0.1986
 1241SOL    HW2 4623   4.541   4.567   4.613  0.2479  0.2974 -1.7140
 1242SOL     OW 4624   0.220   3.166   3.562 -0.7948 -0.2251  0.0613
 1242SOL    HW1 4625   0.280   3.091   3.533  1.2163  0.5216  2.0426
 1242SOL    HW2 4626   0.268   3.253   3.552 -0.7600  0.2533  3.4621
 1243SOL     OW 4627   1.065   0.694   3.594 -0.2644 -0.1034  0.0270
 1243SOL    HW1 4628   1.155   0.725   3.623  0.9023 -2.6431 -0.5444
 1243SOL    HW2 4629   0.998   0.711   3.667  0.2545  3.2018 -0.1267
 1244SOL     OW 4630   0.588   5.841   2.898 -0.6356 -0.3251 -0.3774
 1244SOL    HW1 4631   0.558   5.910   2.832 -0.3177 -0.9321 -1.1627
 1244SOL    HW2 4632   0.631   5.765   2.850  0.2874 -0.4299  0.5801
 1245SOL     OW 4633   6.238   5.101   6.904  0.8738 -0.5330  0.2113
 1245SOL    HW1 4634   6.229   5.004   6.880 -1.3932 -0.3534  0.0976
 1245SOL    HW2 4635   6.297   5.146   6.836  2.5029 -1.9068  0.6292
 1246SOL     OW 4636   0.763   0.434   2.480 -0.0294 -0.5160 -0.6911
 1246SOL    HW1 4637   0.782   0.342   2.445  0.2547 -0.1600 -1.4907
 1246SOL    HW2 4638   0.793   0.440   2.575  0.6130 -1.0379 -0.8527
 1247SOL     OW 4639   2.277   0.596   4.340 -0.2856  0.2725 -0.2972
 1247SOL    HW1 4640   2.185   0.634   4.336 -1.1934 -1.7266  0.2301
 1247SOL    HW2 4641   2.290   0.548   4.426  1.5433  1.1360 -0.0393
 1248SOL     OW 4642   2.149   0.108   5.389  0.0972 -0.0967 -0.0166
 1248SOL    HW1 4643   2.101   0.195   5.397 -0.8596 -0.3071 -2.5408
 1248SOL    HW2 4644   2.226   0.118   5.326  0.2505 -0.9787  0.0169
 1249SOL     OW 4645   6.383   1.794   3.461 -0.5002  0.5269  0.1021
 1249SOL    HW1 4646   6.438   1.872   3.492  1.3851  0.7827 -3.3445
 1249SOL    HW2 4647   6.440   1.713   3.455 -1.2673  0.0274 -0.6809
 1250SOL     OW 4648   5.420   5.015   6.004 -0.3481 -0.6701 -0.7385
 1250SOL    HW1 4649   5.382   5.085   5.944 -0.1885 -0.7991 -0.9873
 1250SOL    HW2 4650   5.516   5.000   5.982 -0.3287 -0.8262 -0.5533
 1251SOL     OW 4651   2.740   1.705   4.682 -0.4263  0.0128 -0.2565
 1251SOL    HW1 4652   2.670   1.754   4.734  0.7338  1.7750 -0.2724
 1251SOL    HW2 4653   2.810   1.671   4.745 -0.5065 -0.4080 -0.3919
 1252SOL     OW 4654   3.492   3.300   5.291 -0.2830 -0.1438 -0.0202
 1252SOL    HW1 4655   3.398   3.311   5.258  0.5661  0.1710 -2.5073
 1252SOL    HW2 4656   3.553   3.280   5.214  2.0819  1.9785  1.1366
 1253SOL     OW 4657   3.112   5.164   2.902 -0.4155  0.1183  0.5178
 1253SOL    HW1 4658   3.112   5.064   2.890  0.5460  0.4177 -2.6879
 1253SOL    HW2 4659   3.206   5.198   2.898 -0.8784  1.3414 -0.4194
 1254SOL     OW 4660   0.614   0.804   2.406 -0.5311  0.3874  0.1853
 1254SOL    HW1 4661   0.630   0.723   2.461 -2.5685  0.7092  1.3186
 1254SOL    HW2 4662   0.627   0.886   2.462  0.7222  0.8582 -0.7376
 1255SOL     OW 4663   5.946   2.129   5.090 -0.3489 -0.0992  0.4299
 1255SOL    HW1 4664   5.993   2.168   5.169  0.3334 -1.3521  0.6770
 1255SOL    HW2 4665   5.928   2.032   5.107 -1.7083  0.0008 -0.2791
 1256SOL     OW 4666   6.011   5.221   2.381 -0.2609  0.2266  0.5047
 1256SOL    HW1 4667   6.101   5.230   2.340 -0.2637 -0.9282  0.2129
 1256SOL    HW2 4668   6.019   5.222   2.481 -0.0283  0.9342  0.4853
 1257SOL     OW 4669   6.722   5.095   4.030 -0.8614 -0.2295  0.1814
 1257SOL    HW1 4670   6.660   5.093   4.109  0.7796 -2.1255  1.4974
 1257SOL    HW2 4671   6.684   5.038   3.957 -0.9778 -0.8899  0.7467
 1258SOL     OW 4672   1.542   4.994   4.736  0.1972  0.0848  0.2523
 1258SOL    HW1 4673   1.626   4.939   4.733  0.0132 -0.1740 -0.1527
 1258SOL    HW2 4674   1.509   5.008   4.643  0.4723  1.2344  0.3194
 1259SOL     OW 4675   5.146   0.792   4.575  0.1695 -0.0722 -0.6945
 1259SOL    HW1 4676   5.175   0.834   4.661 -0.9024  1.5887 -1.0912
 1259SOL    HW2 4677   5.211   0.721   4.549  3.7166  3.0929 -1.3456
 1260SOL     OW 4678   0.378   2.688   2.566  0.1412 -0.2934 -1.0061
 1260SOL    HW1 4679   0.330   2.744   2.499 -0.3342  0.7967  0.1987
 1260SOL    HW2 4680   0.312   2.644   2.627  0.5563 -1.4282 -1.3296
 1261SOL     OW 4681   1.400   4.664   4.076  0.4552 -0.0825 -0.3941
 1261SOL    HW1 4682   1.491   4.624   4.082  0.9686  1.1406  0.2622
 1261SOL    HW2 4683   1.373   4.700   4.166 -1.1721 -1.4487 -0.2757
 1262SOL     OW 4684   4.199   4.140   1.585 -0.0198 -0.0802  0.1554
 1262SOL    HW1 4685   4.221   4.144   1.683  0.5680  1.5579 -0.0167
 1262SOL    HW2 4686   4.187   4.233   1.550 -2.4562 -0.7161 -0.8623
 1263SOL     OW 4687   6.326   1.047   2.912 -0.2894 -0.3474 -0.4814
 1263SOL    HW1 4688   6.356   1.108   2.839 -0.8235 -0.8022 -1.0928
 1263SOL    HW2 4689   6.335   0.952   2.882 -1.8963 -0.5150 -0.5233
 1264SOL     OW 4690   6.357   6.344   0.021  0.7718 -0.3578  0.0081
 1264SOL    HW1 4691   6.346   6.434  -0.020 -0.4412 -1.0910 -1.3520
 1264SOL    HW2 4692   6.389   6.354   0.115 -0.4209  1.5372  0.2585
 1265SOL     OW 4693   5.043   4.319   6.074 -0.2584  1.1233 -0.1883
 1265SOL    HW1 4694   5.060   4.361   5.985 -1.5805 -0.4864 -1.2702
 1265SOL    HW2 4695   5.129   4.287   6.113  0.4216  2.4268 -0.5583
 1266SOL     OW 4696   0.871   6.806   4.219  0.3218 -0.1837 -0.3552
 1266SOL    HW1 4697   0.894   6.717   4.258 -0.7912 -0.4405 -0.2459
 1266SOL    HW2 4698   0.927   6.877   4.262  0.0359 -0.6231  0.7816
 1267SOL     OW 4699   4.847   0.699   1.321 -0.4823 -0.0121 -0.1936
 1267SOL    HW1 4700   4.889   0.686   1.411  0.0357  0.0443 -0.4282
 1267SOL    HW2 4701   4.794   0.617   1.298 -1.6049  0.4286  0.6789
 1268SOL     OW 4702   0.665   1.797   0.326  0.1219  0.2781 -0.2950
 1268SOL    HW1 4703   0.620   1.849   0.254 -1.8973 -0.8353  0.0757
 1268SOL    HW2 4704   0.738   1.741   0.287  0.4939  1.2989 -1.0970
 1269SOL     OW 4705   6.376   5.138   2.848 -0.1173 -0.0844 -0.4570
 1269SOL    HW1 4706   6.299   5.194   2.820  0.0291 -0.2141 -1.1487
 1269SOL    HW2 4707   6.415   5.093   2.767  0.3057 -0.4894 -0.0332
 1270SOL     OW 4708   1.105   3.581   4.424 -0.5968 -0.2501  0.3124
 1270SOL    HW1 4709   1.008   3.598   4.436 -0.9834 -1.3197 -1.0756
 1270SOL    HW2 4710   1.118   3.498   4.370  1.0998 -0.5094  1.0567
 1271SOL     OW 4711   2.776   2.111   0.855 -0.5056 -0.2958 -0.2176
 1271SOL    HW1 4712   2.830   2.064   0.784  2.5565  1.7933  0.5171
 1271SOL    HW2 4713   2.780   2.059   0.940  1.5682  0.4039  0.1737
 1272SOL     OW 4714   6.440   3.417   6.962  0.1163  0.4888 -0.3388
 1272SOL    HW1 4715   6.349   3.454   6.945  0.0908  0.9058  0.6776
 1272SOL    HW2 4716   6.507   3.491   6.969  0.0585  0.3951  1.7362
 1273SOL     OW 4717   2.620   3.372   0.444  0.1541  0.2258  0.4758
 1273SOL    HW1 4718   2.688   3.355   0.515 -0.8562  0.7497  1.5937
 1273SOL    HW2 4719   2.624   3.468   0.417  0.1266  0.1655  0.2580
 1274SOL     OW 4720   0.119   3.189   0.861  0.0089  0.5014 -0.0713
 1274SOL    HW1 4721   0.207   3.155   0.829  0.0145 -0.1848  0.6402
 1274SOL    HW2 4722   0.120   3.197   0.961 -0.3785  1.5208 -0.1359
 1275SOL     OW 4723   5.191   2.072   5.808 -0.0604  0.1862 -0.0520
 1275SOL    HW1 4724   5.283   2.093   5.842  0.1566 -3.7492  2.3264
 1275SOL    HW2 4725   5.123   2.094   5.878 -0.8855  1.7745 -1.2752
 1276SOL     OW 4726   6.278   6.858   2.857  0.3136  0.1408 -0.3194
 1276SOL    HW1 4727   6.230   6.771   2.864  0.7017  0.0390  1.5599
 1276SOL    HW2 4728   6.340   6.868   2.935  0.9484  1.7058 -0.9893
 1277SOL     OW 4729   1.164   4.839   6.157  0.0138  0.6991  0.1255
 1277SOL    HW1 4730   1.249   4.820   6.205  0.6756 -2.2620 -1.9147
 1277SOL    HW2 4731   1.181   4.905   6.084  0.2917  0.9570  0.4209
 1278SOL     OW 4732   0.501   6.443   4.828 -0.4185 -0.0491  0.0480
 1278SOL    HW1 4733   0.583   6.391   4.805 -0.9442 -0.6233 -0.6016
 1278SOL    HW2 4734   0.421   6.382   4.822 -0.7520  0.1309  2.0576
 1279SOL     OW 4735   1.276   5.278   0.515 -0.0873  0.1969 -0.0039
 1279SOL    HW1 4736   1.362   5.322   0.539  0.4114  0.0774 -1.5046
 1279SOL    HW2 4737   1.294   5.194   0.465 -1.0742 -0.3024  0.4494
 1280SOL     OW 4738   5.403   0.138   5.851 -0.4002 -0.1849 -0.2792
 1280SOL    HW1 4739   5.338   0.212   5.839 -1.4524 -1.1746 -0.8697
 1280SOL    HW2 4740   5.465   0.159   5.927 -0.4005  1.4615 -0.7023
 1281SOL     OW 4741   3.491   6.801   3.408 -0.0388  0.5277  0.4170
 1281SOL    HW1 4742   3.416   6.766   3.353 -0.3369  2.9811 -0.9122
 1281SOL    HW2 4743   3.573   6.744   3.396 -0.9011 -0.5851 -0.2875
 1282SOL     OW 4744   6.590   0.253   1.552 -0.2777 -0.5924  0.2159
 1282SOL    HW1 4745   6.670   0.263   1.493  0.5557 -0.6502  1.3087
 1282SOL    HW2 4746   6.556   0.159   1.546 -0.4789 -0.4815 -0.5011
 1283SOL     OW 4747   6.183   4.971   5.879  0.2301  0.0896 -0.0377
 1283SOL    HW1 4748   6.253   5.025   5.831 -2.0279  1.0246 -2.5459
 1283SOL    HW2 4749   6.210   4.875   5.880  0.9373  0.2055 -2.2764
 1284SOL     OW 4750   5.418   1.807   1.528 -0.1602  0.1478 -0.0764
 1284SOL    HW1 4751   5.448   1.712   1.530  0.4691  0.3240 -0.7983
 1284SOL    HW2 4752   5.464   1.855   1.454 -0.6101  0.9741  0.1672
 1285SOL     OW 4753   2.995   0.994   5.892 -0.0887 -0.4792  0.8968
 1285SOL    HW1 4754   2.958   0.983   5.985 -0.6566  4.1453  1.4389
 1285SOL    HW2 4755   2.924   0.975   5.825 -1.0352  0.4380  1.6174
 1286SOL     OW 4756   4.002   2.588   0.748  0.3453  0.4167 -0.1474
 1286SOL    HW1 4757   4.018   2.667   0.806 -0.0916 -0.2991  0.9951
 1286SOL    HW2 4758   3.922   2.604   0.690  0.6901  1.0774 -0.4432
 1287SOL     OW 4759   4.768   4.487   6.398  0.4325 -0.5741  0.1958
 1287SOL    HW1 4760   4.761   4.411   6.333 -0.5566 -0.1247 -0.2536
 1287SOL    HW2 4761   4.813   4.565   6.353  0.6998 -0.6099  0.3948
 1288SOL     OW 4762   3.645   3.184   6.013  0.2677  0.3762  0.3698
 1288SOL    HW1 4763   3.741   3.170   5.990 -0.4145 -0.4763 -2.3208
 1288SOL    HW2 4764   3.605   3.098   6.044  0.4524  0.8511  2.0184
 1289SOL     OW 4765   0.419   6.281   1.389 -0.1572 -0.5069 -0.9052
 1289SOL    HW1 4766   0.442   6.373   1.357 -0.9725 -0.0165 -0.1298
 1289SOL    HW2 4767   0.501   6.235   1.423  0.3450 -0.2696 -1.7780
 1290SOL     OW 4768   0.533   1.255   1.815 -0.0541 -0.1214 -0.2931
 1290SOL    HW1 4769   0.506   1.167   1.855  0.5691 -0.2371 -0.1184
 1290SOL    HW2 4770   0.619   1.244   1.765  0.5335  0.5956  0.5272
 1291SOL     OW 4771   6.740   5.288   1.635  0.5061 -0.0463  0.3697
 1291SOL    HW1 4772   6.839   5.286   1.648  0.4504 -0.3886  0.7760
 1291SOL    HW2 4773   6.717   5.359   1.569  1.0993 -0.5785 -0.4418
 1292SOL     OW 4774   0.703   6.533   2.369 -0.2655 -0.0658 -0.1584
 1292SOL    HW1 4775   0.759   6.493   2.297  0.0431 -0.0284  0.0602
 1292SOL    HW2 4776   0.669   6.622   2.338  0.0144  0.0324 -0.1937
 1293SOL     OW 4777   1.720   0.640   1.888  0.7368 -0.2879 -0.4921
 1293SOL    HW1 4778   1.657   0.598   1.823 -1.6461  2.5175 -0.1925
 1293SOL    HW2 4779   1.706   0.601   1.978  0.4606 -0.7014 -0.7101
 1294SOL     OW 4780   6.809   5.660   5.580  0.2267  0.2005 -0.0344
 1294SOL    HW1 4781   6.816   5.608   5.665  0.6286  0.6772  0.2242
 1294SOL    HW2 4782   6.871   5.738   5.583 -2.0165  2.0587  0.5287
 1295SOL     OW 4783   0.249   2.865   2.405 -0.6692  0.6630 -0.9081
 1295SOL    HW1 4784   0.322   2.933   2.413  1.1504 -1.3163  0.9272
 1295SOL    HW2 4785   0.173   2.891   2.464  2.0061 -0.9526  3.9105
 1296SOL     OW 4786   2.040   5.853   5.664  0.3849 -0.0429  0.5720
 1296SOL    HW1 4787   2.095   5.770   5.653 -0.2566 -0.3986 -0.0224
 1296SOL    HW2 4788   2.015   5.889   5.574  1.9916  1.7277  0.7573
 1297SOL     OW 4789   0.512   0.389   3.147 -0.2288  0.0421  0.3567
 1297SOL    HW1 4790   0.529   0.324   3.221 -1.3702 -0.9974 -0.2600
 1297SOL    HW2 4791   0.451   0.348   3.080  2.3379  0.1687 -2.2582
 1298SOL     OW 4792   4.844   6.902   3.926  0.0652  0.5981 -0.1398
 1298SOL    HW1 4793   4.897   6.911   4.010  0.5495 -0.7216 -0.2822
 1298SOL    HW2 4794   4.795   6.988   3.908  1.3698  1.5099  0.5177
 1299SOL     OW 4795   1.604   3.252   4.776 -0.1629  0.2187 -0.1791
 1299SOL    HW1 4796   1.567   3.163   4.804 -3.3147  0.4517 -2.9917
 1299SOL    HW2 4797   1.648   3.242   4.687  2.4755  0.9592  0.9488
 1300SOL     OW 4798   1.041   2.998   4.997  0.5217  0.0737 -0.3114
 1300SOL    HW1 4799   1.061   2.966   5.090 -0.6869  0.8019  0.2191
 1300SOL    HW2 4800   1.100   2.950   4.932  0.1247 -1.8142  0.6416
 1301SOL     OW 4801   5.706   0.154   2.371 -0.2321 -0.3879  0.3253
 1301SOL    HW1 4802   5.738   0.141   2.277  2.4681 -1.3517  1.2568
 1301SOL    HW2 4803   5.732   0.245   2.404 -0.4979 -0.3298  0.3775
 1302SOL     OW 4804   4.372   6.238   4.358 -0.1783  0.0651  0.3617
 1302SOL    HW1 4805   4.450   6.192   4.316  0.7740  0.0407  2.0372
 1302SOL    HW2 4806   4.405   6.308   4.422 -1.5372  0.0968  1.0678
 1303SOL     OW 4807   5.170   2.079   0.826 -0.4611 -0.2051 -0.1174
 1303SOL    HW1 4808   5.244   2.047   0.885 -0.4168 -0.5966 -0.3764
 1303SOL    HW2 4809   5.191   2.055   0.731  0.5885  2.4520 -0.6335
 1304SOL     OW 4810   1.897   6.395   5.863  0.1682 -0.7564 -0.2154
 1304SOL    HW1 4811   1.888   6.383   5.764  1.5415  0.4999 -0.5382
 1304SOL    HW2 4812   1.982   6.352   5.894  0.3127 -0.1855  0.2037
 1305SOL     OW 4813   6.125   1.500   0.522  0.3946  0.3409  0.1811
 1305SOL    HW1 4814   6.076   1.419   0.553  0.5503 -0.0381 -0.5385
 1305SOL    HW2 4815   6.213   1.507   0.569  1.4778 -1.2732 -1.4751
 1306SOL     OW 4816   1.319   5.986   3.944 -0.0491 -0.2747  0.2955
 1306SOL    HW1 4817   1.388   6.031   4.001  0.7229 -1.4134  0.2822
 1306SOL    HW2 4818   1.318   5.888   3.963 -1.2223 -0.3746 -0.1783
 1307SOL     OW 4819   1.558   5.920   4.890 -0.2693 -0.2250  0.2659
 1307SOL    HW1 4820   1.531   5.828   4.919 -0.2695 -0.4763 -0.5046
 1307SOL    HW2 4821   1.616   5.962   4.960  2.2344 -1.9682 -0.6061
 1308SOL     OW 4822   6.438   6.487   6.279  0.0903 -0.8754 -0.2209
 1308SOL    HW1 4823   6.456   6.584   6.299  1.2795 -1.6053  2.7660
 1308SOL    HW2 4824   6.340   6.470   6.284 -0.0354 -0.0277  0.4441
 1309SOL     OW 4825   7.004   5.278   5.433 -0.2319 -0.2183 -0.0752
 1309SOL    HW1 4826   6.999   5.208   5.505 -0.9230  1.3856  1.5188
 1309SOL    HW2 4827   7.059   5.355   5.465  0.5715 -0.0315 -1.8196
 1310SOL     OW 4828   6.209   3.704   2.860 -0.1461  0.0683 -0.6559
 1310SOL    HW1 4829   6.289   3.647   2.845  0.9647  1.6519 -1.0291
 1310SOL    HW2 4830   6.149   3.662   2.927  0.0319 -2.0887 -1.7825
 1311SOL     OW 4831   6.625   5.002   6.628  0.4911  0.2218 -0.5155
 1311SOL    HW1 4832   6.599   5.001   6.531 -0.7351  1.0372 -0.2218
 1311SOL    HW2 4833   6.719   4.969   6.638  1.5321  2.4106 -2.2642
 1312SOL     OW 4834   2.952   3.602   0.774 -0.2630  0.0854 -0.0781
 1312SOL    HW1 4835   3.002   3.517   0.752 -0.3934  0.1165 -0.4977
 1312SOL    HW2 4836   2.861   3.598   0.734 -1.2693 -0.7235  2.1291
 1313SOL     OW 4837   1.908   4.820   2.400 -0.2590 -0.1867 -0.3057
 1313SOL    HW1 4838   1.828   4.762   2.410 -2.1753  2.1714 -0.8545
 1313SOL    HW2 4839   1.949   4.837   2.489  0.6015 -2.5819 -0.1732
 1314SOL     OW 4840   5.826   2.327   4.491  0.5375 -0.1068  0.2309
 1314SOL    HW1 4841   5.820   2.230   4.471  1.9904 -0.3296  0.7800
 1314SOL    HW2 4842   5.891   2.370   4.429  2.4769 -0.1604  2.1132
 1315SOL     OW 4843   0.393   2.172   2.930  0.6275 -0.4690 -0.4965
 1315SOL    HW1 4844   0.312   2.217   2.893 -0.1677 -1.7058 -0.3284
 1315SOL    HW2 4845   0.395   2.183   3.029 -1.0628 -2.9836 -0.0845
 1316SOL     OW 4846   3.904   0.855   6.507  0.6446 -0.2589 -0.9203
 1316SOL    HW1 4847   3.816   0.819   6.475  0.3772 -0.6949  0.2452
 1316SOL    HW2 4848   3.973   0.783   6.501 -0.0930 -1.4281  2.2835
 1317SOL     OW 4849   3.735   4.253   0.438  0.3646  0.8524 -0.0989
 1317SOL    HW1 4850   3.643   4.230   0.468  1.1405  0.9823  2.6570
 1317SOL    HW2 4851   3.802   4.198   0.489  1.8322 -0.2251 -2.9781
 1318SOL     OW 4852   6.904   3.429   2.037  0.6614 -0.8024  0.1318
 1318SOL    HW1 4853   6.866   3.467   1.953  0.6801  0.3628  0.6234
 1318SOL    HW2 4854   6.922   3.332   2.025 -1.2551 -1.1047 -0.5358
 1319SOL     OW 4855   6.076   0.247   1.336  0.3868  0.3299  0.1220
 1319SOL    HW1 4856   6.175   0.237   1.351  0.7153 -1.0733 -2.4684
 1319SOL    HW2 4857   6.032   0.158   1.352 -0.6620  1.1484  2.1369
 1320SOL     OW 4858   2.497   4.743   6.855 -0.1956 -0.2206 -0.1511
 1320SOL    HW1 4859   2.585   4.783   6.880 -0.6651 -0.5627  2.3365
 1320SOL    HW2 4860   2.513   4.656   6.809  0.7972 -0.4720  0.6182
 1321SOL     OW 4861   6.009   4.920   0.335 -0.9059 -0.1442  0.5320
 1321SOL    HW1 4862   5.968   5.000   0.378 -1.4843 -0.3473  0.3691
 1321SOL    HW2 4863   6.011   4.933   0.236 -1.1451 -0.3967  0.4935
 1322SOL     OW 4864   3.865   1.632   3.801  0.3041 -0.5397 -0.5055
 1322SOL    HW1 4865   3.962   1.653   3.790  1.2059 -2.9156  1.7156
 1322SOL    HW2 4866   3.817   1.712   3.836  1.8577  0.1664  0.1041
 1323SOL     OW 4867   3.310   5.837   6.561 -0.1238 -0.4087 -0.1754
 1323SOL    HW1 4868   3.246   5.886   6.620 -2.1551 -1.9077 -1.0210
 1323SOL    HW2 4869   3.344   5.756   6.610 -4.5337 -3.7126 -1.8941
 1324SOL     OW 4870   0.657   3.976   5.874 -0.2574  0.5641 -0.2352
 1324SOL    HW1 4871   0.600   3.940   5.947  0.8175  0.1374  0.4104
 1324SOL    HW2 4872   0.678   3.904   5.809  0.5233  0.4114  0.1728
 1325SOL     OW 4873   3.625   0.340   4.610  0.1973 -0.0967  0.1093
 1325SOL    HW1 4874   3.618   0.435   4.581  0.1462  0.0584  0.6075
 1325SOL    HW2 4875   3.565   0.325   4.689  0.7982 -0.3361  0.5313
 1326SOL     OW 4876   6.472   3.896   2.607 -0.3784  0.5775 -0.1275
 1326SOL    HW1 4877   6.458   3.885   2.509  0.2225  1.9047 -0.3945
 1326SOL    HW2 4878   6.384   3.911   2.652 -0.6021  0.5812 -0.5581
 1327SOL     OW 4879   2.264   7.009   2.175 -0.6803  0.3275  0.0370
 1327SOL    HW1 4880   2.216   7.047   2.096 -1.5152  0.6050  0.6618
 1327SOL    HW2 4881   2.202   7.006   2.253 -0.3139 -1.2873  0.3120
 1328SOL     OW 4882   1.929   2.212   2.281  0.0701  0.1634 -0.1905
 1328SOL    HW1 4883   2.022   2.175   2.283  0.6445  1.5075 -0.4410
 1328SOL    HW2 4884   1.902   2.226   2.185 -1.4285 -2.5988 -0.2624
 1329SOL     OW 4885   0.126   1.719   0.924  0.0200  0.0665  0.1738
 1329SOL    HW1 4886   0.055   1.752   0.987 -0.1410 -1.2223  0.7046
 1329SOL    HW2 4887   0.150   1.625   0.948 -0.1924 -0.5509 -1.8321
 1330SOL     OW 4888   1.199   1.371   0.164  0.5690  0.5289 -0.0511
 1330SOL    HW1 4889   1.247   1.291   0.200 -0.4818  0.2818  0.8368
 1330SOL    HW2 4890   1.139   1.409   0.234 -1.5839  0.0033 -1.5219
 1331SOL     OW 4891   5.229   2.008   3.261  0.0393  0.1877  0.8558
 1331SOL    HW1 4892   5.166   2.020   3.185  0.0161 -0.1456  0.8213
 1331SOL    HW2 4893   5.321   2.033   3.233 -0.0018  0.2447  0.7734
 1332SOL     OW 4894   2.103   6.250   0.134 -0.3699 -0.1729  0.5699
 1332SOL    HW1 4895   2.115   6.342   0.172  1.0033 -0.0158 -0.1766
 1332SOL    HW2 4896   2.039   6.255   0.056 -0.5053  0.1017  0.6939
 1333SOL     OW 4897   3.751   3.893   3.122  0.0967 -0.0577  0.7651
 1333SOL    HW1 4898   3.745   3.803   3.166 -1.3676  0.1542  1.0366
 1333SOL    HW2 4899   3.715   3.963   3.183  2.0512  0.8671  0.9055
 1334SOL     OW 4900   6.287   0.846   3.950 -0.0119  0.1060  0.1110
 1334SOL    HW1 4901   6.364   0.910   3.947  0.4394 -0.4504 -3.2287
 1334SOL    HW2 4902   6.209   0.886   3.903 -1.4256  0.0952  2.2850
 1335SOL     OW 4903   3.733   1.176   2.172  0.7757 -0.0834  0.4169
 1335SOL    HW1 4904   3.723   1.077   2.171  1.6708 -0.1882 -1.3238
 1335SOL    HW2 4905   3.643   1.218   2.183  0.0848 -1.0775 -1.1593
 1336SOL     OW 4906   2.358   3.266   5.316 -0.4008  0.5275 -0.0168
 1336SOL    HW1 4907   2.395   3.292   5.406  1.7361  1.3621 -1.0588
 1336SOL    HW2 4908   2.425   3.210   5.268 -2.4437 -1.8676 -0.2671
 1337SOL     OW 4909   1.498   2.239   4.177  0.0665 -0.3792  0.2511
 1337SOL    HW1 4910   1.574   2.269   4.234  0.9513  0.5426 -1.3543
 1337SOL    HW2 4911   1.508   2.275   4.085 -2.9006  0.7393  0.2379
 1338SOL     OW 4912   6.717   3.650   2.562  0.4430  0.0318 -0.2994
 1338SOL    HW1 4913   6.712   3.577   2.494  0.9041 -0.0510 -0.2461
 1338SOL    HW2 4914   6.748   3.735   2.518  0.9054 -0.0647 -0.1594
 1339SOL     OW 4915   0.815   3.426   5.494  0.0018 -0.5790  0.7251
 1339SOL    HW1 4916   0.829   3.339   5.448 -0.8625 -0.5351  0.3562
 1339SOL    HW2 4917   0.717   3.437   5.515  0.2583 -0.2057  1.7768
 1340SOL     OW 4918   6.090   1.522   2.599  0.0643  0.1805 -0.0935
 1340SOL    HW1 4919   6.013   1.523   2.664 -0.8005 -2.6801 -0.9271
 1340SOL    HW2 4920   6.073   1.591   2.528  1.0346  3.3841  2.5352
 1341SOL     OW 4921   4.371   0.399   6.887  0.6246  0.1785  0.6353
 1341SOL    HW1 4922   4.326   0.342   6.817 -0.0385  2.9003 -1.3336
 1341SOL    HW2 4923   4.302   0.449   6.939  1.1975  1.6627  0.0369
 1342SOL     OW 4924   4.648   6.053   6.708 -0.3754  0.5347 -0.1071
 1342SOL    HW1 4925   4.697   6.045   6.795 -0.7335  0.5224  0.0998
 1342SOL    HW2 4926   4.581   5.978   6.701 -0.4275  0.6023 -0.3403
 1343SOL     OW 4927   4.515   5.903   3.415  0.0100 -0.0365  0.1548
 1343SOL    HW1 4928   4.550   5.963   3.487 -0.0003 -1.5302  1.4711
 1343SOL    HW2 4929   4.528   5.946   3.326  1.2910  1.2805  0.9382
 1344SOL     OW 4930   0.223   6.039   3.951 -0.4121  0.9630  0.1514
 1344SOL    HW1 4931   0.246   6.000   3.862  0.4767 -0.2842  0.9090
 1344SOL    HW2 4932   0.147   6.104   3.939 -1.3780 -0.3448 -1.2694
 1345SOL     OW 4933   1.083   5.297   3.768  0.2302 -0.2577  0.3310
 1345SOL    HW1 4934   1.084   5.394   3.792  2.0303 -0.6413  2.0262
 1345SOL    HW2 4935   1.013   5.251   3.822 -0.1194 -0.0431  0.0676
 1346SOL     OW 4936   1.383   5.364   4.600  0.4027 -0.3453  0.3098
 1346SOL    HW1 4937   1.288   5.355   4.570  0.6769  0.0720 -0.7071
 1346SOL    HW2 4938   1.436   5.413   4.531  1.2271 -0.0305  1.1416
 1347SOL     OW 4939   0.400   6.313   6.186  0.1399  0.1482  0.0255
 1347SOL    HW1 4940   0.331   6.259   6.137 -0.8280 -0.8388  2.3288
 1347SOL    HW2 4941   0.388   6.410   6.163  0.3956 -0.3181 -2.3863
 1348SOL     OW 4942   6.259   0.925   3.477  0.7552  0.1228  0.2928
 1348SOL    HW1 4943   6.275   1.008   3.530 -0.6626 -0.1115  1.1312
 1348SOL    HW2 4944   6.275   0.845   3.534 -1.1894 -0.1282  0.5607
 1349SOL     OW 4945   5.262   3.581   5.022 -0.5866 -0.3163  0.2463
 1349SOL    HW1 4946   5.186   3.642   5.041  2.0977  3.3627  0.3867
 1349SOL    HW2 4947   5.239   3.522   4.944 -2.4792  2.9810 -1.9396
 1350SOL     OW 4948   2.988   4.164   6.718  0.0033  0.3760  0.2821
 1350SOL    HW1 4949   3.032   4.097   6.778 -0.5507  0.2556  0.5567
 1350SOL    HW2 4950   3.039   4.169   6.632  0.0241 -0.4301  0.2408
 1351SOL     OW 4951   5.175   2.560   4.464  0.0986 -0.6312  0.9022
 1351SOL    HW1 4952   5.102   2.627   4.476  1.3594  0.9975 -0.0217
 1351SOL    HW2 4953   5.204   2.559   4.368  0.7964 -1.7696  1.1093
 1352SOL     OW 4954   6.872   6.445   5.411 -0.4276  0.0320  0.2280
 1352SOL    HW1 4955   6.911   6.390   5.337  0.9905  1.1295  0.1215
 1352SOL    HW2 4956   6.819   6.520   5.373 -1.8253 -0.8544  0.3697
 1353SOL     OW 4957   1.108   2.330   1.532 -0.1981 -0.4230  0.3447
 1353SOL    HW1 4958   1.117   2.233   1.508 -0.2542 -0.2342 -0.4520
 1353SOL    HW2 4959   1.188   2.359   1.584 -0.2376 -0.9268  0.6976
 1354SOL     OW 4960   5.353   4.199   1.652 -0.0081  0.4621 -0.2567
 1354SOL    HW1 4961   5.260   4.203   1.613  1.0065 -0.7266 -3.0729
 1354SOL    HW2 4962   5.395   4.289   1.645 -0.7776  0.9127  0.6691
 1355SOL     OW 4963   5.532   4.279   4.556 -0.0958 -0.3698 -0.1044
 1355SOL    HW1 4964   5.596   4.295   4.482  0.0091 -0.7571 -0.1019
 1355SOL    HW2 4965   5.448   4.238   4.520  0.3644 -1.5488  0.1116
 1356SOL     OW 4966   4.201   3.213   1.978  0.0581 -0.1380 -0.1448
 1356SOL    HW1 4967   4.109   3.174   1.973 -0.1723  0.3139  0.5279
 1356SOL    HW2 4968   4.261   3.151   2.028 -0.2135  0.1769  0.5862
 1357SOL     OW 4969   1.059   2.693   0.106 -0.3397  0.1046  0.3463
 1357SOL    HW1 4970   1.040   2.780   0.060  2.1593 -0.4032 -1.9265
 1357SOL    HW2 4971   1.018   2.618   0.054  0.2888 -0.3065  0.4329
 1358SOL     OW 4972   4.911   0.239   0.000  0.1191 -0.1792  0.2389
 1358SOL    HW1 4973   5.009   0.219  -0.006 -0.0501 -1.7406  1.7157
 1358SOL    HW2 4974   4.885   0.246   0.096 -0.6686  3.5334 -0.0891
 1359SOL     OW 4975   5.011   1.419   4.198  0.2310 -0.2690 -0.1053
 1359SOL    HW1 4976   5.071   1.354   4.153  0.4000  1.1011 -1.9768
 1359SOL    HW2 4977   4.933   1.440   4.139  0.0382  0.9992  0.5529
 1360SOL     OW 4978   1.891   5.491   6.484  0.2966  0.5458 -0.9413
 1360SOL    HW1 4979   1.964   5.555   6.462  0.8020  1.0637  1.9008
 1360SOL    HW2 4980   1.929   5.400   6.501  0.0364  0.3919 -1.1525
 1361SOL     OW 4981   5.603   5.443   3.996 -0.2588  0.1932  0.0187
 1361SOL    HW1 4982   5.699   5.416   3.997 -0.5215 -0.8019 -0.2126
 1361SOL    HW2 4983   5.574   5.462   3.902 -0.6070 -0.7318 -0.0662
 1362SOL     OW 4984   3.243   3.892   4.006 -0.1533  0.2240  0.7223
 1362SOL    HW1 4985   3.335   3.887   4.045  0.6660 -1.0826 -1.2099
 1362SOL    HW2 4986   3.242   3.962   3.934 -0.3334 -0.5702 -0.0574
 1363SOL     OW 4987   6.018   5.727   3.568 -0.6447  0.1496 -0.3591
 1363SOL    HW1 4988   5.965   5.797   3.617  0.5989  0.0419  1.1967
 1363SOL    HW2 4989   5.982   5.637   3.590 -0.8642  0.1676 -0.6362
 1364SOL     OW 4990   4.713   4.015   1.691  0.2475  0.6941  0.2985
 1364SOL    HW1 4991   4.761   3.973   1.768 -0.3534  0.1409  0.3800
 1364SOL    HW2 4992   4.767   4.091   1.655  0.8546  0.5149  0.8236
 1365SOL     OW 4993   1.485   4.270   0.021 -0.1853 -0.2664 -0.4866
 1365SOL    HW1 4994   1.581   4.297   0.023 -0.1534 -0.2845 -1.4315
 1365SOL    HW2 4995   1.467   4.216  -0.061 -0.7018 -1.4255  0.3674
 1366SOL     OW 4996   6.764   5.142   0.127  0.1146 -0.3637  0.1102
 1366SOL    HW1 4997   6.743   5.087   0.208 -0.0982 -0.5068 -0.0420
 1366SOL    HW2 4998   6.704   5.114   0.052  2.1769 -2.1610 -0.9509
 1367SOL     OW 4999   1.560   1.642   2.954  0.4050  0.1214 -0.3259
 1367SOL    HW1 5000   1.619   1.713   2.916 -0.6491  0.0755 -2.1806
 1367SOL    HW2 5001   1.477   1.684   2.991  0.3804 -0.0309 -0.2078
 1368SOL     OW 5002   6.223   6.067   2.794 -0.1738 -0.7523 -0.4220
 1368SOL    HW1 5003   6.273   6.153   2.806 -0.5508 -0.5259 -0.4603
 1368SOL    HW2 5004   6.163   6.052   2.872  0.1002 -1.1245 -0.2814
 1369SOL     OW 5005   1.642   6.672   2.236  0.5023 -0.0078 -0.4620
 1369SOL    HW1 5006   1.682   6.763   2.225  0.8041  0.0264  0.7293
 1369SOL    HW2 5007   1.569   6.659   2.170 -0.5352  1.6652  0.2731
 1370SOL     OW 5008   2.413   0.245   6.432  0.4954 -0.9314 -0.7616
 1370SOL    HW1 5009   2.424   0.146   6.439  0.1105 -0.8645  1.4883
 1370SOL    HW2 5010   2.317   0.268   6.421  0.4543 -0.7854 -0.1536
 1371SOL     OW 5011   6.873   2.459   6.632  0.1429  0.4476 -0.5326
 1371SOL    HW1 5012   6.955   2.504   6.597  1.2702 -0.6764  0.5525
 1371SOL    HW2 5013   6.875   2.362   6.607 -1.4750  0.6102 -1.4964
 1372SOL     OW 5014   6.989   3.583   2.639 -0.1114  0.5357  0.3325
 1372SOL    HW1 5015   6.937   3.592   2.554  1.5511  1.9739 -0.6123
 1372SOL    HW2 5016   6.944   3.634   2.712 -0.8991  0.3293 -0.0056
 1373SOL     OW 5017   5.945   4.578   6.592  0.8261 -0.2916 -0.6773
 1373SOL    HW1 5018   6.001   4.510   6.546  0.1302 -1.8178  0.6233
 1373SOL    HW2 5019   5.849   4.549   6.592  0.2681  1.4328 -1.3852
 1374SOL     OW 5020   6.950   1.412   6.554 -0.3462  0.1547  0.5423
 1374SOL    HW1 5021   6.920   1.438   6.462 -2.0631  0.2596  1.1114
 1374SOL    HW2 5022   7.015   1.481   6.587 -2.1519  1.9024  0.6399
 1375SOL     OW 5023   6.964   4.816   4.325 -0.1365  0.4510  0.3513
 1375SOL    HW1 5024   6.975   4.819   4.225 -1.1942  0.9551  0.2402
 1375SOL    HW2 5025   6.949   4.909   4.359 -4.6935 -0.0991  0.3625
 1376SOL     OW 5026   4.824   4.514   2.130 -0.6393 -0.1855 -0.5467
 1376SOL    HW1 5027   4.808   4.562   2.216 -1.4777  1.9082 -1.7634
 1376SOL    HW2 5028   4.872   4.429   2.147 -4.5128 -2.1042  2.4652
 1377SOL     OW 5029   6.665   6.221   5.242 -0.2266 -0.4239 -0.0084
 1377SOL    HW1 5030   6.630   6.284   5.312 -0.6741  1.1307 -1.5776
 1377SOL    HW2 5031   6.754   6.186   5.272 -0.7055 -0.3378  1.6427
 1378SOL     OW 5032   6.751   1.800   5.233 -0.0315 -0.0686  0.0421
 1378SOL    HW1 5033   6.764   1.888   5.188 -0.3576 -0.2980 -0.5186
 1378SOL    HW2 5034   6.833   1.744   5.222 -0.1586 -0.1744 -0.3953
 1379SOL     OW 5035   1.641   1.655   2.147  0.9658 -0.1240 -0.2795
 1379SOL    HW1 5036   1.698   1.641   2.228  1.0572 -0.8444 -0.4646
 1379SOL    HW2 5037   1.686   1.614   2.067  0.0704 -0.9552 -0.3761
 1380SOL     OW 5038   6.615   6.981   2.620 -1.2291 -0.2177 -0.1357
 1380SOL    HW1 5039   6.543   6.912   2.616 -2.0997  0.7295 -1.6133
 1380SOL    HW2 5040   6.600   7.050   2.549  0.7884  0.3579 -0.0711
 1381SOL     OW 5041   4.651   3.818   6.844 -0.5780 -0.1283  0.2940
 1381SOL    HW1 5042   4.607   3.806   6.755  0.3674  2.1214 -0.5415
 1381SOL    HW2 5043   4.660   3.729   6.888 -0.4579 -1.4273 -2.1487
 1382SOL     OW 5044   6.296   4.917   0.360 -0.2337  0.2584 -0.2866
 1382SOL    HW1 5045   6.322   5.004   0.318  0.1525  1.1354  1.6341
 1382SOL    HW2 5046   6.197   4.906   0.353 -0.2567  0.7228 -0.7812
 1383SOL     OW 5047   1.581   1.252   0.179 -0.7297 -0.2160  0.3388
 1383SOL    HW1 5048   1.652   1.314   0.214  1.3610 -2.4006  0.2961
 1383SOL    HW2 5049   1.592   1.162   0.222 -1.5228 -1.4805 -1.9039
 1384SOL     OW 5050   2.534   2.236   4.006  0.1440 -0.4831  0.3446
 1384SOL    HW1 5051   2.515   2.331   3.981  2.3709 -0.1270 -0.2016
 1384SOL    HW2 5052   2.451   2.193   4.041 -0.9803  1.5604  0.2956
 1385SOL     OW 5053   0.566   2.013   2.759  0.2833  0.3451  0.3962
 1385SOL    HW1 5054   0.514   2.048   2.838  2.2081  0.4990  1.6577
 1385SOL    HW2 5055   0.626   2.085   2.725  1.6012 -0.5939  0.6727
 1386SOL     OW 5056   2.816   1.844   3.390  0.0209  0.1094 -0.1504
 1386SOL    HW1 5057   2.775   1.782   3.323  0.5272  0.4787 -0.8096
 1386SOL    HW2 5058   2.799   1.808   3.482 -5.2178  2.1940  0.0194
 1387SOL     OW 5059   2.884   1.115   3.128 -0.0275 -0.3813 -0.2128
 1387SOL    HW1 5060   2.865   1.151   3.219 -2.4139  0.9101 -1.1440
 1387SOL    HW2 5061   2.825   1.160   3.061  2.7606 -0.0870 -2.6791
 1388SOL     OW 5062   1.299   6.068   5.144 -0.9342  0.6437 -0.2840
 1388SOL    HW1 5063   1.315   6.108   5.054  0.9790 -1.4546 -0.9908
 1388SOL    HW2 5064   1.366   6.106   5.209 -1.5600  1.3033 -0.0141
 1389SOL     OW 5065   1.258   1.525   3.013  0.2933 -0.1808 -0.3324
 1389SOL    HW1 5066   1.281   1.485   3.102 -3.4058 -1.2804  0.3020
 1389SOL    HW2 5067   1.252   1.453   2.944 -1.6621 -0.1133 -0.2890
 1390SOL     OW 5068   3.548   1.681   0.453  0.3308 -0.4035  0.2715
 1390SOL    HW1 5069   3.495   1.599   0.431 -0.6409  0.0140  1.0027
 1390SOL    HW2 5070   3.527   1.753   0.386  0.5989 -0.4997  0.0824
 1391SOL     OW 5071   6.777   1.550   5.826 -0.2836  0.0370  0.7877
 1391SOL    HW1 5072   6.702   1.517   5.884 -0.2183 -0.4398  0.6005
 1391SOL    HW2 5073   6.864   1.537   5.873 -0.2366 -0.2832  0.6102
 1392SOL     OW 5074   6.327   0.054   5.968 -1.0283  0.2070 -0.3973
 1392SOL    HW1 5075   6.420   0.041   5.933 -1.3719 -2.9262 -0.4824
 1392SOL    HW2 5076   6.330   0.073   6.066 -0.2615 -2.1273  0.0984
 1393SOL     OW 5077   5.719   4.317   4.352  0.6920  0.0007 -0.4569
 1393SOL    HW1 5078   5.693   4.242   4.290 -1.2933 -0.1946  0.5324
 1393SOL    HW2 5079   5.744   4.397   4.298 -0.5694 -0.2945 -1.5299
 1394SOL     OW 5080   5.050   0.658   4.097  0.0411 -0.2430  0.3858
 1394SOL    HW1 5081   5.071   0.746   4.055  0.0895 -0.4687 -0.0598
 1394SOL    HW2 5082   5.103   0.649   4.182 -1.1313  0.8274  1.2756
 1395SOL     OW 5083   1.648   3.669   2.159  0.3584  0.5284  0.3058
 1395SOL    HW1 5084   1.671   3.648   2.064 -1.3997  0.4825 -0.1452
 1395SOL    HW2 5085   1.675   3.763   2.180  1.1207  0.4075 -0.0885
 1396SOL     OW 5086   1.984   5.753   3.262  0.0336 -1.2166  0.4445
 1396SOL    HW1 5087   1.991   5.796   3.352 -1.3503 -0.4669  0.2272
 1396SOL    HW2 5088   2.030   5.665   3.264  0.3811 -1.0296  1.7730
 1397SOL     OW 5089   0.137   6.351   4.220  0.2757 -0.2913  0.8671
 1397SOL    HW1 5090   0.105   6.378   4.129 -0.9247 -0.7499  1.1419
 1397SOL    HW2 5091   0.143   6.432   4.278 -0.1404 -0.1643  0.7363
 1398SOL     OW 5092   1.742   0.055   7.003 -0.9063 -0.1704  0.1139
 1398SOL    HW1 5093   1.688   0.087   6.926 -1.3199 -1.3118 -0.0908
 1398SOL    HW2 5094   1.696  -0.022   7.048  0.0031 -0.4495  0.6187
 1399SOL     OW 5095   4.198   1.650   6.590 -0.1365 -0.3034  0.2886
 1399SOL    HW1 5096   4.270   1.696   6.643  0.9768 -0.2023 -1.2547
 1399SOL    HW2 5097   4.167   1.711   6.517 -1.5029 -0.5267  0.6549
 1400SOL     OW 5098   6.270   2.001   6.820  0.4765 -0.1735  0.0377
 1400SOL    HW1 5099   6.361   1.989   6.859  0.7845 -0.0495 -0.6332
 1400SOL    HW2 5100   6.246   2.098   6.822  0.0805 -0.2781  0.8151
 1401SOL     OW 5101   6.674   0.876   2.852 -0.4449  0.0455 -0.5020
 1401SOL    HW1 5102   6.688   0.910   2.945  0.4896 -0.7276 -0.3495
 1401SOL    HW2 5103   6.581   0.839   2.844 -0.5311  0.1167  0.1269
 1402SOL     OW 5104   6.500   3.675   5.796 -0.2892  0.9641 -0.1528
 1402SOL    HW1 5105   6.556   3.757   5.800 -0.1775  0.8695  0.2535
 1402SOL    HW2 5106   6.485   3.640   5.888 -2.1522  1.7500 -0.1060
 1403SOL     OW 5107   4.701   0.761   0.827 -0.2373 -0.4992 -0.4504
 1403SOL    HW1 5108   4.745   0.836   0.877  1.4722 -1.1640 -0.8906
 1403SOL    HW2 5109   4.677   0.793   0.735  0.3983 -0.4664 -0.6060
 1404SOL     OW 5110   5.317   6.711   0.161  0.2745  0.3469  0.2316
 1404SOL    HW1 5111   5.335   6.776   0.088 -0.7577  1.8649  1.2602
 1404SOL    HW2 5112   5.366   6.625   0.143  0.9398  1.0697 -1.6208
 1405SOL     OW 5113   1.414   2.069   2.707 -0.1429  0.0740 -0.1811
 1405SOL    HW1 5114   1.445   2.074   2.612 -1.5638  2.0889 -0.6176
 1405SOL    HW2 5115   1.482   2.111   2.767  0.3597 -0.3866 -0.4253
 1406SOL     OW 5116   0.437   4.239   1.948 -0.0900  0.2711 -0.3463
 1406SOL    HW1 5117   0.485   4.205   2.028  1.4894  1.9891 -0.4989
 1406SOL    HW2 5118   0.353   4.284   1.976  0.6341  1.1878  0.4051
 1407SOL     OW 5119   0.529   3.290   3.009 -0.1243 -0.0836 -0.2215
 1407SOL    HW1 5120   0.570   3.351   3.078  0.3746 -0.6292 -0.0220
 1407SOL    HW2 5121   0.523   3.338   2.922  0.0991  0.3135 -0.0242
 1408SOL     OW 5122   0.644   0.205   6.544 -0.0102  0.1076 -0.1862
 1408SOL    HW1 5123   0.593   0.189   6.629 -0.4288 -0.2690 -0.5086
 1408SOL    HW2 5124   0.742   0.206   6.565 -0.0228 -1.4691  0.0821
 1409SOL     OW 5125   5.933   1.054   6.752  0.4307 -0.3331 -0.0948
 1409SOL    HW1 5126   5.975   1.014   6.671 -0.8023  0.8039 -1.3672
 1409SOL    HW2 5127   5.999   1.113   6.799 -0.1810  3.3235 -3.3686
 1410SOL     OW 5128   3.135   4.156   5.745 -0.2039 -0.3440 -0.8460
 1410SOL    HW1 5129   3.184   4.219   5.805 -1.1989  0.4071 -0.7731
 1410SOL    HW2 5130   3.148   4.062   5.776 -2.1544  0.1287  1.7132
 1411SOL     OW 5131   3.803   5.566   5.640 -0.1173  0.1396  0.5091
 1411SOL    HW1 5132   3.746   5.595   5.718 -0.6794 -1.9771  0.9367
 1411SOL    HW2 5133   3.754   5.584   5.555 -0.7635 -0.1995  0.8016
 1412SOL     OW 5134   1.781   4.172   0.808  0.2738 -0.0412  0.4659
 1412SOL    HW1 5135   1.819   4.262   0.785  0.1823 -0.1156  0.0244
 1412SOL    HW2 5136   1.688   4.164   0.771  1.0921 -1.1662 -1.5132
 1413SOL     OW 5137   0.394   2.400   4.725  0.1982 -0.8630  0.1753
 1413SOL    HW1 5138   0.354   2.460   4.794  1.0560 -0.5775  0.4446
 1413SOL    HW2 5139   0.400   2.307   4.762  1.1917 -0.5972  0.7275
 1414SOL     OW 5140   2.274   1.375   2.446  0.3249 -0.3891  0.3819
 1414SOL    HW1 5141   2.333   1.363   2.366 -0.9391 -2.5283 -0.3016
 1414SOL    HW2 5142   2.315   1.443   2.507  2.0555  0.2471 -1.3617
 1415SOL     OW 5143   3.965   0.856   4.148 -0.2218 -0.0490  0.4174
 1415SOL    HW1 5144   4.059   0.872   4.119 -0.7197  1.9227 -0.2410
 1415SOL    HW2 5145   3.905   0.849   4.068 -0.7684 -0.5203  0.8495
 1416SOL     OW 5146   5.811   1.492   4.713 -0.3481 -0.0736 -0.3072
 1416SOL    HW1 5147   5.813   1.571   4.773 -0.9474  0.8791 -1.4947
 1416SOL    HW2 5148   5.818   1.522   4.618 -0.0739 -1.4896 -0.7720
 1417SOL     OW 5149   5.262   1.726   0.344  0.5817  0.6602 -0.5196
 1417SOL    HW1 5150   5.327   1.799   0.323  0.3488  0.1154 -3.6310
 1417SOL    HW2 5151   5.310   1.651   0.390  1.1946  1.9649  1.0737
 1418SOL     OW 5152   2.376   4.177   1.017  0.4115  0.0764 -0.2721
 1418SOL    HW1 5153   2.444   4.197   1.088  0.2916 -1.0560  0.1758
 1418SOL    HW2 5154   2.331   4.091   1.038 -0.3472  0.2401 -1.1972
 1419SOL     OW 5155   3.035   4.805   2.393 -0.0711  0.1032 -0.4706
 1419SOL    HW1 5156   2.962   4.787   2.459  0.0528  1.9358  0.2389
 1419SOL    HW2 5157   3.108   4.856   2.438  1.1464 -0.7132 -1.4542
 1420SOL     OW 5158   3.236   5.986   3.915 -0.1603  0.6659  0.3351
 1420SOL    HW1 5159   3.171   6.058   3.937 -1.1484 -0.3522  0.8786
 1420SOL    HW2 5160   3.248   5.926   3.995 -0.3146 -0.4813 -0.4738
 1421SOL     OW 5161   1.548   4.482   4.992 -0.4830 -0.4730  0.2148
 1421SOL    HW1 5162   1.470   4.425   4.967 -1.9771  1.2069  0.8236
 1421SOL    HW2 5163   1.563   4.551   4.921  1.3800 -1.5850 -0.5730
 1422SOL     OW 5164   3.063   5.359   5.193  0.2855  0.2189 -0.1465
 1422SOL    HW1 5165   3.039   5.444   5.145  2.2598 -0.2904 -2.1646
 1422SOL    HW2 5166   2.984   5.299   5.195  0.1349  0.1936 -3.0075
 1423SOL     OW 5167   4.621   2.347   4.437 -0.1943 -0.1398  0.5691
 1423SOL    HW1 5168   4.587   2.258   4.405  2.4989 -0.9261 -0.4033
 1423SOL    HW2 5169   4.577   2.420   4.387  1.5396 -1.2108 -2.8548
 1424SOL     OW 5170   5.961   4.601   5.201 -0.2739  0.5527  0.5805
 1424SOL    HW1 5171   5.963   4.504   5.179 -1.6167  0.2422  1.6679
 1424SOL    HW2 5172   6.016   4.652   5.134  1.7123 -1.0864  0.8407
 1425SOL     OW 5173   2.874   5.446   3.944 -0.1544 -0.6306  0.7301
 1425SOL    HW1 5174   2.907   5.438   4.038  1.1369 -0.1564  0.3357
 1425SOL    HW2 5175   2.943   5.409   3.881  0.2822  1.6464 -0.2199
 1426SOL     OW 5176   0.433   2.693   0.301  0.0027  0.6074  0.1727
 1426SOL    HW1 5177   0.514   2.749   0.317  0.9336 -0.9931  1.4113
 1426SOL    HW2 5178   0.405   2.650   0.387 -1.5304  0.2825 -0.4609
 1427SOL     OW 5179   0.217   0.378   2.244 -0.2189 -0.1989 -0.4593
 1427SOL    HW1 5180   0.237   0.460   2.298 -2.5909  0.4138 -0.4405
 1427SOL    HW2 5181   0.160   0.402   2.166  0.1335 -1.6538 -1.2002
 1428SOL     OW 5182   0.400   3.015   1.359 -0.6590 -0.6700  0.2240
 1428SOL    HW1 5183   0.440   2.923   1.356  0.7798 -0.1171  1.4736
 1428SOL    HW2 5184   0.303   3.007   1.385  0.3594 -1.7121  4.6187
 1429SOL     OW 5185   0.531   0.754   1.451 -0.0662 -0.5413  0.3043
 1429SOL    HW1 5186   0.609   0.694   1.473 -0.4311 -1.1461 -0.0202
 1429SOL    HW2 5187   0.528   0.770   1.353  0.9377  1.3000  0.5318
 1430SOL     OW 5188   1.980   3.832   5.311 -0.6938 -0.2205  0.1869
 1430SOL    HW1 5189   1.919   3.890   5.257  0.8507 -0.2599 -1.7232
 1430SOL    HW2 5190   2.058   3.805   5.255  0.2956 -1.4642  2.0566
 1431SOL     OW 5191   2.012   2.442   4.839  0.1449  0.1044 -0.2860
 1431SOL    HW1 5192   1.930   2.445   4.897  0.8438  1.1661  0.6873
 1431SOL    HW2 5193   1.993   2.387   4.758 -1.4495  0.1129  0.0449
 1432SOL     OW 5194   2.491   3.376   1.445  0.0167  0.0400  0.0261
 1432SOL    HW1 5195   2.433   3.454   1.469 -1.7712 -0.6706 -1.7019
 1432SOL    HW2 5196   2.437   3.309   1.395  1.6385 -2.0958  0.9785
 1433SOL     OW 5197   2.784   0.907   4.739  0.6917 -0.1563  0.1270
 1433SOL    HW1 5198   2.750   1.001   4.743 -0.8478 -0.7166  1.2686
 1433SOL    HW2 5199   2.796   0.879   4.644  0.4576  0.9494 -0.2336
 1434SOL     OW 5200   6.490   3.375   5.786  0.1396  0.7939  0.1118
 1434SOL    HW1 5201   6.437   3.410   5.863 -0.5545  0.3377 -0.1491
 1434SOL    HW2 5202   6.521   3.451   5.729 -0.3964  1.0574  0.1679
 1435SOL     OW 5203   0.480   6.713   4.738 -0.1796  0.1926  0.3993
 1435SOL    HW1 5204   0.492   6.615   4.749 -0.0951  0.1430 -0.0983
 1435SOL    HW2 5205   0.411   6.747   4.803 -1.3220 -0.4487 -0.4410
 1436SOL     OW 5206   0.340   4.837   4.746  0.6274 -0.1766  0.5078
 1436SOL    HW1 5207   0.430   4.880   4.750 -0.5286  2.6251 -0.6570
 1436SOL    HW2 5208   0.330   4.788   4.659  0.1420  1.8348 -0.6160
 1437SOL     OW 5209   2.984   1.325   6.089  0.0304 -0.0953 -0.3451
 1437SOL    HW1 5210   2.897   1.296   6.129 -0.0299  0.6881  0.1272
 1437SOL    HW2 5211   3.059   1.302   6.152 -0.1173  1.6345  0.5401
 1438SOL     OW 5212   3.397   2.728   1.817 -0.0396 -0.4922  0.6218
 1438SOL    HW1 5213   3.385   2.682   1.729  0.4610 -1.0284  0.8293
 1438SOL    HW2 5214   3.308   2.760   1.850 -0.0586  1.0465 -0.7840
 1439SOL     OW 5215   6.796   6.162   5.542 -0.4521 -0.0560  0.3882
 1439SOL    HW1 5216   6.893   6.176   5.559 -0.4400 -0.1444  0.3921
 1439SOL    HW2 5217   6.753   6.248   5.516 -0.7843  0.4406  2.3852
 1440SOL     OW 5218   3.670   3.871   4.899  0.3737  0.1203  0.2463
 1440SOL    HW1 5219   3.766   3.872   4.870  0.5625  1.8587  0.8482
 1440SOL    HW2 5220   3.665   3.863   4.998 -0.0877  0.5552  0.2609
 1441SOL     OW 5221   0.015   4.749   2.048 -0.0153  0.4247  0.2929
 1441SOL    HW1 5222   0.084   4.770   1.978  1.3846 -1.1579  1.1015
 1441SOL    HW2 5223   0.020   4.817   2.121  0.2964  0.6380  0.0780
 1442SOL     OW 5224   5.559   5.239   0.030 -0.3687 -0.1036  0.6899
 1442SOL    HW1 5225   5.621   5.289  -0.031 -2.4166 -0.8582 -2.2233
 1442SOL    HW2 5226   5.561   5.282   0.120 -0.0934  3.7125 -0.9094
 1443SOL     OW 5227   2.397   0.059   4.427  0.0439 -0.4517  0.1618
 1443SOL    HW1 5228   2.448   0.086   4.346 -0.9972 -0.8924 -0.6549
 1443SOL    HW2 5229   2.314   0.114   4.434 -0.0889 -0.7116  0.6840
 1444SOL     OW 5230   2.549   6.724   0.605 -0.2260 -0.5747  0.1023
 1444SOL    HW1 5231   2.581   6.659   0.537 -1.3707 -0.9020 -0.1308
 1444SOL    HW2 5232   2.617   6.797   0.616  0.4564 -1.0966 -0.5867
 1445SOL     OW 5233   0.986   2.383   2.886  0.4284 -0.0085 -0.1922
 1445SOL    HW1 5234   1.077   2.409   2.852  0.1179  2.2557  0.5489
 1445SOL    HW2 5235   0.917   2.408   2.818  0.1293  1.1786  0.5122
 1446SOL     OW 5236   5.408   2.187   6.018  0.2440 -0.0558  0.1376
 1446SOL    HW1 5237   5.330   2.186   6.080 -0.5314 -0.4909 -0.8191
 1446SOL    HW2 5238   5.402   2.266   5.957  0.2770 -0.3608 -0.2672
 1447SOL     OW 5239   6.978   1.923   5.499 -0.1847 -0.4520  0.0728
 1447SOL    HW1 5240   6.894   1.968   5.529  0.4672  0.2522  0.9041
 1447SOL    HW2 5241   6.962   1.825   5.489 -0.9764 -0.3970  0.6868
 1448SOL     OW 5242   4.680   0.714   3.046 -0.3115 -0.3884 -0.4427
 1448SOL    HW1 5243   4.631   0.795   3.079 -1.6792 -1.4045  0.1182
 1448SOL    HW2 5244   4.778   0.726   3.060 -0.5218  1.0265 -0.0676
 1449SOL     OW 5245   5.962   6.161   1.526 -0.1258 -0.4835  0.0807
 1449SOL    HW1 5246   5.870   6.141   1.561  0.3399 -1.2724  0.8855
 1449SOL    HW2 5247   6.000   6.078   1.484 -0.2908  0.1894 -1.4522
 1450SOL     OW 5248   6.865   1.650   2.093  0.0466  0.2372  0.0703
 1450SOL    HW1 5249   6.796   1.665   2.021  0.6123  0.6426 -0.3922
 1450SOL    HW2 5250   6.835   1.694   2.177 -0.3220  0.3037 -0.0915
 1451SOL     OW 5251   2.999   1.157   4.511 -0.1652 -0.1736 -0.2429
 1451SOL    HW1 5252   2.941   1.229   4.549  0.9192  0.7510 -0.2939
 1451SOL    HW2 5253   3.095   1.185   4.517  0.4950 -2.5350  1.7655
 1452SOL     OW 5254   3.788   1.742   5.149 -0.3087 -0.2406  0.3313
 1452SOL    HW1 5255   3.789   1.666   5.084  1.1384  0.2132 -0.2313
 1452SOL    HW2 5256   3.699   1.787   5.146 -0.4489 -0.5578 -0.9506
 1453SOL     OW 5257   4.861   2.440   5.305  0.1002 -0.0862  0.0473
 1453SOL    HW1 5258   4.865   2.430   5.405 -1.3017  0.9023  0.2334
 1453SOL    HW2 5259   4.871   2.350   5.263 -0.4220 -0.6774  1.1308
 1454SOL     OW 5260   6.051   3.234   1.968 -0.2260  0.0278 -0.1796
 1454SOL    HW1 5261   5.955   3.247   1.992 -0.7964 -0.5480 -2.0177
 1454SOL    HW2 5262   6.063   3.245   1.869  1.7105  0.6369  0.0766
 1455SOL     OW 5263   2.212   2.119   2.314  0.2087  0.2296  0.5343
 1455SOL    HW1 5264   2.259   2.048   2.366  2.0588  2.7846  2.6039
 1455SOL    HW2 5265   2.280   2.174   2.265 -0.7926  2.3851  1.4428
 1456SOL     OW 5266   5.906   6.544   4.562 -0.0191 -0.5628  0.1906
 1456SOL    HW1 5267   5.917   6.470   4.629 -0.3586 -1.4185 -0.6767
 1456SOL    HW2 5268   5.819   6.589   4.576  1.0839  1.1387  2.1119
 1457SOL     OW 5269   0.893   5.516   2.421 -0.4347  0.0341 -0.3330
 1457SOL    HW1 5270   0.850   5.573   2.351 -0.1309  0.2787 -0.3272
 1457SOL    HW2 5271   0.951   5.574   2.479  0.4784 -0.3945 -0.7941
 1458SOL     OW 5272   4.090   7.019   4.837  0.2187 -0.5669 -0.2744
 1458SOL    HW1 5273   4.046   6.934   4.810 -0.9168 -0.3977  0.9565
 1458SOL    HW2 5274   4.157   7.045   4.767  0.2124 -2.1720 -0.9311
 1459SOL     OW 5275   1.950   4.565   0.083 -0.2450 -0.0909  0.0794
 1459SOL    HW1 5276   2.008   4.640   0.114 -0.6149  0.3495 -0.2612
 1459SOL    HW2 5277   1.985   4.478   0.117 -0.0683  0.2811  0.8628
 1460SOL     OW 5278   0.036   5.541   5.494  0.4675 -0.2309  0.2267
 1460SOL    HW1 5279   0.046   5.600   5.414 -0.0674  1.0576  1.0584
 1460SOL    HW2 5280  -0.054   5.556   5.535  0.0390 -2.1676  0.0883
 1461SOL     OW 5281   6.038   4.617   3.603  0.6912 -0.5034 -0.8389
 1461SOL    HW1 5282   6.107   4.689   3.610 -1.2775  1.3106  1.4826
 1461SOL    HW2 5283   5.964   4.647   3.544 -0.1214 -0.6337  0.0910
 1462SOL     OW 5284   0.412   1.441   0.821 -0.9260 -0.5091 -0.1012
 1462SOL    HW1 5285   0.440   1.401   0.734 -0.1309 -1.3048  0.4945
 1462SOL    HW2 5286   0.439   1.537   0.824  1.0639 -1.0325  0.1111
 1463SOL     OW 5287   1.409   6.824   5.025  0.4359 -0.2308 -0.3045
 1463SOL    HW1 5288   1.392   6.918   4.995 -0.2500 -0.9672 -2.4271
 1463SOL    HW2 5289   1.507   6.806   5.026  0.5173  0.1362 -1.1283
 1464SOL     OW 5290   6.771   4.925   0.843 -0.1924  0.2153  0.6001
 1464SOL    HW1 5291   6.672   4.927   0.857 -0.5375 -1.0011 -1.3198
 1464SOL    HW2 5292   6.799   4.834   0.814  1.4253  0.6975  0.5332
 1465SOL     OW 5293   2.247   1.475   3.070 -0.0509  0.9701 -0.1237
 1465SOL    HW1 5294   2.277   1.549   3.130  1.1245  0.1595  0.3295
 1465SOL    HW2 5295   2.155   1.446   3.095 -1.1817  3.2537 -1.2721
 1466SOL     OW 5296   1.001   6.908   1.256  0.6147  0.0344 -0.2452
 1466SOL    HW1 5297   1.006   7.003   1.223  2.5419 -0.6811 -2.2703
 1466SOL    HW2 5298   0.951   6.853   1.189 -0.3936 -0.4360  0.8671
 1467SOL     OW 5299   0.819   0.683   1.686 -0.1193  0.3623  0.2484
 1467SOL    HW1 5300   0.894   0.735   1.726 -0.7381  0.7574  0.9168
 1467SOL    HW2 5301   0.746   0.672   1.754 -0.4807 -0.3944 -0.2482
 1468SOL     OW 5302   5.436   5.098   2.981  0.1022  0.2454  0.0795
 1468SOL    HW1 5303   5.534   5.115   2.979 -0.1479  1.7929 -0.6778
 1468SOL    HW2 5304   5.418   5.001   2.964  1.4152  0.4337 -2.9343
 1469SOL     OW 5305   6.695   1.040   1.941 -0.3527  0.0407 -0.0470
 1469SOL    HW1 5306   6.672   1.031   2.038 -2.3804  0.0538 -0.4765
 1469SOL    HW2 5307   6.681   1.135   1.912 -2.9957 -0.5500 -1.0250
 1470SOL     OW 5308   2.771   1.496   4.460 -0.0854  0.2776  0.2241
 1470SOL    HW1 5309   2.743   1.583   4.500 -0.0547  0.9069 -1.0819
 1470SOL    HW2 5310   2.822   1.443   4.529 -2.9766 -0.2329  2.1593
 1471SOL     OW 5311   6.480   1.008   6.985 -0.3994 -0.1504 -0.2290
 1471SOL    HW1 5312   6.470   1.103   6.956 -0.9357 -0.1181  0.0493
 1471SOL    HW2 5313   6.423   0.991   7.065  1.9077  0.0763  1.5851
 1472SOL     OW 5314   4.920   4.861   3.955  0.3918 -0.2669  0.2973
 1472SOL    HW1 5315   4.891   4.912   4.036  1.9907  1.4933 -0.1698
 1472SOL    HW2 5316   4.976   4.783   3.983 -0.2434 -0.5099  0.9267
 1473SOL     OW 5317   6.498   0.940   2.469  0.1889 -0.0786  0.3115
 1473SOL    HW1 5318   6.540   1.031   2.475 -0.7949  0.6006 -1.8470
 1473SOL    HW2 5319   6.406   0.944   2.509  0.2312 -0.1750  0.4166
 1474SOL     OW 5320   0.171   0.003   3.788  0.1850  0.7589  0.3974
 1474SOL    HW1 5321   0.124  -0.010   3.700 -2.1329 -1.6281  1.8502
 1474SOL    HW2 5322   0.119  -0.042   3.860  3.8298 -0.4063  2.5009
 1475SOL     OW 5323   5.298   0.472   0.430 -0.2833 -0.5746  0.5643
 1475SOL    HW1 5324   5.252   0.421   0.358 -0.8551  0.3971  0.2262
 1475SOL    HW2 5325   5.239   0.478   0.510  0.5216 -2.0362  1.3192
 1476SOL     OW 5326   2.805   1.132   2.253 -0.1069 -0.8084 -0.1739
 1476SOL    HW1 5327   2.839   1.095   2.166 -0.2086  1.2609 -1.1370
 1476SOL    HW2 5328   2.706   1.134   2.252 -0.0938  0.6375 -0.6726
 1477SOL     OW 5329   1.712   5.040   0.102 -0.0300 -0.2239 -0.6268
 1477SOL    HW1 5330   1.706   4.962   0.040 -0.5133 -2.0543  1.5671
 1477SOL    HW2 5331   1.706   5.008   0.197  0.0762  2.4783  0.3976
 1478SOL     OW 5332   5.578   4.458   5.590 -0.3734  0.2397 -0.5462
 1478SOL    HW1 5333   5.580   4.362   5.619 -0.8184  0.5825  0.7013
 1478SOL    HW2 5334   5.515   4.509   5.649  1.6597  1.8065  0.3980
 1479SOL     OW 5335   0.873   6.750   6.633  0.6593 -0.3457  0.1491
 1479SOL    HW1 5336   0.931   6.709   6.704  0.0657  0.3912  1.0796
 1479SOL    HW2 5337   0.794   6.692   6.617  0.3613 -0.0969  0.7037
 1480SOL     OW 5338   3.144   5.997   1.833 -0.2261 -0.6072  0.1161
 1480SOL    HW1 5339   3.181   5.912   1.795 -1.0407 -0.6306 -0.6597
 1480SOL    HW2 5340   3.131   5.986   1.931 -1.2876 -1.7678 -0.1205
 1481SOL     OW 5341   5.988   2.724   5.907  0.3830  0.4759  0.2477
 1481SOL    HW1 5342   5.978   2.777   5.991  1.4203  0.4314  0.4027
 1481SOL    HW2 5343   5.938   2.638   5.916 -0.0146  0.7340  0.5752
 1482SOL     OW 5344   6.904   0.708   6.519 -0.4819 -0.6662 -0.2600
 1482SOL    HW1 5345   6.981   0.740   6.464 -0.8997 -1.0695 -1.0895
 1482SOL    HW2 5346   6.934   0.697   6.614  0.6855 -1.5006 -0.6976
 1483SOL     OW 5347   6.846   3.497   6.766  0.1216 -0.2883  0.1479
 1483SOL    HW1 5348   6.942   3.510   6.742  0.3318 -0.1728  1.0236
 1483SOL    HW2 5349   6.840   3.459   6.858 -0.7257  1.8370  1.0262
 1484SOL     OW 5350   6.393   5.039   1.406  0.6311  0.1223  0.0901
 1484SOL    HW1 5351   6.432   4.952   1.375  0.3178  0.0392 -0.0821
 1484SOL    HW2 5352   6.340   5.024   1.490  0.6276  0.1559  0.0938
 1485SOL     OW 5353   4.794   0.959   0.975 -0.0100  0.1067 -0.5720
 1485SOL    HW1 5354   4.892   0.974   0.990  0.2196 -0.7121 -1.1811
 1485SOL    HW2 5355   4.749   1.047   0.958  0.3218  0.6946  1.3000
 1486SOL     OW 5356   5.064   1.488   2.885  0.7560  0.1338  0.0543
 1486SOL    HW1 5357   4.975   1.450   2.859  0.9200 -0.0309 -0.2847
 1486SOL    HW2 5358   5.072   1.490   2.984 -0.4867  2.1901  0.1563
 1487SOL     OW 5359   6.064   3.140   0.807 -0.6594 -0.4368 -0.6392
 1487SOL    HW1 5360   6.059   3.219   0.868  0.1171 -1.1662  0.3971
 1487SOL    HW2 5361   6.059   3.056   0.860  0.3155 -1.0923 -1.5333
 1488SOL     OW 5362   1.300   2.111   3.437  0.0532 -0.3991  0.6491
 1488SOL    HW1 5363   1.256   2.178   3.376  1.4286 -0.6640 -0.6753
 1488SOL    HW2 5364   1.382   2.152   3.477  1.5754 -1.5913 -1.0856
 1489SOL     OW 5365   4.696   4.720   4.861  0.0531  0.0327 -0.4960
 1489SOL    HW1 5366   4.758   4.736   4.937 -0.2716  2.0015 -0.5932
 1489SOL    HW2 5367   4.748   4.706   4.777  0.4096  1.6726 -0.5770
 1490SOL     OW 5368   1.048   1.779   0.035 -0.0083 -0.3131 -0.0915
 1490SOL    HW1 5369   1.141   1.750   0.056  0.2726  0.0050 -0.8818
 1490SOL    HW2 5370   1.041   1.804  -0.061 -0.6039  0.8661  0.2349
 1491SOL     OW 5371   6.503   2.027   3.556  0.0512 -0.3741  0.2789
 1491SOL    HW1 5372   6.426   2.079   3.592 -0.5122 -1.8680  1.3679
 1491SOL    HW2 5373   6.563   2.087   3.504 -1.7747  0.8592 -0.5049
 1492SOL     OW 5374   0.742   2.178   1.871 -0.0689 -0.0963 -1.1595
 1492SOL    HW1 5375   0.702   2.239   1.803  0.0089 -1.4298 -2.4371
 1492SOL    HW2 5376   0.674   2.110   1.900  0.6295 -1.1118 -1.8307
 1493SOL     OW 5377   5.143   0.155   6.108 -0.2119 -0.2629 -0.1370
 1493SOL    HW1 5378   5.202   0.076   6.127  0.2123  0.5563  2.3916
 1493SOL    HW2 5379   5.188   0.239   6.141 -2.0435  0.6044  0.2874
 1494SOL     OW 5380   4.264   3.704   5.185  0.4766  0.1356  0.2591
 1494SOL    HW1 5381   4.340   3.651   5.224 -0.1688 -0.3214  0.9194
 1494SOL    HW2 5382   4.209   3.644   5.127 -0.0270  0.1742  0.6927
 1495SOL     OW 5383   1.483   3.467   4.246 -0.0126  0.1392 -0.4118
 1495SOL    HW1 5384   1.435   3.434   4.326 -0.6658  1.8532 -0.0455
 1495SOL    HW2 5385   1.542   3.395   4.209 -1.2192 -1.3033  0.4037
 1496SOL     OW 5386   6.898   0.780   0.867  0.5233 -0.3442 -0.0771
 1496SOL    HW1 5387   6.950   0.853   0.823 -3.4934  1.8006 -1.8012
 1496SOL    HW2 5388   6.928   0.692   0.832  2.0248  0.8629 -2.0329
 1497SOL     OW 5389   5.798   4.239   2.035 -0.7967 -0.5274 -0.2839
 1497SOL    HW1 5390   5.775   4.227   2.132  1.0959  1.3724  0.4878
 1497SOL    HW2 5391   5.786   4.336   2.011  1.0470 -0.5194 -1.2712
 1498SOL     OW 5392   1.375   5.839   6.451  0.1233 -0.1904  0.0155
 1498SOL    HW1 5393   1.421   5.793   6.374  1.1809  1.7531 -0.5760
 1498SOL    HW2 5394   1.391   5.787   6.535  2.3325 -0.2898 -0.4109
 1499SOL     OW 5395   2.527   2.892   5.407 -0.0643 -0.1653  0.0406
 1499SOL    HW1 5396   2.496   2.948   5.330 -0.0214  0.4016  0.4290
 1499SOL    HW2 5397   2.543   2.951   5.487 -1.4631 -0.9100  0.9131
 1500SOL     OW 5398   6.046   6.970   7.001  0.1926 -0.2556  0.1194
 1500SOL    HW1 5399   6.038   6.946   7.098  0.7384  1.3114  0.5772
 1500SOL    HW2 5400   5.985   6.912   6.948 -0.4471 -0.8497  1.4411
 1501SOL     OW 5401   5.392   1.401   0.033 -0.0441  0.0077  0.3025
 1501SOL    HW1 5402   5.457   1.354   0.093 -0.1316  0.6634  0.9221
 1501SOL    HW2 5403   5.320   1.444   0.088 -1.0229 -0.7257 -0.3820
 1502SOL     OW 5404   6.027   0.886   0.184 -0.2745 -0.0948  0.5462
 1502SOL    HW1 5405   5.979   0.921   0.265 -1.2268 -0.4637  0.1518
 1502SOL    HW2 5406   5.961   0.844   0.122  0.6789 -1.3990  0.3957
 1503SOL     OW 5407   1.431   4.360   2.824 -0.2287  0.1876  0.2067
 1503SOL    HW1 5408   1.522   4.373   2.785 -1.2833 -0.6024 -2.8059
 1503SOL    HW2 5409   1.423   4.266   2.857 -0.8351 -0.8460 -2.5491
 1504SOL     OW 5410   2.713   1.347   5.108 -0.1324  0.4174 -0.2996
 1504SOL    HW1 5411   2.666   1.369   5.194  1.5240  0.1877  0.7186
 1504SOL    HW2 5412   2.792   1.408   5.097  0.8191 -0.8232 -0.6295
 1505SOL     OW 5413   6.316   1.738   6.614 -0.0442  0.4076  0.7929
 1505SOL    HW1 5414   6.328   1.641   6.594 -2.0669  0.2313  0.2745
 1505SOL    HW2 5415   6.323   1.753   6.713  0.3917 -0.2427  0.8643
 1506SOL     OW 5416   1.122   5.294   4.318 -0.1690  0.0121  0.0411
 1506SOL    HW1 5417   1.119   5.194   4.323 -4.2357 -0.0250  0.2079
 1506SOL    HW2 5418   1.115   5.333   4.409 -1.6250  0.3388 -0.1796
 1507SOL     OW 5419   2.321   1.398   2.824 -0.3163  0.5157  0.3232
 1507SOL    HW1 5420   2.406   1.347   2.841  0.4041  2.0045  1.3997
 1507SOL    HW2 5421   2.286   1.434   2.911 -2.6737 -0.9525  0.0737
 1508SOL     OW 5422   5.378   6.874   2.310  0.2165 -0.3774 -0.1923
 1508SOL    HW1 5423   5.358   6.807   2.239  0.2005 -0.0328 -0.5151
 1508SOL    HW2 5424   5.477   6.879   2.325  0.3433  0.5482 -1.1832
 1509SOL     OW 5425   2.703   3.485   5.387  0.5337  0.7517 -0.0841
 1509SOL    HW1 5426   2.709   3.579   5.352 -0.0816  0.3899 -1.2045
 1509SOL    HW2 5427   2.664   3.487   5.480  0.6483  1.6125 -0.0444
 1510SOL     OW 5428   6.664   1.985   6.143 -0.0966  0.4853 -0.3432
 1510SOL    HW1 5429   6.672   1.911   6.076 -0.7758  0.7918 -0.7752
 1510SOL    HW2 5430   6.616   1.951   6.224 -1.0370  0.6212 -0.8270
 1511SOL     OW 5431   1.942   0.243   6.989 -0.3797  0.1800 -0.3754
 1511SOL    HW1 5432   1.878   0.167   6.994  1.4953 -1.4030  0.8130
 1511SOL    HW2 5433   2.011   0.224   6.920  0.0713  0.8305 -0.1133
 1512SOL     OW 5434   6.742   6.262   0.000  0.0257 -0.0664 -0.1831
 1512SOL    HW1 5435   6.651   6.256  -0.042 -0.0215 -1.6076  0.0862
 1512SOL    HW2 5436   6.812   6.256  -0.071 -0.0740 -0.1541 -0.2745
 1513SOL     OW 5437   5.039   2.134   3.063  0.4177 -0.5743 -0.0889
 1513SOL    HW1 5438   4.986   2.053   3.038 -0.4002 -0.0896  0.0331
 1513SOL    HW2 5439   4.977   2.209   3.086  1.1034  0.7330 -2.1759
 1514SOL     OW 5440   6.332   0.729   3.675  0.0891  0.3931  0.8986
 1514SOL    HW1 5441   6.284   0.777   3.748  0.7452 -2.4841  3.3872
 1514SOL    HW2 5442   6.275   0.655   3.640 -0.2634  1.7816 -1.7215
 1515SOL     OW 5443   6.613   2.596   0.394 -0.2356  0.0578  0.1094
 1515SOL    HW1 5444   6.610   2.616   0.296 -0.0812  0.2829  0.1494
 1515SOL    HW2 5445   6.670   2.664   0.440 -0.9141  0.3972  0.4665
 1516SOL     OW 5446   1.347   6.898   6.498  0.3597  0.0958 -0.3620
 1516SOL    HW1 5447   1.262   6.901   6.552  1.6357 -0.2077  1.7736
 1516SOL    HW2 5448   1.329   6.851   6.411 -1.2338 -1.7662  0.8804
 1517SOL     OW 5449   5.964   7.023   3.031  0.9153  0.1186 -0.2075
 1517SOL    HW1 5450   5.875   7.055   3.064  1.4862  1.1096  0.4355
 1517SOL    HW2 5451   5.950   6.956   2.959 -0.3903 -1.4852  1.4394
 1518SOL     OW 5452   0.186   3.301   6.109  0.1121 -0.2043  0.3558
 1518SOL    HW1 5453   0.225   3.393   6.114  0.5726 -0.4513  1.5092
 1518SOL    HW2 5454   0.237   3.246   6.043  0.4772  0.0622  0.4131
 1519SOL     OW 5455   0.469   3.775   1.653 -0.3399 -0.0289 -0.1510
 1519SOL    HW1 5456   0.508   3.829   1.727  0.0294  0.6084 -0.7951
 1519SOL    HW2 5457   0.409   3.704   1.691  1.6304 -1.2160  0.8653
 1520SOL     OW 5458   1.737   4.312   1.885 -0.4579  0.2815  0.2502
 1520SOL    HW1 5459   1.703   4.249   1.815 -0.6105  1.2064 -0.5272
 1520SOL    HW2 5460   1.662   4.369   1.918 -0.6934 -1.0511  2.1852
 1521SOL     OW 5461   4.043   4.022   5.201  0.1153  0.2139 -0.3558
 1521SOL    HW1 5462   4.138   4.043   5.177  1.2504 -1.1642  2.4062
 1521SOL    HW2 5463   3.996   4.105   5.230  1.3087  0.5420  0.7095
 1522SOL     OW 5464   5.538   1.657   6.780 -0.0052 -0.1175  0.0460
 1522SOL    HW1 5465   5.611   1.641   6.846  0.9949  1.0120 -0.7526
 1522SOL    HW2 5466   5.450   1.661   6.828  0.8964  3.1322  1.7369
 1523SOL     OW 5467   6.292   3.926   6.380  0.6828  0.4981 -0.1715
 1523SOL    HW1 5468   6.194   3.903   6.376  0.4298  1.3721  0.5885
 1523SOL    HW2 5469   6.338   3.863   6.442  0.3212  0.9248  0.5544
 1524SOL     OW 5470   2.497   2.400   3.698  0.5000 -0.0410 -0.2549
 1524SOL    HW1 5471   2.475   2.466   3.626  1.1373  0.0697 -0.3502
 1524SOL    HW2 5472   2.511   2.449   3.785 -2.7136 -0.3409  0.5798
 1525SOL     OW 5473   5.216   1.792   5.301 -0.1600  0.3014 -0.2028
 1525SOL    HW1 5474   5.280   1.746   5.363  1.0829 -0.1005 -1.6956
 1525SOL    HW2 5475   5.149   1.726   5.268 -0.0424  0.2105 -0.2604
 1526SOL     OW 5476   1.625   1.712   1.739  0.8099 -0.5165  0.7417
 1526SOL    HW1 5477   1.597   1.618   1.720 -1.9379  0.1719  1.0236
 1526SOL    HW2 5478   1.557   1.756   1.798  0.7909  2.3309 -1.1885
 1527SOL     OW 5479   2.681   2.051   3.697  0.3313 -0.0657 -0.0938
 1527SOL    HW1 5480   2.760   2.073   3.640  0.7229  1.3954  0.9621
 1527SOL    HW2 5481   2.708   2.054   3.793 -0.5249 -1.6347  0.2249
 1528SOL     OW 5482   5.983   6.603   3.988 -0.2255 -0.6874  0.3207
 1528SOL    HW1 5483   6.004   6.552   3.904  2.2635 -1.5628  1.3917
 1528SOL    HW2 5484   5.929   6.546   4.049  0.3493 -1.0825  0.4590
 1529SOL     OW 5485   5.177   1.538   0.167  0.4105  0.1995  0.2782
 1529SOL    HW1 5486   5.185   1.626   0.212  0.0459 -0.3959  1.5570
 1529SOL    HW2 5487   5.119   1.547   0.086  0.6928  1.1914  0.1694
 1530SOL     OW 5488   2.879   1.349   6.731  0.5697  0.0690 -0.1288
 1530SOL    HW1 5489   2.853   1.257   6.763  1.5324  0.1597  0.9739
 1530SOL    HW2 5490   2.800   1.409   6.737  0.4926 -0.1356  1.3368
 1531SOL     OW 5491   5.593   2.603   4.896  0.5311 -0.1019 -0.4693
 1531SOL    HW1 5492   5.546   2.574   4.813 -3.1923  0.9167  1.0842
 1531SOL    HW2 5493   5.615   2.523   4.952 -0.8493 -0.5684 -0.5566
 1532SOL     OW 5494   1.453   0.692   5.037  0.1934 -0.5245 -0.2809
 1532SOL    HW1 5495   1.486   0.755   5.108 -3.3869  0.4637  0.7253
 1532SOL    HW2 5496   1.504   0.706   4.953 -0.4626  3.9205 -0.1560
 1533SOL     OW 5497   1.751   3.618   1.546  0.2925 -0.3582 -0.6066
 1533SOL    HW1 5498   1.803   3.558   1.607 -0.9104 -0.1496  0.6836
 1533SOL    HW2 5499   1.811   3.692   1.514  0.8148 -0.1147  0.8323
 1534SOL     OW 5500   2.211   5.388   0.998 -0.0730 -0.4681  0.0828
 1534SOL    HW1 5501   2.282   5.321   0.975  1.0583  0.2689  1.2255
 1534SOL    HW2 5502   2.249   5.455   1.062 -1.1814  1.2245 -0.9540
 1535SOL     OW 5503   6.620   4.620   3.188  0.5082 -0.1969  0.0063
 1535SOL    HW1 5504   6.659   4.689   3.127 -0.1602  0.4695  0.3112
 1535SOL    HW2 5505   6.684   4.602   3.263  2.0469 -2.1727 -1.6477
 1536SOL     OW 5506   4.964   4.697   5.514  0.1609 -0.3779 -0.1991
 1536SOL    HW1 5507   4.879   4.655   5.547  0.0170 -0.8329 -1.1011
 1536SOL    HW2 5508   5.038   4.674   5.576 -0.3427 -0.1011  0.5202
 1537SOL     OW 5509   5.340   5.346   3.575  0.0044 -0.8030 -0.0766
 1537SOL    HW1 5510   5.262   5.290   3.546 -0.4180 -0.1441 -0.2470
 1537SOL    HW2 5511   5.398   5.293   3.637 -1.2764 -0.8912  1.1046
 1538SOL     OW 5512   5.849   5.937   6.186  0.0178  0.2479  0.3848
 1538SOL    HW1 5513   5.906   5.970   6.111 -1.3869 -0.7860 -1.2052
 1538SOL    HW2 5514   5.774   6.001   6.202  0.1508  0.3225  0.7121
 1539SOL     OW 5515   4.209   5.246   2.110  0.1935 -0.3936 -0.2756
 1539SOL    HW1 5516   4.218   5.259   2.209 -0.8121 -1.5579 -0.0082
 1539SOL    HW2 5517   4.244   5.155   2.085 -0.8443 -0.6796 -0.7625
 1540SOL     OW 5518   6.184   6.288   3.996  0.0037 -0.4640 -0.6124
 1540SOL    HW1 5519   6.180   6.279   3.897 -1.1367  1.9724 -0.8522
 1540SOL    HW2 5520   6.278   6.305   4.024  0.0527  1.1322 -1.5874
 1541SOL     OW 5521   4.488   1.470   0.837  0.2656  0.2653  0.5316
 1541SOL    HW1 5522   4.450   1.385   0.874  3.1107 -1.2078  0.3626
 1541SOL    HW2 5523   4.546   1.513   0.906 -0.6868  1.8006  0.4073
 1542SOL     OW 5524   6.690   6.769   1.363 -0.6115  0.1547 -0.2813
 1542SOL    HW1 5525   6.689   6.683   1.413 -1.8033  0.1448 -0.3077
 1542SOL    HW2 5526   6.718   6.753   1.269  0.4344  0.0005  0.0354
 1543SOL     OW 5527   3.927   3.686   1.927  0.1040 -0.1575 -0.0579
 1543SOL    HW1 5528   4.008   3.643   1.966  0.0996 -0.4473 -0.3724
 1543SOL    HW2 5529   3.869   3.617   1.885 -0.2557  0.0618  0.0687
 1544SOL     OW 5530   3.818   3.503   3.538  0.2090  0.1065  0.2595
 1544SOL    HW1 5531   3.880   3.479   3.464  0.3007  1.6670 -0.2016
 1544SOL    HW2 5532   3.750   3.568   3.505 -1.6865 -1.5457  0.7704
 1545SOL     OW 5533   4.510   6.939   6.219 -0.0794  0.6176 -0.3510
 1545SOL    HW1 5534   4.447   6.969   6.290 -1.0972 -2.5065  0.2118
 1545SOL    HW2 5535   4.481   6.850   6.183  1.9719  0.7910 -2.7426
 1546SOL     OW 5536   5.735   5.648   0.377  0.2187  0.2726 -0.3251
 1546SOL    HW1 5537   5.759   5.737   0.415  0.2737  0.7059 -1.3305
 1546SOL    HW2 5538   5.816   5.606   0.338 -0.3882  1.4066 -3.0630
 1547SOL     OW 5539   1.704   4.148   1.658  0.3448  0.2229  0.2575
 1547SOL    HW1 5540   1.759   4.211   1.603 -0.4249 -0.9780 -2.0493
 1547SOL    HW2 5541   1.727   4.054   1.634 -1.8151 -0.3247  0.1049
 1548SOL     OW 5542   3.629   3.512   6.014  0.1292  0.0240  0.2920
 1548SOL    HW1 5543   3.669   3.604   6.020 -0.1692  0.1287  0.7522
 1548SOL    HW2 5544   3.606   3.492   5.919  0.6333  0.2355  0.1200
 1549SOL     OW 5545   6.929   1.299   0.583  0.4898  0.1105 -0.0533
 1549SOL    HW1 5546   6.860   1.312   0.654 -0.2287  1.3544 -0.9346
 1549SOL    HW2 5547   6.895   1.234   0.516  1.3544 -1.4164  0.9300
 1550SOL     OW 5548   1.832   6.706   4.333 -0.6397  0.3965  0.3468
 1550SOL    HW1 5549   1.904   6.709   4.263 -1.8449  0.3479 -0.9396
 1550SOL    HW2 5550   1.817   6.612   4.361 -1.6806  0.1231 -1.0137
 1551SOL     OW 5551   2.448   3.051   0.848 -0.1760  0.1703  0.3084
 1551SOL    HW1 5552   2.421   3.090   0.936 -2.3465 -1.8313  0.6356
 1551SOL    HW2 5553   2.413   3.108   0.773 -0.7461  0.4021  0.7502
 1552SOL     OW 5554   1.667   0.400   6.827  0.4415 -0.6242  0.5248
 1552SOL    HW1 5555   1.641   0.305   6.814  1.6071 -0.8078 -0.6843
 1552SOL    HW2 5556   1.696   0.415   6.921 -0.7634 -1.1882  1.0039
 1553SOL     OW 5557   5.643   1.774   5.308 -0.1745 -0.4857  0.1859
 1553SOL    HW1 5558   5.690   1.838   5.369  1.3039 -2.1245  0.8755
 1553SOL    HW2 5559   5.624   1.819   5.221 -0.4172  1.2733  1.1050
 1554SOL     OW 5560   3.851   2.126   3.400 -0.2747  0.3668  0.0708
 1554SOL    HW1 5561   3.790   2.164   3.470  0.4440 -0.1031  0.9632
 1554SOL    HW2 5562   3.937   2.177   3.399  0.6680 -1.1298  1.2197
 1555SOL     OW 5563   5.827   2.892   4.638  0.0038  0.0320 -0.1438
 1555SOL    HW1 5564   5.731   2.870   4.651 -0.3497  1.3903 -0.3491
 1555SOL    HW2 5565   5.838   2.990   4.625  1.5785  0.1291  1.4521
 1556SOL     OW 5566   3.337   6.907   6.292 -0.6261 -0.1689  0.0054
 1556SOL    HW1 5567   3.331   6.860   6.204 -0.1878 -0.3640  0.0782
 1556SOL    HW2 5568   3.259   6.883   6.349 -0.3733 -0.8586  0.0663
 1557SOL     OW 5569   2.513   1.549   6.915  0.4498 -0.4331 -0.2120
 1557SOL    HW1 5570   2.560   1.635   6.933  0.8239 -0.3587 -1.4172
 1557SOL    HW2 5571   2.558   1.502   6.839 -1.2923 -0.4421 -1.2999
 1558SOL     OW 5572   0.314   1.219   6.530  0.4626  0.2234 -0.0510
 1558SOL    HW1 5573   0.355   1.141   6.579  1.6507  0.4124 -0.7083
 1558SOL    HW2 5574   0.364   1.302   6.553 -0.5663  0.7491  0.3479
 1559SOL     OW 5575   0.473   2.878   2.928 -0.5546  0.0150  0.4907
 1559SOL    HW1 5576   0.569   2.894   2.949  0.2888 -1.1854 -2.0054
 1559SOL    HW2 5577   0.430   2.965   2.901 -0.0888  0.4795  1.1951
 1560SOL     OW 5578   2.590   0.698   0.675 -0.0233 -0.0362 -0.2613
 1560SOL    HW1 5579   2.687   0.718   0.687 -0.0196 -1.1624  2.3490
 1560SOL    HW2 5580   2.536   0.761   0.730 -1.0085  1.9419 -3.2790
 1561SOL     OW 5581   6.089   5.807   4.112 -0.0766  0.8252  0.8108
 1561SOL    HW1 5582   6.070   5.869   4.036  0.7110  0.0880 -0.0141
 1561SOL    HW2 5583   6.004   5.782   4.158 -0.4984  1.6972  0.5073
 1562SOL     OW 5584   5.439   6.661   2.884  0.0856 -0.5235  0.6169
 1562SOL    HW1 5585   5.518   6.608   2.852  1.4324  1.0612  1.1909
 1562SOL    HW2 5586   5.440   6.665   2.984 -0.2247  0.2520  0.5940
 1563SOL     OW 5587   1.878   0.196   4.633  0.4788 -0.7032 -0.2448
 1563SOL    HW1 5588   1.779   0.195   4.618  0.3772 -0.0122  0.3414
 1563SOL    HW2 5589   1.915   0.105   4.612 -0.1625 -0.7730 -1.1745
 1564SOL     OW 5590   2.076   4.117   0.866  0.5480  0.7368  0.4589
 1564SOL    HW1 5591   2.013   4.148   0.938 -0.1629  1.4231 -0.4308
 1564SOL    HW2 5592   2.169   4.144   0.890  0.4770  0.0215  1.6276
 1565SOL     OW 5593   4.818   4.767   7.013 -0.4421  0.0459 -0.3132
 1565SOL    HW1 5594   4.759   4.793   6.936 -0.0238 -0.4037 -0.7841
 1565SOL    HW2 5595   4.783   4.683   7.054 -1.8558  1.3411  1.2742
 1566SOL     OW 5596   5.088   6.585   3.624  0.1115 -0.3158  0.9539
 1566SOL    HW1 5597   5.170   6.552   3.671 -0.0810 -0.7363  1.0009
 1566SOL    HW2 5598   5.025   6.626   3.691  0.3209  0.0969  0.9045
 1567SOL     OW 5599   0.043   3.680   2.044  0.6636 -0.0025  0.2814
 1567SOL    HW1 5600   0.016   3.590   2.010  1.2377  0.1400 -0.5829
 1567SOL    HW2 5601   0.139   3.697   2.022  0.6406  0.7088  0.6896
 1568SOL     OW 5602   2.584   1.597   2.927  0.5167 -0.5394  0.5903
 1568SOL    HW1 5603   2.635   1.595   2.841  1.8604  0.8158  1.3207
 1568SOL    HW2 5604   2.614   1.522   2.986  2.2318  0.6413  1.2872
 1569SOL     OW 5605   4.609   0.029   3.172  0.2197 -0.1960 -0.2721
 1569SOL    HW1 5606   4.558   0.073   3.246  0.4987 -0.7856  0.2848
 1569SOL    HW2 5607   4.706   0.053   3.179  0.2611 -0.3290 -0.3912
 1570SOL     OW 5608   4.410   5.358   4.975 -0.1962  0.7266 -0.0643
 1570SOL    HW1 5609   4.358   5.347   4.890  0.5390  1.2008 -0.5867
 1570SOL    HW2 5610   4.347   5.372   5.051 -0.9722 -1.7529 -0.1598
 1571SOL     OW 5611   1.498   2.701   4.304  0.5595 -0.2624 -0.2004
 1571SOL    HW1 5612   1.442   2.732   4.227  1.1646 -1.9450 -1.3946
 1571SOL    HW2 5613   1.447   2.712   4.389 -0.6699  0.3965 -0.9874
 1572SOL     OW 5614   2.125   5.504   3.470 -0.3993 -0.4352  0.2384
 1572SOL    HW1 5615   2.080   5.416   3.455  1.7973 -1.6359  0.2398
 1572SOL    HW2 5616   2.146   5.514   3.567 -0.7677  0.1729  0.2591
 1573SOL     OW 5617   5.476   5.784   1.820  0.0356  0.0482 -0.3677
 1573SOL    HW1 5618   5.504   5.714   1.886 -1.9423  0.7292  1.2868
 1573SOL    HW2 5619   5.549   5.851   1.810  0.7444 -0.5793  0.3961
 1574SOL     OW 5620   0.480   3.711   2.800 -0.1501  0.5013 -0.1528
 1574SOL    HW1 5621   0.418   3.652   2.852 -0.1621  0.0083 -0.7133
 1574SOL    HW2 5622   0.439   3.802   2.789 -0.3482  0.4691  0.3009
 1575SOL     OW 5623   1.480   1.315   3.546  0.2555  0.1740  0.5317
 1575SOL    HW1 5624   1.508   1.409   3.568 -0.4999  0.4841  0.1940
 1575SOL    HW2 5625   1.382   1.304   3.562  0.0123 -0.0832 -0.9662
 1576SOL     OW 5626   0.917   6.879   1.596  0.0571 -0.4121 -0.0225
 1576SOL    HW1 5627   0.867   6.792   1.592 -1.1732  0.2580  0.1844
 1576SOL    HW2 5628   1.008   6.867   1.557 -0.1337 -1.7611 -0.1131
 1577SOL     OW 5629   2.037   6.582   6.086 -0.3644  0.4675  0.5625
 1577SOL    HW1 5630   2.010   6.581   5.990 -3.2014 -0.8469  1.2808
 1577SOL    HW2 5631   2.075   6.492   6.111  1.5940  1.2111  0.4143
 1578SOL     OW 5632   5.184   1.168   5.504  0.1429 -0.0221  0.4772
 1578SOL    HW1 5633   5.148   1.188   5.413  0.0874  1.6205  0.8291
 1578SOL    HW2 5634   5.227   1.077   5.504  2.0283  0.7919 -1.7411
 1579SOL     OW 5635   6.909   2.012   2.037  0.0439 -0.2811 -0.4560
 1579SOL    HW1 5636   6.836   2.011   2.104 -0.5133  2.4540 -0.8710
 1579SOL    HW2 5637   6.997   2.003   2.083 -0.3229  1.5254  0.7297
 1580SOL     OW 5638   3.543   4.201   4.013 -0.0390  0.1215  0.5106
 1580SOL    HW1 5639   3.589   4.289   4.000  1.1578 -0.8123 -2.2910
 1580SOL    HW2 5640   3.611   4.127   4.012 -1.3379 -1.1227 -1.4676
 1581SOL     OW 5641   0.260   6.045   5.798 -0.2192  0.4801 -0.2431
 1581SOL    HW1 5642   0.167   6.027   5.831  0.3912  0.1334  1.3930
 1581SOL    HW2 5643   0.287   5.971   5.736 -0.3146 -0.5294  0.8740
 1582SOL     OW 5644   3.995   4.859   4.848 -0.2316 -0.2426 -0.0448
 1582SOL    HW1 5645   3.975   4.770   4.889  1.1708 -0.1772  0.8630
 1582SOL    HW2 5646   4.087   4.858   4.810 -0.8280  0.3090 -1.5568
 1583SOL     OW 5647   6.629   0.040   5.907 -0.3733 -0.5914 -0.0870
 1583SOL    HW1 5648   6.720  -0.000   5.922  0.4591  1.5650  1.1224
 1583SOL    HW2 5649   6.635   0.109   5.834 -0.8213  0.1757  0.5883
 1584SOL     OW 5650   0.321   4.779   4.114  0.9507  0.2588 -0.3261
 1584SOL    HW1 5651   0.334   4.798   4.211  0.4197 -1.8441  0.1979
 1584SOL    HW2 5652   0.401   4.809   4.063  1.6839  0.4347  0.8975
 1585SOL     OW 5653   4.348   0.771   3.313 -0.3555 -0.2008 -0.0417
 1585SOL    HW1 5654   4.387   0.720   3.237  3.0815  0.8047  0.8853
 1585SOL    HW2 5655   4.345   0.712   3.394  2.5454  0.5495  0.7304
 1586SOL     OW 5656   3.617   5.641   3.090  0.1611  0.7660 -0.1929
 1586SOL    HW1 5657   3.588   5.736   3.077 -0.5387  0.4445 -1.0466
 1586SOL    HW2 5658   3.539   5.586   3.118  0.5593  0.4207  0.2580
 1587SOL     OW 5659   2.824   5.383   4.547  0.4735 -0.1442  0.6239
 1587SOL    HW1 5660   2.902   5.333   4.585  0.2168  0.6519  2.2820
 1587SOL    HW2 5661   2.746   5.374   4.608  0.6013  2.7769  1.3628
 1588SOL     OW 5662   6.288   1.627   3.871  0.9436 -0.5900 -0.2118
 1588SOL    HW1 5663   6.366   1.678   3.834  0.0023 -0.2112 -1.7824
 1588SOL    HW2 5664   6.318   1.572   3.949  2.7648 -0.4406 -0.7568
 1589SOL     OW 5665   6.428   2.590   1.828 -0.1484 -0.0150  0.4037
 1589SOL    HW1 5666   6.489   2.665   1.801 -2.1117  2.4054  2.3008
 1589SOL    HW2 5667   6.472   2.536   1.899  1.1871 -0.5893 -0.8006
 1590SOL     OW 5668   6.451   2.114   5.263  0.2080 -0.2258 -0.3164
 1590SOL    HW1 5669   6.518   2.127   5.189 -0.0132 -1.9226 -0.8574
 1590SOL    HW2 5670   6.412   2.203   5.288 -0.6798  0.2789 -3.1590
 1591SOL     OW 5671   6.373   5.995   0.961  0.6956 -0.1635  0.2691
 1591SOL    HW1 5672   6.415   6.001   1.052  1.7243 -0.1437 -0.1996
 1591SOL    HW2 5673   6.429   6.044   0.895 -2.5249  4.3018  0.3995
 1592SOL     OW 5674   3.331   4.175   0.164  0.7230  0.3260  0.3969
 1592SOL    HW1 5675   3.406   4.240   0.179 -0.3701  1.5107  0.8173
 1592SOL    HW2 5676   3.273   4.208   0.090  1.3220 -1.2653 -0.8577
 1593SOL     OW 5677   1.314   3.014   5.803 -0.2453  0.1975 -0.3607
 1593SOL    HW1 5678   1.296   2.964   5.887  0.3267  1.1674  0.3516
 1593SOL    HW2 5679   1.229   3.055   5.770 -0.0280  2.0095  1.2014
 1594SOL     OW 5680   0.238   6.006   1.483 -0.4413 -0.0182  0.0581
 1594SOL    HW1 5681   0.272   6.011   1.390 -0.2447 -0.7373  0.0839
 1594SOL    HW2 5682   0.228   6.098   1.521  2.1794  0.2346  0.3074
 1595SOL     OW 5683   1.861   5.448   6.894 -0.0084  0.5600 -0.2670
 1595SOL    HW1 5684   1.814   5.362   6.874 -0.8751  0.8907  0.2881
 1595SOL    HW2 5685   1.946   5.452   6.843 -1.5581  0.8766 -3.0393
 1596SOL     OW 5686   5.195   1.846   3.744 -0.3404  0.0094  0.2290
 1596SOL    HW1 5687   5.279   1.796   3.765 -0.8713 -0.0313  2.5929
 1596SOL    HW2 5688   5.210   1.908   3.667  1.6346 -0.4785  0.1795
 1597SOL     OW 5689   2.983   5.061   1.718  0.2377  0.1693  0.1632
 1597SOL    HW1 5690   2.947   4.983   1.770 -0.3065  1.0113  1.0833
 1597SOL    HW2 5691   3.061   5.031   1.663 -0.9882 -1.4169 -0.8369
 1598SOL     OW 5692   1.420   3.722   1.692 -0.0103  0.1805 -0.5350
 1598SOL    HW1 5693   1.431   3.645   1.630 -0.3043  1.1623 -1.8590
 1598SOL    HW2 5694   1.509   3.754   1.723  0.1508 -0.2029 -0.6031
 1599SOL     OW 5695   5.072   4.364   5.791 -0.1930  0.7058  0.9454
 1599SOL    HW1 5696   5.116   4.276   5.807  0.4916  1.0850  1.1950
 1599SOL    HW2 5697   4.994   4.352   5.730  0.1507 -0.0074  0.6386
 1600SOL     OW 5698   3.721   0.386   1.660 -0.2731  0.0166 -0.1123
 1600SOL    HW1 5699   3.762   0.338   1.737 -1.5639 -1.2298 -0.1662
 1600SOL    HW2 5700   3.739   0.484   1.668  2.4053 -0.4129  0.0066
 1601SOL     OW 5701   0.272   5.578   4.052 -0.0252  0.2974  0.2499
 1601SOL    HW1 5702   0.254   5.662   4.103 -0.5149 -0.8634  2.1104
 1601SOL    HW2 5703   0.187   5.546   4.011  0.3253  1.1130 -1.1648
 1602SOL     OW 5704   5.393   5.053   4.853 -0.2862 -0.5353 -0.2475
 1602SOL    HW1 5705   5.416   4.956   4.858  0.5241 -0.2937  1.0778
 1602SOL    HW2 5706   5.302   5.068   4.891  0.0816 -0.6290  0.6940
 1603SOL     OW 5707   2.263   4.856   3.183 -1.0277 -0.3223 -0.4135
 1603SOL    HW1 5708   2.297   4.819   3.269 -2.6581  0.7436  0.7392
 1603SOL    HW2 5709   2.339   4.896   3.131 -0.2437  0.4354  1.2508
 1604SOL     OW 5710   3.998   4.570   0.669  0.5474 -0.6195  0.5335
 1604SOL    HW1 5711   3.918   4.534   0.715  0.5890 -1.4529 -0.0224
 1604SOL    HW2 5712   4.060   4.611   0.736 -0.3401  0.0610  0.9615
 1605SOL     OW 5713   0.969   7.019   0.877 -0.3529  0.0674 -0.4692
 1605SOL    HW1 5714   0.905   6.997   0.803 -0.6517  0.7007 -0.4057
 1605SOL    HW2 5715   1.062   7.016   0.842 -0.3222 -1.8816 -0.3182
 1606SOL     OW 5716   3.733   6.288   4.775 -0.1709 -0.3334 -0.3316
 1606SOL    HW1 5717   3.726   6.280   4.874  0.2575  0.0029 -0.2699
 1606SOL    HW2 5718   3.802   6.224   4.741 -2.1523 -2.3838 -0.7344
 1607SOL     OW 5719   3.479   6.357   0.640 -0.5809  0.1743  0.2602
 1607SOL    HW1 5720   3.513   6.450   0.634  0.2967 -0.1462  0.1818
 1607SOL    HW2 5721   3.440   6.341   0.731  0.3384  0.2650  0.6798
 1608SOL     OW 5722   0.940   1.618   3.169  0.2111 -0.7221  0.4187
 1608SOL    HW1 5723   1.029   1.640   3.210 -0.0432 -1.1967  1.2597
 1608SOL    HW2 5724   0.908   1.696   3.116  0.0266  0.3864  2.0847
 1609SOL     OW 5725   3.027   5.616   1.047 -0.3078  0.2073  0.4309
 1609SOL    HW1 5726   3.116   5.656   1.021 -0.4659  1.1432  1.2426
 1609SOL    HW2 5727   3.038   5.564   1.131 -0.1030 -1.5451 -0.6337
 1610SOL     OW 5728   5.940   6.745   1.801  0.8906  0.3629  0.5446
 1610SOL    HW1 5729   5.994   6.721   1.881  1.3042  1.2506  0.5421
 1610SOL    HW2 5730   5.998   6.791   1.734  0.6130 -0.5714 -0.3830
 1611SOL     OW 5731   1.277   2.298   0.659 -0.0713 -0.3592  0.0542
 1611SOL    HW1 5732   1.241   2.289   0.752  0.3253 -1.6194  0.1131
 1611SOL    HW2 5733   1.299   2.207   0.623 -1.0895  0.0325 -1.6405
 1612SOL     OW 5734   3.463   0.076   2.591 -0.4632  0.0109 -0.4226
 1612SOL    HW1 5735   3.417   0.133   2.659 -2.1617 -2.1137  0.3600
 1612SOL    HW2 5736   3.439   0.107   2.499 -0.5926  1.0933 -0.0344
 1613SOL     OW 5737   6.795   6.220   0.967  0.0502  0.1235  0.1731
 1613SOL    HW1 5738   6.800   6.156   1.043  3.1158 -0.1181 -0.0872
 1613SOL    HW2 5739   6.860   6.295   0.982 -0.5781  1.0307 -1.3730
 1614SOL     OW 5740   6.010   0.443   4.383 -0.4655  0.1416 -0.6141
 1614SOL    HW1 5741   5.996   0.513   4.312  1.0634  1.0179 -0.1003
 1614SOL    HW2 5742   6.017   0.487   4.472  1.1333 -0.5793 -0.3470
 1615SOL     OW 5743   0.031   6.304   0.815 -0.1039 -0.3411 -0.1858
 1615SOL    HW1 5744   0.058   6.215   0.778 -0.3856  0.1499 -1.6358
 1615SOL    HW2 5745   0.087   6.376   0.775 -1.4306  0.3681 -0.8578
 1616SOL     OW 5746   4.802   1.266   2.099  0.0146 -0.2177 -0.1213
 1616SOL    HW1 5747   4.867   1.222   2.161  0.0915 -0.5990 -0.4659
 1616SOL    HW2 5748   4.792   1.210   2.016 -1.8851 -0.9458  0.5539
 1617SOL     OW 5749   4.251   6.652   2.695 -0.5098  0.0155 -0.2383
 1617SOL    HW1 5750   4.258   6.627   2.598 -0.0591  0.4576 -0.3215
 1617SOL    HW2 5751   4.179   6.720   2.707 -0.1911  0.3743 -0.3464
 1618SOL     OW 5752   0.584   6.316   1.974 -0.1384 -0.1843 -0.4232
 1618SOL    HW1 5753   0.485   6.303   1.982  0.0278 -0.9566  0.5100
 1618SOL    HW2 5754   0.631   6.228   1.982  0.6238  0.1473 -1.0641
 1619SOL     OW 5755   0.375   4.477   0.836  0.3189  0.7544 -0.4273
 1619SOL    HW1 5756   0.329   4.463   0.748  1.7632 -2.2668 -0.8422
 1619SOL    HW2 5757   0.316   4.445   0.910  0.2580  0.4826 -0.5928
 1620SOL     OW 5758   4.215   4.284   1.237 -0.5965  0.0260  0.0863
 1620SOL    HW1 5759   4.290   4.230   1.199 -0.7190  0.6178 -1.0218
 1620SOL    HW2 5760   4.127   4.246   1.207 -0.6814  0.9375 -0.8597
 1621SOL     OW 5761   1.283   0.144   1.002 -0.3803 -0.1180 -0.0843
 1621SOL    HW1 5762   1.358   0.206   0.981 -1.2162  0.6529 -0.8763
 1621SOL    HW2 5763   1.320   0.054   1.028  0.8942  0.9870  2.1867
 1622SOL     OW 5764   1.005   3.763   6.806  0.4248  0.4497  0.5284
 1622SOL    HW1 5765   1.051   3.797   6.724  0.2031  0.9630  0.6155
 1622SOL    HW2 5766   0.950   3.836   6.846 -1.0933 -0.3509 -0.0027
 1623SOL     OW 5767   1.575   3.145   6.325  0.9872  0.3874 -0.3028
 1623SOL    HW1 5768   1.566   3.230   6.378  2.5132  0.4698 -0.1531
 1623SOL    HW2 5769   1.650   3.154   6.260  3.0128 -1.7494  1.5693
 1624SOL     OW 5770   4.634   6.792   5.183  0.1800  0.1119  0.3412
 1624SOL    HW1 5771   4.549   6.827   5.223 -0.8166 -0.0269 -1.5397
 1624SOL    HW2 5772   4.619   6.698   5.150  1.0207  0.1342 -0.1276
 1625SOL     OW 5773   2.939   3.412   0.126 -0.1424  0.0413  0.2018
 1625SOL    HW1 5774   2.920   3.506   0.098 -2.9918 -0.6738 -0.5670
 1625SOL    HW2 5775   2.897   3.348   0.062 -0.5113 -1.7495  2.0868
 1626SOL     OW 5776   3.156   0.916   2.864  0.3332  0.5947  0.3835
 1626SOL    HW1 5777   3.117   0.965   2.942  0.3954 -0.3964  1.0625
 1626SOL    HW2 5778   3.175   0.980   2.790  0.2574  1.5576  1.1764
 1627SOL     OW 5779   4.896   3.637   4.413 -0.3830  0.3676  0.6172
 1627SOL    HW1 5780   4.801   3.624   4.441 -0.3649  1.7931  1.3860
 1627SOL    HW2 5781   4.949   3.557   4.440 -1.4928 -0.8262 -0.5542
 1628SOL     OW 5782   3.586   6.696   1.430  0.4382  0.4777 -0.3058
 1628SOL    HW1 5783   3.633   6.684   1.343  1.4695 -0.7340  0.3923
 1628SOL    HW2 5784   3.589   6.611   1.482 -2.0941  0.4965  0.0042
 1629SOL     OW 5785   2.025   3.107   4.333  0.4428 -0.5268  0.1256
 1629SOL    HW1 5786   2.107   3.164   4.343 -0.7367  1.3367 -0.3808
 1629SOL    HW2 5787   2.013   3.082   4.237 -1.0775  1.6307 -0.3088
 1630SOL     OW 5788   6.079   0.890   5.362  0.3451 -0.3771  0.3676
 1630SOL    HW1 5789   6.107   0.921   5.272  2.4576  0.8711  1.3785
 1630SOL    HW2 5790   5.984   0.917   5.378  0.1881  0.0684 -1.1650
 1631SOL     OW 5791   1.548   4.695   0.654  0.2612  0.3911  0.3594
 1631SOL    HW1 5792   1.557   4.653   0.564  2.6677  1.3414  0.0609
 1631SOL    HW2 5793   1.525   4.791   0.643  1.9761  0.8710  0.6157
 1632SOL     OW 5794   3.630   1.040   2.418  0.9689 -0.4506  0.3442
 1632SOL    HW1 5795   3.606   1.137   2.406 -1.7004 -1.2204 -1.6260
 1632SOL    HW2 5796   3.685   1.010   2.340 -1.1836 -1.2622 -0.9481
 1633SOL     OW 5797   5.360   0.091   5.336 -0.1248 -0.0382  0.4176
 1633SOL    HW1 5798   5.349   0.068   5.239  1.3894  0.3995  0.1136
 1633SOL    HW2 5799   5.455   0.075   5.364 -0.0127  1.8189  1.2600
 1634SOL     OW 5800   6.467   1.957   4.188 -0.6017 -0.0413  0.5748
 1634SOL    HW1 5801   6.435   1.943   4.281  1.0818 -1.5344  0.9884
 1634SOL    HW2 5802   6.509   1.873   4.154  4.1692  1.9561  0.6889
 1635SOL     OW 5803   0.913   5.390   5.714  0.2555  0.5079 -0.1082
 1635SOL    HW1 5804   0.841   5.456   5.737  0.1356  0.4805 -0.4001
 1635SOL    HW2 5805   0.996   5.438   5.687  0.1279  0.5410 -0.4455
 1636SOL     OW 5806   4.642   6.725   2.991 -0.0411  0.1825  0.0841
 1636SOL    HW1 5807   4.709   6.796   3.015  0.9852  0.1745 -2.4715
 1636SOL    HW2 5808   4.553   6.768   2.978  0.4200  0.9283 -0.7545
 1637SOL     OW 5809   1.060   0.099   2.565 -0.4960  0.1602  0.5126
 1637SOL    HW1 5810   1.059   0.199   2.568  0.1262  0.1949 -0.0818
 1637SOL    HW2 5811   1.124   0.064   2.633 -0.3787  0.1820  0.4127
 1638SOL     OW 5812   6.308   3.781   3.745 -0.1297  0.1490 -0.4055
 1638SOL    HW1 5813   6.372   3.716   3.786  0.0095  0.6266  0.1485
 1638SOL    HW2 5814   6.220   3.737   3.731 -0.4089  0.1758  1.1020
 1639SOL     OW 5815   5.662   5.077   1.836  0.3193  0.5327  0.3619
 1639SOL    HW1 5816   5.651   4.987   1.795  1.5222  1.7760 -3.0918
 1639SOL    HW2 5817   5.759   5.099   1.844  0.0678  2.1523 -0.5599
 1640SOL     OW 5818   5.169   5.326   6.066  0.0405 -0.1768 -0.0170
 1640SOL    HW1 5819   5.249   5.353   6.120 -0.3554  1.3095 -0.1126
 1640SOL    HW2 5820   5.106   5.273   6.123  1.4893 -2.1646 -0.1990
 1641SOL     OW 5821   6.664   2.419   4.276 -0.5059  0.7651  0.4170
 1641SOL    HW1 5822   6.736   2.414   4.345  0.8650  0.2717 -0.9987
 1641SOL    HW2 5823   6.682   2.494   4.214 -0.0564 -0.5993 -1.1637
 1642SOL     OW 5824   5.900   3.284   5.744  0.2676 -0.1414  0.6565
 1642SOL    HW1 5825   5.837   3.353   5.780  0.9548  0.0576  1.5076
 1642SOL    HW2 5826   5.861   3.193   5.758 -0.1875  0.0140  0.4366
 1643SOL     OW 5827   1.752   5.103   1.884  0.5339 -0.2181  0.0491
 1643SOL    HW1 5828   1.738   5.120   1.786 -0.2835 -0.0000  0.2010
 1643SOL    HW2 5829   1.675   5.140   1.936  1.3502  0.4189  0.8537
 1644SOL     OW 5830   5.973   3.127   6.397 -0.2795 -0.9507 -1.0005
 1644SOL    HW1 5831   5.948   3.032   6.418  0.7862 -0.9833  0.2558
 1644SOL    HW2 5832   6.035   3.161   6.468  0.1433  0.3618 -1.9724
 1645SOL     OW 5833   2.482   5.153   6.426 -0.5290  0.0826  0.2879
 1645SOL    HW1 5834   2.446   5.060   6.439  0.0264 -0.1077  0.4698
 1645SOL    HW2 5835   2.440   5.214   6.493  0.6319 -0.4469  1.5266
 1646SOL     OW 5836   2.180   6.782   0.338 -0.0423  0.5234 -0.5235
 1646SOL    HW1 5837   2.214   6.729   0.416 -1.1734  0.1692 -0.2562
 1646SOL    HW2 5838   2.140   6.867   0.371  0.8436  1.0891 -0.8672
 1647SOL     OW 5839   6.863   0.415   4.569 -0.5720 -0.4114  0.5842
 1647SOL    HW1 5840   6.922   0.461   4.635 -0.8738  0.9885 -0.0830
 1647SOL    HW2 5841   6.793   0.364   4.618 -1.0563  0.9449  1.3678
 1648SOL     OW 5842   5.420   1.691   1.245 -0.6963  0.0334  0.0367
 1648SOL    HW1 5843   5.403   1.603   1.291 -2.2581  1.0918  1.5977
 1648SOL    HW2 5844   5.497   1.737   1.288  0.2223 -0.5884 -0.8816
 1649SOL     OW 5845   2.266   1.559   3.541  0.3114 -0.6976  0.5146
 1649SOL    HW1 5846   2.173   1.526   3.527 -0.2429 -0.6527  3.3622
 1649SOL    HW2 5847   2.271   1.656   3.518 -0.7025 -0.4046  1.4039
 1650SOL     OW 5848   1.829   0.229   3.806  0.1813  0.3619  0.0151
 1650SOL    HW1 5849   1.814   0.243   3.708  0.7236  0.6696 -0.0302
 1650SOL    HW2 5850   1.783   0.302   3.857  0.6983  0.7520 -0.0680
 1651SOL     OW 5851   0.681   0.854   3.575 -0.0019  0.0595 -0.3807
 1651SOL    HW1 5852   0.758   0.894   3.624 -0.1343 -0.8942  0.6561
 1651SOL    HW2 5853   0.712   0.818   3.487  0.9879 -1.2207  0.4474
 1652SOL     OW 5854   0.826   3.022   2.402 -0.0632 -0.3212 -0.4623
 1652SOL    HW1 5855   0.914   3.067   2.413 -0.0463 -0.2280 -0.9595
 1652SOL    HW2 5856   0.758   3.067   2.461  0.0635  0.0594 -0.6020
 1653SOL     OW 5857   6.995   5.267   0.258 -0.0635 -0.1760 -0.6068
 1653SOL    HW1 5858   6.965   5.357   0.227 -2.5771 -0.2479  1.3233
 1653SOL    HW2 5859   6.953   5.197   0.201 -0.1918 -0.1946 -0.4878
 1654SOL     OW 5860   5.403   3.399   1.454 -0.5448 -0.0287  0.7190
 1654SOL    HW1 5861   5.432   3.420   1.547  0.0075 -0.1832  0.5842
 1654SOL    HW2 5862   5.452   3.318   1.421  2.2061  2.2131 -1.0993
 1655SOL     OW 5863   6.061   6.793   4.737  0.5703  0.7892  0.1229
 1655SOL    HW1 5864   6.112   6.840   4.665 -0.2911  1.6686  0.0651
 1655SOL    HW2 5865   5.965   6.820   4.733  0.1319 -0.6491  0.3773
 1656SOL     OW 5866   1.396   5.276   1.882  0.1101 -0.5675  0.4626
 1656SOL    HW1 5867   1.362   5.186   1.910  0.6774 -0.8757  0.1901
 1656SOL    HW2 5868   1.369   5.294   1.787 -1.7376  0.4396  1.1419
 1657SOL     OW 5869   1.677   1.118   3.917  0.4923  0.1565  0.1438
 1657SOL    HW1 5870   1.748   1.052   3.941  1.4816  1.4973  1.0324
 1657SOL    HW2 5871   1.716   1.210   3.914 -0.8339  0.7177 -1.1543
 1658SOL     OW 5872   6.620   1.799   0.079  0.0542 -0.9829  0.5748
 1658SOL    HW1 5873   6.574   1.846   0.154 -0.4548 -1.4614  0.5661
 1658SOL    HW2 5874   6.577   1.710   0.063 -0.9350 -0.2446 -1.3260
 1659SOL     OW 5875   4.448   6.575   6.837  0.2438 -0.3584 -0.3703
 1659SOL    HW1 5876   4.486   6.617   6.755  1.0231  0.7202  0.5151
 1659SOL    HW2 5877   4.389   6.641   6.884 -1.1565 -1.3549 -0.6539
 1660SOL     OW 5878   4.061   6.065   3.556 -0.3329  0.1148  0.5785
 1660SOL    HW1 5879   4.151   6.081   3.595 -1.1959  1.1336  2.2628
 1660SOL    HW2 5880   4.070   6.043   3.459  1.8967 -2.5719  1.2868
 1661SOL     OW 5881   1.873   6.673   0.442  0.4714 -0.5936 -0.1116
 1661SOL    HW1 5882   1.819   6.671   0.358 -0.6892 -0.9846  0.6146
 1661SOL    HW2 5883   1.906   6.766   0.458  0.4330 -0.4488 -0.8318
 1662SOL     OW 5884   6.986   6.766   5.395  0.4331 -0.2624 -0.2975
 1662SOL    HW1 5885   7.076   6.797   5.423  0.1354  0.1378  0.2434
 1662SOL    HW2 5886   6.925   6.845   5.384 -0.1714 -0.5981  0.5054
 1663SOL     OW 5887   4.548   4.356   4.112 -0.2069 -0.3929 -0.0690
 1663SOL    HW1 5888   4.618   4.304   4.162 -1.3148 -1.6521  0.2289
 1663SOL    HW2 5889   4.582   4.378   4.020  1.9736  2.2066  1.2274
 1664SOL     OW 5890   0.803   5.605   6.198 -0.4447  0.2384 -0.2701
 1664SOL    HW1 5891   0.779   5.601   6.295 -0.1580 -2.1422 -0.2446
 1664SOL    HW2 5892   0.896   5.640   6.188 -0.8417  1.4793  0.2171
 1665SOL     OW 5893   0.283   3.498   0.419  0.0236 -0.3515  0.0507
 1665SOL    HW1 5894   0.346   3.462   0.487  0.9143  1.2507  0.1071
 1665SOL    HW2 5895   0.203   3.537   0.464  0.7454  0.9668  0.2297
 1666SOL     OW 5896   5.979   1.934   0.840 -0.1085  0.1162 -0.1243
 1666SOL    HW1 5897   5.956   1.985   0.923 -2.7685  0.3409 -0.9139
 1666SOL    HW2 5898   5.944   1.840   0.848  1.2914 -0.4411 -0.2646
 1667SOL     OW 5899   5.795   6.977   1.543 -0.2404  0.2123 -0.5182
 1667SOL    HW1 5900   5.817   6.968   1.641  1.7426  1.0364 -0.8501
 1667SOL    HW2 5901   5.768   7.071   1.524 -0.1976  0.1559 -0.8517
 1668SOL     OW 5902   4.815   4.248   4.237  0.0956  0.0625  0.0523
 1668SOL    HW1 5903   4.884   4.321   4.233  0.5554 -0.2563  1.4964
 1668SOL    HW2 5904   4.858   4.161   4.215 -0.2674  0.0918 -0.8237
 1669SOL     OW 5905   5.306   5.580   4.602  0.1474 -0.3241  0.3173
 1669SOL    HW1 5906   5.242   5.624   4.665 -0.3201 -0.7526  0.1429
 1669SOL    HW2 5907   5.390   5.634   4.597 -0.4834  0.6432 -0.0228
 1670SOL     OW 5908   6.688   4.798   5.893 -0.8339  0.2003  0.2798
 1670SOL    HW1 5909   6.612   4.734   5.904  0.8345 -2.2738 -1.6378
 1670SOL    HW2 5910   6.680   4.845   5.805  0.5536 -1.1741 -0.6205
 1671SOL     OW 5911   0.951   1.069   2.543 -0.2077  0.3308 -0.1137
 1671SOL    HW1 5912   1.036   1.075   2.595 -0.2737 -0.3117  0.0741
 1671SOL    HW2 5913   0.970   1.086   2.446  0.1238  0.2632 -0.0628
 1672SOL     OW 5914   5.087   2.505   5.860  0.4307 -0.1273  0.5940
 1672SOL    HW1 5915   5.119   2.479   5.950  0.0290  0.4447  0.9103
 1672SOL    HW2 5916   5.143   2.461   5.790  2.0426  0.9804  1.1257
 1673SOL     OW 5917   0.372   2.137   5.145 -0.0099  0.0989 -1.0544
 1673SOL    HW1 5918   0.447   2.203   5.139  1.3315 -0.7279  3.3100
 1673SOL    HW2 5919   0.292   2.182   5.184  0.7240 -0.6081  1.3873
 1674SOL     OW 5920   6.826   4.344   1.625 -0.2265 -0.3960  0.3198
 1674SOL    HW1 5921   6.858   4.343   1.719 -0.9203 -1.1050  0.5543
 1674SOL    HW2 5922   6.728   4.326   1.622 -0.3053  0.0764 -0.5083
 1675SOL     OW 5923   5.493   1.015   6.195 -0.2111 -0.0832  0.5447
 1675SOL    HW1 5924   5.394   1.025   6.201 -0.1376  0.1562  1.6290
 1675SOL    HW2 5925   5.528   0.982   6.283  0.7486  0.5833  0.4246
 1676SOL     OW 5926   0.994   2.245   3.126 -0.2921 -0.1340  0.0222
 1676SOL    HW1 5927   0.988   2.286   3.035  0.2967  1.0076  0.4811
 1676SOL    HW2 5928   1.082   2.268   3.167 -0.8645  0.0405  1.1924
 1677SOL     OW 5929   2.975   3.904   3.157 -0.2176 -0.4357  0.1589
 1677SOL    HW1 5930   3.032   3.921   3.077  0.5537 -0.2140  0.7430
 1677SOL    HW2 5931   2.892   3.857   3.129  1.0085 -2.3394 -0.5026
 1678SOL     OW 5932   6.701   4.646   1.948 -0.3165  0.3884  0.1241
 1678SOL    HW1 5933   6.696   4.746   1.946 -0.8186  0.3783  0.4958
 1678SOL    HW2 5934   6.738   4.617   2.036  2.0072  0.3025 -0.8260
 1679SOL     OW 5935   0.624   7.021   5.382  0.2425  0.1667  0.2128
 1679SOL    HW1 5936   0.639   7.052   5.476 -0.0636 -0.2684  0.4076
 1679SOL    HW2 5937   0.532   7.047   5.353 -0.6804 -1.9932  0.9780
 1680SOL     OW 5938   6.709   5.674   6.541 -0.3632 -0.1813  0.1944
 1680SOL    HW1 5939   6.766   5.754   6.522 -1.8239  1.1014  0.9598
 1680SOL    HW2 5940   6.671   5.639   6.456  2.0549 -1.5057 -0.4194
 1681SOL     OW 5941   2.136   6.154   5.584  0.2440 -0.5739 -0.2620
 1681SOL    HW1 5942   2.173   6.209   5.509 -0.0793 -0.5425 -0.3989
 1681SOL    HW2 5943   2.067   6.091   5.548 -0.2281 -0.2546  0.0775
 1682SOL     OW 5944   0.145   1.831   5.231  0.2586  0.3001  0.1640
 1682SOL    HW1 5945   0.104   1.913   5.273 -1.4060 -0.0781 -0.6467
 1682SOL    HW2 5946   0.224   1.858   5.176  0.8918  1.1100  1.4040
 1683SOL     OW 5947   0.664   5.442   2.566  0.1184 -0.2723 -0.1560
 1683SOL    HW1 5948   0.677   5.374   2.639  1.1127 -1.2569 -1.2259
 1683SOL    HW2 5949   0.739   5.435   2.500 -0.0833  1.4840 -0.6009
 1684SOL     OW 5950   0.606   6.724   1.470  0.9130  0.1513 -0.3309
 1684SOL    HW1 5951   0.536   6.783   1.429  0.3119 -0.7944 -0.7076
 1684SOL    HW2 5952   0.642   6.767   1.553  1.6546  1.7747 -1.4644
 1685SOL     OW 5953   2.882   0.435   6.313 -0.0146  0.0845  0.4103
 1685SOL    HW1 5954   2.941   0.360   6.283  0.5903 -0.0454  1.8709
 1685SOL    HW2 5955   2.786   0.409   6.300  0.2020 -0.2586 -0.6583
 1686SOL     OW 5956   3.276   5.782   4.526  0.2714  0.0508 -0.1597
 1686SOL    HW1 5957   3.327   5.828   4.453  1.4806 -1.8228 -0.5815
 1686SOL    HW2 5958   3.207   5.844   4.563  0.0270  1.2703 -2.4704
 1687SOL     OW 5959   6.640   1.668   1.909 -0.8724  0.2388  0.5430
 1687SOL    HW1 5960   6.558   1.726   1.911 -1.0583  0.1825 -2.0184
 1687SOL    HW2 5961   6.651   1.629   1.817  0.6809 -1.7468  1.5045
 1688SOL     OW 5962   0.878   0.594   4.562  0.1217 -0.1517  0.1136
 1688SOL    HW1 5963   0.799   0.533   4.555 -0.3050  0.0782  2.2842
 1688SOL    HW2 5964   0.867   0.654   4.641  2.2328  0.2786  0.1433
 1689SOL     OW 5965   0.646   5.480   0.203  0.0081  0.0393 -0.3403
 1689SOL    HW1 5966   0.734   5.440   0.179  0.0975  1.3556 -2.4699
 1689SOL    HW2 5967   0.649   5.514   0.297  1.8579  0.3011 -0.4597
 1690SOL     OW 5968   1.413   4.282   0.291  0.1160  0.6487  0.6186
 1690SOL    HW1 5969   1.410   4.362   0.350 -1.0554  1.2952 -0.2906
 1690SOL    HW2 5970   1.449   4.308   0.201  1.9902 -0.3486  1.0103
 1691SOL     OW 5971   6.775   1.639   3.225 -0.2589  0.5445  0.0150
 1691SOL    HW1 5972   6.803   1.687   3.308 -1.8675  1.5193  0.0440
 1691SOL    HW2 5973   6.829   1.556   3.215 -0.4950  0.0184  2.4180
 1692SOL     OW 5974   6.612   0.093   2.388  0.1096  0.0816 -0.3139
 1692SOL    HW1 5975   6.695   0.048   2.355  0.6395  0.8406 -0.0528
 1692SOL    HW2 5976   6.615   0.190   2.364 -0.2922  0.2927  0.4479
 1693SOL     OW 5977   6.310   2.782   6.357 -0.1176  0.6324  0.3398
 1693SOL    HW1 5978   6.360   2.748   6.277 -0.3661  1.0064  0.0227
 1693SOL    HW2 5979   6.331   2.879   6.371  1.6185  0.0605  2.0249
 1694SOL     OW 5980   5.864   0.699   5.277  0.2124  0.3404  0.1408
 1694SOL    HW1 5981   5.888   0.743   5.190  0.3612 -0.1178 -0.0523
 1694SOL    HW2 5982   5.868   0.766   5.351  2.5075  0.2062  0.1922
 1695SOL     OW 5983   4.121   5.652   0.558  0.0152 -0.1482  0.7516
 1695SOL    HW1 5984   4.061   5.669   0.480  0.6174 -0.9835  0.0915
 1695SOL    HW2 5985   4.207   5.614   0.526 -0.4395 -2.3490  1.9494
 1696SOL     OW 5986   3.351   5.147   0.466 -0.2821 -0.1390 -0.1693
 1696SOL    HW1 5987   3.332   5.213   0.393 -0.2074 -0.1853 -0.2312
 1696SOL    HW2 5988   3.335   5.190   0.555 -0.0929  0.0079 -0.2060
 1697SOL     OW 5989   1.323   0.824   0.820  0.7158  0.6096  0.2439
 1697SOL    HW1 5990   1.253   0.892   0.844  1.4927  1.6959 -0.4983
 1697SOL    HW2 5991   1.412   0.869   0.814  1.1330 -0.3491 -0.9320
 1698SOL     OW 5992   3.785   0.638   7.023  0.0250  0.0002 -0.9683
 1698SOL    HW1 5993   3.787   0.697   6.943 -0.5924 -0.7971 -1.5893
 1698SOL    HW2 5994   3.822   0.548   6.999 -1.6077 -0.7457 -0.8115
 1699SOL     OW 5995   2.904   0.388   0.132 -0.3029  0.4574 -0.0642
 1699SOL    HW1 5996   2.919   0.345   0.043  2.2573  1.7306 -0.3170
 1699SOL    HW2 5997   2.942   0.331   0.204  0.0201  0.6733 -0.0617
 1700SOL     OW 5998   4.974   3.230   2.199 -0.1153  0.6790 -0.2536
 1700SOL    HW1 5999   4.893   3.171   2.195  0.4206 -0.0206 -1.2282
 1700SOL    HW2 6000   4.950   3.321   2.166 -0.6422  0.6482  0.0229
 1701SOL     OW 6001   6.782   6.099   4.860  0.2760  0.1455  0.0715
 1701SOL    HW1 6002   6.694   6.085   4.905  0.4352  0.7702  0.5892
 1701SOL    HW2 6003   6.836   6.166   4.912  0.7072  0.4164 -0.7190
 1702SOL     OW 6004   0.930   2.226   2.558  0.5034 -0.0853 -0.4619
 1702SOL    HW1 6005   0.845   2.261   2.598  1.1218  0.4506  0.4373
 1702SOL    HW2 6006   0.909   2.169   2.479 -0.7199 -0.3824  0.0506
 1703SOL     OW 6007   5.046   1.131   0.426 -0.2399 -0.3532 -0.2560
 1703SOL    HW1 6008   4.991   1.211   0.401  1.6750  1.0201 -0.2027
 1703SOL    HW2 6009   5.076   1.138   0.521  0.3245 -0.9109 -0.3820
 1704SOL     OW 6010   2.122   1.968   6.422  0.9331  0.7775  0.5358
 1704SOL    HW1 6011   2.158   1.877   6.404 -1.0906 -0.6418  3.0313
 1704SOL    HW2 6012   2.028   1.974   6.388  0.0337  0.8700  2.8711
 1705SOL     OW 6013   4.085   2.206   1.291 -0.4126  0.1282 -0.3483
 1705SOL    HW1 6014   4.066   2.183   1.387  0.1477  0.2199 -0.2128
 1705SOL    HW2 6015   4.184   2.210   1.277 -0.4855  1.9903 -0.4919
 1706SOL     OW 6016   4.742   1.654   3.511 -0.4046 -0.0018  0.2850
 1706SOL    HW1 6017   4.709   1.658   3.605  2.0814 -0.0228  1.2440
 1706SOL    HW2 6018   4.716   1.738   3.463 -0.1673  0.8292  1.5652
 1707SOL     OW 6019   4.548   2.516   3.666  0.3433 -0.2148 -1.1063
 1707SOL    HW1 6020   4.456   2.523   3.706  0.4934  0.2733 -0.8283
 1707SOL    HW2 6021   4.589   2.428   3.691 -0.3775 -0.8108 -1.9637
 1708SOL     OW 6022   3.773   5.182   6.999  0.0586  0.0336  0.0165
 1708SOL    HW1 6023   3.763   5.099   7.054  2.1242 -0.4313 -0.2106
 1708SOL    HW2 6024   3.745   5.163   6.905 -0.7913  0.0130  0.2657
 1709SOL     OW 6025   2.719   0.137   6.908  0.0290  0.7871 -0.4760
 1709SOL    HW1 6026   2.672   0.174   6.988 -0.1586 -3.8290  1.8908
 1709SOL    HW2 6027   2.812   0.174   6.904  0.2173  0.8365  2.2456
 1710SOL     OW 6028   0.028   6.081   4.208 -0.6121  0.6787 -0.1889
 1710SOL    HW1 6029   0.031   6.181   4.210 -0.9283  0.6933 -0.4031
 1710SOL    HW2 6030   0.037   6.046   4.301  0.0358  0.8888 -0.1686
 1711SOL     OW 6031   1.628   4.568   4.557  0.0672 -0.0070  0.4871
 1711SOL    HW1 6032   1.589   4.574   4.465  2.8450 -0.0435 -0.8187
 1711SOL    HW2 6033   1.688   4.488   4.562  1.9520  1.3729  1.4520
 1712SOL     OW 6034   0.470   3.067   5.585  0.4729  0.4289  0.1897
 1712SOL    HW1 6035   0.508   3.148   5.541  2.4269 -1.1413 -1.1816
 1712SOL    HW2 6036   0.379   3.048   5.547  0.6362  1.1156 -0.5667
 1713SOL     OW 6037   6.072   2.019   1.348  0.1387  0.3169 -0.5434
 1713SOL    HW1 6038   6.091   2.117   1.347  1.1398  0.1826  0.8758
 1713SOL    HW2 6039   6.157   1.969   1.327 -0.1695 -0.2523 -0.4508
 1714SOL     OW 6040   4.635   2.468   5.076 -0.1224  0.0012 -0.0389
 1714SOL    HW1 6041   4.583   2.550   5.102 -1.5906 -1.0033  0.3184
 1714SOL    HW2 6042   4.663   2.420   5.159 -0.5895 -0.6403 -0.2444
 1715SOL     OW 6043   3.327   5.635   2.725 -0.2850  0.4628 -0.4348
 1715SOL    HW1 6044   3.383   5.582   2.662 -0.4737 -0.8346  0.4547
 1715SOL    HW2 6045   3.370   5.723   2.742  0.2226  0.4746 -1.6527
 1716SOL     OW 6046   4.217   0.467   4.301 -0.0051  0.0712 -0.1638
 1716SOL    HW1 6047   4.303   0.425   4.275  1.1520  2.8848 -1.3277
 1716SOL    HW2 6048   4.149   0.454   4.229  0.4823  0.5481 -0.7170
 1717SOL     OW 6049   3.583   4.338   5.663  0.0822  0.3374  0.0533
 1717SOL    HW1 6050   3.633   4.258   5.630 -1.2870 -1.2114  1.4840
 1717SOL    HW2 6051   3.485   4.325   5.644 -0.3882  0.7380  2.0486
 1718SOL     OW 6052   4.029   1.983   3.194 -0.0810  0.1846  0.5476
 1718SOL    HW1 6053   3.954   1.928   3.156  0.4718 -1.1424  1.3110
 1718SOL    HW2 6054   3.991   2.056   3.252 -0.8576  1.1634 -1.1199
 1719SOL     OW 6055   2.640   2.768   0.430 -0.0230  0.0051  0.3160
 1719SOL    HW1 6056   2.638   2.866   0.445 -0.2124  0.1002 -0.2950
 1719SOL    HW2 6057   2.598   2.746   0.342  2.0696 -0.3890 -0.6527
 1720SOL     OW 6058   1.190   2.496   6.628 -0.0044  0.4944  0.0400
 1720SOL    HW1 6059   1.179   2.591   6.657 -0.3616  0.0044  1.5840
 1720SOL    HW2 6060   1.285   2.468   6.643  0.0184  0.4922 -0.1016
 1721SOL     OW 6061   0.645   0.134   0.387 -0.1209  0.3411  0.2675
 1721SOL    HW1 6062   0.577   0.188   0.336  0.7406  0.0804 -1.2232
 1721SOL    HW2 6063   0.600   0.090   0.465 -1.4501  0.9793 -0.0998
 1722SOL     OW 6064   3.933   0.913   3.040  0.3648  0.2642  0.1851
 1722SOL    HW1 6065   3.861   0.849   3.067  1.5319 -0.8261  0.8966
 1722SOL    HW2 6066   3.917   1.002   3.081 -0.8480  0.1872 -0.1082
 1723SOL     OW 6067   5.321   3.999   5.628 -0.5305 -0.4884 -0.6242
 1723SOL    HW1 6068   5.235   4.016   5.677 -0.4439 -2.2288  0.2169
 1723SOL    HW2 6069   5.362   3.914   5.662  0.7988 -0.4462 -2.0318
 1724SOL     OW 6070   0.791   2.912   3.432 -0.1596  0.7971  0.2812
 1724SOL    HW1 6071   0.731   2.836   3.455  0.7264 -0.3256 -0.9394
 1724SOL    HW2 6072   0.766   2.950   3.343  0.7036  0.5229 -0.0961
 1725SOL     OW 6073   1.945   5.473   0.135 -0.2603  0.7227  0.1831
 1725SOL    HW1 6074   1.857   5.469   0.183 -0.9454 -1.9189 -1.0928
 1725SOL    HW2 6075   1.928   5.469   0.036  1.2564 -0.8966 -0.0623
 1726SOL     OW 6076   6.630   2.733   2.948 -0.5331  0.3898 -0.4148
 1726SOL    HW1 6077   6.571   2.814   2.957 -0.2508  0.4219  1.6359
 1726SOL    HW2 6078   6.724   2.759   2.967 -0.6413 -0.6560  1.8076
 1727SOL     OW 6079   2.900   3.490   3.621  0.2095 -0.6684  0.5511
 1727SOL    HW1 6080   2.918   3.570   3.564  1.9979 -1.4793 -0.1102
 1727SOL    HW2 6081   2.874   3.519   3.713  1.5394  0.6853  0.5327
 1728SOL     OW 6082   3.608   3.635   5.644  0.2216 -0.5733 -0.0976
 1728SOL    HW1 6083   3.677   3.707   5.650  0.0336 -0.4610  0.8952
 1728SOL    HW2 6084   3.630   3.574   5.569  1.2577 -0.3788  0.0375
 1729SOL     OW 6085   1.781   1.963   4.030 -0.5833  0.1499 -0.4985
 1729SOL    HW1 6086   1.750   1.868   4.020 -0.1318  0.0706 -1.1871
 1729SOL    HW2 6087   1.814   1.997   3.942  2.2285 -0.0809  0.3747
 1730SOL     OW 6088   2.376   0.122   4.912  0.5807  0.0468  0.6762
 1730SOL    HW1 6089   2.368   0.063   4.831  0.1723  0.0825  0.6870
 1730SOL    HW2 6090   2.472   0.146   4.926  1.0818 -2.3822  1.9325
 1731SOL     OW 6091   6.340   5.446   3.031 -0.1032  0.5815 -0.5431
 1731SOL    HW1 6092   6.294   5.401   3.108 -0.3770 -0.2315 -1.1651
 1731SOL    HW2 6093   6.288   5.526   3.002 -1.4999 -0.6714 -1.6292
 1732SOL     OW 6094   1.434   4.259   4.489 -0.1723  0.4512  0.1712
 1732SOL    HW1 6095   1.533   4.257   4.505 -0.3845 -1.4264  1.6170
 1732SOL    HW2 6096   1.392   4.327   4.550  0.2830  2.0574 -1.2226
 1733SOL     OW 6097   1.249   3.848   2.202 -0.3572 -0.1664 -0.6424
 1733SOL    HW1 6098   1.157   3.885   2.213 -0.7048 -0.9499 -0.7950
 1733SOL    HW2 6099   1.287   3.878   2.115 -0.5954 -0.1011 -0.7238
 1734SOL     OW 6100   0.478   2.883   2.045 -0.6086 -0.5491  0.5076
 1734SOL    HW1 6101   0.555   2.836   2.001 -0.3699 -0.1398  0.4858
 1734SOL    HW2 6102   0.510   2.932   2.126 -0.9005 -0.6187  0.6669
 1735SOL     OW 6103   5.064   5.209   6.295  0.0153 -0.0399  0.3853
 1735SOL    HW1 6104   5.140   5.159   6.338  0.5228  0.7336  0.4043
 1735SOL    HW2 6105   5.007   5.251   6.366 -1.3684 -1.9136  0.4499
 1736SOL     OW 6106   3.477   2.400   1.142  0.6779 -0.1577 -0.2041
 1736SOL    HW1 6107   3.561   2.348   1.127  1.1083  0.7299 -0.9689
 1736SOL    HW2 6108   3.409   2.372   1.074  1.3680  1.2033 -1.5081
 1737SOL     OW 6109   5.821   5.895   3.655 -0.6626  0.6181  0.7746
 1737SOL    HW1 6110   5.730   5.901   3.615 -0.4057  1.0481  0.2394
 1737SOL    HW2 6111   5.817   5.843   3.740 -0.9050 -1.9997 -0.7524
 1738SOL     OW 6112   2.191   3.711   4.563 -0.5157  0.1176 -1.1592
 1738SOL    HW1 6113   2.181   3.627   4.616  0.1207  0.1812 -0.9307
 1738SOL    HW2 6114   2.180   3.691   4.466 -3.7028  0.2982 -0.9543
 1739SOL     OW 6115   0.833   2.303   5.745 -0.3103 -0.4162 -1.4098
 1739SOL    HW1 6116   0.844   2.384   5.687  2.2636  0.0710 -0.3741
 1739SOL    HW2 6117   0.917   2.248   5.741 -0.7216 -1.2617  0.5112
 1740SOL     OW 6118   7.018   1.089   5.667  0.2822 -0.1971 -0.0045
 1740SOL    HW1 6119   7.105   1.089   5.619  0.3703 -1.6939  0.1067
 1740SOL    HW2 6120   6.998   0.996   5.699 -1.2098  0.1846  0.2262
 1741SOL     OW 6121   3.185   0.560   3.755 -0.2559 -0.3013  0.3074
 1741SOL    HW1 6122   3.152   0.472   3.790  0.8019 -0.0367  2.0911
 1741SOL    HW2 6123   3.282   0.553   3.734  0.7616  1.2451  3.7604
 1742SOL     OW 6124   4.884   0.461   6.856  0.3895 -0.0411 -0.1521
 1742SOL    HW1 6125   4.831   0.539   6.889  0.6281  0.2868 -0.5401
 1742SOL    HW2 6126   4.903   0.399   6.933  0.9753  0.7272  0.3388
 1743SOL     OW 6127   1.551   2.187   2.167 -0.5008 -0.0040 -0.5139
 1743SOL    HW1 6128   1.596   2.152   2.085 -0.0997  1.0608 -0.7714
 1743SOL    HW2 6129   1.572   2.284   2.177 -2.1504  0.3443 -0.2089
 1744SOL     OW 6130   6.575   3.091   3.379 -0.1745 -0.4502  0.4397
 1744SOL    HW1 6131   6.605   3.178   3.340 -1.8697  0.5415  1.2178
 1744SOL    HW2 6132   6.632   3.017   3.343  0.9770  0.8977 -0.6503
 1745SOL     OW 6133   6.528   1.013   1.452 -0.0481 -0.0154 -0.4724
 1745SOL    HW1 6134   6.570   0.963   1.527 -0.2382  0.2080 -0.2157
 1745SOL    HW2 6135   6.581   0.999   1.368  1.1878  1.1839  0.0857
 1746SOL     OW 6136   0.757   5.452   2.936 -0.1534 -0.1731 -0.2692
 1746SOL    HW1 6137   0.720   5.500   2.856 -2.3795 -0.7714  0.3373
 1746SOL    HW2 6138   0.736   5.355   2.928 -2.1632  0.0072  1.9126
 1747SOL     OW 6139   3.768   2.078   2.791 -0.2448  0.1803  0.0455
 1747SOL    HW1 6140   3.822   2.002   2.753  0.5333  1.0737 -0.6826
 1747SOL    HW2 6141   3.689   2.095   2.733  0.8183  1.3931 -1.1100
 1748SOL     OW 6142   6.136   3.093   5.098 -0.4933  0.0019 -0.0892
 1748SOL    HW1 6143   6.070   3.133   5.163  1.0144 -0.2082  1.6472
 1748SOL    HW2 6144   6.224   3.080   5.144  0.4198 -0.8856 -1.9996
 1749SOL     OW 6145   2.149   0.737   5.695 -0.2674 -0.5268  0.1139
 1749SOL    HW1 6146   2.171   0.640   5.703 -1.5663 -0.7685  0.8717
 1749SOL    HW2 6147   2.074   0.749   5.629  0.1186  0.0069 -0.2419
 1750SOL     OW 6148   5.689   0.584   3.313 -0.0687 -0.1929  0.5833
 1750SOL    HW1 6149   5.748   0.504   3.299 -0.4376 -0.3115 -0.3879
 1750SOL    HW2 6150   5.595   0.560   3.289 -0.0169  0.7980 -0.7011
 1751SOL     OW 6151   4.545   1.193   2.811  0.2386 -0.0961  0.6081
 1751SOL    HW1 6152   4.620   1.129   2.798  1.0458  0.7550  0.9774
 1751SOL    HW2 6153   4.469   1.146   2.856  1.0896 -0.6236  1.5423
 1752SOL     OW 6154   6.325   6.767   0.847 -0.4156 -0.1667 -0.2792
 1752SOL    HW1 6155   6.249   6.812   0.800 -0.7395 -0.8287 -0.3972
 1752SOL    HW2 6156   6.350   6.684   0.797 -1.7489 -1.7107  1.4615
 1753SOL     OW 6157   6.882   0.561   2.354 -0.1263 -0.2039  0.0148
 1753SOL    HW1 6158   6.916   0.505   2.278 -0.9873 -0.0290 -0.5145
 1753SOL    HW2 6159   6.923   0.652   2.350 -1.6454  0.4809 -1.4641
 1754SOL     OW 6160   1.201   3.787   0.207  0.1899 -0.4512  0.2212
 1754SOL    HW1 6161   1.163   3.827   0.291 -2.8570  0.4720 -1.4452
 1754SOL    HW2 6162   1.270   3.848   0.170 -0.1718  0.3492  0.8187
 1755SOL     OW 6163   6.050   5.565   0.881 -0.4560  0.7287  0.0908
 1755SOL    HW1 6164   6.026   5.469   0.896 -0.5066  0.0459 -3.4022
 1755SOL    HW2 6165   6.149   5.573   0.866 -0.0009  1.7406  3.0941
 1756SOL     OW 6166   2.730   5.644   4.894  0.4610  0.1761 -0.2892
 1756SOL    HW1 6167   2.712   5.682   4.984  1.1219 -1.5524  0.6328
 1756SOL    HW2 6168   2.822   5.602   4.894 -0.1941 -1.3409 -1.2013
 1757SOL     OW 6169   3.278   4.295   5.936 -0.5291  0.1999  0.4579
 1757SOL    HW1 6170   3.251   4.245   6.019  0.5358 -1.9484 -0.3974
 1757SOL    HW2 6171   3.374   4.278   5.917 -1.6952 -3.6394 -3.8392
 1758SOL     OW 6172   1.159   0.722   5.541 -0.0879  0.1993  0.5636
 1758SOL    HW1 6173   1.092   0.746   5.472  2.2803  1.3682 -1.4611
 1758SOL    HW2 6174   1.162   0.793   5.611 -0.2304  0.6354  0.1258
 1759SOL     OW 6175   0.440   5.977   4.883 -0.2126 -0.1861  0.6858
 1759SOL    HW1 6176   0.363   5.916   4.863 -0.4721  0.5760 -0.7460
 1759SOL    HW2 6177   0.501   5.932   4.949 -1.4740 -1.1075  1.2753
 1760SOL     OW 6178   5.472   0.014   4.587  0.6672  0.3100 -0.7158
 1760SOL    HW1 6179   5.434   0.086   4.646  0.8161 -0.2460  0.0745
 1760SOL    HW2 6180   5.570   0.004   4.606  0.4644 -0.7439 -0.1169
 1761SOL     OW 6181   6.402   2.443   0.470 -0.7809  0.0566  0.1272
 1761SOL    HW1 6182   6.332   2.435   0.400 -0.1496 -2.5392 -0.2992
 1761SOL    HW2 6183   6.483   2.487   0.431 -0.9430 -0.0785 -0.3672
 1762SOL     OW 6184   0.132   1.815   2.810 -0.0863  0.1630 -0.0918
 1762SOL    HW1 6185   0.034   1.799   2.810 -0.4051  1.7182  1.6421
 1762SOL    HW2 6186   0.156   1.878   2.736 -0.3274 -0.5423 -0.7706
 1763SOL     OW 6187   1.409   4.081   3.622 -0.1525  0.6828 -0.1342
 1763SOL    HW1 6188   1.428   4.045   3.714  1.5361  0.9528 -0.3486
 1763SOL    HW2 6189   1.421   4.009   3.555  0.1639  0.8767 -0.2863
 1764SOL     OW 6190   0.052   5.238   2.203  0.7695 -0.6650 -0.0598
 1764SOL    HW1 6191   0.149   5.216   2.196  0.6218 -1.3832  0.0317
 1764SOL    HW2 6192   0.006   5.169   2.259  0.1036 -0.6557 -0.5835
 1765SOL     OW 6193   4.587   0.951   1.840  0.0967  0.1566  0.0333
 1765SOL    HW1 6194   4.597   1.051   1.849  0.6658  0.0896  0.2124
 1765SOL    HW2 6195   4.672   0.907   1.867  0.2083 -0.3285 -1.0416
 1766SOL     OW 6196   0.115   5.468   3.129  0.1203 -0.6301 -0.8301
 1766SOL    HW1 6197   0.200   5.446   3.177 -0.7920 -0.4798  0.9315
 1766SOL    HW2 6198   0.097   5.566   3.137 -1.5338 -1.0139  1.2114
 1767SOL     OW 6199   5.649   2.544   2.335  0.8435 -0.0632  0.0622
 1767SOL    HW1 6200   5.668   2.596   2.252  1.0703 -0.0506  0.1219
 1767SOL    HW2 6201   5.718   2.565   2.404  0.4911  0.1486  0.3545
 1768SOL     OW 6202   5.349   6.536   6.898  0.1994  0.3537  0.6947
 1768SOL    HW1 6203   5.351   6.442   6.866  0.8245  0.7237 -0.3886
 1768SOL    HW2 6204   5.258   6.574   6.882  0.7379  0.8291 -1.6280
 1769SOL     OW 6205   6.339   1.289   1.970  0.0952 -0.0327  0.2704
 1769SOL    HW1 6206   6.436   1.279   1.995 -0.1144  1.2315  1.7212
 1769SOL    HW2 6207   6.330   1.363   1.904  0.0416  0.3443  0.6986
 1770SOL     OW 6208   0.187   4.801   4.960 -0.6496 -0.2893 -0.1012
 1770SOL    HW1 6209   0.089   4.802   4.942 -0.7251 -0.0491  0.3076
 1770SOL    HW2 6210   0.237   4.791   4.874 -1.0811 -3.1118 -0.1031
 1771SOL     OW 6211   0.121   3.975   0.696  0.1904  0.5606 -0.9460
 1771SOL    HW1 6212   0.163   3.905   0.639  0.6976 -0.1918  0.3075
 1771SOL    HW2 6213   0.100   3.936   0.786 -0.0273  1.8782 -0.4060
 1772SOL     OW 6214   4.362   0.611   3.082  0.1937 -0.1412  0.1126
 1772SOL    HW1 6215   4.280   0.561   3.111  0.7305 -0.4863  1.0841
 1772SOL    HW2 6216   4.405   0.563   3.006 -0.0954 -0.3701  0.0913
 1773SOL     OW 6217   2.648   5.990   6.384  0.6897  0.2142 -0.2561
 1773SOL    HW1 6218   2.729   6.047   6.398 -0.0546  1.0465  0.8833
 1773SOL    HW2 6219   2.567   6.048   6.378  0.1510 -0.6110 -1.3091
 1774SOL     OW 6220   5.442   6.415   3.494  0.6107  0.0953  0.3065
 1774SOL    HW1 6221   5.476   6.321   3.493 -0.9369 -0.5020  1.1867
 1774SOL    HW2 6222   5.498   6.471   3.433  3.1417 -0.8141  1.6532
 1775SOL     OW 6223   2.475   4.154   6.047 -0.4284  0.1000 -0.1504
 1775SOL    HW1 6224   2.416   4.074   6.036  1.2836 -0.8864 -3.8928
 1775SOL    HW2 6225   2.571   4.125   6.045  0.2438  2.1838 -1.4121
 1776SOL     OW 6226   6.177   0.894   5.906  0.1758 -0.2390 -0.4727
 1776SOL    HW1 6227   6.270   0.923   5.928  0.1804  1.3225 -2.3011
 1776SOL    HW2 6228   6.112   0.964   5.937 -0.3899 -1.2120  0.5869
 1777SOL     OW 6229   2.292   1.365   6.647  0.3533  0.1954  0.0956
 1777SOL    HW1 6230   2.212   1.312   6.676  0.0091  0.8099  0.2901
 1777SOL    HW2 6231   2.264   1.458   6.625  1.0934  0.5787  0.7035
 1778SOL     OW 6232   3.580   6.555   5.038  0.7038  0.4518  0.6465
 1778SOL    HW1 6233   3.561   6.464   5.075 -0.2024  0.4450  0.2089
 1778SOL    HW2 6234   3.678   6.572   5.038  0.8578 -0.4053  1.0200
 1779SOL     OW 6235   4.138   1.418   1.459  0.0988  0.0709 -0.1620
 1779SOL    HW1 6236   4.077   1.354   1.505  1.2511 -0.0053  1.3105
 1779SOL    HW2 6237   4.091   1.457   1.379 -2.3405  0.9472  1.5785
 1780SOL     OW 6238   2.211   4.094   4.793 -0.0939 -0.0740  0.3659
 1780SOL    HW1 6239   2.248   4.067   4.883 -1.9460 -0.2910  1.1105
 1780SOL    HW2 6240   2.206   4.193   4.788  4.0325  0.2276 -1.2544
 1781SOL     OW 6241   5.068   6.304   5.836  0.2685 -0.1036  0.1388
 1781SOL    HW1 6242   5.123   6.359   5.773 -0.6790 -1.1443 -1.6862
 1781SOL    HW2 6243   5.113   6.217   5.852 -0.5860 -0.7965 -1.0413
 1782SOL     OW 6244   3.492   0.161   3.034  0.1253 -0.2307  0.1127
 1782SOL    HW1 6245   3.498   0.260   3.049 -1.1487 -0.2768  1.1041
 1782SOL    HW2 6246   3.510   0.114   3.121 -0.9036 -0.7905  0.0363
 1783SOL     OW 6247   4.002   3.520   5.887 -0.3883  0.2496  0.6681
 1783SOL    HW1 6248   3.997   3.620   5.883 -2.5397  0.1485 -0.6007
 1783SOL    HW2 6249   4.034   3.485   5.799  1.8337 -0.1922  1.5670
 1784SOL     OW 6250   1.245   1.547   1.818 -0.1450 -0.4687  0.0735
 1784SOL    HW1 6251   1.206   1.633   1.850 -2.3395 -1.3659  0.0021
 1784SOL    HW2 6252   1.176   1.494   1.769  1.0355 -2.4060  0.3462
 1785SOL     OW 6253   1.510   6.015   3.755  0.6957 -0.9691  1.0639
 1785SOL    HW1 6254   1.499   6.103   3.709 -0.9655 -2.0848 -0.7901
 1785SOL    HW2 6255   1.445   6.009   3.830 -0.7108 -1.4271 -0.1586
 1786SOL     OW 6256   5.140   2.919   5.385  0.0224 -0.5997  0.0859
 1786SOL    HW1 6257   5.212   2.943   5.320 -1.1618  1.3192 -0.6070
 1786SOL    HW2 6258   5.075   2.857   5.341  0.7640 -1.6863  0.4568
 1787SOL     OW 6259   1.780   1.456   6.287  0.0060  0.3642  0.4351
 1787SOL    HW1 6260   1.705   1.476   6.224  0.5670 -2.7844 -1.4619
 1787SOL    HW2 6261   1.863   1.501   6.255 -0.1241  0.2937 -0.0078
 1788SOL     OW 6262   3.966   4.350   0.290  0.5075  0.3292  0.0384
 1788SOL    HW1 6263   3.962   4.347   0.190  2.0185 -1.8645 -0.0425
 1788SOL    HW2 6264   3.883   4.307   0.328 -0.0741  1.1797 -0.2545
 1789SOL     OW 6265   6.120   2.932   1.592 -0.2635 -0.2766  0.4681
 1789SOL    HW1 6266   6.165   2.884   1.668 -2.3539 -0.4553  1.6553
 1789SOL    HW2 6267   6.187   2.988   1.543  1.1520 -0.2006  2.4046
 1790SOL     OW 6268   3.013   2.403   5.307 -0.0534  0.4359  0.4453
 1790SOL    HW1 6269   3.106   2.378   5.279 -0.7283 -0.8508 -0.8325
 1790SOL    HW2 6270   2.975   2.330   5.364  0.4245  1.9308  2.7990
 1791SOL     OW 6271   6.418   1.168   3.139 -0.3292  0.3704 -0.2066
 1791SOL    HW1 6272   6.400   1.112   3.059  2.2299  0.7747 -1.1718
 1791SOL    HW2 6273   6.458   1.112   3.211  0.2221  0.5556 -0.3663
 1792SOL     OW 6274   1.206   2.962   5.233 -0.4537 -0.4561  0.2056
 1792SOL    HW1 6275   1.150   2.925   5.307 -0.4496  0.2827  0.5861
 1792SOL    HW2 6276   1.275   3.023   5.271 -0.3397 -0.1978 -0.4016
 1793SOL     OW 6277   5.172   1.204   5.228  0.1268 -0.0267 -0.0845
 1793SOL    HW1 6278   5.160   1.193   5.130  1.1699  0.7995 -0.3176
 1793SOL    HW2 6279   5.206   1.296   5.248  1.1596 -0.6046  0.9426
 1794SOL     OW 6280   6.294   3.133   5.563 -0.5759  0.0689  0.3564
 1794SOL    HW1 6281   6.227   3.127   5.637 -0.3476 -0.1638  0.5452
 1794SOL    HW2 6282   6.386   3.119   5.599 -0.5400 -1.1072 -0.1093
 1795SOL     OW 6283   4.844   4.158   0.752 -0.3597 -0.1240 -0.4139
 1795SOL    HW1 6284   4.857   4.250   0.714  0.2238 -0.1346 -0.2527
 1795SOL    HW2 6285   4.899   4.148   0.834  1.1799 -1.2854 -1.5304
 1796SOL     OW 6286   2.929   6.986   4.325 -0.0352  0.1818 -0.4421
 1796SOL    HW1 6287   3.027   6.968   4.324 -0.4236 -2.2018 -0.3166
 1796SOL    HW2 6288   2.882   6.913   4.375 -1.9362  1.0267 -0.8999
 1797SOL     OW 6289   2.490   6.360   5.334 -0.6246  0.0460  0.4949
 1797SOL    HW1 6290   2.534   6.444   5.367  0.5802 -0.5874  0.5624
 1797SOL    HW2 6291   2.507   6.350   5.236  1.3323 -1.2950  0.9061
 1798SOL     OW 6292   3.174   3.304   3.665 -0.3545  0.2606  0.1740
 1798SOL    HW1 6293   3.259   3.331   3.710 -0.8524 -0.0625  1.3434
 1798SOL    HW2 6294   3.109   3.379   3.668  0.1854  0.8287 -1.5352
 1799SOL     OW 6295   2.601   3.046   0.426 -0.3202 -0.2243 -0.5474
 1799SOL    HW1 6296   2.608   3.071   0.522 -2.7763 -1.4612  0.0405
 1799SOL    HW2 6297   2.506   3.049   0.397  0.4410  1.1984 -3.3122
 1800SOL     OW 6298   4.273   5.912   4.482 -0.4746  0.0982  0.0194
 1800SOL    HW1 6299   4.249   5.815   4.494 -1.3588  0.3260  0.1340
 1800SOL    HW2 6300   4.326   5.922   4.397 -2.5726 -0.1504 -1.4004
 1801SOL     OW 6301   0.269   1.941   3.104 -0.2996  0.0066  0.6087
 1801SOL    HW1 6302   0.326   1.894   3.036 -0.7991  0.6572 -0.2775
 1801SOL    HW2 6303   0.294   2.037   3.107  0.4778 -0.2159  2.1690
 1802SOL     OW 6304   5.517   5.744   4.651 -0.6411 -0.3650 -0.2240
 1802SOL    HW1 6305   5.583   5.786   4.589  0.0117 -0.6051  0.3067
 1802SOL    HW2 6306   5.549   5.750   4.745 -1.1854 -0.8346  0.0036
 1803SOL     OW 6307   0.625   0.146   6.958 -0.2239 -0.3073  0.6092
 1803SOL    HW1 6308   0.637   0.063   7.012  2.2863 -0.5945 -0.2659
 1803SOL    HW2 6309   0.676   0.221   7.001  2.4437 -0.7108 -1.6122
 1804SOL     OW 6310   2.962   3.776   4.360  0.1598 -0.5914 -0.5450
 1804SOL    HW1 6311   2.934   3.679   4.362  0.7912 -0.7772 -0.5514
 1804SOL    HW2 6312   2.959   3.809   4.266  1.4937 -1.0763 -0.7840
 1805SOL     OW 6313   2.373   4.044   6.957  0.0020  0.6272 -0.8387
 1805SOL    HW1 6314   2.447   4.111   6.959  0.2407  0.3554 -0.1537
 1805SOL    HW2 6315   2.404   3.960   6.913  0.9592 -0.4269  1.6609
 1806SOL     OW 6316   0.913   2.603   3.246  0.5570 -0.3969 -0.0427
 1806SOL    HW1 6317   0.980   2.647   3.187  1.5646 -1.2083  0.4690
 1806SOL    HW2 6318   0.869   2.671   3.304  1.8404 -0.0012  0.4975
 1807SOL     OW 6319   6.170   4.667   1.092  0.1353  0.1431 -0.1225
 1807SOL    HW1 6320   6.123   4.688   1.178 -2.5301 -1.3553 -1.0892
 1807SOL    HW2 6321   6.131   4.722   1.018  0.5530 -0.4707 -0.8136
 1808SOL     OW 6322   6.805   3.312   5.735 -0.2028 -0.1082  0.6246
 1808SOL    HW1 6323   6.808   3.387   5.801  0.8224  0.5354 -0.1247
 1808SOL    HW2 6324   6.879   3.247   5.754 -0.8746 -0.7607  1.0595
 1809SOL     OW 6325   2.424   6.911   4.665  0.2176 -0.2264 -0.8854
 1809SOL    HW1 6326   2.407   6.978   4.592 -0.6281 -0.3266 -0.7803
 1809SOL    HW2 6327   2.523   6.899   4.676  0.5582  3.0095  0.8836
 1810SOL     OW 6328   0.467   1.429   5.422 -0.5006 -0.5322 -0.2123
 1810SOL    HW1 6329   0.454   1.457   5.327  0.8144 -0.8421 -0.5014
 1810SOL    HW2 6330   0.504   1.336   5.424 -1.8684 -1.0877  0.6504
 1811SOL     OW 6331   4.639   5.414   1.227 -0.5987 -0.4589  1.0287
 1811SOL    HW1 6332   4.597   5.365   1.151 -1.0892 -0.2250  1.1441
 1811SOL    HW2 6333   4.738   5.419   1.213 -0.7681  0.2695 -0.0088
 1812SOL     OW 6334   4.206   5.908   0.319  0.0986  0.1988  0.2469
 1812SOL    HW1 6335   4.201   5.819   0.273 -1.7246  0.2906  0.1961
 1812SOL    HW2 6336   4.243   5.975   0.255 -0.9681 -0.0003 -0.6201
 1813SOL     OW 6337   6.143   3.375   3.602 -0.0885 -0.2271  0.5811
 1813SOL    HW1 6338   6.086   3.352   3.523  1.5908 -2.1444 -0.1379
 1813SOL    HW2 6339   6.226   3.421   3.570 -0.1779  0.5274  1.4118
 1814SOL     OW 6340   6.921   0.749   0.239 -0.2672 -0.4824  0.3799
 1814SOL    HW1 6341   6.834   0.786   0.270 -0.1207  1.0227 -0.8881
 1814SOL    HW2 6342   6.993   0.773   0.305 -0.5899 -0.5812  0.7664
 1815SOL     OW 6343   5.742   0.313   3.221  0.5787 -0.2460 -0.2659
 1815SOL    HW1 6344   5.645   0.336   3.223  0.5176 -0.5469  0.4982
 1815SOL    HW2 6345   5.754   0.223   3.180  0.3715 -0.9298  1.1180
 1816SOL     OW 6346   2.638   5.485   0.671  0.4320 -0.2343 -0.4101
 1816SOL    HW1 6347   2.697   5.456   0.747  1.6767  1.3075 -0.7437
 1816SOL    HW2 6348   2.685   5.555   0.617 -1.2602  0.1939 -1.3966
 1817SOL     OW 6349   3.968   1.666   4.858 -0.6195 -0.2464 -0.0092
 1817SOL    HW1 6350   3.968   1.715   4.771  0.6374 -0.5851 -0.2161
 1817SOL    HW2 6351   3.997   1.727   4.931 -4.5139  0.9287  0.7676
 1818SOL     OW 6352   2.575   6.292   0.613  0.0591  0.1956  0.0752
 1818SOL    HW1 6353   2.579   6.344   0.528 -1.0276  2.0199  1.0615
 1818SOL    HW2 6354   2.513   6.338   0.677 -0.7933 -2.2516  1.1109
 1819SOL     OW 6355   1.107   6.635   1.783 -0.6063  0.4806  0.3131
 1819SOL    HW1 6356   1.074   6.560   1.841  1.9950 -0.7388  0.3844
 1819SOL    HW2 6357   1.121   6.717   1.838  0.4076 -0.2169  1.1103
 1820SOL     OW 6358   5.565   0.323   4.526 -0.0579  0.5480 -0.1017
 1820SOL    HW1 6359   5.645   0.321   4.585  0.3982  0.3508 -0.7096
 1820SOL    HW2 6360   5.592   0.297   4.433 -0.8762  0.2200 -0.2574
 1821SOL     OW 6361   4.747   2.471   2.370  0.2096  0.0219  0.4576
 1821SOL    HW1 6362   4.665   2.503   2.418 -1.5699 -0.3466 -2.1458
 1821SOL    HW2 6363   4.753   2.517   2.282  2.1556 -0.9162  0.0558
 1822SOL     OW 6364   0.287   4.470   4.816  0.0320 -0.3771 -0.6126
 1822SOL    HW1 6365   0.228   4.498   4.740  0.0654 -0.0536 -0.5206
 1822SOL    HW2 6366   0.242   4.396   4.867  0.2456 -0.9718 -1.2619
 1823SOL     OW 6367   4.638   0.426   3.433 -0.0531 -0.1261  0.1102
 1823SOL    HW1 6368   4.565   0.413   3.499  0.4071  1.5874  1.0294
 1823SOL    HW2 6369   4.704   0.352   3.441  0.1014  0.1530  1.7521
 1824SOL     OW 6370   3.292   2.915   1.358  0.4387  0.7921 -0.0079
 1824SOL    HW1 6371   3.234   2.884   1.283 -1.3034  1.6505  0.9182
 1824SOL    HW2 6372   3.357   2.984   1.324  0.3304  0.4629 -0.9077
 1825SOL     OW 6373   1.671   3.603   6.541  0.1808  0.4087  0.5044
 1825SOL    HW1 6374   1.599   3.642   6.598 -1.6713 -1.3496 -0.5315
 1825SOL    HW2 6375   1.694   3.511   6.572  0.6859  0.2550 -0.2666
 1826SOL     OW 6376   3.545   0.044   0.096  0.1916  0.1686 -0.3256
 1826SOL    HW1 6377   3.517  -0.051   0.113  0.5912 -0.1277 -1.2437
 1826SOL    HW2 6378   3.502   0.104   0.163 -1.7747 -0.3945 -0.9946
 1827SOL     OW 6379   4.107   4.704   1.915 -0.1339 -0.0948 -0.4117
 1827SOL    HW1 6380   4.007   4.709   1.921 -0.3671 -2.1074 -1.6026
 1827SOL    HW2 6381   4.139   4.766   1.843 -0.6306 -0.0472 -0.5980
 1828SOL     OW 6382   3.799   4.286   6.002 -0.1450  0.2669 -0.1024
 1828SOL    HW1 6383   3.849   4.263   6.085 -2.3330  2.7316  2.0522
 1828SOL    HW2 6384   3.840   4.367   5.960  0.2466 -0.2973 -0.8550
 1829SOL     OW 6385   2.062   1.226   2.852 -0.9421  0.8365  0.2645
 1829SOL    HW1 6386   2.063   1.151   2.919 -0.7388  1.4993  1.0262
 1829SOL    HW2 6387   2.155   1.263   2.842 -0.6924 -0.1516 -1.4483
 1830SOL     OW 6388   5.692   0.717   5.685 -0.1673  0.1182  0.5391
 1830SOL    HW1 6389   5.593   0.707   5.679 -0.0873 -0.4461  0.1307
 1830SOL    HW2 6390   5.737   0.635   5.651  0.4878  1.2295 -1.4449
 1831SOL     OW 6391   4.669   0.429   2.295  0.2863 -0.3006 -0.4033
 1831SOL    HW1 6392   4.579   0.414   2.253  0.5823  0.0544 -1.1981
 1831SOL    HW2 6393   4.693   0.526   2.289  0.1744 -0.1688  0.9675
 1832SOL     OW 6394   3.645   2.768   1.919 -0.0418 -0.4729  0.3813
 1832SOL    HW1 6395   3.556   2.758   1.876 -0.2100 -0.2600  0.6777
 1832SOL    HW2 6396   3.635   2.770   2.019  0.3746 -1.2743  0.4517
 1833SOL     OW 6397   5.977   6.656   0.676 -0.2786 -0.7018  0.1069
 1833SOL    HW1 6398   6.050   6.593   0.703  0.5898  0.0351 -0.4823
 1833SOL    HW2 6399   5.922   6.613   0.604 -0.2650 -1.1582  0.3655
 1834SOL     OW 6400   3.692   2.390   1.656 -0.4004  0.3089  0.1246
 1834SOL    HW1 6401   3.624   2.328   1.616 -0.1646 -0.2446  0.5647
 1834SOL    HW2 6402   3.719   2.356   1.746  0.4850  0.5033 -0.0570
 1835SOL     OW 6403   1.245   5.556   0.731 -0.4637  0.2780  0.0875
 1835SOL    HW1 6404   1.313   5.487   0.755 -0.2856  0.2562 -0.4655
 1835SOL    HW2 6405   1.290   5.634   0.687 -0.9144 -0.2895 -1.4591
 1836SOL     OW 6406   4.946   1.307   3.550 -0.0971  0.7872  0.0484
 1836SOL    HW1 6407   4.973   1.385   3.607 -0.1435  2.0359 -1.5521
 1836SOL    HW2 6408   4.909   1.341   3.463 -1.7402 -0.9969 -0.0183
 1837SOL     OW 6409   1.023   2.045   6.566  0.0942  0.2842 -0.7388
 1837SOL    HW1 6410   1.068   2.077   6.482 -0.2988 -0.5816 -1.3054
 1837SOL    HW2 6411   1.006   1.946   6.558  1.7042 -0.2039  1.1295
 1838SOL     OW 6412   0.756   1.516   6.576 -0.5149  0.3019 -0.5241
 1838SOL    HW1 6413   0.767   1.609   6.539 -0.8283  1.9895  3.1431
 1838SOL    HW2 6414   0.726   1.522   6.672  2.5144 -3.5164  0.9310
 1839SOL     OW 6415   6.991   1.122   6.342  0.1641 -0.0427 -0.3352
 1839SOL    HW1 6416   6.931   1.058   6.294  0.9533  0.5227 -2.1323
 1839SOL    HW2 6417   7.013   1.084   6.432 -0.6035 -1.5849 -0.7517
 1840SOL     OW 6418   3.967   0.262   1.781  0.6029 -0.6902  0.3053
 1840SOL    HW1 6419   4.025   0.184   1.758  2.0472 -0.2296  2.1286
 1840SOL    HW2 6420   4.004   0.344   1.737  0.6004 -0.6021  0.4686
 1841SOL     OW 6421   3.460   0.673   2.641 -0.2423 -0.3453 -0.0738
 1841SOL    HW1 6422   3.453   0.706   2.735  2.3324 -1.0372  0.4392
 1841SOL    HW2 6423   3.528   0.728   2.592 -1.1180 -0.3778 -1.3681
 1842SOL     OW 6424   0.715   6.061   0.897 -0.1641  0.0590  0.1406
 1842SOL    HW1 6425   0.788   5.998   0.923 -1.0659 -0.8630  0.5130
 1842SOL    HW2 6426   0.717   6.140   0.958  0.7026  0.2008 -0.0484
 1843SOL     OW 6427   5.126   1.622   4.373  0.4623  0.1269 -0.4762
 1843SOL    HW1 6428   5.202   1.562   4.399 -0.2702 -0.2608  0.8299
 1843SOL    HW2 6429   5.069   1.576   4.305  0.4296 -0.2852 -0.1738
 1844SOL     OW 6430   5.473   1.581   5.258  0.2388  0.6837  0.0054
 1844SOL    HW1 6431   5.464   1.494   5.305  0.9335 -0.7863 -2.3850
 1844SOL    HW2 6432   5.535   1.641   5.310  0.2288 -0.4566  1.3936
 1845SOL     OW 6433   4.630   2.220   2.309 -0.1164 -0.5792 -0.1923
 1845SOL    HW1 6434   4.695   2.274   2.363 -1.3127  1.5243 -0.7744
 1845SOL    HW2 6435   4.673   2.195   2.222  0.8781 -1.6758  0.5849
 1846SOL     OW 6436   5.264   0.232   3.305 -1.0370 -0.2331  0.8482
 1846SOL    HW1 6437   5.182   0.273   3.346 -3.4395 -2.4722 -1.2894
 1846SOL    HW2 6438   5.244   0.208   3.210  2.2812 -0.6128  0.1577
 1847SOL     OW 6439   1.688   5.469   5.253 -0.2391 -0.1934 -0.3874
 1847SOL    HW1 6440   1.630   5.485   5.173 -0.0976 -0.2326 -0.4990
 1847SOL    HW2 6441   1.655   5.524   5.330  1.1382  1.8645 -1.1846
 1848SOL     OW 6442   3.947   5.915   3.833 -0.0367 -0.4352 -0.3284
 1848SOL    HW1 6443   3.874   5.962   3.784 -2.4642 -2.5866  0.9467
 1848SOL    HW2 6444   3.990   5.847   3.773 -0.8498 -0.9065 -0.3872
 1849SOL     OW 6445   3.817   2.141   3.045 -0.5628  0.0973  1.0909
 1849SOL    HW1 6446   3.874   2.073   3.091 -0.4280  0.4257  1.4165
 1849SOL    HW2 6447   3.784   2.104   2.959  0.2319 -0.0595  0.8483
 1850SOL     OW 6448   5.058   1.059   2.768  0.7841 -0.1551 -0.4308
 1850SOL    HW1 6449   5.084   1.112   2.687  0.5225 -1.9283 -1.7207
 1850SOL    HW2 6450   5.140   1.017   2.808  0.6705 -0.9093 -0.9773
 1851SOL     OW 6451   6.756   2.952   5.679 -0.8506  0.3047 -0.2975
 1851SOL    HW1 6452   6.766   2.853   5.688 -1.3916  0.2604 -0.1014
 1851SOL    HW2 6453   6.790   2.982   5.590 -2.3281 -0.3176 -1.1199
 1852SOL     OW 6454   6.477   5.610   3.664 -0.9732 -0.4178  0.1595
 1852SOL    HW1 6455   6.437   5.558   3.739  0.6683 -1.4611  0.3533
 1852SOL    HW2 6456   6.541   5.677   3.701 -1.4389  0.2561 -0.2302
 1853SOL     OW 6457   0.585   1.489   3.964 -0.2099 -0.6063 -0.0058
 1853SOL    HW1 6458   0.551   1.473   3.872 -1.3614  0.7400  0.1478
 1853SOL    HW2 6459   0.595   1.587   3.980  0.0870 -0.8181  1.2588
 1854SOL     OW 6460   6.650   4.833   4.332 -0.0918  0.4076 -0.5712
 1854SOL    HW1 6461   6.713   4.759   4.311 -0.6174  0.0460 -0.8935
 1854SOL    HW2 6462   6.676   4.915   4.280 -0.7744 -0.1817 -1.8865
 1855SOL     OW 6463   5.651   2.212   6.351 -0.3882  0.3991 -0.6526
 1855SOL    HW1 6464   5.706   2.165   6.282 -1.1650 -1.3556 -0.1297
 1855SOL    HW2 6465   5.656   2.162   6.437 -0.4235  1.8756  0.2546
 1856SOL     OW 6466   5.015   3.375   6.560 -0.1992  0.6961 -0.1393
 1856SOL    HW1 6467   5.081   3.369   6.485 -1.4570 -0.5868 -1.1889
 1856SOL    HW2 6468   4.926   3.404   6.524 -0.5151  1.3228  1.0756
 1857SOL     OW 6469   4.473   1.375   0.008  0.2781 -0.0544  0.4095
 1857SOL    HW1 6470   4.429   1.369   0.098  0.4877  0.1423  0.5275
 1857SOL    HW2 6471   4.561   1.421   0.018  0.7986 -0.9901  0.2838
 1858SOL     OW 6472   5.182   2.466   2.774 -0.0328  0.2581 -0.0713
 1858SOL    HW1 6473   5.174   2.397   2.702 -0.5973  0.8785 -0.6040
 1858SOL    HW2 6474   5.097   2.469   2.827  0.2155  0.1218  0.3403
 1859SOL     OW 6475   6.388   6.294   3.559 -0.2769  0.2005  0.0456
 1859SOL    HW1 6476   6.386   6.353   3.478 -1.4023  0.9731  0.6212
 1859SOL    HW2 6477   6.401   6.199   3.530 -2.4379  0.2371 -1.2028
 1860SOL     OW 6478   6.866   1.664   4.925 -0.8634  0.4057 -0.6640
 1860SOL    HW1 6479   6.897   1.662   5.020 -0.0909 -0.0244 -0.9143
 1860SOL    HW2 6480   6.867   1.571   4.888 -2.7096  0.3389 -0.6148
 1861SOL     OW 6481   5.544   6.925   0.785 -0.0006  0.3757  0.3894
 1861SOL    HW1 6482   5.493   6.844   0.812 -0.2223 -0.3664 -1.9880
 1861SOL    HW2 6483   5.637   6.900   0.761 -0.0620  0.8137 -0.3438
 1862SOL     OW 6484   0.466   5.495   6.465 -0.3502 -0.0422 -0.0308
 1862SOL    HW1 6485   0.560   5.504   6.432 -0.9375  1.1070 -1.4629
 1862SOL    HW2 6486   0.462   5.519   6.562  1.0056 -1.2324  0.3642
 1863SOL     OW 6487   1.161   2.273   0.921  0.8343 -0.5874 -0.1276
 1863SOL    HW1 6488   1.098   2.199   0.944 -0.7650  0.8894  0.4261
 1863SOL    HW2 6489   1.219   2.293   1.000 -0.6081  0.5274  0.6952
 1864SOL     OW 6490   3.192   4.127   6.149  0.0874  0.4496  0.1374
 1864SOL    HW1 6491   3.168   4.039   6.107 -0.1688  0.5369  0.1065
 1864SOL    HW2 6492   3.118   4.158   6.208  1.8182 -1.5038  3.6735
 1865SOL     OW 6493   3.560   1.959   2.049 -0.7663  0.1055  0.6022
 1865SOL    HW1 6494   3.579   2.054   2.074 -2.3958  0.2269  1.5502
 1865SOL    HW2 6495   3.645   1.909   2.036  0.1148  1.3954  1.2712
 1866SOL     OW 6496   6.483   3.953   3.054  0.2846  0.5330  0.2805
 1866SOL    HW1 6497   6.488   3.942   2.954 -0.0184 -0.3922  0.3547
 1866SOL    HW2 6498   6.548   4.023   3.083 -0.1949  1.3996 -0.6529
 1867SOL     OW 6499   2.876   4.179   0.777 -0.3689 -0.9529  0.0804
 1867SOL    HW1 6500   2.790   4.195   0.729  0.1272 -0.4014 -0.6416
 1867SOL    HW2 6501   2.928   4.108   0.731  1.0723  1.0353 -1.5368
 1868SOL     OW 6502   4.887   3.970   6.953 -0.0742 -0.7238 -0.0689
 1868SOL    HW1 6503   4.967   4.015   6.914 -0.5044 -0.7762 -1.0227
 1868SOL    HW2 6504   4.836   3.922   6.882 -0.9075 -0.7774  0.5342
 1869SOL     OW 6505   5.475   2.670   4.508 -0.7847  0.1487  0.2807
 1869SOL    HW1 6506   5.439   2.591   4.559 -1.4844 -0.0233 -0.4541
 1869SOL    HW2 6507   5.567   2.649   4.475 -0.6789 -0.0759  0.6991
 1870SOL     OW 6508   0.820   4.335   3.123  0.1923 -0.2964  0.4670
 1870SOL    HW1 6509   0.823   4.427   3.162  1.1107  0.7140 -1.8115
 1870SOL    HW2 6510   0.886   4.328   3.048 -0.6088 -2.4814 -0.1179
 1871SOL     OW 6511   6.498   6.340   1.308  0.3155  0.1181  0.4351
 1871SOL    HW1 6512   6.422   6.383   1.260 -0.0695  1.0690  1.8416
 1871SOL    HW2 6513   6.479   6.242   1.319  0.8215 -0.3293 -2.0415
 1872SOL     OW 6514   4.213   2.408   6.918 -0.2961  0.6358  0.2999
 1872SOL    HW1 6515   4.302   2.433   6.879 -0.8347  1.3149 -0.5292
 1872SOL    HW2 6516   4.149   2.387   6.843 -0.5901 -0.7273  0.9010
 1873SOL     OW 6517   4.503   1.102   0.572  0.0969  0.4588  0.8916
 1873SOL    HW1 6518   4.478   1.092   0.668 -0.7537  0.2387  0.6582
 1873SOL    HW2 6519   4.420   1.105   0.516  0.5345  1.8679  0.2722
 1874SOL     OW 6520   2.320   0.647   0.196  0.1356  0.1760  0.1196
 1874SOL    HW1 6521   2.369   0.568   0.159 -1.1761 -1.1255  1.0197
 1874SOL    HW2 6522   2.322   0.644   0.296 -0.7335  0.7487  0.1702
 1875SOL     OW 6523   0.220   4.865   3.814  0.4297  0.0026 -0.1928
 1875SOL    HW1 6524   0.303   4.884   3.760  0.4112 -0.1825 -0.2892
 1875SOL    HW2 6525   0.241   4.796   3.883  0.9224  1.5079  1.2416
 1876SOL     OW 6526   5.540   6.852   6.790 -0.0907 -1.1521 -0.1318
 1876SOL    HW1 6527   5.515   6.812   6.878 -2.0825 -2.4076 -1.1907
 1876SOL    HW2 6528   5.512   6.790   6.717  1.4598 -0.1093 -1.6837
 1877SOL     OW 6529   2.039   2.359   3.604  0.2424 -0.2392  0.3546
 1877SOL    HW1 6530   2.100   2.413   3.545 -2.0892  1.9897 -0.1848
 1877SOL    HW2 6531   2.021   2.410   3.688 -1.1981 -0.6421  0.3097
 1878SOL     OW 6532   0.418   4.399   1.511 -0.0797 -0.2974 -0.8311
 1878SOL    HW1 6533   0.366   4.339   1.451  0.7546 -0.1145 -1.7481
 1878SOL    HW2 6534   0.512   4.366   1.520 -1.1123 -2.9314  3.9030
 1879SOL     OW 6535   2.877   4.895   2.601 -0.5743 -0.0351 -0.4378
 1879SOL    HW1 6536   2.857   4.993   2.598 -0.1285  0.0960  0.4775
 1879SOL    HW2 6537   2.875   4.863   2.696 -0.4993 -0.8657 -0.7056
 1880SOL     OW 6538   1.706   1.858   2.892 -0.0370 -0.1593  0.3041
 1880SOL    HW1 6539   1.645   1.937   2.886  0.2220 -0.0747 -2.7249
 1880SOL    HW2 6540   1.799   1.889   2.912  0.1025  0.3914 -1.0755
 1881SOL     OW 6541   6.957   3.208   6.111 -0.4250 -0.0497 -0.5216
 1881SOL    HW1 6542   6.912   3.215   6.201 -0.6348  3.8296 -0.7399
 1881SOL    HW2 6543   7.049   3.248   6.117 -0.1716 -0.3836 -1.9034
 1882SOL     OW 6544   1.690   5.978   6.506 -0.1067  0.2641 -0.0990
 1882SOL    HW1 6545   1.750   5.899   6.508 -0.0812  0.2528 -0.8014
 1882SOL    HW2 6546   1.743   6.061   6.528 -0.0878  0.1141  0.4218
 1883SOL     OW 6547   2.381   4.530   3.644  0.0207  0.1527 -0.4351
 1883SOL    HW1 6548   2.462   4.534   3.586 -0.5638 -0.3376 -1.3096
 1883SOL    HW2 6549   2.333   4.444   3.628 -1.0688  0.7499 -0.4682
 1884SOL     OW 6550   4.554   0.632   0.491 -0.2995  0.8832  0.2750
 1884SOL    HW1 6551   4.551   0.720   0.539 -0.7497  0.8501  0.3039
 1884SOL    HW2 6552   4.650   0.608   0.473 -0.2056  1.9924 -0.8706
 1885SOL     OW 6553   0.138   1.988   1.319  0.1950  0.0164  0.5148
 1885SOL    HW1 6554   0.189   1.909   1.285 -0.8998 -0.5003  0.0254
 1885SOL    HW2 6555   0.051   1.957   1.358 -1.1268  1.0989 -1.3955
 1886SOL     OW 6556   2.102   1.288   6.108  0.3811  0.3039 -1.0251
 1886SOL    HW1 6557   2.136   1.376   6.140  1.9286  0.0250 -1.8085
 1886SOL    HW2 6558   2.139   1.269   6.017  0.7252 -1.4999 -0.5477
 1887SOL     OW 6559   6.497   6.842   5.039  0.2747  0.2754 -0.2831
 1887SOL    HW1 6560   6.438   6.820   4.961 -0.5664  0.6399  0.2240
 1887SOL    HW2 6561   6.443   6.835   5.123  1.5327 -1.6347  0.4463
 1888SOL     OW 6562   1.422   1.971   7.014  0.6036  0.0617 -0.1264
 1888SOL    HW1 6563   1.378   1.881   7.017  0.4029  0.0906 -1.7045
 1888SOL    HW2 6564   1.355   2.041   7.040  0.2823 -0.0818 -0.5708
 1889SOL     OW 6565   4.707   4.832   6.743  0.0959 -0.1774 -0.4718
 1889SOL    HW1 6566   4.805   4.852   6.753  0.0323 -0.5066  1.2204
 1889SOL    HW2 6567   4.659   4.912   6.709  0.5863  0.9193  1.2951
 1890SOL     OW 6568   2.161   6.357   6.171  0.1965 -0.2141 -0.0319
 1890SOL    HW1 6569   2.092   6.304   6.220 -0.3367  1.9283  1.6671
 1890SOL    HW2 6570   2.236   6.380   6.233 -0.4177  2.4468 -0.1736
 1891SOL     OW 6571   5.410   1.327   5.371  0.2704  0.5260  1.0754
 1891SOL    HW1 6572   5.412   1.307   5.469  2.5236 -0.0576  0.9808
 1891SOL    HW2 6573   5.442   1.246   5.321 -0.5731  0.9242 -0.1243
 1892SOL     OW 6574   3.899   6.110   1.138  0.4885 -0.5764 -0.2911
 1892SOL    HW1 6575   3.965   6.112   1.063 -1.3480 -0.9627 -2.0413
 1892SOL    HW2 6576   3.823   6.049   1.113 -1.9169  1.9653  0.2798
 1893SOL     OW 6577   3.940   0.023   6.135  0.5221 -0.8250 -0.1092
 1893SOL    HW1 6578   3.844   0.028   6.108  0.9969  2.0226 -1.6257
 1893SOL    HW2 6579   3.949   0.045   6.232 -0.3258 -0.8247 -0.0259
 1894SOL     OW 6580   5.278   2.923   1.606  0.4653 -0.1379 -0.4674
 1894SOL    HW1 6581   5.186   2.939   1.643  0.0579  0.3026 -1.6370
 1894SOL    HW2 6582   5.300   2.826   1.614  0.1971 -0.1372  0.4733
 1895SOL     OW 6583   0.226   0.935   1.230  0.5999 -0.0079  0.3069
 1895SOL    HW1 6584   0.291   1.011   1.234  2.0775 -1.1715 -0.5443
 1895SOL    HW2 6585   0.198   0.911   1.323 -0.2771  1.8433  0.5770
 1896SOL     OW 6586   0.497   1.441   3.708 -0.1210  0.9430 -0.5549
 1896SOL    HW1 6587   0.532   1.504   3.638  0.8998  1.4792  0.4054
 1896SOL    HW2 6588   0.398   1.452   3.716 -0.1211  1.5716 -1.2349
 1897SOL     OW 6589   1.067   5.013   1.749 -0.4228 -0.1451  0.7312
 1897SOL    HW1 6590   1.047   4.973   1.839 -0.5949  0.3481  0.9189
 1897SOL    HW2 6591   1.015   5.098   1.739 -2.5778 -1.5447 -0.9542
 1898SOL     OW 6592   3.169   7.007   1.650 -0.2550  0.0915 -0.0508
 1898SOL    HW1 6593   3.168   7.025   1.552  1.9922 -0.2138 -0.1888
 1898SOL    HW2 6594   3.146   6.911   1.666  1.0770 -0.3096 -0.4481
 1899SOL     OW 6595   1.174   2.532   2.162 -0.3312 -0.3033  0.4812
 1899SOL    HW1 6596   1.216   2.544   2.072  1.3621  1.1480  1.3817
 1899SOL    HW2 6597   1.157   2.435   2.178 -1.5275 -0.5215 -1.7296
 1900SOL     OW 6598   3.177   5.781   6.878 -0.3812 -0.0359  0.7953
 1900SOL    HW1 6599   3.175   5.684   6.854 -1.1345 -0.7504  3.4179
 1900SOL    HW2 6600   3.239   5.795   6.955 -1.9516  1.1493  1.9232
 1901SOL     OW 6601   1.957   5.707   5.240  0.0960  0.3170  0.2633
 1901SOL    HW1 6602   1.988   5.612   5.236  0.3240  0.3288  1.4304
 1901SOL    HW2 6603   1.901   5.720   5.322  1.1325  1.4939  0.8199
 1902SOL     OW 6604   1.041   3.066   4.579 -0.0003  0.0784  0.2029
 1902SOL    HW1 6605   1.130   3.079   4.623  0.4101  2.2610 -1.1508
 1902SOL    HW2 6606   1.050   3.002   4.503  0.8227  1.5698 -0.9904
 1903SOL     OW 6607   6.494   4.257   0.993  0.3101 -1.0674  0.4059
 1903SOL    HW1 6608   6.544   4.269   0.907  0.2316 -1.1931  0.3414
 1903SOL    HW2 6609   6.438   4.338   1.012  2.6089  0.2737  1.8694
 1904SOL     OW 6610   0.284   5.967   3.694 -0.1752  0.4114 -0.2537
 1904SOL    HW1 6611   0.212   6.012   3.641 -0.8047  0.5392  0.6944
 1904SOL    HW2 6612   0.314   5.885   3.645 -1.0787  0.2610 -0.5834
 1905SOL     OW 6613   0.271   1.685   3.617  0.0940  0.2009 -0.5770
 1905SOL    HW1 6614   0.367   1.696   3.593  0.5721 -2.2347 -0.0610
 1905SOL    HW2 6615   0.263   1.679   3.717 -0.7340  1.2021 -0.5645
 1906SOL     OW 6616   2.050   6.196   5.004  0.2095  0.4412  0.0275
 1906SOL    HW1 6617   2.051   6.265   4.931  0.0091 -0.5810 -0.9608
 1906SOL    HW2 6618   1.965   6.205   5.056 -1.7365 -1.5020 -2.5435
 1907SOL     OW 6619   4.094   6.015   3.246 -0.2188  0.0976 -0.3234
 1907SOL    HW1 6620   4.145   6.048   3.168  1.2378 -0.2302  0.4578
 1907SOL    HW2 6621   4.070   5.919   3.232  0.8402 -0.2307 -0.0080
 1908SOL     OW 6622   4.391   0.456   4.954 -0.1346 -0.2752 -0.8324
 1908SOL    HW1 6623   4.409   0.552   4.975 -2.5635  0.7134 -2.7604
 1908SOL    HW2 6624   4.371   0.406   5.038 -1.3061  1.5027  0.0034
 1909SOL     OW 6625   1.534   3.686   4.122  0.0388 -0.0292  0.4442
 1909SOL    HW1 6626   1.525   3.593   4.157  2.2694 -1.0186 -1.3972
 1909SOL    HW2 6627   1.511   3.751   4.195  0.0471 -1.9763  2.2824
 1910SOL     OW 6628   2.915   2.804   6.712 -0.0741  0.1152 -0.0741
 1910SOL    HW1 6629   2.986   2.789   6.781  0.7313 -1.0539 -1.1025
 1910SOL    HW2 6630   2.936   2.885   6.659 -0.7293  1.0569  1.0554
 1911SOL     OW 6631   4.840   0.761   4.572 -0.1867  0.1211  0.2248
 1911SOL    HW1 6632   4.802   0.679   4.614  0.9676  0.3448  1.7682
 1911SOL    HW2 6633   4.939   0.749   4.559 -0.0772  1.1101  0.0760
 1912SOL     OW 6634   6.429   5.950   2.585 -0.0279 -0.4721  0.2364
 1912SOL    HW1 6635   6.350   5.987   2.634  0.3606  1.2514 -0.3590
 1912SOL    HW2 6636   6.397   5.882   2.518 -1.1621  0.8657 -0.6530
 1913SOL     OW 6637   0.593   6.852   5.067 -0.1814  0.0948  0.0079
 1913SOL    HW1 6638   0.498   6.844   5.095  0.5113  1.4553  3.1549
 1913SOL    HW2 6639   0.604   6.933   5.010 -0.8949 -0.1894 -0.5575
 1914SOL     OW 6640   3.180   2.022   6.806  0.2514 -0.1837  0.5018
 1914SOL    HW1 6641   3.188   2.037   6.904 -1.9029  0.4838  0.6109
 1914SOL    HW2 6642   3.086   2.035   6.777  0.9697  0.4108 -1.8020
 1915SOL     OW 6643   4.908   2.269   4.759 -0.2395 -0.2056 -0.6646
 1915SOL    HW1 6644   4.896   2.343   4.693  2.5875  0.9417 -0.0582
 1915SOL    HW2 6645   4.829   2.266   4.820 -0.9838  1.4967 -1.4641
 1916SOL     OW 6646   2.849   6.152   0.884  0.4427  0.2061 -0.3415
 1916SOL    HW1 6647   2.767   6.132   0.937  1.5410  0.8974  1.7334
 1916SOL    HW2 6648   2.848   6.099   0.799 -2.6640  1.0779 -0.9514
 1917SOL     OW 6649   2.796   3.784   5.524  0.0305  0.0262  0.1564
 1917SOL    HW1 6650   2.818   3.688   5.541  0.1538 -0.0447 -0.3947
 1917SOL    HW2 6651   2.707   3.790   5.480  0.2912  0.1257 -0.3594
 1918SOL     OW 6652   5.611   6.139   6.673  0.3637 -0.2873  0.6586
 1918SOL    HW1 6653   5.580   6.104   6.762  0.8040  0.0300  0.9421
 1918SOL    HW2 6654   5.710   6.149   6.674  0.2275  1.2500  0.6936
 1919SOL     OW 6655   0.392   0.064   0.891 -0.4452  0.1137 -0.0708
 1919SOL    HW1 6656   0.416   0.158   0.865 -1.1495  0.7265  1.3634
 1919SOL    HW2 6657   0.432   0.043   0.980 -1.8117 -0.2825  0.4760
 1920SOL     OW 6658   0.811   3.424   2.046  1.0176  0.2868 -0.1532
 1920SOL    HW1 6659   0.792   3.326   2.038 -0.2338  0.5570 -0.8255
 1920SOL    HW2 6660   0.808   3.466   1.955 -1.3490  1.4104  0.3669
 1921SOL     OW 6661   1.159   6.191   5.787 -0.2214 -0.1303  0.3105
 1921SOL    HW1 6662   1.235   6.127   5.776  0.1883  0.4737 -0.5305
 1921SOL    HW2 6663   1.147   6.213   5.884 -0.0124 -1.0407  0.5492
 1922SOL     OW 6664   5.703   1.808   2.123 -0.0017  0.6139 -0.0741
 1922SOL    HW1 6665   5.750   1.856   2.197 -1.9092  2.6707 -0.0877
 1922SOL    HW2 6666   5.763   1.802   2.044  0.7451  1.8674  0.3690
 1923SOL     OW 6667   1.869   2.504   5.267 -0.6285  0.4954  0.3399
 1923SOL    HW1 6668   1.923   2.588   5.269 -1.7993  1.2704  0.2370
 1923SOL    HW2 6669   1.928   2.427   5.292  0.8110  1.1172 -0.9460
 1924SOL     OW 6670   5.158   5.800   2.008 -0.7976  0.6618 -0.2783
 1924SOL    HW1 6671   5.149   5.860   1.929 -1.7660 -1.9686 -2.2835
 1924SOL    HW2 6672   5.254   5.795   2.036 -0.4487  1.6636 -1.2382
 1925SOL     OW 6673   4.347   4.504   1.820 -0.3899 -0.6272  0.7316
 1925SOL    HW1 6674   4.278   4.541   1.883  0.5359  1.3495  0.6698
 1925SOL    HW2 6675   4.384   4.419   1.858  0.1538  0.5099  2.9329
 1926SOL     OW 6676   1.333   5.100   5.354  0.8132 -0.7673 -0.3333
 1926SOL    HW1 6677   1.297   5.167   5.419 -0.7148 -1.8515 -0.0033
 1926SOL    HW2 6678   1.384   5.029   5.404  0.6755 -0.9453 -0.4439
 1927SOL     OW 6679   4.545   4.356   5.566  0.9907 -0.3642 -0.8316
 1927SOL    HW1 6680   4.607   4.281   5.544  2.1761  0.1829  0.4946
 1927SOL    HW2 6681   4.583   4.411   5.641 -1.0956 -0.0139  0.0644
 1928SOL     OW 6682   6.135   6.074   6.364 -0.0237  0.0838  0.8449
 1928SOL    HW1 6683   6.051   6.094   6.415 -0.6579  1.1018 -0.5205
 1928SOL    HW2 6684   6.162   5.979   6.379 -1.2713 -0.1814  1.5159
 1929SOL     OW 6685   0.955   4.731   1.843  0.0736  0.3915 -0.8534
 1929SOL    HW1 6686   0.969   4.679   1.927  0.9333  3.4181  1.0298
 1929SOL    HW2 6687   1.035   4.724   1.784  0.5581  0.3204 -0.1854
 1930SOL     OW 6688   0.443   6.994   5.662  0.4880 -0.5928 -0.2181
 1930SOL    HW1 6689   0.530   7.010   5.708 -0.4101 -1.7891  2.0110
 1930SOL    HW2 6690   0.376   7.062   5.692  0.6480  0.5070 -2.1387
 1931SOL     OW 6691   6.269   3.348   3.196 -0.5852 -0.4996 -0.0909
 1931SOL    HW1 6692   6.294   3.349   3.293 -1.8300 -1.3274  0.2502
 1931SOL    HW2 6693   6.212   3.268   3.177  0.5676 -0.9804 -1.7519
 1932SOL     OW 6694   4.481   5.309   3.078  0.2248  0.5573  0.2581
 1932SOL    HW1 6695   4.412   5.329   3.009  0.3985 -0.9282 -0.3842
 1932SOL    HW2 6696   4.445   5.329   3.169 -0.8842  0.2374 -0.1004
 1933SOL     OW 6697   1.439   3.413   1.912 -0.5014  0.5036 -0.4312
 1933SOL    HW1 6698   1.449   3.371   1.822  1.2397 -0.3763  0.1109
 1933SOL    HW2 6699   1.520   3.468   1.932  0.6467 -1.7430  1.7495
 1934SOL     OW 6700   6.989   6.456   6.661  0.2470 -0.8981 -0.4057
 1934SOL    HW1 6701   7.026   6.547   6.641  0.2109 -1.3692 -2.9051
 1934SOL    HW2 6702   6.892   6.465   6.684  0.6550 -0.1632  1.1366
 1935SOL     OW 6703   2.717   0.763   3.156 -0.9469 -0.0258 -0.7284
 1935SOL    HW1 6704   2.729   0.796   3.062 -0.8207 -0.5435 -0.8988
 1935SOL    HW2 6705   2.620   0.763   3.179 -1.1472 -1.3539 -1.4179
 1936SOL     OW 6706   4.289   4.648   4.521 -0.1680  0.3992  0.2513
 1936SOL    HW1 6707   4.332   4.609   4.440  0.4042  2.1122 -0.3314
 1936SOL    HW2 6708   4.323   4.601   4.603  1.2267  0.2948 -0.3486
 1937SOL     OW 6709   3.292   5.298   2.134  0.1376  0.3461  0.1060
 1937SOL    HW1 6710   3.372   5.288   2.076 -1.2916 -0.2743 -1.8777
 1937SOL    HW2 6711   3.213   5.324   2.078 -0.6185  3.2382  2.2953
 1938SOL     OW 6712   5.121   0.705   1.843  0.0605 -0.5137  0.4602
 1938SOL    HW1 6713   5.164   0.667   1.761 -2.3187 -0.4828 -0.9213
 1938SOL    HW2 6714   5.099   0.801   1.827  0.3353 -0.2673  1.4911
 1939SOL     OW 6715   0.987   0.669   1.155 -0.2660 -0.3327  0.7291
 1939SOL    HW1 6716   0.968   0.766   1.172  0.8772  0.0031  0.2042
 1939SOL    HW2 6717   1.059   0.639   1.217  2.7993  0.4745 -2.1575
 1940SOL     OW 6718   5.561   4.908   4.168 -0.1530 -0.6388 -0.6078
 1940SOL    HW1 6719   5.554   5.007   4.155  1.5369 -0.5462 -1.0118
 1940SOL    HW2 6720   5.580   4.889   4.264  0.1240 -0.5185 -0.6356
 1941SOL     OW 6721   0.453   4.727   0.847  0.0322  0.4424 -0.3412
 1941SOL    HW1 6722   0.372   4.762   0.893 -0.6808 -0.3437 -0.9723
 1941SOL    HW2 6723   0.450   4.627   0.846  0.2109  0.4337 -1.7578
 1942SOL     OW 6724   5.679   6.742   1.425  0.1382 -0.1694 -0.0722
 1942SOL    HW1 6725   5.753   6.704   1.370  0.5406  0.0951  0.2856
 1942SOL    HW2 6726   5.705   6.832   1.460 -0.2143 -0.2191  0.3368
 1943SOL     OW 6727   3.894   5.481   1.045  0.2585 -0.1438 -0.1493
 1943SOL    HW1 6728   3.953   5.403   1.025  1.5663  1.2226 -1.9309
 1943SOL    HW2 6729   3.806   5.470   0.999  1.1096  0.2291 -1.9457
 1944SOL     OW 6730   4.967   1.995   4.706 -0.3682 -0.4456 -0.1526
 1944SOL    HW1 6731   4.934   2.086   4.685  1.3802  0.2946  0.1482
 1944SOL    HW2 6732   5.062   1.986   4.678  0.3953 -1.2113  2.3642
 1945SOL     OW 6733   5.264   6.997   2.518  0.6579  0.0496  0.0773
 1945SOL    HW1 6734   5.193   7.063   2.494 -0.3258 -1.5580 -1.6521
 1945SOL    HW2 6735   5.320   6.977   2.438  1.7553 -0.3026  0.8963
 1946SOL     OW 6736   0.616   0.994   5.967  0.0091  0.9453  0.1335
 1946SOL    HW1 6737   0.628   1.072   5.906 -0.9297  0.1314 -1.1328
 1946SOL    HW2 6738   0.705   0.950   5.982  0.3900  1.6760  0.0833
 1947SOL     OW 6739   4.568   6.970   4.254 -0.1615  0.2598  0.3620
 1947SOL    HW1 6740   4.557   7.069   4.249  0.2627  0.2630 -0.7035
 1947SOL    HW2 6741   4.635   6.947   4.325  0.9375  0.8336 -0.4709
 1948SOL     OW 6742   0.307   5.542   2.546  0.0644  0.3043  0.3589
 1948SOL    HW1 6743   0.368   5.506   2.475 -0.2131 -0.1830  0.3629
 1948SOL    HW2 6744   0.260   5.623   2.511  0.2082  0.2837  0.1143
 1949SOL     OW 6745   6.172   4.721   5.439  0.6021 -0.3863 -0.5120
 1949SOL    HW1 6746   6.084   4.701   5.398  1.1830 -4.7495 -0.1750
 1949SOL    HW2 6747   6.178   4.676   5.529  2.0775  2.5135  0.9813
 1950SOL     OW 6748   5.623   3.677   0.419  0.0720  0.4428 -0.7262
 1950SOL    HW1 6749   5.662   3.592   0.383  0.1388  0.7069 -1.2766
 1950SOL    HW2 6750   5.695   3.730   0.465 -0.1471 -0.2010  0.3984
 1951SOL     OW 6751   6.615   3.396   6.629  0.2060 -0.3463 -0.3199
 1951SOL    HW1 6752   6.695   3.445   6.664 -0.2711 -0.3198  0.7716
 1951SOL    HW2 6753   6.627   3.379   6.531  1.4191 -0.1031 -0.2343
 1952SOL     OW 6754   3.101   0.149   2.010  0.1393  0.2505 -0.2616
 1952SOL    HW1 6755   3.005   0.140   2.036 -0.2643  1.4236 -1.2422
 1952SOL    HW2 6756   3.148   0.062   2.025 -1.1274 -0.4083  0.0201
 1953SOL     OW 6757   6.555   4.029   0.550 -0.3566 -0.4653 -0.2651
 1953SOL    HW1 6758   6.470   4.056   0.505 -0.3050 -0.2084 -0.2065
 1953SOL    HW2 6759   6.618   3.992   0.482 -0.6437 -0.9883 -0.2597
 1954SOL     OW 6760   6.601   1.772   5.504 -0.7090  0.5112 -0.0870
 1954SOL    HW1 6761   6.670   1.733   5.443 -1.8274 -0.3535 -0.8529
 1954SOL    HW2 6762   6.646   1.821   5.578  0.7095  0.6622 -1.0005
 1955SOL     OW 6763   1.778   1.926   2.615 -0.1818 -0.3892  0.1242
 1955SOL    HW1 6764   1.788   1.862   2.691 -0.9404 -0.1466  0.4383
 1955SOL    HW2 6765   1.771   1.876   2.530 -1.2231 -0.7636  0.4119
 1956SOL     OW 6766   5.394   0.412   2.337  0.9535 -0.1124  0.0304
 1956SOL    HW1 6767   5.397   0.315   2.313 -0.1383 -0.6767  1.9284
 1956SOL    HW2 6768   5.370   0.466   2.257 -0.2530 -1.6043 -0.6512
 1957SOL     OW 6769   6.893   5.138   2.691  0.4315 -0.8798  0.2207
 1957SOL    HW1 6770   6.854   5.202   2.757 -2.6560 -1.2451 -1.1065
 1957SOL    HW2 6771   6.848   5.049   2.699 -1.3616 -0.4724 -3.3797
 1958SOL     OW 6772   5.678   0.708   4.060  1.0951  0.1927 -0.0130
 1958SOL    HW1 6773   5.665   0.641   3.987  1.5590 -1.1299  1.0780
 1958SOL    HW2 6774   5.761   0.760   4.044 -0.2603  1.9441 -1.9061
 1959SOL     OW 6775   1.104   3.204   5.459 -0.0666  0.4093 -0.2593
 1959SOL    HW1 6776   1.114   3.304   5.460 -0.0928  0.4205  1.4357
 1959SOL    HW2 6777   1.192   3.162   5.436 -0.1251  0.8066 -1.2852
 1960SOL     OW 6778   4.789   3.593   1.693 -0.1795  0.4495 -0.5120
 1960SOL    HW1 6779   4.761   3.497   1.688 -1.7847  0.8207  0.5793
 1960SOL    HW2 6780   4.759   3.640   1.610 -0.9551  0.3596 -0.3003
 1961SOL     OW 6781   4.610   4.311   4.420 -0.2058 -0.2292  0.2510
 1961SOL    HW1 6782   4.697   4.267   4.398  0.0582  0.4878 -0.1738
 1961SOL    HW2 6783   4.570   4.267   4.500 -0.0248 -1.3273 -0.2363
 1962SOL     OW 6784   1.072   0.018   4.446  0.2102  0.3978 -0.1305
 1962SOL    HW1 6785   1.160   0.026   4.400  0.8105 -0.8949  0.7217
 1962SOL    HW2 6786   1.071  -0.066   4.501 -1.3795  0.6392  0.2547
 1963SOL     OW 6787   6.985   1.339   0.936  0.3127  0.0360 -0.4664
 1963SOL    HW1 6788   7.033   1.261   0.975  0.6428  0.5738  0.2216
 1963SOL    HW2 6789   6.949   1.397   1.009 -1.0857 -0.1549 -0.9657
 1964SOL     OW 6790   5.288   1.639   3.511 -0.1826  0.3260 -0.5544
 1964SOL    HW1 6791   5.340   1.557   3.488  0.1217  0.7820 -1.5407
 1964SOL    HW2 6792   5.343   1.697   3.571 -0.9056 -0.7795  1.2561
 1965SOL     OW 6793   6.806   3.971   4.328 -0.0314 -0.1311  0.3896
 1965SOL    HW1 6794   6.804   3.911   4.408 -2.6649  0.4939  0.8809
 1965SOL    HW2 6795   6.827   3.916   4.246 -2.6197 -1.8947  0.7845
 1966SOL     OW 6796   6.411   4.770   5.326  0.6252 -0.4304  0.4007
 1966SOL    HW1 6797   6.338   4.735   5.385  0.9695  1.0106  1.7525
 1966SOL    HW2 6798   6.409   4.870   5.326  2.7886 -0.3332  0.7663
 1967SOL     OW 6799   5.229   1.035   6.194  0.6075  0.2703 -0.1136
 1967SOL    HW1 6800   5.239   1.048   6.096  1.3424  1.6873  0.1294
 1967SOL    HW2 6801   5.174   0.953   6.211 -2.2382  1.6956 -1.7458
 1968SOL     OW 6802   0.883   5.597   6.748  0.0967 -0.0139  0.0452
 1968SOL    HW1 6803   0.816   5.623   6.678  1.3234  1.3628 -0.6848
 1968SOL    HW2 6804   0.840   5.600   6.838 -0.6294  1.7629 -0.3136
 1969SOL     OW 6805   0.016   1.525   2.878  0.7883 -0.0078 -0.1272
 1969SOL    HW1 6806  -0.049   1.591   2.915  0.7285 -0.2468  0.2003
 1969SOL    HW2 6807   0.081   1.500   2.950 -0.0954 -1.4507  0.2111
 1970SOL     OW 6808   2.617   0.803   5.574 -0.0953 -0.0880  0.8032
 1970SOL    HW1 6809   2.621   0.849   5.485  0.5863  1.7530  1.7246
 1970SOL    HW2 6810   2.598   0.706   5.561 -1.4392  0.3895 -1.2625
 1971SOL     OW 6811   6.711   6.677   6.128  0.2691 -0.7665 -0.0592
 1971SOL    HW1 6812   6.665   6.765   6.142  1.5099 -0.0687 -0.1943
 1971SOL    HW2 6813   6.679   6.636   6.042 -0.6423 -0.6763  0.2224
 1972SOL     OW 6814   6.579   2.954   3.648  0.2541 -0.2582  0.0136
 1972SOL    HW1 6815   6.547   2.994   3.734  0.8302 -0.4824  0.3390
 1972SOL    HW2 6816   6.597   3.026   3.582  1.7022  0.0966  0.7363
 1973SOL     OW 6817   2.800   2.644   1.679 -0.6656  0.3723 -0.0542
 1973SOL    HW1 6818   2.714   2.593   1.690 -0.9686  0.8212 -0.3144
 1973SOL    HW2 6819   2.873   2.596   1.727 -2.0082  2.5815  4.7098
 1974SOL     OW 6820   4.823   4.571   4.102 -0.2821  0.3414 -0.1107
 1974SOL    HW1 6821   4.910   4.530   4.072  0.9635  1.2396  2.0724
 1974SOL    HW2 6822   4.759   4.571   4.025  2.1572  1.0794 -2.3174
 1975SOL     OW 6823   2.343   1.590   5.620  0.1049 -0.5155 -0.5406
 1975SOL    HW1 6824   2.248   1.560   5.632  0.6500 -1.2348  3.2872
 1975SOL    HW2 6825   2.345   1.688   5.604 -1.3026 -0.1886  0.9907
 1976SOL     OW 6826   0.042   6.511   6.971 -0.1033 -0.1772  0.0092
 1976SOL    HW1 6827  -0.013   6.543   7.048  0.6747  0.9128  0.1432
 1976SOL    HW2 6828  -0.010   6.521   6.886 -0.2929  0.3767  0.1897
 1977SOL     OW 6829   0.448   3.744   3.799 -0.1678 -0.2608 -0.5752
 1977SOL    HW1 6830   0.384   3.768   3.873 -1.3235 -0.7803 -1.3663
 1977SOL    HW2 6831   0.541   3.768   3.826 -0.5299 -0.6492  1.1452
 1978SOL     OW 6832   0.666   0.894   4.399 -0.4175  0.5472  0.4664
 1978SOL    HW1 6833   0.594   0.838   4.440  1.2482 -1.5154  0.7744
 1978SOL    HW2 6834   0.729   0.926   4.470  0.9962 -0.8053 -0.1164
 1979SOL     OW 6835   6.523   5.366   4.346 -0.4529 -0.1859  0.3542
 1979SOL    HW1 6836   6.504   5.437   4.277 -0.6482 -1.6405 -1.1543
 1979SOL    HW2 6837   6.442   5.351   4.402 -0.4141  0.7508  0.6824
 1980SOL     OW 6838   3.269   0.371   6.434  0.8223 -0.0326  0.2628
 1980SOL    HW1 6839   3.325   0.417   6.365 -0.8016 -1.3060 -2.0448
 1980SOL    HW2 6840   3.196   0.433   6.464  1.4280  0.4654  0.7402
 1981SOL     OW 6841   5.083   0.961   3.426 -0.1485 -0.8042 -0.3016
 1981SOL    HW1 6842   5.172   0.951   3.471 -0.7553 -0.0337  1.1178
 1981SOL    HW2 6843   5.097   1.002   3.336  0.8140  1.1155  0.6480
 1982SOL     OW 6844   0.683   4.617   5.468 -0.1511  0.1832 -0.2562
 1982SOL    HW1 6845   0.699   4.584   5.375 -0.2433  0.6408 -0.4376
 1982SOL    HW2 6846   0.624   4.552   5.517 -0.7233  0.3189 -0.7608
 1983SOL     OW 6847   0.240   1.238   2.007  0.2020 -0.0663  0.2508
 1983SOL    HW1 6848   0.311   1.273   2.068  0.7784  0.1195 -0.5135
 1983SOL    HW2 6849   0.256   1.272   1.914  2.1320 -4.1023 -1.0985
 1984SOL     OW 6850   6.305   1.710   5.468 -0.6664  0.1397 -0.0694
 1984SOL    HW1 6851   6.399   1.744   5.469 -0.6190  0.1937 -2.1319
 1984SOL    HW2 6852   6.260   1.738   5.383 -2.4893 -0.0912  0.7569
 1985SOL     OW 6853   6.980   2.696   3.455 -0.2825 -0.9980 -0.0985
 1985SOL    HW1 6854   7.015   2.788   3.442 -2.6651 -0.0613 -0.4742
 1985SOL    HW2 6855   7.046   2.641   3.506  0.9427  1.0868  0.6463
 1986SOL     OW 6856   1.752   4.972   6.032 -0.0482 -0.0180 -0.5191
 1986SOL    HW1 6857   1.712   5.047   5.980  1.0822 -0.1823 -1.6804
 1986SOL    HW2 6858   1.733   4.885   5.986 -0.0380 -0.2929 -0.0141
 1987SOL     OW 6859   1.419   2.690   0.995 -0.1829  0.3190 -0.0185
 1987SOL    HW1 6860   1.421   2.668   0.897  1.8764 -1.3928  0.3259
 1987SOL    HW2 6861   1.429   2.789   1.006 -0.8377  0.5947 -1.5191
 1988SOL     OW 6862   5.658   6.315   1.858 -0.0143 -0.2992  0.0772
 1988SOL    HW1 6863   5.678   6.404   1.817 -0.3767 -0.9900 -1.6531
 1988SOL    HW2 6864   5.731   6.290   1.921 -0.1217  1.4132  0.9465
 1989SOL     OW 6865   3.706   5.683   5.869 -0.1746  0.3617 -0.0508
 1989SOL    HW1 6866   3.611   5.708   5.883 -0.2372 -0.5906  1.4443
 1989SOL    HW2 6867   3.739   5.631   5.948  0.8961 -1.3529 -1.5622
 1990SOL     OW 6868   4.729   6.436   6.873 -0.2122 -0.0894 -0.1480
 1990SOL    HW1 6869   4.644   6.486   6.888  0.6665  1.8241 -1.2240
 1990SOL    HW2 6870   4.786   6.441   6.955 -0.4697 -0.0298  0.0276
 1991SOL     OW 6871   4.950   1.914   0.800  0.5525 -0.0661 -0.1698
 1991SOL    HW1 6872   4.954   1.820   0.835  1.5067 -1.5749 -3.8528
 1991SOL    HW2 6873   5.037   1.959   0.818  0.9144 -0.6862 -0.3232
 1992SOL     OW 6874   0.940   5.823   0.669 -0.7686  0.3380  0.5342
 1992SOL    HW1 6875   0.965   5.772   0.751  0.7178 -0.4141 -0.3420
 1992SOL    HW2 6876   1.008   5.894   0.651  0.8183 -1.5928 -1.7729
 1993SOL     OW 6877   3.336   3.354   4.938  0.0954 -0.2377 -0.6289
 1993SOL    HW1 6878   3.366   3.447   4.914 -0.7966 -0.2130 -1.6981
 1993SOL    HW2 6879   3.269   3.359   5.012 -1.8749  0.2284 -2.3395
 1994SOL     OW 6880   1.017   1.469   2.167 -0.3577 -0.0447  0.8395
 1994SOL    HW1 6881   1.057   1.557   2.193  0.3428  0.4631 -1.6310
 1994SOL    HW2 6882   0.943   1.485   2.101  1.2853 -1.3297 -1.4390
 1995SOL     OW 6883   6.419   1.886   2.868 -0.1681 -0.7062 -0.3445
 1995SOL    HW1 6884   6.479   1.815   2.906  0.3182 -0.1277 -0.0116
 1995SOL    HW2 6885   6.410   1.960   2.934 -1.1252 -0.7086 -0.4617
 1996SOL     OW 6886   3.639   3.355   1.399 -0.0474  0.7900  0.1769
 1996SOL    HW1 6887   3.717   3.294   1.387 -0.1055  0.8937 -0.7778
 1996SOL    HW2 6888   3.607   3.349   1.493  0.9334  0.5315  0.5115
 1997SOL     OW 6889   4.785   0.515   6.585 -0.5112  0.3742 -0.0232
 1997SOL    HW1 6890   4.728   0.594   6.609 -0.0962  0.4683  0.6769
 1997SOL    HW2 6891   4.839   0.487   6.665 -2.5122 -2.2201  0.5801
 1998SOL     OW 6892   3.227   3.409   0.762 -1.0320  0.5547  0.3313
 1998SOL    HW1 6893   3.216   3.416   0.861 -0.9752 -0.2636  0.3993
 1998SOL    HW2 6894   3.320   3.380   0.741 -0.6405  1.9747 -0.0252
 1999SOL     OW 6895   1.057   1.039   1.796  0.3742  0.3194 -0.4261
 1999SOL    HW1 6896   1.032   1.117   1.854 -0.1620 -0.8283  0.9353
 1999SOL    HW2 6897   1.072   1.071   1.702 -1.0269  1.8722 -0.1638
 2000SOL     OW 6898   4.421   2.710   6.146 -0.0160 -0.6458  0.2255
 2000SOL    HW1 6899   4.443   2.679   6.054  0.1441 -0.2451  0.1258
 2000SOL    HW2 6900   4.482   2.665   6.212  1.6761  1.0095 -0.1160
 2001SOL     OW 6901   2.998   1.349   2.419  0.2687 -0.1606 -0.8124
 2001SOL    HW1 6902   2.986   1.446   2.395  1.0467 -0.5027 -2.7679
 2001SOL    HW2 6903   2.912   1.301   2.407 -0.1213  0.2616  0.1640
 2002SOL     OW 6904   0.519   4.569   4.607  0.5807  0.2284 -0.2364
 2002SOL    HW1 6905   0.448   4.534   4.546 -1.1190  0.8128  1.2944
 2002SOL    HW2 6906   0.487   4.564   4.702  1.6044  2.7471  0.3339
 2003SOL     OW 6907   5.121   1.478   3.155 -0.2100 -0.3181  0.3950
 2003SOL    HW1 6908   5.178   1.559   3.169 -0.7589  0.2535 -0.6436
 2003SOL    HW2 6909   5.057   1.469   3.232 -1.4000  1.2921 -0.3642
 2004SOL     OW 6910   4.475   1.698   5.285  0.5009  0.0385 -0.2839
 2004SOL    HW1 6911   4.453   1.611   5.330  0.2745  0.5817  0.6842
 2004SOL    HW2 6912   4.462   1.688   5.186 -3.7944  0.1089  0.0635
 2005SOL     OW 6913   1.242   5.655   0.247  0.0435  0.0047  0.2461
 2005SOL    HW1 6914   1.182   5.583   0.281  0.6533 -0.5550  0.1525
 2005SOL    HW2 6915   1.334   5.642   0.285 -0.3953  2.2137  2.3458
 2006SOL     OW 6916   4.919   3.378   4.520  0.4816  0.0138  0.2794
 2006SOL    HW1 6917   4.921   3.348   4.615 -1.3554  0.5100  0.5019
 2006SOL    HW2 6918   4.854   3.323   4.468 -0.2504  1.2479 -0.1417
 2007SOL     OW 6919   4.437   6.377   1.072  0.0294  0.2627 -0.0165
 2007SOL    HW1 6920   4.400   6.285   1.080 -0.5578  0.4759 -0.1737
 2007SOL    HW2 6921   4.455   6.414   1.163 -0.3419  0.2242  0.0763
 2008SOL     OW 6922   1.353   5.614   2.504  0.0009  0.2512  0.2064
 2008SOL    HW1 6923   1.423   5.669   2.549 -0.0882  0.3256  0.2557
 2008SOL    HW2 6924   1.269   5.616   2.559 -0.1589  0.4745 -0.0415
 2009SOL     OW 6925   6.675   5.790   2.540  0.4781  0.4446 -0.6609
 2009SOL    HW1 6926   6.602   5.858   2.545 -1.3228 -1.2741 -2.1253
 2009SOL    HW2 6927   6.679   5.740   2.627  0.2621  0.8867 -0.3914
 2010SOL     OW 6928   2.340   0.722   6.091  0.2410 -0.4797  0.2780
 2010SOL    HW1 6929   2.269   0.658   6.120  0.5089 -1.4658 -1.0833
 2010SOL    HW2 6930   2.364   0.703   5.995  2.0969  0.0350  0.6035
 2011SOL     OW 6931   1.143   2.201   5.055  0.2383 -0.1320  0.3902
 2011SOL    HW1 6932   1.061   2.178   5.107 -0.6146 -1.3046 -1.3652
 2011SOL    HW2 6933   1.197   2.267   5.106 -1.3666  0.0382  1.9806
 2012SOL     OW 6934   0.701   3.271   1.101  0.0930 -0.4475 -0.0725
 2012SOL    HW1 6935   0.605   3.293   1.083  0.3996  0.8717 -0.1165
 2012SOL    HW2 6936   0.707   3.175   1.131 -1.4618 -0.0760  1.6452
 2013SOL     OW 6937   5.312   2.139   2.931 -0.2271  0.4515  0.0742
 2013SOL    HW1 6938   5.225   2.186   2.920 -2.3003 -2.4921  2.2849
 2013SOL    HW2 6939   5.346   2.153   3.024  0.0235 -0.9576  0.2105
 2014SOL     OW 6940   2.365   5.671   2.630  0.4124 -0.1403  0.0221
 2014SOL    HW1 6941   2.372   5.735   2.707 -0.8592 -0.3086  0.2998
 2014SOL    HW2 6942   2.419   5.590   2.649  0.6267  0.1016  0.4584
 2015SOL     OW 6943   2.383   2.013   6.446  0.3936 -0.6961 -0.2320
 2015SOL    HW1 6944   2.420   1.997   6.354  1.7457  2.1693 -0.3008
 2015SOL    HW2 6945   2.284   1.998   6.445  0.4910 -1.5237 -1.9177
 2016SOL     OW 6946   1.126   5.013   4.369  0.2455 -0.0852 -0.5975
 2016SOL    HW1 6947   1.185   4.932   4.362  1.4223  0.7442 -0.5469
 2016SOL    HW2 6948   1.112   5.035   4.465 -0.0621 -0.2161 -0.6120
 2017SOL     OW 6949   2.903   6.036   4.249  0.0442 -0.2407 -0.0064
 2017SOL    HW1 6950   2.926   5.992   4.162  0.4950 -0.2110  0.0966
 2017SOL    HW2 6951   2.805   6.059   4.250 -0.0178 -0.4784 -0.3976
 2018SOL     OW 6952   6.161   6.419   6.337 -0.7921  0.3830 -0.0641
 2018SOL    HW1 6953   6.127   6.499   6.386  0.7013  0.1964  1.3702
 2018SOL    HW2 6954   6.114   6.411   6.250 -2.4115  1.6544  0.6377
 2019SOL     OW 6955   4.540   2.848   1.698  0.2200  0.3872 -0.4549
 2019SOL    HW1 6956   4.576   2.896   1.778  0.9119  0.9651 -1.1080
 2019SOL    HW2 6957   4.555   2.903   1.616  0.1318 -0.5045 -1.0815
 2020SOL     OW 6958   0.015   6.197   4.940 -0.7120  0.6648 -0.4936
 2020SOL    HW1 6959   0.096   6.232   4.893  1.1177  1.3349  2.8148
 2020SOL    HW2 6960   0.023   6.098   4.952 -0.1535  0.7882  0.1898
 2021SOL     OW 6961   3.219   0.137   2.977  0.3512  0.0557 -0.3840
 2021SOL    HW1 6962   3.312   0.167   2.956  0.3537 -0.4641 -1.1784
 2021SOL    HW2 6963   3.217   0.096   3.068  0.9034  0.0707 -0.3596
 2022SOL     OW 6964   0.844   3.703   2.565  0.1942  0.0476 -0.4177
 2022SOL    HW1 6965   0.770   3.660   2.514  0.7324 -0.0368 -1.1388
 2022SOL    HW2 6966   0.925   3.645   2.563  0.3360  0.2121  0.2291
 2023SOL     OW 6967   0.629   0.718   0.347  0.0392 -0.3317 -0.1331
 2023SOL    HW1 6968   0.536   0.743   0.321 -1.2097 -2.8493  1.5128
 2023SOL    HW2 6969   0.638   0.721   0.446  1.0708 -2.1133 -0.1373
 2024SOL     OW 6970   6.304   6.978   1.873 -0.3042  0.4574  0.1664
 2024SOL    HW1 6971   6.249   6.895   1.861  0.1426 -0.0097  1.2407
 2024SOL    HW2 6972   6.400   6.954   1.884 -0.1416  1.1322  0.3083
 2025SOL     OW 6973   3.079   1.890   1.596 -0.0598  0.6691 -0.4454
 2025SOL    HW1 6974   3.089   1.847   1.685 -0.9789  0.5755 -0.3809
 2025SOL    HW2 6975   3.009   1.961   1.601  0.3945  1.1588 -0.9171
 2026SOL     OW 6976   1.095   2.235   5.761 -0.4885  0.5298 -0.0831
 2026SOL    HW1 6977   1.123   2.330   5.778 -0.5422  0.4507  0.4664
 2026SOL    HW2 6978   1.176   2.177   5.759 -0.6094  0.1717  2.3387
 2027SOL     OW 6979   0.086   2.201   1.149 -0.1020 -0.0144 -0.0306
 2027SOL    HW1 6980   0.127   2.119   1.188 -0.9341 -1.6003 -2.3367
 2027SOL    HW2 6981  -0.009   2.209   1.179  0.1884  0.5568  0.7831
 2028SOL     OW 6982   3.984   2.256   6.469  0.3217 -0.0963 -0.0824
 2028SOL    HW1 6983   3.998   2.347   6.428 -1.7065 -0.8629 -2.7549
 2028SOL    HW2 6984   3.914   2.262   6.540  2.5949  0.9226  2.2490
 2029SOL     OW 6985   7.008   0.520   0.756  1.0761 -0.2322  0.4626
 2029SOL    HW1 6986   6.956   0.441   0.788  1.0889 -0.1214  0.7609
 2029SOL    HW2 6987   7.055   0.498   0.671 -0.6652  0.1133 -0.6458
 2030SOL     OW 6988   1.613   1.784   5.066 -0.1860 -0.4387  0.2755
 2030SOL    HW1 6989   1.638   1.699   5.112 -0.6025 -0.2964  0.7683
 2030SOL    HW2 6990   1.644   1.862   5.121 -0.4769 -0.2667  0.1961
 2031SOL     OW 6991   4.989   6.586   4.811 -0.3993 -0.3128 -0.7573
 2031SOL    HW1 6992   4.921   6.522   4.847 -1.7664  1.4143 -0.1282
 2031SOL    HW2 6993   5.064   6.534   4.770  0.6109 -2.4414  3.2607
 2032SOL     OW 6994   4.345   0.067   3.972 -0.3333 -0.4828  0.1564
 2032SOL    HW1 6995   4.353  -0.033   3.968 -0.1387 -0.4297 -1.2404
 2032SOL    HW2 6996   4.254   0.094   3.940  0.4211 -0.1094 -1.7965
 2033SOL     OW 6997   3.470   4.225   1.068  0.3881  0.4613 -0.1494
 2033SOL    HW1 6998   3.404   4.287   1.112  0.8810  0.5404  0.4952
 2033SOL    HW2 6999   3.473   4.139   1.120 -2.0645 -1.1247 -2.3526
 2034SOL     OW 7000   1.146   0.560   4.225  0.4663 -0.3652 -0.8872
 2034SOL    HW1 7001   1.174   0.569   4.129  0.0074  0.0648 -0.9814
 2034SOL    HW2 7002   1.066   0.618   4.243  1.0038  0.1537 -0.0574
 2035SOL     OW 7003   0.606   2.726   2.730  0.4900 -0.1863  0.2498
 2035SOL    HW1 7004   0.555   2.781   2.796  0.7732 -0.1412  0.4314
 2035SOL    HW2 7005   0.550   2.712   2.648  0.1274 -0.2669  0.5083
 2036SOL     OW 7006   5.506   6.982   1.916 -0.3494 -0.2307 -0.1776
 2036SOL    HW1 7007   5.487   6.885   1.933 -0.5084 -0.4715 -1.6061
 2036SOL    HW2 7008   5.604   6.993   1.894 -0.5416 -0.2598 -1.1172
 2037SOL     OW 7009   1.153   0.181   6.472  0.0732  0.1982  0.1247
 2037SOL    HW1 7010   1.229   0.241   6.494 -1.5902  3.0273 -1.2924
 2037SOL    HW2 7011   1.071   0.212   6.520 -1.3751  0.6316 -2.4534
 2038SOL     OW 7012   0.844   0.982   0.940  0.2368 -1.1381 -0.2442
 2038SOL    HW1 7013   0.843   0.942   0.848  1.0440 -0.4471 -0.5729
 2038SOL    HW2 7014   0.766   0.949   0.992 -2.2169  1.0236 -2.2923
 2039SOL     OW 7015   5.769   4.302   3.558  0.7532 -0.0789  0.3001
 2039SOL    HW1 7016   5.721   4.342   3.480  1.3865 -1.3792 -0.8057
 2039SOL    HW2 7017   5.864   4.283   3.532  1.2042  0.2168  1.6602
 2040SOL     OW 7018   2.521   1.791   4.862  0.2488 -0.4763  0.3709
 2040SOL    HW1 7019   2.440   1.756   4.814  0.3598 -1.5999  0.9798
 2040SOL    HW2 7020   2.505   1.886   4.889 -0.4354 -0.3357 -0.4657
 2041SOL     OW 7021   6.915   0.040   5.249  0.1988 -0.6833  0.1506
 2041SOL    HW1 7022   6.859  -0.041   5.235  1.6587 -1.7874  0.5493
 2041SOL    HW2 7023   6.908   0.070   5.344  1.5737 -1.8601  0.6615
 2042SOL     OW 7024   5.533   6.240   5.332  0.3162 -0.3787 -0.1688
 2042SOL    HW1 7025   5.581   6.166   5.286  0.9602  0.2074 -0.4595
 2042SOL    HW2 7026   5.598   6.294   5.386 -0.2817 -0.5157  0.7112
 2043SOL     OW 7027   5.943   3.604   3.245  0.4498 -0.4199 -0.2365
 2043SOL    HW1 7028   5.915   3.681   3.303 -0.0461 -0.9574  0.2450
 2043SOL    HW2 7029   5.912   3.619   3.152  3.7107  1.8753 -1.1242
 2044SOL     OW 7030   5.862   2.263   3.583 -0.3859  0.2845  0.3558
 2044SOL    HW1 7031   5.791   2.272   3.652  0.8986  0.9137  1.6441
 2044SOL    HW2 7032   5.867   2.348   3.530  0.1181  0.6609  0.9924
 2045SOL     OW 7033   3.188   4.931   4.470  0.4426  0.1348  0.4975
 2045SOL    HW1 7034   3.160   4.986   4.548 -0.6904  0.1541  0.0885
 2045SOL    HW2 7035   3.119   4.861   4.451 -0.1076  1.1353 -1.4510
 2046SOL     OW 7036   0.180   1.311   6.320 -0.2218 -0.1318 -0.0873
 2046SOL    HW1 7037   0.223   1.268   6.400 -0.4611 -0.1196  0.0497
 2046SOL    HW2 7038   0.085   1.279   6.313 -0.7260  1.1577  0.6044
 2047SOL     OW 7039   3.706   1.336   1.149 -0.1630  0.1309  0.5228
 2047SOL    HW1 7040   3.643   1.280   1.096 -1.4412  1.3922  0.6448
 2047SOL    HW2 7041   3.800   1.310   1.128 -0.6770 -2.6997  1.2926
 2048SOL     OW 7042   2.166   4.130   6.119 -0.3860 -0.0366 -0.4078
 2048SOL    HW1 7043   2.188   4.032   6.124 -1.7664 -0.3700 -0.5651
 2048SOL    HW2 7044   2.113   4.148   6.036 -1.7981  0.4995  0.5801
 2049SOL     OW 7045   5.107   6.958   6.503 -1.1615  0.4047  0.2519
 2049SOL    HW1 7046   5.132   6.867   6.471 -1.7343 -0.1686  1.3759
 2049SOL    HW2 7047   5.058   7.007   6.431 -0.1445  0.1389 -0.6438
 2050SOL     OW 7048   6.449   2.381   3.539 -0.0984 -0.4669  0.5497
 2050SOL    HW1 7049   6.398   2.333   3.611  0.1394 -1.4980  0.0572
 2050SOL    HW2 7050   6.392   2.452   3.498 -1.0492 -1.4130  0.2005
 2051SOL     OW 7051   6.634   6.534   1.508 -0.0338 -0.2064  0.0924
 2051SOL    HW1 7052   6.589   6.472   1.445 -0.6220  1.9392 -1.7456
 2051SOL    HW2 7053   6.566   6.591   1.555  0.5228 -0.2710  1.0202
 2052SOL     OW 7054   0.453   4.529   2.050  0.5854  0.0793 -0.2712
 2052SOL    HW1 7055   0.518   4.452   2.052  0.7213  0.1941 -0.2499
 2052SOL    HW2 7056   0.455   4.571   1.960  0.2122 -0.1965 -0.4085
 2053SOL     OW 7057   0.631   0.936   5.115  0.3325 -0.1357  0.3488
 2053SOL    HW1 7058   0.647   0.849   5.162 -0.5780 -0.9382 -0.7628
 2053SOL    HW2 7059   0.682   1.009   5.161 -0.3565 -0.9090  2.4188
 2054SOL     OW 7060   4.349   2.591   1.502  0.5767 -0.2539 -0.9800
 2054SOL    HW1 7061   4.445   2.562   1.506  0.7965  0.4782 -0.7298
 2054SOL    HW2 7062   4.313   2.597   1.595  0.0931 -1.1223 -1.0996
 2055SOL     OW 7063   5.777   4.503   1.995 -0.4246  0.0648  0.5385
 2055SOL    HW1 7064   5.791   4.563   2.073  2.1817 -0.0657  0.2817
 2055SOL    HW2 7065   5.848   4.521   1.926 -1.0147 -1.6614 -0.5922
 2056SOL     OW 7066   3.317   1.162   4.048  0.4516 -0.0246  0.4864
 2056SOL    HW1 7067   3.379   1.237   4.024 -0.1004  0.3364  0.1842
 2056SOL    HW2 7068   3.222   1.192   4.037  0.2278 -0.8794  0.0343
 2057SOL     OW 7069   5.942   2.427   4.245 -0.1187  0.7922  0.1047
 2057SOL    HW1 7070   6.032   2.464   4.265 -0.4445  1.8355 -0.3243
 2057SOL    HW2 7071   5.895   2.485   4.178 -0.7998 -0.1712 -0.2905
 2058SOL     OW 7072   0.242   1.632   3.879 -0.1361 -0.1381  0.3542
 2058SOL    HW1 7073   0.245   1.552   3.939 -0.9809 -0.5810 -0.1782
 2058SOL    HW2 7074   0.194   1.707   3.925 -2.2891 -1.0075 -0.3385
 2059SOL     OW 7075   3.140   5.336   6.001 -0.1137  0.2609  0.1209
 2059SOL    HW1 7076   3.184   5.420   5.968 -0.7152  0.7037  0.4293
 2059SOL    HW2 7077   3.147   5.266   5.931 -0.1486  0.7606 -0.3930
 2060SOL     OW 7078   6.545   5.299   0.381 -0.2450 -0.1408 -0.1010
 2060SOL    HW1 7079   6.556   5.384   0.433  0.2237  0.5270 -1.2376
 2060SOL    HW2 7080   6.583   5.223   0.433 -0.1957  0.4269  0.7190
 2061SOL     OW 7081   3.680   1.488   1.740 -0.9200 -0.6847  0.3874
 2061SOL    HW1 7082   3.687   1.408   1.800  1.8622 -1.8099 -1.2097
 2061SOL    HW2 7083   3.617   1.469   1.665 -1.3980 -0.7891  0.8119
 2062SOL     OW 7084   6.058   6.379   3.014  0.4456 -0.3474  0.3809
 2062SOL    HW1 7085   6.109   6.315   3.071 -0.2868 -0.5432  0.8362
 2062SOL    HW2 7086   6.086   6.369   2.919  0.8445 -0.8462  0.5482
 2063SOL     OW 7087   1.767   4.299   5.224  0.0271  0.1401  0.0706
 2063SOL    HW1 7088   1.774   4.318   5.126  0.0267 -2.5233 -0.5298
 2063SOL    HW2 7089   1.721   4.375   5.269  1.3119  2.1095 -1.7070
 2064SOL     OW 7090   1.348   2.137   4.440  0.7904  0.1599 -0.2465
 2064SOL    HW1 7091   1.421   2.140   4.372  3.2743 -2.9922  1.9397
 2064SOL    HW2 7092   1.382   2.174   4.527  0.7681 -3.4125  1.4530
 2065SOL     OW 7093   5.847   3.572   4.360 -0.0180  0.8082 -0.3714
 2065SOL    HW1 7094   5.848   3.640   4.286  0.6935 -0.3285 -1.4482
 2065SOL    HW2 7095   5.914   3.597   4.429  0.0952  1.3058 -0.6571
 2066SOL     OW 7096   0.116   4.710   3.487  0.3007  0.1799 -0.0219
 2066SOL    HW1 7097   0.122   4.687   3.390  0.7146 -1.5328  0.3664
 2066SOL    HW2 7098   0.201   4.684   3.533 -0.3267 -0.1277  1.0030
 2067SOL     OW 7099   0.636   4.751   0.399  0.1944  0.1438 -0.2054
 2067SOL    HW1 7100   0.590   4.765   0.486  0.2585  1.7374 -0.3917
 2067SOL    HW2 7101   0.722   4.703   0.414 -0.3710 -0.6883  0.4406
 2068SOL     OW 7102   1.104   6.923   4.869 -0.4967 -0.3277 -0.3107
 2068SOL    HW1 7103   1.047   6.874   4.802  0.8704 -2.0700 -0.2680
 2068SOL    HW2 7104   1.059   6.921   4.958 -1.5009  0.4724 -0.7778
 2069SOL     OW 7105   1.059   2.291   3.496 -0.3684 -0.1232 -0.1688
 2069SOL    HW1 7106   1.120   2.359   3.537 -0.5303  0.1078 -0.3047
 2069SOL    HW2 7107   1.062   2.206   3.549  1.5056 -0.7715 -1.2110
 2070SOL     OW 7108   0.292   1.101   2.433 -0.5188  0.4184  0.3199
 2070SOL    HW1 7109   0.219   1.117   2.500 -0.4277  0.0799  0.5020
 2070SOL    HW2 7110   0.311   1.003   2.428  1.0866  0.6358  1.5281
 2071SOL     OW 7111   6.453   5.012   4.966  0.1420  0.3851 -0.1114
 2071SOL    HW1 7112   6.467   4.976   4.874  0.3650 -1.7105  0.7018
 2071SOL    HW2 7113   6.480   5.109   4.968  2.1692 -0.0830 -1.7448
 2072SOL     OW 7114   4.886   6.757   2.005 -0.6771 -0.3208  0.1604
 2072SOL    HW1 7115   4.816   6.803   1.951 -0.3801 -0.0659 -0.0080
 2072SOL    HW2 7116   4.947   6.825   2.045 -1.5552 -0.4209  1.7560
 2073SOL     OW 7117   4.078   1.183   2.718  0.0582  0.3975 -0.5486
 2073SOL    HW1 7118   4.170   1.201   2.753  0.0802  1.5302 -1.1265
 2073SOL    HW2 7119   4.053   1.088   2.735  1.7908 -0.2521 -1.3901
 2074SOL     OW 7120   2.446   3.794   6.848  0.1848  0.3341  0.0443
 2074SOL    HW1 7121   2.483   3.714   6.897 -1.8342 -1.7847 -1.6487
 2074SOL    HW2 7122   2.479   3.793   6.754 -1.1026  0.5981 -0.4176
 2075SOL     OW 7123   5.702   2.623   1.771 -0.1031 -0.3593  0.0806
 2075SOL    HW1 7124   5.612   2.645   1.809  0.0154  0.1669  0.0628
 2075SOL    HW2 7125   5.704   2.650   1.674  0.3176  0.3034  0.2752
 2076SOL     OW 7126   4.036   1.313   5.974  0.5478  0.2354 -0.2902
 2076SOL    HW1 7127   4.106   1.381   5.994  0.2363 -0.1099  2.2654
 2076SOL    HW2 7128   4.071   1.222   5.995 -0.4465  0.0004  0.4008
 2077SOL     OW 7129   4.452   0.376   2.169 -0.1593 -0.4774 -0.1730
 2077SOL    HW1 7130   4.377   0.441   2.156  0.0879 -0.3445 -0.9944
 2077SOL    HW2 7131   4.484   0.344   2.080 -0.8979 -2.4698  0.2176
 2078SOL     OW 7132   1.058   4.446   6.318  0.4195 -0.2261  0.7817
 2078SOL    HW1 7133   1.153   4.438   6.288 -0.0632 -1.9459 -0.4799
 2078SOL    HW2 7134   1.052   4.426   6.416  1.4510  0.9142  1.1078
 2079SOL     OW 7135   5.987   2.662   3.336 -0.1710 -0.5499 -0.1572
 2079SOL    HW1 7136   6.004   2.760   3.332  0.7035 -0.7121 -0.8978
 2079SOL    HW2 7137   5.994   2.623   3.244 -0.6579 -1.2837  0.1068
 2080SOL     OW 7138   7.016   4.834   4.652  0.2820 -0.1892 -0.7477
 2080SOL    HW1 7139   6.921   4.821   4.626  0.0426  0.0053  0.0084
 2080SOL    HW2 7140   7.022   4.901   4.727  0.8468 -1.3472  0.2880
 2081SOL     OW 7141   1.292   4.724   4.769 -0.2409  0.0488 -0.0521
 2081SOL    HW1 7142   1.328   4.808   4.810  0.0542 -1.2812  2.5775
 2081SOL    HW2 7143   1.192   4.725   4.773 -0.2452  0.3231 -0.1818
 2082SOL     OW 7144   5.015   6.189   3.340 -0.1874 -0.3575 -0.0016
 2082SOL    HW1 7145   4.966   6.123   3.398  0.3830  0.6273  1.6690
 2082SOL    HW2 7146   4.984   6.281   3.361  0.4379  0.0711 -0.8989
 2083SOL     OW 7147   4.426   0.831   6.516  0.7208 -0.5557  0.2581
 2083SOL    HW1 7148   4.435   0.766   6.441  2.3800 -0.7388  0.5936
 2083SOL    HW2 7149   4.389   0.917   6.480  0.6872 -0.9164 -0.6024
 2084SOL     OW 7150   6.194   4.629   2.971 -0.2793 -0.2880  0.1737
 2084SOL    HW1 7151   6.155   4.593   2.886 -0.4245  1.2122 -0.4304
 2084SOL    HW2 7152   6.294   4.624   2.967 -0.2635  0.3872 -0.3776
 2085SOL     OW 7153   4.983   0.591   5.567  0.8500  0.1314 -0.0893
 2085SOL    HW1 7154   4.933   0.632   5.491 -0.7185  0.3440  0.9964
 2085SOL    HW2 7155   4.936   0.613   5.653  0.7281 -2.7673  0.6714
 2086SOL     OW 7156   4.660   0.353   6.405  0.1813 -0.2286 -0.4967
 2086SOL    HW1 7157   4.723   0.400   6.466 -1.5385  0.3164  0.9324
 2086SOL    HW2 7158   4.680   0.379   6.310  1.7047  0.3573 -0.0477
 2087SOL     OW 7159   5.682   6.709   0.401 -0.0360  0.4983  0.1606
 2087SOL    HW1 7160   5.652   6.791   0.450 -0.7097  0.5237 -0.2920
 2087SOL    HW2 7161   5.616   6.635   0.415  2.0221 -1.0110  3.1398
 2088SOL     OW 7162   3.173   5.232   1.452  0.1210 -0.0813  0.5242
 2088SOL    HW1 7163   3.167   5.139   1.489 -0.2804 -0.2031  0.1505
 2088SOL    HW2 7164   3.082   5.267   1.434  0.2914  0.1973  0.1900
 2089SOL     OW 7165   4.676   2.544   6.574  0.0523 -0.1000 -0.2989
 2089SOL    HW1 7166   4.721   2.460   6.543 -0.1093  0.1106 -1.1158
 2089SOL    HW2 7167   4.606   2.521   6.641  0.1085 -0.6081 -0.4081
 2090SOL     OW 7168   5.553   2.925   6.584  0.4488 -0.2547 -0.2823
 2090SOL    HW1 7169   5.511   3.014   6.604 -0.6530 -0.9409  0.5458
 2090SOL    HW2 7170   5.483   2.855   6.578  1.3442 -1.1667 -0.4513
 2091SOL     OW 7171   6.564   5.023   6.377 -0.0921  0.1824 -0.1295
 2091SOL    HW1 7172   6.585   5.114   6.342  0.5050 -0.7118 -2.3130
 2091SOL    HW2 7173   6.558   4.959   6.300 -0.6897 -1.5888  1.3261
 2092SOL     OW 7174   5.349   3.062   5.763 -0.1654  0.2981  0.2857
 2092SOL    HW1 7175   5.265   3.047   5.711 -1.5611  1.7391  2.0437
 2092SOL    HW2 7176   5.343   3.148   5.814  1.8417 -0.2126  1.5016
 2093SOL     OW 7177   1.891   1.741   3.546 -0.2873  0.1030 -0.0023
 2093SOL    HW1 7178   1.855   1.810   3.609 -0.0714  1.2416 -1.0978
 2093SOL    HW2 7179   1.815   1.686   3.510 -0.6221  0.7075 -0.2217
 2094SOL     OW 7180   6.629   2.390   6.735 -0.0215  0.0525  0.0314
 2094SOL    HW1 7181   6.590   2.321   6.675 -0.2091 -0.5834  0.8674
 2094SOL    HW2 7182   6.706   2.435   6.689  0.2438 -0.8684 -0.4435
 2095SOL     OW 7183   6.857   6.687   4.690 -0.1665  0.1919  0.1822
 2095SOL    HW1 7184   6.932   6.693   4.756 -0.3528 -0.9568  0.5261
 2095SOL    HW2 7185   6.834   6.778   4.657  1.0200  0.6198  0.4770
 2096SOL     OW 7186   4.745   2.806   4.091  0.2068  0.0509  0.1487
 2096SOL    HW1 7187   4.752   2.730   4.025 -1.4102 -0.9723  1.0925
 2096SOL    HW2 7188   4.762   2.892   4.044  1.2783 -0.8091 -1.1380
 2097SOL     OW 7189   1.329   4.010   5.800 -0.0150  0.2719 -0.4030
 2097SOL    HW1 7190   1.300   3.994   5.895 -1.6662 -0.4683 -0.9963
 2097SOL    HW2 7191   1.304   4.102   5.772 -0.9666 -0.0327 -0.5944
 2098SOL     OW 7192   3.270   6.194   2.446  0.1413 -0.7409 -0.3156
 2098SOL    HW1 7193   3.357   6.233   2.413  1.1268  0.4196  3.2236
 2098SOL    HW2 7194   3.212   6.268   2.480  0.5808 -1.8744  3.3282
 2099SOL     OW 7195   2.034   3.838   4.978  0.2148  0.2324  0.0541
 2099SOL    HW1 7196   2.125   3.870   5.002  0.3573 -1.0471  1.3756
 2099SOL    HW2 7197   1.966   3.894   5.027  0.3305  0.4798 -0.0654
 2100SOL     OW 7198   6.835   1.525   6.331  0.2318  0.4421 -0.7342
 2100SOL    HW1 7199   6.753   1.469   6.319  0.1048  0.8388 -1.8425
 2100SOL    HW2 7200   6.852   1.577   6.247  1.8407  0.0871 -0.6466
 2101SOL     OW 7201   5.941   4.200   2.889 -0.0186 -0.1501 -0.1425
 2101SOL    HW1 7202   5.932   4.208   2.790 -2.3497 -3.0096 -0.2830
 2101SOL    HW2 7203   5.881   4.267   2.933 -0.4431 -0.1693 -0.6838
 2102SOL     OW 7204   6.431   5.925   1.644 -0.2920 -0.0991 -0.1856
 2102SOL    HW1 7205   6.492   5.846   1.632  0.3615  0.5156 -1.0705
 2102SOL    HW2 7206   6.475   5.992   1.704 -0.2664  0.1674 -0.4993
 2103SOL     OW 7207   2.990   3.814   4.094  0.0599 -0.2755 -0.1072
 2103SOL    HW1 7208   3.084   3.825   4.063  0.1862  0.8545  0.6237
 2103SOL    HW2 7209   2.929   3.870   4.039 -0.0368 -0.1534  0.1209
 2104SOL     OW 7210   1.985   1.752   0.090 -0.3082 -0.0509  0.3050
 2104SOL    HW1 7211   1.976   1.709   0.180  1.0837 -1.3551 -0.1303
 2104SOL    HW2 7212   1.967   1.684   0.019  0.8484  0.3491 -0.4066
 2105SOL     OW 7213   3.625   6.077   4.070  0.3915 -0.5960  0.1686
 2105SOL    HW1 7214   3.712   6.032   4.091  2.2508  1.0768 -3.1397
 2105SOL    HW2 7215   3.638   6.176   4.071 -1.3986 -0.3077 -0.7933
 2106SOL     OW 7216   5.299   2.140   7.003 -0.5013  0.4369 -0.4184
 2106SOL    HW1 7217   5.211   2.140   7.050 -1.3194  0.3058 -1.9088
 2106SOL    HW2 7218   5.351   2.059   7.029 -0.9905  0.2897  0.1245
 2107SOL     OW 7219   3.604   0.909   5.817 -0.2837  0.1911 -0.3105
 2107SOL    HW1 7220   3.535   0.862   5.763 -0.5024  1.4616 -1.1903
 2107SOL    HW2 7221   3.566   0.935   5.906 -0.3011 -0.8544 -0.0062
 2108SOL     OW 7222   0.010   6.797   6.373  0.5368  0.0234 -0.1592
 2108SOL    HW1 7223   0.015   6.729   6.300  1.8289  1.6395 -1.6528
 2108SOL    HW2 7224   0.010   6.750   6.462  2.2311 -1.9227 -1.0948
 2109SOL     OW 7225   3.992   1.016   2.443  0.5140 -0.3247  0.0727
 2109SOL    HW1 7226   4.015   1.077   2.519 -1.3964  0.9871 -0.3232
 2109SOL    HW2 7227   4.047   0.933   2.449  4.1270  1.8581 -0.0239
 2110SOL     OW 7228   3.712   0.319   5.331 -0.9465 -0.1680 -0.0929
 2110SOL    HW1 7229   3.786   0.290   5.393 -0.7078  0.6960  0.0393
 2110SOL    HW2 7230   3.630   0.338   5.385 -0.4094  1.7210  0.1508
 2111SOL     OW 7231   3.581   2.189   5.936 -0.1342 -0.4134  0.0677
 2111SOL    HW1 7232   3.580   2.133   5.853  1.4357  0.5185 -0.6371
 2111SOL    HW2 7233   3.581   2.130   6.017 -0.3645 -1.3693 -0.6164
 2112SOL     OW 7234   5.681   3.009   5.986 -0.1076 -0.6379 -0.1711
 2112SOL    HW1 7235   5.762   3.057   6.020 -0.2831 -0.5857  0.1819
 2112SOL    HW2 7236   5.682   3.008   5.886 -0.4865  0.7902 -0.2117
 2113SOL     OW 7237   1.153   0.970   6.340  0.0721  0.4249  0.3706
 2113SOL    HW1 7238   1.148   0.903   6.414  0.9297  2.0416  1.9782
 2113SOL    HW2 7239   1.147   1.062   6.378 -2.8872  1.3455 -1.8989
 2114SOL     OW 7240   1.886   3.004   2.189 -0.2459 -0.1952 -0.3983
 2114SOL    HW1 7241   1.980   3.035   2.203  0.0725 -1.0997 -0.4553
 2114SOL    HW2 7242   1.873   2.981   2.092 -0.0992 -1.3842 -0.1542
 2115SOL     OW 7243   1.443   2.796   1.626 -0.0441  0.0698 -0.0406
 2115SOL    HW1 7244   1.414   2.886   1.593  1.7510  0.6437 -0.1796
 2115SOL    HW2 7245   1.423   2.789   1.724  2.7216  2.0286  0.8070
 2116SOL     OW 7246   0.632   5.887   2.464 -0.2298 -0.1429 -0.6319
 2116SOL    HW1 7247   0.602   5.795   2.440 -0.4210  0.0564 -1.1701
 2116SOL    HW2 7248   0.728   5.899   2.438 -0.3181 -0.0630 -0.9255
 2117SOL     OW 7249   0.855   6.209   2.673  0.5522 -0.1867 -0.2170
 2117SOL    HW1 7250   0.907   6.124   2.683 -1.3990 -1.4638 -0.4879
 2117SOL    HW2 7251   0.911   6.285   2.705  2.5752 -1.4628 -0.4787
 2118SOL     OW 7252   5.683   3.520   0.141 -0.0909 -0.5769  0.0224
 2118SOL    HW1 7253   5.653   3.598   0.086  0.9673  1.1787  1.7656
 2118SOL    HW2 7254   5.603   3.472   0.178 -0.7837  0.7698  0.3342
 2119SOL     OW 7255   1.461   0.073   0.282  0.0866  0.1038 -0.1757
 2119SOL    HW1 7256   1.364   0.069   0.307 -0.1724 -0.8249 -1.2327
 2119SOL    HW2 7257   1.516   0.093   0.363 -0.9379  0.0010  0.5607
 2120SOL     OW 7258   0.108   4.455   2.891 -0.4515  0.7184 -0.1415
 2120SOL    HW1 7259   0.168   4.536   2.898 -0.9224  0.9398  2.8793
 2120SOL    HW2 7260   0.015   4.481   2.916 -1.0549 -0.3918 -1.1521
 2121SOL     OW 7261   0.717   3.717   6.901 -0.1310 -0.0301 -0.1977
 2121SOL    HW1 7262   0.620   3.738   6.885  0.4486  2.2736 -1.0966
 2121SOL    HW2 7263   0.744   3.751   6.991 -0.4160 -1.8323  0.6116
 2122SOL     OW 7264   6.767   5.300   4.999 -0.3179 -0.3416  0.6489
 2122SOL    HW1 7265   6.730   5.362   4.930  0.7280 -0.5133 -0.0778
 2122SOL    HW2 7266   6.758   5.343   5.090  1.5244  1.4614  0.0536
 2123SOL     OW 7267   6.728   4.546   1.270  0.1597 -0.8684 -0.3521
 2123SOL    HW1 7268   6.674   4.481   1.323 -0.2573 -0.5916 -0.4338
 2123SOL    HW2 7269   6.667   4.606   1.219  0.5571 -1.8051 -1.9862
 2124SOL     OW 7270   2.166   1.251   1.478 -0.2248 -0.3203 -0.2623
 2124SOL    HW1 7271   2.262   1.231   1.459 -0.5287 -1.0508 -1.1368
 2124SOL    HW2 7272   2.135   1.325   1.418  0.0549  0.6516  0.7572
 2125SOL     OW 7273   2.599   6.574   0.392  0.3830  0.1694 -0.0019
 2125SOL    HW1 7274   2.601   6.476   0.372 -0.1849 -0.1274  1.3505
 2125SOL    HW2 7275   2.573   6.624   0.309  1.1056 -0.7707 -0.8204
 2126SOL     OW 7276   5.321   0.828   5.191 -0.0073  0.5535 -0.1515
 2126SOL    HW1 7277   5.314   0.922   5.156  2.4965  0.0423 -2.2725
 2126SOL    HW2 7278   5.392   0.779   5.141 -1.0888 -2.4493  1.0619
 2127SOL     OW 7279   4.998   2.617   3.972 -0.1749 -0.7766 -0.7348
 2127SOL    HW1 7280   4.923   2.670   3.932  0.5218  0.5697 -0.3396
 2127SOL    HW2 7281   5.017   2.537   3.916  0.8473  1.0740 -3.2249
 2128SOL     OW 7282   1.354   4.745   2.015  0.5286 -0.6757  0.8928
 2128SOL    HW1 7283   1.440   4.766   2.061  0.3588  1.3709  0.3627
 2128SOL    HW2 7284   1.369   4.672   1.948  2.5591  1.4921 -1.1790
 2129SOL     OW 7285   4.580   1.954   6.386 -0.2915 -0.4058  0.2156
 2129SOL    HW1 7286   4.491   1.981   6.422 -0.6376  1.7015 -1.9448
 2129SOL    HW2 7287   4.581   1.855   6.370 -1.7388 -0.6677  1.5077
 2130SOL     OW 7288   1.593   2.015   1.035  0.0529 -0.1626 -0.2019
 2130SOL    HW1 7289   1.564   2.085   1.100 -1.7292 -1.6812  0.7184
 2130SOL    HW2 7290   1.617   2.059   0.948 -2.3000  1.5103 -0.0988
 2131SOL     OW 7291   6.886   1.589   0.834 -0.0540 -0.0114 -0.3081
 2131SOL    HW1 7292   6.934   1.518   0.886  1.4399 -0.0854 -1.6913
 2131SOL    HW2 7293   6.809   1.549   0.785 -1.3300  0.0174  1.5942
 2132SOL     OW 7294   3.174   0.081   0.959  0.4913  0.2590  0.2790
 2132SOL    HW1 7295   3.137   0.173   0.967 -0.3183  0.0470 -0.7794
 2132SOL    HW2 7296   3.248   0.069   1.025  0.3242  1.5172  0.7239
 2133SOL     OW 7297   3.610   3.082   5.417  0.0362  0.3657 -0.2161
 2133SOL    HW1 7298   3.555   3.157   5.380 -1.8441 -1.0285 -0.3820
 2133SOL    HW2 7299   3.585   3.067   5.513  1.3021  0.7203  0.1898
 2134SOL     OW 7300   0.541   3.916   0.163  0.1229 -0.4211  0.1450
 2134SOL    HW1 7301   0.638   3.901   0.143 -0.3311 -0.7864 -2.0654
 2134SOL    HW2 7302   0.501   3.834   0.203  0.3615 -0.9047 -0.5816
 2135SOL     OW 7303   0.810   5.018   2.800  0.0511  0.4382 -0.2486
 2135SOL    HW1 7304   0.764   5.008   2.888  1.9244 -1.2045  0.6259
 2135SOL    HW2 7305   0.771   4.952   2.735 -1.1066  1.4297 -0.6163
 2136SOL     OW 7306   6.478   4.236   2.381 -0.7279  0.4034 -0.9241
 2136SOL    HW1 7307   6.394   4.187   2.405 -0.2832 -0.8388 -1.8595
 2136SOL    HW2 7308   6.536   4.178   2.324  0.8787  1.1725 -0.1199
 2137SOL     OW 7309   3.026   4.975   5.360 -0.0556  0.0609 -0.2511
 2137SOL    HW1 7310   3.027   5.065   5.405 -1.2852 -0.2973  0.5133
 2137SOL    HW2 7311   2.932   4.943   5.350  0.3193 -0.7796 -1.2853
 2138SOL     OW 7312   5.981   6.642   2.651  0.1437  0.1937  0.0230
 2138SOL    HW1 7313   5.922   6.675   2.577 -1.8424  0.2391  1.5514
 2138SOL    HW2 7314   6.069   6.688   2.646 -0.6088  1.5963 -1.1879
 2139SOL     OW 7315   3.948   0.738   1.830 -0.5631 -0.2936  0.3399
 2139SOL    HW1 7316   3.931   0.718   1.927  0.1954  0.0660  0.5584
 2139SOL    HW2 7317   4.029   0.796   1.822 -0.6561 -0.2687 -0.5123
 2140SOL     OW 7318   3.519   1.076   2.667  0.0140  0.0526 -0.1056
 2140SOL    HW1 7319   3.581   1.045   2.739  1.5242 -0.4283 -1.5617
 2140SOL    HW2 7320   3.564   1.069   2.578 -1.8865  0.3887 -1.1559
 2141SOL     OW 7321   5.961   4.133   1.026 -0.8637  0.2776 -0.4054
 2141SOL    HW1 7322   5.877   4.160   0.977 -1.0332 -0.9605 -0.8233
 2141SOL    HW2 7323   6.023   4.088   0.962 -0.4319  0.0105  0.2009
 2142SOL     OW 7324   1.899   2.329   3.988 -0.8438 -0.4967  0.3392
 2142SOL    HW1 7325   1.967   2.386   3.943 -1.0725 -0.1185  0.4706
 2142SOL    HW2 7326   1.939   2.288   4.070 -0.6094 -0.7168  0.1196
 2143SOL     OW 7327   4.271   5.869   1.076  0.4554  0.2331  0.1937
 2143SOL    HW1 7328   4.209   5.802   1.117  0.1857  0.9771  1.0284
 2143SOL    HW2 7329   4.295   5.840   0.983 -1.4363  0.0915 -0.2910
 2144SOL     OW 7330   1.736   4.979   3.633 -0.4447  0.3956  0.2811
 2144SOL    HW1 7331   1.651   4.974   3.581 -0.7002  0.1115  0.7181
 2144SOL    HW2 7332   1.781   4.889   3.631  1.2938  1.2221 -2.3257
 2145SOL     OW 7333   4.849   0.177   5.448  0.2678 -0.2657 -0.2642
 2145SOL    HW1 7334   4.818   0.109   5.382 -1.4136 -0.5531  0.7573
 2145SOL    HW2 7335   4.779   0.248   5.457  0.9379  0.3177  0.4388
 2146SOL     OW 7336   3.618   4.180   2.275 -0.0680  0.5981 -0.4607
 2146SOL    HW1 7337   3.706   4.152   2.313 -0.0095 -0.5866 -1.3843
 2146SOL    HW2 7338   3.593   4.270   2.309  0.8178  0.3374  0.9369
 2147SOL     OW 7339   6.537   3.496   4.799 -0.3811 -0.4363 -0.4116
 2147SOL    HW1 7340   6.441   3.519   4.814 -0.0223  1.4387 -0.7381
 2147SOL    HW2 7341   6.543   3.421   4.733 -1.6042 -0.5069 -0.4690
 2148SOL     OW 7342   4.978   3.255   4.782  0.2998 -0.7710 -0.2036
 2148SOL    HW1 7343   4.997   3.254   4.880  1.5161 -1.5373 -0.4219
 2148SOL    HW2 7344   4.897   3.199   4.763  1.6709 -2.9798  0.0980
 2149SOL     OW 7345   0.490   1.564   2.280  0.0023 -0.0245 -0.2806
 2149SOL    HW1 7346   0.493   1.504   2.200  0.7056 -1.3096  0.6713
 2149SOL    HW2 7347   0.450   1.514   2.357  3.1168 -0.3042  1.3061
 2150SOL     OW 7348   2.176   2.700   2.797 -0.2121  0.0611 -0.2836
 2150SOL    HW1 7349   2.251   2.660   2.850  0.2159  1.3892  0.1524
 2150SOL    HW2 7350   2.119   2.627   2.759  1.9267 -1.0390 -1.5833
 2151SOL     OW 7351   2.993   6.168   6.179 -0.1914 -0.4113 -0.4076
 2151SOL    HW1 7352   3.009   6.148   6.276 -0.1246  1.1885 -0.0712
 2151SOL    HW2 7353   2.911   6.225   6.170  1.8262  2.6139 -0.8915
 2152SOL     OW 7354   3.785   4.749   1.482 -0.0711  0.3172 -0.5184
 2152SOL    HW1 7355   3.765   4.844   1.459  0.2647  1.2528  2.6160
 2152SOL    HW2 7356   3.819   4.702   1.401  1.3970  3.3039 -1.8066
 2153SOL     OW 7357   6.073   1.000   3.025 -0.2373 -0.3346  0.1474
 2153SOL    HW1 7358   6.163   1.032   2.995 -1.0418  2.0312  0.0703
 2153SOL    HW2 7359   6.045   0.922   2.968  1.8800 -1.4022  0.4357
 2154SOL     OW 7360   4.417   1.530   5.503 -0.1478  0.1800 -0.2944
 2154SOL    HW1 7361   4.376   1.501   5.589  1.7961 -1.8626  0.0356
 2154SOL    HW2 7362   4.469   1.614   5.517  0.1396 -0.1320  0.5261
 2155SOL     OW 7363   2.208   0.269   1.081 -0.0489  0.3337 -0.0541
 2155SOL    HW1 7364   2.294   0.230   1.115  0.7729  1.6747 -0.5167
 2155SOL    HW2 7365   2.224   0.309   0.990 -1.3458 -0.0386 -0.4606
 2156SOL     OW 7366   0.986   1.398   6.196 -0.0813  0.0619 -0.3483
 2156SOL    HW1 7367   0.948   1.366   6.283  2.2366 -1.3991  0.2293
 2156SOL    HW2 7368   0.937   1.355   6.120 -2.8697  2.2133  0.1089
 2157SOL     OW 7369   4.365   1.574   2.185 -0.3949  0.8063 -0.0861
 2157SOL    HW1 7370   4.451   1.584   2.135 -0.9292  1.6616 -0.8505
 2157SOL    HW2 7371   4.327   1.664   2.206 -2.1747  0.4737 -1.6462
 2158SOL     OW 7372   4.670   7.012   0.310  0.1163  0.2320  0.0415
 2158SOL    HW1 7373   4.755   6.962   0.293 -0.1316  0.1995 -1.1708
 2158SOL    HW2 7374   4.611   6.958   0.370 -1.1724 -2.1658 -3.0975
 2159SOL     OW 7375   1.760   6.835   5.848  0.4217 -0.1026  0.3353
 2159SOL    HW1 7376   1.661   6.836   5.861  0.5471 -0.4544  1.3700
 2159SOL    HW2 7377   1.793   6.741   5.843  0.5880  0.0126 -1.0163
 2160SOL     OW 7378   4.696   3.711   1.451  0.0414  0.2614  0.3158
 2160SOL    HW1 7379   4.645   3.665   1.378  1.2373 -1.6618  0.6342
 2160SOL    HW2 7380   4.714   3.806   1.424  1.1795 -0.6100 -2.3003
 2161SOL     OW 7381   5.373   5.060   2.511 -0.2642  0.4702 -0.5604
 2161SOL    HW1 7382   5.396   4.970   2.548 -0.4781  0.0971 -1.3289
 2161SOL    HW2 7383   5.336   5.051   2.419 -0.2790  1.3482 -0.6552
 2162SOL     OW 7384   4.004   6.925   3.024 -0.3123 -0.2967 -0.4919
 2162SOL    HW1 7385   4.020   7.024   3.024 -0.7085 -0.2050 -1.9334
 2162SOL    HW2 7386   3.906   6.907   3.037 -0.4116 -0.4363 -1.3554
 2163SOL     OW 7387   1.908   3.311   6.388 -0.0990 -0.0278 -0.3003
 2163SOL    HW1 7388   1.838   3.308   6.459 -0.7922  0.5519 -0.9427
 2163SOL    HW2 7389   1.969   3.388   6.404 -0.7283  0.5737 -0.7595
 2164SOL     OW 7390   0.889   2.087   1.368  0.2509  0.6294  0.1127
 2164SOL    HW1 7391   0.970   2.064   1.422  1.6624  1.6585 -1.4444
 2164SOL    HW2 7392   0.825   2.011   1.371  2.4686 -1.4265 -0.7571
 2165SOL     OW 7393   5.472   0.805   4.250  0.0196 -0.0373  0.4320
 2165SOL    HW1 7394   5.405   0.730   4.246  0.6200 -0.5589 -0.1708
 2165SOL    HW2 7395   5.549   0.783   4.190  0.7521  0.5336  1.1517
 2166SOL     OW 7396   1.031   3.289   5.058  0.0514 -0.1857  0.0574
 2166SOL    HW1 7397   1.068   3.200   5.030  1.6886  1.3043 -3.0972
 2166SOL    HW2 7398   1.104   3.342   5.102 -0.2644  0.3754 -0.0882
 2167SOL     OW 7399   2.346   2.085   4.699 -0.1075 -0.4074  0.1084
 2167SOL    HW1 7400   2.312   2.053   4.787  1.1875 -0.2961  0.6728
 2167SOL    HW2 7401   2.314   2.179   4.683  0.4830 -0.0394  0.9686
 2168SOL     OW 7402   0.384   0.974   4.032  0.5025  0.0767  0.3709
 2168SOL    HW1 7403   0.399   0.897   3.970  1.3569  0.2605  0.3329
 2168SOL    HW2 7404   0.445   1.050   4.007  1.4116 -0.1088  1.8602
 2169SOL     OW 7405   5.118   3.109   5.586  0.2014 -0.0983  0.1907
 2169SOL    HW1 7406   5.131   3.034   5.522  1.2529 -0.6287  1.0008
 2169SOL    HW2 7407   5.186   3.180   5.569  0.0396  0.0801  0.2801
 2170SOL     OW 7408   6.905   5.067   4.412  0.1595 -0.1901  0.2187
 2170SOL    HW1 7409   6.866   5.141   4.357  1.2788 -0.7318 -1.3584
 2170SOL    HW2 7410   6.958   5.106   4.488  1.0327  0.6516 -0.8046
 2171SOL     OW 7411   0.603   4.875   6.731  0.5095 -0.5017 -0.4082
 2171SOL    HW1 7412   0.525   4.832   6.685  0.4577 -1.3171  0.4144
 2171SOL    HW2 7413   0.604   4.849   6.827  0.9988  0.6510 -0.0817
 2172SOL     OW 7414   1.007   0.518   0.315 -0.4418  0.0661  0.4791
 2172SOL    HW1 7415   0.926   0.460   0.308  0.1260 -0.8860  1.5656
 2172SOL    HW2 7416   1.086   0.462   0.339  0.5570  0.9774 -0.5816
 2173SOL     OW 7417   3.624   6.852   6.326  0.2830 -0.0917  0.1238
 2173SOL    HW1 7418   3.629   6.786   6.401 -1.2824  1.7848  1.9888
 2173SOL    HW2 7419   3.530   6.884   6.315  1.1337  2.7244  0.1713
 2174SOL     OW 7420   6.266   5.434   4.036  0.1567 -0.2754  0.0463
 2174SOL    HW1 7421   6.286   5.531   4.025 -0.9030 -0.1471 -1.0669
 2174SOL    HW2 7422   6.340   5.380   3.996  0.3389  0.0970 -0.1253
 2175SOL     OW 7423   1.844   3.281   2.880  0.2558 -0.7370  0.5227
 2175SOL    HW1 7424   1.777   3.224   2.927  1.5526  0.1378  3.6739
 2175SOL    HW2 7425   1.925   3.227   2.860  0.5636 -0.6001  1.3615
 2176SOL     OW 7426   0.046   3.039   0.212 -0.3637  0.3584  0.4219
 2176SOL    HW1 7427   0.104   2.961   0.237 -0.4524 -0.2758 -1.2288
 2176SOL    HW2 7428   0.064   3.115   0.274  0.7852 -0.4978  1.1783
 2177SOL     OW 7429   6.531   1.407   4.575  0.3233  0.6692 -0.6558
 2177SOL    HW1 7430   6.513   1.480   4.510 -0.7515  0.5657 -0.4937
 2177SOL    HW2 7431   6.473   1.328   4.555  0.7117  0.2496 -0.1904
 2178SOL     OW 7432   4.097   0.946   2.806 -0.3109 -0.2832  0.5701
 2178SOL    HW1 7433   4.169   0.880   2.784 -0.4608 -0.0691 -0.6207
 2178SOL    HW2 7434   4.066   0.931   2.900 -0.1145 -1.6978  0.4318
 2179SOL     OW 7435   0.593   5.085   5.509  0.1484  0.0354 -0.1462
 2179SOL    HW1 7436   0.656   5.064   5.434  0.8631  0.0932  0.4216
 2179SOL    HW2 7437   0.644   5.127   5.584 -0.1400 -1.9705  1.2437
 2180SOL     OW 7438   2.413   2.537   2.686 -0.0066  0.2354  0.6513
 2180SOL    HW1 7439   2.354   2.545   2.606 -1.2437  1.7499  1.6516
 2180SOL    HW2 7440   2.468   2.620   2.695  2.3622 -1.1239 -0.2416
 2181SOL     OW 7441   4.596   4.793   4.170 -0.4437 -0.2679  0.2796
 2181SOL    HW1 7442   4.695   4.783   4.186 -0.1947 -0.4237 -1.1539
 2181SOL    HW2 7443   4.548   4.713   4.205  0.4120 -2.0738 -2.3633
 2182SOL     OW 7444   1.762   4.601   2.493 -0.3280 -0.1515  0.2476
 2182SOL    HW1 7445   1.853   4.563   2.503 -0.9288 -1.6443  0.2633
 2182SOL    HW2 7446   1.709   4.584   2.576 -0.7422  0.3580  0.0956
 2183SOL     OW 7447   0.509   4.266   4.763 -0.5851 -0.0529 -0.1424
 2183SOL    HW1 7448   0.416   4.300   4.753 -0.7535 -0.8057 -1.2784
 2183SOL    HW2 7449   0.561   4.286   4.679 -0.2049 -1.0923 -0.1651
 2184SOL     OW 7450   3.567   0.516   5.215  0.0012 -0.3231 -0.0475
 2184SOL    HW1 7451   3.636   0.454   5.251 -0.9025 -1.1638  0.2965
 2184SOL    HW2 7452   3.537   0.483   5.125 -0.1439 -0.1274 -0.0709
 2185SOL     OW 7453   1.187   6.245   3.077 -0.1508  0.2218 -0.3974
 2185SOL    HW1 7454   1.187   6.324   3.138 -0.2600 -0.1273  0.0602
 2185SOL    HW2 7455   1.261   6.254   3.011 -0.0629  0.6286 -0.2490
 2186SOL     OW 7456   6.712   5.420   1.885 -0.0339 -0.5164  0.1230
 2186SOL    HW1 7457   6.798   5.471   1.880 -0.8410  0.7929 -2.2452
 2186SOL    HW2 7458   6.701   5.365   1.802 -1.1154 -1.2918  0.7544
 2187SOL     OW 7459   0.171   6.675   2.181  0.4968 -0.0632 -0.4654
 2187SOL    HW1 7460   0.082   6.687   2.137  0.5247  1.8644 -0.0799
 2187SOL    HW2 7461   0.160   6.620   2.264 -0.1260 -0.8018 -1.0262
 2188SOL     OW 7462   4.629   6.971   4.561 -0.2149  0.3013  0.4292
 2188SOL    HW1 7463   4.691   6.895   4.577 -0.9233 -0.3958 -0.0784
 2188SOL    HW2 7464   4.558   6.972   4.631 -1.0120 -0.3599 -0.3496
 2189SOL     OW 7465   2.809   2.304   3.113 -0.0594  0.1470  0.6218
 2189SOL    HW1 7466   2.889   2.303   3.054 -0.4358  1.7446  0.0529
 2189SOL    HW2 7467   2.834   2.265   3.202  0.4264 -2.5980 -0.6034
 2190SOL     OW 7468   3.944   2.171   6.932 -0.0397 -0.2599 -0.0844
 2190SOL    HW1 7469   3.854   2.130   6.947 -0.2465 -0.4019 -1.5416
 2190SOL    HW2 7470   3.933   2.266   6.903  0.3100 -0.0880  0.3411
 2191SOL     OW 7471   2.979   0.015   4.022 -0.2662 -0.5729 -0.4873
 2191SOL    HW1 7472   2.934  -0.070   4.047 -2.4853 -0.2557 -2.9167
 2191SOL    HW2 7473   3.043  -0.003   3.946  0.4853 -0.3053  0.0702
 2192SOL     OW 7474   4.851   0.351   3.046 -0.1760  0.5963  0.4880
 2192SOL    HW1 7475   4.778   0.406   3.086  0.8656  1.3568  1.3789
 2192SOL    HW2 7476   4.910   0.408   2.989 -0.9832 -0.2591 -1.3083
 2193SOL     OW 7477   5.727   6.763   6.366 -0.3084 -0.0257  0.6998
 2193SOL    HW1 7478   5.668   6.842   6.349 -0.6832 -0.6861 -1.3979
 2193SOL    HW2 7479   5.789   6.750   6.289 -0.7153 -2.1285  0.6500
 2194SOL     OW 7480   1.989   3.514   3.957  0.8010 -0.3647 -0.5018
 2194SOL    HW1 7481   1.941   3.597   3.985  0.6321 -0.1886 -1.2928
 2194SOL    HW2 7482   2.069   3.501   4.015  1.1213  0.6361 -0.6964
 2195SOL     OW 7483   1.015   1.415   4.225 -0.0451 -0.7210 -0.0660
 2195SOL    HW1 7484   1.067   1.500   4.220  1.4009 -1.6150 -0.8455
 2195SOL    HW2 7485   0.952   1.410   4.147  0.1327 -0.5234 -0.2231
 2196SOL     OW 7486   4.226   6.387   6.214  0.2325  0.0068 -0.2245
 2196SOL    HW1 7487   4.279   6.302   6.206  0.6393  0.3969 -1.9877
 2196SOL    HW2 7488   4.200   6.419   6.123 -1.3011  0.9315  0.5044
 2197SOL     OW 7489   3.787   4.487   0.833 -0.9174 -0.1941 -0.4486
 2197SOL    HW1 7490   3.759   4.400   0.873  0.9837  0.1865  1.9667
 2197SOL    HW2 7491   3.794   4.556   0.906  0.5688  1.1733 -1.8104
 2198SOL     OW 7492   4.442   6.275   1.556  0.0746  0.2038 -0.3667
 2198SOL    HW1 7493   4.533   6.316   1.552 -0.0805  0.4758 -1.7024
 2198SOL    HW2 7494   4.447   6.187   1.603  1.0904  0.0743 -0.6876
 2199SOL     OW 7495   3.901   0.034   5.322 -0.2846 -0.5435 -0.4731
 2199SOL    HW1 7496   3.890   0.070   5.229 -0.2114  2.3389  0.5271
 2199SOL    HW2 7497   3.876  -0.062   5.324 -0.2182 -0.7102 -3.4810
 2200SOL     OW 7498   1.800   2.719   4.747  0.3540  0.8583  0.1651
 2200SOL    HW1 7499   1.887   2.682   4.715  0.3081  1.3642 -0.5949
 2200SOL    HW2 7500   1.781   2.687   4.840  0.1528 -1.2658 -0.5585
 2201SOL     OW 7501   6.969   3.248   5.373 -0.8553 -0.3156  0.1909
 2201SOL    HW1 7502   6.897   3.312   5.344  0.2340  0.8245 -0.1224
 2201SOL    HW2 7503   7.034   3.296   5.433 -0.7740 -1.5296  1.1031
 2202SOL     OW 7504   3.464   6.292   2.964 -0.4006 -0.4821 -0.2654
 2202SOL    HW1 7505   3.531   6.363   2.943 -1.8906  0.4991 -2.0093
 2202SOL    HW2 7506   3.478   6.259   3.057  1.3097  0.9903  0.0502
 2203SOL     OW 7507   6.020   1.588   2.305 -0.3211  0.5191  0.1428
 2203SOL    HW1 7508   6.096   1.588   2.240  0.9084 -1.4644  1.4724
 2203SOL    HW2 7509   5.939   1.551   2.262 -0.5171  2.3628 -1.2040
 2204SOL     OW 7510   6.216   0.994   2.613  0.0735  0.3657  0.3458
 2204SOL    HW1 7511   6.203   1.088   2.644  0.1627  0.2804  0.6522
 2204SOL    HW2 7512   6.163   0.978   2.530  2.2334  1.5241 -1.3655
 2205SOL     OW 7513   6.620   6.594   5.274  0.1607  0.1449  0.2251
 2205SOL    HW1 7514   6.654   6.660   5.341  0.3762  2.2115 -1.7900
 2205SOL    HW2 7515   6.693   6.571   5.210  0.1837 -2.3989  1.0902
 2206SOL     OW 7516   3.964   4.377   0.019  0.6989 -0.3410  0.5409
 2206SOL    HW1 7517   3.865   4.394   0.022  0.6052 -0.7744  0.1657
 2206SOL    HW2 7518   3.987   4.332  -0.067  1.1973 -0.4304  0.7162
 2207SOL     OW 7519   1.238   3.165   0.293 -0.3216  0.1676  0.0019
 2207SOL    HW1 7520   1.332   3.194   0.304 -0.5995  1.0543  0.0850
 2207SOL    HW2 7521   1.232   3.099   0.218  0.1346  1.2571 -1.0180
 2208SOL     OW 7522   1.665   6.057   2.746 -0.0117 -0.1500  0.0211
 2208SOL    HW1 7523   1.622   6.142   2.716  0.3440  0.1445  0.3363
 2208SOL    HW2 7524   1.749   6.078   2.796  1.4830 -0.7481 -2.1028
 2209SOL     OW 7525   1.847   6.082   6.082 -0.1427  0.5815  0.0029
 2209SOL    HW1 7526   1.766   6.077   6.140  0.0688  2.1348  0.5032
 2209SOL    HW2 7527   1.908   6.154   6.117  1.1829 -0.1612 -0.6944
 2210SOL     OW 7528   5.719   5.721   5.567  0.2702  0.7554  0.1809
 2210SOL    HW1 7529   5.733   5.803   5.511  1.5733  0.5847  0.2269
 2210SOL    HW2 7530   5.760   5.735   5.657  0.0537  0.2405  0.3645
 2211SOL     OW 7531   2.010   6.678   6.555 -0.0242 -0.0284 -0.2900
 2211SOL    HW1 7532   1.964   6.759   6.519  1.0067  0.4698 -0.5222
 2211SOL    HW2 7533   2.103   6.702   6.584  0.0747 -0.9915  0.2496
 2212SOL     OW 7534   2.387   5.546   6.881  1.0846 -0.8062  0.7708
 2212SOL    HW1 7535   2.423   5.542   6.975  1.7332 -1.5778  0.5031
 2212SOL    HW2 7536   2.445   5.605   6.825 -0.0495  0.7315  1.1461
 2213SOL     OW 7537   3.402   0.548   6.262  0.8039 -0.2483  0.3769
 2213SOL    HW1 7538   3.322   0.605   6.282 -0.8673 -1.9270 -1.1507
 2213SOL    HW2 7539   3.424   0.555   6.165  1.8063 -0.7162  0.5651
 2214SOL     OW 7540   3.625   3.147   3.316 -0.2786 -0.2837 -0.3032
 2214SOL    HW1 7541   3.683   3.072   3.346  1.4314  1.1096  0.0221
 2214SOL    HW2 7542   3.530   3.127   3.341  0.3068 -1.7277  0.9518
 2215SOL     OW 7543   5.905   0.777   1.689  0.0169  0.0724 -0.4065
 2215SOL    HW1 7544   5.883   0.680   1.684 -0.2623  0.1644 -1.1704
 2215SOL    HW2 7545   5.888   0.811   1.781 -1.2809 -0.2901 -0.4908
 2216SOL     OW 7546   6.245   0.717   5.700 -0.4462  0.5380  0.1192
 2216SOL    HW1 7547   6.170   0.759   5.751 -1.5345 -1.8728  0.6453
 2216SOL    HW2 7548   6.207   0.666   5.622  0.8432  0.8334 -0.7260
 2217SOL     OW 7549   3.611   5.514   6.800 -0.0572 -0.1389 -0.6192
 2217SOL    HW1 7550   3.581   5.426   6.836  0.8575  0.0252  0.6003
 2217SOL    HW2 7551   3.596   5.585   6.869 -0.5719  0.6371 -1.5049
 2218SOL     OW 7552   0.280   0.060   0.524  0.0276 -0.2609  0.2587
 2218SOL    HW1 7553   0.183   0.057   0.547 -0.0703 -0.4748 -0.1789
 2218SOL    HW2 7554   0.316   0.151   0.543 -0.8921  0.6647 -2.0956
 2219SOL     OW 7555   5.927   1.791   1.960  0.2496  0.3180 -0.0213
 2219SOL    HW1 7556   5.904   1.694   1.951  1.2722 -0.4143  3.5463
 2219SOL    HW2 7557   6.020   1.806   1.926  0.4912 -0.2041  0.3861
 2220SOL     OW 7558   1.616   4.077   5.587 -0.1090 -0.2301  0.2998
 2220SOL    HW1 7559   1.579   4.046   5.499 -2.0341 -1.2374  1.3996
 2220SOL    HW2 7560   1.569   4.029   5.661  1.9196  0.1265  1.8844
 2221SOL     OW 7561   5.787   2.890   0.281 -0.3000  0.7416 -0.0997
 2221SOL    HW1 7562   5.852   2.816   0.268 -1.4574 -0.3506  0.0862
 2221SOL    HW2 7563   5.832   2.978   0.267  1.0093 -0.0102 -0.7375
 2222SOL     OW 7564   6.565   0.439   2.608  0.1777  0.4346 -0.3874
 2222SOL    HW1 7565   6.603   0.380   2.537 -3.1489 -1.1072 -1.0638
 2222SOL    HW2 7566   6.603   0.414   2.697  1.9830  0.2075 -1.1889
 2223SOL     OW 7567   5.972   2.270   5.573  0.5669  0.0695 -0.2916
 2223SOL    HW1 7568   5.896   2.206   5.567 -0.2751  0.9522  0.6766
 2223SOL    HW2 7569   5.945   2.358   5.533  1.4982  0.0262 -1.0447
 2224SOL     OW 7570   0.466   3.187   1.585  0.4144  0.1596 -0.0646
 2224SOL    HW1 7571   0.462   3.145   1.494 -0.1514  0.2323 -0.0804
 2224SOL    HW2 7572   0.514   3.126   1.648  0.6244  0.0129 -0.3625
 2225SOL     OW 7573   0.415   6.990   3.269  0.0456  0.2150 -0.3937
 2225SOL    HW1 7574   0.354   7.066   3.249 -1.5316 -1.1588 -0.9725
 2225SOL    HW2 7575   0.502   7.003   3.221  0.3582  2.3331  0.6600
 2226SOL     OW 7576   1.742   3.330   6.620  0.0223 -0.4466  0.1284
 2226SOL    HW1 7577   1.678   3.256   6.600  0.5347 -0.9363  0.2536
 2226SOL    HW2 7578   1.792   3.310   6.704  0.9743 -0.5247 -0.4303
 2227SOL     OW 7579   6.643   3.267   0.328  0.6706 -0.2603  0.4279
 2227SOL    HW1 7580   6.594   3.202   0.270  0.7581 -0.2731  0.3680
 2227SOL    HW2 7581   6.697   3.216   0.395  1.2080 -0.2644 -0.0002
 2228SOL     OW 7582   5.412   3.083   1.338 -0.3211 -0.1467 -0.2967
 2228SOL    HW1 7583   5.430   3.003   1.281 -0.8110 -1.0190  0.7511
 2228SOL    HW2 7584   5.498   3.132   1.355 -0.0194 -0.4473 -0.9271
 2229SOL     OW 7585   5.149   2.678   5.071 -0.6675  0.2664 -0.1828
 2229SOL    HW1 7586   5.071   2.622   5.045 -0.0051 -0.6210 -0.2892
 2229SOL    HW2 7587   5.118   2.771   5.092 -1.7182 -0.0297 -0.3911
 2230SOL     OW 7588   5.075   0.415   6.663 -0.0150 -0.0074  0.1109
 2230SOL    HW1 7589   5.004   0.434   6.731  1.2976  1.2418  1.1770
 2230SOL    HW2 7590   5.032   0.373   6.582 -2.2628  2.1751  0.0104
 2231SOL     OW 7591   1.661   6.895   1.583 -0.1020 -0.4792 -0.0041
 2231SOL    HW1 7592   1.761   6.903   1.579 -0.0606 -1.3117 -0.9468
 2231SOL    HW2 7593   1.620   6.963   1.522 -0.1392  0.2502  0.8208
 2232SOL     OW 7594   2.239   4.043   3.480 -0.2218  0.7855 -0.0871
 2232SOL    HW1 7595   2.230   4.077   3.387 -0.2017 -1.2657 -0.9014
 2232SOL    HW2 7596   2.237   3.943   3.479 -0.7161  0.7152  2.1783
 2233SOL     OW 7597   1.165   2.787   6.719  0.5186 -0.6806  0.3130
 2233SOL    HW1 7598   1.142   2.848   6.643  1.4679 -1.3939 -0.5718
 2233SOL    HW2 7599   1.121   2.820   6.802  0.2222  0.6540 -0.3445
 2234SOL     OW 7600   4.600   1.177   1.376  0.2587 -0.6344  0.3075
 2234SOL    HW1 7601   4.538   1.117   1.427 -2.6781  0.9949 -1.1266
 2234SOL    HW2 7602   4.626   1.132   1.290 -0.7912 -0.4394 -0.1204
 2235SOL     OW 7603   1.630   0.526   2.148 -0.7691 -0.2804 -0.2699
 2235SOL    HW1 7604   1.555   0.491   2.092 -2.1920 -0.9416  1.9061
 2235SOL    HW2 7605   1.592   0.577   2.225  1.0994  0.4929  0.1771
 2236SOL     OW 7606   3.267   3.236   1.411  0.2400  0.2241 -0.0626
 2236SOL    HW1 7607   3.284   3.254   1.508  0.1305 -0.0040 -0.0001
 2236SOL    HW2 7608   3.354   3.231   1.362  0.4038 -1.2340  0.3087
 2237SOL     OW 7609   5.165   3.201   3.060 -0.2618  0.4923  0.4725
 2237SOL    HW1 7610   5.212   3.266   3.120 -1.1822  1.2098  0.4350
 2237SOL    HW2 7611   5.067   3.216   3.065 -0.3087  2.0001 -2.7957
 2238SOL     OW 7612   4.880   4.876   2.443 -0.2777  0.3189  0.3177
 2238SOL    HW1 7613   4.840   4.858   2.533  2.0359 -0.9531  1.1659
 2238SOL    HW2 7614   4.945   4.951   2.449 -1.6872  1.7000 -0.8270
 2239SOL     OW 7615   4.253   5.972   4.908 -0.2092  0.4081 -0.1656
 2239SOL    HW1 7616   4.302   6.016   4.833 -0.2552  0.3518 -0.2293
 2239SOL    HW2 7617   4.300   5.991   4.995  0.6868 -0.7580 -0.3746
 2240SOL     OW 7618   3.625   4.906   4.103 -0.0620  0.1671 -0.8600
 2240SOL    HW1 7619   3.614   5.003   4.078  0.5377  0.4420 -0.1123
 2240SOL    HW2 7620   3.723   4.885   4.108 -0.1911 -0.3901 -0.6723
 2241SOL     OW 7621   6.698   5.335   2.709  0.7901  0.3742  0.1824
 2241SOL    HW1 7622   6.628   5.345   2.780 -1.2495  1.5304 -1.8585
 2241SOL    HW2 7623   6.765   5.409   2.717  0.5212  0.5525  0.8198
 2242SOL     OW 7624   5.477   2.742   1.856  0.0094  0.1411  0.7087
 2242SOL    HW1 7625   5.490   2.838   1.831 -4.0486  0.5066 -0.7321
 2242SOL    HW2 7626   5.462   2.734   1.955  0.9038  0.8657  0.9127
 2243SOL     OW 7627   2.030   6.480   4.794 -0.2691  0.1173  0.0815
 2243SOL    HW1 7628   2.069   6.567   4.764  0.0787 -0.3624 -0.8653
 2243SOL    HW2 7629   1.952   6.498   4.854  1.2977  1.0990  1.9420
 2244SOL     OW 7630   2.085   6.942   2.831  0.5095 -0.3763 -0.3355
 2244SOL    HW1 7631   2.147   6.865   2.821  0.9876  0.0127 -0.4097
 2244SOL    HW2 7632   2.030   6.952   2.748  0.0007 -1.0104 -0.0860
 2245SOL     OW 7633   6.033   1.875   2.946  0.9881 -0.2332  0.0755
 2245SOL    HW1 7634   6.046   1.820   3.029  1.2116 -0.1521  0.0939
 2245SOL    HW2 7635   5.936   1.899   2.937 -0.0963 -4.4264 -2.2649
 2246SOL     OW 7636   0.563   0.330   5.603 -0.3228 -0.3479  0.1286
 2246SOL    HW1 7637   0.562   0.342   5.702 -2.2372  0.0102  0.0966
 2246SOL    HW2 7638   0.471   0.307   5.570  0.2410 -0.3496 -1.5791
 2247SOL     OW 7639   3.166   3.563   4.793  0.2356 -0.2779 -0.0672
 2247SOL    HW1 7640   3.178   3.465   4.811 -0.7777  0.0022  2.6686
 2247SOL    HW2 7641   3.094   3.576   4.725  0.1799 -1.4147 -0.2407
 2248SOL     OW 7642   5.973   2.569   5.604 -0.3214  0.3311  0.3380
 2248SOL    HW1 7643   6.069   2.563   5.630 -0.1018 -0.7979 -0.6191
 2248SOL    HW2 7644   5.966   2.585   5.505 -1.1088  0.2326  0.3678
 2249SOL     OW 7645   7.018   0.929   3.367  0.4344 -0.5075  0.2107
 2249SOL    HW1 7646   7.029   0.915   3.269  0.0873 -1.5422  0.3092
 2249SOL    HW2 7647   7.108   0.926   3.412  0.5500 -0.4954 -0.0205
 2250SOL     OW 7648   3.418   2.037   0.599  0.0862 -0.3230  0.4129
 2250SOL    HW1 7649   3.426   1.948   0.644 -0.1097 -1.2922 -1.3604
 2250SOL    HW2 7650   3.494   2.050   0.536 -1.3780 -0.5894 -1.5248
 2251SOL     OW 7651   4.403   0.654   0.128 -0.1147 -0.3252  0.5905
 2251SOL    HW1 7652   4.368   0.631   0.219 -0.7930 -1.5068  0.0539
 2251SOL    HW2 7653   4.444   0.573   0.086  1.7238  0.5968  0.4777
 2252SOL     OW 7654   5.936   1.416   1.008 -0.1898  0.1265  0.2121
 2252SOL    HW1 7655   5.950   1.344   0.940  0.0271 -0.9670  1.3950
 2252SOL    HW2 7656   5.928   1.504   0.961  3.0799 -0.1355 -1.0821
 2253SOL     OW 7657   0.407   4.122   0.371 -0.1619 -0.1117 -0.0975
 2253SOL    HW1 7658   0.354   4.194   0.325  0.3315  1.7724  2.0673
 2253SOL    HW2 7659   0.505   4.137   0.353  0.0610  0.8441  1.6761
 2254SOL     OW 7660   3.296   3.006   3.843  0.1299  0.2368 -0.0499
 2254SOL    HW1 7661   3.346   3.033   3.925  0.8305  1.1032 -0.7532
 2254SOL    HW2 7662   3.207   3.051   3.843 -1.9696 -3.2984  2.5531
 2255SOL     OW 7663   3.865   4.084   5.817  0.0176  0.5835 -1.0162
 2255SOL    HW1 7664   3.826   4.139   5.891 -0.0773  0.0674 -0.6813
 2255SOL    HW2 7665   3.959   4.060   5.840 -1.5845 -4.3192  1.6810
 2256SOL     OW 7666   4.574   6.763   2.698 -0.0849 -0.0506  0.7777
 2256SOL    HW1 7667   4.557   6.833   2.767 -0.1260  2.0822 -1.2826
 2256SOL    HW2 7668   4.557   6.801   2.607 -1.6495 -3.2255 -0.3972
 2257SOL     OW 7669   0.066   3.076   3.074  0.3545  0.4257  0.3782
 2257SOL    HW1 7670   0.158   3.087   3.114  0.5238  1.3321 -0.2193
 2257SOL    HW2 7671   0.020   2.999   3.117  1.1275  0.4069  1.2058
 2258SOL     OW 7672   1.564   4.189   4.827 -0.2238  0.7392  0.2087
 2258SOL    HW1 7673   1.518   4.114   4.872 -0.5267  0.0993 -1.1122
 2258SOL    HW2 7674   1.497   4.258   4.798 -0.1413  0.7176 -0.0429
 2259SOL     OW 7675   3.344   4.839   6.380  0.0074  0.3919 -0.3321
 2259SOL    HW1 7676   3.327   4.750   6.422 -0.2968  1.0166  0.9185
 2259SOL    HW2 7677   3.256   4.885   6.363  0.2009  0.9132  0.0608
 2260SOL     OW 7678   2.782   3.865   0.030  0.2063  0.3625 -0.1128
 2260SOL    HW1 7679   2.709   3.934   0.026 -0.7285 -0.4592  1.4301
 2260SOL    HW2 7680   2.819   3.849  -0.061 -1.6107  0.7648 -0.9712
 2261SOL     OW 7681   0.124   5.787   0.786 -0.3840 -0.1928  0.0490
 2261SOL    HW1 7682   0.154   5.730   0.862 -0.3785 -1.5981 -0.9464
 2261SOL    HW2 7683   0.057   5.736   0.732 -1.5513  1.3671 -0.0169
 2262SOL     OW 7684   6.460   1.531   4.153  0.0263  0.4261 -0.0241
 2262SOL    HW1 7685   6.365   1.500   4.158  0.8982 -2.5596 -0.2544
 2262SOL    HW2 7686   6.489   1.563   4.243 -1.0011  0.8620  0.1723
 2263SOL     OW 7687   3.198   5.583   5.488 -0.4587  0.2597 -0.4772
 2263SOL    HW1 7688   3.225   5.617   5.578 -0.0270 -0.5600 -0.2788
 2263SOL    HW2 7689   3.278   5.583   5.427 -0.4585 -0.3250 -0.4873
 2264SOL     OW 7690   3.210   5.221   5.366  0.0031 -0.5826  0.3442
 2264SOL    HW1 7691   3.193   5.269   5.453  1.6156 -0.4593  0.6218
 2264SOL    HW2 7692   3.156   5.263   5.294  1.3814  1.7467  0.5639
 2265SOL     OW 7693   1.136   2.073   3.648 -0.2442 -0.2333  0.7394
 2265SOL    HW1 7694   1.201   2.075   3.572 -0.0323  1.0472  0.9181
 2265SOL    HW2 7695   1.185   2.068   3.735 -0.4761 -1.4105  0.8227
 2266SOL     OW 7696   5.395   0.898   0.323  0.0584 -0.7379 -0.4958
 2266SOL    HW1 7697   5.388   0.803   0.293  0.8372 -0.7768 -0.5720
 2266SOL    HW2 7698   5.330   0.954   0.271 -0.2129 -1.1808 -0.6392
 2267SOL     OW 7699   4.521   1.687   5.002  0.2905  0.1541 -0.3280
 2267SOL    HW1 7700   4.610   1.639   5.000 -0.4290 -1.2484  0.0075
 2267SOL    HW2 7701   4.531   1.776   4.959  1.4085 -0.7948 -2.1719
 2268SOL     OW 7702   6.471   5.632   0.105  0.0010  0.0264  0.1273
 2268SOL    HW1 7703   6.567   5.606   0.095  0.7206  2.5321  0.0343
 2268SOL    HW2 7704   6.426   5.568   0.168  1.6792 -1.2136  0.1458
 2269SOL     OW 7705   0.612   5.945   5.779  0.1383 -0.0960  0.5688
 2269SOL    HW1 7706   0.634   5.901   5.866  0.4611 -2.5609 -0.6608
 2269SOL    HW2 7707   0.675   6.020   5.762 -1.0022  1.5931  3.1945
 2270SOL     OW 7708   2.908   3.055   6.282 -0.2458 -0.3084  0.1288
 2270SOL    HW1 7709   2.810   3.076   6.292 -0.2991 -0.4131 -0.1827
 2270SOL    HW2 7710   2.933   3.057   6.186  0.8349  3.3570  0.3184
 2271SOL     OW 7711   6.708   2.647   1.403 -0.2228  0.1452 -0.2866
 2271SOL    HW1 7712   6.795   2.681   1.439  1.1372 -0.0585 -3.1606
 2271SOL    HW2 7713   6.635   2.712   1.428  0.8014  0.6541  1.6201
 2272SOL     OW 7714   4.398   2.420   6.562 -0.4900 -0.4159  0.6900
 2272SOL    HW1 7715   4.418   2.459   6.652 -1.5981 -0.7153  1.0823
 2272SOL    HW2 7716   4.323   2.355   6.570  1.2049 -2.5839  0.0230
 2273SOL     OW 7717   1.340   0.746   3.258  0.4031 -0.3582 -0.6017
 2273SOL    HW1 7718   1.373   0.693   3.180 -0.2337 -0.6945 -0.6481
 2273SOL    HW2 7719   1.241   0.736   3.267  0.5465 -0.9277  0.6826
 2274SOL     OW 7720   6.819   3.788   0.685  0.0145  0.6294  0.2469
 2274SOL    HW1 7721   6.896   3.735   0.722 -0.2699 -0.1876 -0.3086
 2274SOL    HW2 7722   6.832   3.801   0.586 -1.7529 -1.6735 -0.3605
 2275SOL     OW 7723   0.602   6.681   3.898  0.2640 -0.0225  1.3446
 2275SOL    HW1 7724   0.624   6.694   3.994  0.0464 -2.4687  1.7850
 2275SOL    HW2 7725   0.542   6.601   3.888  0.5881 -0.0552 -0.8580
 2276SOL     OW 7726   4.860   5.248   2.871  0.1038  0.7524 -0.6175
 2276SOL    HW1 7727   4.823   5.284   2.956  1.4578 -0.1655  0.3962
 2276SOL    HW2 7728   4.852   5.148   2.870  2.5927  0.4883 -0.2657
 2277SOL     OW 7729   3.876   3.930   3.726  0.5871 -0.4792 -0.2961
 2277SOL    HW1 7730   3.860   3.919   3.628 -1.7722  1.8810 -0.2860
 2277SOL    HW2 7731   3.851   3.846   3.774  0.7032 -1.2716 -1.5753
 2278SOL     OW 7732   6.893   1.931   4.847  0.2151  0.0113  0.5816
 2278SOL    HW1 7733   6.900   1.964   4.753 -2.0688  0.7975  0.6254
 2278SOL    HW2 7734   6.913   1.833   4.850 -0.2081 -0.1394 -0.8229
 2279SOL     OW 7735   6.857   0.356   4.962 -0.0013 -0.2617  0.7945
 2279SOL    HW1 7736   6.781   0.402   5.007 -0.7381 -1.5045  0.8802
 2279SOL    HW2 7737   6.938   0.414   4.963 -1.5028  2.0926 -1.2669
 2280SOL     OW 7738   0.495   3.598   5.917  1.3868 -0.2230 -0.3875
 2280SOL    HW1 7739   0.409   3.637   5.885  0.5363 -0.4997  1.4009
 2280SOL    HW2 7740   0.509   3.508   5.875 -0.2823 -1.0990  0.8271
 2281SOL     OW 7741   3.257   1.670   2.631  0.1082 -0.6652 -0.0219
 2281SOL    HW1 7742   3.326   1.682   2.703  0.6756  1.1485 -0.8052
 2281SOL    HW2 7743   3.174   1.720   2.657 -0.1015 -0.9639 -0.1161
 2282SOL     OW 7744   5.984   1.797   5.545  0.1560 -0.3028  0.2826
 2282SOL    HW1 7745   6.076   1.821   5.514 -0.0717  0.6749  0.3382
 2282SOL    HW2 7746   5.932   1.758   5.469 -0.4017  2.0750 -0.6417
 2283SOL     OW 7747   6.764   4.924   1.986 -0.2323  0.2046 -0.0540
 2283SOL    HW1 7748   6.857   4.889   1.977 -0.8902 -1.4961 -0.5734
 2283SOL    HW2 7749   6.732   4.959   1.898  0.4277  2.2773  0.4623
 2284SOL     OW 7750   2.207   3.409   6.049 -0.3716 -0.2303 -0.1634
 2284SOL    HW1 7751   2.193   3.507   6.066  1.1416  0.0303 -0.2979
 2284SOL    HW2 7752   2.248   3.367   6.130 -3.1550 -1.3006  0.8183
 2285SOL     OW 7753   3.668   3.079   0.179  0.0846 -0.4498 -0.0736
 2285SOL    HW1 7754   3.569   3.070   0.189 -0.1344 -0.0789 -1.6803
 2285SOL    HW2 7755   3.708   3.111   0.266 -1.4783  1.5821 -0.0379
 2286SOL     OW 7756   0.196   6.479   3.100  0.5508 -0.0886 -0.0294
 2286SOL    HW1 7757   0.130   6.405   3.086  0.3670  0.1971 -0.7288
 2286SOL    HW2 7758   0.211   6.493   3.198 -0.4729 -0.1157  0.1423
 2287SOL     OW 7759   6.886   0.918   3.594 -0.2264 -0.0711  0.1610
 2287SOL    HW1 7760   6.849   1.010   3.600 -2.7621 -1.0828  1.6798
 2287SOL    HW2 7761   6.942   0.910   3.512  1.2327  3.1426  0.6832
 2288SOL     OW 7762   5.842   6.016   4.726  0.4380  0.1835 -0.0601
 2288SOL    HW1 7763   5.882   5.950   4.788  0.3784  1.1048  0.9908
 2288SOL    HW2 7764   5.813   5.970   4.642  0.4181 -1.0997  0.6290
 2289SOL     OW 7765   2.121   4.153   1.246  0.1448  0.1479 -0.4576
 2289SOL    HW1 7766   2.197   4.207   1.282 -0.1370  0.5403 -0.4487
 2289SOL    HW2 7767   2.157   4.077   1.191  0.6709 -1.6089  2.1227
 2290SOL     OW 7768   1.949   3.427   0.315 -0.1514 -0.0465  0.0957
 2290SOL    HW1 7769   1.930   3.505   0.255  2.7726 -0.8061 -2.0329
 2290SOL    HW2 7770   1.863   3.393   0.353 -2.3649  0.2283 -4.0529
 2291SOL     OW 7771   4.087   1.720   5.696 -0.6768 -0.3950  0.0535
 2291SOL    HW1 7772   4.014   1.690   5.757 -0.0818 -1.7006  0.1556
 2291SOL    HW2 7773   4.070   1.685   5.604  0.1682 -1.3602  0.2373
 2292SOL     OW 7774   0.618   0.714   2.707  0.3611  0.3812 -0.0334
 2292SOL    HW1 7775   0.564   0.775   2.765 -1.5288  0.2604 -1.5700
 2292SOL    HW2 7776   0.708   0.755   2.691  0.0632  1.5313  1.0334
 2293SOL     OW 7777   2.030   0.823   0.917 -0.5759 -0.1103 -0.6671
 2293SOL    HW1 7778   1.962   0.889   0.950 -0.5678  0.8021 -2.3457
 2293SOL    HW2 7779   2.095   0.870   0.857  0.8095 -1.2204 -0.0889
 2294SOL     OW 7780   1.595   0.089   6.779 -0.0180  0.4999 -0.0164
 2294SOL    HW1 7781   1.652   0.026   6.725 -0.1719 -1.6632  2.1777
 2294SOL    HW2 7782   1.499   0.060   6.773 -0.3216  1.5127 -0.2222
 2295SOL     OW 7783   0.299   2.143   3.617 -0.1234  0.3870  0.1199
 2295SOL    HW1 7784   0.230   2.077   3.587  2.1265 -1.9609 -0.2430
 2295SOL    HW2 7785   0.300   2.147   3.717  0.7980 -1.5112  0.2457
 2296SOL     OW 7786   4.860   6.111   2.264  0.1722  0.1862 -0.4825
 2296SOL    HW1 7787   4.885   6.024   2.222 -2.0997 -0.4028 -0.7771
 2296SOL    HW2 7788   4.889   6.112   2.360 -0.5913 -1.3018 -0.2112
 2297SOL     OW 7789   3.019   5.133   6.801  0.3464 -0.2547  0.5688
 2297SOL    HW1 7790   3.018   5.107   6.704  2.1656  2.0483 -0.1549
 2297SOL    HW2 7791   2.925   5.150   6.832 -0.2668 -1.0909 -0.7495
 2298SOL     OW 7792   2.361   2.329   0.734  0.4407 -0.1800 -0.0917
 2298SOL    HW1 7793   2.384   2.405   0.673  0.0335 -0.4605 -0.6047
 2298SOL    HW2 7794   2.316   2.257   0.682 -1.6017  0.3496  0.8362
 2299SOL     OW 7795   3.411   6.072   5.557  0.7021 -0.0061 -0.1708
 2299SOL    HW1 7796   3.343   6.092   5.487  0.9519 -0.0923 -0.4396
 2299SOL    HW2 7797   3.454   6.158   5.586  0.6258  0.0252 -0.1485
 2300SOL     OW 7798   1.292   6.143   0.617 -0.3756  0.5196 -0.2545
 2300SOL    HW1 7799   1.209   6.173   0.571 -0.3190  1.6732  0.3695
 2300SOL    HW2 7800   1.272   6.063   0.674 -0.8144  0.1374 -0.9366
 2301SOL     OW 7801   2.997   3.832   2.148 -0.2511  0.0520  0.5285
 2301SOL    HW1 7802   3.040   3.797   2.232  0.9831  0.4422  0.0742
 2301SOL    HW2 7803   3.062   3.890   2.099 -0.6603 -0.8117 -1.1086
 2302SOL     OW 7804   4.363   5.468   2.031  0.2725  0.4222  0.1965
 2302SOL    HW1 7805   4.457   5.434   2.036  0.4300  0.4562 -1.6318
 2302SOL    HW2 7806   4.300   5.397   2.062  0.8555  0.0499  0.5324
 2303SOL     OW 7807   3.579   2.385   6.416  0.4390 -0.3277 -0.0631
 2303SOL    HW1 7808   3.678   2.397   6.424  0.4352  0.1748 -0.6484
 2303SOL    HW2 7809   3.536   2.390   6.506  0.9054 -0.1283  0.1473
 2304SOL     OW 7810   6.003   0.119   4.056  0.2091  0.1236  0.4178
 2304SOL    HW1 7811   5.918   0.171   4.054 -0.3841 -0.8147  0.4703
 2304SOL    HW2 7812   5.983   0.024   4.078  0.8237 -0.9488 -2.9742
 2305SOL     OW 7813   3.193   0.718   2.334  0.0082  0.8801 -0.4111
 2305SOL    HW1 7814   3.120   0.706   2.266  0.5274  0.7347 -0.9457
 2305SOL    HW2 7815   3.240   0.804   2.317 -0.4570  1.2876  0.3378
 2306SOL     OW 7816   2.423   4.914   3.848  0.2542  0.3123  0.2759
 2306SOL    HW1 7817   2.451   4.983   3.781 -0.2574 -1.1223 -1.4874
 2306SOL    HW2 7818   2.356   4.853   3.807 -2.4462  1.1520  3.0607
 2307SOL     OW 7819   6.939   4.260   0.913  0.2439  0.0755 -0.3713
 2307SOL    HW1 7820   6.881   4.180   0.903  0.1180  0.3279 -1.8158
 2307SOL    HW2 7821   6.887   4.333   0.957 -0.1565 -0.0966 -0.5499
 2308SOL     OW 7822   1.720   4.936   1.028 -0.0994 -0.2969  0.1619
 2308SOL    HW1 7823   1.628   4.918   0.995  0.2670 -0.6721 -0.6737
 2308SOL    HW2 7824   1.731   5.034   1.045 -0.6072 -0.2359  0.1478
 2309SOL     OW 7825   0.685   5.550   0.502 -0.0305  0.5014  0.2836
 2309SOL    HW1 7826   0.762   5.598   0.460  0.6711 -0.5758  0.2817
 2309SOL    HW2 7827   0.659   5.595   0.586 -1.2362  2.5163 -1.0865
 2310SOL     OW 7828   3.316   4.961   1.032 -0.1334 -0.6215 -0.0786
 2310SOL    HW1 7829   3.395   4.977   1.092 -0.6781 -1.1363  0.7979
 2310SOL    HW2 7830   3.234   5.001   1.074 -0.5333 -1.0437 -0.4477
 2311SOL     OW 7831   2.035   0.277   3.291 -0.3059 -0.5084 -0.3819
 2311SOL    HW1 7832   2.105   0.347   3.282 -1.4106  0.8270  0.9488
 2311SOL    HW2 7833   2.077   0.186   3.282  1.2147  0.2704 -1.7083
 2312SOL     OW 7834   3.066   1.000   4.033 -0.4830 -0.5001  0.1727
 2312SOL    HW1 7835   3.126   0.933   4.077  0.1001 -0.6496 -0.8203
 2312SOL    HW2 7836   3.034   1.066   4.101 -0.0507 -1.0518  0.9220
 2313SOL     OW 7837   4.642   0.169   1.762  0.3372  0.1705  0.1616
 2313SOL    HW1 7838   4.578   0.232   1.806 -1.4425 -1.1563 -0.4092
 2313SOL    HW2 7839   4.681   0.109   1.831  0.3225  0.4360  0.4065
 2314SOL     OW 7840   6.211   0.206   5.774 -0.5855  0.4748  0.2862
 2314SOL    HW1 7841   6.254   0.139   5.835 -1.6825 -1.1967 -0.6975
 2314SOL    HW2 7842   6.236   0.298   5.803 -0.1377 -0.2954  2.5336
 2315SOL     OW 7843   5.148   3.578   4.582 -0.6431  0.1817 -0.3903
 2315SOL    HW1 7844   5.083   3.602   4.654 -1.4649  1.0507 -1.3880
 2315SOL    HW2 7845   5.114   3.498   4.532  0.5027 -1.1570  0.8848
 2316SOL     OW 7846   2.955   1.835   5.634  0.6523 -0.1675  0.3189
 2316SOL    HW1 7847   3.035   1.810   5.580  0.5477  0.3636 -0.0966
 2316SOL    HW2 7848   2.899   1.754   5.652  0.1288 -0.1977 -1.2999
 2317SOL     OW 7849   0.465   5.025   2.394  0.1002 -0.1596  0.0737
 2317SOL    HW1 7850   0.436   5.113   2.357  0.3240 -0.2044 -0.2129
 2317SOL    HW2 7851   0.530   4.983   2.331  0.2566 -0.3723  0.3794
 2318SOL     OW 7852   1.611   3.172   5.284  0.2689  0.1774 -1.0135
 2318SOL    HW1 7853   1.643   3.087   5.242 -0.3976  0.5620 -2.3266
 2318SOL    HW2 7854   1.679   3.244   5.269  1.1050 -0.2138  0.5883
 2319SOL     OW 7855   2.479   6.048   4.307 -0.0301  0.1232 -0.5477
 2319SOL    HW1 7856   2.411   5.989   4.349  2.0393  0.4724  3.8269
 2319SOL    HW2 7857   2.546   5.992   4.258 -1.2320 -0.5539 -1.4480
 2320SOL     OW 7858   0.697   2.450   4.977 -0.2829 -0.0801  0.0372
 2320SOL    HW1 7859   0.738   2.509   5.048 -0.9433 -1.1000  1.3048
 2320SOL    HW2 7860   0.670   2.506   4.899 -0.2006  1.1995  0.8931
 2321SOL     OW 7861   2.575   6.319   0.999  0.1467 -0.1614  0.5739
 2321SOL    HW1 7862   2.609   6.293   1.089 -1.2686 -1.3635  0.8059
 2321SOL    HW2 7863   2.578   6.239   0.938 -1.2227 -0.0361  0.3050
 2322SOL     OW 7864   2.085   1.295   4.064 -0.2096 -0.1717  0.2694
 2322SOL    HW1 7865   2.146   1.360   4.108 -0.7499  0.5243  0.0078
 2322SOL    HW2 7866   2.136   1.242   3.996 -0.2006  1.5153 -1.1083
 2323SOL     OW 7867   2.427   0.418   1.369 -0.6308  0.6070 -0.3570
 2323SOL    HW1 7868   2.377   0.489   1.419 -1.0444  0.8590 -1.1093
 2323SOL    HW2 7869   2.364   0.344   1.346 -0.4243  0.4594 -0.4471
 2324SOL     OW 7870   5.988   6.063   2.177 -0.2582  0.3957 -0.5025
 2324SOL    HW1 7871   5.954   6.018   2.094 -1.7305  0.1417  0.2114
 2324SOL    HW2 7872   5.943   6.151   2.188  1.4677  1.4048 -1.0504
 2325SOL     OW 7873   1.592   5.272   0.001 -0.0015  0.5517 -0.1810
 2325SOL    HW1 7874   1.638   5.187   0.029 -1.3532  0.0608  0.6187
 2325SOL    HW2 7875   1.576   5.269  -0.098 -1.1854 -0.7295  0.0206
 2326SOL     OW 7876   6.458   6.601   5.851  0.3684 -0.3719 -0.0656
 2326SOL    HW1 7877   6.455   6.509   5.811  0.0946 -0.8255  0.9550
 2326SOL    HW2 7878   6.461   6.593   5.951 -3.9024  0.7217  0.3361
 2327SOL     OW 7879   5.781   1.987   2.881  0.0991  0.0516  0.0736
 2327SOL    HW1 7880   5.685   1.984   2.909  0.2936  0.4607  0.8031
 2327SOL    HW2 7881   5.788   1.960   2.785 -0.4172 -3.1418  0.7955
 2328SOL     OW 7882   3.025   2.220   3.661  0.0013 -0.6110 -0.2902
 2328SOL    HW1 7883   2.938   2.268   3.652  0.9174  1.1306 -0.1530
 2328SOL    HW2 7884   3.040   2.195   3.757 -0.4376 -1.1543 -0.3523
 2329SOL     OW 7885   2.368   5.768   3.112 -0.5227 -0.9358  0.3591
 2329SOL    HW1 7886   2.392   5.837   3.179 -2.1669 -2.3716  2.5556
 2329SOL    HW2 7887   2.370   5.808   3.020 -0.9824  1.8882  1.4870
 2330SOL     OW 7888   1.395   5.162   1.216 -0.4753 -0.2905  0.9646
 2330SOL    HW1 7889   1.325   5.142   1.285 -0.9237 -2.9094 -0.1414
 2330SOL    HW2 7890   1.456   5.083   1.207  1.3638  1.1403  0.3995
 2331SOL     OW 7891   2.926   5.875   1.441 -0.2821 -0.1453 -0.3253
 2331SOL    HW1 7892   2.970   5.787   1.454 -1.4291 -0.4964  1.5204
 2331SOL    HW2 7893   2.830   5.862   1.417 -0.8467  0.5450  1.3886
 2332SOL     OW 7894   5.848   2.630   5.349 -0.1583  0.5028  0.0690
 2332SOL    HW1 7895   5.767   2.670   5.305 -0.7288  1.1763  1.6581
 2332SOL    HW2 7896   5.911   2.704   5.373 -0.9956  0.4886  2.5929
 2333SOL     OW 7897   0.379   5.694   2.042  0.8667 -0.2850  0.1139
 2333SOL    HW1 7898   0.428   5.715   1.958  1.1926  1.5984  0.7104
 2333SOL    HW2 7899   0.307   5.627   2.024  2.9014 -2.2960 -1.0027
 2334SOL     OW 7900   2.122   6.903   5.543 -0.6409 -0.5023  0.1975
 2334SOL    HW1 7901   2.177   6.869   5.619  0.6711 -0.3813 -0.6633
 2334SOL    HW2 7902   2.150   6.997   5.521 -0.3859 -0.8474 -1.0053
 2335SOL     OW 7903   6.968   0.784   4.089  0.3943 -0.2620  0.4437
 2335SOL    HW1 7904   6.964   0.798   3.991  0.4268 -1.7550  0.2010
 2335SOL    HW2 7905   7.026   0.853   4.131  1.5115 -0.4312 -0.7711
 2336SOL     OW 7906   4.948   2.168   5.945  0.4807  0.5656  0.3118
 2336SOL    HW1 7907   4.963   2.112   6.026 -1.7064 -0.6917 -0.0846
 2336SOL    HW2 7908   4.863   2.220   5.955 -0.0073  0.1256 -1.3101
 2337SOL     OW 7909   5.208   2.283   2.550 -0.2420 -0.0220  0.0407
 2337SOL    HW1 7910   5.174   2.211   2.611 -0.0378  0.2121  0.4302
 2337SOL    HW2 7911   5.171   2.268   2.458 -0.3230 -0.5372  0.1539
 2338SOL     OW 7912   1.583   2.191   5.855 -0.2662  0.2073  0.3167
 2338SOL    HW1 7913   1.642   2.268   5.880  1.3260 -0.6777 -0.5614
 2338SOL    HW2 7914   1.593   2.118   5.922 -0.1514 -0.0567  0.0153
 2339SOL     OW 7915   4.538   3.434   5.873 -0.4636 -0.3662 -0.3422
 2339SOL    HW1 7916   4.471   3.508   5.864 -0.8863 -0.5405  1.1476
 2339SOL    HW2 7917   4.509   3.357   5.816 -0.4554  0.2923 -1.2631
 2340SOL     OW 7918   4.893   5.414   1.158 -0.3310  0.4951  0.1666
 2340SOL    HW1 7919   4.976   5.362   1.137 -0.4377  0.0505  0.8374
 2340SOL    HW2 7920   4.917   5.511   1.167  0.5045  0.1504  2.3304
 2341SOL     OW 7921   6.429   3.654   2.429  0.0346 -0.5874 -0.2443
 2341SOL    HW1 7922   6.477   3.568   2.410  1.8127  0.0613  1.0712
 2341SOL    HW2 7923   6.492   3.719   2.471 -1.4679  1.1195 -0.5017
 2342SOL     OW 7924   6.573   0.760   5.270 -0.3332  0.5650  0.6122
 2342SOL    HW1 7925   6.476   0.785   5.264 -0.2198  1.3487  1.7108
 2342SOL    HW2 7926   6.588   0.704   5.352  0.0528 -0.0227  0.1455
 2343SOL     OW 7927   3.851   6.694   1.669  0.1739 -0.3426 -0.5603
 2343SOL    HW1 7928   3.914   6.631   1.623 -0.0532 -0.0211 -1.3362
 2343SOL    HW2 7929   3.766   6.699   1.617  0.0895  0.4030 -0.3654
 2344SOL     OW 7930   3.516   6.294   0.129 -0.2372 -0.0336  0.2393
 2344SOL    HW1 7931   3.558   6.212   0.169 -0.8709 -1.5889 -2.1243
 2344SOL    HW2 7932   3.579   6.372   0.140  0.9199 -1.0822  1.4078
 2345SOL     OW 7933   3.218   6.000   2.977  0.5299  0.2886  0.4746
 2345SOL    HW1 7934   3.252   6.091   2.956  1.3228 -0.3304 -1.0692
 2345SOL    HW2 7935   3.179   5.959   2.895  0.5174 -0.8985  1.0513
 2346SOL     OW 7936   3.696   0.054   6.130  0.3170 -0.5515  0.0109
 2346SOL    HW1 7937   3.621  -0.008   6.103 -0.6691  0.9226 -0.7614
 2346SOL    HW2 7938   3.658   0.134   6.177  1.4756 -0.0476  0.1220
 2347SOL     OW 7939   5.036   2.732   0.933  0.1577 -0.3326 -0.6504
 2347SOL    HW1 7940   4.956   2.771   0.979  0.9031  0.8377 -0.3013
 2347SOL    HW2 7941   5.018   2.722   0.835 -1.5067 -2.9849 -0.1781
 2348SOL     OW 7942   5.068   0.061   2.278  0.1922  0.7447  0.4529
 2348SOL    HW1 7943   4.983   0.073   2.226  0.0989 -0.8362  0.1720
 2348SOL    HW2 7944   5.050   0.078   2.375 -0.4212  0.5851  0.3770
 2349SOL     OW 7945   6.727   4.816   4.615  0.3596  0.1973 -0.6730
 2349SOL    HW1 7946   6.708   4.723   4.645 -0.6250  0.2168 -1.2078
 2349SOL    HW2 7947   6.678   4.835   4.530  0.7929  1.1029 -0.7397
 2350SOL     OW 7948   5.911   5.988   0.848  0.3222  0.0311  0.1805
 2350SOL    HW1 7949   5.972   6.004   0.926 -0.0647 -0.8803  0.6937
 2350SOL    HW2 7950   5.849   5.913   0.870  0.1565 -0.1915 -0.9888
 2351SOL     OW 7951   2.694   4.703   3.218 -0.4028 -0.4827 -0.4406
 2351SOL    HW1 7952   2.665   4.668   3.129 -0.5723  1.1746 -1.0601
 2351SOL    HW2 7953   2.730   4.795   3.208 -0.6065 -0.1938  1.2416
 2352SOL     OW 7954   6.879   3.975   0.075  0.0363  0.0437  0.6924
 2352SOL    HW1 7955   6.966   3.939   0.042 -0.5985  0.7440 -2.0137
 2352SOL    HW2 7956   6.885   4.075   0.080 -0.1811  0.0011  1.8923
 2353SOL     OW 7957   3.220   4.760   5.297 -0.2351  0.0188  1.2040
 2353SOL    HW1 7958   3.158   4.681   5.291  0.0500 -0.1120 -3.0666
 2353SOL    HW2 7959   3.166   4.843   5.312 -1.0652 -0.4647  0.9683
 2354SOL     OW 7960   1.916   6.914   4.585  0.4298 -0.0516 -0.0188
 2354SOL    HW1 7961   1.916   6.819   4.553  0.6005 -0.3041  0.7098
 2354SOL    HW2 7962   1.954   6.918   4.678  0.8050  0.7820 -0.1942
 2355SOL     OW 7963   1.188   6.162   6.892 -0.6934 -0.2894  0.0462
 2355SOL    HW1 7964   1.098   6.119   6.887 -1.0789  0.5841 -0.9805
 2355SOL    HW2 7965   1.202   6.202   6.982 -1.9044  0.7225 -0.1859
 2356SOL     OW 7966   1.952   2.019   0.825  0.2921 -0.4202  0.0262
 2356SOL    HW1 7967   2.000   1.963   0.759 -1.0825 -2.7037  0.8218
 2356SOL    HW2 7968   1.863   2.045   0.788  0.8028  1.0478 -0.2203
 2357SOL     OW 7969   5.133   0.744   3.622  0.3652 -0.3339  0.5908
 2357SOL    HW1 7970   5.063   0.694   3.571  0.3004  0.4998 -0.1615
 2357SOL    HW2 7971   5.191   0.794   3.559 -0.6884  2.0204  1.3507
 2358SOL     OW 7972   4.709   5.062   5.444 -0.5827  0.6310  0.0711
 2358SOL    HW1 7973   4.718   4.963   5.436  0.2042  0.5924  1.2547
 2358SOL    HW2 7974   4.776   5.107   5.386 -0.4453  0.4590  0.0976
 2359SOL     OW 7975   6.772   5.395   4.724  0.3256  0.0901 -0.9012
 2359SOL    HW1 7976   6.742   5.305   4.691 -0.0101 -0.6957  1.3551
 2359SOL    HW2 7977   6.698   5.461   4.714 -1.3627 -1.1779  2.1230
 2360SOL     OW 7978   5.377   4.968   0.726 -0.2442  0.0775 -0.4515
 2360SOL    HW1 7979   5.311   4.947   0.798  1.3338 -0.0886  1.0078
 2360SOL    HW2 7980   5.337   4.948   0.636 -1.4617 -1.9221  0.4840
 2361SOL     OW 7981   3.219   1.374   4.519  0.8200 -0.3687 -0.0960
 2361SOL    HW1 7982   3.158   1.453   4.510  1.3804  0.0001 -0.8357
 2361SOL    HW2 7983   3.254   1.349   4.429  0.1928 -1.8576  0.0425
 2362SOL     OW 7984   3.569   0.587   4.476 -0.5573  0.6481  0.0569
 2362SOL    HW1 7985   3.552   0.578   4.378 -1.3702 -0.2471  0.2687
 2362SOL    HW2 7986   3.590   0.682   4.497 -1.7546  1.1151 -0.7802
 2363SOL     OW 7987   2.870   3.387   5.174  0.1553  0.5969 -0.3280
 2363SOL    HW1 7988   2.927   3.315   5.212  0.6132  1.0898 -0.0724
 2363SOL    HW2 7989   2.850   3.455   5.245 -0.5419  0.5628 -0.4794
 2364SOL     OW 7990   1.302   2.704   2.835 -0.6012  0.1464 -0.0658
 2364SOL    HW1 7991   1.341   2.752   2.757 -1.4437  0.6042 -0.2213
 2364SOL    HW2 7992   1.346   2.736   2.919  0.2349 -0.2736 -0.3351
 2365SOL     OW 7993   6.041   3.638   0.118  0.7019  0.0732  0.4343
 2365SOL    HW1 7994   5.970   3.705   0.136  1.9565  1.6858 -0.3436
 2365SOL    HW2 7995   6.000   3.547   0.111 -0.9720  0.6421  2.0450
 2366SOL     OW 7996   0.809   5.108   6.971 -0.4932  0.1408 -0.4526
 2366SOL    HW1 7997   0.826   5.020   7.015 -0.8956  0.5375  0.5284
 2366SOL    HW2 7998   0.879   5.125   6.902  1.1571  0.2246  1.1524
 2367SOL     OW 7999   2.430   3.371   0.241 -0.1178  0.3704  0.2417
 2367SOL    HW1 8000   2.417   3.470   0.236 -0.4647  0.4373  1.9063
 2367SOL    HW2 8001   2.513   3.351   0.293 -0.4568 -0.2163  0.5677
 2368SOL     OW 8002   2.210   0.902   4.150  0.5482  0.0866  0.2599
 2368SOL    HW1 8003   2.140   0.865   4.212  1.1428 -0.4071  0.6489
 2368SOL    HW2 8004   2.254   0.981   4.192  2.2872 -1.3895  1.3541
 2369SOL     OW 8005   0.918   3.066   6.191 -0.1232  0.0831 -0.0936
 2369SOL    HW1 8006   0.989   3.064   6.261  0.7021 -3.1461 -0.8893
 2369SOL    HW2 8007   0.830   3.044   6.233 -0.0170  0.2813  0.2436
 2370SOL     OW 8008   4.833   6.222   0.265  0.1583  0.4290 -0.1904
 2370SOL    HW1 8009   4.855   6.250   0.358 -3.4836  4.1131 -0.1875
 2370SOL    HW2 8010   4.741   6.185   0.262  0.1619  0.4714 -2.3764
 2371SOL     OW 8011   0.837   6.709   2.749  0.1639  0.0780 -0.1211
 2371SOL    HW1 8012   0.841   6.767   2.667 -0.7827  2.4722  1.4122
 2371SOL    HW2 8013   0.745   6.673   2.760 -0.1774  1.1480  0.7254
 2372SOL     OW 8014   6.872   2.358   0.174 -0.2440 -0.7237  0.5594
 2372SOL    HW1 8015   6.879   2.456   0.195  1.3862 -0.2816 -1.6435
 2372SOL    HW2 8016   6.908   2.305   0.251  2.7421  0.6266  0.2245
 2373SOL     OW 8017   6.543   6.142   0.811 -0.0809 -0.0187 -0.2562
 2373SOL    HW1 8018   6.632   6.157   0.855 -0.8352 -0.5277  1.5036
 2373SOL    HW2 8019   6.558   6.117   0.715  1.6094  1.1087 -0.3293
 2374SOL     OW 8020   5.212   1.272   4.055 -0.4979  0.2662  0.0489
 2374SOL    HW1 8021   5.219   1.206   3.980 -1.7828  1.0163 -0.7857
 2374SOL    HW2 8022   5.244   1.361   4.024  0.2460  0.2800  0.8344
 2375SOL     OW 8023   1.461   5.043   4.484 -0.4714  0.6534  0.3056
 2375SOL    HW1 8024   1.545   5.087   4.450 -0.7283  0.3608 -0.7481
 2375SOL    HW2 8025   1.390   5.111   4.495 -0.0440  0.9376  1.4008
 2376SOL     OW 8026   1.056   0.978   4.266 -0.0118 -0.5484  0.0513
 2376SOL    HW1 8027   0.992   0.960   4.341  0.5220 -0.2994  0.5672
 2376SOL    HW2 8028   1.143   0.934   4.284  0.2769 -0.0890 -0.1972
 2377SOL     OW 8029   4.009   3.120   3.293  0.3237  0.3145 -0.3123
 2377SOL    HW1 8030   4.049   3.210   3.278 -0.5443  0.5557 -1.2852
 2377SOL    HW2 8031   3.986   3.078   3.205  0.6011 -0.8084  0.1300
 2378SOL     OW 8032   3.023   1.113   5.028  0.7581 -0.1920 -0.0839
 2378SOL    HW1 8033   3.049   1.050   4.954 -0.5038  0.6158 -1.2525
 2378SOL    HW2 8034   2.990   1.199   4.989 -0.7322 -0.0481  1.3863
 2379SOL     OW 8035   5.969   3.087   6.716 -0.5569 -0.3896 -0.5421
 2379SOL    HW1 8036   5.932   3.108   6.807  1.2253  1.5629 -0.1998
 2379SOL    HW2 8037   5.922   3.006   6.679 -1.9761 -0.6761  1.6871
 2380SOL     OW 8038   0.331   6.830   5.201 -0.8611  0.3225 -0.0931
 2380SOL    HW1 8039   0.314   6.753   5.262 -1.3252  0.2089 -0.3571
 2380SOL    HW2 8040   0.347   6.913   5.254  3.5633 -0.6043  0.4030
 2381SOL     OW 8041   2.208   4.307   5.071  0.3473 -0.0646 -0.1374
 2381SOL    HW1 8042   2.237   4.214   5.047  0.7746  0.2370 -0.8179
 2381SOL    HW2 8043   2.148   4.303   5.150 -0.2710 -1.0001 -0.6286
 2382SOL     OW 8044   1.920   3.734   4.303  0.3082  0.1407 -0.0950
 2382SOL    HW1 8045   2.016   3.763   4.313  0.6515 -0.0851 -2.3066
 2382SOL    HW2 8046   1.904   3.705   4.209 -1.1573 -2.7338  0.9389
 2383SOL     OW 8047   5.738   5.974   0.012 -0.1938 -0.0264 -0.0977
 2383SOL    HW1 8048   5.767   5.971  -0.084 -0.5653 -0.2375 -0.2073
 2383SOL    HW2 8049   5.716   5.881   0.043  0.4608 -0.0346  0.3633
 2384SOL     OW 8050   5.514   6.193   2.596 -0.6012  0.2363 -0.3603
 2384SOL    HW1 8051   5.560   6.234   2.674  1.6962  0.3651 -1.7067
 2384SOL    HW2 8052   5.478   6.265   2.537 -2.3240  0.1396  0.5083
 2385SOL     OW 8053   0.962   6.480   1.365 -0.1671 -0.0910  0.1027
 2385SOL    HW1 8054   0.925   6.507   1.276 -2.6169 -1.7901  0.4831
 2385SOL    HW2 8055   0.925   6.539   1.436  1.3626  0.9197  0.1107
 2386SOL     OW 8056   5.949   1.209   3.729  0.5614  0.1488 -0.5096
 2386SOL    HW1 8057   5.928   1.282   3.664 -1.5333 -0.5227 -0.6610
 2386SOL    HW2 8058   5.933   1.120   3.685 -1.3994 -0.3120  1.0090
 2387SOL     OW 8059   1.827   0.985   3.497  0.2929  0.3289 -0.4326
 2387SOL    HW1 8060   1.924   0.975   3.517  0.5688 -0.4276 -1.9639
 2387SOL    HW2 8061   1.791   1.067   3.541  1.1205 -0.4687  1.8611
 2388SOL     OW 8062   2.124   0.911   6.127 -0.4562 -0.2094  0.1610
 2388SOL    HW1 8063   2.038   0.922   6.077 -0.0550 -1.6448 -0.9563
 2388SOL    HW2 8064   2.168   0.826   6.097  1.9564  1.0986 -0.2273
 2389SOL     OW 8065   5.764   3.798   3.361 -0.4759  0.0611 -0.6776
 2389SOL    HW1 8066   5.697   3.762   3.296  0.0600  0.1424 -1.2930
 2389SOL    HW2 8067   5.820   3.867   3.315 -0.0597  0.0875 -0.1342
 2390SOL     OW 8068   3.283   3.262   2.917 -0.0873 -0.0099 -0.1889
 2390SOL    HW1 8069   3.373   3.294   2.888 -0.1359  0.4055  0.1193
 2390SOL    HW2 8070   3.246   3.200   2.847  1.3386 -1.9037  0.6634
 2391SOL     OW 8071   6.748   0.585   6.327  0.2111  0.5295 -0.5613
 2391SOL    HW1 8072   6.662   0.559   6.371  0.2551  0.0317 -0.7734
 2391SOL    HW2 8073   6.808   0.629   6.395  0.2053 -0.0677 -0.1594
 2392SOL     OW 8074   2.077   5.508   4.609  0.1441 -0.2069 -0.2516
 2392SOL    HW1 8075   2.145   5.566   4.653  0.7618 -2.2623  1.7031
 2392SOL    HW2 8076   2.121   5.427   4.571 -1.0899 -1.3792  0.6857
 2393SOL     OW 8077   5.275   5.015   5.652  0.0446 -0.4129  0.1088
 2393SOL    HW1 8078   5.273   5.079   5.729 -2.0241 -0.0045 -0.2234
 2393SOL    HW2 8079   5.369   4.984   5.637  0.5410 -0.3776  2.6693
 2394SOL     OW 8080   1.990   4.459   3.702 -0.2689 -0.1956 -0.3237
 2394SOL    HW1 8081   1.905   4.408   3.717  0.4034 -0.8988  1.3796
 2394SOL    HW2 8082   2.048   4.411   3.637 -1.2036  0.3608 -1.6082
 2395SOL     OW 8083   4.782   3.158   0.060  0.2184 -0.6039  1.0895
 2395SOL    HW1 8084   4.863   3.116   0.020  1.2183  1.0993  1.2386
 2395SOL    HW2 8085   4.808   3.213   0.140 -1.1812 -0.5959  1.5784
 2396SOL     OW 8086   3.008   0.146   0.244 -0.0138 -0.2874 -0.3151
 2396SOL    HW1 8087   3.057   0.131   0.158  0.0175  2.5939 -0.8971
 2396SOL    HW2 8088   3.067   0.195   0.308 -1.1585  0.6319  0.0604
 2397SOL     OW 8089   1.196   4.557   0.318  0.0860 -0.8481 -0.4987
 2397SOL    HW1 8090   1.179   4.486   0.386 -1.0676 -0.5287 -0.4279
 2397SOL    HW2 8091   1.185   4.519   0.226  3.4898 -1.7780 -0.6807
 2398SOL     OW 8092   4.256   5.661   4.568 -0.3055  0.6888 -0.0054
 2398SOL    HW1 8093   4.214   5.617   4.489 -0.4475  2.0445 -0.7115
 2398SOL    HW2 8094   4.211   5.629   4.651  1.0489 -2.1802 -0.2498
 2399SOL     OW 8095   4.482   1.967   3.767  0.2555  0.2965 -0.2779
 2399SOL    HW1 8096   4.482   1.943   3.864 -0.3476 -1.7142 -0.7314
 2399SOL    HW2 8097   4.522   1.892   3.714 -1.9464  0.1235 -1.8267
 2400SOL     OW 8098   2.660   4.226   0.603 -0.2532  0.1214 -0.0656
 2400SOL    HW1 8099   2.566   4.214   0.636  0.3720 -0.6120  1.5616
 2400SOL    HW2 8100   2.662   4.301   0.536 -2.1806 -0.6392 -1.0758
 2401SOL     OW 8101   5.049   6.338   6.479 -0.6431 -0.4854  0.0459
 2401SOL    HW1 8102   5.092   6.428   6.484  1.0586 -1.2720  0.6318
 2401SOL    HW2 8103   4.961   6.340   6.525  0.4627  0.3360  2.2764
 2402SOL     OW 8104   6.745   1.261   6.283 -0.6461  0.5664 -0.1891
 2402SOL    HW1 8105   6.726   1.254   6.185 -0.4287 -2.0259 -0.1159
 2402SOL    HW2 8106   6.843   1.251   6.298 -0.8281 -0.5642  0.3538
 2403SOL     OW 8107   3.787   1.632   1.150 -0.3391  0.2160 -0.5899
 2403SOL    HW1 8108   3.788   1.533   1.167  2.4391  0.5109  1.7227
 2403SOL    HW2 8109   3.806   1.680   1.235 -0.5102  2.7298 -1.8940
 2404SOL     OW 8110   5.639   0.614   0.781 -0.2193 -0.2938 -0.1248
 2404SOL    HW1 8111   5.633   0.557   0.862  2.7481 -1.7671 -0.7780
 2404SOL    HW2 8112   5.602   0.564   0.702 -0.3609 -0.1033 -0.1784
 2405SOL     OW 8113   4.137   3.296   5.045 -0.0770 -0.0021  0.3785
 2405SOL    HW1 8114   4.220   3.256   5.086 -0.8187 -1.6723  0.3203
 2405SOL    HW2 8115   4.056   3.261   5.092 -0.8128  0.8778 -0.1899
 2406SOL     OW 8116   2.052   2.191   2.717 -0.3160  0.0069  0.0869
 2406SOL    HW1 8117   1.969   2.177   2.663 -0.5514 -0.0518  0.4614
 2406SOL    HW2 8118   2.120   2.123   2.691 -0.4532 -0.0650 -0.0870
 2407SOL     OW 8119   1.415   2.356   3.908  0.0476  0.5628  0.2166
 2407SOL    HW1 8120   1.498   2.411   3.899 -0.2444  1.1155  0.8010
 2407SOL    HW2 8121   1.350   2.403   3.968 -0.1496 -0.4882  0.8606
 2408SOL     OW 8122   5.521   5.426   5.956 -0.3179 -0.2038  0.1960
 2408SOL    HW1 8123   5.473   5.375   6.028 -1.0533 -1.4252 -1.0965
 2408SOL    HW2 8124   5.462   5.431   5.875  0.4419  1.2494 -0.2962
 2409SOL     OW 8125   1.869   2.635   1.670 -0.2001  0.6054 -0.6142
 2409SOL    HW1 8126   1.820   2.549   1.656  2.3096 -0.9980 -0.2559
 2409SOL    HW2 8127   1.914   2.661   1.584 -0.2112  1.0524 -0.4830
 2410SOL     OW 8128   4.024   1.139   1.406 -0.0515  0.0307 -0.5818
 2410SOL    HW1 8129   3.942   1.121   1.462 -0.1208  2.8764  0.3736
 2410SOL    HW2 8130   4.106   1.117   1.460 -0.1399 -0.7515 -0.7508
 2411SOL     OW 8131   4.608   3.489   6.734  0.5999 -0.0551  0.2063
 2411SOL    HW1 8132   4.659   3.496   6.820  1.1976  1.9154 -0.2725
 2411SOL    HW2 8133   4.576   3.579   6.707 -0.3340 -0.7823 -1.2268
 2412SOL     OW 8134   4.794   5.601   1.811  0.3426  0.4620 -0.1602
 2412SOL    HW1 8135   4.867   5.655   1.770  2.8260 -0.7021  2.3452
 2412SOL    HW2 8136   4.827   5.508   1.827 -2.3445 -0.6287 -0.4865
 2413SOL     OW 8137   1.679   2.129   0.781  0.2752  0.0634  0.1827
 2413SOL    HW1 8138   1.670   2.081   0.694 -3.2795  1.6887 -0.5367
 2413SOL    HW2 8139   1.636   2.219   0.774  1.4567  0.9743  3.1475
 2414SOL     OW 8140   5.089   3.281   1.700 -0.1234  0.1273 -0.4260
 2414SOL    HW1 8141   5.178   3.246   1.728  1.2171  2.1661 -1.8682
 2414SOL    HW2 8142   5.028   3.284   1.780  1.3708 -0.4499  0.7882
 2415SOL     OW 8143   6.785   0.328   3.190 -0.0530 -0.0946  0.6116
 2415SOL    HW1 8144   6.803   0.230   3.197 -0.4385 -0.2468 -0.3802
 2415SOL    HW2 8145   6.866   0.374   3.154 -0.2816 -0.2240 -0.0779
 2416SOL     OW 8146   3.293   2.566   5.375  0.2231  0.9063 -0.1755
 2416SOL    HW1 8147   3.254   2.649   5.334  2.8336  0.7867 -3.3463
 2416SOL    HW2 8148   3.273   2.487   5.317  1.3301  0.0889  0.5110
 2417SOL     OW 8149   4.338   1.928   6.212  0.5562 -0.1588 -0.1607
 2417SOL    HW1 8150   4.381   2.018   6.202  1.7783 -0.8656 -1.9103
 2417SOL    HW2 8151   4.353   1.876   6.128 -1.3899 -1.4803  0.2743
 2418SOL     OW 8152   3.789   4.095   4.332  0.6076 -0.1264  0.1792
 2418SOL    HW1 8153   3.846   4.106   4.250 -0.0437  0.9927 -0.1505
 2418SOL    HW2 8154   3.846   4.067   4.409  1.5246  0.4569 -0.2677
 2419SOL     OW 8155   0.501   5.220   3.635 -0.4363  0.4011 -0.4982
 2419SOL    HW1 8156   0.463   5.224   3.728 -1.2484  1.2557 -0.8533
 2419SOL    HW2 8157   0.599   5.238   3.639 -0.2321 -0.7540  0.3107
 2420SOL     OW 8158   2.480   2.654   1.493 -0.2543  0.2723 -0.0887
 2420SOL    HW1 8159   2.528   2.567   1.510 -0.1552  0.7297  2.4203
 2420SOL    HW2 8160   2.481   2.674   1.395 -0.4208 -2.6066 -0.7794
 2421SOL     OW 8161   1.913   1.205   5.499 -0.3810 -0.0425 -0.4149
 2421SOL    HW1 8162   1.856   1.278   5.461 -1.1873 -0.5967 -0.2809
 2421SOL    HW2 8163   1.857   1.143   5.553  0.1061 -1.3818 -1.3999
 2422SOL     OW 8164   0.309   6.837   2.834  0.0387  0.3726 -0.3912
 2422SOL    HW1 8165   0.343   6.774   2.904  0.9406  0.8722 -0.3736
 2422SOL    HW2 8166   0.331   6.802   2.743 -0.1822  0.2624 -0.4039
 2423SOL     OW 8167   0.972   5.978   2.796 -0.4544  0.2708 -0.1200
 2423SOL    HW1 8168   1.064   5.943   2.813 -0.7924 -0.8538 -0.4817
 2423SOL    HW2 8169   0.919   5.974   2.880 -0.8435 -1.2632 -0.4026
 2424SOL     OW 8170   6.178   6.285   6.579 -0.5844  0.0042  0.6294
 2424SOL    HW1 8171   6.200   6.339   6.498 -1.0434  1.5793  1.5077
 2424SOL    HW2 8172   6.243   6.210   6.588  1.7815  1.9514  0.7820
 2425SOL     OW 8173   3.595   6.950   4.617  0.1151  0.4070 -0.1343
 2425SOL    HW1 8174   3.587   7.000   4.703  1.4819 -0.2346  0.4077
 2425SOL    HW2 8175   3.550   7.000   4.544  1.2852  2.3544  0.4095
 2426SOL     OW 8176   1.359   0.120   4.346  0.4985  0.1232 -0.3976
 2426SOL    HW1 8177   1.433   0.168   4.392  0.6631 -1.1336  0.7068
 2426SOL    HW2 8178   1.395   0.042   4.295 -0.0427 -0.5422  0.2037
 2427SOL     OW 8179   6.224   4.564   0.460 -0.3872 -0.4471  0.0784
 2427SOL    HW1 8180   6.192   4.645   0.509  1.0332  0.1808  0.0111
 2427SOL    HW2 8181   6.292   4.516   0.515  0.6450 -0.1692 -0.9051
 2428SOL     OW 8182   0.030   6.944   3.538 -0.1306  0.9657 -0.1163
 2428SOL    HW1 8183   0.017   7.020   3.475 -0.4497  1.7312  0.8509
 2428SOL    HW2 8184  -0.054   6.931   3.592  0.2937  0.6380  0.4746
 2429SOL     OW 8185   4.899   5.382   5.120 -0.2689 -0.3194  0.2602
 2429SOL    HW1 8186   4.823   5.373   5.056  0.7808 -1.5245 -0.8735
 2429SOL    HW2 8187   4.903   5.476   5.155  0.3087  0.9920 -3.0042
 2430SOL     OW 8188   1.187   2.475   5.864  0.0559  0.1322  0.4493
 2430SOL    HW1 8189   1.224   2.436   5.948 -1.1971 -1.5690  0.2795
 2430SOL    HW2 8190   1.090   2.499   5.878  0.5006  2.3050  0.2246
 2431SOL     OW 8191   2.024   0.142   1.265 -0.3497  0.3453  0.8078
 2431SOL    HW1 8192   1.953   0.084   1.226  0.7177 -1.2779  1.1851
 2431SOL    HW2 8193   2.107   0.135   1.210  0.6990 -0.7954  2.4425
 2432SOL     OW 8194   3.938   6.737   1.919  0.8243 -0.1709  0.4479
 2432SOL    HW1 8195   3.916   6.660   1.980 -0.2900  0.4719  0.8844
 2432SOL    HW2 8196   3.905   6.716   1.827  2.0959 -0.9473  0.1476
 2433SOL     OW 8197   1.806   0.902   2.702 -0.0154 -0.3071 -0.3526
 2433SOL    HW1 8198   1.715   0.939   2.722  0.6662  0.1479  2.2691
 2433SOL    HW2 8199   1.867   0.976   2.674  0.2006 -0.1720  0.4615
 2434SOL     OW 8200   4.158   0.905   1.807  0.8656  0.0806 -0.3909
 2434SOL    HW1 8201   4.213   0.839   1.755  1.3294 -0.4353  0.6957
 2434SOL    HW2 8202   4.165   0.995   1.766  2.0527 -0.1093 -0.6366
 2435SOL     OW 8203   6.116   5.605   5.457 -0.1115  0.2560 -0.2459
 2435SOL    HW1 8204   6.047   5.636   5.392  0.0841  0.0452 -0.5571
 2435SOL    HW2 8205   6.137   5.508   5.440 -1.0659 -0.1982  1.0176
 2436SOL     OW 8206   1.154   0.436   3.556  0.2678 -0.5332 -0.3110
 2436SOL    HW1 8207   1.119   0.529   3.568 -0.0484 -0.4961 -1.3952
 2436SOL    HW2 8208   1.223   0.435   3.483  0.4763 -1.1033 -0.1166
 2437SOL     OW 8209   3.946   5.854   6.611 -0.2122  0.2145  0.2256
 2437SOL    HW1 8210   4.001   5.862   6.694  0.0280  0.2667  0.0619
 2437SOL    HW2 8211   3.855   5.818   6.635 -0.6230  1.5099  0.6928
 2438SOL     OW 8212   5.025   2.140   0.362  0.3081 -0.0389  0.4205
 2438SOL    HW1 8213   5.055   2.217   0.307  3.2222 -1.4971 -0.2101
 2438SOL    HW2 8214   5.015   2.059   0.304 -1.4453 -0.4829  1.2706
 2439SOL     OW 8215   0.587   3.312   0.284 -0.5065 -0.5595  0.1544
 2439SOL    HW1 8216   0.671   3.310   0.229 -0.6536 -1.7820 -0.0452
 2439SOL    HW2 8217   0.517   3.364   0.236 -0.9534 -2.4110 -1.3415
 2440SOL     OW 8218   3.704   0.335   4.215 -0.1907  0.2121  0.1520
 2440SOL    HW1 8219   3.766   0.406   4.182 -0.2723 -1.0303 -3.0025
 2440SOL    HW2 8220   3.751   0.280   4.284  1.7620  0.2008 -1.0893
 2441SOL     OW 8221   6.277   5.731   6.737 -0.1527  0.0110  0.5295
 2441SOL    HW1 8222   6.295   5.638   6.768  1.2463  0.4704  1.1944
 2441SOL    HW2 8223   6.280   5.734   6.637  0.4443 -0.5427  0.5216
 2442SOL     OW 8224   5.690   6.239   3.060  0.3809 -0.0445 -0.3559
 2442SOL    HW1 8225   5.620   6.245   3.131  1.5301 -2.1178  1.0868
 2442SOL    HW2 8226   5.755   6.166   3.084  2.0382  0.6172 -2.4988
 2443SOL     OW 8227   3.213   0.609   5.963 -0.0599  0.0797  0.2974
 2443SOL    HW1 8228   3.303   0.567   5.958 -0.6075 -1.1639  0.4924
 2443SOL    HW2 8229   3.166   0.578   6.046 -0.5777  0.9129  0.3349
 2444SOL     OW 8230   3.949   5.969   6.088 -0.1594  0.3539 -0.4173
 2444SOL    HW1 8231   3.906   6.059   6.082  0.2324  0.6544  0.8853
 2444SOL    HW2 8232   3.973   5.950   6.183 -0.2527 -1.1488 -0.6705
 2445SOL     OW 8233   6.008   0.270   3.309  0.5819  0.7808 -0.1015
 2445SOL    HW1 8234   6.083   0.318   3.264  1.0139  0.4087  0.2125
 2445SOL    HW2 8235   5.921   0.306   3.275  0.8967  0.9544 -0.7483
 2446SOL     OW 8236   0.115   4.561   4.027 -0.5765 -0.1400  0.2714
 2446SOL    HW1 8237   0.194   4.618   4.048  0.2142 -1.4761  1.0533
 2446SOL    HW2 8238   0.031   4.614   4.041  0.1396  1.3628 -0.7448
 2447SOL     OW 8239   3.974   1.972   5.702  0.0399 -0.1266  0.9420
 2447SOL    HW1 8240   4.029   2.037   5.755  0.2414 -0.2898  0.9347
 2447SOL    HW2 8241   4.016   1.881   5.707  0.9914  0.1652 -0.8197
 2448SOL     OW 8242   0.962   0.768   5.268  0.3757 -0.4358  0.6837
 2448SOL    HW1 8243   0.876   0.722   5.246  0.3070 -0.1972  0.4465
 2448SOL    HW2 8244   0.973   0.848   5.210  1.5528 -1.3679 -0.4228
 2449SOL     OW 8245   1.046   5.380   0.664  0.7390  0.7064 -0.6516
 2449SOL    HW1 8246   1.100   5.314   0.611  0.7636  0.7290 -0.6549
 2449SOL    HW2 8247   1.104   5.457   0.689  1.1895 -0.0769  0.8577
 2450SOL     OW 8248   3.076   5.027   4.958 -0.3179 -0.9831  0.3665
 2450SOL    HW1 8249   3.149   5.016   5.026 -1.3934  1.7660  2.1646
 2450SOL    HW2 8250   2.989   4.999   4.998 -0.5453 -2.5296 -1.1301
 2451SOL     OW 8251   0.651   6.344   3.104  0.6468  0.3155 -0.7857
 2451SOL    HW1 8252   0.728   6.319   3.045  0.9949  1.8760 -1.0248
 2451SOL    HW2 8253   0.565   6.325   3.057  0.8515 -1.3615 -0.5524
 2452SOL     OW 8254   2.206   3.093   3.468  0.1960 -0.0234  1.0305
 2452SOL    HW1 8255   2.121   3.132   3.433  0.2351 -0.6450  0.2292
 2452SOL    HW2 8256   2.284   3.136   3.422  0.3120  0.3241  1.5412
 2453SOL     OW 8257   6.543   4.679   1.077 -0.2244 -0.4481 -0.0807
 2453SOL    HW1 8258   6.574   4.636   0.992  1.0578 -0.7091  0.4925
 2453SOL    HW2 8259   6.462   4.631   1.111  2.2346 -3.8559  1.5690
 2454SOL     OW 8260   3.815   1.500   6.243 -0.2824 -0.3544 -0.2718
 2454SOL    HW1 8261   3.814   1.401   6.255  1.0840 -0.4095 -0.4465
 2454SOL    HW2 8262   3.762   1.543   6.317  1.5933 -1.0763  1.5774
 2455SOL     OW 8263   4.915   6.273   0.020  0.3258 -0.0985  0.1609
 2455SOL    HW1 8264   4.904   6.287   0.118  2.2013 -0.5796  0.4666
 2455SOL    HW2 8265   5.012   6.264  -0.002 -0.0170  0.6306 -1.8354
 2456SOL     OW 8266   1.511   0.509   0.139 -0.7672 -0.9577 -0.2542
 2456SOL    HW1 8267   1.505   0.413   0.111 -1.4570 -0.7175 -0.9794
 2456SOL    HW2 8268   1.590   0.552   0.094  1.4912 -1.9292  2.4923
 2457SOL     OW 8269   5.984   5.718   0.111 -0.3613  0.9333 -0.3207
 2457SOL    HW1 8270   6.019   5.755   0.025 -2.2732  1.2300 -1.0248
 2457SOL    HW2 8271   5.897   5.671   0.094  0.2887 -0.9081  1.1153
 2458SOL     OW 8272   2.300   6.227   4.166 -0.2285 -0.3878 -0.0163
 2458SOL    HW1 8273   2.272   6.270   4.252 -1.9165 -0.4922 -0.4937
 2458SOL    HW2 8274   2.371   6.158   4.186  1.4758  1.5143  0.9138
 2459SOL     OW 8275   2.349   5.674   0.574 -0.3895  0.2453  0.0866
 2459SOL    HW1 8276   2.384   5.744   0.636  2.9693  0.0745 -1.3928
 2459SOL    HW2 8277   2.385   5.585   0.601  1.7204  0.2527 -2.2985
 2460SOL     OW 8278   3.579   0.472   2.800  0.2514 -0.1830  1.0792
 2460SOL    HW1 8279   3.672   0.506   2.811  0.7218 -1.2873  0.6574
 2460SOL    HW2 8280   3.530   0.529   2.734  1.2521 -0.6917 -0.1602
 2461SOL     OW 8281   3.775   0.942   1.814  0.0577  0.8155 -0.1798
 2461SOL    HW1 8282   3.687   0.909   1.848  0.5028  1.3886  1.6448
 2461SOL    HW2 8283   3.845   0.871   1.828  0.6985  1.8243  2.3244
 2462SOL     OW 8284   3.500   6.205   6.829  0.2048  0.1553  0.1754
 2462SOL    HW1 8285   3.515   6.126   6.889 -0.0344 -0.0389 -0.0210
 2462SOL    HW2 8286   3.417   6.253   6.858 -0.7157 -0.7560 -0.8702
 2463SOL     OW 8287   4.710   2.873   4.343 -0.3148 -0.1409 -0.6083
 2463SOL    HW1 8288   4.729   2.848   4.248  1.2350  0.0142 -0.3738
 2463SOL    HW2 8289   4.726   2.972   4.355 -1.9644  0.1377 -0.5119
 2464SOL     OW 8290   6.968   4.457   1.423 -0.0182 -0.5771 -0.2945
 2464SOL    HW1 8291   6.923   4.371   1.443 -0.1686 -0.0201  2.0128
 2464SOL    HW2 8292   6.902   4.522   1.384  0.1515 -1.5066 -2.2644
 2465SOL     OW 8293   6.270   6.592   2.481  0.0515 -0.3017  0.2839
 2465SOL    HW1 8294   6.339   6.607   2.410  1.2191 -1.4883  1.1277
 2465SOL    HW2 8295   6.212   6.514   2.456  1.0897 -1.3493  1.0515
 2466SOL     OW 8296   3.498   0.934   1.320 -0.3951 -0.2372  0.2631
 2466SOL    HW1 8297   3.495   1.033   1.323 -1.1405 -0.2672  0.7447
 2466SOL    HW2 8298   3.444   0.900   1.244  0.9164 -0.2449 -0.7024
 2467SOL     OW 8299   6.841   2.803   4.792 -0.1117 -0.0990 -0.1883
 2467SOL    HW1 8300   6.769   2.816   4.860 -0.2426  1.0573 -0.5380
 2467SOL    HW2 8301   6.829   2.714   4.748 -1.7228  0.3552 -0.7141
 2468SOL     OW 8302   6.745   1.372   0.752 -0.2392 -0.3359 -0.2777
 2468SOL    HW1 8303   6.746   1.367   0.851  1.1672  0.3279 -0.2298
 2468SOL    HW2 8304   6.673   1.313   0.716  0.6151 -2.2725  1.0418
 2469SOL     OW 8305   3.719   5.640   4.799 -0.4526  0.2003  0.4380
 2469SOL    HW1 8306   3.646   5.695   4.839 -0.9708 -0.6667  0.7031
 2469SOL    HW2 8307   3.801   5.697   4.787 -0.8118  0.8926  1.1815
 2470SOL     OW 8308   2.291   4.195   5.727 -0.3613 -0.0171  0.5770
 2470SOL    HW1 8309   2.215   4.260   5.726  0.1221  0.5549  0.4040
 2470SOL    HW2 8310   2.359   4.222   5.659 -0.0554 -0.5866  0.6503
 2471SOL     OW 8311   6.829   6.996   1.232 -0.1188 -0.0970 -0.0605
 2471SOL    HW1 8312   6.868   6.910   1.198  1.4354 -0.3026  1.9812
 2471SOL    HW2 8313   6.783   6.979   1.319  1.0927  1.2429  0.8968
 2472SOL     OW 8314   6.100   1.389   5.895  0.1957 -0.0650 -0.3180
 2472SOL    HW1 8315   6.032   1.424   5.960  0.5658 -0.0493  0.0672
 2472SOL    HW2 8316   6.114   1.457   5.822 -1.0515 -0.5624 -1.0509
 2473SOL     OW 8317   3.828   3.592   6.427  0.4143 -0.4550  0.2991
 2473SOL    HW1 8318   3.874   3.589   6.338 -0.1743  1.4388 -0.1077
 2473SOL    HW2 8319   3.733   3.562   6.416  0.0722  0.6494  0.0654
 2474SOL     OW 8320   6.879   4.996   1.073  0.2313  0.3061  0.0744
 2474SOL    HW1 8321   6.914   4.920   1.128  0.1551  0.4889  0.3780
 2474SOL    HW2 8322   6.865   4.966   0.979  1.1386  0.2071 -0.0393
 2475SOL     OW 8323   4.407   0.444   1.340 -0.4770  0.0599 -0.4886
 2475SOL    HW1 8324   4.357   0.440   1.253  1.2300  1.0662 -1.5707
 2475SOL    HW2 8325   4.451   0.356   1.356 -2.6978 -0.9337  0.6124
 2476SOL     OW 8326   6.386   4.273   3.089  0.1959  0.2879  0.0409
 2476SOL    HW1 8327   6.307   4.221   3.055 -0.0878  0.7066  0.0559
 2476SOL    HW2 8328   6.467   4.215   3.085  0.1739  0.3183 -1.3648
 2477SOL     OW 8329   5.670   6.531   2.831  0.2803 -0.2593 -0.2869
 2477SOL    HW1 8330   5.696   6.438   2.806  0.7027 -0.2001 -0.0641
 2477SOL    HW2 8331   5.697   6.550   2.925 -0.0279  0.0057 -0.2484
 2478SOL     OW 8332   4.255   6.419   1.678  0.6439  0.0389 -0.0026
 2478SOL    HW1 8333   4.246   6.511   1.641 -0.6776 -0.9372 -2.3345
 2478SOL    HW2 8334   4.345   6.382   1.654 -0.0241 -0.4104 -1.9682
 2479SOL     OW 8335   6.616   3.904   7.007  0.0455 -0.0802 -0.5180
 2479SOL    HW1 8336   6.700   3.941   6.966  0.3380 -1.3093 -1.0822
 2479SOL    HW2 8337   6.538   3.931   6.952  0.0880  0.7861 -0.1800
 2480SOL     OW 8338   5.735   2.836   0.795 -0.0573 -0.0009 -0.5901
 2480SOL    HW1 8339   5.830   2.864   0.810  0.5758 -1.5853 -1.5024
 2480SOL    HW2 8340   5.717   2.829   0.697 -1.3545  0.9665 -0.4547
 2481SOL     OW 8341   3.713   6.502   0.112  0.0536  0.0662  0.1496
 2481SOL    HW1 8342   3.728   6.513   0.014 -0.3544 -4.3488 -0.5961
 2481SOL    HW2 8343   3.801   6.489   0.157  0.0934 -0.3048 -0.0322
 2482SOL     OW 8344   5.101   2.498   6.775 -0.5187  0.4929  0.3511
 2482SOL    HW1 8345   5.083   2.414   6.725  1.5063 -0.0343  0.4123
 2482SOL    HW2 8346   5.174   2.482   6.841 -0.6599  2.1001  0.9376
 2483SOL     OW 8347   1.936   6.001   5.465 -0.2013 -0.0605  0.4681
 2483SOL    HW1 8348   1.847   5.985   5.507 -1.2007  1.9044 -0.7516
 2483SOL    HW2 8349   1.924   6.020   5.368  1.7246 -1.1544 -0.0288
 2484SOL     OW 8350   3.561   4.983   4.916  0.0932 -0.2201  0.3715
 2484SOL    HW1 8351   3.515   4.987   4.827 -1.5551 -0.7610  1.1707
 2484SOL    HW2 8352   3.530   5.059   4.973  1.3696  0.3006  0.4081
 2485SOL     OW 8353   4.092   5.630   1.152  0.0388  0.0662  0.3803
 2485SOL    HW1 8354   4.075   5.619   1.250  1.4272  1.0825  0.7684
 2485SOL    HW2 8355   4.023   5.579   1.100 -1.7105  0.8077  1.8591
 2486SOL     OW 8356   2.667   6.444   3.598  0.7929  0.3472 -0.4857
 2486SOL    HW1 8357   2.626   6.434   3.688  0.6980 -2.1423 -0.7399
 2486SOL    HW2 8358   2.719   6.529   3.594  1.8479 -0.0739  2.3438
 2487SOL     OW 8359   4.172   6.553   0.799 -0.6147  0.2926 -0.3690
 2487SOL    HW1 8360   4.180   6.652   0.806 -1.2541  0.3748 -0.7666
 2487SOL    HW2 8361   4.171   6.513   0.891  0.4140  0.5843 -0.2254
 2488SOL     OW 8362   1.792   4.875   2.749 -0.6180  0.0866 -0.7190
 2488SOL    HW1 8363   1.877   4.842   2.707 -0.2277 -0.8110  0.7169
 2488SOL    HW2 8364   1.801   4.973   2.769  0.5055 -0.2183  0.3887
 2489SOL     OW 8365   2.836   5.121   3.161 -0.3975  0.1011  0.6909
 2489SOL    HW1 8366   2.869   5.205   3.119 -1.6760 -0.1669 -0.9124
 2489SOL    HW2 8367   2.760   5.143   3.223 -1.0694  0.0952 -0.1153
 2490SOL     OW 8368   6.560   4.297   1.667 -0.2441  0.3937  0.7522
 2490SOL    HW1 8369   6.503   4.216   1.676 -0.1906  0.5068  2.4337
 2490SOL    HW2 8370   6.539   4.361   1.740  1.8796  0.5265  1.3275
 2491SOL     OW 8371   2.472   5.980   3.962 -0.0647  0.1673  0.2953
 2491SOL    HW1 8372   2.534   5.926   4.018  0.5867  0.0035 -0.5494
 2491SOL    HW2 8373   2.486   6.077   3.981  0.0220  0.1056  0.5461
 2492SOL     OW 8374   3.205   2.967   6.484  0.0137 -0.3978  0.3877
 2492SOL    HW1 8375   3.118   2.956   6.532 -0.6827 -0.6979 -0.8959
 2492SOL    HW2 8376   3.209   3.058   6.442 -0.7196 -1.1576 -1.4624
 2493SOL     OW 8377   0.038   0.517   3.973 -0.8960 -0.4233  0.1513
 2493SOL    HW1 8378   0.001   0.581   4.041  0.2672 -0.3505  0.7377
 2493SOL    HW2 8379   0.135   0.503   3.990 -0.2226  0.6774 -2.3349
 2494SOL     OW 8380   5.466   2.011   0.895  0.0846 -0.2113  0.1975
 2494SOL    HW1 8381   5.445   1.982   0.802  1.8602 -0.0639 -0.2897
 2494SOL    HW2 8382   5.448   1.935   0.958  0.2558 -0.8100 -0.4625
 2495SOL     OW 8383   3.422   2.109   5.093  0.0061  0.0157 -0.3945
 2495SOL    HW1 8384   3.370   2.193   5.109  0.3683  0.3298 -0.8175
 2495SOL    HW2 8385   3.359   2.030   5.093 -0.3285  0.2807  0.0425
 2496SOL     OW 8386   6.971   4.195   1.320 -0.4501 -0.2247  0.0264
 2496SOL    HW1 8387   6.889   4.213   1.265  0.3539  0.3356 -1.0086
 2496SOL    HW2 8388   6.962   4.105   1.364 -0.4065 -1.4381 -2.3361
 2497SOL     OW 8389   6.296   3.837   0.666 -0.0354  0.8761 -0.4182
 2497SOL    HW1 8390   6.389   3.875   0.668  0.6409 -0.4292 -2.6309
 2497SOL    HW2 8391   6.269   3.810   0.758  1.4915  1.8987  0.3854
 2498SOL     OW 8392   2.672   1.055   4.014  0.1302 -0.2544 -0.5690
 2498SOL    HW1 8393   2.728   1.115   3.957 -0.1907  1.9280  1.2598
 2498SOL    HW2 8394   2.683   0.960   3.983  4.7124  0.0010 -0.4844
 2499SOL     OW 8395   6.758   1.153   5.622  0.4631 -0.4883  0.3281
 2499SOL    HW1 8396   6.847   1.124   5.655  1.0373 -0.8651 -1.4718
 2499SOL    HW2 8397   6.687   1.124   5.687  1.5401 -1.0567  1.2741
 2500SOL     OW 8398   3.824   3.557   5.186  0.3862  0.3791  0.0100
 2500SOL    HW1 8399   3.838   3.655   5.196  3.4651  0.0560 -0.3237
 2500SOL    HW2 8400   3.808   3.516   5.276  0.1993  1.0422  0.2784
 2501SOL     OW 8401   4.703   5.329   5.807 -0.1758  0.1274  0.2559
 2501SOL    HW1 8402   4.682   5.425   5.826 -2.9158 -0.5899  1.2368
 2501SOL    HW2 8403   4.691   5.276   5.891  0.3602 -1.2335 -0.5072
 2502SOL     OW 8404   2.323   6.763   2.503  0.4951 -0.3624 -0.1545
 2502SOL    HW1 8405   2.262   6.716   2.567 -0.8784  2.2164  0.5623
 2502SOL    HW2 8406   2.405   6.792   2.551 -0.1328  0.7825  0.2637
 2503SOL     OW 8407   3.784   0.111   0.037 -0.1283 -0.0552  0.1015
 2503SOL    HW1 8408   3.820   0.165   0.113 -0.2019 -0.7377  0.6310
 2503SOL    HW2 8409   3.686   0.097   0.049 -0.1874  0.0452 -0.2515
 2504SOL     OW 8410   1.224   5.021   3.860 -0.0966  0.5433 -0.0348
 2504SOL    HW1 8411   1.319   5.045   3.836 -0.6329 -0.5109 -3.8045
 2504SOL    HW2 8412   1.164   5.098   3.837 -0.5109 -0.0385 -0.9181
 2505SOL     OW 8413   4.552   6.106   4.201 -0.6297  0.6686 -0.6568
 2505SOL    HW1 8414   4.508   6.017   4.210 -0.6475  0.5989 -1.3514
 2505SOL    HW2 8415   4.646   6.100   4.234 -0.9263  0.6493  0.2082
 2506SOL     OW 8416   6.677   3.727   6.284 -0.4070  0.1943 -0.0124
 2506SOL    HW1 8417   6.690   3.661   6.358  0.3448 -0.7403 -0.9525
 2506SOL    HW2 8418   6.646   3.814   6.323  2.1051  0.4561  1.7181
 2507SOL     OW 8419   0.062   4.705   6.696 -0.3258  0.1590  0.4530
 2507SOL    HW1 8420   0.148   4.687   6.744  0.1124  2.1130  0.4830
 2507SOL    HW2 8421   0.072   4.677   6.600  0.2460  0.1118  0.5215
 2508SOL     OW 8422   2.489   2.250   2.767 -0.5097 -0.5577 -0.0366
 2508SOL    HW1 8423   2.439   2.254   2.680  2.0696  2.0057 -1.5641
 2508SOL    HW2 8424   2.545   2.167   2.769 -2.3444 -1.8446  0.3062
 2509SOL     OW 8425   5.131   1.236   2.102 -0.0611 -0.6483 -0.1270
 2509SOL    HW1 8426   5.119   1.335   2.110  1.1201 -0.4927 -0.1648
 2509SOL    HW2 8427   5.073   1.191   2.170 -2.4179 -0.0812 -1.6426
 2510SOL     OW 8428   1.554   5.327   1.045  0.1607  0.2058  0.0978
 2510SOL    HW1 8429   1.492   5.283   1.110  0.9615  2.6309  2.7066
 2510SOL    HW2 8430   1.648   5.298   1.063  0.2403 -0.3452 -1.1178
 2511SOL     OW 8431   1.979   1.905   2.975 -0.0244 -0.3499 -0.0766
 2511SOL    HW1 8432   2.009   1.821   2.930  0.5887 -0.3345  0.2886
 2511SOL    HW2 8433   2.027   1.915   3.062  1.8131  1.6210 -1.2269
 2512SOL     OW 8434   0.319   3.787   5.571 -0.5580 -0.2454 -0.1773
 2512SOL    HW1 8435   0.280   3.825   5.655  1.1590 -0.3905  0.7281
 2512SOL    HW2 8436   0.289   3.692   5.560 -1.0007 -0.1413  0.1218
 2513SOL     OW 8437   1.068   0.783   0.262 -0.2887  0.2380 -0.5360
 2513SOL    HW1 8438   1.060   0.685   0.274 -1.2789  0.3966  0.2345
 2513SOL    HW2 8439   1.149   0.804   0.206  0.8235 -0.9030  0.5941
 2514SOL     OW 8440   0.225   2.663   3.628 -0.7579  0.1710  0.9242
 2514SOL    HW1 8441   0.216   2.666   3.529  2.0292  0.5518  0.6134
 2514SOL    HW2 8442   0.277   2.583   3.655  2.0630  2.0910  1.6375
 2515SOL     OW 8443   6.940   5.758   0.307  0.3862  0.2488  0.6985
 2515SOL    HW1 8444   6.951   5.857   0.315  0.8436  0.1428  1.4478
 2515SOL    HW2 8445   6.898   5.736   0.219  2.9526  0.9050 -0.7899
 2516SOL     OW 8446   4.512   4.773   2.475 -0.3620 -0.0216 -0.2096
 2516SOL    HW1 8447   4.473   4.710   2.407 -0.6177  0.1627 -0.2306
 2516SOL    HW2 8448   4.592   4.730   2.517 -1.1389 -0.7789  0.5193
 2517SOL     OW 8449   2.399   5.659   6.351  0.3199 -0.5035  0.2624
 2517SOL    HW1 8450   2.415   5.662   6.450  0.8805  0.1728  0.1569
 2517SOL    HW2 8451   2.478   5.698   6.303 -0.4972  0.3815 -0.3988
 2518SOL     OW 8452   4.442   3.222   5.747 -0.7140 -0.0173  0.1220
 2518SOL    HW1 8453   4.349   3.185   5.755 -0.6425 -0.4245 -0.7627
 2518SOL    HW2 8454   4.502   3.151   5.708 -0.0898  0.3222  0.4622
 2519SOL     OW 8455   6.070   4.057   5.296  0.1252 -0.6780 -0.0233
 2519SOL    HW1 8456   6.013   4.007   5.360 -1.3492 -0.0257 -0.7712
 2519SOL    HW2 8457   6.027   4.056   5.205  0.4176  1.2542 -0.2325
 2520SOL     OW 8458   2.411   4.564   1.191  0.9679  0.2794  0.4426
 2520SOL    HW1 8459   2.330   4.509   1.211  0.9992  0.2365  0.4504
 2520SOL    HW2 8460   2.383   4.659   1.173  0.9344  0.3053  0.6271
 2521SOL     OW 8461   0.879   5.482   5.046  0.5310 -0.6441 -0.7388
 2521SOL    HW1 8462   0.947   5.458   5.116  0.8757  0.5423 -0.6389
 2521SOL    HW2 8463   0.923   5.537   4.975 -0.4876  0.8404 -0.2508
 2522SOL     OW 8464   1.167   2.344   6.116 -0.1428  0.1713 -0.1857
 2522SOL    HW1 8465   1.234   2.270   6.105 -1.4056 -1.0458 -0.0900
 2522SOL    HW2 8466   1.202   2.412   6.180  2.3827  1.3313 -2.6008
 2523SOL     OW 8467   5.911   1.007   1.967  0.1589 -0.1931  0.3729
 2523SOL    HW1 8468   5.811   1.004   1.971  0.1428  0.1715  0.2704
 2523SOL    HW2 8469   5.940   1.092   1.924  0.5028 -0.5515 -0.1203
 2524SOL     OW 8470   6.009   0.415   2.829 -0.2214  0.1782 -0.3408
 2524SOL    HW1 8471   5.996   0.324   2.790  1.7096 -0.8492  1.2421
 2524SOL    HW2 8472   5.963   0.420   2.918  1.6139 -0.1162  0.6718
 2525SOL     OW 8473   2.233   4.771   3.654  0.0552 -0.1965 -0.7164
 2525SOL    HW1 8474   2.272   4.679   3.657 -0.3102 -0.3649 -0.9750
 2525SOL    HW2 8475   2.248   4.810   3.563  0.3613  0.0651 -0.5511
 2526SOL     OW 8476   0.788   4.179   4.177 -0.5341  0.2162 -0.2299
 2526SOL    HW1 8477   0.705   4.167   4.123  0.1191 -2.1447 -0.8143
 2526SOL    HW2 8478   0.853   4.237   4.127 -1.2734  0.9167 -0.3894
 2527SOL     OW 8479   5.879   0.826   6.256 -0.0768  0.9325  0.7405
 2527SOL    HW1 8480   5.818   0.892   6.214 -1.3182 -0.3596  0.4564
 2527SOL    HW2 8481   5.955   0.806   6.193 -0.5865  0.8642  0.1355
 2528SOL     OW 8482   6.991   4.805   1.242 -0.0422 -0.5666  0.2446
 2528SOL    HW1 8483   6.991   4.712   1.205 -0.3801 -0.1966 -0.7236
 2528SOL    HW2 8484   7.084   4.841   1.241  0.1201 -0.9676  0.8106
 2529SOL     OW 8485   5.378   5.613   6.576  0.2836  0.3861  0.5389
 2529SOL    HW1 8486   5.282   5.640   6.569 -0.4156 -2.0335 -0.1596
 2529SOL    HW2 8487   5.423   5.630   6.488 -0.3912 -1.4538 -0.1983
 2530SOL     OW 8488   2.670   6.268   4.080  0.1146 -0.3040  0.2295
 2530SOL    HW1 8489   2.632   6.224   4.161  0.6485 -0.7886  0.2240
 2530SOL    HW2 8490   2.689   6.364   4.099 -0.0088 -0.3528  0.5947
 2531SOL     OW 8491   3.576   6.947   5.317 -0.2278  0.2596  0.4953
 2531SOL    HW1 8492   3.551   7.042   5.299 -0.0547  0.6772  2.2621
 2531SOL    HW2 8493   3.495   6.889   5.307 -0.4545  0.6691 -0.0727
 2532SOL     OW 8494   0.790   6.967   0.019  0.3342 -0.0026  0.2635
 2532SOL    HW1 8495   0.864   6.941  -0.043 -1.6708  0.8082 -2.7204
 2532SOL    HW2 8496   0.732   6.887   0.036 -0.2885  0.2047 -0.7485
 2533SOL     OW 8497   5.607   0.783   4.718 -0.1525  0.1525 -0.2892
 2533SOL    HW1 8498   5.613   0.855   4.648 -0.6324  0.7992  0.3167
 2533SOL    HW2 8499   5.522   0.733   4.707 -1.3007  1.6806  1.1330
 2534SOL     OW 8500   2.174   6.530   4.019 -0.2943 -0.2540  1.2855
 2534SOL    HW1 8501   2.176   6.435   3.988  0.0470  0.0130  0.4465
 2534SOL    HW2 8502   2.255   6.548   4.075  1.3134  0.3263 -1.0747
 2535SOL     OW 8503   2.059   1.638   5.113  0.1984  0.1890 -0.1952
 2535SOL    HW1 8504   2.116   1.593   5.044  0.4009  0.6418 -0.3199
 2535SOL    HW2 8505   2.102   1.723   5.143 -1.6113  1.9658 -2.2376
 2536SOL     OW 8506   0.680   6.940   4.438 -0.2580  0.1588  1.0516
 2536SOL    HW1 8507   0.588   6.932   4.400 -0.7011  0.6600  1.9777
 2536SOL    HW2 8508   0.743   6.884   4.385 -0.9390  0.4475 -0.1012
 2537SOL     OW 8509   5.636   5.144   0.548 -0.0043  0.1249  0.1669
 2537SOL    HW1 8510   5.610   5.153   0.644 -0.4897  2.5360 -0.1281
 2537SOL    HW2 8511   5.565   5.183   0.490  0.0225 -1.7855 -1.2519
 2538SOL     OW 8512   6.738   4.341   5.805  0.1952  0.7136  0.0439
 2538SOL    HW1 8513   6.684   4.366   5.725  0.6472  2.4375  0.2366
 2538SOL    HW2 8514   6.835   4.349   5.783  0.3198  1.4258  0.8145
 2539SOL     OW 8515   3.520   4.995   3.769 -0.0395  0.0308 -0.6025
 2539SOL    HW1 8516   3.536   5.054   3.849 -1.1753  0.4842 -0.7013
 2539SOL    HW2 8517   3.606   4.951   3.744  0.1937 -0.7973  1.4024
 2540SOL     OW 8518   5.090   0.453   0.628 -0.0851 -0.0899  0.3656
 2540SOL    HW1 8519   5.173   0.405   0.659 -0.2502 -0.8902 -0.3955
 2540SOL    HW2 8520   5.036   0.480   0.707  1.4040  1.3945  0.9419
 2541SOL     OW 8521   1.953   0.182   4.914 -0.9185 -0.4662  0.4847
 2541SOL    HW1 8522   1.960   0.180   4.815  0.9319  0.0029  0.5661
 2541SOL    HW2 8523   1.886   0.251   4.942 -0.6297  0.1962 -0.4178
 2542SOL     OW 8524   5.673   2.864   4.182 -0.5043 -0.4643  0.1860
 2542SOL    HW1 8525   5.713   2.831   4.268  0.1532  0.0837  0.0964
 2542SOL    HW2 8526   5.618   2.946   4.201  0.4403  0.2314 -0.0565
 2543SOL     OW 8527   2.862   1.280   3.866 -0.5898  0.2982  0.5055
 2543SOL    HW1 8528   2.790   1.338   3.829 -1.2397 -1.0146 -0.3279
 2543SOL    HW2 8529   2.949   1.303   3.823 -0.7980  0.8031  0.3514
 2544SOL     OW 8530   1.319   4.448   2.333  0.0675  0.3399  0.1592
 2544SOL    HW1 8531   1.401   4.500   2.312 -0.7548  1.0819 -1.3567
 2544SOL    HW2 8532   1.238   4.506   2.319 -0.7135  0.2786  3.4772
 2545SOL     OW 8533   0.551   2.269   1.033 -0.1656  0.3799 -0.5631
 2545SOL    HW1 8534   0.453   2.285   1.021 -0.3110  0.3274  0.5022
 2545SOL    HW2 8535   0.602   2.341   0.985 -0.7092  0.2553 -1.3494
 2546SOL     OW 8536   6.605   4.276   0.739  0.0302 -0.1230  0.2042
 2546SOL    HW1 8537   6.645   4.356   0.695  2.3689 -0.3370  1.7644
 2546SOL    HW2 8538   6.628   4.193   0.687 -0.3084 -0.0292 -0.0979
 2547SOL     OW 8539   5.834   5.726   0.892 -0.6569 -0.1848 -0.2820
 2547SOL    HW1 8540   5.901   5.656   0.868  0.6971  0.8057  0.4726
 2547SOL    HW2 8541   5.748   5.707   0.844 -0.2451 -2.1640 -0.3423
 2548SOL     OW 8542   1.948   5.228   4.282 -0.1649  0.3146 -0.2858
 2548SOL    HW1 8543   1.985   5.181   4.202  1.0839 -0.5227  0.7515
 2548SOL    HW2 8544   2.017   5.230   4.355 -0.8211  2.1712  0.3507
 2549SOL     OW 8545   1.518   2.055   3.008 -0.4920 -0.0690  0.7099
 2549SOL    HW1 8546   1.578   2.135   3.014 -0.8476  0.2578  0.0014
 2549SOL    HW2 8547   1.423   2.085   3.002 -0.5114 -0.4227 -1.9049
 2550SOL     OW 8548   4.173   2.714   6.593  0.1726 -0.5925 -0.2906
 2550SOL    HW1 8549   4.253   2.771   6.578 -0.1699  0.0182  0.1339
 2550SOL    HW2 8550   4.192   2.621   6.563  1.6395 -0.8732  1.3066
 2551SOL     OW 8551   3.971   3.469   6.990  0.8057 -0.2538 -0.2253
 2551SOL    HW1 8552   3.901   3.399   7.004  0.4397  0.0888 -0.3158
 2551SOL    HW2 8553   4.007   3.499   7.078  1.2461 -0.8374 -0.2047
 2552SOL     OW 8554   2.369   4.889   0.030 -0.0197 -0.4995 -0.2972
 2552SOL    HW1 8555   2.441   4.908   0.096  0.7108 -1.3281 -0.8349
 2552SOL    HW2 8556   2.409   4.849  -0.053 -1.1639 -1.6241 -0.3286
 2553SOL     OW 8557   3.441   2.438   6.162  0.5802 -0.5180  0.2163
 2553SOL    HW1 8558   3.515   2.426   6.096  0.8118  1.9039 -0.0630
 2553SOL    HW2 8559   3.478   2.434   6.255  1.3077  1.5491  0.0710
 2554SOL     OW 8560   0.798   5.317   6.562  0.4673  0.2544  0.3082
 2554SOL    HW1 8561   0.756   5.332   6.651  0.5642  0.5329  0.3073
 2554SOL    HW2 8562   0.769   5.228   6.526 -0.6406  0.7132  0.0205
 2555SOL     OW 8563   5.883   6.343   2.204  0.6598  0.5226 -0.6101
 2555SOL    HW1 8564   5.911   6.408   2.275 -0.7123  1.7423 -1.1331
 2555SOL    HW2 8565   5.791   6.311   2.223  0.6775  0.0459 -1.2850
 2556SOL     OW 8566   3.118   5.691   1.704 -0.9091  0.5211 -0.4196
 2556SOL    HW1 8567   3.119   5.591   1.708 -2.0986  0.5072 -0.1757
 2556SOL    HW2 8568   3.211   5.724   1.687 -0.4976 -0.6195 -0.5000
 2557SOL     OW 8569   2.495   0.153   5.457 -0.2619  0.3411 -0.0448
 2557SOL    HW1 8570   2.400   0.147   5.425 -0.3275 -0.3395  0.2692
 2557SOL    HW2 8571   2.501   0.117   5.550  0.7601 -2.0497 -0.9662
 2558SOL     OW 8572   5.492   1.320   6.507 -0.8769 -0.1714 -0.2746
 2558SOL    HW1 8573   5.416   1.260   6.483 -0.8870 -0.7176  1.0626
 2558SOL    HW2 8574   5.579   1.272   6.495 -0.8036  0.0469 -0.6321
 2559SOL     OW 8575   6.251   3.790   4.266 -0.0644 -0.1111  0.5245
 2559SOL    HW1 8576   6.163   3.778   4.311 -2.0222  1.2926 -2.5700
 2559SOL    HW2 8577   6.279   3.886   4.272  0.9836 -0.4274  0.9442
 2560SOL     OW 8578   5.303   2.630   3.507 -0.1816 -0.1235  0.0866
 2560SOL    HW1 8579   5.273   2.686   3.430 -0.1927 -1.0363 -0.5793
 2560SOL    HW2 8580   5.400   2.607   3.496 -0.2180 -0.3733  0.2793
 2561SOL     OW 8581   2.493   0.838   4.414  0.9029  0.0242 -0.0864
 2561SOL    HW1 8582   2.581   0.792   4.431  0.9180  0.4798  1.2167
 2561SOL    HW2 8583   2.432   0.776   4.365  1.5060 -0.7749  0.1422
 2562SOL     OW 8584   3.576   6.887   3.670 -0.2168  0.4323  0.5195
 2562SOL    HW1 8585   3.546   6.859   3.579 -1.7162  0.4605  0.9777
 2562SOL    HW2 8586   3.566   6.986   3.678  0.2519  0.4738  0.6050
 2563SOL     OW 8587   3.261   2.327   0.117 -0.5772  0.3331 -0.2217
 2563SOL    HW1 8588   3.219   2.237   0.125  0.6549 -0.4772 -2.0887
 2563SOL    HW2 8589   3.347   2.328   0.167 -0.4694  0.3728 -0.4051
 2564SOL     OW 8590   2.656   0.458   6.058 -0.5879 -0.1561 -0.0188
 2564SOL    HW1 8591   2.723   0.533   6.058  1.2232 -1.7029  0.2873
 2564SOL    HW2 8592   2.632   0.435   6.152 -2.8413  1.4123 -0.1371
 2565SOL     OW 8593   0.337   0.413   6.620 -0.2119 -0.5268 -0.4158
 2565SOL    HW1 8594   0.237   0.415   6.625 -0.2616 -0.8840 -1.1200
 2565SOL    HW2 8595   0.365   0.332   6.568  0.5209 -1.6750  1.6711
 2566SOL     OW 8596   1.417   0.478   2.551 -0.2983 -0.1962 -0.3935
 2566SOL    HW1 8597   1.393   0.456   2.646  0.4057 -0.9898 -0.3892
 2566SOL    HW2 8598   1.452   0.571   2.546 -0.2010 -0.2016  0.1545
 2567SOL     OW 8599   1.922   0.944   2.057  0.2435 -0.1744 -0.4920
 2567SOL    HW1 8600   1.931   0.849   2.087  0.1965 -0.0603 -0.1151
 2567SOL    HW2 8601   1.882   0.999   2.130 -0.2136  0.0344 -0.8970
 2568SOL     OW 8602   1.983   1.727   1.459 -0.0036 -0.1461  0.0429
 2568SOL    HW1 8603   1.949   1.799   1.520 -1.5275 -0.7146 -0.0988
 2568SOL    HW2 8604   2.022   1.653   1.513  2.0516  0.9677  0.1776
 2569SOL     OW 8605   0.852   2.055   3.288  0.5049  0.6650  1.1364
 2569SOL    HW1 8606   0.901   2.114   3.224  1.4108 -0.1460  1.0474
 2569SOL    HW2 8607   0.846   2.100   3.377  1.2346  0.8778  1.0858
 2570SOL     OW 8608   3.324   6.610   4.987  0.0041 -0.1774 -0.3173
 2570SOL    HW1 8609   3.419   6.590   5.012 -0.1820  0.1233  0.6338
 2570SOL    HW2 8610   3.267   6.531   5.008 -0.2133  0.2093  0.5576
 2571SOL     OW 8611   3.027   3.783   4.840 -1.0644  0.8059 -0.0116
 2571SOL    HW1 8612   3.040   3.848   4.766 -0.5230  2.1209  1.1934
 2571SOL    HW2 8613   3.096   3.711   4.833 -0.8714  1.0448 -0.6432
 2572SOL     OW 8614   1.192   5.743   2.198  0.1547 -0.0353  0.0789
 2572SOL    HW1 8615   1.191   5.649   2.233  0.3921  0.3566  1.1670
 2572SOL    HW2 8616   1.271   5.792   2.235 -0.2246  0.7347 -0.1050
 2573SOL     OW 8617   0.819   1.877   3.067  0.3575  0.1972 -0.5345
 2573SOL    HW1 8618   0.832   1.925   3.154  1.0972  2.9663 -2.0520
 2573SOL    HW2 8619   0.722   1.869   3.048  0.1523 -1.1311  0.8408
 2574SOL     OW 8620   5.726   2.027   1.027  0.8603 -0.5964  0.9328
 2574SOL    HW1 8621   5.789   2.105   1.029  0.0100  0.1125  0.4155
 2574SOL    HW2 8622   5.642   2.053   0.980 -0.1702 -1.2680  2.3421
 2575SOL     OW 8623   5.446   1.725   1.987  0.0972 -0.1009  0.5808
 2575SOL    HW1 8624   5.444   1.803   1.924  1.6478 -0.4318  0.0605
 2575SOL    HW2 8625   5.526   1.733   2.046  0.7904 -1.6995 -0.0632
 2576SOL     OW 8626   2.643   6.900   3.789  0.3510  0.3241 -0.4074
 2576SOL    HW1 8627   2.737   6.934   3.791  0.3050  0.6091 -2.1240
 2576SOL    HW2 8628   2.580   6.978   3.793  0.1812  0.1592  0.2625
 2577SOL     OW 8629   4.368   0.335   5.195  0.2318 -0.2966  0.0439
 2577SOL    HW1 8630   4.327   0.398   5.261 -0.2899 -0.7094  0.1186
 2577SOL    HW2 8631   4.298   0.273   5.159  0.4811  0.0258 -1.0214
 2578SOL     OW 8632   3.950   3.971   4.116  0.3828  0.0644 -0.5560
 2578SOL    HW1 8633   3.976   3.969   4.212  2.4194  1.2974 -1.0303
 2578SOL    HW2 8634   4.022   3.929   4.061 -1.4772 -2.1483 -1.4745
 2579SOL     OW 8635   0.551   0.808   6.444 -0.6231 -0.3039 -0.4144
 2579SOL    HW1 8636   0.517   0.871   6.514  0.3975 -0.3605  0.1593
 2579SOL    HW2 8637   0.542   0.851   6.354  2.3134  1.8311  0.1284
 2580SOL     OW 8638   2.551   6.640   4.944  0.4092 -0.3795  0.4327
 2580SOL    HW1 8639   2.460   6.600   4.944  0.4477 -0.4780  0.8277
 2580SOL    HW2 8640   2.561   6.699   5.025  0.1097  0.9949 -0.5042
 2581SOL     OW 8641   0.114   4.489   1.855 -0.5711 -0.5952  1.0465
 2581SOL    HW1 8642   0.114   4.516   1.759 -3.3789  0.4776  1.2357
 2581SOL    HW2 8643   0.109   4.571   1.913 -0.9699 -1.2798  2.0157
 2582SOL     OW 8644   1.365   4.165   2.239  0.0384 -0.0817  0.0530
 2582SOL    HW1 8645   1.369   4.249   2.293  2.9194  0.3466 -0.6148
 2582SOL    HW2 8646   1.364   4.189   2.142 -1.3863 -0.8581 -0.1478
 2583SOL     OW 8647   1.946   6.947   0.450 -0.6401 -0.5974  0.1833
 2583SOL    HW1 8648   1.917   7.037   0.416  1.7635 -0.7331 -2.5573
 2583SOL    HW2 8649   2.020   6.959   0.516  0.9187 -0.5289 -1.5116
 2584SOL     OW 8650   4.387   5.750   0.045 -0.2496 -0.1552 -0.2362
 2584SOL    HW1 8651   4.337   5.681  -0.009 -0.4398 -0.1268 -0.0974
 2584SOL    HW2 8652   4.378   5.839   0.002 -2.5571  0.3669  1.1820
 2585SOL     OW 8653   2.411   6.404   6.322  0.0269  0.0077  0.4536
 2585SOL    HW1 8654   2.421   6.470   6.397 -0.3620  1.1408 -0.4585
 2585SOL    HW2 8655   2.442   6.446   6.237  0.8936 -1.4134  0.0313
 2586SOL     OW 8656   5.612   0.588   5.374  0.3996 -0.1692  0.1405
 2586SOL    HW1 8657   5.709   0.613   5.364  0.0386  0.9170 -0.9001
 2586SOL    HW2 8658   5.584   0.602   5.469  1.0500  0.3080  0.2713
 2587SOL     OW 8659   5.879   6.597   5.759 -0.0118 -0.2967 -0.4311
 2587SOL    HW1 8660   5.862   6.585   5.857 -0.2947 -0.5140 -0.5060
 2587SOL    HW2 8661   5.946   6.670   5.746 -0.5492  0.2631 -0.1067
 2588SOL     OW 8662   4.626   1.466   6.099 -0.4131 -0.3786 -0.1879
 2588SOL    HW1 8663   4.685   1.391   6.072 -1.5723 -1.4669  0.1901
 2588SOL    HW2 8664   4.604   1.458   6.197  1.1097  1.6589  0.3935
 2589SOL     OW 8665   1.838   0.385   6.413  0.0473  0.0287  0.0803
 2589SOL    HW1 8666   1.762   0.428   6.460 -0.8262  0.0373 -1.2706
 2589SOL    HW2 8667   1.808   0.300   6.370  0.2221  1.0332 -2.1728
 2590SOL     OW 8668   2.295   0.861   5.036  0.0442  0.9789 -0.6379
 2590SOL    HW1 8669   2.227   0.806   4.987  2.4644 -1.4865 -1.5524
 2590SOL    HW2 8670   2.270   0.957   5.032 -2.5744  0.3399 -2.1518
 2591SOL     OW 8671   4.789   4.626   2.361  0.8610 -0.4246  0.8134
 2591SOL    HW1 8672   4.812   4.720   2.338 -0.9441 -0.2760 -0.6501
 2591SOL    HW2 8673   4.757   4.621   2.455 -0.0197  0.6310  0.5873
 2592SOL     OW 8674   3.245   6.237   1.733 -0.2799  0.6148 -0.2938
 2592SOL    HW1 8675   3.268   6.309   1.798  4.3596 -1.3451  0.6484
 2592SOL    HW2 8676   3.193   6.165   1.780  2.0641 -0.2610  1.1343
 2593SOL     OW 8677   2.055   6.783   1.082 -0.0493 -0.2232  0.5075
 2593SOL    HW1 8678   2.035   6.779   1.180 -0.4739  2.5949  0.6232
 2593SOL    HW2 8679   2.151   6.758   1.067  0.3928  0.5527  1.8354
 2594SOL     OW 8680   0.964   5.724   6.420  0.0694 -0.0366 -0.3453
 2594SOL    HW1 8681   0.881   5.675   6.447 -0.9499  0.7701 -1.9250
 2594SOL    HW2 8682   0.940   5.807   6.370  1.8230 -0.9532 -2.9028
 2595SOL     OW 8683   6.187   2.820   0.300 -0.0826  0.3254  0.2689
 2595SOL    HW1 8684   6.178   2.875   0.217  0.1494  0.3269  0.2426
 2595SOL    HW2 8685   6.242   2.869   0.367 -2.4859  1.5209  1.4877
 2596SOL     OW 8686   3.978   1.030   2.178  0.2475 -0.0802 -0.3074
 2596SOL    HW1 8687   3.919   1.103   2.144  0.6562  0.8773  0.9489
 2596SOL    HW2 8688   3.987   1.037   2.277  0.4370 -1.7567 -0.1750
 2597SOL     OW 8689   2.276   2.872   1.314 -0.3292  0.1753  0.0448
 2597SOL    HW1 8690   2.250   2.864   1.410 -0.5075  0.6186  0.0358
 2597SOL    HW2 8691   2.337   2.797   1.289 -1.2280 -0.6171  0.1850
 2598SOL     OW 8692   4.418   2.396   4.024 -0.2257 -0.6142  0.6818
 2598SOL    HW1 8693   4.362   2.412   3.942  2.1837 -3.4631 -1.7426
 2598SOL    HW2 8694   4.447   2.484   4.061 -3.1098  0.8437 -0.1672
 2599SOL     OW 8695   3.714   6.411   6.865 -0.2304  0.7676 -0.3436
 2599SOL    HW1 8696   3.648   6.335   6.874 -0.7556  1.3322  0.9011
 2599SOL    HW2 8697   3.803   6.374   6.840  0.0579 -0.5760  2.2617
 2600SOL     OW 8698   5.794   3.150   4.537  0.0772 -0.1473 -0.0334
 2600SOL    HW1 8699   5.804   3.156   4.437  0.0280  1.9259  0.0501
 2600SOL    HW2 8700   5.725   3.215   4.567  1.3900  0.5764  1.5462
 2601SOL     OW 8701   2.406   1.462   0.321 -0.3211 -0.4715 -0.0773
 2601SOL    HW1 8702   2.453   1.455   0.233 -0.5237  0.3923 -0.2658
 2601SOL    HW2 8703   2.444   1.396   0.385  1.2480  0.2848 -0.1850
 2602SOL     OW 8704   6.268   5.342   2.483 -0.4154  0.0315 -0.4246
 2602SOL    HW1 8705   6.195   5.399   2.444  0.4947  0.7776 -1.1015
 2602SOL    HW2 8706   6.323   5.304   2.409  0.8208  0.7513  0.0951
 2603SOL     OW 8707   2.840   0.926   1.774 -0.4323  0.3311  0.1268
 2603SOL    HW1 8708   2.776   0.886   1.709 -0.6879  0.3513  0.3659
 2603SOL    HW2 8709   2.924   0.872   1.776 -1.7368 -1.8197  2.3908
 2604SOL     OW 8710   4.510   0.023   1.568 -0.3777 -0.5080 -0.0220
 2604SOL    HW1 8711   4.529   0.076   1.651  0.0106  0.4528 -0.7119
 2604SOL    HW2 8712   4.580  -0.047   1.557  0.1564  0.0327 -0.0899
 2605SOL     OW 8713   5.860   1.200   2.978 -0.1101 -0.5981 -0.0493
 2605SOL    HW1 8714   5.934   1.182   3.043 -0.2919 -0.2877  0.2475
 2605SOL    HW2 8715   5.879   1.152   2.892  0.9685  0.2993 -0.3380
 2606SOL     OW 8716   0.006   4.438   0.391 -0.0674 -0.1817 -0.2397
 2606SOL    HW1 8717  -0.083   4.465   0.354  0.1805  1.2477  0.1738
 2606SOL    HW2 8718   0.005   4.339   0.408 -0.6645 -0.6511 -2.6690
 2607SOL     OW 8719   0.112   2.274   4.472 -0.3142  0.7180 -0.0162
 2607SOL    HW1 8720   0.143   2.180   4.457 -1.5622  0.3276 -0.3159
 2607SOL    HW2 8721   0.185   2.327   4.515  0.2188 -0.5435  0.7049
 2608SOL     OW 8722   5.177   4.156   2.380 -0.0132  0.1088  0.5010
 2608SOL    HW1 8723   5.092   4.105   2.369 -0.9361  1.3812  1.3550
 2608SOL    HW2 8724   5.156   4.254   2.387  1.6511  0.6134 -0.7255
 2609SOL     OW 8725   1.339   2.033   2.188  0.4120  0.5189  0.0123
 2609SOL    HW1 8726   1.420   2.091   2.195  1.3959 -0.9123  1.4365
 2609SOL    HW2 8727   1.367   1.940   2.166 -0.7679 -0.1085  1.0250
 2610SOL     OW 8728   4.816   5.346   3.597  0.0270 -0.2749 -0.9408
 2610SOL    HW1 8729   4.768   5.386   3.675  1.5610 -0.9921  0.4160
 2610SOL    HW2 8730   4.836   5.250   3.616 -0.6559 -0.8131 -2.7599
 2611SOL     OW 8731   5.233   0.669   1.603  0.2210  0.0199 -0.4348
 2611SOL    HW1 8732   5.268   0.593   1.548 -0.1008  1.3412 -2.6268
 2611SOL    HW2 8733   5.291   0.749   1.590 -0.7708  0.8195 -0.1205
 2612SOL     OW 8734   0.051   6.569   5.145 -0.1582 -0.9337 -0.0347
 2612SOL    HW1 8735   0.043   6.609   5.236  1.5970  0.6911 -0.5313
 2612SOL    HW2 8736   0.134   6.514   5.140  1.2979  1.2390 -1.3720
 2613SOL     OW 8737   3.455   6.436   2.439 -0.1453  0.5433 -0.4985
 2613SOL    HW1 8738   3.414   6.514   2.393 -3.2045 -0.2767  0.6259
 2613SOL    HW2 8739   3.479   6.461   2.533  1.9893  0.9681 -1.0928
 2614SOL     OW 8740   6.510   6.901   0.023  0.5929 -0.1415  0.1074
 2614SOL    HW1 8741   6.477   6.872   0.113 -0.4301  1.4984  0.2992
 2614SOL    HW2 8742   6.555   6.824  -0.022  0.6800 -1.1400  1.8042
 2615SOL     OW 8743   5.759   5.519   3.323  0.0352  0.6413 -0.3860
 2615SOL    HW1 8744   5.769   5.424   3.294 -1.0829 -0.0167  1.2495
 2615SOL    HW2 8745   5.846   5.566   3.313  1.9578 -1.7859  2.9021
 2616SOL     OW 8746   3.727   3.282   3.941  0.4085 -0.0129  0.2434
 2616SOL    HW1 8747   3.666   3.209   3.909 -0.0965  0.3684  0.3124
 2616SOL    HW2 8748   3.802   3.294   3.875  1.5637 -1.8370  1.1475
 2617SOL     OW 8749   1.802   6.661   1.102  0.0332 -0.4293  0.6543
 2617SOL    HW1 8750   1.897   6.656   1.069  0.3553  1.5431  1.1643
 2617SOL    HW2 8751   1.796   6.727   1.177 -2.0028  0.5994 -0.3362
 2618SOL     OW 8752   1.585   6.525   4.477 -0.1165  0.1785 -0.1612
 2618SOL    HW1 8753   1.538   6.437   4.489 -0.6318  0.3639 -0.7644
 2618SOL    HW2 8754   1.583   6.551   4.381  1.2286  0.1990 -0.1949
 2619SOL     OW 8755   5.380   2.684   2.991  0.1474  0.5749  0.2786
 2619SOL    HW1 8756   5.329   2.768   2.973 -0.3292 -0.0161 -1.2849
 2619SOL    HW2 8757   5.366   2.620   2.916  1.1463 -0.6030  1.0621
 2620SOL     OW 8758   0.818   6.556   4.122  0.5431 -0.0956  0.5432
 2620SOL    HW1 8759   0.802   6.654   4.138  1.0095 -0.0515  0.7313
 2620SOL    HW2 8760   0.733   6.506   4.140 -0.1084  0.4305 -0.9460
 2621SOL     OW 8761   2.398   0.003   3.402  0.4101  0.4394 -0.4759
 2621SOL    HW1 8762   2.463  -0.067   3.432 -0.8419 -0.6041 -0.0840
 2621SOL    HW2 8763   2.389   0.073   3.473 -0.4283 -0.5253  0.4098
 2622SOL     OW 8764   1.198   1.320   5.424 -0.6278  0.2802 -0.2239
 2622SOL    HW1 8765   1.174   1.227   5.397 -1.0020  0.4851 -0.6054
 2622SOL    HW2 8766   1.158   1.385   5.360  2.9743  0.6034 -2.4002
 2623SOL     OW 8767   2.917   1.353   5.833 -0.3390 -0.5178  0.2764
 2623SOL    HW1 8768   2.932   1.361   5.931  0.7359  1.7438  0.0024
 2623SOL    HW2 8769   2.993   1.304   5.791 -0.5768 -1.0904  0.5078
 2624SOL     OW 8770   5.002   4.159   1.939  0.4505 -0.5507  0.1439
 2624SOL    HW1 8771   4.940   4.179   2.014  1.4172 -1.3844  1.1966
 2624SOL    HW2 8772   4.962   4.190   1.853 -0.5675  0.6460  1.0211
 2625SOL     OW 8773   3.860   3.251   5.412  0.3213 -0.0172  0.3751
 2625SOL    HW1 8774   3.814   3.171   5.452  0.3767  0.2863  1.0504
 2625SOL    HW2 8775   3.807   3.333   5.432  1.3725  0.4064  1.5847
 2626SOL     OW 8776   2.112   6.989   3.924  0.3949 -0.5630 -0.0105
 2626SOL    HW1 8777   2.029   6.973   3.976 -0.8796 -3.2680 -2.5487
 2626SOL    HW2 8778   2.172   6.909   3.931 -0.3215 -1.5456 -3.3242
 2627SOL     OW 8779   6.627   0.620   3.746 -0.6719 -0.0304  0.0168
 2627SOL    HW1 8780   6.530   0.641   3.737 -0.4361  0.9538 -0.3543
 2627SOL    HW2 8781   6.666   0.600   3.656 -0.7565 -1.5524  0.2895
 2628SOL     OW 8782   4.350   5.961   5.167 -0.4313  0.5653  0.0085
 2628SOL    HW1 8783   4.448   5.959   5.183 -0.6191  0.1848  1.2300
 2628SOL    HW2 8784   4.309   6.035   5.222 -0.9353  0.1615  0.1835
 2629SOL     OW 8785   3.891   4.943   1.964  0.0641 -0.2218  0.1460
 2629SOL    HW1 8786   3.808   4.889   1.979 -0.8153  0.7866 -0.8654
 2629SOL    HW2 8787   3.902   5.007   2.040 -1.0543  0.7872 -0.4976
 2630SOL     OW 8788   3.132   1.062   3.773 -0.0719  0.6767  0.6764
 2630SOL    HW1 8789   3.116   1.051   3.872 -0.7301  1.8963  0.7324
 2630SOL    HW2 8790   3.096   1.151   3.744 -1.9689 -0.5904 -1.1019
 2631SOL     OW 8791   5.248   6.525   4.343  0.1763 -0.0234 -0.8461
 2631SOL    HW1 8792   5.181   6.453   4.322 -0.5009  1.2473 -3.3759
 2631SOL    HW2 8793   5.268   6.577   4.260  1.8583  1.7226  0.5764
 2632SOL     OW 8794   1.769   1.526   6.550 -0.2988 -0.0314 -0.2805
 2632SOL    HW1 8795   1.787   1.511   6.453  0.3927 -1.4394  0.0406
 2632SOL    HW2 8796   1.678   1.566   6.561 -0.2414  0.4781 -1.5213
 2633SOL     OW 8797   5.405   1.673   5.853  0.2982 -0.1380 -0.4729
 2633SOL    HW1 8798   5.399   1.574   5.850  0.9348 -0.1738 -0.8342
 2633SOL    HW2 8799   5.320   1.714   5.819  0.0236 -0.5540 -0.2876
 2634SOL     OW 8800   2.196   3.198   4.035  0.1847  0.3570 -0.3772
 2634SOL    HW1 8801   2.185   3.230   3.941  1.3938  0.6115 -0.4416
 2634SOL    HW2 8802   2.195   3.276   4.097  1.9706  0.4543 -0.4290
 2635SOL     OW 8803   5.371   6.133   4.423  1.0311  0.0180  0.0570
 2635SOL    HW1 8804   5.457   6.183   4.437  0.2342  1.6546 -0.5870
 2635SOL    HW2 8805   5.309   6.152   4.499 -0.1964  2.1082 -1.3779
 2636SOL     OW 8806   5.875   1.614   0.541 -0.4988  0.2936 -0.8041
 2636SOL    HW1 8807   5.841   1.698   0.497 -2.1444 -1.7884 -3.8909
 2636SOL    HW2 8808   5.968   1.595   0.509  0.9786  2.1442  1.9526
 2637SOL     OW 8809   6.001   6.573   3.429  0.2496  0.1721  0.1823
 2637SOL    HW1 8810   5.964   6.581   3.522  2.0769  1.5529  0.8274
 2637SOL    HW2 8811   5.952   6.635   3.368 -0.8202 -0.5934  0.2173
 2638SOL     OW 8812   5.600   6.309   2.212  0.1640 -0.2440 -0.0346
 2638SOL    HW1 8813   5.547   6.284   2.131  0.7685 -2.0408  0.0794
 2638SOL    HW2 8814   5.593   6.236   2.280 -0.8221  1.4660  1.8225
 2639SOL     OW 8815   6.596   0.296   4.157  0.3974  0.1011 -0.2860
 2639SOL    HW1 8816   6.583   0.231   4.083 -0.4308  0.3525 -0.3677
 2639SOL    HW2 8817   6.581   0.389   4.123  0.0523  0.2231  0.1783
 2640SOL     OW 8818   5.461   6.681   6.372 -0.3022 -0.1953  0.3271
 2640SOL    HW1 8819   5.467   6.674   6.273 -0.4531 -2.9682  0.4287
 2640SOL    HW2 8820   5.552   6.698   6.411 -0.1218  0.1528 -0.2460
 2641SOL     OW 8821   5.677   2.558   0.349 -0.5989 -0.0472  0.2609
 2641SOL    HW1 8822   5.665   2.461   0.372 -1.1184 -0.0425  0.0259
 2641SOL    HW2 8823   5.774   2.578   0.339 -0.3759 -0.1541  2.0016
 2642SOL     OW 8824   6.013   0.747   4.456 -0.4911  0.0309  0.1637
 2642SOL    HW1 8825   6.000   0.785   4.547  0.3179 -0.0253  0.3106
 2642SOL    HW2 8826   5.926   0.716   4.420 -0.8786  0.4095  0.7608
 2643SOL     OW 8827   0.687   5.697   4.485  0.1841  0.2343 -0.1667
 2643SOL    HW1 8828   0.692   5.677   4.387 -1.3731 -0.3065 -0.1611
 2643SOL    HW2 8829   0.611   5.759   4.503 -0.5194 -0.8843  0.8555
 2644SOL     OW 8830   0.773   4.631   6.595 -0.0938 -0.0299 -0.0127
 2644SOL    HW1 8831   0.755   4.701   6.664 -1.1535 -1.4180  1.1875
 2644SOL    HW2 8832   0.871   4.629   6.574 -0.0303  1.7215 -0.0286
 2645SOL     OW 8833   4.275   6.842   3.371 -0.1999  0.1882 -0.2183
 2645SOL    HW1 8834   4.312   6.826   3.463  0.2606  1.9432 -0.0503
 2645SOL    HW2 8835   4.175   6.840   3.375 -0.2093  1.1920  0.5429
 2646SOL     OW 8836   5.054   5.551   6.638 -0.0829  0.5042 -0.1869
 2646SOL    HW1 8837   5.077   5.595   6.552 -0.9634  2.2171  0.4209
 2646SOL    HW2 8838   5.106   5.593   6.713  1.4018 -1.5926  0.0628
 2647SOL     OW 8839   5.959   0.717   3.115  0.0063 -0.8155 -0.1854
 2647SOL    HW1 8840   6.017   0.680   3.043 -0.1122 -1.1117 -0.1298
 2647SOL    HW2 8841   5.961   0.657   3.195  0.3509 -0.3473  0.1644
 2648SOL     OW 8842   5.677   0.937   6.009 -0.3345 -0.5925 -0.6385
 2648SOL    HW1 8843   5.614   0.957   6.084  1.4037 -0.9781  0.9806
 2648SOL    HW2 8844   5.676   0.839   5.990 -0.4219 -0.5579 -0.8193
 2649SOL     OW 8845   4.197   2.290   6.655 -0.0462 -0.2110  0.3215
 2649SOL    HW1 8846   4.208   2.194   6.684  1.2308 -0.3659 -0.6023
 2649SOL    HW2 8847   4.123   2.296   6.589 -1.2209 -0.2790  1.5927
 2650SOL     OW 8848   0.834   4.142   2.396  0.5563  0.0261 -0.1364
 2650SOL    HW1 8849   0.867   4.109   2.308  0.8966 -0.7134  0.2637
 2650SOL    HW2 8850   0.896   4.112   2.468 -1.4899 -2.3342  0.7690
 2651SOL     OW 8851   1.957   0.760   1.541  0.2118 -0.1675 -0.3138
 2651SOL    HW1 8852   1.979   0.856   1.528  0.4145 -0.4905 -2.7397
 2651SOL    HW2 8853   1.886   0.732   1.476 -1.1885 -1.2523  1.5705
 2652SOL     OW 8854   3.539   3.932   2.870  0.0529 -0.3289 -0.3748
 2652SOL    HW1 8855   3.460   3.871   2.873 -1.5352  1.5293  3.6507
 2652SOL    HW2 8856   3.606   3.903   2.939 -0.1001  1.5762  0.6327
 2653SOL     OW 8857   5.893   0.916   0.447  0.5053 -0.0310 -0.0040
 2653SOL    HW1 8858   5.808   0.953   0.411  0.9610  0.0229 -1.0642
 2653SOL    HW2 8859   5.873   0.845   0.515 -0.3782  0.1536 -0.0676
 2654SOL     OW 8860   6.910   3.897   2.056  0.7740 -0.3370 -0.4029
 2654SOL    HW1 8861   6.956   3.960   2.118  0.5289 -0.9446  0.4163
 2654SOL    HW2 8862   6.974   3.824   2.031  0.1720 -1.4551  1.1270
 2655SOL     OW 8863   6.027   3.205   2.456 -0.0731 -0.1535  0.3293
 2655SOL    HW1 8864   5.965   3.249   2.521 -0.5316 -0.9479  0.4528
 2655SOL    HW2 8865   5.975   3.177   2.375 -0.1778 -1.9677  0.9688
 2656SOL     OW 8866   5.740   5.085   3.005  0.6101  0.7770  0.6716
 2656SOL    HW1 8867   5.702   5.026   3.077 -0.6338  0.7287  0.0100
 2656SOL    HW2 8868   5.833   5.056   2.984  0.6603  0.2052  1.6162
 2657SOL     OW 8869   1.732   4.746   5.632 -0.2515  0.3134 -0.0704
 2657SOL    HW1 8870   1.823   4.787   5.632 -0.0423 -0.1425 -0.3807
 2657SOL    HW2 8871   1.737   4.654   5.593 -0.8909  0.3926 -0.3596
 2658SOL     OW 8872   0.302   3.404   1.513 -0.4121  0.2116 -0.1393
 2658SOL    HW1 8873   0.376   3.338   1.522 -1.3117 -0.7751  0.2123
 2658SOL    HW2 8874   0.219   3.358   1.480 -0.0568  1.8587 -3.8217
 2659SOL     OW 8875   0.197   2.595   4.444  0.5184  0.2641 -0.0293
 2659SOL    HW1 8876   0.231   2.591   4.538  1.3445  0.7028 -0.3049
 2659SOL    HW2 8877   0.189   2.691   4.416 -1.5556  0.2075  0.2355
 2660SOL     OW 8878   6.440   2.806   0.700  0.9789  0.5126  0.0753
 2660SOL    HW1 8879   6.437   2.710   0.672  3.5167  0.6136 -0.8580
 2660SOL    HW2 8880   6.379   2.859   0.642  1.4987 -0.2054 -1.1830
 2661SOL     OW 8881   2.555   6.739   2.637  0.4433 -0.3222  0.1571
 2661SOL    HW1 8882   2.592   6.659   2.591  2.4327  0.4357  0.3233
 2661SOL    HW2 8883   2.612   6.762   2.716 -0.5053  0.8218  0.5511
 2662SOL     OW 8884   5.534   0.495   0.552 -0.0723  0.0659 -0.0240
 2662SOL    HW1 8885   5.448   0.511   0.503  1.0635 -0.3365 -2.2607
 2662SOL    HW2 8886   5.538   0.400   0.582 -0.4533  0.1101  0.1732
 2663SOL     OW 8887   2.649   5.346   0.084  0.0202  0.3111  0.7256
 2663SOL    HW1 8888   2.698   5.303   0.161  0.6130 -1.6284 -0.6433
 2663SOL    HW2 8889   2.557   5.371   0.113 -0.0017 -0.9906  1.9120
 2664SOL     OW 8890   3.925   3.056   3.022  0.0412  0.8400 -0.4980
 2664SOL    HW1 8891   3.937   3.013   2.933 -0.3015 -2.2007  0.8134
 2664SOL    HW2 8892   3.828   3.051   3.048  0.2280  1.1855  0.2844
 2665SOL     OW 8893   1.055   1.654   4.909  0.4367 -0.5117  0.3261
 2665SOL    HW1 8894   1.051   1.663   5.009  1.5385  2.4389  0.2138
 2665SOL    HW2 8895   1.146   1.625   4.882  0.7048  0.4592  0.1427
 2666SOL     OW 8896   4.143   3.230   0.831  0.2482  0.3349  0.0561
 2666SOL    HW1 8897   4.179   3.197   0.918 -1.0570 -0.8465  0.1804
 2666SOL    HW2 8898   4.214   3.222   0.761  0.6297 -0.7561  0.5473
 2667SOL     OW 8899   1.020   4.081   3.876  0.2643  0.1869  0.9574
 2667SOL    HW1 8900   1.062   4.130   3.953 -0.9001  0.7690  1.2400
 2667SOL    HW2 8901   1.017   3.983   3.897  0.1225  0.3166  1.5753
 2668SOL     OW 8902   0.420   1.890   3.770 -0.4715 -0.1702  0.0891
 2668SOL    HW1 8903   0.483   1.858   3.841 -0.4569  1.2605  0.7644
 2668SOL    HW2 8904   0.467   1.895   3.682 -0.1134 -0.6504  0.2499
 2669SOL     OW 8905   3.514   5.508   5.023  0.5479  0.2711  0.9757
 2669SOL    HW1 8906   3.464   5.463   4.948  1.0321 -0.7565  1.2562
 2669SOL    HW2 8907   3.594   5.555   4.986  1.6858 -1.5482  0.9776
 2670SOL     OW 8908   5.906   1.590   5.393  0.1982 -0.4034  0.4314
 2670SOL    HW1 8909   5.990   1.564   5.346  0.4894  0.4918  0.4424
 2670SOL    HW2 8910   5.864   1.509   5.433  0.4439 -1.0359 -0.5574
 2671SOL     OW 8911   4.493   5.286   6.636  0.1609  0.5022 -0.1973
 2671SOL    HW1 8912   4.505   5.314   6.540  0.2917 -1.0427 -0.6585
 2671SOL    HW2 8913   4.517   5.362   6.696 -0.7599  1.7879 -1.3988
 2672SOL     OW 8914   6.294   5.472   0.245  0.7765  0.7854  0.0559
 2672SOL    HW1 8915   6.334   5.382   0.263  1.8320  1.1924 -0.1889
 2672SOL    HW2 8916   6.195   5.466   0.253  0.8508 -0.3280  0.3597
 2673SOL     OW 8917   6.513   0.978   3.889 -0.7336 -0.3742  0.0153
 2673SOL    HW1 8918   6.560   0.927   3.816 -2.4050 -2.0635  0.0381
 2673SOL    HW2 8919   6.540   1.074   3.885  1.5996 -0.9905 -0.8334
 2674SOL     OW 8920   1.509   3.889   4.321  0.0024  0.2864  0.6277
 2674SOL    HW1 8921   1.495   3.979   4.278 -1.5294  0.1663  0.8213
 2674SOL    HW2 8922   1.602   3.884   4.358  0.4781  1.3771 -0.3354
 2675SOL     OW 8923   0.355   4.950   4.350  0.0047  0.2479  0.0593
 2675SOL    HW1 8924   0.450   4.981   4.340  0.2777  0.0178  1.7447
 2675SOL    HW2 8925   0.308   5.008   4.416  0.0583 -1.8771  2.0710
 2676SOL     OW 8926   2.999   0.692   1.489  0.4308 -0.7105 -0.6061
 2676SOL    HW1 8927   2.975   0.672   1.394  0.0797  0.2482 -0.7200
 2676SOL    HW2 8928   3.058   0.772   1.493  1.4361 -1.4435 -0.0981
 2677SOL     OW 8929   3.632   4.556   6.106  0.5771  0.0787  0.1522
 2677SOL    HW1 8930   3.580   4.471   6.098 -2.7626  2.1343 -2.7972
 2677SOL    HW2 8931   3.708   4.555   6.041  0.5329 -0.6294  0.1072
 2678SOL     OW 8932   6.270   3.141   1.450  0.3522 -0.1332 -0.6243
 2678SOL    HW1 8933   6.202   3.135   1.378 -0.0304 -0.1774 -0.2642
 2678SOL    HW2 8934   6.234   3.197   1.525  0.4113 -0.7713 -0.1050
 2679SOL     OW 8935   4.367   4.098   0.715  0.2033 -0.0937  0.0483
 2679SOL    HW1 8936   4.336   4.184   0.755  0.4645 -0.3985  0.9301
 2679SOL    HW2 8937   4.448   4.114   0.659  0.5978  0.1534  0.6765
 2680SOL     OW 8938   2.042   1.975   1.562 -0.2711  0.0124 -0.0314
 2680SOL    HW1 8939   2.004   2.039   1.630  0.2228 -1.6890  1.9414
 2680SOL    HW2 8940   2.016   2.006   1.470 -0.9106  2.4499  0.8766
 2681SOL     OW 8941   1.480   2.629   5.211 -0.1206  0.8031 -0.3138
 2681SOL    HW1 8942   1.529   2.705   5.170 -0.0774  0.8973 -0.0929
 2681SOL    HW2 8943   1.545   2.562   5.246 -0.1580  0.6703 -0.4964
 2682SOL     OW 8944   6.682   3.503   2.330 -0.3714 -0.7819 -0.1469
 2682SOL    HW1 8945   6.619   3.433   2.296  0.4675 -0.3266 -2.9034
 2682SOL    HW2 8946   6.776   3.471   2.320 -0.0251  0.2413 -0.2297
 2683SOL     OW 8947   3.803   3.372   4.976  0.2955  0.2266  0.2572
 2683SOL    HW1 8948   3.845   3.400   5.062  0.6964  1.2366 -0.2592
 2683SOL    HW2 8949   3.737   3.299   4.994  0.0512  0.7237  1.4867
 2684SOL     OW 8950   5.939   0.962   3.605  0.0928 -0.5525 -0.8699
 2684SOL    HW1 8951   5.982   0.897   3.543 -0.1707  0.8283 -2.5670
 2684SOL    HW2 8952   5.850   0.988   3.569 -0.9211 -1.1204  1.0885
 2685SOL     OW 8953   1.625   6.742   5.496  0.4785  0.4137  0.0909
 2685SOL    HW1 8954   1.537   6.786   5.481  1.5374  3.6109  2.0949
 2685SOL    HW2 8955   1.686   6.763   5.420 -0.0999 -0.8588 -0.7564
 2686SOL     OW 8956   1.248   2.394   0.120 -0.2733 -0.2064 -0.1797
 2686SOL    HW1 8957   1.160   2.388   0.073  0.0342 -2.2798 -0.5453
 2686SOL    HW2 8958   1.317   2.431   0.058 -0.1199 -1.8951 -1.0636
 2687SOL     OW 8959   5.330   6.439   3.728  0.0686 -1.0402  0.3823
 2687SOL    HW1 8960   5.291   6.354   3.764 -0.0297 -2.0439 -1.8815
 2687SOL    HW2 8961   5.365   6.422   3.636  0.4851  1.2923  0.0609
 2688SOL     OW 8962   6.262   6.749   6.943  0.1439 -0.1546 -0.2246
 2688SOL    HW1 8963   6.241   6.843   6.969  0.2526 -0.4122  0.8470
 2688SOL    HW2 8964   6.177   6.696   6.938 -0.0355  0.2341 -1.8943
 2689SOL     OW 8965   3.159   1.891   4.699 -0.3833  0.2335  0.1952
 2689SOL    HW1 8966   3.240   1.877   4.643 -0.5926  0.3626 -0.1402
 2689SOL    HW2 8967   3.172   1.971   4.758  0.2104 -0.4573  1.0181
 2690SOL     OW 8968   4.067   3.296   2.930  0.4535 -0.1697 -0.0745
 2690SOL    HW1 8969   4.024   3.207   2.946 -1.0923  0.3069 -1.4397
 2690SOL    HW2 8970   4.124   3.319   3.010 -1.2845 -1.1235  1.5302
 2691SOL     OW 8971   0.152   4.275   2.060  0.2850  0.2974  0.1374
 2691SOL    HW1 8972   0.162   4.331   1.977 -2.4016  0.2238 -0.3241
 2691SOL    HW2 8973   0.127   4.334   2.136  2.3494  0.3057  0.8611
 2692SOL     OW 8974   4.322   5.055   4.949 -0.4453  0.6862  0.2220
 2692SOL    HW1 8975   4.236   5.082   4.992 -2.0290 -2.8259 -0.3614
 2692SOL    HW2 8976   4.377   5.004   5.016 -1.0944 -1.2706 -0.6537
 2693SOL     OW 8977   1.149   4.126   2.392 -0.5452 -0.0548  0.5526
 2693SOL    HW1 8978   1.179   4.097   2.483 -0.4684  0.8887  0.8326
 2693SOL    HW2 8979   1.227   4.162   2.341  0.0332 -3.0228 -0.9255
 2694SOL     OW 8980   4.207   6.566   1.924  0.0317  0.1996 -0.2286
 2694SOL    HW1 8981   4.240   6.479   1.886 -1.1445  0.1482 -1.2122
 2694SOL    HW2 8982   4.224   6.639   1.859 -1.1818  0.2731 -0.4800
 2695SOL     OW 8983   6.808   1.334   2.578  0.5366 -0.5198 -0.2899
 2695SOL    HW1 8984   6.798   1.336   2.678  0.2563  0.2525 -0.3256
 2695SOL    HW2 8985   6.904   1.346   2.554  0.6208 -0.8194 -0.1125
 2696SOL     OW 8986   4.275   3.510   5.600  0.1105 -0.1734  0.1512
 2696SOL    HW1 8987   4.189   3.475   5.636 -1.2358  2.7400  0.0757
 2696SOL    HW2 8988   4.272   3.509   5.500  0.6379 -1.0181  0.1296
 2697SOL     OW 8989   4.238   0.559   2.169  0.0641 -0.1209  0.0348
 2697SOL    HW1 8990   4.206   0.653   2.180 -1.2646 -0.8089  3.0757
 2697SOL    HW2 8991   4.161   0.500   2.146  0.1674 -0.9392  1.6328
 2698SOL     OW 8992   2.251   5.595   1.195 -0.0644 -0.0793 -0.2321
 2698SOL    HW1 8993   2.174   5.653   1.168 -1.8693 -3.3294 -2.7194
 2698SOL    HW2 8994   2.255   5.590   1.295 -1.1121  2.5091  0.0247
 2699SOL     OW 8995   3.487   5.281   6.886  0.6104  0.2839 -0.4433
 2699SOL    HW1 8996   3.535   5.223   6.821  0.2478 -0.2896 -0.2064
 2699SOL    HW2 8997   3.388   5.265   6.878  0.5631  0.1791  0.2667
 2700SOL     OW 8998   2.018   3.516   2.237  0.1989  0.4927  0.7727
 2700SOL    HW1 8999   2.049   3.423   2.220 -1.2349  0.0204  0.6339
 2700SOL    HW2 9000   2.076   3.580   2.188  1.0007 -0.3472  0.6096
 2701SOL     OW 9001   2.686   6.936   5.434 -0.1013 -0.1918  0.5909
 2701SOL    HW1 9002   2.671   6.945   5.336  0.5013 -0.0134  0.5164
 2701SOL    HW2 9003   2.608   6.976   5.483  0.3798  1.2989  0.2039
 2702SOL     OW 9004   0.617   3.965   4.340 -0.0668 -0.5028  0.5029
 2702SOL    HW1 9005   0.638   4.009   4.427  1.0211 -1.1303  0.5671
 2702SOL    HW2 9006   0.645   4.025   4.265 -1.4806  0.2695  0.5520
 2703SOL     OW 9007   3.352   0.336   3.565  0.3529 -0.3202  0.2048
 2703SOL    HW1 9008   3.360   0.412   3.500 -0.1197  0.3324  0.8943
 2703SOL    HW2 9009   3.379   0.367   3.656  2.3999 -1.6009  0.1021
 2704SOL     OW 9010   6.729   6.102   0.251  0.4790  0.4071  0.2868
 2704SOL    HW1 9011   6.689   6.011   0.259  0.1064  0.7037  2.4493
 2704SOL    HW2 9012   6.731   6.129   0.155 -0.7256 -1.2738 -0.2670
 2705SOL     OW 9013   1.408   3.580   0.271 -0.3321  0.5663  0.0041
 2705SOL    HW1 9014   1.462   3.589   0.187 -1.0778  0.3664 -0.5163
 2705SOL    HW2 9015   1.330   3.643   0.267  0.3532  1.5057  1.1492
 2706SOL     OW 9016   6.515   1.288   1.490  0.8096 -0.0146 -0.2911
 2706SOL    HW1 9017   6.417   1.288   1.510  0.7603 -0.4032 -0.5133
 2706SOL    HW2 9018   6.542   1.198   1.457  1.2435  0.0911 -0.2337
 2707SOL     OW 9019   2.333   5.252   4.843  0.1427  0.7263 -0.0863
 2707SOL    HW1 9020   2.269   5.284   4.914 -1.2078 -0.9755 -0.4527
 2707SOL    HW2 9021   2.426   5.261   4.876 -0.4598 -0.3176  2.1062
 2708SOL     OW 9022   1.398   2.317   6.464 -0.4375  0.1887  0.0625
 2708SOL    HW1 9023   1.429   2.394   6.520 -1.8770  1.2983 -0.6072
 2708SOL    HW2 9024   1.422   2.335   6.368 -1.6531  0.3101 -0.2376
 2709SOL     OW 9025   5.538   0.039   2.586  0.9766 -0.0250 -0.7044
 2709SOL    HW1 9026   5.446   0.001   2.575  0.2810  1.6184 -0.8602
 2709SOL    HW2 9027   5.570   0.074   2.498  0.0495  3.0077  0.0462
 2710SOL     OW 9028   6.790   2.463   2.260 -0.0137 -0.0647  0.6346
 2710SOL    HW1 9029   6.731   2.540   2.285  2.8339  2.5635 -0.2313
 2710SOL    HW2 9030   6.849   2.489   2.184 -0.4973 -3.9770 -1.3036
 2711SOL     OW 9031   4.208   0.411   4.728 -0.0547 -0.0609 -0.3249
 2711SOL    HW1 9032   4.122   0.455   4.756  0.8314  1.3265  0.3425
 2711SOL    HW2 9033   4.273   0.414   4.804  1.0101  0.0292 -1.2111
 2712SOL     OW 9034   2.434   4.846   0.845 -0.0337  0.4201 -0.2729
 2712SOL    HW1 9035   2.415   4.751   0.817  2.6911 -0.1276 -0.4650
 2712SOL    HW2 9036   2.394   4.908   0.777 -0.1954 -0.6425 -1.1929
 2713SOL     OW 9037   1.850   3.146   5.558 -0.3467  0.0132 -0.1589
 2713SOL    HW1 9038   1.859   3.118   5.653 -2.5650 -0.8944 -0.1655
 2713SOL    HW2 9039   1.755   3.172   5.539  0.4285  2.0089 -1.6720
 2714SOL     OW 9040   4.806   6.486   1.304 -0.1353  0.3692 -0.1756
 2714SOL    HW1 9041   4.891   6.515   1.261  0.2731  0.0084  0.3804
 2714SOL    HW2 9042   4.728   6.519   1.250  0.3576  0.2039 -1.0029
 2715SOL     OW 9043   6.595   0.570   0.674  1.1220 -0.8115  0.3600
 2715SOL    HW1 9044   6.597   0.475   0.706  2.1330 -0.9026  0.0726
 2715SOL    HW2 9045   6.611   0.572   0.575 -3.2514 -0.6329 -0.5191
 2716SOL     OW 9046   5.959   5.294   3.024 -0.4231 -0.7425 -0.2848
 2716SOL    HW1 9047   5.867   5.324   3.050 -0.3695 -1.3000  0.5750
 2716SOL    HW2 9048   6.000   5.243   3.099  1.2728  0.9434 -0.0004
 2717SOL     OW 9049   1.457   4.963   1.874 -0.1899 -0.1582 -0.3921
 2717SOL    HW1 9050   1.395   4.902   1.925  1.0246 -0.1535  1.1848
 2717SOL    HW2 9051   1.550   4.950   1.908  0.5064  0.6464 -1.9354
 2718SOL     OW 9052   1.445   4.147   4.212  0.1046  0.4461  0.7710
 2718SOL    HW1 9053   1.455   4.178   4.307 -1.4115  2.7179  0.2576
 2718SOL    HW2 9054   1.503   4.202   4.152 -1.7885  1.6696 -0.0317
 2719SOL     OW 9055   5.312   4.668   1.595  0.5316  0.4871  0.0220
 2719SOL    HW1 9056   5.322   4.766   1.576  2.4097  0.3396  0.0263
 2719SOL    HW2 9057   5.301   4.618   1.509  1.1500  0.5746 -0.1160
 2720SOL     OW 9058   3.675   0.443   1.011 -0.0498  0.0246  0.7579
 2720SOL    HW1 9059   3.671   0.416   0.915 -1.3331 -2.0501  1.3426
 2720SOL    HW2 9060   3.649   0.539   1.019  1.9626  0.8218 -1.1196
 2721SOL     OW 9061   3.199   0.681   4.036 -0.0171 -0.3172  0.2523
 2721SOL    HW1 9062   3.234   0.588   4.040  1.0303  0.0448 -0.2381
 2721SOL    HW2 9063   3.180   0.706   3.941  2.0830  0.8087  0.0842
 2722SOL     OW 9064   5.862   5.678   2.098 -0.3666 -0.3270  0.2756
 2722SOL    HW1 9065   5.835   5.609   2.030  1.2927 -2.0759  1.3181
 2722SOL    HW2 9066   5.818   5.657   2.186 -0.6479  0.5584  0.3564
 2723SOL     OW 9067   1.045   1.314   3.601  0.3081  0.8855  0.6335
 2723SOL    HW1 9068   1.127   1.286   3.551 -0.5317 -0.3787 -0.1064
 2723SOL    HW2 9069   1.018   1.240   3.663  0.6702  1.9673  2.1383
 2724SOL     OW 9070   2.294   5.851   4.404  0.0428 -0.2080  0.1452
 2724SOL    HW1 9071   2.201   5.840   4.368 -0.5950  0.7648  1.4023
 2724SOL    HW2 9072   2.290   5.857   4.504  1.6206 -1.5783  0.3334
 2725SOL     OW 9073   0.217   4.653   2.542  0.3842 -0.0856  0.1084
 2725SOL    HW1 9074   0.264   4.647   2.453  1.3394  1.1138  0.4991
 2725SOL    HW2 9075   0.223   4.747   2.576 -1.6659 -0.0817  0.5604
 2726SOL     OW 9076   2.167   2.379   0.478 -0.0481  0.1796 -0.1040
 2726SOL    HW1 9077   2.238   2.447   0.498  1.0756 -0.5341 -1.4938
 2726SOL    HW2 9078   2.185   2.296   0.529 -0.7131  0.4816  0.6351
 2727SOL     OW 9079   7.020   5.662   2.251  0.2129  0.5645 -0.3221
 2727SOL    HW1 9080   6.977   5.582   2.293  2.0507  0.1562  0.8624
 2727SOL    HW2 9081   6.965   5.691   2.172 -1.0413 -1.2187 -0.1708
 2728SOL     OW 9082   3.922   1.002   6.946  0.4471  0.3941 -0.1713
 2728SOL    HW1 9083   4.010   1.024   6.986  0.3690 -2.3773  1.8667
 2728SOL    HW2 9084   3.934   0.935   6.872  0.1632  1.4410 -1.1916
 2729SOL     OW 9085   5.964   5.038   1.640  0.1858 -0.6067 -0.2610
 2729SOL    HW1 9086   6.056   5.073   1.657  0.1048 -1.4983  2.4723
 2729SOL    HW2 9087   5.899   5.114   1.641  0.8201  0.0558 -2.4059
 2730SOL     OW 9088   1.740   4.513   1.486  0.0900 -0.6823 -0.2746
 2730SOL    HW1 9089   1.715   4.573   1.561 -0.5215 -0.6866 -0.4716
 2730SOL    HW2 9090   1.754   4.567   1.403  1.3112 -0.6099 -0.0431
 2731SOL     OW 9091   3.582   4.081   2.020  0.2586  0.1860  0.5776
 2731SOL    HW1 9092   3.625   3.993   1.997  0.5697  0.3200  0.6434
 2731SOL    HW2 9093   3.597   4.102   2.116  2.6128  1.6216 -0.0032
 2732SOL     OW 9094   6.785   2.529   1.698  0.2400 -0.1483 -0.0545
 2732SOL    HW1 9095   6.800   2.547   1.601 -0.3781  0.1237 -0.1045
 2732SOL    HW2 9096   6.862   2.563   1.750  0.6720 -0.4782 -0.4675
 2733SOL     OW 9097   0.511   0.245   4.263 -0.2510 -0.0963  0.2865
 2733SOL    HW1 9098   0.465   0.209   4.344 -0.0411 -0.5108  0.2281
 2733SOL    HW2 9099   0.588   0.185   4.240 -0.0336  0.2758  0.0512
 2734SOL     OW 9100   0.724   6.026   1.629  0.0543 -0.0481  0.6882
 2734SOL    HW1 9101   0.656   5.957   1.605  2.2729 -2.7927  1.7246
 2734SOL    HW2 9102   0.734   6.029   1.728  2.1959 -0.5922  0.5326
 2735SOL     OW 9103   6.399   4.801   2.085  0.1594  0.2754 -0.0656
 2735SOL    HW1 9104   6.308   4.763   2.101  1.6521 -3.3158  0.8578
 2735SOL    HW2 9105   6.414   4.813   1.987 -1.5303  1.7130 -0.1913
 2736SOL     OW 9106   4.691   0.545   5.313 -0.0687  0.1707  0.8012
 2736SOL    HW1 9107   4.637   0.630   5.308  1.2275  1.0423  1.1211
 2736SOL    HW2 9108   4.700   0.507   5.221 -0.8411  0.2447  0.6809
 2737SOL     OW 9109   3.310   4.036   5.480 -0.4489  0.6980  0.2163
 2737SOL    HW1 9110   3.242   4.107   5.501  0.7515  2.9636 -2.8079
 2737SOL    HW2 9111   3.278   3.980   5.404  0.1837  0.4273  0.1410
 2738SOL     OW 9112   4.583   5.986   4.852 -0.0571  0.3930  0.1172
 2738SOL    HW1 9113   4.542   6.022   4.768 -0.8782  0.8473  0.6969
 2738SOL    HW2 9114   4.602   5.888   4.841  0.0244  0.4928 -0.6592
 2739SOL     OW 9115   5.682   5.039   6.721  0.4399  0.0380  0.1363
 2739SOL    HW1 9116   5.593   5.066   6.758 -0.5032 -2.8366  0.2507
 2739SOL    HW2 9117   5.754   5.063   6.787 -0.6452 -0.4183  1.5453
 2740SOL     OW 9118   0.311   4.095   1.681 -0.3274 -0.1782  0.1807
 2740SOL    HW1 9119   0.389   4.032   1.679 -2.0890 -2.6428  2.0547
 2740SOL    HW2 9120   0.324   4.161   1.755 -0.0617 -0.7173  0.6291
 2741SOL     OW 9121   0.221   1.457   1.030  0.1526 -0.0380  0.2565
 2741SOL    HW1 9122   0.178   1.367   1.033 -1.4587  0.6939  0.3179
 2741SOL    HW2 9123   0.298   1.456   0.966 -1.1570 -0.9190 -1.3851
 2742SOL     OW 9124   2.588   6.195   6.788 -0.2655  0.1963  0.2795
 2742SOL    HW1 9125   2.676   6.236   6.766  0.7495 -1.2838  1.3871
 2742SOL    HW2 9126   2.567   6.210   6.885 -0.8366 -0.1717  0.2210
 2743SOL     OW 9127   6.368   0.301   3.395  0.0017  0.1722 -0.1978
 2743SOL    HW1 9128   6.299   0.353   3.445 -0.3343 -0.4853  0.0448
 2743SOL    HW2 9129   6.332   0.279   3.304 -1.0364 -1.9881  0.6471
 2744SOL     OW 9130   5.027   1.280   1.266 -0.0759 -0.0564 -0.2191
 2744SOL    HW1 9131   4.944   1.274   1.321 -0.2166  0.4886 -0.3684
 2744SOL    HW2 9132   5.080   1.196   1.278 -1.5934 -1.2901 -1.6560
 2745SOL     OW 9133   1.062   5.305   5.191 -0.8125  0.0664 -0.0571
 2745SOL    HW1 9134   1.135   5.350   5.140 -0.7639  0.5825  0.4541
 2745SOL    HW2 9135   1.093   5.215   5.221 -1.7511 -1.4541 -3.2125
 2746SOL     OW 9136   2.052   1.775   0.515 -0.0305  0.0771 -0.3160
 2746SOL    HW1 9137   2.019   1.717   0.441 -3.6424  2.7803 -1.1170
 2746SOL    HW2 9138   2.085   1.862   0.478  1.0308  0.3192  1.0910
 2747SOL     OW 9139   6.392   5.076   5.742 -0.0064 -0.0572  0.4897
 2747SOL    HW1 9140   6.341   5.146   5.692  0.0899 -1.0377 -1.0721
 2747SOL    HW2 9141   6.466   5.042   5.684  0.2077 -1.1585  1.3797
 2748SOL     OW 9142   3.888   2.186   6.109  0.0150  0.6262  0.1859
 2748SOL    HW1 9143   3.834   2.106   6.134  0.0036  0.8386  0.8742
 2748SOL    HW2 9144   3.966   2.158   6.053 -0.8464  0.3310 -0.8699
 2749SOL     OW 9145   5.436   4.616   2.494  0.2872  0.3084  0.1008
 2749SOL    HW1 9146   5.452   4.534   2.548  0.1673  0.9955  1.2169
 2749SOL    HW2 9147   5.379   4.593   2.415  1.9696 -1.0553 -0.7696
 2750SOL     OW 9148   0.066   6.105   1.745 -0.1109 -0.6296  0.3112
 2750SOL    HW1 9149   0.113   6.179   1.698  0.3390  0.6157  2.5482
 2750SOL    HW2 9150   0.130   6.056   1.804 -1.3319  0.5877  2.8160
 2751SOL     OW 9151   2.334   6.171   0.001 -0.4521  0.0249  0.1023
 2751SOL    HW1 9152   2.246   6.177   0.048 -1.2014  1.8889 -1.4630
 2751SOL    HW2 9153   2.352   6.255  -0.049  1.8838 -0.6169 -0.2693
 2752SOL     OW 9154   4.923   5.213   5.337 -0.2080  0.4660 -0.0674
 2752SOL    HW1 9155   4.898   5.277   5.265  0.3079  1.1194  0.3151
 2752SOL    HW2 9156   5.022   5.217   5.353 -0.5990  2.6703  2.7566
 2753SOL     OW 9157   1.306   0.209   6.201 -0.5550  0.2851  0.3687
 2753SOL    HW1 9158   1.371   0.253   6.139 -0.1321  1.8704  1.8633
 2753SOL    HW2 9159   1.355   0.160   6.273 -1.0404 -1.0276 -0.1638
 2754SOL     OW 9160   1.050   3.128   5.730 -0.5320  0.4591  0.3438
 2754SOL    HW1 9161   1.050   3.149   5.828  0.6341 -0.4594  0.5556
 2754SOL    HW2 9162   1.065   3.213   5.679 -3.0793  1.2998  0.8248
 2755SOL     OW 9163   0.557   6.694   4.184  0.2087 -0.4456  0.1055
 2755SOL    HW1 9164   0.457   6.700   4.175  0.2062  1.4806  1.0285
 2755SOL    HW2 9165   0.580   6.667   4.278  0.5685 -0.8946 -0.1072
 2756SOL     OW 9166   6.007   3.780   3.564 -0.7682 -0.3778  0.3828
 2756SOL    HW1 9167   5.914   3.787   3.528  0.6722 -1.9409 -4.4929
 2756SOL    HW2 9168   6.017   3.692   3.611 -1.6693 -0.3573  0.6379
 2757SOL     OW 9169   2.269   6.842   5.311 -0.0366 -0.1873 -0.2604
 2757SOL    HW1 9170   2.206   6.861   5.387 -0.9671 -1.9790 -0.5335
 2757SOL    HW2 9171   2.314   6.927   5.284 -1.8470  1.0481  0.3937
 2758SOL     OW 9172   5.200   6.831   6.829 -0.3294  0.4783 -0.5237
 2758SOL    HW1 9173   5.139   6.903   6.797  1.3805  1.7353 -1.0715
 2758SOL    HW2 9174   5.242   6.785   6.751 -0.1795 -0.0249 -0.1504
 2759SOL     OW 9175   4.926   5.634   5.296 -0.6554 -0.3230  0.1874
 2759SOL    HW1 9176   5.025   5.627   5.307 -0.5640 -1.5735 -1.0017
 2759SOL    HW2 9177   4.881   5.630   5.385  0.3477 -0.2788  0.7010
 2760SOL     OW 9178   5.611   4.951   3.210  0.6459  0.0955 -0.6804
 2760SOL    HW1 9179   5.657   4.931   3.297  1.6575  0.3039 -1.1542
 2760SOL    HW2 9180   5.522   4.992   3.229  0.1108 -1.4000  0.2655
 2761SOL     OW 9181   2.124   3.702   3.765 -0.3364  0.0236 -0.0822
 2761SOL    HW1 9182   2.159   3.637   3.832  1.0708  0.1516 -0.6499
 2761SOL    HW2 9183   2.079   3.653   3.691 -0.6564 -0.1982  0.2546
 2762SOL     OW 9184   1.257   2.479   5.045 -0.0113 -0.0394  0.5705
 2762SOL    HW1 9185   1.298   2.570   5.048 -0.2099  0.0468  0.7215
 2762SOL    HW2 9186   1.219   2.457   5.135  0.9820 -0.7135  0.8354
 2763SOL     OW 9187   5.980   1.744   4.688  0.2666  0.2648 -0.0319
 2763SOL    HW1 9188   6.030   1.668   4.728 -2.5855 -1.4142  0.6733
 2763SOL    HW2 9189   5.957   1.810   4.759 -0.6417 -0.2626  0.1814
 2764SOL     OW 9190   1.381   5.791   0.664 -0.2708 -0.1726  0.4359
 2764SOL    HW1 9191   1.464   5.790   0.718 -0.9365 -1.8359  1.4856
 2764SOL    HW2 9192   1.321   5.865   0.695  0.0106 -0.1546  0.9274
 2765SOL     OW 9193   0.959   6.732   0.005  0.1048  0.3004  0.3811
 2765SOL    HW1 9194   0.862   6.710  -0.005  0.7543 -2.4808 -0.8636
 2765SOL    HW2 9195   0.983   6.735   0.102 -0.9251 -0.5902  0.6813
 2766SOL     OW 9196   3.799   6.634   3.898 -0.1870 -0.1927  0.1092
 2766SOL    HW1 9197   3.842   6.546   3.879 -2.1624 -1.1001 -0.4173
 2766SOL    HW2 9198   3.778   6.640   3.996 -2.3887 -1.5286 -0.1917
 2767SOL     OW 9199   0.966   6.494   5.978  0.4777 -0.5948  0.2436
 2767SOL    HW1 9200   1.063   6.516   5.992  1.0350 -0.6566 -2.9168
 2767SOL    HW2 9201   0.953   6.395   5.985  1.0494 -0.7920 -1.1386
 2768SOL     OW 9202   4.967   1.555   6.933 -0.1551  0.2860  0.3243
 2768SOL    HW1 9203   4.916   1.641   6.932  0.0008  0.3979 -1.7000
 2768SOL    HW2 9204   4.949   1.504   6.849 -1.3839 -2.4083  2.0760
 2769SOL     OW 9205   2.547   6.104   0.835  0.2758  0.3830 -0.3645
 2769SOL    HW1 9206   2.448   6.102   0.829  0.1323  0.8076  1.3851
 2769SOL    HW2 9207   2.585   6.141   0.749 -1.0356  0.0286 -1.1256
 2770SOL     OW 9208   4.600   6.349   5.875  0.2453  0.1712 -0.4492
 2770SOL    HW1 9209   4.502   6.363   5.858  0.4445  0.0477 -1.7725
 2770SOL    HW2 9210   4.628   6.407   5.951 -0.3705  2.0548 -1.5793
 2771SOL     OW 9211   6.156   0.239   5.044  0.2185 -0.0547  0.3779
 2771SOL    HW1 9212   6.138   0.144   5.020  0.4768  0.1290 -0.5784
 2771SOL    HW2 9213   6.111   0.260   5.131  0.5494 -1.1688  0.8395
 2772SOL     OW 9214   2.787   6.414   1.951 -0.7602 -0.2760 -0.7199
 2772SOL    HW1 9215   2.784   6.325   1.906 -0.9916 -1.2229  1.0614
 2772SOL    HW2 9216   2.695   6.453   1.954 -1.0363 -0.9843  0.3643
 2773SOL     OW 9217   0.886   2.359   4.151  0.2030 -0.9944  0.3293
 2773SOL    HW1 9218   0.815   2.419   4.112  1.4252 -1.9233 -3.8279
 2773SOL    HW2 9219   0.842   2.280   4.193 -1.2877 -0.3741  0.0368
 2774SOL     OW 9220   4.561   2.624   2.149 -0.5507 -0.3642 -1.2014
 2774SOL    HW1 9221   4.547   2.600   2.053 -1.6238  3.1830 -2.0722
 2774SOL    HW2 9222   4.473   2.634   2.194 -0.0719 -1.0259 -0.0784
 2775SOL     OW 9223   4.597   4.673   2.015 -0.1765  0.6740 -0.1363
 2775SOL    HW1 9224   4.575   4.692   1.919  0.9264  1.2052 -0.2951
 2775SOL    HW2 9225   4.675   4.611   2.019 -0.0727  0.8389  0.4317
 2776SOL     OW 9226   5.329   6.107   5.757 -0.1272  0.4190  0.0390
 2776SOL    HW1 9227   5.333   6.119   5.856 -0.0723  0.2720  0.0550
 2776SOL    HW2 9228   5.287   6.019   5.736 -0.1215  0.4411 -0.0680
 2777SOL     OW 9229   2.425   0.477   4.631 -1.0136 -0.2325  0.5247
 2777SOL    HW1 9230   2.471   0.421   4.561 -1.9274 -0.2554 -0.0780
 2777SOL    HW2 9231   2.490   0.543   4.669 -0.1593 -1.0887  0.5930
 2778SOL     OW 9232   1.537   6.176   0.102 -0.1528 -0.7745 -0.0490
 2778SOL    HW1 9233   1.447   6.210   0.127  0.4921  0.4512  0.7021
 2778SOL    HW2 9234   1.594   6.253   0.072  0.5287 -1.5863 -0.8715
 2779SOL     OW 9235   5.908   0.447   1.745 -0.5302 -0.4832 -0.3288
 2779SOL    HW1 9236   5.861   0.430   1.832 -0.6606 -1.5267 -0.5792
 2779SOL    HW2 9237   6.000   0.482   1.763 -0.5222 -0.7783  0.2398
 2780SOL     OW 9238   5.836   0.241   0.065 -0.2172 -0.6801 -0.3208
 2780SOL    HW1 9239   5.857   0.273   0.157 -0.3307 -2.7806  0.4902
 2780SOL    HW2 9240   5.918   0.200   0.025 -0.9993 -3.0380  0.3195
 2781SOL     OW 9241   0.872   0.354   3.976 -0.4484 -0.0730  0.5680
 2781SOL    HW1 9242   0.864   0.362   4.075  1.4975 -1.3891  0.8851
 2781SOL    HW2 9243   0.818   0.275   3.945 -1.9507  0.9849  0.3893
 2782SOL     OW 9244   3.386   1.461   5.282 -0.6830 -0.3523 -0.0748
 2782SOL    HW1 9245   3.414   1.554   5.255  1.3613 -0.4188  1.5243
 2782SOL    HW2 9246   3.288   1.460   5.299 -1.0797  1.0264 -1.9282
 2783SOL     OW 9247   5.056   3.414   0.834 -0.6160 -0.5570  0.2066
 2783SOL    HW1 9248   5.049   3.511   0.854 -2.4856 -0.6159  0.0239
 2783SOL    HW2 9249   5.043   3.399   0.735  0.5220 -0.9371  0.0955
 2784SOL     OW 9250   0.857   0.880   0.692 -0.2042  0.2937  0.3031
 2784SOL    HW1 9251   0.909   0.803   0.654  3.5244  2.1689  1.1584
 2784SOL    HW2 9252   0.825   0.938   0.617  0.0290 -0.2344 -0.2144
 2785SOL     OW 9253   4.524   0.548   5.928  0.4011  0.0383 -0.1501
 2785SOL    HW1 9254   4.465   0.470   5.950 -1.1839  1.6414  1.6418
 2785SOL    HW2 9255   4.619   0.525   5.951  0.0398 -1.4939 -0.0450
 2786SOL     OW 9256   5.142   4.637   1.068 -0.3895 -0.3333  0.1112
 2786SOL    HW1 9257   5.164   4.542   1.043  2.9965  0.8171 -2.0293
 2786SOL    HW2 9258   5.203   4.667   1.140 -0.6282  0.5531 -0.0501
 2787SOL     OW 9259   0.501   5.701   4.784  0.0877 -0.0306 -0.3793
 2787SOL    HW1 9260   0.557   5.620   4.797  2.1060  1.5852  2.0401
 2787SOL    HW2 9261   0.410   5.686   4.823  0.6327 -0.9345  0.5883
 2788SOL     OW 9262   2.344   6.112   5.878 -0.0294  0.3476 -0.2846
 2788SOL    HW1 9263   2.390   6.074   5.798  0.2726  0.5066 -0.1873
 2788SOL    HW2 9264   2.285   6.042   5.918 -0.8935  0.5423 -1.1780
 2789SOL     OW 9265   1.111   1.160   3.073 -0.2317  0.1715 -0.3334
 2789SOL    HW1 9266   1.161   1.195   2.994 -0.4785  1.5967  0.1294
 2789SOL    HW2 9267   1.042   1.226   3.103 -0.4540 -0.5309  0.8082
 2790SOL     OW 9268   3.270   6.824   0.434  0.2040  0.3056  0.1723
 2790SOL    HW1 9269   3.243   6.834   0.338 -1.6128 -0.7966  0.5312
 2790SOL    HW2 9270   3.253   6.909   0.483 -2.0802 -0.1148  0.2176
 2791SOL     OW 9271   6.433   4.823   0.571  0.0061 -0.2698 -0.0414
 2791SOL    HW1 9272   6.473   4.733   0.551  0.3014  0.0605 -0.9898
 2791SOL    HW2 9273   6.392   4.861   0.488 -1.5051 -0.1975  0.7095
 2792SOL     OW 9274   2.855   0.890   4.481 -0.0737 -0.4528 -1.0187
 2792SOL    HW1 9275   2.933   0.951   4.490  1.1859 -1.8585 -1.9509
 2792SOL    HW2 9276   2.791   0.927   4.413  0.0757  0.3978 -0.7034
 2793SOL     OW 9277   4.904   3.556   1.359 -0.2418  0.3877  0.1115
 2793SOL    HW1 9278   4.834   3.625   1.378 -0.5366  0.2976 -0.6269
 2793SOL    HW2 9279   4.971   3.556   1.433 -0.6425  0.9551  0.4839
 2794SOL     OW 9280   6.823   0.733   5.537  0.5586  0.0159  0.3748
 2794SOL    HW1 9281   6.825   0.785   5.451  0.8404 -1.0707 -0.2993
 2794SOL    HW2 9282   6.819   0.635   5.516 -0.7472 -0.2180  1.6161
 2795SOL     OW 9283   6.405   5.424   1.153  0.3920  0.1741 -0.1794
 2795SOL    HW1 9284   6.405   5.371   1.238  0.3397 -0.8572 -0.7946
 2795SOL    HW2 9285   6.422   5.520   1.173 -0.4904  0.0969  1.0780
 2796SOL     OW 9286   0.503   4.852   3.932 -1.0298 -0.5226  0.0541
 2796SOL    HW1 9287   0.543   4.927   3.879 -1.2986 -0.4602 -0.0570
 2796SOL    HW2 9288   0.570   4.777   3.939 -1.4394 -1.0698 -1.4657
 2797SOL     OW 9289   6.230   5.260   6.409 -0.9416 -0.8428  0.1877
 2797SOL    HW1 9290   6.187   5.170   6.408 -2.3827 -0.3807  3.9560
 2797SOL    HW2 9291   6.317   5.255   6.459 -0.4084 -0.3245 -0.6575
 2798SOL     OW 9292   6.676   6.625   2.578  0.3115  0.5138 -0.0706
 2798SOL    HW1 9293   6.725   6.656   2.659  2.1739  0.2603 -1.0259
 2798SOL    HW2 9294   6.716   6.667   2.496  0.1799 -1.1575 -1.0582
 2799SOL     OW 9295   4.810   6.301   6.655  0.1455  0.4264 -0.5873
 2799SOL    HW1 9296   4.807   6.337   6.749  2.8414 -0.7386  0.0408
 2799SOL    HW2 9297   4.757   6.216   6.650 -0.9687  1.0915 -0.4599
 2800SOL     OW 9298   0.160   0.879   0.236  0.2924  0.3963 -0.0632
 2800SOL    HW1 9299   0.217   0.858   0.157  1.3661  0.4655  0.6713
 2800SOL    HW2 9300   0.105   0.960   0.217  1.0103  0.7847 -0.5190
 2801SOL     OW 9301   6.162   5.034   5.047  0.1768  0.0532  0.8781
 2801SOL    HW1 9302   6.150   5.045   5.145  0.5719  0.6053  0.8705
 2801SOL    HW2 9303   6.260   5.022   5.026  0.0157 -1.0359  0.6372
 2802SOL     OW 9304   6.911   5.048   3.099  0.4984  0.6282 -0.1509
 2802SOL    HW1 9305   6.908   5.130   3.041  0.1175 -0.0963 -1.1804
 2802SOL    HW2 9306   6.902   5.075   3.195 -0.4880  1.7424 -0.5341
 2803SOL     OW 9307   4.025   4.757   5.172  0.6673  0.5679 -0.5005
 2803SOL    HW1 9308   3.956   4.686   5.157  0.7106  0.7959 -1.9190
 2803SOL    HW2 9309   4.014   4.795   5.264 -0.7065  0.1771 -0.4806
 2804SOL     OW 9310   5.251   4.645   4.404 -0.1774 -0.2193  0.2199
 2804SOL    HW1 9311   5.223   4.553   4.432  0.1029 -0.7946 -1.3118
 2804SOL    HW2 9312   5.319   4.638   4.331  0.9055  1.1957  1.0408
 2805SOL     OW 9313   6.649   3.629   1.622  0.1478 -0.3225 -0.8984
 2805SOL    HW1 9314   6.601   3.663   1.703  0.8974 -1.2396 -0.0443
 2805SOL    HW2 9315   6.707   3.702   1.585  0.2563 -0.0717 -0.2561
 2806SOL     OW 9316   2.749   5.506   6.889 -0.0623 -0.0203 -0.1238
 2806SOL    HW1 9317   2.693   5.463   6.961  0.1854  0.3885  0.3167
 2806SOL    HW2 9318   2.739   5.454   6.804 -1.6018  0.3860 -0.2285
 2807SOL     OW 9319   4.456   6.920   2.933  0.1499 -0.5493  0.1087
 2807SOL    HW1 9320   4.490   6.974   3.010 -0.9989 -0.2531  0.4259
 2807SOL    HW2 9321   4.369   6.879   2.957 -0.7196  0.3588 -1.3603
 2808SOL     OW 9322   6.270   0.754   2.384  0.1804  0.6548  0.0564
 2808SOL    HW1 9323   6.192   0.817   2.378 -0.4529 -0.2189 -1.8298
 2808SOL    HW2 9324   6.355   0.806   2.373 -0.0877  1.5937  1.9546
 2809SOL     OW 9325   6.306   4.390   1.342 -0.1629  0.4499  0.0111
 2809SOL    HW1 9326   6.318   4.487   1.322  2.6737  0.3750  0.9831
 2809SOL    HW2 9327   6.241   4.351   1.277 -2.4150  3.2069  0.3924
 2810SOL     OW 9328   2.470   5.989   2.519 -0.1301  0.2453 -0.1846
 2810SOL    HW1 9329   2.406   6.001   2.443 -0.3084  2.9126  0.2804
 2810SOL    HW2 9330   2.418   5.974   2.603  0.0066 -0.7488 -0.2629
 2811SOL     OW 9331   0.503   0.659   3.240 -0.4768  1.1575 -0.3393
 2811SOL    HW1 9332   0.491   0.578   3.182  0.1888 -1.1229  2.4534
 2811SOL    HW2 9333   0.594   0.697   3.226  0.8538 -1.2262  1.2052
 2812SOL     OW 9334   6.367   3.771   2.015 -0.1129  0.1584 -0.5014
 2812SOL    HW1 9335   6.298   3.709   1.977  0.6360 -0.6922 -0.4932
 2812SOL    HW2 9336   6.456   3.726   2.015  0.2068  0.7505  0.7273
 2813SOL     OW 9337   3.478   1.168   1.916  0.2033  0.3348  0.5535
 2813SOL    HW1 9338   3.558   1.224   1.892  0.9995 -1.3887 -1.0800
 2813SOL    HW2 9339   3.508   1.075   1.940 -1.3487 -0.6682 -1.1687
 2814SOL     OW 9340   3.203   2.811   5.293  0.4863  0.0670 -0.5816
 2814SOL    HW1 9341   3.236   2.883   5.233  0.9189 -0.2464 -0.7235
 2814SOL    HW2 9342   3.198   2.846   5.387  0.1692  0.4422 -0.7356
 2815SOL     OW 9343   7.008   5.961   5.312  0.3903 -0.1604  0.3073
 2815SOL    HW1 9344   6.989   6.059   5.312  0.4054 -0.1350 -1.4527
 2815SOL    HW2 9345   6.967   5.919   5.394 -0.8344  1.0822  0.3619
 2816SOL     OW 9346   5.202   4.844   4.121  0.1214 -0.1713  0.2799
 2816SOL    HW1 9347   5.109   4.877   4.137  0.0998  0.1755 -0.5205
 2816SOL    HW2 9348   5.268   4.908   4.162  0.0118 -0.3285  0.6993
 2817SOL     OW 9349   3.081   2.106   1.093 -0.1044  0.0660  0.2570
 2817SOL    HW1 9350   3.043   2.136   1.180 -1.6559 -1.9593  0.3549
 2817SOL    HW2 9351   3.098   2.008   1.097  1.6699  0.2795 -1.0934
 2818SOL     OW 9352   0.662   6.322   3.377 -0.0410 -0.1475  0.2799
 2818SOL    HW1 9353   0.686   6.418   3.395 -0.1374  0.1979 -1.2649
 2818SOL    HW2 9354   0.651   6.309   3.279  0.4049 -1.8584  0.4244
 2819SOL     OW 9355   1.941   5.995   0.622  0.5760 -0.5713  0.3192
 2819SOL    HW1 9356   1.848   6.006   0.586  0.6279  1.1425  0.6245
 2819SOL    HW2 9357   1.979   6.085   0.643  1.9594 -1.3122  1.0951
 2820SOL     OW 9358   2.240   1.710   4.752 -0.3594 -0.1688 -0.2124
 2820SOL    HW1 9359   2.177   1.788   4.755  1.0843  1.1285 -1.6885
 2820SOL    HW2 9360   2.267   1.693   4.657  0.2115 -1.7896  0.2092
 2821SOL     OW 9361   2.607   5.557   6.531  0.5195  0.3523  0.1257
 2821SOL    HW1 9362   2.663   5.622   6.582  2.2219  0.2943 -1.5717
 2821SOL    HW2 9363   2.618   5.465   6.569  3.3935 -0.0620 -1.4727
 2822SOL     OW 9364   4.714   3.763   0.178  0.4068  0.0223 -0.0698
 2822SOL    HW1 9365   4.776   3.841   0.177 -0.0289  0.3821  0.4859
 2822SOL    HW2 9366   4.708   3.726   0.271 -1.1133  0.7382  0.1521
 2823SOL     OW 9367   5.243   2.815   6.987 -0.6902 -0.2469  0.1434
 2823SOL    HW1 9368   5.213   2.721   6.966  0.8392 -0.4081 -1.5399
 2823SOL    HW2 9369   5.172   2.879   6.958 -0.4576 -0.7443 -1.6965
 2824SOL     OW 9370   0.360   4.258   4.500 -0.4538  0.2496 -0.5305
 2824SOL    HW1 9371   0.353   4.352   4.468 -0.7034  0.4111 -0.0134
 2824SOL    HW2 9372   0.432   4.211   4.449  0.0017  0.8530 -0.4547
 2825SOL     OW 9373   0.267   2.152   5.842 -0.7971  0.2258 -0.1756
 2825SOL    HW1 9374   0.194   2.088   5.864  0.8807 -1.9171 -0.4944
 2825SOL    HW2 9375   0.268   2.167   5.743 -0.6340  0.0385 -0.2021
 2826SOL     OW 9376   3.777   1.702   6.709  0.1960 -0.0590  0.0494
 2826SOL    HW1 9377   3.685   1.720   6.743  0.0830  0.2541 -0.4021
 2826SOL    HW2 9378   3.844   1.737   6.774 -0.0150  2.5546 -0.9958
 2827SOL     OW 9379   6.683   2.484   0.707 -0.4048  0.3040  0.0251
 2827SOL    HW1 9380   6.736   2.557   0.664  0.0001  1.0451  1.6848
 2827SOL    HW2 9381   6.606   2.459   0.648 -0.5285  2.0412 -0.6190
 2828SOL     OW 9382   1.071   4.198   2.008  0.6812  0.0305  0.0513
 2828SOL    HW1 9383   0.991   4.258   2.000 -1.3869 -2.4503  0.8732
 2828SOL    HW2 9384   1.074   4.136   1.930  1.7466  0.0026  0.1021
 2829SOL     OW 9385   3.241   2.956   4.391 -0.0391 -0.2647 -0.1930
 2829SOL    HW1 9386   3.170   2.967   4.321  0.0216 -0.7425 -0.3295
 2829SOL    HW2 9387   3.273   3.047   4.419 -1.4817  0.0178  0.6816
 2830SOL     OW 9388   3.490   2.914   4.260 -0.0103  0.4733  0.2448
 2830SOL    HW1 9389   3.536   2.993   4.301  0.4234 -0.0735  0.8418
 2830SOL    HW2 9390   3.399   2.904   4.299  0.2091  0.2566  0.7111
 2831SOL     OW 9391   5.913   6.764   3.214  0.2107 -0.1218 -0.2083
 2831SOL    HW1 9392   5.982   6.822   3.171  0.1525 -0.3265 -0.5768
 2831SOL    HW2 9393   5.864   6.817   3.284  0.5829  0.0897 -0.1049
 2832SOL     OW 9394   2.729   5.175   0.291 -0.0913 -0.3680  0.3672
 2832SOL    HW1 9395   2.748   5.172   0.389 -2.9286  0.9030  1.0499
 2832SOL    HW2 9396   2.815   5.186   0.241  1.2651  1.4240  2.8475
 2833SOL     OW 9397   2.123   1.172   1.000 -0.2861 -0.1159 -0.3925
 2833SOL    HW1 9398   2.164   1.161   1.090  0.0635 -0.7779 -0.6328
 2833SOL    HW2 9399   2.129   1.268   0.973 -0.6266  0.1387  0.3954
 2834SOL     OW 9400   4.435   0.719   5.073  0.8468  0.1011  0.1232
 2834SOL    HW1 9401   4.473   0.732   5.164  3.8662  0.5888 -1.0999
 2834SOL    HW2 9402   4.387   0.802   5.045  2.0901  0.9164  0.3292
 2835SOL     OW 9403   6.240   5.229   2.124 -0.1444 -0.1601  0.1296
 2835SOL    HW1 9404   6.187   5.161   2.074 -1.4240  1.2897 -0.5801
 2835SOL    HW2 9405   6.227   5.319   2.082  3.2963  0.2407 -0.3939
 2836SOL     OW 9406   2.490   0.094   1.946 -0.7056 -0.0939 -0.0923
 2836SOL    HW1 9407   2.492   0.107   2.045 -3.0280  1.0683 -0.1281
 2836SOL    HW2 9408   2.579   0.116   1.907 -0.4367  1.8135  1.4792
 2837SOL     OW 9409   5.034   4.746   2.101  0.5076  0.0716  0.4297
 2837SOL    HW1 9410   5.014   4.652   2.074  1.2868 -0.2780  1.0197
 2837SOL    HW2 9411   5.062   4.799   2.021 -3.5053  0.8555 -0.6528
 2838SOL     OW 9412   5.485   2.305   1.364  0.1527 -0.1128  0.5790
 2838SOL    HW1 9413   5.556   2.259   1.418 -1.2383 -1.8154  1.0194
 2838SOL    HW2 9414   5.480   2.401   1.392  0.6660 -0.5291  2.2330
 2839SOL     OW 9415   7.014   4.167   3.040  0.5380  0.0732  0.3022
 2839SOL    HW1 9416   7.068   4.089   3.007  3.2413  0.9459  2.3765
 2839SOL    HW2 9417   7.063   4.252   3.021 -0.9970  1.0831  0.6847
 2840SOL     OW 9418   6.863   5.519   2.793  0.8212 -0.5254 -0.4199
 2840SOL    HW1 9419   6.852   5.601   2.849  0.5193 -0.1196 -1.0526
 2840SOL    HW2 9420   6.947   5.526   2.739 -0.5393  0.6684 -2.5275
 2841SOL     OW 9421   5.945   2.018   6.758  0.7133  0.5940 -0.7300
 2841SOL    HW1 9422   6.045   2.020   6.763  0.8916 -0.0097 -3.1680
 2841SOL    HW2 9423   5.913   1.924   6.745 -0.1762  0.8166 -0.2922
 2842SOL     OW 9424   2.695   5.394   3.714 -0.2437  0.1838 -0.3598
 2842SOL    HW1 9425   2.751   5.442   3.647 -1.7649  0.7900 -1.2477
 2842SOL    HW2 9426   2.746   5.384   3.799  0.8919  1.4576 -0.8578
 2843SOL     OW 9427   1.690   2.862   2.848  0.3871 -0.5959 -0.4178
 2843SOL    HW1 9428   1.772   2.915   2.828  1.4246 -1.2382  1.7844
 2843SOL    HW2 9429   1.709   2.764   2.840  0.5959 -0.8630  2.2157
 2844SOL     OW 9430   4.212   5.008   1.097 -0.0078 -0.0856 -0.4262
 2844SOL    HW1 9431   4.126   4.961   1.116  0.0481 -0.4038 -0.9483
 2844SOL    HW2 9432   4.280   4.942   1.065  0.1074  0.3307 -1.0595
 2845SOL     OW 9433   5.038   2.626   3.624  0.2713  0.4953  0.4089
 2845SOL    HW1 9434   5.016   2.721   3.646  2.0294  0.6319  1.8844
 2845SOL    HW2 9435   5.135   2.619   3.599 -0.0656 -0.7782 -0.6483
 2846SOL     OW 9436   3.071   1.608   6.193  0.1454 -0.1895 -0.1207
 2846SOL    HW1 9437   3.164   1.611   6.157 -0.0962  2.1339 -0.6979
 2846SOL    HW2 9438   3.015   1.549   6.135  0.6440  0.5540 -1.3957
 2847SOL     OW 9439   4.236   3.622   1.772 -0.4360 -0.1414  0.2725
 2847SOL    HW1 9440   4.227   3.591   1.866  0.8422 -2.6932 -0.3761
 2847SOL    HW2 9441   4.209   3.549   1.709  0.7723  0.7500 -1.3724
 2848SOL     OW 9442   1.863   1.428   4.505  0.4870  0.1482 -0.5711
 2848SOL    HW1 9443   1.802   1.377   4.445  2.1071 -1.5177 -0.8837
 2848SOL    HW2 9444   1.832   1.523   4.511 -3.0381 -0.9371  0.5815
 2849SOL     OW 9445   4.302   1.842   1.166 -0.3581  0.0072  0.3043
 2849SOL    HW1 9446   4.337   1.927   1.128  3.5036 -1.8205 -0.7709
 2849SOL    HW2 9447   4.367   1.807   1.234 -2.9507 -1.0490  2.4207
 2850SOL     OW 9448   2.189   6.503   2.556  0.0550 -0.2658 -0.0264
 2850SOL    HW1 9449   2.264   6.484   2.619 -0.6225  0.3491  0.9849
 2850SOL    HW2 9450   2.171   6.421   2.501 -0.1987 -1.2857  1.4909
 2851SOL     OW 9451   5.093   2.941   4.812  0.2593 -0.3750 -0.8920
 2851SOL    HW1 9452   5.186   2.943   4.848 -0.0308  2.6115 -0.0958
 2851SOL    HW2 9453   5.033   2.894   4.878  0.9734 -1.3163 -0.8916
 2852SOL     OW 9454   6.435   5.138   6.011 -0.1688 -0.2660  0.1509
 2852SOL    HW1 9455   6.402   5.117   5.919 -2.1859 -0.7616  0.9326
 2852SOL    HW2 9456   6.361   5.180   6.064  1.5828  2.0981  0.9238
 2853SOL     OW 9457   1.793   4.457   0.765 -0.3667  0.0726 -0.7084
 2853SOL    HW1 9458   1.793   4.453   0.865 -0.7306  1.4735 -0.6334
 2853SOL    HW2 9459   1.811   4.551   0.735 -0.7498 -0.2296 -1.9573
 2854SOL     OW 9460   3.179   6.941   4.720 -0.2883  0.4164 -0.1150
 2854SOL    HW1 9461   3.171   6.939   4.620 -1.0358 -0.6863 -0.0509
 2854SOL    HW2 9462   3.124   6.867   4.759  0.5192  0.4239  1.0838
 2855SOL     OW 9463   5.987   3.554   2.310  0.4371 -0.5605 -0.1881
 2855SOL    HW1 9464   6.042   3.575   2.391  2.3355 -2.0063 -1.0132
 2855SOL    HW2 9465   5.949   3.462   2.318  0.9896 -0.8838 -1.0944
 2856SOL     OW 9466   6.012   0.026   3.667  0.3668  0.4449  0.6620
 2856SOL    HW1 9467   6.016   0.050   3.570 -0.4958 -0.8179  0.2865
 2856SOL    HW2 9468   6.104   0.009   3.701  0.5746 -0.5443 -0.3318
 2857SOL     OW 9469   0.978   4.997   6.661  0.1653 -0.2543  0.1534
 2857SOL    HW1 9470   0.901   5.027   6.605  1.3163  0.3230 -1.1936
 2857SOL    HW2 9471   0.946   4.936   6.732 -1.3271 -1.3929 -1.4196
 2858SOL     OW 9472   6.634   6.732   2.189 -0.3510 -0.0587 -0.0809
 2858SOL    HW1 9473   6.700   6.794   2.231  1.1155 -1.0971 -0.7371
 2858SOL    HW2 9474   6.683   6.653   2.152 -2.0533 -1.1107 -0.1529
 2859SOL     OW 9475   4.710   5.103   6.434 -0.0563 -0.6994  0.5900
 2859SOL    HW1 9476   4.763   5.044   6.373 -0.6591 -0.0456 -0.5910
 2859SOL    HW2 9477   4.625   5.058   6.459 -0.5575 -0.3132 -0.3838
 2860SOL     OW 9478   2.375   1.559   2.610  0.4239 -0.0722 -0.1485
 2860SOL    HW1 9479   2.373   1.512   2.699 -0.5431 -0.4726 -0.3744
 2860SOL    HW2 9480   2.464   1.604   2.599 -0.0731  1.6251  1.8824
 2861SOL     OW 9481   2.584   5.065   4.366 -0.2562 -0.7529 -0.3914
 2861SOL    HW1 9482   2.602   4.977   4.409  0.6686  0.0945  1.0246
 2861SOL    HW2 9483   2.486   5.080   4.360 -0.4228 -0.7852  1.7163
 2862SOL     OW 9484   4.644   1.627   2.150  0.1387 -0.3780 -0.0056
 2862SOL    HW1 9485   4.628   1.638   2.248 -1.7158  0.5969 -0.3793
 2862SOL    HW2 9486   4.740   1.604   2.135  0.1512 -2.0016  2.1183
 2863SOL     OW 9487   4.816   1.704   5.070  0.2888 -0.1105  0.0902
 2863SOL    HW1 9488   4.853   1.637   5.134  0.3844 -0.4554 -0.3195
 2863SOL    HW2 9489   4.884   1.725   5.000  0.0517 -0.0309 -0.1189
 2864SOL     OW 9490   4.577   4.294   0.861  0.0679 -0.4237 -0.3057
 2864SOL    HW1 9491   4.481   4.314   0.838  0.4419  0.4985 -1.1675
 2864SOL    HW2 9492   4.634   4.310   0.780  0.8703 -1.6565 -0.0037
 2865SOL     OW 9493   4.970   0.630   3.423  0.0640 -0.0065  0.6095
 2865SOL    HW1 9494   4.873   0.639   3.444 -0.0395  0.4512 -0.0549
 2865SOL    HW2 9495   4.982   0.618   3.324  0.5768 -1.6469  0.8329
 2866SOL     OW 9496   0.665   4.803   6.989  0.6465 -0.2712 -0.3062
 2866SOL    HW1 9497   0.638   4.867   7.059  1.9559 -0.6550  0.5998
 2866SOL    HW2 9498   0.602   4.725   6.988 -0.7846  0.8603 -1.2295
 2867SOL     OW 9499   4.717   6.468   3.499 -0.1041 -0.1736 -0.6567
 2867SOL    HW1 9500   4.623   6.503   3.499  0.2943  0.9636 -1.7048
 2867SOL    HW2 9501   4.724   6.391   3.563 -0.9342  1.8815  2.1362
 2868SOL     OW 9502   0.289   2.494   5.079 -0.2860  0.3411 -0.5436
 2868SOL    HW1 9503   0.253   2.546   5.157 -0.8237 -2.0414  0.9331
 2868SOL    HW2 9504   0.326   2.557   5.011 -1.0901  2.6077  0.9750
 2869SOL     OW 9505   0.189   0.903   4.876  0.6486  0.1944  0.6344
 2869SOL    HW1 9506   0.286   0.920   4.896  0.1776  1.3355  2.0837
 2869SOL    HW2 9507   0.151   0.983   4.829  0.8486 -1.0290 -1.7390
 2870SOL     OW 9508   6.171   2.277   0.655 -0.1623 -0.0124 -0.2770
 2870SOL    HW1 9509   6.167   2.192   0.706  0.2615 -0.0188 -0.2480
 2870SOL    HW2 9510   6.263   2.316   0.662 -0.8133  1.4060  1.2739
 2871SOL     OW 9511   4.688   6.408   1.545  0.0549  0.4136 -0.7941
 2871SOL    HW1 9512   4.761   6.341   1.556 -0.5203 -0.5407 -2.4959
 2871SOL    HW2 9513   4.694   6.451   1.455 -0.1465  1.9958 -0.0919
 2872SOL     OW 9514   2.161   1.384   0.563  0.4587 -0.0199 -0.2552
 2872SOL    HW1 9515   2.258   1.359   0.558  0.2926 -0.4300 -3.9133
 2872SOL    HW2 9516   2.110   1.335   0.492 -2.6891 -0.5631  2.1454
 2873SOL     OW 9517   0.271   5.559   1.504  0.0718 -0.5322 -0.4112
 2873SOL    HW1 9518   0.342   5.546   1.574 -1.1085 -1.4418  0.6691
 2873SOL    HW2 9519   0.308   5.615   1.429  2.2174 -1.7286 -0.3416
 2874SOL     OW 9520   3.480   1.615   2.455 -0.0993  0.6636 -0.2321
 2874SOL    HW1 9521   3.536   1.695   2.434 -0.1605  0.6111 -0.6019
 2874SOL    HW2 9522   3.399   1.643   2.507 -0.1188  0.8420 -0.3599
 2875SOL     OW 9523   4.198   0.421   5.720  0.2267  0.3808 -0.0773
 2875SOL    HW1 9524   4.182   0.466   5.808 -1.7700 -0.9412  0.3113
 2875SOL    HW2 9525   4.113   0.380   5.687  1.5952 -1.9834 -0.9940
 2876SOL     OW 9526   2.027   6.405   1.011  0.1318 -0.0194 -0.4889
 2876SOL    HW1 9527   2.027   6.316   1.056  0.6833  0.7671  1.1791
 2876SOL    HW2 9528   1.942   6.418   0.960 -1.4406 -0.2458  1.9304
 2877SOL     OW 9529   1.296   1.015   5.583 -0.5544 -0.0172 -0.3800
 2877SOL    HW1 9530   1.238   0.976   5.654 -1.6968  2.2037 -0.0069
 2877SOL    HW2 9531   1.248   1.012   5.495 -1.5422  2.2507  0.0137
 2878SOL     OW 9532   3.279   4.130   4.859  0.0559  0.8959 -0.3414
 2878SOL    HW1 9533   3.315   4.212   4.814  1.9143 -0.6013 -1.7646
 2878SOL    HW2 9534   3.275   4.055   4.793 -0.2776 -0.5468  1.2457
 2879SOL     OW 9535   3.969   4.538   6.235  0.6455 -0.6836  0.3236
 2879SOL    HW1 9536   3.870   4.544   6.227  0.5510 -0.0880  1.6151
 2879SOL    HW2 9537   4.011   4.616   6.188  0.5276 -1.0998 -0.4834
 2880SOL     OW 9538   1.677   4.508   2.724 -0.5415 -0.5372  0.6002
 2880SOL    HW1 9539   1.718   4.446   2.791  1.2247  0.2378  0.2842
 2880SOL    HW2 9540   1.628   4.580   2.773 -1.3562 -1.3306  0.9896
 2881SOL     OW 9541   3.079   4.565   6.841 -0.3648  0.0994 -0.1811
 2881SOL    HW1 9542   3.056   4.662   6.833 -1.6168  0.0079  1.6301
 2881SOL    HW2 9543   3.176   4.555   6.862 -0.0888  0.9171 -1.0330
 2882SOL     OW 9544   5.232   5.644   2.281  0.2867 -0.3908  0.2716
 2882SOL    HW1 9545   5.327   5.631   2.253  0.6923  0.2977  1.2593
 2882SOL    HW2 9546   5.209   5.741   2.277 -0.3281 -0.5365  0.1909
 2883SOL     OW 9547   6.280   4.836   2.506  0.0148  0.4623  0.0619
 2883SOL    HW1 9548   6.344   4.805   2.576 -0.2664  2.2383  1.1564
 2883SOL    HW2 9549   6.284   4.774   2.428 -0.1761 -2.0004  1.8926
 2884SOL     OW 9550   1.585   5.211   2.677  0.6215  0.4104  0.2091
 2884SOL    HW1 9551   1.637   5.218   2.592 -1.5296 -0.4158 -1.2839
 2884SOL    HW2 9552   1.637   5.159   2.744  1.3279 -1.2901 -1.5706
 2885SOL     OW 9553   2.297   2.710   3.853 -0.6769  0.1658  0.1221
 2885SOL    HW1 9554   2.316   2.769   3.775 -1.7721  0.5767  0.1453
 2885SOL    HW2 9555   2.269   2.766   3.931  1.7775 -0.1066  1.2909
 2886SOL     OW 9556   3.378   2.039   1.031 -0.1602  0.7118 -0.5849
 2886SOL    HW1 9557   3.359   2.034   1.129  1.8341  1.8828 -0.0689
 2886SOL    HW2 9558   3.471   2.073   1.017  0.9009 -2.5586 -2.8133
 2887SOL     OW 9559   6.589   6.665   4.783 -0.0091  0.4544  0.4944
 2887SOL    HW1 9560   6.585   6.689   4.880 -1.5014 -0.4564  0.6941
 2887SOL    HW2 9561   6.684   6.653   4.755  0.4186  0.3607  1.9329
 2888SOL     OW 9562   0.202   3.912   0.295  0.5231 -0.1901  0.2432
 2888SOL    HW1 9563   0.283   3.971   0.297 -0.3443  1.0168  0.8801
 2888SOL    HW2 9564   0.190   3.868   0.384  0.3423 -0.1784  0.2252
 2889SOL     OW 9565   4.874   0.113   3.198 -1.2923 -0.1278  0.3245
 2889SOL    HW1 9566   4.860   0.198   3.147  1.8139  0.2885 -0.0476
 2889SOL    HW2 9567   4.885   0.133   3.295 -3.0620 -0.4489  0.6211
 2890SOL     OW 9568   3.169   3.796   0.704 -0.1573  0.6494  0.0699
 2890SOL    HW1 9569   3.113   3.720   0.738  1.6305 -0.9770 -0.4647
 2890SOL    HW2 9570   3.248   3.808   0.763  0.0855  1.4599 -0.4054
 2891SOL     OW 9571   1.387   4.108   2.953 -0.2212  0.2111  0.8711
 2891SOL    HW1 9572   1.370   4.030   2.893  1.3951  0.9049 -0.5788
 2891SOL    HW2 9573   1.456   4.085   3.021  0.2519  0.3594  0.4464
 2892SOL     OW 9574   6.534   2.481   2.045  0.1271  0.2354  0.1451
 2892SOL    HW1 9575   6.587   2.414   1.994 -0.0470  1.4869 -1.7674
 2892SOL    HW2 9576   6.473   2.434   2.110  2.5745 -1.2851  1.5032
 2893SOL     OW 9577   3.747   6.686   3.403  0.2526 -0.5131 -0.0106
 2893SOL    HW1 9578   3.779   6.595   3.378  2.9620  0.1633  0.6528
 2893SOL    HW2 9579   3.747   6.696   3.502  0.3860  0.3207 -0.0819
 2894SOL     OW 9580   1.608   3.108   2.052 -0.0468  0.2282 -0.2703
 2894SOL    HW1 9581   1.580   3.149   2.138  2.5181  0.5392  0.4998
 2894SOL    HW2 9582   1.679   3.164   2.010  1.5104 -1.8855 -0.6226
 2895SOL     OW 9583   4.388   1.091   0.820 -0.0250 -0.1989 -0.8092
 2895SOL    HW1 9584   4.344   1.152   0.886  1.9376  0.0642  0.3639
 2895SOL    HW2 9585   4.332   1.010   0.806 -1.0873  0.3325  0.2133
 2896SOL     OW 9586   6.038   5.308   0.247 -0.2198  0.1930  0.4183
 2896SOL    HW1 9587   6.003   5.230   0.300  0.1984  0.0743  0.5201
 2896SOL    HW2 9588   6.052   5.280   0.152 -0.5679  0.2895  0.3375
 2897SOL     OW 9589   5.250   5.799   2.608  0.3355  0.7524 -0.4209
 2897SOL    HW1 9590   5.210   5.742   2.680 -0.0418  0.7937 -0.5975
 2897SOL    HW2 9591   5.314   5.864   2.649  0.1922  0.7130 -0.1331
 2898SOL     OW 9592   5.644   4.633   3.076  0.9095 -0.2982 -0.6268
 2898SOL    HW1 9593   5.626   4.730   3.059  0.1160 -0.4344 -0.6081
 2898SOL    HW2 9594   5.695   4.623   3.161 -1.6285 -0.0493  1.0579
 2899SOL     OW 9595   0.258   0.887   0.952  0.4363 -0.6006  0.5447
 2899SOL    HW1 9596   0.314   0.965   0.923  0.0719 -0.5451 -0.0304
 2899SOL    HW2 9597   0.245   0.890   1.051  0.2889  0.1593  0.5106
 2900SOL     OW 9598   4.162   4.471   0.484 -0.6098  1.0091  0.5852
 2900SOL    HW1 9599   4.089   4.485   0.550  0.1119 -3.3248  2.6221
 2900SOL    HW2 9600   4.130   4.412   0.411  0.0391  1.6808 -0.2698
 2901SOL     OW 9601   2.158   4.547   2.028 -0.0704 -0.5572  0.1766
 2901SOL    HW1 9602   2.257   4.548   2.015  0.1516 -0.7377  1.6875
 2901SOL    HW2 9603   2.132   4.614   2.098 -1.0159 -0.5553 -0.1536
 2902SOL     OW 9604   6.369   4.655   1.332  0.6436  0.5880 -0.3444
 2902SOL    HW1 9605   6.283   4.690   1.295  1.3821  1.1944 -1.5379
 2902SOL    HW2 9606   6.440   4.725   1.324  0.9432  0.6172  1.9322
 2903SOL     OW 9607   2.958   5.760   5.905 -0.0729  0.2195 -0.1873
 2903SOL    HW1 9608   2.936   5.766   5.808  0.7304 -1.5948 -0.5323
 2903SOL    HW2 9609   2.922   5.840   5.953 -0.6631  1.0453 -1.9295
 2904SOL     OW 9610   2.835   3.917   6.258  0.1407  0.0983  0.3912
 2904SOL    HW1 9611   2.841   3.848   6.186  0.4781 -0.0006  0.5102
 2904SOL    HW2 9612   2.756   3.898   6.317 -0.3329  0.3732 -0.1461
 2905SOL     OW 9613   0.157   3.419   3.779 -0.0365 -0.0573 -0.3426
 2905SOL    HW1 9614   0.064   3.425   3.815  0.6868 -0.3330  1.6758
 2905SOL    HW2 9615   0.206   3.504   3.798 -0.3015  0.7318 -2.8310
 2906SOL     OW 9616   4.562   5.306   2.318 -0.2129  0.2044 -0.1964
 2906SOL    HW1 9617   4.629   5.315   2.244 -0.0622  0.6214 -0.0133
 2906SOL    HW2 9618   4.606   5.266   2.398 -0.2544  0.2022 -0.1745
 2907SOL     OW 9619   6.192   1.472   4.142  0.5513 -0.1890 -0.2075
 2907SOL    HW1 9620   6.163   1.466   4.047 -0.2910  0.5399 -0.0156
 2907SOL    HW2 9621   6.160   1.392   4.192 -0.0444 -0.0061 -0.2862
 2908SOL     OW 9622   4.817   6.042   3.455  0.1225 -0.4072  0.4952
 2908SOL    HW1 9623   4.820   5.962   3.515 -1.9844 -0.6642  0.3088
 2908SOL    HW2 9624   4.741   6.034   3.390  0.6566  1.1503 -0.4017
 2909SOL     OW 9625   1.048   5.679   3.293  0.3228  0.0718 -0.0660
 2909SOL    HW1 9626   1.121   5.708   3.355  1.5168  0.1767 -1.4649
 2909SOL    HW2 9627   1.052   5.735   3.210 -2.2543  1.0397  0.3730
 2910SOL     OW 9628   0.008   0.791   5.053  0.1809  0.0270 -0.1101
 2910SOL    HW1 9629  -0.083   0.763   5.020 -0.6306  1.4719  0.8032
 2910SOL    HW2 9630   0.062   0.825   4.976 -0.6480  0.6650 -0.4301
 2911SOL     OW 9631   0.190   3.959   3.302 -0.5201 -0.5020  0.3424
 2911SOL    HW1 9632   0.168   3.885   3.366 -0.5069 -0.7668  0.0424
 2911SOL    HW2 9633   0.131   4.037   3.320  0.1142 -0.2149  1.3070
 2912SOL     OW 9634   6.836   6.767   0.651 -0.3998  0.6461  0.6166
 2912SOL    HW1 9635   6.863   6.862   0.639  1.3503  0.0613 -0.4991
 2912SOL    HW2 9636   6.767   6.743   0.583  1.0106  0.4732 -0.7999
 2913SOL     OW 9637   3.121   5.446   3.421 -0.6547 -0.4398 -0.7186
 2913SOL    HW1 9638   3.101   5.508   3.345 -2.4875 -1.3479 -1.0138
 2913SOL    HW2 9639   3.106   5.494   3.508 -0.9996 -0.1515 -0.9362
 2914SOL     OW 9640   5.708   5.938   1.538 -0.1768  0.0146  0.5444
 2914SOL    HW1 9641   5.777   5.891   1.484  0.5120  1.2516  0.3150
 2914SOL    HW2 9642   5.621   5.936   1.489  0.2491  0.4213 -0.2505
 2915SOL     OW 9643   3.246   6.413   3.985 -0.0794 -0.2710  0.3938
 2915SOL    HW1 9644   3.318   6.377   4.044 -0.2389  0.1079  0.8280
 2915SOL    HW2 9645   3.286   6.446   3.900  0.1674 -0.7276  0.3343
 2916SOL     OW 9646   0.849   5.318   0.160  0.2644  0.7823  0.1291
 2916SOL    HW1 9647   0.928   5.363   0.117  2.1721 -0.9678  1.6120
 2916SOL    HW2 9648   0.823   5.238   0.107 -0.3071  1.1353 -0.1402
 2917SOL     OW 9649   1.635   0.689   3.905 -0.2583  0.1805  0.1548
 2917SOL    HW1 9650   1.677   0.780   3.899 -0.9687  0.6050  1.2703
 2917SOL    HW2 9651   1.690   0.623   3.854  0.6077  1.1151 -0.1486
 2918SOL     OW 9652   6.436   4.685   6.693 -0.8136  0.4625  0.1265
 2918SOL    HW1 9653   6.386   4.600   6.707 -0.2721  0.1046 -0.1171
 2918SOL    HW2 9654   6.421   4.717   6.599  1.6168 -1.1100 -0.8782
 2919SOL     OW 9655   5.681   5.673   6.806 -0.1354 -0.2804  0.0670
 2919SOL    HW1 9656   5.740   5.715   6.737  0.9120 -0.5389  0.7778
 2919SOL    HW2 9657   5.586   5.693   6.785  0.1464 -0.4912 -1.5351
 2920SOL     OW 9658   3.425   6.782   0.131 -0.2117 -0.0951  0.3629
 2920SOL    HW1 9659   3.334   6.802   0.094 -0.3715 -2.5608 -0.7965
 2920SOL    HW2 9660   3.423   6.693   0.178  1.3871  0.2627  1.1556
 2921SOL     OW 9661   0.199   6.424   5.930 -0.7815 -1.0302  0.0452
 2921SOL    HW1 9662   0.248   6.493   5.982 -1.8382 -1.0921  1.1538
 2921SOL    HW2 9663   0.253   6.398   5.850  0.3294 -0.0736  0.4649
 2922SOL     OW 9664   2.522   6.519   1.414 -0.1143 -0.2502 -0.2870
 2922SOL    HW1 9665   2.597   6.532   1.348 -0.6249  0.0794 -0.8158
 2922SOL    HW2 9666   2.529   6.588   1.486  0.2852 -0.4360 -0.1435
 2923SOL     OW 9667   4.514   5.513   4.123  0.0061  0.1406  0.5877
 2923SOL    HW1 9668   4.459   5.593   4.101 -2.2546 -1.4292  0.1133
 2923SOL    HW2 9669   4.466   5.458   4.192  1.2218 -1.0752  0.5018
 2924SOL     OW 9670   0.577   3.484   3.753 -0.1090  0.4902 -0.8571
 2924SOL    HW1 9671   0.511   3.560   3.760  0.0263  0.4828  1.5516
 2924SOL    HW2 9672   0.533   3.400   3.785  0.8811  0.4052  0.3797
 2925SOL     OW 9673   6.056   2.716   0.592  0.4638 -0.0153  0.4222
 2925SOL    HW1 9674   6.074   2.804   0.548 -0.1956  0.3285  0.8210
 2925SOL    HW2 9675   6.110   2.708   0.676  1.7249 -0.6722 -0.4211
 2926SOL     OW 9676   5.272   1.451   0.426  0.4652 -0.0001  0.0743
 2926SOL    HW1 9677   5.228   1.450   0.516 -0.9807 -1.6830 -0.5922
 2926SOL    HW2 9678   5.203   1.459   0.355  1.4778 -0.0098 -0.9379
 2927SOL     OW 9679   3.260   2.230   0.650 -0.7471 -0.1788 -0.4232
 2927SOL    HW1 9680   3.319   2.150   0.643  0.5297  0.4531  1.9099
 2927SOL    HW2 9681   3.167   2.200   0.674 -0.8629 -1.0414 -1.8171
 2928SOL     OW 9682   1.161   0.039   0.396 -0.0195 -0.2429  0.2213
 2928SOL    HW1 9683   1.087   0.063   0.333  0.5849  0.0610 -0.3869
 2928SOL    HW2 9684   1.128   0.045   0.490 -1.1417 -1.4347 -0.0820
 2929SOL     OW 9685   0.897   2.127   5.191  0.0882  0.3408 -0.1832
 2929SOL    HW1 9686   0.802   2.159   5.190  0.1128  0.4878 -2.2575
 2929SOL    HW2 9687   0.936   2.141   5.282 -2.3064 -1.0817  1.1480
 2930SOL     OW 9688   0.576   4.573   3.336  0.1197 -0.2772  0.6656
 2930SOL    HW1 9689   0.665   4.527   3.338 -0.0100 -0.5166  0.9625
 2930SOL    HW2 9690   0.580   4.649   3.270  1.0311  0.7101  1.8022
 2931SOL     OW 9691   5.428   4.516   0.599  0.2996 -0.3222  0.3172
 2931SOL    HW1 9692   5.380   4.588   0.549  0.8207 -1.2013 -1.5012
 2931SOL    HW2 9693   5.391   4.511   0.692 -1.8753  0.2285 -0.4612
 2932SOL     OW 9694   5.547   4.829   1.289  0.2485 -0.7653  0.1928
 2932SOL    HW1 9695   5.615   4.900   1.268 -1.7172  0.6974 -1.7061
 2932SOL    HW2 9696   5.567   4.748   1.234  0.7269 -0.5311  0.0120
 2933SOL     OW 9697   6.599   6.751   3.807  0.6633  0.7688 -0.8216
 2933SOL    HW1 9698   6.573   6.781   3.715  1.4398 -0.4919 -1.4722
 2933SOL    HW2 9699   6.550   6.667   3.830 -0.8524  1.9739  0.6497
 2934SOL     OW 9700   5.023   2.176   0.050 -0.2094 -0.0705  0.5236
 2934SOL    HW1 9701   5.025   2.266   0.093  2.3455  0.9918 -1.5375
 2934SOL    HW2 9702   4.949   2.173  -0.018  0.0700  0.6964  0.1780
 2935SOL     OW 9703   0.706   1.624   6.827  0.0737 -0.6580 -0.3802
 2935SOL    HW1 9704   0.700   1.721   6.800 -1.3684 -0.3093  1.0389
 2935SOL    HW2 9705   0.785   1.611   6.885 -0.5937  0.0373  0.7198
 2936SOL     OW 9706   3.081   0.282   5.968  0.1956 -0.2400 -0.3778
 2936SOL    HW1 9707   3.119   0.200   5.926  1.0430  0.4808 -1.0574
 2936SOL    HW2 9708   3.050   0.261   6.061  0.5671 -1.2756 -0.4792
 2937SOL     OW 9709   4.450   5.675   6.351 -0.0974 -0.5944 -0.4388
 2937SOL    HW1 9710   4.530   5.718   6.309 -0.3779  0.8431  0.4628
 2937SOL    HW2 9711   4.367   5.715   6.313 -0.3594  0.4759  1.1870
 2938SOL     OW 9712   4.395   4.924   0.790 -0.0039  0.4140 -0.4777
 2938SOL    HW1 9713   4.448   4.854   0.836  0.3025  0.2454 -1.0746
 2938SOL    HW2 9714   4.392   5.007   0.846 -0.0504  0.0518  0.0552
 2939SOL     OW 9715   0.517   6.959   0.145  0.4443  0.1833 -0.5132
 2939SOL    HW1 9716   0.435   6.995   0.189  0.0251 -0.8220 -0.4485
 2939SOL    HW2 9717   0.593   6.961   0.209  0.0386 -0.4979  0.0018
 2940SOL     OW 9718   3.973   5.985   5.369 -0.2790  0.0445 -0.0932
 2940SOL    HW1 9719   4.016   6.069   5.337  0.8961 -0.3231  0.4944
 2940SOL    HW2 9720   3.877   5.984   5.341  0.6148 -0.2535 -3.6525
 2941SOL     OW 9721   0.294   2.478   3.994 -0.1323  0.2469 -0.2444
 2941SOL    HW1 9722   0.306   2.467   4.092  0.4379  1.0024 -0.2161
 2941SOL    HW2 9723   0.216   2.538   3.976  0.1025  0.5587 -0.2319
 2942SOL     OW 9724   2.547   1.818   0.622 -0.2459 -0.9103  0.2459
 2942SOL    HW1 9725   2.597   1.844   0.539  1.4664 -1.2879  1.1333
 2942SOL    HW2 9726   2.480   1.747   0.599 -1.3067  0.4650 -1.1927
 2943SOL     OW 9727   6.032   6.024   3.937  0.6552 -0.8345  0.4865
 2943SOL    HW1 9728   6.088   6.095   3.980  1.7554 -2.1203  1.2441
 2943SOL    HW2 9729   5.940   6.060   3.919  0.0382 -0.2583  4.1156
 2944SOL     OW 9730   2.080   6.207   3.366 -0.1957 -0.6246 -0.0221
 2944SOL    HW1 9731   1.981   6.202   3.380 -0.2122  0.3753  0.2501
 2944SOL    HW2 9732   2.127   6.180   3.450 -0.2695  1.1027  0.6123
 2945SOL     OW 9733   4.831   2.886   2.500  0.1329 -0.1591  0.3882
 2945SOL    HW1 9734   4.881   2.808   2.537 -0.7309 -0.7503  0.3358
 2945SOL    HW2 9735   4.814   2.871   2.402 -0.8414 -0.3560  0.5750
 2946SOL     OW 9736   0.028   3.145   0.603  0.3539 -0.2031  0.4007
 2946SOL    HW1 9737   0.087   3.175   0.528 -2.2999  3.1977 -0.5758
 2946SOL    HW2 9738   0.061   3.184   0.689  0.6760 -0.0862  0.2274
 2947SOL     OW 9739   5.831   6.458   1.328  0.5266 -0.1336 -0.0462
 2947SOL    HW1 9740   5.908   6.482   1.270  0.6361 -0.3642  0.0020
 2947SOL    HW2 9741   5.747   6.454   1.274  0.7115 -0.8538 -0.2894
 2948SOL     OW 9742   6.618   4.729   6.892 -0.5486 -0.7678 -0.4719
 2948SOL    HW1 9743   6.696   4.678   6.855  0.1372  0.7017 -1.1063
 2948SOL    HW2 9744   6.538   4.712   6.836 -0.2336 -0.8673 -0.8980
 2949SOL     OW 9745   6.398   0.021   6.568 -0.2115  0.3068  0.2127
 2949SOL    HW1 9746   6.475   0.038   6.507  0.5570 -1.1768  0.7255
 2949SOL    HW2 9747   6.428   0.030   6.663 -1.0491  1.1804  0.4136
 2950SOL     OW 9748   6.552   0.215   3.094  0.0314  0.0667 -0.2208
 2950SOL    HW1 9749   6.627   0.271   3.132 -0.5745  2.2335 -2.0234
 2950SOL    HW2 9750   6.579   0.180   3.005 -0.1503 -1.4225  0.2814
 2951SOL     OW 9751   6.435   6.571   2.267 -0.0670  0.0726 -0.3006
 2951SOL    HW1 9752   6.454   6.472   2.265 -0.3022  0.0180 -2.2081
 2951SOL    HW2 9753   6.510   6.620   2.224  0.2559  0.7947  1.0447
 2952SOL     OW 9754   6.820   0.172   4.369 -0.4396  0.1545 -0.2368
 2952SOL    HW1 9755   6.741   0.233   4.359 -0.3262  0.0180 -2.4304
 2952SOL    HW2 9756   6.885   0.213   4.434 -1.4049  1.2199  0.1062
 2953SOL     OW 9757   5.830   2.652   2.518 -0.3671  0.4687  0.5491
 2953SOL    HW1 9758   5.918   2.659   2.471 -0.7727  1.6529 -0.0803
 2953SOL    HW2 9759   5.787   2.742   2.520 -3.3286 -0.6534 -2.6164
 2954SOL     OW 9760   6.225   4.821   6.830 -0.6161  0.2525 -0.0519
 2954SOL    HW1 9761   6.193   4.748   6.890 -0.9569  1.6162  1.5142
 2954SOL    HW2 9762   6.301   4.788   6.774 -0.5038 -1.1667  0.8901
 2955SOL     OW 9763   1.667   5.010   2.301  0.7165  0.3550 -0.6193
 2955SOL    HW1 9764   1.740   5.034   2.365 -0.2551  1.8346 -0.0039
 2955SOL    HW2 9765   1.654   5.085   2.236 -2.2221  1.5686  1.1590
 2956SOL     OW 9766   0.257   3.443   3.508 -0.4077  0.0376 -0.2899
 2956SOL    HW1 9767   0.291   3.533   3.481  0.8821 -0.0945  0.7853
 2956SOL    HW2 9768   0.189   3.453   3.581 -0.0097  0.1395  0.0736
 2957SOL     OW 9769   5.115   6.328   1.407  0.2773 -0.8958 -0.1323
 2957SOL    HW1 9770   5.096   6.405   1.468  2.3696 -0.0083 -0.5068
 2957SOL    HW2 9771   5.030   6.279   1.388 -1.5151  2.2978 -1.2353
 2958SOL     OW 9772   2.297   6.124   3.564  0.4813 -0.0776  0.5983
 2958SOL    HW1 9773   2.330   6.218   3.558  0.1353 -0.0353 -1.0827
 2958SOL    HW2 9774   2.375   6.061   3.563  0.6505  0.1340 -0.0765
 2959SOL     OW 9775   5.798   3.279   2.013  0.2911 -0.0620  0.0037
 2959SOL    HW1 9776   5.811   3.253   2.109  0.9479  1.4251  0.3404
 2959SOL    HW2 9777   5.745   3.364   2.008 -0.3070 -0.4815 -0.9880
 2960SOL     OW 9778   4.835   5.504   6.273  0.1425  0.1539 -0.0556
 2960SOL    HW1 9779   4.786   5.441   6.213 -0.0632 -0.3792  0.6659
 2960SOL    HW2 9780   4.869   5.455   6.353  1.2464  0.6601 -0.1902
 2961SOL     OW 9781   6.257   5.693   3.205 -0.2050 -0.5123 -0.3045
 2961SOL    HW1 9782   6.314   5.676   3.285  1.0657  0.1903 -1.0296
 2961SOL    HW2 9783   6.307   5.749   3.139 -0.3970 -2.7709 -2.5485
 2962SOL     OW 9784   4.052   5.475   2.805 -0.4963 -0.6108  0.4117
 2962SOL    HW1 9785   3.987   5.531   2.856 -2.5747 -0.8515 -1.7871
 2962SOL    HW2 9786   4.020   5.380   2.804 -0.5086 -0.6126 -1.2536
 2963SOL     OW 9787   2.218   5.871   5.979 -0.8660  0.4919 -0.1384
 2963SOL    HW1 9788   2.122   5.854   5.957 -0.2500 -0.2827 -2.4553
 2963SOL    HW2 9789   2.273   5.791   5.956  0.4291  1.1318  0.6135
 2964SOL     OW 9790   5.073   2.222   6.635  0.3094 -0.0670  0.2136
 2964SOL    HW1 9791   5.073   2.138   6.581  0.5747  0.3791 -0.5121
 2964SOL    HW2 9792   5.161   2.232   6.681  0.5209  0.1282 -0.2254
 2965SOL     OW 9793   6.888   1.416   4.846 -0.0574  0.1194 -0.0131
 2965SOL    HW1 9794   6.929   1.344   4.791 -1.6500 -0.0085 -1.1158
 2965SOL    HW2 9795   6.840   1.375   4.924 -1.2070 -0.0949 -0.7967
 2966SOL     OW 9796   4.595   6.251   5.229  0.0014  0.4534  0.6213
 2966SOL    HW1 9797   4.571   6.251   5.132  0.4444  0.6827  0.5040
 2966SOL    HW2 9798   4.571   6.340   5.269 -1.1843 -0.0225  0.9897
 2967SOL     OW 9799   0.561   1.156   5.470 -0.0667 -0.5331  0.3671
 2967SOL    HW1 9800   0.657   1.163   5.497 -0.2070 -0.6465  0.9188
 2967SOL    HW2 9801   0.521   1.073   5.510 -0.6386  0.0061  0.9439
 2968SOL     OW 9802   1.622   1.882   1.270 -0.0371 -0.5379  0.2734
 2968SOL    HW1 9803   1.606   1.920   1.179  2.0988  1.4871  0.6155
 2968SOL    HW2 9804   1.632   1.783   1.265  0.3614 -0.4272 -1.7550
 2969SOL     OW 9805   6.700   3.087   4.124  0.5171 -0.3250 -0.5240
 2969SOL    HW1 9806   6.635   3.161   4.108  0.4950 -0.3190 -0.4022
 2969SOL    HW2 9807   6.763   3.081   4.046  1.2561  0.5774 -0.0179
 2970SOL     OW 9808   2.119   3.660   6.082  0.6136  0.6399  0.5645
 2970SOL    HW1 9809   2.166   3.732   6.031  0.3050  1.2982  1.2000
 2970SOL    HW2 9810   2.023   3.685   6.095  0.4576  0.0242  0.6325
 2971SOL     OW 9811   0.376   2.547   0.545  0.4028  0.3384 -0.2951
 2971SOL    HW1 9812   0.403   2.461   0.589  0.2736  0.1381 -0.6022
 2971SOL    HW2 9813   0.282   2.569   0.571  0.2992  0.1789 -0.5300
 2972SOL     OW 9814   5.366   4.856   6.987  0.3466 -0.1004  0.1175
 2972SOL    HW1 9815   5.421   4.805   7.054 -1.1422  1.7248  2.9043
 2972SOL    HW2 9816   5.271   4.826   6.991 -0.4636  2.3338  1.4462
 2973SOL     OW 9817   3.009   6.042   2.411  0.3424  0.0520 -0.1005
 2973SOL    HW1 9818   3.100   6.083   2.418 -0.1842  1.2291  0.2356
 2973SOL    HW2 9819   2.940   6.114   2.419 -0.6843 -1.0705  2.1474
 2974SOL     OW 9820   6.230   2.411   2.832  0.3085  0.4355 -0.2704
 2974SOL    HW1 9821   6.175   2.328   2.843  1.0024 -0.1010 -0.7499
 2974SOL    HW2 9822   6.206   2.456   2.746 -0.1439  0.7979  0.0407
 2975SOL     OW 9823   5.696   3.011   4.942  0.0845  0.1739 -0.3551
 2975SOL    HW1 9824   5.648   2.945   4.885 -1.8054  0.1543  1.1358
 2975SOL    HW2 9825   5.785   3.033   4.902 -0.1736 -1.5982 -2.0050
 2976SOL     OW 9826   4.962   3.717   2.862 -0.5607 -0.0958  0.1323
 2976SOL    HW1 9827   4.918   3.644   2.810 -1.2378  0.9444 -0.7849
 2976SOL    HW2 9828   5.003   3.679   2.945  0.4094 -1.7543 -1.0560
 2977SOL     OW 9829   2.459   0.573   2.691  0.1534 -0.5263  0.0597
 2977SOL    HW1 9830   2.373   0.623   2.679  0.7332  0.6524  0.7028
 2977SOL    HW2 9831   2.438   0.476   2.705 -1.0874 -0.2490  0.2921
 2978SOL     OW 9832   4.201   3.531   0.381 -0.3476 -0.1497  0.1917
 2978SOL    HW1 9833   4.118   3.486   0.414 -1.2025  2.2339  1.6394
 2978SOL    HW2 9834   4.249   3.572   0.459  1.1348  0.1764 -0.8642
 2979SOL     OW 9835   1.144   1.963   4.511 -0.3127  0.3312  0.0835
 2979SOL    HW1 9836   1.220   2.026   4.497  0.6830 -0.5381  1.3379
 2979SOL    HW2 9837   1.123   1.957   4.608 -0.2239 -1.4179  0.0298
 2980SOL     OW 9838   2.154   4.373   4.692  0.1024  0.0873 -0.0832
 2980SOL    HW1 9839   2.113   4.423   4.768  0.8043 -0.0213  0.3754
 2980SOL    HW2 9840   2.165   4.435   4.614 -2.2660 -0.2268 -0.7528
 2981SOL     OW 9841   3.839   6.703   5.637 -0.0448 -0.5789 -0.0172
 2981SOL    HW1 9842   3.868   6.670   5.727  1.7398 -0.7167 -0.5947
 2981SOL    HW2 9843   3.920   6.730   5.584 -0.9736 -1.2558 -1.8714
 2982SOL     OW 9844   0.511   5.693   2.274 -0.1818 -0.2980  0.1229
 2982SOL    HW1 9845   0.469   5.698   2.184 -0.8365 -1.9336  0.2898
 2982SOL    HW2 9846   0.602   5.734   2.272 -0.8167  1.1341 -0.8566
 2983SOL     OW 9847   0.300   2.089   1.817 -0.5410 -0.4858 -0.4648
 2983SOL    HW1 9848   0.288   2.189   1.810 -1.1524 -0.5848 -0.9178
 2983SOL    HW2 9849   0.250   2.045   1.743  0.0774 -1.1142 -0.5188
 2984SOL     OW 9850   6.675   5.635   6.853 -0.7243 -0.0237 -0.2930
 2984SOL    HW1 9851   6.700   5.643   6.757 -2.8360 -0.2647 -0.8977
 2984SOL    HW2 9852   6.586   5.591   6.861 -0.9985  0.7955  1.7274
 2985SOL     OW 9853   1.397   3.329   3.846  0.0420  0.8658  0.4651
 2985SOL    HW1 9854   1.469   3.267   3.876 -0.4363 -1.1864 -2.2013
 2985SOL    HW2 9855   1.359   3.378   3.924  4.5189  2.3744  1.9472
 2986SOL     OW 9856   3.422   3.689   2.833  0.1602  0.3299  0.2101
 2986SOL    HW1 9857   3.476   3.653   2.909 -2.7878 -2.9196  1.0169
 2986SOL    HW2 9858   3.428   3.626   2.756  0.3551  1.8230 -1.0377
 2987SOL     OW 9859   1.058   1.957   5.534  0.0251 -0.1123 -0.8250
 2987SOL    HW1 9860   1.077   2.054   5.516  1.7379 -0.5731 -1.7527
 2987SOL    HW2 9861   0.982   1.950   5.598  2.4435  2.0118  2.7187
 2988SOL     OW 9862   1.428   0.975   1.659  0.2696  0.0319 -0.2504
 2988SOL    HW1 9863   1.411   0.972   1.758 -0.9037 -2.3354 -0.4542
 2988SOL    HW2 9864   1.526   0.966   1.642  0.3194 -1.9254  0.7098
 2989SOL     OW 9865   6.691   3.497   4.079 -0.0733  0.2873 -0.0068
 2989SOL    HW1 9866   6.695   3.594   4.058 -1.0145  0.3535  0.0487
 2989SOL    HW2 9867   6.663   3.484   4.174  0.0037 -0.0372 -0.0274
 2990SOL     OW 9868   4.968   3.475   5.442 -0.1716 -0.3033  0.3476
 2990SOL    HW1 9869   4.904   3.414   5.395 -1.4009  0.4526  0.9959
 2990SOL    HW2 9870   5.028   3.519   5.375 -0.1161 -1.2375 -0.2375
 2991SOL     OW 9871   5.043   4.049   4.321 -0.0696  0.3418 -0.1576
 2991SOL    HW1 9872   5.084   3.959   4.332 -1.4970 -0.6045 -1.9012
 2991SOL    HW2 9873   5.056   4.103   4.404  2.7140 -0.6417  0.1353
 2992SOL     OW 9874   0.990   3.027   3.546 -0.0277 -0.5462  0.1218
 2992SOL    HW1 9875   1.066   2.968   3.575  0.1845 -0.2624  0.1442
 2992SOL    HW2 9876   0.925   2.973   3.493  1.4364 -0.2585 -2.0575
 2993SOL     OW 9877   5.207   5.958   6.931 -0.6885 -0.1305  1.0926
 2993SOL    HW1 9878   5.156   6.042   6.947 -0.5329 -0.1904  1.9355
 2993SOL    HW2 9879   5.223   5.946   6.833  0.9468  1.7834  1.0747
 2994SOL     OW 9880   4.888   5.097   0.095 -0.1105 -0.1966 -0.3034
 2994SOL    HW1 9881   4.795   5.065   0.080  0.4745 -1.2917 -1.8862
 2994SOL    HW2 9882   4.926   5.129   0.008  1.2877 -0.5982  0.1309
 2995SOL     OW 9883   3.823   5.123   1.074  0.0564 -0.1177 -0.2982
 2995SOL    HW1 9884   3.753   5.183   1.035  0.8915  1.6614  0.7869
 2995SOL    HW2 9885   3.913   5.163   1.058  0.7065 -1.4971 -0.1885
 2996SOL     OW 9886   6.855   2.549   4.045 -0.2212 -0.0411 -0.2292
 2996SOL    HW1 9887   6.929   2.560   3.979  0.3197 -0.2918  0.3229
 2996SOL    HW2 9888   6.774   2.597   4.012  1.1382  3.0918  0.6551
 2997SOL     OW 9889   4.196   0.694   3.868 -0.0245  0.1881 -0.7349
 2997SOL    HW1 9890   4.121   0.706   3.803 -2.0368 -0.4400  1.3240
 2997SOL    HW2 9891   4.202   0.598   3.895  1.7484  0.1765 -1.0456
 2998SOL     OW 9892   3.474   0.908   4.054 -0.1329 -0.8554 -0.1643
 2998SOL    HW1 9893   3.420   0.992   4.049  1.9243  0.5660 -0.2829
 2998SOL    HW2 9894   3.475   0.874   4.148 -1.1439 -0.8807 -0.1524
 2999SOL     OW 9895   2.621   5.210   4.856  0.1097  0.0162  0.1088
 2999SOL    HW1 9896   2.683   5.131   4.849  0.9404  0.4042  2.3199
 2999SOL    HW2 9897   2.646   5.278   4.788  0.2864 -1.0192 -0.8969
 3000SOL     OW 9898   3.164   5.514   6.813 -0.5450  0.1664  0.3895
 3000SOL    HW1 9899   3.096   5.486   6.745 -0.8165 -0.6669  0.9779
 3000SOL    HW2 9900   3.180   5.438   6.876  2.4546 -0.4124 -0.8983
 3001SOL     OW 9901   0.132   1.570   6.236 -0.1611  0.4633  0.3973
 3001SOL    HW1 9902   0.153   1.477   6.266 -1.4508  0.4552  1.3802
 3001SOL    HW2 9903   0.217   1.622   6.225  0.4961 -0.3579  1.4442
 3002SOL     OW 9904   2.805   0.794   0.786 -0.0023 -0.3155 -0.3620
 3002SOL    HW1 9905   2.773   0.888   0.788  1.5652  0.2272  0.2191
 3002SOL    HW2 9906   2.904   0.792   0.770 -0.0360 -1.8664 -0.5460
 3003SOL     OW 9907   1.088   0.623   0.894  0.8983  0.1621 -0.0298
 3003SOL    HW1 9908   1.082   0.643   0.991  0.3451  1.5565 -0.3286
 3003SOL    HW2 9909   1.163   0.675   0.853  0.8529 -0.0750 -0.4252
 3004SOL     OW 9910   1.696   5.853   2.951  0.0806  0.1725  0.0850
 3004SOL    HW1 9911   1.665   5.921   2.885 -1.9421 -0.7028  0.0447
 3004SOL    HW2 9912   1.769   5.798   2.910 -0.7770 -0.0201 -1.2610
 3005SOL     OW 9913   1.577   2.690   6.203 -0.2751 -0.4471  0.4627
 3005SOL    HW1 9914   1.573   2.711   6.105 -0.9330 -1.6549  0.2055
 3005SOL    HW2 9915   1.670   2.661   6.226  0.6601  2.5769  0.8398
 3006SOL     OW 9916   6.313   1.618   6.174  0.2744  0.0960 -0.0068
 3006SOL    HW1 9917   6.288   1.692   6.237 -0.7302 -0.3694  0.1592
 3006SOL    HW2 9918   6.273   1.636   6.084 -1.0030 -0.8278  0.3512
 3007SOL     OW 9919   5.216   6.741   0.425  0.2432 -0.2621  0.2191
 3007SOL    HW1 9920   5.127   6.695   0.432  0.6762 -1.5448 -1.9559
 3007SOL    HW2 9921   5.262   6.713   0.341  1.6714  2.2361  0.0590
 3008SOL     OW 9922   4.403   1.672   0.694 -0.0990 -0.0782 -0.1389
 3008SOL    HW1 9923   4.445   1.592   0.737  0.1609  0.5004  0.7144
 3008SOL    HW2 9924   4.431   1.677   0.598  1.9472  0.3747  0.4363
 3009SOL     OW 9925   5.732   4.030   3.940  0.9905 -0.3031  0.3204
 3009SOL    HW1 9926   5.820   4.009   3.984  1.7724  0.5662 -0.7609
 3009SOL    HW2 9927   5.747   4.045   3.842  0.1853  2.9045  0.5776
 3010SOL     OW 9928   4.013   5.741   3.217  0.8205  0.0662  0.3622
 3010SOL    HW1 9929   3.939   5.693   3.264 -0.2359  0.6119 -0.7050
 3010SOL    HW2 9930   4.099   5.691   3.230 -0.0815 -1.6381 -0.0161
 3011SOL     OW 9931   0.258   5.641   0.997 -0.1912 -0.2255  0.2970
 3011SOL    HW1 9932   0.226   5.666   1.088 -2.6311  0.2712 -0.6139
 3011SOL    HW2 9933   0.294   5.548   0.998  0.0915 -0.1220  1.7921
 3012SOL     OW 9934   4.226   3.491   6.848 -0.0234 -0.0212 -0.6376
 3012SOL    HW1 9935   4.139   3.492   6.896  0.4839  0.1468  0.3057
 3012SOL    HW2 9936   4.210   3.490   6.749 -1.0880 -0.8537 -0.4691
 3013SOL     OW 9937   5.619   3.522   2.117  0.7321 -0.2377 -0.8769
 3013SOL    HW1 9938   5.609   3.594   2.048 -0.0600 -1.3053 -1.9215
 3013SOL    HW2 9939   5.532   3.473   2.127  0.8885 -0.2132  0.7803
 3014SOL     OW 9940   6.301   1.917   0.300 -0.4040 -0.0601  0.2895
 3014SOL    HW1 9941   6.330   1.991   0.239  0.7763 -0.0284  0.8676
 3014SOL    HW2 9942   6.216   1.878   0.266  0.6328 -0.6142 -1.8661
 3015SOL     OW 9943   2.444   0.983   6.571  0.4158 -0.2103  0.6159
 3015SOL    HW1 9944   2.395   0.989   6.483 -0.0759  1.1524  0.9682
 3015SOL    HW2 9945   2.529   1.034   6.565 -0.0321  0.6177  1.1955
 3016SOL     OW 9946   2.379   6.425   4.386  0.1708  0.0938  0.0659
 3016SOL    HW1 9947   2.282   6.424   4.413  0.4020  1.3806  1.0533
 3016SOL    HW2 9948   2.390   6.483   4.306  0.4831  2.4316  1.7045
 3017SOL     OW 9949   6.048   5.495   2.869 -0.1349 -0.0746  0.6454
 3017SOL    HW1 9950   6.130   5.458   2.825 -0.1125  0.0313  0.5949
 3017SOL    HW2 9951   6.014   5.432   2.938  0.9929  0.6449  1.8989
 3018SOL     OW 9952   3.339   6.991   6.727  0.1995 -0.3538  0.3592
 3018SOL    HW1 9953   3.433   7.007   6.758  0.2328  0.2566 -0.0458
 3018SOL    HW2 9954   3.317   7.055   6.654  0.0137 -1.5760 -0.6783
 3019SOL     OW 9955   1.651   0.478   0.756  0.0266 -0.2698 -0.7716
 3019SOL    HW1 9956   1.735   0.521   0.722 -0.3445  1.0133 -0.1436
 3019SOL    HW2 9957   1.573   0.535   0.731 -0.3994 -0.0874  0.8886
 3020SOL     OW 9958   4.811   2.855   0.250  0.2412  0.1892  0.5622
 3020SOL    HW1 9959   4.798   2.944   0.206 -0.8482 -0.8488 -1.3943
 3020SOL    HW2 9960   4.908   2.831   0.247  0.2952  0.4524 -0.7892
 3021SOL     OW 9961   3.116   6.891   3.280 -0.0098  0.5150  0.0026
 3021SOL    HW1 9962   3.118   6.863   3.184 -1.6419  0.4094 -0.0330
 3021SOL    HW2 9963   3.158   6.981   3.289  2.1093 -0.3718 -0.4401
 3022SOL     OW 9964   3.633   5.174   3.991 -0.0918  0.1163 -0.2644
 3022SOL    HW1 9965   3.724   5.201   3.960 -0.1873  0.4676 -0.2412
 3022SOL    HW2 9966   3.596   5.243   4.052 -0.3679 -0.0350 -0.2562
 3023SOL     OW 9967   3.416   5.584   3.862 -0.2749  0.3391 -0.2703
 3023SOL    HW1 9968   3.497   5.553   3.812  0.2129  0.0179  0.7044
 3023SOL    HW2 9969   3.356   5.635   3.799  1.7927  2.6665 -0.5305
 3024SOL     OW 9970   0.491   6.393   4.469  0.4367  0.0006 -0.4049
 3024SOL    HW1 9971   0.404   6.352   4.441  0.2080  0.8165 -0.8995
 3024SOL    HW2 9972   0.544   6.325   4.521 -0.1523 -0.7601 -0.7705
 3025SOL     OW 9973   4.007   6.261   3.755  0.1864  0.3951 -0.1474
 3025SOL    HW1 9974   3.923   6.217   3.723 -0.2180 -0.5009  1.9993
 3025SOL    HW2 9975   4.086   6.215   3.714 -0.2813 -1.4384  0.8945
 3026SOL     OW 9976   0.528   2.191   5.959 -0.0730  0.1881  0.0477
 3026SOL    HW1 9977   0.442   2.186   5.908  0.7518 -0.0350 -1.3571
 3026SOL    HW2 9978   0.600   2.144   5.908  0.6996 -0.4227  1.6293
 3027SOL     OW 9979   3.838   1.829   2.687 -0.2569 -0.2263  0.5401
 3027SOL    HW1 9980   3.934   1.840   2.715 -0.0166  0.5166 -0.5313
 3027SOL    HW2 9981   3.833   1.763   2.612 -0.4089  0.7223 -0.3019
 3028SOL     OW 9982   3.463   3.780   1.353  0.2346  0.3009  0.0106
 3028SOL    HW1 9983   3.531   3.711   1.329  0.1116 -0.4508  1.6955
 3028SOL    HW2 9984   3.386   3.737   1.399 -0.4440  1.4001 -0.0674
 3029SOL     OW 9985   1.735   2.010   5.206  0.1332 -0.2117 -0.7908
 3029SOL    HW1 9986   1.698   2.050   5.289 -0.3893  1.4498 -1.7814
 3029SOL    HW2 9987   1.834   2.026   5.202  0.4344 -1.6547  0.2157
 3030SOL     OW 9988   6.007   4.480   0.330 -0.0341 -0.3717 -0.5237
 3030SOL    HW1 9989   5.937   4.413   0.355 -0.0791 -0.1201  0.0427
 3030SOL    HW2 9990   6.072   4.489   0.406 -1.1368  1.6870  0.2471
 3031SOL     OW 9991   3.169   3.692   1.200 -0.4581 -0.1384 -0.1934
 3031SOL    HW1 9992   3.245   3.638   1.164 -0.1093  0.7695 -0.8601
 3031SOL    HW2 9993   3.155   3.670   1.296 -0.1878 -1.2504 -0.3992
 3032SOL     OW 9994   3.119   4.654   1.638  0.7338  0.8572 -0.2688
 3032SOL    HW1 9995   3.097   4.604   1.722  1.2509  1.0825  0.0077
 3032SOL    HW2 9996   3.205   4.703   1.651  0.9132  0.7400 -0.9994
 3033SOL     OW 9997   1.080   1.880   4.263 -0.1126 -0.1778 -1.0347
 3033SOL    HW1 9998   1.084   1.898   4.361  0.5068 -0.4830 -0.9978
 3033SOL    HW2 9999   1.150   1.934   4.216  2.2956 -2.8624 -0.8414
 3034SOL     OW10000   3.239   1.480   3.073  0.3768  0.2530 -0.0846
 3034SOL    HW110001   3.289   1.443   2.995 -0.0006 -0.6644  0.0919
 3034SOL    HW210002   3.146   1.442   3.073  0.5183 -0.1107  1.0608
 3035SOL     OW10003   6.994   4.168   5.383 -0.3791 -0.0793  0.4033
 3035SOL    HW110004   6.961   4.128   5.469  0.3100  0.2979  0.8609
 3035SOL    HW210005   6.978   4.267   5.384 -1.3063 -0.2066 -0.3589
 3036SOL     OW10006   6.931   3.597   3.628  0.1505  0.3740 -0.3584
 3036SOL    HW110007   6.923   3.547   3.714 -1.6726  0.4599 -0.4407
 3036SOL    HW210008   6.907   3.537   3.552 -2.7941  1.4087 -0.4046
 3037SOL     OW10009   0.548   6.075   4.094 -0.2266  0.2059 -0.7481
 3037SOL    HW110010   0.602   5.991   4.092 -0.7394 -0.1324 -0.5657
 3037SOL    HW210011   0.521   6.100   4.001 -0.6218 -0.1898 -0.7408
 3038SOL     OW10012   4.181   4.394   0.972 -0.4156  0.2356  0.3947
 3038SOL    HW110013   4.200   4.374   1.068 -1.3762  0.5824  0.6700
 3038SOL    HW210014   4.127   4.478   0.965 -2.4064 -1.0183 -0.2553
 3039SOL     OW10015   1.715   2.668   1.290  0.2165  0.0403  0.2251
 3039SOL    HW110016   1.659   2.643   1.369 -0.4854  0.4146 -0.1402
 3039SOL    HW210017   1.672   2.745   1.242  0.8045  0.0269 -0.3347
 3040SOL     OW10018   2.430   5.672   5.933  0.1891  0.3034  0.3253
 3040SOL    HW110019   2.455   5.637   5.842  4.0880  0.1399  1.2750
 3040SOL    HW210020   2.506   5.657   5.996 -0.8927  3.7725  2.7223
 3041SOL     OW10021   6.675   5.148   4.579  0.1234  0.7431  0.4736
 3041SOL    HW110022   6.712   5.079   4.517 -0.5601  0.0798  0.7901
 3041SOL    HW210023   6.576   5.153   4.568 -0.3417 -0.9402  3.0040
 3042SOL     OW10024   5.077   0.056   2.803  0.3969  0.4397  0.8451
 3042SOL    HW110025   5.098  -0.033   2.762  0.1269  1.5870 -2.0040
 3042SOL    HW210026   4.978   0.069   2.807  0.4237  0.3819  1.8100
 3043SOL     OW10027   3.469   4.989   1.242  0.0450  0.5112  0.0333
 3043SOL    HW110028   3.471   4.926   1.320  0.9130 -1.3810 -1.4368
 3043SOL    HW210029   3.548   4.972   1.183 -1.3702  0.8187 -2.0611
 3044SOL     OW10030   2.394   4.992   4.777  0.8806 -0.5326  0.1236
 3044SOL    HW110031   2.491   4.980   4.798  0.5307  1.3627  3.6185
 3044SOL    HW210032   2.369   5.088   4.789 -1.8083 -1.2927  1.6475
 3045SOL     OW10033   5.535   0.110   4.332 -0.7358 -0.1603  0.6639
 3045SOL    HW110034   5.628   0.149   4.335 -0.7729  0.0204 -0.2979
 3045SOL    HW210035   5.518   0.059   4.416 -0.0620  0.4911  1.2112
 3046SOL     OW10036   4.617   6.070   0.236 -0.2843  0.0762  0.7637
 3046SOL    HW110037   4.533   6.114   0.206  0.1720 -1.3140 -3.1979
 3046SOL    HW210038   4.606   5.970   0.232  1.5983 -0.1495 -0.3399
 3047SOL     OW10039   6.359   0.234   0.342 -0.4451 -0.8559 -0.0259
 3047SOL    HW110040   6.435   0.170   0.351 -1.0526 -1.5681  0.2562
 3047SOL    HW210041   6.305   0.234   0.427  1.4374  2.6131  1.3618
 3048SOL     OW10042   4.438   4.074   0.320  0.1929  0.0325  0.0897
 3048SOL    HW110043   4.441   4.044   0.225  0.1429  0.0860  0.0712
 3048SOL    HW210044   4.526   4.113   0.345 -0.8225  3.2942 -0.9968
 3049SOL     OW10045   0.064   1.185   3.873 -0.0056  0.1163  1.2162
 3049SOL    HW110046  -0.021   1.203   3.823  0.6017  0.3915  0.2591
 3049SOL    HW210047   0.131   1.256   3.851  0.0579  0.6488  2.9772
 3050SOL     OW10048   1.878   4.015   1.235 -0.3584  0.5166 -0.2888
 3050SOL    HW110049   1.968   4.056   1.249  0.6090 -1.0801 -1.4137
 3050SOL    HW210050   1.819   4.078   1.184  0.4861  1.1589 -0.4866
 3051SOL     OW10051   2.387   0.067   6.000  0.1261  0.4542  0.0829
 3051SOL    HW110052   2.398  -0.032   5.987 -1.7571  0.2739 -0.4066
 3051SOL    HW210053   2.468   0.103   6.047  1.6935 -0.9843 -1.3602
 3052SOL     OW10054   5.164   6.016   2.837  0.0747  0.2338 -0.1861
 3052SOL    HW110055   5.137   6.106   2.801 -0.0184  0.4010  0.2950
 3052SOL    HW210056   5.262   6.004   2.823 -0.2757 -0.6099 -2.4510
 3053SOL     OW10057   0.934   4.154   1.141 -0.4906  0.6967  0.4209
 3053SOL    HW110058   1.003   4.206   1.091 -0.3276  0.5028  0.4433
 3053SOL    HW210059   0.962   4.142   1.236 -0.3138  0.1905  0.3086
 3054SOL     OW10060   6.430   1.570   1.208  0.0251 -0.1195 -0.0132
 3054SOL    HW110061   6.391   1.614   1.127  0.4075 -0.1091 -0.1939
 3054SOL    HW210062   6.378   1.487   1.228 -0.2589  0.0364 -0.0903
 3055SOL     OW10063   5.284   0.023   5.595 -0.3480 -0.4943 -0.5598
 3055SOL    HW110064   5.354   0.074   5.645 -1.8021 -0.4987  1.6508
 3055SOL    HW210065   5.318  -0.002   5.505  2.7786 -1.1481  0.6679
 3056SOL     OW10066   5.814   2.077   5.376 -0.4839 -0.0567  0.2076
 3056SOL    HW110067   5.840   2.171   5.399 -1.8448  0.3186  0.3321
 3056SOL    HW210068   5.743   2.078   5.305 -1.2614 -0.9222  0.9315
 3057SOL     OW10069   4.351   5.670   5.451  0.5399  0.1580  0.2409
 3057SOL    HW110070   4.409   5.643   5.374  0.9193  1.1345  0.1678
 3057SOL    HW210071   4.255   5.672   5.422  0.6038 -0.2216  0.0037
 3058SOL     OW10072   0.882   6.592   1.593  0.3438  0.2352 -0.0915
 3058SOL    HW110073   0.807   6.536   1.630  0.3877  0.3072  0.1103
 3058SOL    HW210074   0.958   6.591   1.658  0.4772  0.2455 -0.2500
 3059SOL     OW10075   3.902   6.953   4.367  0.4673 -0.1303 -0.3182
 3059SOL    HW110076   3.857   7.031   4.412  1.5312 -0.1522  0.8452
 3059SOL    HW210077   3.868   6.868   4.406 -0.5447 -0.2766 -1.4493
 3060SOL     OW10078   3.171   4.569   5.821  0.0705  0.0471 -0.2740
 3060SOL    HW110079   3.232   4.498   5.785  1.0764  0.4866  0.5046
 3060SOL    HW210080   3.221   4.656   5.825  0.2197 -0.0952  2.6982
 3061SOL     OW10081   6.471   6.958   0.975  0.0234  0.1286  0.3901
 3061SOL    HW110082   6.406   7.023   1.015 -0.0038  1.3433 -1.5064
 3061SOL    HW210083   6.421   6.885   0.929  0.0547 -0.7723  1.7318
 3062SOL     OW10084   2.677   5.304   1.882  0.1400  0.1626 -0.9933
 3062SOL    HW110085   2.712   5.252   1.960 -3.3469 -1.7169 -0.4829
 3062SOL    HW210086   2.746   5.306   1.810  2.1105 -1.2027  0.7323
 3063SOL     OW10087   0.281   4.343   0.234 -0.4757  0.5492 -0.2574
 3063SOL    HW110088   0.190   4.377   0.214 -0.3072  2.4576  1.8349
 3063SOL    HW210089   0.333   4.413   0.283  2.3695 -0.2279 -1.9598
 3064SOL     OW10090   5.439   4.489   0.212  0.4252 -0.3333 -0.0378
 3064SOL    HW110091   5.462   4.586   0.220 -1.7095  0.3354 -1.1935
 3064SOL    HW210092   5.503   4.444   0.149 -0.5927  1.1662 -2.2564
 3065SOL     OW10093   1.269   1.916   5.915 -0.3940 -0.3467 -0.2351
 3065SOL    HW110094   1.171   1.901   5.902 -0.7983  0.2130  1.9061
 3065SOL    HW210095   1.315   1.827   5.923 -0.9535 -0.6029  0.2156
 3066SOL     OW10096   3.561   4.891   5.746  0.2594  0.0290  0.3385
 3066SOL    HW110097   3.548   4.988   5.728 -1.5706 -0.2328 -0.0366
 3066SOL    HW210098   3.579   4.843   5.660 -0.7592 -0.1908  0.2282
 3067SOL     OW10099   0.252   0.469   0.821  0.0270  0.0915  0.3696
 3067SOL    HW110100   0.154   0.466   0.837  0.3902 -1.3039  2.8188
 3067SOL    HW210101   0.288   0.376   0.811  1.0649  0.5966 -1.0164
 3068SOL     OW10102   5.068   0.176   0.885  0.5496 -0.4226  0.7130
 3068SOL    HW110103   5.161   0.191   0.851 -0.4698 -0.1889 -2.1791
 3068SOL    HW210104   5.040   0.255   0.940  1.4386  0.2873  0.1768
 3069SOL     OW10105   4.509   6.944   4.824  0.2183  0.2365 -0.2618
 3069SOL    HW110106   4.465   7.003   4.892  0.7416  1.5187 -0.9899
 3069SOL    HW210107   4.596   6.911   4.860 -0.5777 -1.0291  0.5743
 3070SOL     OW10108   3.413   0.105   6.008 -0.3142  0.3239 -0.2734
 3070SOL    HW110109   3.379   0.129   6.098  0.0085  0.9096 -0.3044
 3070SOL    HW210110   3.418   0.005   6.000  1.2225  0.2577  0.9647
 3071SOL     OW10111   6.028   4.157   3.442  0.5760  0.0355  0.0288
 3071SOL    HW110112   6.098   4.098   3.483  0.2781  1.2711  2.5085
 3071SOL    HW210113   6.063   4.250   3.432 -0.4605  0.5154  0.6663
 3072SOL     OW10114   1.936   5.186   7.023  0.3200  0.2412  0.0433
 3072SOL    HW110115   1.873   5.133   7.080 -0.3023  1.1307  0.2066
 3072SOL    HW210116   2.023   5.198   7.071  0.3176 -0.2638  0.1802
 3073SOL     OW10117   5.422   4.826   2.934  0.0625 -0.4713 -0.2196
 3073SOL    HW110118   5.426   4.835   2.835  1.5786 -1.8611 -0.3360
 3073SOL    HW210119   5.342   4.774   2.961  0.3781 -1.2895 -0.8422
 3074SOL     OW10120   2.111   2.152   0.090 -0.4175  0.4258  0.5681
 3074SOL    HW110121   2.190   2.214   0.095  0.4380 -0.7434  2.1885
 3074SOL    HW210122   2.114   2.101   0.004 -0.9445  2.3186 -0.6338
 3075SOL     OW10123   1.960   5.570   1.640  0.2448 -0.0637  0.2244
 3075SOL    HW110124   2.006   5.638   1.698  1.7032  0.7519 -1.7473
 3075SOL    HW210125   2.018   5.489   1.632  0.2049 -0.0376 -0.3336
 3076SOL     OW10126   0.651   1.743   6.020 -0.6271  0.0764  0.0050
 3076SOL    HW110127   0.612   1.812   6.082 -1.7522  1.4173 -2.0468
 3076SOL    HW210128   0.660   1.656   6.067 -3.3147  0.5058  1.5211
 3077SOL     OW10129   5.487   2.276   2.561  0.4591  0.4462 -0.5923
 3077SOL    HW110130   5.387   2.280   2.567  0.4086 -1.3974  0.3532
 3077SOL    HW210131   5.516   2.181   2.549  2.1420  0.8518  0.0353
 3078SOL     OW10132   3.033   1.553   1.880  0.3724  0.1443 -0.3580
 3078SOL    HW110133   2.992   1.567   1.790 -1.2777 -1.7880  0.0237
 3078SOL    HW210134   2.964   1.518   1.944  1.6159  1.0125  1.5496
 3079SOL     OW10135   2.749   2.545   6.389  0.0672  0.1039 -0.0727
 3079SOL    HW110136   2.696   2.480   6.334  1.9478 -0.0994 -1.7410
 3079SOL    HW210137   2.802   2.605   6.329 -0.1617  1.9786  1.4806
 3080SOL     OW10138   0.071   3.741   2.381  0.9535  0.0846  0.9542
 3080SOL    HW110139   0.018   3.720   2.298 -0.6894 -0.2001  2.0334
 3080SOL    HW210140   0.037   3.685   2.457  0.7864  2.0520  2.3974
 3081SOL     OW10141   0.833   5.850   5.493  0.1733 -0.0767  0.0304
 3081SOL    HW110142   0.884   5.881   5.573  1.5535  1.7016 -1.4392
 3081SOL    HW210143   0.878   5.769   5.454 -1.1014 -1.6018  1.5602
 3082SOL     OW10144   1.957   4.928   3.870 -0.0315 -0.2746  0.6757
 3082SOL    HW110145   2.005   4.988   3.806  0.2823  0.8024  1.8683
 3082SOL    HW210146   2.007   4.842   3.879 -0.6477 -0.8810 -1.2857
 3083SOL     OW10147   2.878   6.396   1.664 -0.1914 -0.6653  0.3864
 3083SOL    HW110148   2.907   6.433   1.752  1.5388 -1.5219  0.2194
 3083SOL    HW210149   2.801   6.333   1.678 -1.4911  0.9858  0.9590
 3084SOL     OW10150   6.354   6.333   1.999  0.2760 -0.2542 -0.0955
 3084SOL    HW110151   6.417   6.410   1.993  0.2701 -0.2522 -0.1376
 3084SOL    HW210152   6.260   6.366   1.998  0.2789 -0.1988  0.8746
 3085SOL     OW10153   5.344   4.007   0.588  0.4103 -0.3145  0.1409
 3085SOL    HW110154   5.343   3.914   0.624 -0.7280 -0.1024  0.7124
 3085SOL    HW210155   5.303   4.069   0.654  0.4130  0.4661 -0.5688
 3086SOL     OW10156   4.940   6.999   0.228  0.2893  0.3401 -0.2307
 3086SOL    HW110157   4.920   7.096   0.211  0.8012  0.5303  0.2009
 3086SOL    HW210158   5.023   6.974   0.180  0.3265  0.2010 -0.0949
 3087SOL     OW10159   2.892   6.399   2.961  0.0993  0.1105 -0.0451
 3087SOL    HW110160   2.896   6.475   3.025  0.6716 -0.9025  1.1630
 3087SOL    HW210161   2.984   6.376   2.931 -0.1291  0.3204 -0.9561
 3088SOL     OW10162   3.416   3.225   5.678 -0.6480  0.2598  0.6477
 3088SOL    HW110163   3.407   3.250   5.774 -1.5154  0.1568  0.6023
 3088SOL    HW210164   3.415   3.126   5.669  2.8554  0.0838  0.8339
 3089SOL     OW10165   3.426   0.803   4.299 -0.3118  0.3776  0.1131
 3089SOL    HW110166   3.439   0.704   4.291  0.7358  0.5294 -0.2007
 3089SOL    HW210167   3.484   0.838   4.373 -0.5288  0.7899  0.0914
 3090SOL     OW10168   1.977   0.466   4.236 -0.1747  0.2281 -0.3055
 3090SOL    HW110169   1.941   0.479   4.328 -0.0786 -0.6833 -0.1266
 3090SOL    HW210170   1.962   0.371   4.207  0.0549  0.4271 -1.1135
 3091SOL     OW10171   1.648   2.301   0.007  0.3464 -0.2333  0.3054
 3091SOL    HW110172   1.569   2.359  -0.008  0.5808 -0.1888 -0.8056
 3091SOL    HW210173   1.728   2.357   0.028  0.0811 -0.2827  1.5273
 3092SOL     OW10174   4.684   5.298   0.738  0.0342  0.5481  0.2284
 3092SOL    HW110175   4.604   5.357   0.752  0.5180  1.2606  0.0642
 3092SOL    HW210176   4.746   5.342   0.673  0.1027 -0.4507 -0.3954
 3093SOL     OW10177   5.337   6.983   6.140 -0.2635  0.5042 -0.2054
 3093SOL    HW110178   5.429   6.958   6.171 -0.0771  0.4838 -0.7694
 3093SOL    HW210179   5.308   6.920   6.068 -1.0429  0.0175  0.5144
 3094SOL     OW10180   2.370   1.176   3.435 -0.5054  0.1170 -0.1174
 3094SOL    HW110181   2.320   1.235   3.371  0.4042  2.9663  1.6382
 3094SOL    HW210182   2.467   1.173   3.409 -0.2811  0.6279  0.6264
 3095SOL     OW10183   1.269   3.895   6.771  0.3932 -0.3936  0.4177
 3095SOL    HW110184   1.209   3.883   6.692 -0.3482 -2.5934  1.2248
 3095SOL    HW210185   1.213   3.910   6.853  0.8793 -2.1605  1.1307
 3096SOL     OW10186   1.185   2.523   4.434 -0.3202 -0.0317 -0.1923
 3096SOL    HW110187   1.091   2.559   4.438  0.2696  1.8302 -1.4515
 3096SOL    HW210188   1.190   2.450   4.366 -1.0556 -0.9093  0.6678
 3097SOL     OW10189   6.000   3.536   6.734 -0.4001 -0.3191  0.0850
 3097SOL    HW110190   5.901   3.543   6.718 -0.4443  1.5350  0.8515
 3097SOL    HW210191   6.034   3.449   6.698 -1.8488  0.1166 -2.6541
 3098SOL     OW10192   1.636   4.176   2.660 -0.3017  0.7466  0.1109
 3098SOL    HW110193   1.727   4.213   2.637 -0.5969  0.8507 -0.9624
 3098SOL    HW210194   1.628   4.083   2.624 -0.1249  0.2112  1.4345
 3099SOL     OW10195   2.298   5.095   4.373 -0.1006 -0.7645  0.3166
 3099SOL    HW110196   2.261   5.018   4.425  0.2836 -1.9877 -1.1327
 3099SOL    HW210197   2.256   5.096   4.282 -0.3843  1.0010  0.4440
 3100SOL     OW10198   2.671   0.188   3.381  0.0460  0.2223  0.2045
 3100SOL    HW110199   2.687   0.132   3.300 -0.5787  0.5315 -0.1362
 3100SOL    HW210200   2.634   0.131   3.454  1.1898 -0.1832  0.4897
 3101SOL     OW10201   2.664   0.342   5.367  0.3934  0.0701 -0.3442
 3101SOL    HW110202   2.601   0.265   5.378  0.5258  0.0795  0.5650
 3101SOL    HW210203   2.696   0.372   5.457  0.1718  1.3289 -0.6595
 3102SOL     OW10204   6.656   6.381   1.765  0.1163 -0.0700  0.2491
 3102SOL    HW110205   6.732   6.317   1.774 -0.3570 -0.6936 -0.1748
 3102SOL    HW210206   6.663   6.429   1.678  1.3734  1.6660  1.2219
 3103SOL     OW10207   4.645   6.625   0.641 -0.0295 -0.4694 -0.1572
 3103SOL    HW110208   4.740   6.596   0.647 -0.7001 -2.5443  1.4157
 3103SOL    HW210209   4.596   6.600   0.724 -1.1401  4.0313  0.8573
 3104SOL     OW10210   4.722   6.615   6.660 -0.7647  0.5404 -0.0633
 3104SOL    HW110211   4.712   6.527   6.706 -1.4057  1.1382  0.9799
 3104SOL    HW210212   4.774   6.603   6.576 -0.0998 -0.6903  0.5030
 3105SOL     OW10213   3.658   2.381   1.383  0.1478 -0.3201 -0.3446
 3105SOL    HW110214   3.564   2.414   1.376  0.3796  0.3716 -0.2432
 3105SOL    HW210215   3.704   2.426   1.460  0.5528 -0.6867 -0.3643
 3106SOL     OW10216   6.014   6.491   6.109 -0.0624 -0.3663  0.4305
 3106SOL    HW110217   6.074   6.569   6.121  0.2385 -0.0632 -2.3690
 3106SOL    HW210218   5.922   6.523   6.085 -0.2909 -0.8573  0.6383
 3107SOL     OW10219   5.403   2.304   3.366  0.2968 -0.0030 -0.0165
 3107SOL    HW110220   5.306   2.324   3.371  0.4290  0.5193  0.6268
 3107SOL    HW210221   5.455   2.389   3.374  0.8267 -0.3907  0.7327
 3108SOL     OW10222   2.124   4.583   4.514 -0.2150  0.6205  0.2029
 3108SOL    HW110223   2.184   4.638   4.573  0.2638  1.6979 -1.2225
 3108SOL    HW210224   2.042   4.636   4.493  0.4329  1.0039 -1.5172
 3109SOL     OW10225   6.225   0.096   3.884 -0.3049 -0.3852  0.3551
 3109SOL    HW110226   6.144   0.098   3.944  0.4542  1.4189  1.3839
 3109SOL    HW210227   6.305   0.068   3.938  0.1484 -0.0620 -0.1445
 3110SOL     OW10228   1.295   5.807   3.460  0.2439  0.4571  0.3170
 3110SOL    HW110229   1.386   5.836   3.488 -0.3685  2.9282 -0.0857
 3110SOL    HW210230   1.252   5.878   3.405 -0.5656 -2.0980 -2.6598
 3111SOL     OW10231   1.074   5.266   2.661  0.2801  0.2189 -0.2050
 3111SOL    HW110232   1.165   5.291   2.696 -0.0642  1.4116 -0.1158
 3111SOL    HW210233   1.039   5.340   2.604 -1.7537  1.0197  1.9102
 3112SOL     OW10234   3.838   3.348   1.044 -0.3402  0.1903 -0.6423
 3112SOL    HW110235   3.805   3.394   1.127 -1.2815  0.1743 -0.9921
 3112SOL    HW210236   3.764   3.344   0.977 -0.0778 -1.2315 -0.8764
 3113SOL     OW10237   2.992   6.728   0.900 -0.0574  0.0978 -0.9921
 3113SOL    HW110238   3.038   6.807   0.860  2.6599 -1.5726 -1.4012
 3113SOL    HW210239   2.923   6.694   0.836 -1.0237  1.8794 -0.9514
 3114SOL     OW10240   3.415   0.844   1.064 -0.1467 -0.5785 -0.2168
 3114SOL    HW110241   3.344   0.778   1.091 -1.0698  0.6865  0.5760
 3114SOL    HW210242   3.482   0.799   1.005 -0.5861 -2.2924  0.5292
 3115SOL     OW10243   3.018   4.425   5.606  0.2820  0.3487  0.1325
 3115SOL    HW110244   3.052   4.451   5.696  0.7174 -0.7024  0.2978
 3115SOL    HW210245   2.961   4.343   5.615 -2.6150  2.1996 -0.1048
 3116SOL     OW10246   0.369   0.183   6.476  0.0215 -0.0530  0.2117
 3116SOL    HW110247   0.310   0.188   6.396 -0.9564 -3.7566  0.5226
 3116SOL    HW210248   0.454   0.135   6.453  1.0548  1.4503  0.7628
 3117SOL     OW10249   3.304   3.937   5.219 -0.1316 -0.7301 -0.1468
 3117SOL    HW110250   3.245   4.013   5.190  1.4733  0.8384  0.5315
 3117SOL    HW210251   3.341   3.892   5.138  1.0775  1.0062 -0.6259
 3118SOL     OW10252   1.580   6.587   2.491  0.2331 -0.2207  0.3877
 3118SOL    HW110253   1.622   6.628   2.410 -0.0706  0.4119  0.5427
 3118SOL    HW210254   1.568   6.657   2.561  0.5973 -0.7830  1.0307
 3119SOL     OW10255   6.910   2.635   0.237  0.2125 -0.4059 -0.3846
 3119SOL    HW110256   6.884   2.726   0.270  0.2161 -0.2413 -0.8245
 3119SOL    HW210257   6.941   2.642   0.142  0.5451 -0.8152 -0.3073
 3120SOL     OW10258   3.892   6.665   6.272 -0.5691 -0.5033  0.4800
 3120SOL    HW110259   3.951   6.691   6.347  0.2290  1.9383 -0.8913
 3120SOL    HW210260   3.833   6.742   6.247 -1.5737 -1.6024 -0.6995
 3121SOL     OW10261   5.211   2.343   4.800 -0.0745 -0.1542 -0.0561
 3121SOL    HW110262   5.136   2.310   4.859 -0.3808  0.7576  0.0740
 3121SOL    HW210263   5.187   2.325   4.704  0.1599 -1.1036  0.0522
 3122SOL     OW10264   3.190   4.531   6.086 -0.1093 -0.5136  0.4394
 3122SOL    HW110265   3.224   4.486   6.003 -0.9551  0.8638 -0.6961
 3122SOL    HW210266   3.246   4.611   6.106 -2.0537  1.2990 -0.9810
 3123SOL     OW10267   1.616   6.902   3.236 -0.2949  0.8114  0.2739
 3123SOL    HW110268   1.574   6.945   3.315  1.9092  0.6242  1.6171
 3123SOL    HW210269   1.715   6.919   3.236  0.4913 -2.8891  0.0444
 3124SOL     OW10270   5.498   6.639   5.030  0.6114  0.9410  0.1938
 3124SOL    HW110271   5.401   6.650   5.051  0.5498 -0.6870  0.8793
 3124SOL    HW210272   5.553   6.680   5.103  0.4066 -0.9539  1.4644
 3125SOL     OW10273   1.309   3.208   4.149  0.1507 -0.0315 -0.3439
 3125SOL    HW110274   1.264   3.170   4.068 -0.8320  0.6716 -0.1408
 3125SOL    HW210275   1.295   3.146   4.226 -1.1373  0.5304 -0.1014
 3126SOL     OW10276   6.504   4.631   6.304  0.4415 -0.2327  0.0416
 3126SOL    HW110277   6.583   4.648   6.363  0.9422 -0.4453 -0.5416
 3126SOL    HW210278   6.537   4.605   6.213 -0.3053 -1.1283  0.0142
 3127SOL     OW10279   2.452   1.277   5.998  0.3530 -0.3624  0.3828
 3127SOL    HW110280   2.412   1.185   6.000 -1.6539  0.4538  0.0575
 3127SOL    HW210281   2.527   1.280   5.932 -0.6538 -1.3672 -0.8503
 3128SOL     OW10282   4.449   0.919   6.195  0.5053  0.0752 -0.0026
 3128SOL    HW110283   4.409   0.894   6.106 -0.5342 -1.0846  0.7637
 3128SOL    HW210284   4.402   1.000   6.231 -1.1721 -1.2108  0.8382
 3129SOL     OW10285   5.306   2.938   0.941  0.2099 -0.1264  0.1544
 3129SOL    HW110286   5.213   2.906   0.953 -0.7871  2.3340 -0.4360
 3129SOL    HW210287   5.355   2.934   1.028 -1.5894  1.8202  1.3502
 3130SOL     OW10288   2.365   2.535   0.073 -0.2976  0.3332  0.1019
 3130SOL    HW110289   2.411   2.496  -0.007  1.1720  0.0079  1.0635
 3130SOL    HW210290   2.266   2.533   0.059 -0.1288 -0.8989 -1.1626
 3131SOL     OW10291   6.704   4.007   1.621  0.4541  0.3226 -0.2327
 3131SOL    HW110292   6.764   4.003   1.701  0.5753 -1.7071 -0.3758
 3131SOL    HW210293   6.610   3.991   1.649  0.6190 -1.4255 -0.5748
 3132SOL     OW10294   5.003   5.152   6.866 -0.7513 -0.2296 -0.4384
 3132SOL    HW110295   5.045   5.243   6.863  2.6305 -1.6746 -1.4464
 3132SOL    HW210296   4.927   5.148   6.802  0.7738  1.1694 -2.4306
 3133SOL     OW10297   3.404   6.866   0.935  0.0704 -0.2879 -0.0552
 3133SOL    HW110298   3.342   6.853   0.857 -0.7398 -0.3591  0.5870
 3133SOL    HW210299   3.357   6.919   1.006  0.5322 -0.8597  0.6897
 3134SOL     OW10300   3.822   3.541   1.590 -0.3767 -0.3388 -0.1906
 3134SOL    HW110301   3.867   3.480   1.526  0.3286 -1.1133  1.0069
 3134SOL    HW210302   3.860   3.633   1.582 -0.6940 -0.2886 -1.2534
 3135SOL     OW10303   5.939   0.166   1.822  0.0822 -0.7089 -0.8805
 3135SOL    HW110304   6.033   0.139   1.802  0.9055 -0.0854  1.6906
 3135SOL    HW210305   5.919   0.253   1.777  1.0693 -0.4051 -0.7632
 3136SOL     OW10306   5.112   5.254   1.073 -0.2113 -0.0242  0.0917
 3136SOL    HW110307   5.199   5.207   1.086 -0.1780 -0.2807 -1.0154
 3136SOL    HW210308   5.053   5.201   1.013  1.0778  2.7222 -4.0507
 3137SOL     OW10309   0.256   0.478   1.750  0.2900  0.6109  0.2074
 3137SOL    HW110310   0.302   0.469   1.838  0.2808  1.0701  0.2620
 3137SOL    HW210311   0.236   0.387   1.713 -1.8798  0.3499  1.8293
 3138SOL     OW10312   4.925   5.815   4.683  0.1157 -0.0514  0.6382
 3138SOL    HW110313   4.934   5.754   4.605 -0.2760 -0.7574  1.1295
 3138SOL    HW210314   4.944   5.908   4.655 -0.4825 -0.2245 -0.4084
 3139SOL     OW10315   4.251   3.892   1.777  0.0092  0.2689 -0.6052
 3139SOL    HW110316   4.161   3.936   1.771 -0.3453 -0.3803 -0.1581
 3139SOL    HW210317   4.240   3.796   1.802  0.9030  0.6489  1.4389
 3140SOL     OW10318   4.893   1.904   5.857 -0.2875  0.0089  0.1964
 3140SOL    HW110319   4.890   2.000   5.828  0.4919  0.0209  0.1296
 3140SOL    HW210320   4.890   1.845   5.777  0.4455  0.0076  0.1689
 3141SOL     OW10321   1.503   4.585   5.678  0.2244 -0.8211  0.0935
 3141SOL    HW110322   1.563   4.649   5.630 -0.9641  0.0130 -0.3368
 3141SOL    HW210323   1.432   4.636   5.727 -1.3755 -1.8010 -1.0946
 3142SOL     OW10324   3.460   1.549   3.690  0.5292  0.6370 -0.3127
 3142SOL    HW110325   3.491   1.523   3.781  0.9127  0.0558 -0.6028
 3142SOL    HW210326   3.482   1.645   3.673 -0.5970  1.0939  0.6486
 3143SOL     OW10327   6.615   2.298   0.148 -0.7593 -0.4931  0.4907
 3143SOL    HW110328   6.571   2.351   0.075 -1.7691 -1.6275  0.2456
 3143SOL    HW210329   6.713   2.319   0.150 -0.8937  0.3182 -0.5040
 3144SOL     OW10330   5.080   4.165   0.105  0.0158  0.1309 -0.9957
 3144SOL    HW110331   5.175   4.137   0.091  0.3031  0.3232  0.4433
 3144SOL    HW210332   5.027   4.143   0.023  1.2475 -0.1612 -1.7450
 3145SOL     OW10333   2.215   0.515   2.106  0.3954  0.3421 -0.0373
 3145SOL    HW110334   2.227   0.491   2.010  0.6433  0.4320 -0.0296
 3145SOL    HW210335   2.121   0.544   2.122  0.9036  2.5081 -0.7205
 3146SOL     OW10336   1.365   3.118   5.402 -0.2513  0.1038  0.5979
 3146SOL    HW110337   1.457   3.137   5.368 -0.5292 -2.1170 -1.6329
 3146SOL    HW210338   1.368   3.042   5.467 -0.7198 -2.0286 -1.7191
 3147SOL     OW10339   3.663   2.013   0.398  0.2858  0.4007 -0.2703
 3147SOL    HW110340   3.706   1.931   0.438 -0.7330  0.3450  0.7674
 3147SOL    HW210341   3.709   2.095   0.433  0.9431  0.3081 -0.8767
 3148SOL     OW10342   1.295   1.024   0.155 -0.2426 -0.1600 -0.4276
 3148SOL    HW110343   1.215   1.045   0.211  0.0835 -0.3632  0.1115
 3148SOL    HW210344   1.376   1.016   0.213 -0.0790 -1.3859 -0.7981
 3149SOL     OW10345   4.408   6.087   4.654 -0.4073  0.4009 -0.5784
 3149SOL    HW110346   4.427   6.170   4.602  3.6384 -0.6406 -1.1073
 3149SOL    HW210347   4.375   6.016   4.592  0.0988  0.4508 -0.9111
 3150SOL     OW10348   0.986   6.462   4.943 -0.1125 -0.0609  0.8742
 3150SOL    HW110349   0.955   6.501   5.029 -2.1210  0.4039  0.0050
 3150SOL    HW210350   0.973   6.529   4.869  2.7596  0.0518  0.3259
 3151SOL     OW10351   0.072   1.738   6.478  0.5392  0.5517 -0.0018
 3151SOL    HW110352  -0.008   1.741   6.538  2.0384 -1.0920  2.2330
 3151SOL    HW210353   0.065   1.659   6.417  0.5965  0.1920  0.4479
 3152SOL     OW10354   2.255   1.477   6.995 -0.6695  0.2696 -0.4608
 3152SOL    HW110355   2.192   1.523   6.932  2.5432  2.9035 -2.0653
 3152SOL    HW210356   2.348   1.504   6.974  1.0029 -2.4527  2.5662
 3153SOL     OW10357   6.565   0.312   0.763  0.0850 -0.0583 -0.2222
 3153SOL    HW110358   6.471   0.314   0.797 -0.1413  2.4017 -0.8142
 3153SOL    HW210359   6.575   0.238   0.696 -0.6527 -2.0667  1.7697
 3154SOL     OW10360   6.677   1.376   6.957  0.0347  0.1068 -0.9187
 3154SOL    HW110361   6.672   1.374   6.857 -1.3387 -0.5283 -0.8631
 3154SOL    HW210362   6.657   1.285   6.993 -0.8803  0.6328 -0.0370
 3155SOL     OW10363   6.344   0.121   1.106  0.3540  0.1144  0.2034
 3155SOL    HW110364   6.260   0.155   1.063 -0.0104 -0.2211  0.6446
 3155SOL    HW210365   6.405   0.198   1.124 -1.0405  0.8007  2.4588
 3156SOL     OW10366   3.941   3.474   0.783 -0.2483  0.0147 -0.2991
 3156SOL    HW110367   3.861   3.499   0.728  0.2117 -0.7549 -1.3501
 3156SOL    HW210368   3.928   3.383   0.822  0.3030 -0.3191 -0.8727
 3157SOL     OW10369   0.890   0.991   5.931  0.2147  0.0047  0.1115
 3157SOL    HW110370   0.862   0.999   5.836  2.2232  1.2484 -0.4576
 3157SOL    HW210371   0.970   1.049   5.947  0.7010 -1.1265  2.2543
 3158SOL     OW10372   2.708   6.174   3.440  0.5227  0.2213  0.0567
 3158SOL    HW110373   2.738   6.113   3.367  0.2209 -0.5995  0.5927
 3158SOL    HW210374   2.676   6.260   3.402  2.3965  0.6560 -0.6140
 3159SOL     OW10375   2.201   0.241   5.060  0.0383 -0.5326 -0.1893
 3159SOL    HW110376   2.275   0.206   5.003 -0.7853 -0.5209 -1.2931
 3159SOL    HW210377   2.113   0.214   5.021 -0.5797  0.9474  0.0928
 3160SOL     OW10378   2.197   6.460   5.660 -0.7580 -0.1708  0.4479
 3160SOL    HW110379   2.156   6.387   5.714 -0.1397 -0.0922  1.0464
 3160SOL    HW210380   2.138   6.541   5.663 -1.9012 -0.9017 -0.9684
 3161SOL     OW10381   2.162   4.626   2.950 -0.1778  0.1948 -0.8817
 3161SOL    HW110382   2.120   4.608   3.039 -2.4696 -1.3362 -2.1828
 3161SOL    HW210383   2.257   4.594   2.951 -0.4044 -0.5328  0.7562
 3162SOL     OW10384   1.359   6.149   2.563 -0.0631 -0.3874 -0.4334
 3162SOL    HW110385   1.298   6.216   2.605  0.1126  1.1451 -2.4850
 3162SOL    HW210386   1.305   6.075   2.522 -0.4267  0.0310 -0.7092
 3163SOL     OW10387   3.490   3.672   5.323  0.4720 -0.4998  0.1844
 3163SOL    HW110388   3.532   3.634   5.240  0.8468  1.3911 -0.5567
 3163SOL    HW210389   3.397   3.703   5.301  1.5430  2.6373 -0.4050
 3164SOL     OW10390   2.459   0.177   1.169  0.2460 -0.2608  0.4648
 3164SOL    HW110391   2.450   0.092   1.118 -0.9410 -0.4057  0.8831
 3164SOL    HW210392   2.464   0.157   1.267 -0.9962  0.1893  0.6331
 3165SOL     OW10393   2.037   5.834   2.304 -1.3365 -0.2096  0.5253
 3165SOL    HW110394   1.970   5.766   2.276  1.9724 -3.1340 -1.0236
 3165SOL    HW210395   2.074   5.810   2.394  2.0877 -2.6230 -1.3145
 3166SOL     OW10396   5.903   2.580   4.592  0.6808 -0.2264  0.6078
 3166SOL    HW110397   5.834   2.509   4.601  0.0391  0.1550 -0.8823
 3166SOL    HW210398   5.992   2.545   4.623  0.8965 -2.5185 -2.1702
 3167SOL     OW10399   5.969   4.207   6.126 -0.7206  0.3560  0.3130
 3167SOL    HW110400   5.970   4.203   6.026  0.1497 -2.1030  0.3519
 3167SOL    HW210401   5.931   4.294   6.155  0.2453  1.7138 -2.1650
 3168SOL     OW10402   6.317   3.991   6.791 -0.1680  0.6289  0.0085
 3168SOL    HW110403   6.322   4.011   6.889 -0.8548  0.2268  0.1393
 3168SOL    HW210404   6.251   3.916   6.777  0.4776  0.1835 -0.6861
 3169SOL     OW10405   3.042   4.863   3.085  0.1313 -0.3411 -0.3297
 3169SOL    HW110406   3.126   4.845   3.033  0.1375  1.0643 -0.8625
 3169SOL    HW210407   3.063   4.923   3.162 -0.7354  2.5018 -2.1230
 3170SOL     OW10408   5.529   0.244   1.954 -0.3355  0.4067  0.3999
 3170SOL    HW110409   5.510   0.146   1.963  2.8069 -0.4578 -0.8958
 3170SOL    HW210410   5.448   0.296   1.980 -3.9157 -2.5650 -3.4890
 3171SOL     OW10411   6.669   0.971   1.227  0.5701 -0.0146  0.0511
 3171SOL    HW110412   6.660   0.876   1.197  1.9869 -0.2154  0.1916
 3171SOL    HW210413   6.766   0.995   1.233  0.2470  1.9768 -1.6652
 3172SOL     OW10414   6.922   3.915   6.569  0.0352  0.0121  0.6094
 3172SOL    HW110415   6.902   3.946   6.476 -0.1974 -0.3169  0.5459
 3172SOL    HW210416   7.011   3.869   6.570 -0.4424 -0.9535  0.3129
 3173SOL     OW10417   1.231   3.373   6.426  0.0645 -0.8341  0.7218
 3173SOL    HW110418   1.172   3.392   6.347  2.9295  1.3798 -1.1217
 3173SOL    HW210419   1.206   3.434   6.501 -0.2570 -0.2063  0.1166
 3174SOL     OW10420   3.180   3.309   1.025 -0.7375  0.3359 -0.0470
 3174SOL    HW110421   3.214   3.355   1.107 -0.6209 -0.1193  0.1656
 3174SOL    HW210422   3.216   3.215   1.023 -0.6374  0.3850 -0.6803
 3175SOL     OW10423   0.130   1.153   1.052 -0.1725  0.0965  0.0278
 3175SOL    HW110424   0.077   1.082   1.099  0.5556 -1.1708 -0.9991
 3175SOL    HW210425   0.215   1.170   1.103 -0.9263  1.2057  0.9755
 3176SOL     OW10426   6.498   4.020   6.080 -0.5970 -0.6804 -0.0600
 3176SOL    HW110427   6.413   4.066   6.105 -0.5101  1.2045 -2.7057
 3176SOL    HW210428   6.499   4.003   5.981  0.6865 -3.8390  0.3941
 3177SOL     OW10429   5.162   3.307   2.799  0.0473  0.4713  1.3464
 3177SOL    HW110430   5.070   3.282   2.770  1.0996 -1.2193 -0.8428
 3177SOL    HW210431   5.180   3.270   2.890 -1.0209 -0.1441  1.3243
 3178SOL     OW10432   6.476   2.387   0.927 -0.1006 -0.5047 -0.0598
 3178SOL    HW110433   6.520   2.476   0.911 -2.8115  0.6033 -2.1956
 3178SOL    HW210434   6.536   2.330   0.984  2.1450  2.3211  0.6626
 3179SOL     OW10435   1.164   1.011   2.757  1.2318 -0.5360 -0.9802
 3179SOL    HW110436   1.186   0.962   2.841 -0.9991  0.4442  0.2647
 3179SOL    HW210437   1.198   0.960   2.678  3.2944 -1.5389  0.4731
 3180SOL     OW10438   3.654   6.880   0.823 -0.6007 -0.0886  0.1151
 3180SOL    HW110439   3.574   6.886   0.883  0.5888 -0.1698  1.8084
 3180SOL    HW210440   3.733   6.919   0.870 -0.0898  2.2926 -2.4448
 3181SOL     OW10441   5.377   3.635   3.440  0.7190 -0.1725 -0.1879
 3181SOL    HW110442   5.421   3.690   3.512  0.9243  0.5493 -0.8417
 3181SOL    HW210443   5.356   3.694   3.362  1.4692 -1.1388 -1.1484
 3182SOL     OW10444   1.244   5.783   5.720  0.0188  0.0032  0.0311
 3182SOL    HW110445   1.275   5.877   5.729 -1.4031  0.7894 -2.5047
 3182SOL    HW210446   1.287   5.741   5.641 -0.5334 -0.9885  0.2400
 3183SOL     OW10447   3.103   4.680   0.280 -0.0495 -0.5465 -0.1342
 3183SOL    HW110448   3.014   4.636   0.272 -0.1840  0.0103 -2.3317
 3183SOL    HW210449   3.161   4.628   0.342 -1.3612 -1.7903  0.0961
 3184SOL     OW10450   1.115   3.570   5.160  0.1783 -0.4501 -0.1197
 3184SOL    HW110451   1.194   3.615   5.202  0.0163 -1.0840  0.8963
 3184SOL    HW210452   1.059   3.639   5.114 -0.4057  0.5559  1.9433
 3185SOL     OW10453   3.766   5.221   5.479  0.0013  0.5355  0.5158
 3185SOL    HW110454   3.810   5.212   5.389 -1.6187 -0.7123 -0.2150
 3185SOL    HW210455   3.824   5.179   5.549  0.0086 -1.0758 -0.4149
 3186SOL     OW10456   2.369   1.033   5.977 -0.3152 -0.3293  0.4705
 3186SOL    HW110457   2.389   0.958   5.914  1.1965  0.3323  0.1302
 3186SOL    HW210458   2.276   1.022   6.013 -0.6667 -1.5214 -0.7259
 3187SOL     OW10459   4.938   5.401   4.413 -0.4858  0.6479 -0.0426
 3187SOL    HW110460   4.979   5.479   4.460  0.5718  0.9283 -1.3726
 3187SOL    HW210461   4.890   5.433   4.331 -1.2117  0.0330  0.1304
 3188SOL     OW10462   6.989   0.162   4.663 -0.3171  0.1598  0.3576
 3188SOL    HW110463   7.025   0.077   4.701 -0.3199  0.3924  0.8971
 3188SOL    HW210464   6.898   0.180   4.702 -1.3855 -0.7992 -1.5324
 3189SOL     OW10465   2.754   1.744   0.796 -1.3477  0.2459 -0.1436
 3189SOL    HW110466   2.680   1.708   0.740 -2.6370  0.9384  1.0552
 3189SOL    HW210467   2.809   1.668   0.832 -1.8152 -0.3067 -0.5839
 3190SOL     OW10468   6.076   4.957   0.086  0.3989  0.7881 -0.0242
 3190SOL    HW110469   6.151   5.018   0.062 -0.0469  1.3266 -0.0699
 3190SOL    HW210470   6.103   4.862   0.069  0.3684  1.0961 -1.9455
 3191SOL     OW10471   3.367   3.605   1.036  0.1956 -0.2007  0.4279
 3191SOL    HW110472   3.431   3.619   0.961 -0.9879  1.4076 -0.3309
 3191SOL    HW210473   3.400   3.530   1.094  3.2298  1.1294  0.5960
 3192SOL     OW10474   0.887   3.187   1.476 -0.0596 -0.0464 -0.0950
 3192SOL    HW110475   0.917   3.109   1.421  0.7404 -0.5092  0.9733
 3192SOL    HW210476   0.853   3.259   1.415  0.2473 -0.7756 -1.1586
 3193SOL     OW10477   6.626   1.083   5.242  0.4060 -0.2491 -0.4765
 3193SOL    HW110478   6.588   1.023   5.312  2.3051 -0.4060  0.4934
 3193SOL    HW210479   6.719   1.111   5.269 -0.0097  2.2801 -1.4070
 3194SOL     OW10480   2.231   2.922   4.006 -0.4790 -0.7091  0.1897
 3194SOL    HW110481   2.141   2.889   4.032 -0.8902  0.2718  0.0336
 3194SOL    HW210482   2.239   3.019   4.029  1.2090 -1.1956  1.9906
 3195SOL     OW10483   1.262   2.343   3.253 -0.5385  0.1097 -0.0900
 3195SOL    HW110484   1.176   2.394   3.259 -0.6565 -0.2525  1.8097
 3195SOL    HW210485   1.338   2.408   3.251 -0.7788  0.3965 -0.1854
 3196SOL     OW10486   0.031   0.393   1.274  0.0223 -0.0009 -0.4262
 3196SOL    HW110487   0.101   0.459   1.298 -0.1462 -0.3581  1.1291
 3196SOL    HW210488  -0.039   0.438   1.217  1.4859  0.3384 -2.0288
 3197SOL     OW10489   4.017   6.789   4.744 -0.4893  0.1726  0.4471
 3197SOL    HW110490   4.060   6.814   4.657  1.4071  0.8108  1.5134
 3197SOL    HW210491   3.957   6.710   4.730 -1.8273  1.4738 -1.8019
 3198SOL     OW10492   6.280   2.806   2.503  0.4331 -0.2454 -0.0860
 3198SOL    HW110493   6.339   2.726   2.509  1.1628  0.3016  0.1486
 3198SOL    HW210494   6.336   2.889   2.503 -0.3342  0.2843  0.2158
 3199SOL     OW10495   5.869   3.698   3.006 -0.0542 -0.3675  0.6830
 3199SOL    HW110496   5.863   3.789   2.965  0.6522 -0.5472  0.1563
 3199SOL    HW210497   5.871   3.629   2.933  1.8975 -0.6690  0.9509
 3200SOL     OW10498   4.760   1.805   1.741 -0.6806 -0.1450 -0.0954
 3200SOL    HW110499   4.858   1.816   1.753 -0.8056 -0.7390  1.8082
 3200SOL    HW210500   4.725   1.879   1.684  0.7116  0.6563  0.0521
 3201SOL     OW10501   6.027   4.228   4.945 -0.6980  0.8307  0.5524
 3201SOL    HW110502   5.927   4.230   4.938 -1.1174 -3.9010  1.9607
 3201SOL    HW210503   6.055   4.277   5.028 -2.1453 -0.0472  1.6011
 3202SOL     OW10504   0.637   5.650   0.764  0.1091 -0.4366 -0.2811
 3202SOL    HW110505   0.622   5.677   0.859 -0.0619  1.2184 -0.7402
 3202SOL    HW210506   0.552   5.663   0.712  0.6679  0.4313 -1.0210
 3203SOL     OW10507   6.083   1.472   6.346 -0.0220  0.5656 -0.6570
 3203SOL    HW110508   6.030   1.539   6.398  0.7714  0.6939  0.0061
 3203SOL    HW210509   6.162   1.517   6.303  1.4582 -0.1896  1.1417
 3204SOL     OW10510   3.437   1.266   5.071  0.5395  0.2454 -0.0471
 3204SOL    HW110511   3.375   1.309   5.006 -0.9485 -0.6397  0.7225
 3204SOL    HW210512   3.444   1.323   5.153 -0.6088 -0.4309  0.5455
 3205SOL     OW10513   5.072   4.033   5.720  0.5086 -0.0354  0.4779
 3205SOL    HW110514   4.991   4.020   5.776  0.2383 -1.5894 -0.2222
 3205SOL    HW210515   5.058   3.992   5.630  0.2730  3.8901 -1.4460
 3206SOL     OW10516   0.865   4.645   0.432  0.1162 -0.5320 -0.5502
 3206SOL    HW110517   0.881   4.550   0.461 -1.9766 -0.1970  2.1162
 3206SOL    HW210518   0.950   4.683   0.397  1.8748 -2.4302  1.3324
 3207SOL     OW10519   0.723   1.186   6.869  0.1039 -0.3022 -0.1289
 3207SOL    HW110520   0.646   1.241   6.904  1.0475  0.8558  0.1973
 3207SOL    HW210521   0.799   1.190   6.934  1.6770  1.3740 -1.9350
 3208SOL     OW10522   5.544   0.341   6.078 -0.9584 -0.5018  0.3425
 3208SOL    HW110523   5.542   0.368   5.982 -0.4844  0.9045  0.7031
 3208SOL    HW210524   5.627   0.377   6.121 -1.1272 -1.1813  1.2598
 3209SOL     OW10525   2.133   4.148   4.326 -0.9339  0.5816  0.0147
 3209SOL    HW110526   2.148   4.121   4.422 -3.7947  0.5113  0.5124
 3209SOL    HW210527   2.056   4.097   4.289 -0.6237  1.4923 -1.9847
 3210SOL     OW10528   0.553   4.894   0.195 -0.0178  0.4077  0.3198
 3210SOL    HW110529   0.583   4.833   0.269 -0.1642  1.1523  0.9937
 3210SOL    HW210530   0.491   4.963   0.231  1.1449  1.7657 -0.1643
 3211SOL     OW10531   1.408   5.606   6.593  0.1937  0.2693 -0.0045
 3211SOL    HW110532   1.309   5.593   6.597  0.4684 -1.7146  1.7790
 3211SOL    HW210533   1.447   5.541   6.528  0.5054 -0.2931  0.7390
 3212SOL     OW10534   2.454   5.800   1.925  0.3240  0.6884 -0.1695
 3212SOL    HW110535   2.419   5.716   1.883  0.3521  0.9614 -0.7618
 3212SOL    HW210536   2.524   5.778   1.992  1.4171  0.3069 -1.4034
 3213SOL     OW10537   2.072   6.924   4.841  0.2585 -0.4720 -0.0584
 3213SOL    HW110538   2.041   7.015   4.868 -1.1263 -0.5137 -1.3962
 3213SOL    HW210539   1.999   6.857   4.858  0.3379 -0.9114 -1.3744
 3214SOL     OW10540   5.429   5.959   2.739  0.1150 -0.2112 -0.6337
 3214SOL    HW110541   5.465   6.035   2.685  0.4510  0.7481  0.8765
 3214SOL    HW210542   5.500   5.925   2.801 -1.2313  1.2561  1.9160
 3215SOL     OW10543   0.561   4.379   6.361  0.3564  0.5573  0.1949
 3215SOL    HW110544   0.620   4.440   6.308  0.6289  0.2007  0.0863
 3215SOL    HW210545   0.593   4.285   6.351 -0.2368  0.3582  0.1277
 3216SOL     OW10546   5.404   4.414   6.688 -0.3824 -0.0419  0.2312
 3216SOL    HW110547   5.448   4.413   6.598  1.3006  1.5113  0.9847
 3216SOL    HW210548   5.320   4.467   6.684 -0.6399 -0.4911 -0.5452
 3217SOL     OW10549   2.287   6.655   0.537  0.5674  0.5672  0.1353
 3217SOL    HW110550   2.285   6.559   0.566 -1.3766  0.1380 -1.1945
 3217SOL    HW210551   2.379   6.692   0.550  1.1048 -1.1546  1.6348
 3218SOL     OW10552   5.994   4.515   3.148 -0.1658 -0.1226  0.5157
 3218SOL    HW110553   6.040   4.470   3.224 -0.3035  0.7545  1.1394
 3218SOL    HW210554   6.062   4.552   3.085 -0.0461 -1.8891 -0.4575
 3219SOL     OW10555   1.533   1.565   3.671  0.8996 -0.0446 -0.3130
 3219SOL    HW110556   1.537   1.659   3.640  0.5951 -0.0055 -0.2362
 3219SOL    HW210557   1.553   1.561   3.769  1.6634 -0.1456 -0.4688
 3220SOL     OW10558   6.575   0.957   4.835  0.8301 -0.0419 -0.3100
 3220SOL    HW110559   6.585   0.954   4.735 -2.6153  0.7489 -0.8012
 3220SOL    HW210560   6.652   1.005   4.875  1.3869  1.2765 -2.7907
 3221SOL     OW10561   2.879   0.252   2.605 -0.0822  0.5238  0.5155
 3221SOL    HW110562   2.935   0.214   2.679  2.9337  0.2820 -1.6907
 3221SOL    HW210563   2.868   0.350   2.619  1.8504  0.7809  0.5604
 3222SOL     OW10564   2.913   2.184   4.138  0.4788  0.1762 -0.0963
 3222SOL    HW110565   2.858   2.264   4.161  0.5178  0.6937 -1.6341
 3222SOL    HW210566   3.008   2.200   4.165  0.1134 -0.2750  1.5711
 3223SOL     OW10567   2.515   6.192   5.549 -0.6375 -0.0304 -0.6908
 3223SOL    HW110568   2.482   6.100   5.531 -1.1298  0.3399 -1.7947
 3223SOL    HW210569   2.498   6.250   5.469  0.8450  0.6957 -0.5291
 3224SOL     OW10570   5.517   3.224   4.998 -0.1151 -0.0526 -0.3998
 3224SOL    HW110571   5.584   3.150   4.993 -0.9788 -1.1928  2.7567
 3224SOL    HW210572   5.436   3.199   4.944  0.0333 -0.9602 -0.2215
 3225SOL     OW10573   4.859   2.122   0.612  0.0653  0.0427 -0.2805
 3225SOL    HW110574   4.894   2.096   0.522 -0.9778 -0.3869 -0.5684
 3225SOL    HW210575   4.894   2.058   0.680  0.1605 -0.1457 -0.5014
 3226SOL     OW10576   3.262   1.596   3.450  0.1132  0.1162  0.0163
 3226SOL    HW110577   3.322   1.544   3.510  0.5403  0.7735  0.1653
 3226SOL    HW210578   3.307   1.682   3.424 -0.8548  0.7351  0.3323
 3227SOL     OW10579   3.883   2.346   5.531 -0.4398 -0.9333  0.1663
 3227SOL    HW110580   3.854   2.331   5.625 -0.4747 -1.8175  0.0222
 3227SOL    HW210581   3.942   2.270   5.502  1.2693  0.3398  0.1506
 3228SOL     OW10582   0.182   4.823   0.945 -0.4403 -0.6367  0.0265
 3228SOL    HW110583   0.175   4.922   0.960 -0.7416 -0.7578  0.7592
 3228SOL    HW210584   0.093   4.788   0.914 -0.4831 -0.7468  0.2646
 3229SOL     OW10585   2.664   2.159   4.876 -0.2067 -0.4866  0.5652
 3229SOL    HW110586   2.678   2.115   4.787 -1.4172 -2.0191  1.0956
 3229SOL    HW210587   2.570   2.195   4.880 -0.8199 -2.1631  1.9249
 3230SOL     OW10588   2.260   4.102   6.646  0.3806 -0.3398 -0.1426
 3230SOL    HW110589   2.279   4.185   6.699  1.4876  0.3541 -1.5320
 3230SOL    HW210590   2.200   4.041   6.698 -0.8773  1.5460  0.7287
 3231SOL     OW10591   1.317   0.325   2.343  0.6991 -0.1102  0.5400
 3231SOL    HW110592   1.371   0.378   2.408 -0.4575 -1.5395  2.7823
 3231SOL    HW210593   1.349   0.230   2.342  0.6955 -0.1239 -1.0331
 3232SOL     OW10594   3.801   6.317   5.374 -0.7274 -0.2529  0.5591
 3232SOL    HW110595   3.771   6.222   5.377  1.6478 -1.1329 -0.9549
 3232SOL    HW210596   3.873   6.332   5.441  0.1741 -0.0522 -0.4198
 3233SOL     OW10597   6.942   2.354   6.009  0.3216 -0.4923  0.2922
 3233SOL    HW110598   6.883   2.327   6.085  0.1109 -0.3081  0.1977
 3233SOL    HW210599   6.950   2.280   5.943  0.8642 -0.8139  0.7082
 3234SOL     OW10600   0.919   4.388   0.589  0.6656 -0.3707 -0.2040
 3234SOL    HW110601   0.992   4.347   0.534  0.2130 -2.1375  0.4527
 3234SOL    HW210602   0.927   4.358   0.684 -1.4889 -1.5264 -0.3069
 3235SOL     OW10603   0.493   1.475   1.461  0.1337  0.1044 -0.8339
 3235SOL    HW110604   0.556   1.443   1.390  2.7973  1.6622  0.6803
 3235SOL    HW210605   0.541   1.483   1.548 -2.1563  1.5363  0.4125
 3236SOL     OW10606   2.482   3.217   6.092 -0.2377  0.1069  0.0644
 3236SOL    HW110607   2.436   3.159   6.025  0.0884 -0.9729  0.7342
 3236SOL    HW210608   2.414   3.271   6.141 -0.6923 -0.6216  0.2587
 3237SOL     OW10609   5.554   2.536   3.422  0.0952  0.7297 -0.0110
 3237SOL    HW110610   5.557   2.563   3.326 -0.2150  0.6512 -0.0411
 3237SOL    HW210611   5.647   2.537   3.459  0.1791  1.0682 -0.2257
 3238SOL     OW10612   4.620   6.067   0.729 -0.8682 -0.2127 -0.3847
 3238SOL    HW110613   4.524   6.050   0.752 -0.2277 -0.8907  2.1606
 3238SOL    HW210614   4.657   6.138   0.790  0.4713 -0.6478 -0.6567
 3239SOL     OW10615   0.941   1.200   3.336  0.0442 -0.5054  0.6110
 3239SOL    HW110616   0.934   1.262   3.258  0.3255 -0.4119  0.6614
 3239SOL    HW210617   0.870   1.222   3.403  1.0653  0.7258  1.3216
 3240SOL     OW10618   2.111   4.608   5.493 -0.1164 -0.7060 -0.5752
 3240SOL    HW110619   2.091   4.706   5.497  0.0018 -0.6732 -0.7881
 3240SOL    HW210620   2.050   4.559   5.556  0.7074 -0.3497  0.5494
 3241SOL     OW10621   4.888   1.201   6.557 -0.7580  0.1547  0.3637
 3241SOL    HW110622   4.938   1.114   6.546 -0.3217  0.2416  1.5472
 3241SOL    HW210623   4.812   1.187   6.619 -1.5208  0.3137 -0.5159
 3242SOL     OW10624   4.203   4.513   5.846 -0.3532  0.3427 -0.2165
 3242SOL    HW110625   4.217   4.478   5.753  0.0297 -1.1246  0.3672
 3242SOL    HW210626   4.231   4.443   5.912 -0.1208  1.5674  1.0114
 3243SOL     OW10627   5.453   6.829   1.068  0.1044 -0.5194  0.0046
 3243SOL    HW110628   5.447   6.812   1.167  2.0860  0.6789  0.3931
 3243SOL    HW210629   5.520   6.901   1.051 -0.0141 -0.8727 -2.2683
 3244SOL     OW10630   5.536   6.102   0.796 -0.3621 -0.4489 -0.4911
 3244SOL    HW110631   5.564   6.197   0.781 -1.1496 -0.3103 -1.1817
 3244SOL    HW210632   5.566   6.046   0.720  0.9856 -0.9728  0.3947
 3245SOL     OW10633   4.300   3.998   5.678 -0.2804 -0.3288  0.6883
 3245SOL    HW110634   4.275   3.956   5.591 -0.8406  1.6226 -0.1406
 3245SOL    HW210635   4.399   3.986   5.693 -0.1808 -0.7027 -0.2033
 3246SOL     OW10636   0.334   1.408   2.443 -0.2306  0.3985  0.0508
 3246SOL    HW110637   0.378   1.320   2.463  0.6657  0.8425  0.0560
 3246SOL    HW210638   0.245   1.391   2.400 -0.6093 -0.5155  1.1458
 3247SOL     OW10639   5.981   5.469   3.675  0.1099 -0.5672  0.1192
 3247SOL    HW110640   6.073   5.430   3.678  0.4388  0.0500 -1.2292
 3247SOL    HW210641   5.926   5.430   3.749  1.9970  0.5002  2.1899
 3248SOL     OW10642   5.738   2.158   3.110 -0.0779 -0.0559  0.1548
 3248SOL    HW110643   5.717   2.245   3.067 -0.8667 -0.0639  0.5005
 3248SOL    HW210644   5.762   2.090   3.040 -0.5826  0.1327 -0.2024
 3249SOL     OW10645   3.965   3.036   3.963  0.0501  0.2300 -0.2499
 3249SOL    HW110646   4.009   2.952   3.995 -1.1493  0.1481  1.3424
 3249SOL    HW210647   3.962   3.102   4.038  1.4279  1.9336 -1.6263
 3250SOL     OW10648   6.376   6.832   2.602  0.2371  0.1641  0.1178
 3250SOL    HW110649   6.348   6.754   2.546 -1.1504  1.4290 -1.0362
 3250SOL    HW210650   6.332   6.827   2.691 -1.3265  0.5310 -0.5951
 3251SOL     OW10651   4.559   1.743   5.597  0.0479  0.0455 -0.4357
 3251SOL    HW110652   4.602   1.673   5.654 -0.5307 -1.5693 -1.8834
 3251SOL    HW210653   4.630   1.796   5.552  0.5063  1.0708  1.3972
 3252SOL     OW10654   3.753   1.764   2.093 -0.2090 -0.0234  0.4564
 3252SOL    HW110655   3.824   1.785   2.160  0.3633 -0.4148 -0.0202
 3252SOL    HW210656   3.783   1.689   2.035 -1.4921 -1.0034  0.9927
 3253SOL     OW10657   4.003   3.395   0.486 -0.0813  0.0008 -0.5339
 3253SOL    HW110658   4.000   3.310   0.538 -2.6428  1.2517  1.5350
 3253SOL    HW210659   3.926   3.454   0.511  2.3676  3.6470 -0.7203
 3254SOL     OW10660   4.402   5.260   6.114 -0.6272 -0.2940  0.0247
 3254SOL    HW110661   4.443   5.170   6.128 -0.2246 -0.0896  0.1737
 3254SOL    HW210662   4.302   5.252   6.115 -0.6004 -0.8598 -0.7416
 3255SOL     OW10663   3.513   5.509   0.637  0.1417 -0.5814 -0.3041
 3255SOL    HW110664   3.533   5.530   0.542  0.3782 -2.6902 -0.7797
 3255SOL    HW210665   3.416   5.525   0.656  0.2160  0.4093 -0.7208
 3256SOL     OW10666   2.600   1.429   6.505  0.4975 -0.4115 -0.1081
 3256SOL    HW110667   2.674   1.496   6.506  0.5403 -0.4537  0.8159
 3256SOL    HW210668   2.586   1.394   6.598 -1.0459  0.0065 -0.1570
 3257SOL     OW10669   0.863   2.401   1.641  0.2304  0.0975 -0.0168
 3257SOL    HW110670   0.888   2.423   1.735 -0.1765 -0.2014  0.1585
 3257SOL    HW210671   0.945   2.374   1.591  0.3801 -0.1459  0.3596
 3258SOL     OW10672   6.444   6.916   3.972  0.1978 -0.2259  0.0277
 3258SOL    HW110673   6.517   6.880   3.915 -1.0556 -0.1748 -1.6722
 3258SOL    HW210674   6.367   6.852   3.971 -0.2749  0.3211  0.7784
 3259SOL     OW10675   5.450   4.374   3.637  0.4116 -0.1290 -0.1173
 3259SOL    HW110676   5.488   4.355   3.728 -0.0097  0.8712  0.2866
 3259SOL    HW210677   5.503   4.325   3.568  0.4729 -1.2531  0.7010
 3260SOL     OW10678   1.282   2.576   1.893  0.1603 -0.1861 -0.1445
 3260SOL    HW110679   1.381   2.569   1.884  0.0601 -0.1027 -1.4352
 3260SOL    HW210680   1.243   2.614   1.810 -0.8315  1.1446  0.8859
 3261SOL     OW10681   0.010   1.038   2.172 -0.2704 -0.4882 -0.0134
 3261SOL    HW110682  -0.044   1.073   2.248 -0.3399 -0.0652 -0.2521
 3261SOL    HW210683   0.102   1.075   2.176 -0.4379 -0.0131 -0.4482
 3262SOL     OW10684   2.212   2.861   3.148 -0.6457  0.2894  0.8831
 3262SOL    HW110685   2.193   2.819   3.059 -0.0918  2.0331 -0.1103
 3262SOL    HW210686   2.299   2.828   3.183 -1.2035 -0.9472  1.1409
 3263SOL     OW10687   3.258   1.141   3.408  0.8651 -0.0101  0.3654
 3263SOL    HW110688   3.234   1.050   3.442  1.0081  0.0757  0.7032
 3263SOL    HW210689   3.311   1.189   3.478  1.0844  0.2034  0.0497
 3264SOL     OW10690   0.678   5.342   1.967 -0.1663  0.2456  0.4004
 3264SOL    HW110691   0.592   5.292   1.977  0.0341  0.0389  1.1614
 3264SOL    HW210692   0.736   5.324   2.046  1.4215 -1.2622 -1.0183
 3265SOL     OW10693   5.032   6.433   6.083 -0.0991 -0.2341  0.5009
 3265SOL    HW110694   5.100   6.400   6.148 -0.0352 -0.2972  0.4033
 3265SOL    HW210695   5.033   6.376   6.001  0.1184  0.0987  0.2657
 3266SOL     OW10696   2.073   3.695   0.044 -0.1314 -0.4334  0.5636
 3266SOL    HW110697   2.095   3.721  -0.050 -1.5065  0.7947  0.5492
 3266SOL    HW210698   2.136   3.742   0.107 -0.5385  0.4190  0.3526
 3267SOL     OW10699   2.898   5.844   2.557  0.9129  0.3375  0.2117
 3267SOL    HW110700   2.896   5.755   2.512 -1.0984  0.9821 -1.0983
 3267SOL    HW210701   2.937   5.912   2.495  0.8582  0.6817  0.5509
 3268SOL     OW10702   2.196   3.888   1.862 -0.1106 -0.1676  0.0630
 3268SOL    HW110703   2.186   3.988   1.866  1.4011 -0.0122  1.0605
 3268SOL    HW210704   2.200   3.852   1.955  3.5977 -0.6001 -0.0925
 3269SOL     OW10705   4.552   5.945   2.168  0.1438 -0.2984  0.3372
 3269SOL    HW110706   4.583   5.863   2.119  4.7807  0.4978  1.4415
 3269SOL    HW210707   4.565   5.931   2.267  2.1751  1.9884  0.4925
 3270SOL     OW10708   1.181   4.927   7.010  0.2777 -0.3314  0.1442
 3270SOL    HW110709   1.274   4.891   7.001  0.3873  0.0327 -0.2384
 3270SOL    HW210710   1.173   5.013   6.958 -0.0171  0.1197  0.9200
 3271SOL     OW10711   6.060   4.277   2.331 -0.1470  0.0701  0.1866
 3271SOL    HW110712   6.119   4.211   2.377  0.5370  1.1381  0.8836
 3271SOL    HW210713   6.107   4.316   2.252  0.6795  1.9283  1.5273
 3272SOL     OW10714   2.784   3.665   0.237  0.1581 -0.2679  0.6366
 3272SOL    HW110715   2.795   3.740   0.172 -0.1127 -0.4886  0.3328
 3272SOL    HW210716   2.862   3.663   0.300  1.1812 -0.9754 -0.6221
 3273SOL     OW10717   6.346   3.222   1.014  0.2906 -0.0135 -0.5860
 3273SOL    HW110718   6.305   3.212   1.105  1.9090  0.5497  0.2550
 3273SOL    HW210719   6.295   3.290   0.961 -0.8674 -0.5889 -0.2275
 3274SOL     OW10720   6.955   0.517   0.105 -0.0624  0.1217  0.3709
 3274SOL    HW110721   7.053   0.494   0.111  0.0649  0.5580  0.0154
 3274SOL    HW210722   6.935   0.594   0.166 -0.7327 -1.6214  2.4947
 3275SOL     OW10723   3.824   6.725   1.150  0.2864 -0.1313 -0.1670
 3275SOL    HW110724   3.821   6.796   1.220 -0.0348 -1.8785  1.6554
 3275SOL    HW210725   3.861   6.641   1.188  0.6153 -1.0032 -2.2552
 3276SOL     OW10726   5.805   5.429   5.913  0.0509  0.1168 -0.3486
 3276SOL    HW110727   5.707   5.436   5.931  0.4031  0.7742  1.5237
 3276SOL    HW210728   5.836   5.512   5.865 -0.2434  0.0382 -0.6810
 3277SOL     OW10729   3.217   0.834   6.256  0.1009  0.7974 -0.2886
 3277SOL    HW110730   3.308   0.835   6.298  0.1517 -1.1278 -0.2768
 3277SOL    HW210731   3.223   0.867   6.162  1.1819 -1.0769 -0.9175
 3278SOL     OW10732   0.192   0.206   6.014 -0.4202 -0.4300  0.3882
 3278SOL    HW110733   0.221   0.301   6.009 -0.9016 -0.2805  0.4383
 3278SOL    HW210734   0.093   0.201   6.011 -0.3810 -1.0304 -1.4064
 3279SOL     OW10735   4.169   6.488   1.063  0.2288 -0.2903  0.1350
 3279SOL    HW110736   4.266   6.493   1.084 -0.0067 -0.2219  1.3188
 3279SOL    HW210737   4.126   6.420   1.122  0.0449 -2.5789 -2.4404
 3280SOL     OW10738   4.906   4.338   4.630  0.5005  0.3330 -0.4261
 3280SOL    HW110739   4.854   4.345   4.715  1.1069  0.4882 -0.0641
 3280SOL    HW210740   4.890   4.419   4.574 -0.3507 -0.0324 -0.7219
 3281SOL     OW10741   0.841   5.176   0.527 -0.2388 -0.1026 -0.6587
 3281SOL    HW110742   0.742   5.192   0.537 -0.1011  0.9547 -0.8221
 3281SOL    HW210743   0.891   5.253   0.566  0.5452 -0.8042 -0.2400
 3282SOL     OW10744   0.818   5.316   4.306  0.4109  0.3753 -0.6824
 3282SOL    HW110745   0.865   5.233   4.335  1.1265  0.6567 -0.9998
 3282SOL    HW210746   0.878   5.368   4.244  0.3834  1.6052  0.2825
 3283SOL     OW10747   3.140   0.034   7.021  0.4402 -0.5166  0.2258
 3283SOL    HW110748   3.085  -0.019   6.956 -0.8601 -3.3499  3.3565
 3283SOL    HW210749   3.194   0.102   6.971 -2.9231 -0.1887 -3.4107
 3284SOL     OW10750   2.132   4.931   6.716  0.2739  0.0262  0.5378
 3284SOL    HW110751   2.157   4.977   6.631  1.4966 -1.4447  0.0651
 3284SOL    HW210752   2.131   4.997   6.791  1.0007  0.9988 -0.2877
 3285SOL     OW10753   4.633   2.711   4.888 -0.2620 -0.2217  0.0673
 3285SOL    HW110754   4.598   2.735   4.979 -0.2453  0.1167 -0.0157
 3285SOL    HW210755   4.556   2.697   4.826 -0.2514  0.5002 -0.1095
 3286SOL     OW10756   4.237   3.674   1.431  0.1220  0.2254  0.3553
 3286SOL    HW110757   4.165   3.693   1.497  0.5449 -1.8826  1.5005
 3286SOL    HW210758   4.204   3.609   1.363  0.8307 -0.5239  0.7135
 3287SOL     OW10759   1.115   6.938   6.653  0.2459  0.0172 -0.0756
 3287SOL    HW110760   1.033   6.883   6.671 -1.2811  1.7518 -1.3067
 3287SOL    HW210761   1.091   7.035   6.660  1.8772  0.5978 -1.7808
 3288SOL     OW10762   4.397   5.524   0.488  0.2090  0.3395  0.0611
 3288SOL    HW110763   4.434   5.616   0.497  0.5328  0.1030  1.3310
 3288SOL    HW210764   4.465   5.465   0.445  1.1378  0.0521  1.8329
 3289SOL     OW10765   3.606   0.946   6.839 -0.3372  0.2427 -0.5007
 3289SOL    HW110766   3.641   1.028   6.885  0.4285  0.1312 -0.8767
 3289SOL    HW210767   3.520   0.969   6.792 -1.5359  0.1829  1.5349
 3290SOL     OW10768   0.962   4.943   3.138  0.5388  0.0299  0.0579
 3290SOL    HW110769   0.944   4.867   3.076  0.4443 -0.1234  0.2751
 3290SOL    HW210770   0.927   5.028   3.097 -0.5331 -0.2357  0.3986
 3291SOL     OW10771   2.191   6.394   5.386  0.0469 -0.7611  0.0830
 3291SOL    HW110772   2.290   6.384   5.373  0.3512  0.1453  1.5003
 3291SOL    HW210773   2.174   6.440   5.473 -1.6448 -1.1844 -0.0081
 3292SOL     OW10774   6.540   1.192   0.699 -0.4393 -0.4092 -0.2148
 3292SOL    HW110775   6.474   1.208   0.772  1.0412 -2.4695  1.7064
 3292SOL    HW210776   6.557   1.094   0.691  2.0038  0.0139 -0.9581
 3293SOL     OW10777   5.116   4.896   0.572 -0.3656 -0.2307  0.1105
 3293SOL    HW110778   5.172   4.911   0.490 -0.9371 -0.6231 -0.3574
 3293SOL    HW210779   5.102   4.983   0.619 -0.6808  0.1326 -0.6358
 3294SOL     OW10780   4.739   2.807   5.876  0.1543 -0.3168  0.3836
 3294SOL    HW110781   4.747   2.887   5.935  0.4690 -0.4044  0.4619
 3294SOL    HW210782   4.812   2.808   5.808 -0.0218 -0.3798  0.1938
 3295SOL     OW10783   2.653   2.323   2.320  0.3746 -0.1049 -0.1948
 3295SOL    HW110784   2.753   2.318   2.315  0.5417  1.9868  0.2406
 3295SOL    HW210785   2.623   2.414   2.290 -1.4590 -0.8847 -0.8623
 3296SOL     OW10786   2.274   0.465   3.280 -0.0087  0.1133  0.2081
 3296SOL    HW110787   2.314   0.405   3.349 -0.3843  0.3991  0.6813
 3296SOL    HW210788   2.299   0.560   3.300  0.1463  0.1727 -0.2367
 3297SOL     OW10789   2.626   1.935   5.803  0.0410 -0.4437 -0.4159
 3297SOL    HW110790   2.683   1.943   5.884  0.8432 -0.0240 -1.0016
 3297SOL    HW210791   2.676   1.972   5.724 -1.0075 -0.1537 -0.9600
 3298SOL     OW10792   4.276   3.199   5.275  0.1425  0.0668 -0.8349
 3298SOL    HW110793   4.265   3.099   5.275  1.0101 -0.0509  0.2736
 3298SOL    HW210794   4.352   3.224   5.335  0.0257  1.3962 -1.2068
 3299SOL     OW10795   3.111   5.912   2.754 -0.0245 -0.0019 -0.0905
 3299SOL    HW110796   3.017   5.913   2.719 -0.0876  1.0047  0.0591
 3299SOL    HW210797   3.172   5.873   2.686 -0.6808 -1.5843  0.1927
 3300SOL     OW10798   0.406   1.692   5.909  0.2029 -0.1703 -0.0334
 3300SOL    HW110799   0.407   1.601   5.950  3.2856 -1.5994 -2.8416
 3300SOL    HW210800   0.471   1.751   5.956 -0.0070 -0.1672  0.2571
 3301SOL     OW10801   2.578   3.391   1.719 -0.0573  0.2449  0.4766
 3301SOL    HW110802   2.501   3.431   1.769  0.2061 -0.8349  1.8260
 3301SOL    HW210803   2.551   3.375   1.624 -0.2644  3.2377 -0.0714
 3302SOL     OW10804   6.798   5.386   3.338  0.5505  0.2187  0.4057
 3302SOL    HW110805   6.782   5.288   3.324 -0.1630  0.3521  0.2870
 3302SOL    HW210806   6.895   5.400   3.361  0.7186 -0.4844  0.1668
 3303SOL     OW10807   5.567   2.814   5.469  0.1392 -0.9093  0.4438
 3303SOL    HW110808   5.629   2.850   5.399 -0.8250 -0.8446 -0.3951
 3303SOL    HW210809   5.567   2.714   5.466  1.7504 -1.0034  1.8417
 3304SOL     OW10810   0.346   6.201   4.270 -0.8933 -0.0842  0.6859
 3304SOL    HW110811   0.384   6.149   4.194 -1.0041 -0.1090  0.6474
 3304SOL    HW210812   0.270   6.258   4.237  0.3063  1.4111  0.3669
 3305SOL     OW10813   2.807   2.168   3.347  0.0351  0.7131  0.3395
 3305SOL    HW110814   2.874   2.185   3.420  1.0518 -0.6704 -0.2324
 3305SOL    HW210815   2.801   2.070   3.330 -3.2062  0.6239  1.3282
 3306SOL     OW10816   0.634   6.058   5.386  0.1102 -0.2459 -0.3296
 3306SOL    HW110817   0.635   6.026   5.292  1.0605  0.0984 -0.4468
 3306SOL    HW210818   0.693   6.000   5.442  1.9318  1.2512 -0.5641
 3307SOL     OW10819   6.374   5.531   5.955  0.5400 -0.3202 -0.5111
 3307SOL    HW110820   6.319   5.530   5.871 -0.5993  0.2261  0.2184
 3307SOL    HW210821   6.322   5.492   6.030  1.7188 -1.2214 -0.1207
 3308SOL     OW10822   2.378   0.005   0.596  0.6809 -0.6075  0.2230
 3308SOL    HW110823   2.346  -0.019   0.505 -0.9847  0.7222  0.4093
 3308SOL    HW210824   2.473  -0.026   0.608  0.4255 -2.1321 -1.3882
 3309SOL     OW10825   5.341   6.636   4.092 -0.2306  0.5019  0.0410
 3309SOL    HW110826   5.336   6.705   4.020  1.4029  1.3348  0.6613
 3309SOL    HW210827   5.432   6.593   4.091 -0.3052  0.2536  1.3462
 3310SOL     OW10828   1.861   4.029   0.381  0.3183  0.1725 -0.5552
 3310SOL    HW110829   1.876   4.072   0.470 -2.3415  0.4259 -0.1468
 3310SOL    HW210830   1.862   4.099   0.309 -3.8409  1.1341  0.0884
 3311SOL     OW10831   3.411   3.601   1.871 -0.4166 -0.1231 -0.3485
 3311SOL    HW110832   3.475   3.605   1.947 -1.2336  1.3018  0.3084
 3311SOL    HW210833   3.318   3.620   1.904 -0.8039  0.3825 -1.6651
 3312SOL     OW10834   5.544   3.238   1.055  0.7079  0.1073 -0.5322
 3312SOL    HW110835   5.449   3.269   1.058  0.6368 -0.1492  1.5436
 3312SOL    HW210836   5.550   3.154   1.002 -0.1355  0.3770 -1.0782
 3313SOL     OW10837   0.385   5.719   5.242  0.2206  0.1397 -0.1056
 3313SOL    HW110838   0.470   5.690   5.286  0.3228 -0.2436 -0.5554
 3313SOL    HW210839   0.322   5.641   5.236  0.1034  0.2576 -0.4023
 3314SOL     OW10840   1.495   2.796   2.644 -0.3375  0.5007  0.2609
 3314SOL    HW110841   1.496   2.842   2.555 -2.7233 -0.7639 -0.5238
 3314SOL    HW210842   1.534   2.856   2.713 -0.2840  2.3414 -1.2726
 3315SOL     OW10843   0.275   3.385   4.996 -0.5899 -0.3461 -0.7480
 3315SOL    HW110844   0.348   3.381   4.928  0.1140 -0.3124 -0.0078
 3315SOL    HW210845   0.210   3.312   4.979  0.0091 -0.8353 -0.9806
 3316SOL     OW10846   4.375   0.249   4.568 -0.0321  0.1321 -1.0107
 3316SOL    HW110847   4.343   0.310   4.641 -0.3195  0.8902 -1.7668
 3316SOL    HW210848   4.440   0.297   4.510  2.2241 -1.2471  0.2189
 3317SOL     OW10849   5.378   1.104   3.342  0.0309 -0.6317  0.0953
 3317SOL    HW110850   5.308   1.143   3.283  0.8653  1.5778  0.4525
 3317SOL    HW210851   5.425   1.030   3.295 -1.1955 -0.8112 -0.8895
 3318SOL     OW10852   0.361   3.282   2.005  0.1679  0.5250 -0.3422
 3318SOL    HW110853   0.283   3.219   2.002  0.0543  0.6649 -0.3406
 3318SOL    HW210854   0.369   3.320   2.098  0.4032  0.3027 -0.2715
 3319SOL     OW10855   3.450   1.855   4.230  0.0723 -0.0384 -1.5600
 3319SOL    HW110856   3.451   1.944   4.186  0.0743  0.2444 -0.9966
 3319SOL    HW210857   3.396   1.791   4.174  0.6758  0.1146 -2.3314
 3320SOL     OW10858   1.563   2.583   1.509 -0.2246 -0.1165 -0.1935
 3320SOL    HW110859   1.536   2.670   1.550 -0.3621  0.6861 -1.8977
 3320SOL    HW210860   1.481   2.530   1.488 -0.1547 -0.5196  0.5063
 3321SOL     OW10861   5.554   1.873   6.633  0.0804  0.1387  0.2427
 3321SOL    HW110862   5.556   1.787   6.684  1.1481  1.1494  2.0194
 3321SOL    HW210863   5.481   1.931   6.669  0.5510  0.6868  0.3350
 3322SOL     OW10864   0.218   1.024   0.500  0.5076 -0.8119  0.2531
 3322SOL    HW110865   0.223   0.971   0.416  0.8222 -1.6319  0.7750
 3322SOL    HW210866   0.184   1.116   0.480  1.9326 -0.5206 -0.9786
 3323SOL     OW10867   2.626   2.353   0.886 -0.2065  0.2911 -0.1272
 3323SOL    HW110868   2.683   2.276   0.859 -0.3283 -0.7612  2.3773
 3323SOL    HW210869   2.530   2.331   0.871 -0.3024 -0.4636  1.3985
 3324SOL     OW10870   3.440   4.261   6.787 -0.4330 -0.2930  0.7413
 3324SOL    HW110871   3.450   4.256   6.687  1.5573 -0.8045  0.9138
 3324SOL    HW210872   3.396   4.347   6.812  0.1359  0.3972 -0.5275
 3325SOL     OW10873   6.939   5.026   5.553  0.5836 -0.6608  0.2170
 3325SOL    HW110874   6.876   5.084   5.604  0.6558 -1.2976  1.0602
 3325SOL    HW210875   7.010   4.992   5.615  1.4742 -0.3571 -0.6089
 3326SOL     OW10876   4.351   0.912   0.236  0.4060  0.6060  0.1735
 3326SOL    HW110877   4.447   0.936   0.253  0.0242  1.7133  0.8365
 3326SOL    HW210878   4.344   0.813   0.222  1.7311  0.5871 -0.5590
 3327SOL     OW10879   3.085   6.572   2.298  0.7579 -0.1320  0.1035
 3327SOL    HW110880   2.988   6.574   2.322  0.7606  1.2882  0.0983
 3327SOL    HW210881   3.140   6.553   2.379  0.6884  3.2603  1.1050
 3328SOL     OW10882   3.793   1.422   6.809 -0.1693  0.3488  0.5043
 3328SOL    HW110883   3.718   1.389   6.753  0.0228 -0.2838  0.6132
 3328SOL    HW210884   3.827   1.509   6.772 -1.1241  0.7799  0.6212
 3329SOL     OW10885   5.623   6.781   5.250 -0.0363  0.3672 -0.0134
 3329SOL    HW110886   5.575   6.802   5.335 -1.2297  1.2008 -0.8672
 3329SOL    HW210887   5.627   6.863   5.193 -1.4980 -0.7551 -1.8441
 3330SOL     OW10888   4.324   5.013   3.604  0.5552 -0.1585  0.1298
 3330SOL    HW110889   4.277   4.926   3.613 -2.8200  1.5558  0.6712
 3330SOL    HW210890   4.314   5.066   3.689  2.4281  0.8404 -0.2086
 3331SOL     OW10891   1.125   2.721   1.715 -0.2681  0.2721 -0.3503
 3331SOL    HW110892   1.135   2.732   1.616 -2.2746  0.5447 -0.5801
 3331SOL    HW210893   1.125   2.811   1.759 -2.6737  0.4645 -0.5623
 3332SOL     OW10894   5.629   5.487   0.585  0.2213  0.1662 -0.5230
 3332SOL    HW110895   5.689   5.412   0.613  0.0157 -0.2167 -1.0936
 3332SOL    HW210896   5.667   5.534   0.506  1.0054  1.5104  0.6098
 3333SOL     OW10897   4.468   5.123   0.299 -0.0873  0.1076  0.0591
 3333SOL    HW110898   4.479   5.083   0.390  1.3278  2.0621  0.7953
 3333SOL    HW210899   4.558   5.137   0.257 -0.7073 -0.6380 -1.6348
 3334SOL     OW10900   4.152   3.491   0.996 -0.3113  0.0962  0.3960
 3334SOL    HW110901   4.079   3.452   0.940  0.0245 -1.0984  0.7656
 3334SOL    HW210902   4.132   3.474   1.093  0.3988 -0.1342  0.5039
 3335SOL     OW10903   5.350   6.228   0.599  0.4428  0.1223  0.0147
 3335SOL    HW110904   5.326   6.209   0.694 -2.1593  0.0730 -0.5599
 3335SOL    HW210905   5.321   6.321   0.576 -0.8237 -0.5274 -1.2109
 3336SOL     OW10906   4.239   4.873   4.742  0.1657  0.0182  0.0977
 3336SOL    HW110907   4.271   4.960   4.779  1.6322  0.4668 -1.9909
 3336SOL    HW210908   4.286   4.797   4.789  0.7343  0.4752  0.2817
 3337SOL     OW10909   3.414   4.524   0.797 -0.0333  0.1785  0.3059
 3337SOL    HW110910   3.384   4.619   0.793  0.6470  0.4102  0.4256
 3337SOL    HW210911   3.342   4.467   0.836 -0.4310  0.6541  0.2722
 3338SOL     OW10912   4.027   1.721   0.701 -0.1850 -0.2778  0.2177
 3338SOL    HW110913   4.009   1.741   0.798 -1.5833 -0.2180 -0.0280
 3338SOL    HW210914   3.945   1.742   0.647 -0.0020 -1.8601 -0.7528
 3339SOL     OW10915   6.842   0.918   6.216 -0.6026  0.0626 -1.1808
 3339SOL    HW110916   6.873   0.840   6.163  1.9504  1.2150 -1.5451
 3339SOL    HW210917   6.771   0.889   6.280  0.7054 -2.6846 -0.8391
 3340SOL     OW10918   3.462   1.571   3.221  0.3520  0.5023 -0.5314
 3340SOL    HW110919   3.429   1.655   3.265  0.6023  0.0620  0.5366
 3340SOL    HW210920   3.384   1.512   3.200  0.3413 -0.4688  1.8481
 3341SOL     OW10921   0.434   6.090   3.233 -0.0027 -0.4964  0.2821
 3341SOL    HW110922   0.421   5.991   3.246  1.0452 -0.6716  0.1147
 3341SOL    HW210923   0.452   6.108   3.136  0.7347 -0.2733  0.4510
 3342SOL     OW10924   1.860   6.607   1.655 -0.0092  0.0695 -0.1564
 3342SOL    HW110925   1.856   6.538   1.582  1.1610 -1.7834  1.4298
 3342SOL    HW210926   1.768   6.622   1.690 -0.1857 -1.5133  0.1497
 3343SOL     OW10927   5.059   1.116   0.741  0.4963  0.2663  0.2465
 3343SOL    HW110928   5.046   1.017   0.744  2.6121 -0.1133 -0.8261
 3343SOL    HW210929   5.151   1.139   0.772  0.7026  1.6982 -1.2477
 3344SOL     OW10930   6.476   4.621   5.910  0.2686  0.0358  0.3598
 3344SOL    HW110931   6.492   4.537   5.962 -0.5970  1.6886  3.5234
 3344SOL    HW210932   6.378   4.631   5.891  0.2862  0.6481  0.5765
 3345SOL     OW10933   2.152   3.832   5.771  0.2391  0.1859 -0.1169
 3345SOL    HW110934   2.094   3.752   5.758 -0.2302  0.4119  0.5363
 3345SOL    HW210935   2.180   3.868   5.682  0.6113 -0.8074 -0.4164
 3346SOL     OW10936   0.580   1.382   0.025 -0.2275  0.1518  0.2399
 3346SOL    HW110937   0.506   1.355   0.087 -1.6137 -1.3853 -1.8999
 3346SOL    HW210938   0.549   1.459  -0.032 -0.1914 -0.4483 -0.6154
 3347SOL     OW10939   6.511   4.587   4.926  0.4795  0.2326 -0.4055
 3347SOL    HW110940   6.593   4.633   4.891  1.8107 -1.1177  0.8083
 3347SOL    HW210941   6.458   4.651   4.982  0.8807  1.0238 -0.9173
 3348SOL     OW10942   3.571   3.255   2.841  0.6484  0.3648  0.8955
 3348SOL    HW110943   3.576   3.165   2.798  0.7606 -0.0889  1.8187
 3348SOL    HW210944   3.583   3.326   2.772 -1.1192 -0.2721 -0.1186
 3349SOL     OW10945   6.354   4.667   3.879  0.5491  0.3526  0.2373
 3349SOL    HW110946   6.254   4.662   3.884  0.5378  0.0885 -0.1637
 3349SOL    HW210947   6.384   4.646   3.785  1.0694 -1.2862  0.7267
 3350SOL     OW10948   0.973   2.674   4.348  0.3357 -0.4651 -0.2989
 3350SOL    HW110949   0.889   2.700   4.300  0.9023  1.3252 -0.4047
 3350SOL    HW210950   1.040   2.749   4.341  1.8812 -1.7667 -0.0700
 3351SOL     OW10951   6.754   0.967   3.095 -0.3809 -0.3144  0.2307
 3351SOL    HW110952   6.747   1.046   3.155  1.9550  0.6425 -0.6408
 3351SOL    HW210953   6.737   0.884   3.148  0.1457  0.5776  1.8671
 3352SOL     OW10954   1.774   4.667   6.758  0.1815 -0.1767  0.7658
 3352SOL    HW110955   1.787   4.635   6.664  0.5710  0.8659  0.4487
 3352SOL    HW210956   1.711   4.606   6.806 -0.9015 -0.1001 -0.5059
 3353SOL     OW10957   0.714   6.850   1.093 -0.5770 -0.2661  0.1787
 3353SOL    HW110958   0.675   6.831   1.183 -0.8818 -0.1425  0.0748
 3353SOL    HW210959   0.757   6.941   1.093  0.2786 -0.6619  0.4777
 3354SOL     OW10960   5.819   4.935   6.212  0.5711  0.2601  0.0197
 3354SOL    HW110961   5.907   4.958   6.171  0.9815  0.5525  1.0313
 3354SOL    HW210962   5.832   4.862   6.280 -0.2254 -0.8022 -0.9252
 3355SOL     OW10963   1.220   2.779   5.958  0.4618 -0.2717 -0.2454
 3355SOL    HW110964   1.130   2.741   5.936 -0.4201  2.0882 -0.9373
 3355SOL    HW210965   1.290   2.725   5.913 -0.7794 -0.6881 -1.7500
 3356SOL     OW10966   4.631   5.783   0.186 -0.1332 -0.4143  0.1881
 3356SOL    HW110967   4.539   5.773   0.146 -0.5112 -1.9354  1.3282
 3356SOL    HW210968   4.643   5.714   0.257  0.8868  1.5220  2.0012
 3357SOL     OW10969   4.288   3.994   1.341  0.1665  0.4789 -0.2653
 3357SOL    HW110970   4.233   4.035   1.414 -0.2642  1.3123 -1.0389
 3357SOL    HW210971   4.257   3.900   1.325 -0.7123  0.7756 -0.3534
 3358SOL     OW10972   1.012   1.483   1.512  0.4473 -0.3199  0.2207
 3358SOL    HW110973   0.932   1.461   1.569  0.6646  0.2033  0.7379
 3358SOL    HW210974   1.094   1.450   1.558  0.4265 -2.2414 -1.0254
 3359SOL     OW10975   6.481   5.744   5.146 -0.2357 -0.4670 -0.0118
 3359SOL    HW110976   6.463   5.754   5.048 -2.4963 -0.9949  0.2997
 3359SOL    HW210977   6.469   5.832   5.191 -0.5649 -0.5104 -0.0156
 3360SOL     OW10978   0.296   0.838   6.989 -0.2679  0.0081  0.0783
 3360SOL    HW110979   0.322   0.888   6.907 -0.2805  0.6776  0.4730
 3360SOL    HW210980   0.338   0.748   6.988 -0.8245 -0.2578 -0.9918
 3361SOL     OW10981   0.898   4.135   3.291 -0.1482 -0.1861  0.4933
 3361SOL    HW110982   0.879   4.207   3.225  2.0077  0.0167  0.0316
 3361SOL    HW210983   0.975   4.161   3.349  1.0823 -2.3199 -0.0686
 3362SOL     OW10984   3.984   0.568   4.444  0.6104  0.0031  0.6979
 3362SOL    HW110985   3.972   0.540   4.539  0.6683 -3.5908 -0.2273
 3362SOL    HW210986   4.072   0.534   4.410  0.2997  0.6352 -0.8348
 3363SOL     OW10987   1.888   1.039   0.486 -0.3703 -0.3415 -0.3333
 3363SOL    HW110988   1.831   1.090   0.549  0.5757 -0.6157  0.7912
 3363SOL    HW210989   1.945   1.102   0.433  0.7771 -0.1770  1.0320
 3364SOL     OW10990   0.238   3.655   4.908  0.7919  0.2238  0.3176
 3364SOL    HW110991   0.173   3.711   4.858  0.9787  0.5474  0.4338
 3364SOL    HW210992   0.192   3.573   4.943  0.8417 -0.4349 -1.0839
 3365SOL     OW10993   0.570   2.842   5.175  0.1202  0.0193 -0.1471
 3365SOL    HW110994   0.550   2.845   5.077  2.8317 -2.2513 -0.9026
 3365SOL    HW210995   0.621   2.924   5.202 -1.3420  1.0472 -0.3981
 3366SOL     OW10996   5.573   2.253   5.638 -0.1265 -0.2083  0.3643
 3366SOL    HW110997   5.637   2.238   5.562 -0.8518 -0.0869 -0.2881
 3366SOL    HW210998   5.606   2.206   5.719 -0.6490 -2.5834 -0.7281
 3367SOL     OW10999   4.147   2.472   1.684  0.5502 -0.3725  0.4161
 3367SOL    HW111000   4.219   2.408   1.657  0.3712 -0.7738  0.8903
 3367SOL    HW211001   4.076   2.424   1.736 -0.6383 -0.2020 -0.9985
 3368SOL     OW11002   6.092   4.597   4.938  0.7498  0.1668 -0.2334
 3368SOL    HW111003   6.036   4.551   4.869  2.1856 -0.0486 -1.3165
 3368SOL    HW211004   6.140   4.674   4.895  2.0349 -0.2577  0.3962
 3369SOL     OW11005   3.161   1.510   0.575  0.3932  0.6956 -0.9153
 3369SOL    HW111006   3.228   1.455   0.626  0.4523  2.3388  0.9028
 3369SOL    HW211007   3.208   1.560   0.503  1.1075  1.4769  0.0481
 3370SOL     OW11008   5.939   6.127   6.541  0.7513  0.3298  0.1611
 3370SOL    HW111009   6.021   6.183   6.553 -1.1083  3.0431  1.2399
 3370SOL    HW211010   5.926   6.069   6.621  1.1674  0.5119  0.3631
 3371SOL     OW11011   0.100   4.425   2.301 -0.0699 -0.0125  0.2522
 3371SOL    HW111012   0.137   4.514   2.273  0.7626 -0.6979 -0.9470
 3371SOL    HW211013   0.158   4.386   2.372  2.1573 -1.4195 -2.1360
 3372SOL     OW11014   0.458   1.564   2.634 -0.2646  0.6543 -0.1748
 3372SOL    HW111015   0.387   1.516   2.584  0.1621 -0.8937  0.6145
 3372SOL    HW211016   0.540   1.507   2.639  0.7978  2.0883 -0.4419
 3373SOL     OW11017   0.466   2.386   2.447  0.6190 -0.6700 -0.0148
 3373SOL    HW111018   0.456   2.346   2.356  0.7570 -0.9908  0.1127
 3373SOL    HW211019   0.447   2.484   2.441  0.1936 -0.7622 -0.3109
 3374SOL     OW11020   1.497   4.818   4.293  0.6485  0.2126  0.1502
 3374SOL    HW111021   1.536   4.897   4.245 -0.3734  0.8435  0.3434
 3374SOL    HW211022   1.454   4.847   4.378 -0.4156 -0.4301 -0.1418
 3375SOL     OW11023   4.062   3.707   5.441 -0.3280 -0.2109 -0.3692
 3375SOL    HW111024   4.080   3.611   5.418 -2.8205 -1.0267  0.6796
 3375SOL    HW211025   3.992   3.743   5.380  0.6108  1.0006 -0.7733
 3376SOL     OW11026   3.670   2.914   4.072 -0.2610 -0.3868 -0.2721
 3376SOL    HW111027   3.597   2.888   4.135  0.9231  0.1562  1.3991
 3376SOL    HW211028   3.722   2.990   4.111  1.0511 -0.5942 -1.5328
 3377SOL     OW11029   1.594   5.474   4.476 -0.4279 -0.1765 -0.2284
 3377SOL    HW111030   1.633   5.497   4.387  0.6364 -0.2832  0.1888
 3377SOL    HW211031   1.613   5.549   4.540  0.6265 -0.9690  0.4252
 3378SOL     OW11032   6.353   0.692   1.562  0.5856  0.6548 -0.0079
 3378SOL    HW111033   6.413   0.647   1.628  0.1325  1.0611  0.6896
 3378SOL    HW211034   6.358   0.791   1.575 -0.3083  0.6925  0.1355
 3379SOL     OW11035   0.223   5.132   6.103 -0.4048 -0.5133  0.0490
 3379SOL    HW111036   0.251   5.190   6.026 -0.1862 -1.2662 -0.4436
 3379SOL    HW211037   0.222   5.187   6.187 -2.7260  0.8484 -0.7962
 3380SOL     OW11038   4.737   0.347   6.086  0.2219  0.2751 -0.1094
 3380SOL    HW111039   4.807   0.312   6.024 -1.7865  1.1358 -3.0826
 3380SOL    HW211040   4.659   0.284   6.087  0.0874  0.4260  1.4044
 3381SOL     OW11041   1.797   2.200   1.497  0.0745 -0.2395 -0.2759
 3381SOL    HW111042   1.707   2.195   1.455 -0.3493  0.0418  0.5842
 3381SOL    HW211043   1.865   2.221   1.426 -0.2961 -1.9558 -1.1964
 3382SOL     OW11044   1.103   6.468   0.803 -0.2346  0.0148 -0.3423
 3382SOL    HW111045   1.179   6.486   0.740 -0.1463 -1.4420 -0.6919
 3382SOL    HW211046   1.109   6.528   0.882  1.5649 -0.4013 -0.1367
 3383SOL     OW11047   1.435   7.005   1.850  0.0130  0.0377 -0.2617
 3383SOL    HW111048   1.491   6.950   1.788  0.7889  0.0104  0.4411
 3383SOL    HW211049   1.486   7.087   1.877 -0.5040  0.2879 -0.0388
 3384SOL     OW11050   0.871   4.112   4.530 -0.2288 -0.4383 -0.9123
 3384SOL    HW111051   0.936   4.073   4.595  0.0824 -0.2322 -1.0970
 3384SOL    HW211052   0.868   4.056   4.448 -0.2103 -0.3958 -0.9420
 3385SOL     OW11053   5.518   4.757   1.805  0.1146  0.2978  0.2168
 3385SOL    HW111054   5.554   4.744   1.713 -0.3969 -0.7209  0.1398
 3385SOL    HW211055   5.438   4.699   1.818 -0.4060  1.1555  0.9885
 3386SOL     OW11056   6.085   3.919   5.044  0.0098  0.0210 -0.1800
 3386SOL    HW111057   6.009   3.883   4.990 -1.0429 -1.5878  2.2044
 3386SOL    HW211058   6.111   4.010   5.009 -1.8183 -0.1268 -2.1190
 3387SOL     OW11059   2.676   6.878   2.837 -0.6469  0.0898  0.2096
 3387SOL    HW111060   2.690   6.807   2.906 -1.6564 -0.4804 -0.1500
 3387SOL    HW211061   2.668   6.967   2.882  1.7333  0.1767  0.5926
 3388SOL     OW11062   5.068   2.798   2.271 -0.3674  0.0756  0.1918
 3388SOL    HW111063   4.970   2.802   2.256 -0.5382 -0.8783  0.9315
 3388SOL    HW211064   5.114   2.867   2.215 -1.4474  0.4981 -0.1883
 3389SOL     OW11065   5.011   6.008   5.711 -0.4302  0.1342 -0.3111
 3389SOL    HW111066   4.921   5.995   5.671 -1.2661 -1.1711  1.8478
 3389SOL    HW211067   5.003   6.018   5.810  1.7312  0.9885 -0.1569
 3390SOL     OW11068   4.800   5.157   6.691 -0.0985  0.0390 -0.2587
 3390SOL    HW111069   4.755   5.140   6.603 -1.0136 -0.1515  0.2288
 3390SOL    HW211070   4.736   5.202   6.753  0.0888 -1.0002  0.7381
 3391SOL     OW11071   4.904   2.691   4.489  0.6292  0.4649 -0.3373
 3391SOL    HW111072   4.888   2.736   4.576  1.4292  0.1336 -0.0056
 3391SOL    HW211073   4.845   2.731   4.419  0.6376  1.3584  0.1532
 3392SOL     OW11074   1.515   6.129   4.458  0.0809  0.4659  0.1438
 3392SOL    HW111075   1.462   6.201   4.414 -2.2528 -0.4241  1.3241
 3392SOL    HW211076   1.461   6.088   4.531  1.6418 -1.9680  0.0385
 3393SOL     OW11077   6.670   4.119   2.236  0.3236 -0.3575 -0.4830
 3393SOL    HW111078   6.636   4.130   2.143  0.2039 -0.7180 -0.4827
 3393SOL    HW211079   6.673   4.021   2.259 -0.0688 -0.2443  0.0484
 3394SOL     OW11080   4.892   1.172   1.838 -0.3161 -0.1682 -0.1261
 3394SOL    HW111081   4.926   1.248   1.782  0.4350 -0.6551 -0.3457
 3394SOL    HW211082   4.936   1.087   1.809 -2.3340 -0.9898 -0.9891
 3395SOL     OW11083   5.143   3.030   4.540  0.2410 -0.2076  0.0765
 3395SOL    HW111084   5.116   3.016   4.635 -0.4257 -0.3970 -0.1360
 3395SOL    HW211085   5.215   2.965   4.516 -0.4167 -0.9663  0.1144
 3396SOL     OW11086   1.083   2.881   4.021  0.6827  0.1890  0.1717
 3396SOL    HW111087   1.001   2.824   4.022  0.4376  0.5186  1.6267
 3396SOL    HW211088   1.104   2.908   3.927 -0.9048  0.1326 -0.2297
 3397SOL     OW11089   3.839   0.106   5.008  0.0592  0.1486  0.3301
 3397SOL    HW111090   3.916   0.066   4.957 -0.7048 -1.1337  0.1220
 3397SOL    HW211091   3.806   0.187   4.960  0.0994 -0.3655 -0.6039
 3398SOL     OW11092   1.969   0.024   4.329  0.2022  0.0412 -0.2318
 3398SOL    HW111093   1.882   0.030   4.281  0.7817 -0.1293 -1.3319
 3398SOL    HW211094   1.958  -0.027   4.414 -1.0378  1.1510  0.3019
 3399SOL     OW11095   5.088   4.013   3.342 -0.2040  0.3304 -0.1973
 3399SOL    HW111096   5.056   3.924   3.377  1.5701  0.4701  2.0044
 3399SOL    HW211097   5.141   3.999   3.259  0.3784 -0.7521  0.3278
 3400SOL     OW11098   0.526   2.135   6.989 -0.9121 -0.1563  0.0070
 3400SOL    HW111099   0.559   2.215   7.039 -0.3393  0.3197 -1.1090
 3400SOL    HW211100   0.555   2.052   7.037  1.4700  0.2446 -0.5963
 3401SOL     OW11101   0.235   5.603   0.101 -0.0254 -0.2842  0.5025
 3401SOL    HW111102   0.182   5.642   0.026  1.4661 -0.3538 -0.6395
 3401SOL    HW211103   0.310   5.548   0.064  2.3845  1.8093  1.9312
 3402SOL     OW11104   5.516   6.084   6.926  0.3314 -0.5590 -0.1354
 3402SOL    HW111105   5.435   6.104   6.980  2.1692  3.3330  1.5361
 3402SOL    HW211106   5.587   6.045   6.986  0.0216 -3.4854 -1.4788
 3403SOL     OW11107   3.852   6.953   3.954 -0.1153 -0.4630  0.4187
 3403SOL    HW111108   3.776   7.010   3.921 -1.9697 -2.3808  1.1834
 3403SOL    HW211109   3.904   6.919   3.876 -2.9556 -2.9520 -0.5697
 3404SOL     OW11110   0.435   1.377   6.107  0.8062 -0.8590 -0.0787
 3404SOL    HW111111   0.387   1.346   6.189  1.1300 -0.1347  0.3901
 3404SOL    HW211112   0.401   1.326   6.027 -0.6988 -0.3946  0.2444
 3405SOL     OW11113   0.024   3.114   5.154  0.2846 -0.6982  0.3572
 3405SOL    HW111114  -0.003   3.165   5.236  0.3154 -0.2106  0.0687
 3405SOL    HW211115  -0.051   3.117   5.088  1.4152  1.7135 -0.9495
 3406SOL     OW11116   6.454   5.238   2.276  0.3275  0.4426 -0.4701
 3406SOL    HW111117   6.378   5.237   2.212 -0.0846  0.3436  0.0131
 3406SOL    HW211118   6.523   5.172   2.248 -1.5263 -2.4302  1.1877
 3407SOL     OW11119   2.181   5.692   0.027  0.2636 -0.1166  0.0415
 3407SOL    HW111120   2.243   5.759  -0.013  0.8549 -0.2594  0.7019
 3407SOL    HW211121   2.183   5.608  -0.026 -1.6780  0.8845 -1.7442
 3408SOL     OW11122   6.288   3.580   4.866 -0.2661 -0.5834  0.2626
 3408SOL    HW111123   6.215   3.576   4.935 -0.3684 -1.3229  0.1183
 3408SOL    HW211124   6.247   3.582   4.775 -0.1163 -0.3906  0.1999
 3409SOL     OW11125   4.192   5.005   0.598  0.5698 -0.8554  0.2148
 3409SOL    HW111126   4.124   5.051   0.656  0.4120 -0.6306 -0.1467
 3409SOL    HW211127   4.267   4.971   0.655 -0.3772 -2.0785  0.7844
 3410SOL     OW11128   6.290   6.547   1.032  0.7457  0.0161  0.4824
 3410SOL    HW111129   6.357   6.479   1.001  1.8933  1.3901 -0.1617
 3410SOL    HW211130   6.304   6.633   0.982 -1.5386  0.3418  0.2931
 3411SOL     OW11131   6.487   2.938   2.269  0.6289 -0.3199  0.3614
 3411SOL    HW111132   6.406   2.901   2.223  0.1282  0.9561  0.1925
 3411SOL    HW211133   6.532   3.004   2.209  0.0862  1.2109  1.5669
 3412SOL     OW11134   4.211   2.929   5.316  0.1042  0.5449 -0.1927
 3412SOL    HW111135   4.120   2.907   5.353  0.3035  0.3931  0.2151
 3412SOL    HW211136   4.266   2.846   5.310 -0.1115  0.4792 -1.3684
 3413SOL     OW11137   6.431   2.090   0.967 -0.0551  0.6586  0.3135
 3413SOL    HW111138   6.499   2.099   0.894 -0.3984 -1.9206 -0.4554
 3413SOL    HW211139   6.477   2.077   1.054  0.4069  1.0860  0.1389
 3414SOL     OW11140   3.710   0.958   5.309 -0.2284 -0.4091  0.5353
 3414SOL    HW111141   3.708   0.864   5.276 -2.8694 -1.0808  2.2506
 3414SOL    HW211142   3.710   1.021   5.231 -1.5567 -1.8777 -0.7297
 3415SOL     OW11143   1.334   4.034   6.128 -0.4987 -0.2039  0.2360
 3415SOL    HW111144   1.408   4.060   6.066 -2.1699 -0.1880 -1.8623
 3415SOL    HW211145   1.248   4.074   6.096 -1.8950 -2.4103  1.0201
 3416SOL     OW11146   5.829   5.877   0.485 -0.2815  0.1640  0.1964
 3416SOL    HW111147   5.910   5.821   0.505 -0.0553 -0.1726 -1.5218
 3416SOL    HW211148   5.836   5.964   0.534  0.0752 -0.6886  1.7375
 3417SOL     OW11149   5.813   4.429   2.897 -0.1245 -0.7711  0.0118
 3417SOL    HW111150   5.760   4.481   2.831 -1.6233 -1.5162  0.5732
 3417SOL    HW211151   5.830   4.484   2.979 -0.6985 -0.7622  0.1297
 3418SOL     OW11152   2.568   6.299   5.082 -0.4640 -0.0260 -0.5426
 3418SOL    HW111153   2.595   6.203   5.092 -0.2191 -0.0965 -1.7134
 3418SOL    HW211154   2.476   6.304   5.043 -0.5051  0.2124 -0.4167
 3419SOL     OW11155   3.849   6.602   5.058  0.0457 -0.4495 -0.3520
 3419SOL    HW111156   3.866   6.609   4.960  0.2286  0.1171 -0.2872
 3419SOL    HW211157   3.926   6.556   5.103 -0.3434 -1.3204 -0.5566
 3420SOL     OW11158   6.346   4.112   4.955  0.0420  0.4009 -0.3106
 3420SOL    HW111159   6.423   4.172   4.934  1.4333 -0.7002  1.4181
 3420SOL    HW211160   6.263   4.149   4.913  1.5064  1.5122 -2.3788
 3421SOL     OW11161   6.883   1.487   0.078  0.1498 -0.4793  0.2721
 3421SOL    HW111162   6.863   1.522   0.170  0.1801  1.5375 -0.4391
 3421SOL    HW211163   6.797   1.462   0.033 -0.0061 -0.0864  0.3430
 3422SOL     OW11164   0.356   0.024   6.910 -0.4594 -0.2969 -0.1897
 3422SOL    HW111165   0.440   0.030   6.964 -0.0222 -0.8628 -0.7948
 3422SOL    HW211166   0.300   0.105   6.928  0.0823 -0.0434  0.4277
 3423SOL     OW11167   1.733   0.534   1.040  0.2031  0.2395  0.1324
 3423SOL    HW111168   1.682   0.519   0.955 -1.3453 -0.8965  1.2046
 3423SOL    HW211169   1.830   0.518   1.023 -0.2051 -1.1826 -1.1886
 3424SOL     OW11170   3.397   6.392   1.194 -0.1040  0.1118 -0.4361
 3424SOL    HW111171   3.423   6.482   1.159  1.2925 -0.4416 -0.8617
 3424SOL    HW211172   3.321   6.403   1.259 -0.0769  1.5659 -0.6099
 3425SOL     OW11173   4.451   4.807   1.359  0.3231  0.2404 -0.3714
 3425SOL    HW111174   4.521   4.876   1.376  0.1741  0.3918 -0.3678
 3425SOL    HW211175   4.474   4.723   1.409  0.4766  0.3050 -0.3326
 3426SOL     OW11176   2.234   2.139   0.600 -0.4502  0.2875  0.7266
 3426SOL    HW111177   2.223   2.058   0.658 -1.2930 -1.8955 -2.2513
 3426SOL    HW211178   2.237   2.111   0.504 -0.8441  3.8490 -0.4558
 3427SOL     OW11179   6.720   5.418   0.182  0.0375 -0.0641 -0.4626
 3427SOL    HW111180   6.738   5.336   0.129  1.3323 -1.1202  1.4835
 3427SOL    HW211181   6.678   5.393   0.269  0.4532  1.3299  0.1659
 3428SOL     OW11182   3.447   3.283   0.675 -0.2837 -0.3765  0.0526
 3428SOL    HW111183   3.472   3.315   0.583 -0.8809 -1.0809 -0.3743
 3428SOL    HW211184   3.465   3.185   0.681  1.4071 -0.0226  1.2948
 3429SOL     OW11185   1.587   1.870   6.259  0.0890 -0.0939 -0.0573
 3429SOL    HW111186   1.553   1.777   6.273  1.8418 -0.7324  0.2273
 3429SOL    HW211187   1.569   1.925   6.341  0.6637 -0.7307  0.5130
 3430SOL     OW11188   0.011   0.251   3.429 -0.1225 -0.7477  0.4304
 3430SOL    HW111189  -0.078   0.244   3.474 -0.6777  2.4562  0.1087
 3430SOL    HW211190   0.083   0.265   3.497 -0.0963 -1.6045  0.5891
 3431SOL     OW11191   2.475   1.129   2.742 -0.4479 -0.0606 -0.0002
 3431SOL    HW111192   2.570   1.129   2.709  0.1166 -1.6531  1.4915
 3431SOL    HW211193   2.467   1.070   2.822 -2.0914  2.3578  1.7734
 3432SOL     OW11194   3.795   2.947   6.302 -0.1934  0.1836 -0.0132
 3432SOL    HW111195   3.714   2.926   6.248 -1.3785  2.0477  0.9591
 3432SOL    HW211196   3.842   3.026   6.261 -0.8066  1.2742  1.3132
 3433SOL     OW11197   1.052   6.664   6.415  0.3570  0.6866 -0.2898
 3433SOL    HW111198   1.046   6.565   6.403 -0.9536  0.8394 -1.0505
 3433SOL    HW211199   1.064   6.685   6.512  1.5906 -0.2346 -0.2190
 3434SOL     OW11200   5.086   3.902   1.616  0.2109 -0.7334 -0.2204
 3434SOL    HW111201   5.002   3.850   1.599 -0.3093  0.2606 -0.8139
 3434SOL    HW211202   5.138   3.859   1.689  0.0512 -2.3675 -1.0131
 3435SOL     OW11203   1.491   6.784   2.650  0.1871  0.1167 -0.0673
 3435SOL    HW111204   1.452   6.738   2.730 -0.4740 -0.3514 -0.6417
 3435SOL    HW211205   1.500   6.882   2.668  1.9446 -0.2471  1.3132
 3436SOL     OW11206   3.075   4.975   6.297 -0.2341  0.3026 -0.3046
 3436SOL    HW111207   3.058   4.913   6.221  0.6562 -0.2271 -0.0878
 3436SOL    HW211208   3.090   5.067   6.262  1.3631 -0.1412 -0.9078
 3437SOL     OW11209   2.606   0.398   6.324 -0.9209 -0.3011  0.0992
 3437SOL    HW111210   2.602   0.481   6.379 -0.9931  0.6456 -1.2671
 3437SOL    HW211211   2.544   0.329   6.362 -1.3277  0.4870  0.9090
 3438SOL     OW11212   1.732   2.851   0.821  0.2743 -0.3079 -0.8562
 3438SOL    HW111213   1.757   2.793   0.898 -2.7658  0.4199  0.8495
 3438SOL    HW211214   1.767   2.943   0.836  1.6651 -0.6843 -1.5797
 3439SOL     OW11215   1.958   5.684   3.784  0.9786 -0.2695 -0.1957
 3439SOL    HW111216   1.942   5.589   3.760 -0.9491 -0.3558  1.1897
 3439SOL    HW211217   1.961   5.694   3.883  0.7690  1.1550 -0.3038
 3440SOL     OW11218   3.966   3.154   6.178  0.3932  0.0269  0.0213
 3440SOL    HW111219   4.066   3.141   6.175  0.6687  1.7914  0.4478
 3440SOL    HW211220   3.941   3.231   6.120 -0.7429 -0.4261 -0.1014
 3441SOL     OW11221   5.690   1.704   3.518 -0.4106  0.1701  0.0364
 3441SOL    HW111222   5.695   1.679   3.615 -0.2937 -1.4043 -0.3366
 3441SOL    HW211223   5.629   1.782   3.506 -1.8760 -0.7380  1.2033
 3442SOL     OW11224   2.586   4.268   1.597 -0.4643  0.7339  0.4457
 3442SOL    HW111225   2.638   4.184   1.612 -0.5979  0.5845  0.0585
 3442SOL    HW211226   2.648   4.340   1.566 -0.4951  0.5384 -0.0776
 3443SOL     OW11227   4.420   2.193   2.545  0.2167  0.0974 -0.2369
 3443SOL    HW111228   4.442   2.201   2.448  1.4417  3.3164  0.1567
 3443SOL    HW211229   4.501   2.163   2.595  0.8279  2.1933  0.1298
 3444SOL     OW11230   6.151   4.782   0.656 -0.1400 -0.5238  0.0470
 3444SOL    HW111231   6.243   4.818   0.641 -0.4717  0.4077  0.2019
 3444SOL    HW211232   6.084   4.855   0.644 -1.0181 -1.5604 -1.8209
 3445SOL     OW11233   6.482   4.336   4.587  0.3616  0.4603  0.1045
 3445SOL    HW111234   6.522   4.258   4.539  0.7643  0.5286  0.3235
 3445SOL    HW211235   6.454   4.405   4.521 -1.5264 -0.5592 -0.2090
 3446SOL     OW11236   6.816   1.275   3.810  0.5594 -0.0988 -0.5218
 3446SOL    HW111237   6.807   1.372   3.833  0.4888  0.1437 -1.5420
 3446SOL    HW211238   6.760   1.221   3.873 -1.2825  0.7182 -1.3743
 3447SOL     OW11239   3.700   5.485   2.097  0.2327  0.1336  0.4062
 3447SOL    HW111240   3.714   5.564   2.038 -0.5731 -0.6145 -0.8394
 3447SOL    HW211241   3.654   5.413   2.045 -0.7005 -0.4787  2.0317
 3448SOL     OW11242   1.590   0.951   2.103 -0.1149 -0.1520 -0.0381
 3448SOL    HW111243   1.653   0.930   2.178 -0.3802  0.2630  0.3088
 3448SOL    HW211244   1.544   0.867   2.074 -0.0639 -0.3068  0.3197
 3449SOL     OW11245   6.709   0.765   2.587  0.2456  0.2185 -0.0158
 3449SOL    HW111246   6.729   0.826   2.663  0.4531  0.3136 -0.1476
 3449SOL    HW211247   6.642   0.808   2.526  0.4429  0.3425 -0.1450
 3450SOL     OW11248   1.614   2.902   1.193  0.0473 -0.2627  0.0017
 3450SOL    HW111249   1.566   2.944   1.116  2.8074  0.7353 -1.3251
 3450SOL    HW211250   1.621   2.968   1.268  0.3497  0.0218 -0.2708
 3451SOL     OW11251   1.725   5.356   2.486  0.2401 -0.0386 -0.1233
 3451SOL    HW111252   1.769   5.360   2.397  1.0407  0.1349  0.2716
 3451SOL    HW211253   1.737   5.444   2.533 -0.3648 -0.0547  0.0717
 3452SOL     OW11254   5.416   3.759   5.646  0.4293 -0.3245  0.3010
 3452SOL    HW111255   5.468   3.816   5.583 -2.0231  1.0989 -0.5420
 3452SOL    HW211256   5.396   3.671   5.602 -1.2458  0.6485 -0.9982
 3453SOL     OW11257   5.858   4.155   0.141 -0.3211  0.4794 -0.3263
 3453SOL    HW111258   5.864   4.241   0.192 -1.7385  1.1346 -1.2184
 3453SOL    HW211259   5.898   4.081   0.196  0.8373  1.6642  0.4930
 3454SOL     OW11260   1.770   1.584   5.152  0.4916 -0.3716 -0.3076
 3454SOL    HW111261   1.858   1.631   5.151  0.6760 -0.7151 -0.1948
 3454SOL    HW211262   1.756   1.539   5.064 -0.5112  1.4115 -1.1208
 3455SOL     OW11263   1.598   2.622   5.916  0.3408  0.3219  0.0459
 3455SOL    HW111264   1.685   2.671   5.905  0.8350 -0.3201  0.9564
 3455SOL    HW211265   1.533   2.654   5.847  0.6223  2.2770  0.6364
 3456SOL     OW11266   6.540   4.681   2.321 -0.3276  0.2040 -0.6832
 3456SOL    HW111267   6.511   4.733   2.241 -0.8086 -0.7535 -1.1500
 3456SOL    HW211268   6.638   4.663   2.316 -0.4080 -0.1001 -1.2115
 3457SOL     OW11269   2.341   5.289   3.444 -0.2591  0.1482  0.0829
 3457SOL    HW111270   2.360   5.387   3.438  0.8605 -0.0645 -0.1693
 3457SOL    HW211271   2.424   5.238   3.421 -1.5375 -0.8995 -2.5020
 3458SOL     OW11272   3.725   5.618   0.457 -0.6508 -0.0339  0.4057
 3458SOL    HW111273   3.744   5.521   0.471 -0.0834 -0.0790 -0.5987
 3458SOL    HW211274   3.811   5.668   0.449 -0.9366  0.3740 -0.2159
 3459SOL     OW11275   5.551   5.415   1.732  0.0505 -0.0881 -0.7031
 3459SOL    HW111276   5.585   5.384   1.821 -0.8500  0.8230 -0.0028
 3459SOL    HW211277   5.461   5.458   1.745 -0.3198 -0.3825 -2.1367
 3460SOL     OW11278   3.012   2.864   0.217  0.2845  0.3757 -0.0808
 3460SOL    HW111279   2.931   2.895   0.167  1.0089  0.3706 -1.3072
 3460SOL    HW211280   3.094   2.893   0.168  1.0170 -0.8211  0.3900
 3461SOL     OW11281   4.086   6.330   4.003 -0.8702 -0.1784 -0.2200
 3461SOL    HW111282   4.178   6.359   3.979 -0.8770 -0.4248 -0.5588
 3461SOL    HW211283   4.039   6.295   3.922 -2.6509  3.4686 -0.9386
 3462SOL     OW11284   0.422   3.230   1.208  0.0558  0.5190  0.3216
 3462SOL    HW111285   0.327   3.220   1.179  0.3217 -0.3563 -0.3049
 3462SOL    HW211286   0.455   3.143   1.244  0.7189  0.7201  0.2234
 3463SOL     OW11287   1.048   2.954   4.340  0.2121 -0.2425 -0.0268
 3463SOL    HW111288   1.131   3.009   4.342  0.5980 -0.8078  1.6935
 3463SOL    HW211289   0.976   3.003   4.292  0.8049  1.3496  0.6515
 3464SOL     OW11290   6.646   3.611   6.976  0.4319  0.4716  0.0049
 3464SOL    HW111291   6.663   3.632   6.880 -1.7232  0.0100 -0.5169
 3464SOL    HW211292   6.615   3.694   7.023 -2.0955 -0.0610 -0.6101
 3465SOL     OW11293   0.344   1.795   3.321 -0.4532  0.1561 -0.2860
 3465SOL    HW111294   0.312   1.843   3.239  0.5131 -0.8990 -1.3238
 3465SOL    HW211295   0.279   1.723   3.345 -0.8600  0.6211  0.0503
 3466SOL     OW11296   0.255   3.781   0.553 -0.0420  0.2278 -0.1238
 3466SOL    HW111297   0.355   3.769   0.558  0.1923  1.9756  0.0804
 3466SOL    HW211298   0.210   3.696   0.578  1.3947  0.1311  2.5371
 3467SOL     OW11299   2.119   3.149   0.903  0.4856 -0.0705  0.1470
 3467SOL    HW111300   2.141   3.055   0.929 -0.5376 -0.2804  0.2773
 3467SOL    HW211301   2.130   3.209   0.983 -1.6193 -0.5477  0.8570
 3468SOL     OW11302   6.153   1.595   0.796 -0.0570 -0.2321 -0.4558
 3468SOL    HW111303   6.214   1.636   0.728 -0.7207 -1.1900 -1.6761
 3468SOL    HW211304   6.201   1.522   0.845  0.3863  0.3783  0.0299
 3469SOL     OW11305   6.293   0.662   4.382 -0.8849  0.0733 -0.3256
 3469SOL    HW111306   6.307   0.563   4.385  0.2346  0.2461  1.0905
 3469SOL    HW211307   6.195   0.682   4.375 -1.2046 -1.1191  0.4920
 3470SOL     OW11308   6.862   1.758   2.902  0.3127  0.4101 -0.7159
 3470SOL    HW111309   6.780   1.705   2.925  0.0574  1.8525  2.2151
 3470SOL    HW211310   6.836   1.838   2.847 -0.0117  0.0437 -1.0975
 3471SOL     OW11311   4.902   5.202   3.942 -0.1941  0.4376 -0.1167
 3471SOL    HW111312   4.809   5.230   3.965 -0.3066  0.4674 -0.6003
 3471SOL    HW211313   4.953   5.282   3.908  1.2918  1.4934  3.9201
 3472SOL     OW11314   2.439   2.728   3.238 -0.4023 -0.3259  0.3937
 3472SOL    HW111315   2.468   2.665   3.166 -1.3323 -1.6603  1.1410
 3472SOL    HW211316   2.451   2.685   3.327  1.1896  1.4779  1.1234
 3473SOL     OW11317   0.290   1.933   0.978 -0.1887  0.0735  0.1520
 3473SOL    HW111318   0.330   1.928   1.069 -0.3461  1.1946  0.2927
 3473SOL    HW211319   0.235   1.851   0.961 -0.3987 -0.0104  1.1845
 3474SOL     OW11320   0.290   4.825   1.210 -0.3873  1.1072 -0.2988
 3474SOL    HW111321   0.285   4.812   1.111 -0.3883 -0.6654 -0.1002
 3474SOL    HW211322   0.382   4.802   1.242 -0.5322  1.1833  0.1798
 3475SOL     OW11323   1.965   3.173   3.320 -0.4359 -0.1811 -0.4037
 3475SOL    HW111324   1.936   3.103   3.385 -0.5103 -0.1875 -0.4445
 3475SOL    HW211325   1.968   3.134   3.228 -1.3785  0.1230 -0.5630
 3476SOL     OW11326   2.492   1.756   3.480  0.5278 -0.1843 -0.4802
 3476SOL    HW111327   2.520   1.783   3.572  1.1679 -0.0779 -0.6987
 3476SOL    HW211328   2.474   1.838   3.425  2.2011 -0.1802 -1.0627
 3477SOL     OW11329   1.108   4.603   1.041 -0.2209 -0.1025  0.5978
 3477SOL    HW111330   1.050   4.564   1.113 -1.5125 -1.0352 -0.8800
 3477SOL    HW211331   1.132   4.531   0.976 -1.5858  1.2513 -1.5251
 3478SOL     OW11332   2.762   5.182   6.418 -0.2961  0.0990 -0.2787
 3478SOL    HW111333   2.664   5.164   6.407 -0.3221 -1.0154  1.4135
 3478SOL    HW211334   2.794   5.238   6.342 -2.2313  0.4517 -0.8896
 3479SOL     OW11335   3.284   2.170   3.848 -0.2390  0.1799  0.2148
 3479SOL    HW111336   3.190   2.136   3.852 -0.4653  0.7592 -0.0991
 3479SOL    HW211337   3.308   2.190   3.753 -0.0246  0.6484  0.3634
 3480SOL     OW11338   5.749   0.136   4.640  0.2245  0.0013 -0.1111
 3480SOL    HW111339   5.821   0.143   4.571  0.3666 -0.6151 -0.0263
 3480SOL    HW211340   5.782   0.175   4.726 -0.0165  0.9390 -0.4318
 3481SOL     OW11341   4.525   6.544   2.235 -0.3647  0.4539 -0.2400
 3481SOL    HW111342   4.620   6.572   2.252 -0.4502 -0.5926  2.5073
 3481SOL    HW211343   4.519   6.444   2.238 -1.7535  0.5406  1.2540
 3482SOL     OW11344   6.284   2.572   3.441  0.2650 -0.3982  0.0323
 3482SOL    HW111345   6.298   2.549   3.345  3.4655  2.1364 -0.2806
 3482SOL    HW211346   6.284   2.672   3.452 -0.5715 -0.5948  2.6309
 3483SOL     OW11347   3.981   1.266   1.179  0.1844  0.3099 -0.0628
 3483SOL    HW111348   4.038   1.343   1.152  1.6627 -0.9170 -0.5813
 3483SOL    HW211349   4.015   1.227   1.264 -0.9840  0.6421  0.5749
 3484SOL     OW11350   0.389   3.116   0.857  0.1095 -0.7113  0.1755
 3484SOL    HW111351   0.481   3.093   0.825  0.2504 -3.9192  2.3733
 3484SOL    HW211352   0.396   3.154   0.950 -0.6832  2.1853 -0.8443
 3485SOL     OW11353   6.843   1.327   4.340 -0.6459 -0.0765 -0.2545
 3485SOL    HW111354   6.863   1.404   4.401  1.6032 -0.3544 -0.5582
 3485SOL    HW211355   6.919   1.262   4.343 -1.8009 -1.5301 -1.1904
 3486SOL     OW11356   1.670   2.292   3.051  0.4197 -0.0605 -0.1500
 3486SOL    HW111357   1.733   2.231   3.002  3.4689  4.0184 -1.9859
 3486SOL    HW211358   1.601   2.327   2.988 -0.0381 -0.0741  0.3374
 3487SOL     OW11359   6.007   4.771   0.907 -0.1879 -0.1819  0.7735
 3487SOL    HW111360   5.916   4.739   0.882 -0.0131 -0.0780 -0.0283
 3487SOL    HW211361   6.071   4.747   0.834  0.4066 -0.1484  1.2763
 3488SOL     OW11362   1.171   6.890   3.029 -0.4116  0.2466 -0.5190
 3488SOL    HW111363   1.270   6.885   3.039 -0.3985  0.0615 -0.7303
 3488SOL    HW211364   1.134   6.954   3.097  0.0802  1.9222 -1.7488
 3489SOL     OW11365   0.819   0.434   2.753  0.3535 -0.5524  0.3707
 3489SOL    HW111366   0.825   0.339   2.782  0.8133 -0.5335  0.3427
 3489SOL    HW211367   0.775   0.488   2.825  1.1152 -0.5817  0.8637
 3490SOL     OW11368   4.805   3.967   6.586  0.1561  0.0157 -0.0191
 3490SOL    HW111369   4.733   4.033   6.607  1.0672  0.5437  1.5917
 3490SOL    HW211370   4.763   3.882   6.554 -1.1356  0.6221 -0.0155
 3491SOL     OW11371   4.248   4.888   6.495  0.1656  0.7899 -0.2125
 3491SOL    HW111372   4.162   4.856   6.455  0.2897 -1.0532  0.8779
 3491SOL    HW211373   4.257   4.987   6.481 -2.0321  0.9888 -0.5115
 3492SOL     OW11374   0.921   3.667   1.005 -0.8816 -0.5095  0.0211
 3492SOL    HW111375   1.006   3.660   0.952 -1.0448  2.7727 -0.9017
 3492SOL    HW211376   0.869   3.583   0.995  1.0513 -1.6225 -1.5420
 3493SOL     OW11377   3.909   5.500   3.693 -0.7808  0.1529 -0.1052
 3493SOL    HW111378   3.954   5.440   3.627  0.7916  1.4084 -0.2316
 3493SOL    HW211379   3.896   5.591   3.652  1.4978  1.3941  1.6794
 3494SOL     OW11380   3.277   1.607   2.118  0.4013  0.0162  0.1114
 3494SOL    HW111381   3.377   1.614   2.117  0.3747  0.4060 -1.4191
 3494SOL    HW211382   3.246   1.556   2.038 -0.6270 -0.3889  0.7461
 3495SOL     OW11383   4.909   4.398   3.319 -0.3415  0.1409  0.0118
 3495SOL    HW111384   4.986   4.445   3.362 -1.1713  1.0601  0.5395
 3495SOL    HW211385   4.872   4.454   3.245 -0.3660 -0.4003 -0.3944
 3496SOL     OW11386   5.215   4.332   1.946 -0.1163 -0.1858  0.3555
 3496SOL    HW111387   5.140   4.267   1.949 -0.2567  0.0001  0.9131
 3496SOL    HW211388   5.299   4.285   1.916 -0.4422 -0.3934 -0.2470
 3497SOL     OW11389   5.761   0.725   4.940 -0.0738  0.1472  0.0916
 3497SOL    HW111390   5.827   0.783   4.986 -0.1409 -0.0595  0.4518
 3497SOL    HW211391   5.710   0.779   4.872  0.3769  0.3320 -0.1030
 3498SOL     OW11392   1.801   1.154   2.209 -0.2440  0.0258  0.4775
 3498SOL    HW111393   1.731   1.207   2.162 -1.3169 -0.3095  1.6531
 3498SOL    HW211394   1.869   1.216   2.248  1.4995  0.2914 -2.6070
 3499SOL     OW11395   5.497   3.210   3.400 -0.2104  0.6515 -0.3427
 3499SOL    HW111396   5.566   3.246   3.337  0.5793 -0.7550 -0.3067
 3499SOL    HW211397   5.428   3.159   3.349  0.2677 -0.2387 -0.1047
 3500SOL     OW11398   1.335   2.723   4.873  0.0183  0.2552 -0.1632
 3500SOL    HW111399   1.410   2.688   4.817  1.1046  0.2161  1.2693
 3500SOL    HW211400   1.248   2.691   4.835  0.6396  0.9491 -2.3106
 3501SOL     OW11401   1.630   6.549   2.833 -0.9083 -0.1384  0.4165
 3501SOL    HW111402   1.652   6.474   2.770 -0.9310  0.8218 -0.7665
 3501SOL    HW211403   1.542   6.589   2.808 -0.2175  1.2426  0.0721
 3502SOL     OW11404   6.770   4.025   0.873  0.0354  0.1638 -0.8494
 3502SOL    HW111405   6.761   3.985   0.782  0.0200  0.7133 -1.0964
 3502SOL    HW211406   6.681   4.026   0.918  0.2715 -1.3129 -0.2958
 3503SOL     OW11407   0.144   5.672   3.770  0.0983 -0.0248  0.0386
 3503SOL    HW111408   0.158   5.760   3.816  0.9631 -0.2217  0.1631
 3503SOL    HW211409   0.232   5.634   3.743 -0.3172 -0.5249 -0.6478
 3504SOL     OW11410   2.885   0.731   2.542  1.2149  0.1619  0.2601
 3504SOL    HW111411   2.873   0.830   2.542  0.2329  0.0664  1.7138
 3504SOL    HW211412   2.977   0.708   2.575  1.5281  0.5873 -0.3129
 3505SOL     OW11413   6.601   6.004   5.628  0.3090 -0.2712 -0.6930
 3505SOL    HW111414   6.591   6.004   5.728  0.5947  0.3068 -0.6650
 3505SOL    HW211415   6.663   6.077   5.600 -2.6234  2.0683 -1.5681
 3506SOL     OW11416   2.612   5.760   4.370  0.1614  0.4422 -0.3384
 3506SOL    HW111417   2.666   5.776   4.452  2.3354 -0.9873 -1.3912
 3506SOL    HW211418   2.535   5.700   4.392  0.2889  0.6623  0.7752
 3507SOL     OW11419   1.789   6.644   6.238 -0.5506 -0.3242  0.2690
 3507SOL    HW111420   1.878   6.624   6.197 -0.4847  0.4907 -0.0147
 3507SOL    HW211421   1.783   6.742   6.257 -1.3431 -0.3909  0.3927
 3508SOL     OW11422   2.422   0.724   6.346  0.0568 -0.0565  0.5439
 3508SOL    HW111423   2.456   0.818   6.352 -1.9566  0.8221 -0.6447
 3508SOL    HW211424   2.387   0.707   6.254 -1.0556 -1.4217  1.1812
 3509SOL     OW11425   6.007   6.905   0.254 -0.5002 -0.4617 -0.3617
 3509SOL    HW111426   5.932   6.840   0.240 -0.6210  0.1317 -2.9086
 3509SOL    HW211427   5.989   6.960   0.335 -2.9259 -0.2556 -0.9525
 3510SOL     OW11428   1.763   2.564   2.320 -0.8254 -0.4002 -0.5140
 3510SOL    HW111429   1.844   2.512   2.297 -1.0100 -0.5934 -0.7306
 3510SOL    HW211430   1.789   2.658   2.345 -0.3122 -1.0480  1.5879
 3511SOL     OW11431   2.396   4.738   1.756 -0.0701 -0.0176  0.8087
 3511SOL    HW111432   2.391   4.737   1.656 -1.5486  1.3136  0.8351
 3511SOL    HW211433   2.444   4.655   1.788  0.5986 -0.3605 -0.9843
 3512SOL     OW11434   6.898   3.521   0.442 -0.2239  0.4787 -0.0645
 3512SOL    HW111435   6.918   3.616   0.418 -0.8921  0.5620 -0.3210
 3512SOL    HW211436   6.887   3.467   0.358  2.2527 -0.3111  0.0328
 3513SOL     OW11437   5.987   3.115   5.481  0.5870 -0.3645 -0.5348
 3513SOL    HW111438   5.903   3.155   5.516  1.0555 -1.0048  1.4744
 3513SOL    HW211439   5.990   3.018   5.505  2.8255  0.0957  1.4166
 3514SOL     OW11440   5.996   2.018   1.784 -0.8392  0.8878 -0.1673
 3514SOL    HW111441   5.995   2.100   1.727 -0.9881  0.1061 -1.3206
 3514SOL    HW211442   5.909   1.970   1.775 -0.9067  0.7956  0.8177
 3515SOL     OW11443   4.920   0.031   5.049 -0.1492  0.2800  0.0916
 3515SOL    HW111444   4.942  -0.063   5.022  0.0370  0.1078  0.8183
 3515SOL    HW211445   4.952   0.094   4.978 -1.5849 -0.2826 -1.1204
 3516SOL     OW11446   5.427   5.473   6.825 -0.0137 -0.3058  0.4189
 3516SOL    HW111447   5.419   5.533   6.746  0.0715  0.1698  0.7660
 3516SOL    HW211448   5.383   5.385   6.805 -1.3640  0.3447  0.3669
 3517SOL     OW11449   1.375   1.174   2.108  0.0487 -0.2494 -0.1393
 3517SOL    HW111450   1.467   1.136   2.111 -0.0046 -0.4661 -1.0854
 3517SOL    HW211451   1.379   1.272   2.091  0.1280 -0.1043  0.6803
 3518SOL     OW11452   5.428   2.165   4.510 -0.7150 -0.8190  0.0765
 3518SOL    HW111453   5.457   2.220   4.589 -0.5274 -0.4203 -0.2675
 3518SOL    HW211454   5.351   2.210   4.465  0.6830  0.2372 -1.3849
 3519SOL     OW11455   2.750   6.716   5.852 -0.3028 -0.1059  0.1858
 3519SOL    HW111456   2.695   6.796   5.878  1.6145  0.3286  3.4903
 3519SOL    HW211457   2.736   6.696   5.755 -0.6458  4.4623 -0.9334
 3520SOL     OW11458   3.177   5.285   6.972  0.3326 -0.3751 -0.1798
 3520SOL    HW111459   3.120   5.310   7.050  0.5339  1.1471 -0.5000
 3520SOL    HW211460   3.126   5.224   6.911 -1.7296  2.4173 -1.4403
 3521SOL     OW11461   4.240   2.162   0.036 -0.7830 -0.3482  0.3846
 3521SOL    HW111462   4.278   2.255   0.041  0.1613 -0.6937 -0.0292
 3521SOL    HW211463   4.152   2.165  -0.011 -0.4064  0.2495 -0.3212
 3522SOL     OW11464   6.534   3.982   1.012  0.6819 -0.2914 -0.5066
 3522SOL    HW111465   6.506   4.078   1.021  0.8376 -0.2776 -0.1777
 3522SOL    HW211466   6.514   3.934   1.097 -1.0926 -0.9949 -1.2574
 3523SOL     OW11467   2.171   4.712   0.136  0.2468 -0.1469 -0.4291
 3523SOL    HW111468   2.230   4.770   0.079 -1.3195  1.4404 -0.5269
 3523SOL    HW211469   2.147   4.761   0.219  0.7740 -1.6288  0.6294
 3524SOL     OW11470   4.802   0.949   1.247 -0.1615 -0.6498  0.3217
 3524SOL    HW111471   4.777   0.956   1.151 -0.5454 -1.4792  0.3571
 3524SOL    HW211472   4.812   0.853   1.273  0.5787 -0.4135  0.9507
 3525SOL     OW11473   0.198   4.526   0.563 -0.2893 -0.6027 -0.1086
 3525SOL    HW111474   0.134   4.489   0.496 -0.9490  1.1945 -0.5169
 3525SOL    HW211475   0.282   4.555   0.517 -0.9998  1.2447 -0.3140
 3526SOL     OW11476   2.885   0.403   5.241 -1.0430  0.0700 -0.2791
 3526SOL    HW111477   2.869   0.427   5.145 -0.9512  1.6006  0.0629
 3526SOL    HW211478   2.798   0.386   5.286 -1.5121  3.3852  0.3259
 3527SOL     OW11479   5.384   2.926   5.179  0.0626  0.0809 -0.5477
 3527SOL    HW111480   5.442   2.853   5.214  0.0902  0.4191  0.1317
 3527SOL    HW211481   5.361   2.989   5.254 -3.0366 -1.2407 -0.2355
 3528SOL     OW11482   1.222   5.237   5.561  0.2788 -0.4800  0.2726
 3528SOL    HW111483   1.144   5.195   5.607  0.6282  0.4482  1.7855
 3528SOL    HW211484   1.218   5.337   5.571  0.2530 -0.2172 -1.9591
 3529SOL     OW11485   2.719   5.480   5.315  0.5550  0.0395 -0.0844
 3529SOL    HW111486   2.755   5.490   5.409  1.2739 -0.3372 -0.3088
 3529SOL    HW211487   2.751   5.394   5.277 -2.8890 -1.7465  0.6781
 3530SOL     OW11488   6.266   4.502   1.853  0.1590  0.5179 -0.1031
 3530SOL    HW111489   6.217   4.424   1.815 -0.1175  0.4855  0.3188
 3530SOL    HW211490   6.310   4.553   1.779 -0.3126  0.4131 -0.4551
 3531SOL     OW11491   4.098   3.629   0.163 -0.2155 -0.0879 -0.0366
 3531SOL    HW111492   4.171   3.669   0.107 -0.0528  0.0005  0.2364
 3531SOL    HW211493   4.134   3.608   0.254 -0.5102 -0.1179  0.0733
 3532SOL     OW11494   4.570   1.310   3.144  0.0033  0.9503 -0.0335
 3532SOL    HW111495   4.577   1.375   3.220  0.3937  0.0442  0.7294
 3532SOL    HW211496   4.516   1.351   3.070 -1.8977  1.2248  1.4179
 3533SOL     OW11497   1.342   3.588   3.421 -0.3012  0.1522  0.4507
 3533SOL    HW111498   1.258   3.629   3.458 -1.2620 -2.4156  1.2987
 3533SOL    HW211499   1.395   3.548   3.494  0.3694 -0.5097 -0.3811
 3534SOL     OW11500   0.481   2.343   6.212  0.4689  0.2679 -0.4726
 3534SOL    HW111501   0.419   2.318   6.137  1.3558 -0.0174 -1.1228
 3534SOL    HW211502   0.458   2.289   6.293 -0.2823  0.3318 -0.6368
 3535SOL     OW11503   2.112   0.017   0.629 -0.1979 -0.3593 -0.3673
 3535SOL    HW111504   2.211   0.010   0.635 -0.1197  0.5281 -0.4130
 3535SOL    HW211505   2.085   0.114   0.632 -1.1582 -0.6387  1.2140
 3536SOL     OW11506   2.415   2.619   4.652 -0.7267  0.1291 -0.2152
 3536SOL    HW111507   2.450   2.601   4.560 -0.1205  0.6794 -0.1003
 3536SOL    HW211508   2.474   2.573   4.719 -0.6943  0.3913 -0.0629
 3537SOL     OW11509   3.265   5.577   0.711  0.0889 -0.1554  0.4337
 3537SOL    HW111510   3.285   5.608   0.805 -2.1497 -0.5804  1.1009
 3537SOL    HW211511   3.184   5.624   0.677  0.5922 -0.3673 -1.1502
 3538SOL     OW11512   1.985   6.690   5.633 -0.5928  0.1440  0.1849
 3538SOL    HW111513   1.937   6.662   5.550 -0.9977  0.0025  0.4612
 3538SOL    HW211514   2.016   6.785   5.622  0.4539 -0.2775 -0.6012
 3539SOL     OW11515   4.854   4.051   6.257 -0.1189 -0.0835 -0.3807
 3539SOL    HW111516   4.901   3.973   6.215  0.9301 -0.1568  0.8594
 3539SOL    HW211517   4.798   4.018   6.333 -0.4489  0.2685 -0.4675
 3540SOL     OW11518   2.011   2.736   5.219 -0.0975  0.8740  0.1752
 3540SOL    HW111519   2.100   2.779   5.226 -1.0306  2.6896  1.6230
 3540SOL    HW211520   1.942   2.793   5.264 -1.9519 -0.6125 -0.6347
 3541SOL     OW11521   2.643   3.111   6.300  0.1102 -0.2463  0.7141
 3541SOL    HW111522   2.602   3.129   6.390  0.3971  0.7171  0.6558
 3541SOL    HW211523   2.583   3.146   6.228 -0.1783 -1.1227  0.5059
 3542SOL     OW11524   2.037   6.636   2.378  0.2138 -0.3128 -0.1910
 3542SOL    HW111525   1.960   6.666   2.434  0.4437 -0.7291  0.3510
 3542SOL    HW211526   2.106   6.592   2.435  0.6177 -0.4266 -0.7489
 3543SOL     OW11527   2.196   3.928   5.511 -0.0395 -0.2664 -0.2328
 3543SOL    HW111528   2.262   3.973   5.450 -0.6904 -0.4255 -1.0791
 3543SOL    HW211529   2.126   3.883   5.456 -1.6571  1.0684  0.6454
 3544SOL     OW11530   3.799   4.948   5.904  0.1734  0.1467  0.1752
 3544SOL    HW111531   3.841   4.892   5.976 -1.8710  1.5860  2.6586
 3544SOL    HW211532   3.706   4.915   5.887  0.2956  0.4479 -1.1433
 3545SOL     OW11533   0.101   4.864   6.356 -0.1678  0.7153 -0.9400
 3545SOL    HW111534   0.076   4.770   6.377  1.0953  0.8442  1.5135
 3545SOL    HW211535   0.032   4.926   6.393  1.2745  0.8738  1.7183
 3546SOL     OW11536   1.888   3.869   3.371  0.2967 -0.0821 -0.7740
 3546SOL    HW111537   1.988   3.866   3.370  0.3612 -3.8380  1.0026
 3546SOL    HW211538   1.851   3.784   3.334 -2.1263  0.0652  1.0189
 3547SOL     OW11539   5.506   5.904   3.992  0.5230  0.1129 -0.3761
 3547SOL    HW111540   5.466   5.937   4.077 -2.4403 -1.0656 -1.1997
 3547SOL    HW211541   5.587   5.848   4.013  0.1012  0.1647  1.6235
 3548SOL     OW11542   5.770   1.370   5.520 -0.4364  0.1089 -0.3260
 3548SOL    HW111543   5.833   1.349   5.595  0.6855  0.0633 -1.2599
 3548SOL    HW211544   5.691   1.309   5.525 -0.5337  0.3075  0.9848
 3549SOL     OW11545   5.766   5.406   4.703  0.1932  0.0816  0.2988
 3549SOL    HW111546   5.674   5.396   4.743 -0.7048 -0.5694 -1.8063
 3549SOL    HW211547   5.818   5.473   4.756 -1.7683  1.0545  1.1036
 3550SOL     OW11548   5.801   2.169   4.232  0.1563  0.4293 -0.0098
 3550SOL    HW111549   5.705   2.177   4.258  0.1241 -0.6580  0.2935
 3550SOL    HW211550   5.846   2.258   4.239 -0.8854  0.9943 -0.4049
 3551SOL     OW11551   2.755   0.489   6.888  0.0906  0.7057  0.3480
 3551SOL    HW111552   2.727   0.470   6.794  0.4987  2.1591 -0.0939
 3551SOL    HW211553   2.809   0.412   6.923 -1.0247 -0.3594 -0.1753
 3552SOL     OW11554   6.295   5.750   1.395  0.0981  0.2632  0.2621
 3552SOL    HW111555   6.333   5.732   1.304 -0.3844  1.7093 -0.2626
 3552SOL    HW211556   6.370   5.757   1.461  0.4855 -0.3568 -0.1028
 3553SOL     OW11557   4.891   4.690   0.970  0.0956  0.2423 -0.8009
 3553SOL    HW111558   4.982   4.681   1.011 -1.1324  0.4827  2.2729
 3553SOL    HW211559   4.849   4.599   0.961 -1.5252  0.2873  3.5953
 3554SOL     OW11560   3.187   6.901   0.768  0.0875 -0.1397  0.0274
 3554SOL    HW111561   3.177   6.919   0.670 -1.0960  0.7709  0.2845
 3554SOL    HW211562   3.163   6.983   0.820  1.0993 -0.4827  1.0815
 3555SOL     OW11563   6.621   3.587   4.360  0.3276 -0.5109  0.2225
 3555SOL    HW111564   6.535   3.584   4.411 -1.5386 -0.0169 -2.6584
 3555SOL    HW211565   6.680   3.658   4.399 -2.3522  2.1481 -0.1925
 3556SOL     OW11566   3.815   1.193   2.808  0.3172  0.1652 -0.2780
 3556SOL    HW111567   3.769   1.280   2.793  0.9560  0.1501 -2.9087
 3556SOL    HW211568   3.913   1.203   2.787  0.4778 -1.0893 -0.2294
 3557SOL     OW11569   6.055   1.404   4.468  0.5149 -0.3337  0.0772
 3557SOL    HW111570   5.982   1.467   4.444 -0.2059 -1.3724 -0.5479
 3557SOL    HW211571   6.053   1.326   4.405 -0.1202 -2.1647  2.2558
 3558SOL     OW11572   1.452   6.657   2.023  0.3911  0.5739  0.7834
 3558SOL    HW111573   1.489   6.619   1.938 -0.1286 -0.6602  1.0834
 3558SOL    HW211574   1.386   6.728   2.002 -1.7198 -1.5025  0.0091
 3559SOL     OW11575   1.577   6.563   4.869 -0.3891 -0.5096  0.2952
 3559SOL    HW111576   1.582   6.463   4.878  0.4274 -0.9583 -3.3100
 3559SOL    HW211577   1.627   6.591   4.787 -1.1473  2.8452  0.8329
 3560SOL     OW11578   1.314   0.317   0.728 -0.1886  0.0583 -0.5516
 3560SOL    HW111579   1.397   0.286   0.775 -1.4259  0.1031  1.8627
 3560SOL    HW211580   1.320   0.416   0.713  0.8131 -0.1728 -1.8258
 3561SOL     OW11581   4.547   4.152   5.292 -0.3824  0.0551 -0.0019
 3561SOL    HW111582   4.611   4.150   5.216  0.8185 -0.1712  0.9855
 3561SOL    HW211583   4.597   4.153   5.378 -1.6939 -1.7771  0.8558
 3562SOL     OW11584   6.987   0.467   2.130  0.1903  0.0718  0.2569
 3562SOL    HW111585   7.051   0.519   2.073  0.7766 -1.4361 -0.5293
 3562SOL    HW211586   6.901   0.454   2.079  1.1640 -2.3751 -0.9158
 3563SOL     OW11587   5.021   3.053   6.973 -0.4215  0.1114 -0.0353
 3563SOL    HW111588   5.091   3.115   7.008 -0.2537 -0.7352  1.2061
 3563SOL    HW211589   5.039   3.034   6.876  1.5068 -0.6259  0.4057
 3564SOL     OW11590   2.820   4.757   4.284 -0.4291 -0.0411  0.3423
 3564SOL    HW111591   2.852   4.821   4.214  1.9607 -2.2501 -0.7850
 3564SOL    HW211592   2.797   4.669   4.241  3.0947 -2.1757  2.2685
 3565SOL     OW11593   1.208   4.544   3.140 -0.7518 -0.0816  0.3832
 3565SOL    HW111594   1.130   4.553   3.077 -0.2453  1.5438 -0.0609
 3565SOL    HW211595   1.291   4.526   3.087 -0.5600 -0.2082  0.7249
 3566SOL     OW11596   6.541   5.086   5.503 -0.6511 -0.0515 -0.5904
 3566SOL    HW111597   6.562   5.111   5.408 -1.5133 -0.0941 -0.8011
 3566SOL    HW211598   6.601   5.137   5.565  0.1868 -0.3120 -1.1649
 3567SOL     OW11599   1.052   4.331   1.588 -0.6456  0.0982 -0.2461
 3567SOL    HW111600   1.055   4.246   1.642 -2.2508 -0.1482 -0.4757
 3567SOL    HW211601   1.141   4.375   1.590 -0.7374  0.3917  3.0896
 3568SOL     OW11602   5.881   5.351   3.955  0.2052 -0.5010 -0.6870
 3568SOL    HW111603   5.911   5.257   3.971 -1.5301 -1.1281 -1.0205
 3568SOL    HW211604   5.935   5.413   4.013  2.2264 -1.5331 -1.3708
 3569SOL     OW11605   3.299   2.127   4.805 -0.0779 -0.5104 -0.2837
 3569SOL    HW111606   3.391   2.095   4.829 -0.8177 -2.2071  0.3924
 3569SOL    HW211607   3.254   2.163   4.887 -0.3748 -0.5832 -0.4140
 3570SOL     OW11608   3.879   0.312   6.001 -0.2545  0.6458 -0.3058
 3570SOL    HW111609   3.957   0.368   5.974  0.1969  0.0720 -0.2075
 3570SOL    HW211610   3.872   0.232   5.941  2.4587 -2.2008  2.7456
 3571SOL     OW11611   1.011   4.908   5.499  0.3820  0.5229 -0.4530
 3571SOL    HW111612   0.998   4.827   5.556  0.3850 -0.0866 -1.2947
 3571SOL    HW211613   1.014   4.989   5.557  1.6293 -0.1811  0.5286
 3572SOL     OW11614   6.436   2.309   2.982 -0.5510  0.2073 -0.4520
 3572SOL    HW111615   6.366   2.355   2.928 -0.8981  0.0942 -0.1022
 3572SOL    HW211616   6.393   2.243   3.043 -0.4929  2.3690  2.1038
 3573SOL     OW11617   6.653   5.466   1.441  0.5121 -0.1307  0.6431
 3573SOL    HW111618   6.585   5.397   1.417  1.9225 -1.1139 -0.7396
 3573SOL    HW211619   6.695   5.502   1.357 -1.4436  3.8402  1.1573
 3574SOL     OW11620   6.568   3.771   0.833 -0.0964 -0.1519 -0.4367
 3574SOL    HW111621   6.647   3.781   0.773  0.0090  1.0748 -0.1113
 3574SOL    HW211622   6.564   3.848   0.897 -3.0662  1.3199 -2.1754
 3575SOL     OW11623   5.146   0.129   4.567  0.0317 -0.0479  0.3282
 3575SOL    HW111624   5.157   0.033   4.593  0.2508  0.3439  1.7622
 3575SOL    HW211625   5.101   0.178   4.641  2.0512  1.4402  0.6556
 3576SOL     OW11626   2.296   2.156   0.966  0.2033  0.0907 -0.2852
 3576SOL    HW111627   2.260   2.075   0.920 -0.4513  0.4271 -0.3781
 3576SOL    HW211628   2.308   2.230   0.899 -0.4379  0.4789  0.0217
 3577SOL     OW11629   2.420   2.550   0.580  0.4293 -0.6965 -0.3569
 3577SOL    HW111630   2.472   2.495   0.516  0.6373  0.2590 -1.0190
 3577SOL    HW211631   2.456   2.643   0.583  0.8349 -0.8577  1.6172
 3578SOL     OW11632   5.125   6.851   1.139 -0.0379  0.0664 -0.2419
 3578SOL    HW111633   5.084   6.861   1.048  0.1288  1.3650 -0.1945
 3578SOL    HW211634   5.224   6.851   1.131 -0.0041 -1.2809 -0.1763
 3579SOL     OW11635   6.226   1.974   2.253 -0.3204 -0.0625 -0.1986
 3579SOL    HW111636   6.241   2.016   2.163 -0.3334 -1.3296 -0.8206
 3579SOL    HW211637   6.278   1.889   2.258 -3.6659 -2.2936 -0.7137
 3580SOL     OW11638   5.717   3.823   0.990  0.1899  0.2838  0.0088
 3580SOL    HW111639   5.693   3.779   0.903 -0.1620 -2.3315  1.3416
 3580SOL    HW211640   5.816   3.835   0.994  0.7474 -3.3425  0.7662
 3581SOL     OW11641   6.842   4.734   2.408 -0.3878  0.1006 -0.4468
 3581SOL    HW111642   6.802   4.825   2.419 -2.2053 -0.9556  2.9166
 3581SOL    HW211643   6.871   4.699   2.497 -2.7174 -3.8140 -0.9747
 3582SOL     OW11644   1.981   3.640   5.796 -0.3752 -0.3753 -0.2450
 3582SOL    HW111645   1.963   3.549   5.759 -1.1548 -0.7417  0.9750
 3582SOL    HW211646   1.920   3.657   5.873  2.3932 -0.4482  2.1623
 3583SOL     OW11647   1.313   2.990   0.091 -0.3055 -0.1195 -0.3719
 3583SOL    HW111648   1.408   2.987   0.060 -0.0757  1.2494  0.1147
 3583SOL    HW211649   1.291   2.906   0.139  2.0737  1.1617  3.3795
 3584SOL     OW11650   0.239   5.573   5.664  0.0564 -0.2256 -0.3281
 3584SOL    HW111651   0.276   5.662   5.638 -1.1464  0.9367  1.6632
 3584SOL    HW211652   0.147   5.563   5.625  0.6766 -1.2067 -1.6227
 3585SOL     OW11653   3.889   1.802   0.179 -0.1002 -0.1528  0.0462
 3585SOL    HW111654   3.907   1.854   0.262 -0.7104 -0.3755  0.3282
 3585SOL    HW211655   3.926   1.709   0.189  0.5069  0.0578 -0.2391
 3586SOL     OW11656   5.691   0.228   3.583 -0.0851  0.3522 -0.1717
 3586SOL    HW111657   5.640   0.201   3.665 -0.2505 -1.3974 -0.8041
 3586SOL    HW211658   5.748   0.308   3.604  2.6002 -2.0552  2.7776
 3587SOL     OW11659   0.081   3.773   3.471 -0.5081 -0.2888 -0.4448
 3587SOL    HW111660   0.176   3.741   3.481 -0.8814 -1.0744  0.9391
 3587SOL    HW211661   0.020   3.713   3.523 -1.6662  0.7308 -0.5706
 3588SOL     OW11662   0.668   4.818   3.548 -0.2330  0.0362 -0.2980
 3588SOL    HW111663   0.740   4.821   3.478  0.0245  1.2491 -0.0024
 3588SOL    HW211664   0.693   4.750   3.617  1.1195  1.0774  0.2856
 3589SOL     OW11665   6.847   0.713   6.041  0.1949 -0.0544  0.7836
 3589SOL    HW111666   6.873   0.617   6.032 -0.2286 -0.0500 -0.9852
 3589SOL    HW211667   6.754   0.720   6.077 -0.0148 -0.3408  0.3079
 3590SOL     OW11668   2.764   2.980   6.871 -0.3059 -0.2394  0.0193
 3590SOL    HW111669   2.821   2.917   6.818 -0.5331 -1.2513  0.9464
 3590SOL    HW211670   2.734   2.936   6.955  0.8034  1.6433  1.4979
 3591SOL     OW11671   5.912   2.472   0.673  0.0627  0.0501 -0.1383
 3591SOL    HW111672   5.963   2.538   0.619 -0.7695 -0.6459 -1.8257
 3591SOL    HW211673   5.961   2.385   0.675  0.6070  0.3479  1.1638
 3592SOL     OW11674   0.490   5.964   2.676  0.3821 -0.3363  0.3415
 3592SOL    HW111675   0.396   5.992   2.659  0.5056 -0.0071  0.1887
 3592SOL    HW211676   0.532   5.932   2.591  0.2705 -0.9077  0.4973
 3593SOL     OW11677   0.360   3.407   0.147 -0.1198  0.2226  0.6090
 3593SOL    HW111678   0.377   3.463   0.066  0.1631  1.7102  1.6460
 3593SOL    HW211679   0.290   3.451   0.203  0.1573 -0.4431  1.4903
 3594SOL     OW11680   5.829   0.263   4.867  0.0602  0.0600 -0.2382
 3594SOL    HW111681   5.918   0.305   4.880 -0.6208  2.0244 -1.5381
 3594SOL    HW211682   5.760   0.334   4.854 -1.8540 -1.3811  1.4190
 3595SOL     OW11683   6.750   7.018   0.058  0.1288  0.4219  0.2728
 3595SOL    HW111684   6.658   6.984   0.075  0.5336 -1.6561 -1.2807
 3595SOL    HW211685   6.752   7.117   0.073 -2.6464  0.7336 -0.7719
 3596SOL     OW11686   5.507   3.015   3.832  0.8104 -0.0501  0.0708
 3596SOL    HW111687   5.551   3.023   3.742 -0.5741 -1.2370 -0.7644
 3596SOL    HW211688   5.487   3.106   3.868 -0.6369  0.4770 -1.8940
 3597SOL     OW11689   3.200   5.929   5.870  0.3808 -0.6792  0.4743
 3597SOL    HW111690   3.129   5.879   5.920  1.3380 -1.3473  1.1997
 3597SOL    HW211691   3.198   5.902   5.774  0.9596 -2.2180  0.8778
 3598SOL     OW11692   2.770   0.094   6.360  1.0063 -0.2624  0.1262
 3598SOL    HW111693   2.793   0.005   6.323  1.1333 -0.0559 -0.2905
 3598SOL    HW211694   2.691   0.085   6.421  0.4802 -0.5246 -0.5820
 3599SOL     OW11695   2.801   1.946   6.022 -0.0397 -0.3364 -0.1451
 3599SOL    HW111696   2.875   1.977   5.962  0.5577  3.3052  2.1846
 3599SOL    HW211697   2.839   1.918   6.110 -1.3202  2.7536  1.5407
 3600SOL     OW11698   0.265   1.336   1.760  0.2741  0.0510  0.1159
 3600SOL    HW111699   0.365   1.330   1.762  0.3048  0.5684  1.9947
 3600SOL    HW211700   0.229   1.273   1.691  1.8441 -0.8247  0.0572
 3601SOL     OW11701   4.394   1.348   0.267  0.2228 -0.4385 -0.3288
 3601SOL    HW111702   4.354   1.277   0.325  0.3407 -0.4243 -0.2293
 3601SOL    HW211703   4.491   1.358   0.290 -0.4022  1.7844  1.7342
 3602SOL     OW11704   6.890   3.493   6.451  0.1959 -0.0830  0.7515
 3602SOL    HW111705   6.942   3.458   6.529 -1.4471  0.2315  2.0722
 3602SOL    HW211706   6.842   3.418   6.406  0.7528 -0.1961  0.3340
 3603SOL     OW11707   2.188   0.465   4.793 -0.3126  0.2695 -0.7510
 3603SOL    HW111708   2.274   0.454   4.744  0.5182  0.8525  0.4977
 3603SOL    HW211709   2.180   0.394   4.863 -0.9332  0.1084 -0.9855
 3604SOL     OW11710   0.258   5.791   4.384  0.4675  0.2664  0.2617
 3604SOL    HW111711   0.193   5.746   4.444 -0.5267  2.3537  0.8507
 3604SOL    HW211712   0.342   5.811   4.435  0.5781 -0.1266  0.2380
 3605SOL     OW11713   6.123   3.176   3.010 -0.1719 -0.0551 -0.0859
 3605SOL    HW111714   6.143   3.262   2.963  1.3459  0.4064  1.3058
 3605SOL    HW211715   6.151   3.100   2.952 -1.1903  0.3580 -1.1806
 3606SOL     OW11716   0.680   0.412   6.170  0.0152  0.7038  0.2760
 3606SOL    HW111717   0.693   0.511   6.161  0.8556  0.4949 -1.2831
 3606SOL    HW211718   0.769   0.367   6.166 -0.5023 -0.2488 -1.5599
 3607SOL     OW11719   3.923   4.999   2.673 -0.3563 -0.1501 -1.2154
 3607SOL    HW111720   3.934   5.058   2.594  2.5998  0.8039 -0.2330
 3607SOL    HW211721   3.937   4.904   2.647 -0.9333 -0.0106 -2.0625
 3608SOL     OW11722   4.271   2.065   4.564  0.4946  0.2830 -0.7869
 3608SOL    HW111723   4.191   2.009   4.586  0.5068  1.3310  2.4055
 3608SOL    HW211724   4.241   2.157   4.537  0.5695  0.2777 -0.8867
 3609SOL     OW11725   0.854   6.912   4.762  0.4949  1.0669  0.0257
 3609SOL    HW111726   0.889   6.981   4.825  1.3784  0.5660  0.0913
 3609SOL    HW211727   0.755   6.926   4.749  0.2034  0.9537  1.8245
 3610SOL     OW11728   1.985   4.841   5.604 -0.0827 -0.1453  0.1497
 3610SOL    HW111729   2.061   4.863   5.665 -0.9869  0.1064  1.2040
 3610SOL    HW211730   1.982   4.908   5.529  0.8689 -0.3042 -0.0432
 3611SOL     OW11731   5.188   3.127   3.963 -0.1306 -0.0121  0.1964
 3611SOL    HW111732   5.257   3.069   3.919  2.6345  2.2642  1.1980
 3611SOL    HW211733   5.188   3.218   3.920  1.3694  1.7120  3.4506
 3612SOL     OW11734   6.562   0.005   0.337 -0.2066 -0.2098 -0.0071
 3612SOL    HW111735   6.630  -0.068   0.338  1.0203  0.8598 -0.9862
 3612SOL    HW211736   6.473  -0.033   0.309  0.3681 -1.3487 -0.3723
 3613SOL     OW11737   5.120   5.679   1.445 -0.1767 -0.8184 -0.0365
 3613SOL    HW111738   5.161   5.588   1.450 -0.1252 -0.7448  2.3945
 3613SOL    HW211739   5.170   5.735   1.379  1.8590 -1.6071  0.7463
 3614SOL     OW11740   3.699   2.636   6.241 -0.3243  0.4268  0.4340
 3614SOL    HW111741   3.656   2.656   6.329 -1.6867 -3.6388  0.9365
 3614SOL    HW211742   3.637   2.662   6.167 -0.9551  0.2463  0.8910
 3615SOL     OW11743   4.390   1.291   5.819  0.6413 -0.2021  0.2147
 3615SOL    HW111744   4.301   1.299   5.774  0.7898  0.6781  0.0738
 3615SOL    HW211745   4.377   1.295   5.918  0.5531  0.2834  0.1870
 3616SOL     OW11746   1.049   0.317   0.037  0.0437  0.2794 -0.7042
 3616SOL    HW111747   1.111   0.267  -0.023  0.3030  1.1493 -1.1798
 3616SOL    HW211748   1.100   0.385   0.089 -0.2379 -0.2235  0.2492
 3617SOL     OW11749   2.544   2.214   0.022  0.1173 -1.1703  0.2753
 3617SOL    HW111750   2.507   2.244  -0.065 -1.0289 -1.7308  0.5508
 3617SOL    HW211751   2.605   2.284   0.059 -0.9334 -0.0654 -0.0421
 3618SOL     OW11752   2.536   3.538   6.317 -0.2959 -0.0488  0.1780
 3618SOL    HW111753   2.567   3.608   6.381 -0.5684 -1.2041  1.6168
 3618SOL    HW211754   2.610   3.518   6.252  0.0264  1.0657  0.1848
 3619SOL     OW11755   5.799   3.750   6.558 -0.2956  0.1778 -0.0748
 3619SOL    HW111756   5.785   3.751   6.657 -1.0001 -1.6918 -0.1030
 3619SOL    HW211757   5.774   3.659   6.522  1.1972  0.3840 -1.7797
 3620SOL     OW11758   0.695   5.652   5.164  0.1654 -0.1621  0.0088
 3620SOL    HW111759   0.648   5.600   5.236  0.0924 -0.8610 -0.5381
 3620SOL    HW211760   0.777   5.602   5.135  0.5981  0.4704  0.1089
 3621SOL     OW11761   3.079   3.167   4.841 -0.2342 -0.2212 -0.5560
 3621SOL    HW111762   3.145   3.217   4.785  0.1029 -0.0514 -0.0177
 3621SOL    HW211763   2.998   3.223   4.856  0.4059  0.4549  0.5837
 3622SOL     OW11764   6.279   0.217   0.634 -0.1730  0.0844 -0.0006
 3622SOL    HW111765   6.277   0.276   0.714  0.8440  0.9485 -0.5857
 3622SOL    HW211766   6.366   0.168   0.631 -0.1032  0.2410 -0.7000
 3623SOL     OW11767   0.796   6.011   2.999 -0.8373 -0.3000  0.1239
 3623SOL    HW111768   0.805   6.037   3.095 -0.8454  0.1257  0.0122
 3623SOL    HW211769   0.723   5.945   2.988 -0.4440 -0.7979  0.4970
 3624SOL     OW11770   2.810   1.351   3.280  0.2422 -0.0660 -0.0743
 3624SOL    HW111771   2.901   1.390   3.266  0.0174 -0.1461 -2.0186
 3624SOL    HW211772   2.745   1.424   3.300  0.5455  0.1080  0.2819
 3625SOL     OW11773   5.574   4.377   6.118 -1.0314  0.2668 -0.2776
 3625SOL    HW111774   5.588   4.310   6.045 -0.8684 -0.1763  0.1506
 3625SOL    HW211775   5.520   4.453   6.084 -1.6902 -0.3470 -0.6322
 3626SOL     OW11776   1.505   3.162   5.966 -0.2746 -0.0157 -0.1863
 3626SOL    HW111777   1.567   3.240   5.957 -1.1997  0.8053  0.2915
 3626SOL    HW211778   1.440   3.163   5.890 -0.4568 -0.1597 -0.0333
 3627SOL     OW11779   4.609   4.162   0.580 -0.5262 -0.1631 -0.4853
 3627SOL    HW111780   4.635   4.230   0.511 -0.5996  0.9787  0.5868
 3627SOL    HW211781   4.691   4.128   0.626 -0.4356 -1.2699 -1.4212
 3628SOL     OW11782   1.181   3.563   0.959  0.1172 -0.3222 -0.1021
 3628SOL    HW111783   1.262   3.611   0.994  0.6164 -0.3621 -1.1642
 3628SOL    HW211784   1.204   3.516   0.874 -1.1576  0.0945 -0.7031
 3629SOL     OW11785   0.272   0.045   0.238 -0.2782 -0.4038 -0.1748
 3629SOL    HW111786   0.264   0.027   0.336  0.2701  1.0921  0.1623
 3629SOL    HW211787   0.208  -0.014   0.188 -1.1705 -0.5902  1.1399
 3630SOL     OW11788   5.591   2.791   2.662 -0.1546 -0.0768 -0.4422
 3630SOL    HW111789   5.639   2.731   2.726 -0.5490  0.7297  0.6401
 3630SOL    HW211790   5.522   2.740   2.612 -1.3454 -0.2856  1.3609
 3631SOL     OW11791   2.905   1.902   2.593  0.6083 -0.7794  0.2677
 3631SOL    HW111792   2.965   1.882   2.671  1.6501  3.3969  0.7886
 3631SOL    HW211793   2.832   1.964   2.622  1.0742  0.9629 -2.0056
 3632SOL     OW11794   4.562   4.528   2.799 -0.5056  0.5647  0.9021
 3632SOL    HW111795   4.643   4.468   2.798  1.0212  2.4931 -1.2197
 3632SOL    HW211796   4.518   4.521   2.889  2.4222 -0.0554  2.4426
 3633SOL     OW11797   3.199   3.269   6.373 -0.2614  0.1406  0.1492
 3633SOL    HW111798   3.283   3.274   6.428 -0.5747  1.4552  0.5465
 3633SOL    HW211799   3.121   3.294   6.429 -0.7152  0.5109 -0.6272
 3634SOL     OW11800   0.180   6.530   4.484 -0.1460  0.5718  0.6481
 3634SOL    HW111801   0.152   6.616   4.527  1.2908  0.9495  0.9072
 3634SOL    HW211802   0.246   6.550   4.411  0.8795 -0.3412  1.2937
 3635SOL     OW11803   2.039   1.611   1.091  0.0587  0.0285 -0.2302
 3635SOL    HW111804   2.116   1.592   1.031  0.2286 -0.1833  0.0509
 3635SOL    HW211805   2.037   1.544   1.165 -0.9205 -0.5077 -0.7244
 3636SOL     OW11806   1.463   5.691   1.642 -0.0339 -0.5953  0.0910
 3636SOL    HW111807   1.496   5.642   1.562  0.1847 -1.7052  0.8476
 3636SOL    HW211808   1.521   5.670   1.721 -0.3594  0.3270  0.5940
 3637SOL     OW11809   6.461   3.998   1.494 -0.4006 -0.0377  0.2605
 3637SOL    HW111810   6.539   4.047   1.456  0.2919 -0.0449  1.6084
 3637SOL    HW211811   6.377   4.045   1.470  0.1943  1.4255  0.9163
 3638SOL     OW11812   6.725   3.974   1.353 -0.0016  0.0627 -0.3252
 3638SOL    HW111813   6.740   4.009   1.446 -0.4739 -1.1423  0.2301
 3638SOL    HW211814   6.726   4.050   1.288 -0.7533  1.0751  0.7948
 3639SOL     OW11815   5.604   4.352   0.465  0.2787 -0.1672  0.1726
 3639SOL    HW111816   5.537   4.375   0.536  0.6572  2.7852 -0.3052
 3639SOL    HW211817   5.571   4.384   0.376  1.7800  0.2742 -0.2565
 3640SOL     OW11818   6.357   3.037   6.419 -0.1656 -0.5232 -0.1101
 3640SOL    HW111819   6.336   3.131   6.390 -0.4629 -0.8883 -1.1318
 3640SOL    HW211820   6.386   3.037   6.514 -1.5428  0.4354  0.3401
 3641SOL     OW11821   5.402   1.955   1.794 -0.6180 -0.0087  0.3277
 3641SOL    HW111822   5.413   1.913   1.704  3.0192  0.0463  0.6127
 3641SOL    HW211823   5.399   2.054   1.785 -0.3420 -0.0069  0.2454
 3642SOL     OW11824   3.957   6.521   1.481  0.3342 -0.3227 -0.0820
 3642SOL    HW111825   3.917   6.441   1.436 -0.8948 -0.0621  0.5032
 3642SOL    HW211826   4.005   6.577   1.414  2.1811 -2.0838 -0.3357
 3643SOL     OW11827   3.708   6.000   5.274 -0.1224  0.8736 -0.4104
 3643SOL    HW111828   3.608   5.994   5.278 -0.0980  0.9656  1.3741
 3643SOL    HW211829   3.744   5.932   5.211 -1.3479  1.5311 -1.8964
 3644SOL     OW11830   2.163   1.264   2.045 -0.0977 -0.3808 -0.3319
 3644SOL    HW111831   2.109   1.199   1.991 -0.3141 -0.3144 -0.1958
 3644SOL    HW211832   2.237   1.301   1.988 -0.2987 -0.3434 -0.5708
 3645SOL     OW11833   2.077   4.685   3.859 -0.2495 -0.4105  0.3958
 3645SOL    HW111834   2.028   4.615   3.808 -0.8451  1.1088 -1.2390
 3645SOL    HW211835   2.123   4.747   3.795 -0.8673  1.4807  1.6822
 3646SOL     OW11836   6.813   3.468   5.950 -0.1095 -0.3856 -0.4368
 3646SOL    HW111837   6.831   3.389   6.009  0.5167  0.3109  0.3231
 3646SOL    HW211838   6.882   3.538   5.965 -1.0687  0.6202 -0.5571
 3647SOL     OW11839   3.849   4.787   6.931  0.1091  0.6473 -0.7573
 3647SOL    HW111840   3.808   4.710   6.883 -0.9534 -0.3910  1.6602
 3647SOL    HW211841   3.921   4.754   6.992 -1.5339  1.2275  1.6439
 3648SOL     OW11842   4.417   4.582   4.294 -0.3185  0.3013 -0.1934
 3648SOL    HW111843   4.438   4.485   4.285  2.0256  0.7797 -0.5114
 3648SOL    HW211844   4.374   4.615   4.210 -1.3118 -0.4821 -0.0058
 3649SOL     OW11845   5.081   3.399   6.816  0.1968 -0.2646  0.3223
 3649SOL    HW111846   5.069   3.497   6.831 -0.8539 -0.2107 -0.7319
 3649SOL    HW211847   5.047   3.374   6.725  0.6495 -1.5715  0.4867
 3650SOL     OW11848   5.783   5.698   3.838 -0.0015  0.0760  0.0797
 3650SOL    HW111849   5.701   5.654   3.801 -0.0692 -1.0989  1.5200
 3650SOL    HW211850   5.848   5.627   3.866  0.5942  0.9547  0.9463
 3651SOL     OW11851   0.802   0.939   4.639  0.3924 -0.5247 -0.1215
 3651SOL    HW111852   0.814   0.863   4.703  1.5834 -0.8566 -0.7150
 3651SOL    HW211853   0.870   1.010   4.659 -0.1179 -0.0228 -0.1541
 3652SOL     OW11854   5.555   0.924   2.795  0.3636 -0.3507 -0.1546
 3652SOL    HW111855   5.599   0.982   2.727  1.0439  0.5614  1.0081
 3652SOL    HW211856   5.626   0.875   2.847 -0.0814 -0.3662  0.4549
 3653SOL     OW11857   2.263   1.157   3.890  1.0518 -0.1956  0.7466
 3653SOL    HW111858   2.240   1.193   3.800  0.7303 -0.4044  0.7468
 3653SOL    HW211859   2.301   1.065   3.881  1.9497  0.1610  0.7390
 3654SOL     OW11860   5.572   4.771   0.904  0.3041  0.1752 -0.3150
 3654SOL    HW111861   5.529   4.794   0.816 -0.2724 -1.6846 -0.5644
 3654SOL    HW211862   5.622   4.851   0.938 -0.8414  1.4661 -1.4973
 3655SOL     OW11863   3.555   0.371   2.463  0.6266 -0.2935 -0.7049
 3655SOL    HW111864   3.501   0.354   2.545  0.0475 -0.9926 -1.2166
 3655SOL    HW211865   3.502   0.426   2.398  2.0850  2.7484  0.4829
 3656SOL     OW11866   6.735   5.049   1.312  0.0375 -0.1910 -0.7253
 3656SOL    HW111867   6.795   5.023   1.236  1.0265  0.2277 -0.1053
 3656SOL    HW211868   6.698   5.141   1.295 -0.4829 -0.4737 -1.1365
 3657SOL     OW11869   4.170   5.702   4.835  0.5276 -0.5246  0.4090
 3657SOL    HW111870   4.193   5.792   4.870  0.1172 -0.6502  1.0312
 3657SOL    HW211871   4.143   5.643   4.911  2.3382 -1.6624  0.2334
 3658SOL     OW11872   3.447   4.241   6.504 -0.5417 -0.2296 -0.3389
 3658SOL    HW111873   3.431   4.308   6.431 -0.9611  1.7720  1.5105
 3658SOL    HW211874   3.541   4.206   6.497 -0.2314  0.7281 -1.1954
 3659SOL     OW11875   2.162   2.311   5.753 -0.1036 -0.2921  0.2002
 3659SOL    HW111876   2.077   2.307   5.700 -0.8101  0.9695  1.1931
 3659SOL    HW211877   2.210   2.396   5.732  0.7574 -0.8251 -0.0686
 3660SOL     OW11878   6.359   5.623   4.646 -0.1099 -0.5405  0.3570
 3660SOL    HW111879   6.272   5.671   4.633 -0.0273 -0.1747  1.0473
 3660SOL    HW211880   6.425   5.655   4.578  0.2550  1.1386  1.4360
 3661SOL     OW11881   0.217   0.318   3.585 -0.0655  0.0929 -0.7163
 3661SOL    HW111882   0.256   0.255   3.652 -1.6299  1.0851  1.2417
 3661SOL    HW211883   0.290   0.375   3.546  0.8858 -0.5006  0.1503
 3662SOL     OW11884   2.925   0.923   5.249  0.0414 -0.5019 -0.2817
 3662SOL    HW111885   2.859   0.858   5.211 -3.0586  1.4679  1.2470
 3662SOL    HW211886   2.938   0.998   5.184 -0.8282  0.0616  0.1659
 3663SOL     OW11887   3.305   3.565   5.718  0.1445  0.0367 -0.0102
 3663SOL    HW111888   3.389   3.604   5.681  0.7206 -0.2024  1.0359
 3663SOL    HW211889   3.234   3.567   5.647  0.8020  0.9250 -0.6656
 3664SOL     OW11890   3.820   1.888   3.884 -0.8443  0.0441  0.3741
 3664SOL    HW111891   3.811   1.931   3.795  2.0316 -0.4227 -0.2516
 3664SOL    HW211892   3.879   1.944   3.942 -1.8346 -0.1844  1.6582
 3665SOL     OW11893   6.507   6.527   3.920 -0.0559 -0.4675 -0.4120
 3665SOL    HW111894   6.441   6.539   3.995  0.1010 -0.0095 -0.3436
 3665SOL    HW211895   6.501   6.433   3.885 -1.0288 -0.3124 -0.6793
 3666SOL     OW11896   1.300   3.661   3.972 -0.2064  0.6074  0.1949
 3666SOL    HW111897   1.220   3.616   4.012 -1.4398  1.1010 -1.5793
 3666SOL    HW211898   1.369   3.675   4.042 -0.9836 -1.3435  1.4457
 3667SOL     OW11899   0.344   0.973   2.035 -0.1320 -0.1554 -0.2463
 3667SOL    HW111900   0.314   0.916   1.959 -1.8373 -0.4026  0.5587
 3667SOL    HW211901   0.309   1.065   2.023  0.8507  0.2044 -0.4779
 3668SOL     OW11902   6.677   0.357   2.336 -0.1446  0.8384  0.6214
 3668SOL    HW111903   6.625   0.350   2.251  2.6477 -0.2722 -1.1329
 3668SOL    HW211904   6.738   0.436   2.331  0.7188  0.2269  1.1448
 3669SOL     OW11905   5.828   6.569   3.638 -0.0543 -0.0538  0.2925
 3669SOL    HW111906   5.910   6.575   3.695  0.1119  0.8612 -0.0197
 3669SOL    HW211907   5.748   6.555   3.696  0.3250 -1.0549  0.5918
 3670SOL     OW11908   2.821   5.175   0.560  0.3029  0.0434 -0.1739
 3670SOL    HW111909   2.879   5.256   0.560  0.8293 -0.3144  0.6210
 3670SOL    HW211910   2.879   5.093   0.562 -0.2229 -0.3541 -0.8601
 3671SOL     OW11911   6.912   0.893   4.622 -0.1095 -0.0075  0.7960
 3671SOL    HW111912   6.981   0.965   4.613 -0.9934  0.9802  1.4983
 3671SOL    HW211913   6.825   0.935   4.649 -1.0417 -1.1953 -0.2601
 3672SOL     OW11914   3.632   1.065   3.364  0.4538  0.0742 -0.5154
 3672SOL    HW111915   3.721   1.044   3.405 -0.1074 -0.9264  0.2464
 3672SOL    HW211916   3.615   1.163   3.369  0.4481  0.0071  1.6133
 3673SOL     OW11917   4.679   4.826   0.876  0.4785 -0.3149 -0.1697
 3673SOL    HW111918   4.771   4.791   0.858  0.1320 -1.3457  0.0026
 3673SOL    HW211919   4.681   4.883   0.958  1.1459  0.5039 -0.7277
 3674SOL     OW11920   0.385   6.810   6.495 -0.1023 -0.3607  0.1657
 3674SOL    HW111921   0.306   6.871   6.502  0.4271  0.1702  2.0913
 3674SOL    HW211922   0.357   6.724   6.453 -1.2866  0.4700 -0.8174
 3675SOL     OW11923   1.090   3.465   3.233  0.3993 -0.8648  0.0757
 3675SOL    HW111924   1.156   3.539   3.225 -0.2253 -0.3888 -0.8231
 3675SOL    HW211925   1.020   3.489   3.300 -1.6696  0.8824 -2.4944
 3676SOL     OW11926   5.551   1.929   3.445  0.5401 -0.2252 -0.0954
 3676SOL    HW111927   5.470   1.981   3.470 -1.5067 -1.2704 -3.7040
 3676SOL    HW211928   5.614   1.987   3.394  1.2912  0.1656  1.2425
 3677SOL     OW11929   3.545   6.307   5.602  0.3885  0.2679  0.3510
 3677SOL    HW111930   3.514   6.333   5.693 -1.7922 -0.8076 -0.0324
 3677SOL    HW211931   3.582   6.388   5.556  0.1485  1.1503  1.6373
 3678SOL     OW11932   0.897   0.789   3.811  0.1803  0.8483 -0.1348
 3678SOL    HW111933   0.850   0.703   3.832 -0.2213  1.3268  0.9728
 3678SOL    HW211934   0.903   0.845   3.893 -0.0501  2.1248 -0.9576
 3679SOL     OW11935   1.773   6.279   3.183 -0.4701  0.2507  0.3796
 3679SOL    HW111936   1.749   6.375   3.191 -1.1932  0.0282  1.0436
 3679SOL    HW211937   1.801   6.244   3.273 -1.3918 -0.4481  0.4158
 3680SOL     OW11938   4.326   2.674   5.306  0.2047 -0.3128  0.1722
 3680SOL    HW111939   4.302   2.660   5.402 -2.7339  1.6704 -0.1465
 3680SOL    HW211940   4.254   2.638   5.247 -0.6591  2.9702 -1.0224
 3681SOL     OW11941   1.118   2.024   0.170 -0.1460  0.5560  0.2682
 3681SOL    HW111942   1.119   1.933   0.127 -0.8048  0.6030  0.1409
 3681SOL    HW211943   1.061   2.086   0.115  0.9569  1.2758 -0.0960
 3682SOL     OW11944   5.235   3.824   6.989 -0.0812 -0.5506  0.1980
 3682SOL    HW111945   5.144   3.783   6.986  0.1502 -1.0406 -0.4978
 3682SOL    HW211946   5.300   3.763   6.943  0.1996  0.8095 -1.2922
 3683SOL     OW11947   6.014   6.024   2.963 -0.0805 -0.0757 -0.4049
 3683SOL    HW111948   6.006   5.939   3.016 -0.3183  0.6967  0.8532
 3683SOL    HW211949   5.946   6.090   2.996  1.8340  1.5518  0.5209
 3684SOL     OW11950   1.919   6.572   0.013 -0.0959  0.1943  0.7561
 3684SOL    HW111951   1.904   6.599  -0.082  1.7448 -0.6363  0.1749
 3684SOL    HW211952   1.857   6.497   0.036  1.9776 -2.3013 -1.1248
 3685SOL     OW11953   3.026   5.418   6.610 -0.1476 -0.1363  0.1742
 3685SOL    HW111954   3.027   5.454   6.517  1.6537  0.2997  0.3282
 3685SOL    HW211955   3.057   5.323   6.609  1.6084  0.4010  0.4870
 3686SOL     OW11956   5.777   5.129   2.750 -0.2811 -0.3884 -0.2164
 3686SOL    HW111957   5.742   5.127   2.844  0.9998 -0.4833  0.2729
 3686SOL    HW211958   5.765   5.038   2.709  0.4998 -0.7757  0.3799
 3687SOL     OW11959   3.704   1.256   5.616  0.0124  0.4290 -0.0814
 3687SOL    HW111960   3.723   1.158   5.610 -0.7950  0.3231 -1.2181
 3687SOL    HW211961   3.606   1.272   5.604  0.1110  1.3635  0.2987
 3688SOL     OW11962   6.314   3.446   2.078 -0.7493  0.4877  0.4601
 3688SOL    HW111963   6.229   3.498   2.075 -1.7910 -1.1360  0.5587
 3688SOL    HW211964   6.311   3.374   2.009  0.8021  0.7418  0.0830
 3689SOL     OW11965   3.132   3.282   5.852 -0.0055  0.1470  0.3210
 3689SOL    HW111966   3.175   3.336   5.924  0.9880  0.2103 -0.3037
 3689SOL    HW211967   3.175   3.302   5.765 -0.1726 -1.0411 -0.0548
 3690SOL     OW11968   4.043   5.304   6.392  0.2520  0.0709 -0.0330
 3690SOL    HW111969   3.961   5.292   6.448  1.0693  0.3320  1.2579
 3690SOL    HW211970   4.049   5.399   6.361  0.7713  0.4192  1.0627
 3691SOL     OW11971   1.365   1.655   1.125  0.4071  0.4523 -0.5298
 3691SOL    HW111972   1.354   1.751   1.099 -2.5195  0.4167  0.1768
 3691SOL    HW211973   1.354   1.646   1.224  1.2688 -0.5563 -0.5162
 3692SOL     OW11974   1.145   6.727   5.674  0.3120  0.1237  0.9063
 3692SOL    HW111975   1.067   6.726   5.612  1.4245 -1.4022 -0.5609
 3692SOL    HW211976   1.130   6.795   5.746 -1.1268  1.8318 -0.9114
 3693SOL     OW11977   2.683   2.393   2.630  0.3975  0.0216 -0.2693
 3693SOL    HW111978   2.678   2.359   2.536 -1.5918  0.7126 -0.4523
 3693SOL    HW211979   2.591   2.397   2.670  0.7879  2.7746  0.5899
 3694SOL     OW11980   3.514   5.880   3.031 -0.5317 -0.5581  0.5770
 3694SOL    HW111981   3.434   5.893   3.090 -0.4150 -2.8363  1.3186
 3694SOL    HW211982   3.486   5.887   2.935 -1.0250  1.5729  0.8252
 3695SOL     OW11983   6.516   2.192   1.691  0.3413  0.2912  0.2108
 3695SOL    HW111984   6.549   2.234   1.775 -2.6402  1.7212  0.7960
 3695SOL    HW211985   6.489   2.264   1.626 -0.3054 -0.7674 -0.7322
 3696SOL     OW11986   4.252   1.193   4.856 -0.2683 -0.1972  0.2325
 3696SOL    HW111987   4.299   1.144   4.782 -2.5998  1.8350 -2.8080
 3696SOL    HW211988   4.307   1.271   4.885 -0.1205  0.0603 -0.7091
 3697SOL     OW11989   0.267   6.079   2.579  0.2913 -0.3315  0.4228
 3697SOL    HW111990   0.249   6.167   2.625 -2.4746 -1.0941  0.9964
 3697SOL    HW211991   0.191   6.058   2.518  0.7033 -2.4960  0.5883
 3698SOL     OW11992   3.942   1.463   3.308  0.6104 -0.1742 -0.0369
 3698SOL    HW111993   3.878   1.493   3.237 -0.4910  0.1598  1.0595
 3698SOL    HW211994   3.966   1.540   3.366 -2.6713 -1.2360  3.1428
 3699SOL     OW11995   0.568   1.036   4.704  0.3296  0.6015 -0.1243
 3699SOL    HW111996   0.496   1.044   4.635 -0.0259  0.7570  0.2548
 3699SOL    HW211997   0.644   0.983   4.668 -0.1089  0.1712 -0.4267
 3700SOL     OW11998   1.724   5.016   3.248  0.7223  0.2763  0.2873
 3700SOL    HW111999   1.722   5.102   3.299  2.6094 -0.6513  2.1069
 3700SOL    HW212000   1.638   4.967   3.261 -0.0435  1.4877 -0.0745
 3701SOL     OW12001   0.353   4.104   5.069 -0.3518  0.3097 -0.0467
 3701SOL    HW112002   0.380   4.055   4.986 -1.7493 -0.7691  0.0976
 3701SOL    HW212003   0.395   4.195   5.069  0.5626 -0.0754 -1.3800
 3702SOL     OW12004   4.225   1.430   4.486 -0.0414 -0.4807  0.3137
 3702SOL    HW112005   4.204   1.344   4.439  0.9774 -0.1238 -0.8134
 3702SOL    HW212006   4.157   1.499   4.462 -1.0272 -1.0144  1.4393
 3703SOL     OW12007   1.679   6.897   6.463  0.1049  0.2945  0.0735
 3703SOL    HW112008   1.648   6.989   6.485 -0.9750  0.3992 -1.7284
 3703SOL    HW212009   1.628   6.862   6.384  2.3027 -0.8315 -0.9475
 3704SOL     OW12010   4.561   2.207   1.746 -0.1974 -0.7005 -0.3346
 3704SOL    HW112011   4.493   2.133   1.755 -0.4806 -0.4646 -0.5030
 3704SOL    HW212012   4.531   2.286   1.799 -0.3987 -0.3541 -0.9551
 3705SOL     OW12013   5.016   4.292   3.733 -0.4142  0.5707 -0.2977
 3705SOL    HW112014   4.926   4.330   3.754 -0.1250  0.7171  0.7082
 3705SOL    HW212015   5.084   4.365   3.735 -0.2822  0.4891 -1.2164
 3706SOL     OW12016   6.823   4.886   6.302  0.4545  0.0855  0.4903
 3706SOL    HW112017   6.787   4.886   6.395  0.1578 -1.3191  0.4017
 3706SOL    HW212018   6.751   4.914   6.238 -0.0961 -1.3061  0.4615
 3707SOL     OW12019   4.829   6.126   4.867  0.3551 -0.0171  0.9237
 3707SOL    HW112020   4.880   6.081   4.940  1.2259 -1.7619 -0.6782
 3707SOL    HW212021   4.742   6.079   4.852  0.8560 -0.6438 -0.1385
 3708SOL     OW12022   4.003   6.375   1.720 -0.5715 -0.1347 -0.2367
 3708SOL    HW112023   3.943   6.424   1.657 -0.1661  1.5519  0.6315
 3708SOL    HW212024   4.099   6.387   1.691 -0.3398  1.1012  0.9416
 3709SOL     OW12025   2.611   6.819   0.203  0.4074  0.5379 -0.2941
 3709SOL    HW112026   2.667   6.901   0.215  0.1313  0.6252  0.4564
 3709SOL    HW212027   2.514   6.842   0.215  0.1229  0.5165 -2.2181
 3710SOL     OW12028   6.666   4.906   5.642 -0.3240 -0.4838 -0.4731
 3710SOL    HW112029   6.623   4.975   5.583  0.6021  0.3673 -0.1807
 3710SOL    HW212030   6.726   4.848   5.586  0.7013  0.4422 -0.3759
 3711SOL     OW12031   2.026   4.318   6.564  0.7976  0.8248  0.3846
 3711SOL    HW112032   2.117   4.279   6.581  1.6127  2.2874 -0.4713
 3711SOL    HW212033   2.025   4.364   6.476 -0.9659  0.3511  0.1192
 3712SOL     OW12034   1.626   5.454   6.067 -0.1028  0.1476 -0.7608
 3712SOL    HW112035   1.590   5.418   6.153  1.1746  0.4235 -0.0906
 3712SOL    HW212036   1.670   5.542   6.083 -0.7420  0.7014 -1.8940
 3713SOL     OW12037   0.859   1.746   3.652 -0.0240  0.3893  0.3775
 3713SOL    HW112038   0.857   1.844   3.669 -0.4723  0.4902 -0.2117
 3713SOL    HW212039   0.915   1.726   3.571  0.7050  0.0809  0.9491
 3714SOL     OW12040   5.702   4.609   0.563 -0.1921 -0.8553 -0.9658
 3714SOL    HW112041   5.702   4.660   0.477 -0.7107  0.5739 -0.1535
 3714SOL    HW212042   5.627   4.543   0.563 -1.1646  0.2243 -1.0106
 3715SOL     OW12043   1.831   3.695   2.989 -0.0589  0.8593 -0.7736
 3715SOL    HW112044   1.743   3.724   2.952  1.0864  5.3231 -0.6687
 3715SOL    HW212045   1.902   3.705   2.918  0.9535  1.5837  0.3030
 3716SOL     OW12046   5.215   6.178   3.877  0.1533  0.2352  0.6393
 3716SOL    HW112047   5.255   6.091   3.848 -0.9760 -0.1705  0.2203
 3716SOL    HW212048   5.248   6.201   3.969  0.3037 -0.7433  0.8426
 3717SOL     OW12049   3.959   0.173   1.260 -0.0505 -0.4079  0.0904
 3717SOL    HW112050   3.961   0.220   1.172  0.8479  1.0346  0.8394
 3717SOL    HW212051   4.029   0.101   1.260  0.0916 -0.2765 -0.2991
 3718SOL     OW12052   1.414   0.347   6.503 -0.2685 -0.2078  0.6125
 3718SOL    HW112053   1.499   0.398   6.487 -0.3442 -0.4277 -0.6281
 3718SOL    HW212054   1.365   0.386   6.580  0.0518  1.1222  0.1647
 3719SOL     OW12055   4.243   3.256   6.541  0.0669  0.3818 -0.6395
 3719SOL    HW112056   4.210   3.350   6.546  0.9624  0.6402  1.2085
 3719SOL    HW212057   4.335   3.255   6.501  0.4204  0.4159  0.1521
 3720SOL     OW12058   6.957   2.227   1.880 -0.4416  0.7868  0.4205
 3720SOL    HW112059   7.035   2.287   1.900  0.5107  0.3572 -1.7743
 3720SOL    HW212060   6.936   2.173   1.962  1.3061  1.2087  1.2043
 3721SOL     OW12061   6.979   4.753   0.775 -0.0898  0.2906 -0.3778
 3721SOL    HW112062   6.992   4.655   0.793  0.9123  0.4189 -0.3253
 3721SOL    HW212063   7.055   4.786   0.719  1.1940  1.6760  2.0288
 3722SOL     OW12064   6.580   4.984   2.176  0.2859  0.4218 -0.3593
 3722SOL    HW112065   6.508   4.926   2.137 -0.2189 -0.5866  1.9073
 3722SOL    HW212066   6.658   4.986   2.114 -0.7040 -0.5483 -1.6979
 3723SOL     OW12067   4.322   4.373   0.744  0.5759  0.2778 -0.3380
 3723SOL    HW112068   4.270   4.380   0.829 -0.4286 -1.0480 -0.8054
 3723SOL    HW212069   4.270   4.412   0.669 -0.2143 -1.8082 -0.9617
 3724SOL     OW12070   6.689   3.968   5.239 -0.1255 -0.4878 -0.1096
 3724SOL    HW112071   6.771   3.976   5.184  0.8952 -0.4049  1.3514
 3724SOL    HW212072   6.704   4.012   5.328 -1.1296 -2.0051  0.8612
 3725SOL     OW12073   1.213   0.008   5.780 -0.1417  0.2816 -0.5099
 3725SOL    HW112074   1.292   0.028   5.721  1.1392 -0.7958  0.7462
 3725SOL    HW212075   1.197   0.087   5.840  0.2086  0.3916 -0.5531
 3726SOL     OW12076   5.377   3.999   6.818  0.3458  0.1671 -0.3934
 3726SOL    HW112077   5.341   3.953   6.899  1.2122  0.0025 -0.0912
 3726SOL    HW212078   5.374   4.098   6.831 -2.4600  0.2957 -1.4449
 3727SOL     OW12079   0.687   3.918   4.900 -0.4946  0.0874  0.5648
 3727SOL    HW112080   0.600   3.968   4.891 -0.5536 -0.3771 -2.2280
 3727SOL    HW212081   0.671   3.821   4.884  0.7344  0.2191 -1.9837
 3728SOL     OW12082   1.328   4.442   6.167 -0.0796 -0.5908  0.1076
 3728SOL    HW112083   1.329   4.540   6.184 -3.6702 -0.2635 -0.7460
 3728SOL    HW212084   1.361   4.423   6.075  0.1787 -0.1445  0.1060
 3729SOL     OW12085   6.394   2.750   3.748 -0.0401  0.1131  0.2236
 3729SOL    HW112086   6.464   2.810   3.709 -0.2177 -0.3639 -0.8444
 3729SOL    HW212087   6.364   2.787   3.836  1.4930  0.3805  0.6729
 3730SOL     OW12088   3.710   1.307   6.384 -0.1509  0.2479  0.7072
 3730SOL    HW112089   3.782   1.262   6.436  1.4597  0.8206 -0.8998
 3730SOL    HW212090   3.620   1.283   6.422  0.6804 -2.9327  0.9715
 3731SOL     OW12091   6.687   0.844   0.662 -0.0248  0.5422  0.3050
 3731SOL    HW112092   6.643   0.755   0.667  0.5651  0.2336  0.1994
 3731SOL    HW212093   6.675   0.893   0.748 -1.8946  1.1275 -0.2377
 3732SOL     OW12094   0.847   1.254   6.039  0.3000 -0.4683 -0.3754
 3732SOL    HW112095   0.759   1.275   5.995 -1.6203 -0.5096  3.1225
 3732SOL    HW212096   0.858   1.154   6.044  1.0248 -0.4667 -1.5835
 3733SOL     OW12097   2.037   3.453   3.352 -0.6587 -0.4164 -0.9581
 3733SOL    HW112098   1.965   3.503   3.305 -0.5603  0.4934 -0.1901
 3733SOL    HW212099   2.003   3.364   3.382 -1.9881  0.5806  0.7099
 3734SOL     OW12100   2.580   6.769   1.160 -0.3906  0.1738 -0.0275
 3734SOL    HW112101   2.628   6.846   1.119 -1.3817  1.7816  1.6455
 3734SOL    HW212102   2.642   6.720   1.221 -0.6129  1.9248  1.7218
 3735SOL     OW12103   2.983   1.279   2.717 -0.5329  0.5487  0.1081
 3735SOL    HW112104   3.078   1.249   2.708 -0.2480  0.9427  1.5429
 3735SOL    HW212105   2.938   1.273   2.628  0.2158 -1.6870 -0.1949
 3736SOL     OW12106   1.034   0.587   2.675  0.0488 -0.1193 -0.2827
 3736SOL    HW112107   0.948   0.536   2.684 -0.3548  0.2664 -1.7027
 3736SOL    HW212108   1.069   0.608   2.766 -0.1032 -2.3460  0.3532
 3737SOL     OW12109   6.545   1.877   4.689  0.4431 -0.2771  0.0281
 3737SOL    HW112110   6.571   1.826   4.770 -0.9905  1.7562  1.8890
 3737SOL    HW212111   6.606   1.956   4.677 -0.3009  0.3182  0.0742
 3738SOL     OW12112   6.133   1.192   0.140 -0.6029 -0.2522  0.1946
 3738SOL    HW112113   6.104   1.102   0.173  0.0912 -1.2117 -1.6723
 3738SOL    HW212114   6.190   1.236   0.209 -1.3268 -1.0310  1.3243
 3739SOL     OW12115   0.553   6.905   2.571  0.9784 -0.3719  0.4282
 3739SOL    HW112116   0.640   6.952   2.587  1.8380 -1.9071  0.4571
 3739SOL    HW212117   0.478   6.969   2.584  2.0881  0.9353  0.6387
 3740SOL     OW12118   6.248   5.427   0.514 -0.3440  0.0023  0.5455
 3740SOL    HW112119   6.312   5.361   0.552 -1.0052 -0.3808  1.0079
 3740SOL    HW212120   6.296   5.487   0.449  0.2357 -1.0032  0.0239
 3741SOL     OW12121   5.503   2.176   0.342 -0.5696  0.1073 -0.3428
 3741SOL    HW112122   5.591   2.222   0.353 -1.2558  1.4766 -0.2805
 3741SOL    HW212123   5.433   2.244   0.321 -1.3769 -1.1183 -1.7974
 3742SOL     OW12124   5.133   5.577   5.667 -0.0717  0.2803 -0.0307
 3742SOL    HW112125   5.045   5.578   5.715 -0.2277 -2.1896 -0.1254
 3742SOL    HW212126   5.125   5.626   5.580 -0.4938  2.5932  1.2460
 3743SOL     OW12127   6.115   3.797   6.803 -0.2471 -0.1562  0.1589
 3743SOL    HW112128   6.056   3.861   6.852  0.0505 -1.3566  2.1708
 3743SOL    HW212129   6.063   3.714   6.781  0.2452 -0.5585  0.5018
 3744SOL     OW12130   1.172   5.451   2.296 -0.1085 -0.9718  0.6038
 3744SOL    HW112131   1.112   5.371   2.290  0.6896 -1.5227 -0.2947
 3744SOL    HW212132   1.157   5.497   2.384 -0.0569 -2.5356  1.4791
 3745SOL     OW12133   5.416   3.591   3.013  0.4201 -0.4350 -0.1551
 3745SOL    HW112134   5.481   3.645   3.066 -0.6590  1.3182 -0.5081
 3745SOL    HW212135   5.374   3.650   2.943 -1.0346 -1.6647 -0.3673
 3746SOL     OW12136   3.804   1.407   4.635 -0.4007  0.4940 -0.0553
 3746SOL    HW112137   3.751   1.379   4.715 -1.0640  0.0454 -0.6449
 3746SOL    HW212138   3.896   1.370   4.641 -1.2762 -1.9651 -0.8746
 3747SOL     OW12139   5.065   6.514   6.797  0.3349  0.6047  0.2045
 3747SOL    HW112140   5.005   6.580   6.843 -1.4687 -0.5314 -0.4119
 3747SOL    HW212141   5.061   6.426   6.845  0.7742  0.2484 -0.4014
 3748SOL     OW12142   4.640   0.470   3.160  0.3596  0.1731  0.4085
 3748SOL    HW112143   4.648   0.447   3.257 -0.7794  0.7301  0.6599
 3748SOL    HW212144   4.624   0.568   3.151 -1.3827 -0.1296 -0.1956
 3749SOL     OW12145   2.198   3.963   3.773  0.1964 -0.0322 -0.5503
 3749SOL    HW112146   2.231   3.992   3.683  0.9813 -0.2904 -0.3549
 3749SOL    HW212147   2.169   3.868   3.769 -0.6671  0.2300 -0.7520
 3750SOL     OW12148   0.199   5.751   6.898 -0.0422  0.0962  0.4590
 3750SOL    HW112149   0.268   5.773   6.829 -1.4020 -1.2419 -1.4452
 3750SOL    HW212150   0.157   5.835   6.933 -0.7426  0.7907 -1.9019
 3751SOL     OW12151   0.439   4.521   0.385  0.0568  0.0045 -0.7122
 3751SOL    HW112152   0.487   4.606   0.364  0.4356 -0.2857 -1.0229
 3751SOL    HW212153   0.498   4.462   0.441  0.3893 -0.6999 -1.7788
 3752SOL     OW12154   1.837   0.333   1.682 -0.4437 -0.0923  0.5610
 3752SOL    HW112155   1.902   0.265   1.648 -2.0244 -1.8560  0.9114
 3752SOL    HW212156   1.788   0.296   1.761 -1.7306  1.2413  0.4369
 3753SOL     OW12157   6.772   0.538   3.530 -0.8486 -0.2730 -0.0918
 3753SOL    HW112158   6.715   0.458   3.514 -2.3338  0.6768  0.2383
 3753SOL    HW212159   6.850   0.513   3.587 -1.2886 -1.4687  0.0064
 3754SOL     OW12160   2.770   6.069   0.590  0.4709  0.2868  0.0596
 3754SOL    HW112161   2.752   6.165   0.569  0.5863  0.3441  0.2210
 3754SOL    HW212162   2.845   6.036   0.532  1.6251  0.7861  1.1994
 3755SOL     OW12163   6.219   5.772   2.863 -0.2853  0.1190 -0.1930
 3755SOL    HW112164   6.192   5.852   2.810  0.3826 -0.0052 -0.7383
 3755SOL    HW212165   6.137   5.724   2.896 -0.7062  0.3797 -0.8465
 3756SOL     OW12166   0.731   4.962   5.320  0.0370  0.4139  0.3090
 3756SOL    HW112167   0.715   4.950   5.222 -0.4771 -0.0695  0.4491
 3756SOL    HW212168   0.794   4.891   5.353  0.0998  0.4917  0.3579
 3757SOL     OW12169   3.233   6.410   6.145 -0.1969  0.0466 -0.1553
 3757SOL    HW112170   3.324   6.451   6.136 -0.6340  0.6042 -3.1107
 3757SOL    HW212171   3.227   6.330   6.086 -1.0297 -1.2661  1.6149
 3758SOL     OW12172   2.009   0.428   4.557  0.0272  0.2976  0.2997
 3758SOL    HW112173   1.936   0.388   4.612 -0.4194 -0.2054 -0.6491
 3758SOL    HW212174   2.070   0.480   4.617 -1.5680  1.4542  0.9915
 3759SOL     OW12175   6.091   4.203   0.565 -0.2656 -0.1833  0.0441
 3759SOL    HW112176   6.119   4.263   0.640 -0.3206 -1.9823  1.5844
 3759SOL    HW212177   6.017   4.247   0.514  0.1214  1.3094  0.6940
 3760SOL     OW12178   1.929   2.315   3.323  0.3088  0.1976 -0.5991
 3760SOL    HW112179   1.987   2.381   3.275  0.9666  0.7601  0.9034
 3760SOL    HW212180   1.959   2.308   3.418  0.9873 -3.1239 -0.9527
 3761SOL     OW12181   1.835   0.729   6.028 -0.8512 -0.1119 -0.5292
 3761SOL    HW112182   1.866   0.685   5.944  1.3165 -0.1850  0.2428
 3761SOL    HW212183   1.836   0.828   6.017  1.3877 -0.0278 -0.0362
 3762SOL     OW12184   0.640   4.355   0.828 -0.1829  0.7713 -0.1967
 3762SOL    HW112185   0.558   4.400   0.862 -0.3020  0.2227  0.2592
 3762SOL    HW212186   0.665   4.280   0.889 -0.2352 -0.0602 -1.1742
 3763SOL     OW12187   0.893   3.938   0.586  0.0254 -0.1047  0.1789
 3763SOL    HW112188   0.888   3.905   0.680  1.7578 -2.1327 -0.3497
 3763SOL    HW212189   0.803   3.971   0.557 -0.7943 -0.4379  2.1877
 3764SOL     OW12190   1.550   1.868   3.227 -0.1040  0.2037 -0.2464
 3764SOL    HW112191   1.457   1.870   3.263 -0.2046 -1.0197 -0.3992
 3764SOL    HW212192   1.556   1.925   3.145 -0.6303  0.5467 -0.0474
 3765SOL     OW12193   5.609   1.366   1.114 -0.2221 -0.2608  0.6535
 3765SOL    HW112194   5.650   1.348   1.025  0.9071 -1.4551  1.3794
 3765SOL    HW212195   5.601   1.281   1.165 -0.5574  0.4390  1.8146
 3766SOL     OW12196   1.868   6.982   5.337  0.2369 -0.0993 -0.2465
 3766SOL    HW112197   1.895   6.886   5.347  1.0235  0.0392 -0.8728
 3766SOL    HW212198   1.947   7.041   5.357 -0.9466  0.5869  3.0733
 3767SOL     OW12199   2.794   4.305   6.490  0.0161 -0.5471  0.0631
 3767SOL    HW112200   2.698   4.276   6.494 -0.3528  0.0775 -2.3854
 3767SOL    HW212201   2.801   4.401   6.516 -0.2916 -0.1708 -1.1717
 3768SOL     OW12202   0.722   3.474   3.484  0.3450  0.2524  0.3975
 3768SOL    HW112203   0.731   3.574   3.485  2.3043  0.1117  1.2274
 3768SOL    HW212204   0.659   3.446   3.558 -1.1368  0.8962 -0.5715
 3769SOL     OW12205   4.744   6.408   5.634  0.7805  0.3022 -0.1742
 3769SOL    HW112206   4.825   6.429   5.689  0.9462 -0.4378 -0.1263
 3769SOL    HW212207   4.671   6.376   5.694  1.1985 -1.2176 -0.4324
 3770SOL     OW12208   0.828   6.726   6.063 -0.1580  0.1992 -0.0893
 3770SOL    HW112209   0.793   6.696   6.152 -0.3094  0.9441  0.1122
 3770SOL    HW212210   0.880   6.652   6.020  2.3426  0.6964  1.8748
 3771SOL     OW12211   5.872   4.123   6.407 -0.1295  0.8714  0.1773
 3771SOL    HW112212   5.792   4.129   6.466  0.3072  0.4372  0.8130
 3771SOL    HW212213   5.846   4.083   6.319 -0.6897  1.1172  0.2307
 3772SOL     OW12214   6.244   0.558   6.540  0.0192  0.1676  0.7847
 3772SOL    HW112215   6.268   0.546   6.636 -0.2975 -1.9291  0.6615
 3772SOL    HW212216   6.148   0.534   6.526 -0.3761  1.9463  0.1643
 3773SOL     OW12217   4.772   2.562   0.249 -0.0464  0.1084 -0.3193
 3773SOL    HW112218   4.818   2.550   0.337 -1.0490 -0.7853  0.1024
 3773SOL    HW212219   4.744   2.658   0.239 -0.5460  0.0669  0.6502
 3774SOL     OW12220   0.034   5.530   6.814 -0.4030 -0.3397 -0.2055
 3774SOL    HW112221   0.035   5.530   6.714 -0.9061  0.4184 -0.2208
 3774SOL    HW212222   0.096   5.601   6.847 -0.6185 -0.2507  0.0087
 3775SOL     OW12223   5.681   5.627   1.575 -0.4121  0.3653 -0.3496
 3775SOL    HW112224   5.654   5.542   1.621 -1.4801  1.6177  1.4677
 3775SOL    HW212225   5.606   5.658   1.515  0.3271 -0.3889 -1.7222
 3776SOL     OW12226   2.724   1.069   0.091  0.1502  0.1382 -0.1537
 3776SOL    HW112227   2.632   1.108   0.084 -0.2527 -0.6751  0.4177
 3776SOL    HW212228   2.750   1.061   0.187  0.2771 -0.8309 -0.2502
 3777SOL     OW12229   2.774   5.126   5.697 -0.2737  0.2654  0.1988
 3777SOL    HW112230   2.812   5.034   5.704 -0.6685  0.1465  0.8579
 3777SOL    HW212231   2.717   5.145   5.777 -0.9147  0.7491 -0.3568
 3778SOL     OW12232   2.747   4.857   2.242  0.6309  0.0661  0.0367
 3778SOL    HW112233   2.838   4.836   2.279  2.0437  0.2009 -3.0273
 3778SOL    HW212234   2.713   4.779   2.191  0.3378  0.9650 -1.1850
 3779SOL     OW12235   2.651   4.366   0.351  0.7275  0.4212 -0.0547
 3779SOL    HW112236   2.636   4.273   0.318  1.1634  0.5317 -0.5741
 3779SOL    HW212237   2.595   4.430   0.299 -0.0229  0.4002  0.6931
 3780SOL     OW12238   4.814   5.338   5.544 -0.2454  0.0971  0.1007
 3780SOL    HW112239   4.852   5.257   5.500  0.9475  0.5758  0.2027
 3780SOL    HW212240   4.810   5.322   5.643 -1.1574 -0.2761  0.0140
 3781SOL     OW12241   1.677   4.740   5.911 -0.4062 -0.5379 -0.0810
 3781SOL    HW112242   1.754   4.692   5.953 -0.0880  0.4412  0.5039
 3781SOL    HW212243   1.692   4.746   5.812 -0.0497 -0.9161 -0.0540
 3782SOL     OW12244   2.680   1.763   5.071  0.0705  0.0465  0.5471
 3782SOL    HW112245   2.621   1.766   4.990 -2.1582  3.6505  2.0629
 3782SOL    HW212246   2.638   1.702   5.139  0.2394 -0.4713  0.1964
 3783SOL     OW12247   4.785   0.552   4.192 -0.0247 -0.3241 -0.5172
 3783SOL    HW112248   4.859   0.603   4.148 -0.6352  2.5589  1.4806
 3783SOL    HW212249   4.697   0.582   4.155 -0.3502 -1.7024 -0.9324
 3784SOL     OW12250   6.991   3.216   2.863  0.0265  0.4757 -0.0460
 3784SOL    HW112251   7.031   3.189   2.776 -2.1233 -2.1664 -0.3528
 3784SOL    HW212252   7.039   3.170   2.938 -0.3199 -0.0862 -0.1583
 3785SOL     OW12253   0.816   0.705   6.497 -1.2259 -0.1912  0.2559
 3785SOL    HW112254   0.862   0.793   6.486  0.7538 -1.3123 -0.9523
 3785SOL    HW212255   0.722   0.713   6.464 -0.3436  0.8697 -2.2339
 3786SOL     OW12256   2.320   5.444   2.209 -0.4774  0.3590  0.4319
 3786SOL    HW112257   2.266   5.521   2.175 -0.3416  0.4478  0.4165
 3786SOL    HW212258   2.414   5.452   2.177 -0.4071  0.3120  0.6251
 3787SOL     OW12259   5.603   6.894   3.206 -0.3557 -0.5820 -0.3465
 3787SOL    HW112260   5.647   6.960   3.268 -0.8179 -1.0881  0.5370
 3787SOL    HW212261   5.548   6.944   3.139 -0.7342 -0.0635  0.3354
 3788SOL     OW12262   6.827   3.786   4.121  0.3976  0.2875  0.6807
 3788SOL    HW112263   6.849   3.820   4.029  0.6079  0.5790  0.8362
 3788SOL    HW212264   6.899   3.723   4.151  0.2270  0.0396  0.5652
 3789SOL     OW12265   0.472   4.464   5.948  0.0981  0.1346 -0.3829
 3789SOL    HW112266   0.516   4.497   5.864  1.9403  0.4420  0.6509
 3789SOL    HW212267   0.435   4.542   5.999  1.0074  0.2154  0.1753
 3790SOL     OW12268   1.147   3.919   5.336 -0.4846 -0.0331 -0.1935
 3790SOL    HW112269   1.218   3.852   5.315 -0.4297  0.7726 -2.8686
 3790SOL    HW212270   1.058   3.874   5.336 -0.1993 -0.6540  1.1532
 3791SOL     OW12271   0.194   0.482   0.155 -0.0458 -0.7347  0.1973
 3791SOL    HW112272   0.247   0.530   0.224 -1.3591  0.5848  0.3382
 3791SOL    HW212273   0.237   0.495   0.065  1.0265 -1.4918  0.5816
 3792SOL     OW12274   6.224   2.232   5.623 -0.4857 -0.3533 -0.2014
 3792SOL    HW112275   6.259   2.326   5.634 -1.1299 -0.1050 -0.2278
 3792SOL    HW212276   6.125   2.235   5.612 -0.7836 -1.1733  1.8169
 3793SOL     OW12277   3.808   0.248   2.916 -0.1560 -0.1128 -0.0783
 3793SOL    HW112278   3.769   0.322   2.969  1.7329  2.2891 -1.8014
 3793SOL    HW212279   3.748   0.226   2.839 -0.6182 -0.2188  0.3116
 3794SOL     OW12280   1.978   4.969   6.179  0.5023  0.5088  0.1408
 3794SOL    HW112281   1.894   4.998   6.133  0.8238  1.1085 -0.0829
 3794SOL    HW212282   2.011   4.884   6.140  0.0792  0.3454  0.1320
 3795SOL     OW12283   1.605   5.386   6.498 -0.0697 -0.1081  0.0710
 3795SOL    HW112284   1.547   5.382   6.417  0.6597  0.4230 -0.4927
 3795SOL    HW212285   1.701   5.383   6.470  0.2482  2.2901  0.7440
 3796SOL     OW12286   2.096   5.984   0.126  0.0609 -0.1636  0.1101
 3796SOL    HW112287   2.171   5.975   0.192 -0.1132 -0.1190  0.3177
 3796SOL    HW212288   2.067   6.080   0.122 -0.0763 -0.2040  0.1337
 3797SOL     OW12289   4.343   4.612   3.034 -0.2140 -0.0299 -0.6006
 3797SOL    HW112290   4.266   4.584   2.978 -0.6121 -0.2931  0.0628
 3797SOL    HW212291   4.409   4.537   3.041 -0.2866 -0.0855 -0.5124
 3798SOL     OW12292   4.144   7.022   1.208 -0.4882 -0.4980  0.2023
 3798SOL    HW112293   4.165   7.081   1.130 -0.8932 -1.6632 -0.8414
 3798SOL    HW212294   4.155   6.926   1.180 -0.4848 -0.9321  1.6409
 3799SOL     OW12295   1.727   2.573   4.321  0.3313 -0.1751  0.1226
 3799SOL    HW112296   1.731   2.516   4.403 -1.2870 -0.4307  0.0623
 3799SOL    HW212297   1.645   2.631   4.325  0.6907  0.4319 -0.9187
 3800SOL     OW12298   5.542   2.827   4.757  0.3392  0.0277  0.5526
 3800SOL    HW112299   5.484   2.803   4.679 -0.4263 -0.2179  1.1895
 3800SOL    HW212300   5.567   2.744   4.806 -0.5330  0.3251  1.5169
 3801SOL     OW12301   6.785   5.845   3.165  0.3387 -0.2773  0.4179
 3801SOL    HW112302   6.747   5.768   3.215  0.6760 -0.3499  0.5591
 3801SOL    HW212303   6.784   5.825   3.067  1.0780 -0.7464  0.5042
 3802SOL     OW12304   5.331   2.884   4.177 -0.1485 -0.4553  0.3407
 3802SOL    HW112305   5.266   2.891   4.253 -0.8202  0.1994 -0.2772
 3802SOL    HW212306   5.405   2.949   4.191 -0.6202  0.1450  0.1192
 3803SOL     OW12307   3.030   0.842   0.416 -0.6200 -0.5048 -0.0151
 3803SOL    HW112308   2.985   0.780   0.352  2.2880 -1.5780 -1.1497
 3803SOL    HW212309   3.046   0.930   0.372 -1.2896 -0.2210  0.2916
 3804SOL     OW12310   5.819   0.468   3.018 -0.4155 -0.2197 -0.1261
 3804SOL    HW112311   5.774   0.405   3.081 -0.6874  0.0981  0.0012
 3804SOL    HW212312   5.759   0.546   3.001  0.2886  0.4611  0.4381
 3805SOL     OW12313   3.270   3.062   2.089  0.3380  0.1657  0.3931
 3805SOL    HW112314   3.193   3.124   2.106 -0.3415 -0.9488  1.5247
 3805SOL    HW212315   3.240   2.989   2.028  0.9064  0.4739 -0.2680
 3806SOL     OW12316   1.599   1.545   6.047 -0.1830  1.1255  0.0496
 3806SOL    HW112317   1.540   1.564   6.126  1.9487  0.5503  1.8758
 3806SOL    HW212318   1.629   1.631   6.007 -1.3900  1.4258 -0.2382
 3807SOL     OW12319   2.442   6.603   4.196 -0.2700  0.0070  0.2969
 3807SOL    HW112320   2.440   6.698   4.227 -0.5448  0.0883  0.0256
 3807SOL    HW212321   2.535   6.580   4.165  0.0558 -0.1249  1.3264
 3808SOL     OW12322   3.998   1.386   7.007 -0.1647 -0.2800 -0.2337
 3808SOL    HW112323   3.923   1.416   6.948 -0.6410  0.9745  0.9534
 3808SOL    HW212324   4.076   1.358   6.951 -0.3152  1.6342 -1.4657
 3809SOL     OW12325   6.986   5.097   6.447 -0.4055 -0.2341 -0.5080
 3809SOL    HW112326   7.021   5.068   6.536  2.5023 -0.5478 -1.6462
 3809SOL    HW212327   6.997   5.196   6.437  2.8019 -0.6189 -1.8101
 3810SOL     OW12328   4.631   2.294   4.865 -0.0393 -0.2435 -0.1254
 3810SOL    HW112329   4.639   2.352   4.946  1.8214 -1.5871  0.7259
 3810SOL    HW212330   4.535   2.272   4.850 -0.4625  0.2374  1.5811
 3811SOL     OW12331   1.299   3.908   4.550  0.2822 -0.0912  0.0674
 3811SOL    HW112332   1.267   3.820   4.585 -0.4074 -0.6015 -1.7310
 3811SOL    HW212333   1.398   3.904   4.533 -0.2102 -1.7320 -3.1146
 3812SOL     OW12334   4.315   6.900   5.087  0.0453  0.0050  0.1291
 3812SOL    HW112335   4.288   6.996   5.097 -0.6424 -0.2816  1.1205
 3812SOL    HW212336   4.364   6.870   5.168  0.4397 -0.4320 -0.2645
 3813SOL     OW12337   3.262   2.696   0.743 -0.1689 -0.7304 -0.1862
 3813SOL    HW112338   3.315   2.764   0.692 -0.2023 -2.0808 -2.1385
 3813SOL    HW212339   3.306   2.678   0.831  0.5273  0.8630 -0.1746
 3814SOL     OW12340   1.337   0.913   1.952 -0.2081 -0.1428 -0.1102
 3814SOL    HW112341   1.290   0.842   2.005 -2.1223  0.5639 -0.8040
 3814SOL    HW212342   1.353   0.993   2.010 -2.8870  0.8857 -0.6474
 3815SOL     OW12343   5.476   0.401   3.195 -0.1297  1.0102  0.1257
 3815SOL    HW112344   5.418   0.331   3.237 -0.7824  1.2726 -0.3298
 3815SOL    HW212345   5.426   0.446   3.121  0.6287  1.2952 -0.2251
 3816SOL     OW12346   1.042   6.031   5.015  0.0039 -0.1741 -0.1842
 3816SOL    HW112347   1.052   6.100   4.943 -0.6901  1.1860  0.9550
 3816SOL    HW212348   1.130   6.015   5.059  0.3424 -0.6858 -1.0263
 3817SOL     OW12349   4.830   4.980   1.500  0.1406 -0.4336  0.2625
 3817SOL    HW112350   4.915   5.031   1.485 -0.6552  0.1624 -2.9707
 3817SOL    HW212351   4.849   4.901   1.559  3.0898 -0.6634 -0.8133
 3818SOL     OW12352   4.832   6.606   6.414  0.1796  0.1855  0.0090
 3818SOL    HW112353   4.743   6.570   6.386 -0.6209  2.1038 -0.0657
 3818SOL    HW212354   4.878   6.646   6.334  0.5619  0.3168  0.2911
 3819SOL     OW12355   0.423   5.152   1.953 -0.0229 -0.7714  0.2895
 3819SOL    HW112356   0.432   5.056   1.980  0.3173 -0.7358  0.3112
 3819SOL    HW212357   0.357   5.160   1.878 -0.0184 -1.0287  0.2580
 3820SOL     OW12358   0.953   0.074   3.367  0.0321  0.1807  0.6858
 3820SOL    HW112359   0.886  -0.000   3.364  0.1856  0.0076  1.4337
 3820SOL    HW212360   0.993   0.080   3.458 -0.8652  1.9595  1.0219
 3821SOL     OW12361   1.044   2.871   0.435 -1.1019  0.3288  0.6954
 3821SOL    HW112362   0.975   2.928   0.390  0.7612  1.4643 -0.8959
 3821SOL    HW212363   1.034   2.776   0.405  0.1812  1.0734 -2.4016
 3822SOL     OW12364   1.958   2.263   4.646 -0.1518  0.1058  0.0948
 3822SOL    HW112365   2.005   2.269   4.558  1.7156 -0.9639  0.9555
 3822SOL    HW212366   1.911   2.174   4.653  0.0334  0.0278  0.3387
 3823SOL     OW12367   4.090   1.521   6.198 -0.0754 -0.2817 -0.3417
 3823SOL    HW112368   4.094   1.620   6.216  0.2270 -0.2399 -0.6368
 3823SOL    HW212369   4.004   1.485   6.235 -0.2788  0.1276 -0.3966
 3824SOL     OW12370   4.694   1.532   0.023 -0.2173  0.6710 -0.0148
 3824SOL    HW112371   4.764   1.467  -0.004 -1.2524 -0.6163  0.2909
 3824SOL    HW212372   4.697   1.612  -0.037 -0.3211 -0.6238 -1.8329
 3825SOL     OW12373   0.592   5.289   0.589  0.0319 -0.8104 -0.5007
 3825SOL    HW112374   0.544   5.264   0.504 -0.4517 -1.1486 -0.1339
 3825SOL    HW212375   0.638   5.377   0.576 -0.6718 -0.4837 -0.8765
 3826SOL     OW12376   6.588   3.794   1.201  0.1978  0.6330  0.1183
 3826SOL    HW112377   6.668   3.788   1.142 -0.4928  1.5850 -0.9822
 3826SOL    HW212378   6.609   3.852   1.280  0.7501  0.4237  0.1293
 3827SOL     OW12379   3.025   3.081   1.783 -0.6590 -0.2269  0.4475
 3827SOL    HW112380   2.953   3.143   1.752 -0.1840 -0.2829 -0.7960
 3827SOL    HW212381   3.096   3.133   1.830 -0.3702  0.1368 -0.3941
 3828SOL     OW12382   5.257   1.061   2.540  0.0225 -0.1705 -0.4749
 3828SOL    HW112383   5.355   1.061   2.520 -0.2917  0.4703 -2.1339
 3828SOL    HW212384   5.222   0.967   2.532  0.2924 -0.2296 -1.0166
 3829SOL     OW12385   3.787   5.607   3.324 -0.0590  0.0463  0.9410
 3829SOL    HW112386   3.773   5.698   3.363  1.0617  0.8292 -0.3672
 3829SOL    HW212387   3.716   5.588   3.256  1.0857  1.0477 -0.6041
 3830SOL     OW12388   0.377   6.304   5.755  0.3899  0.4494 -0.1323
 3830SOL    HW112389   0.346   6.209   5.754 -0.6392  0.7629 -2.5748
 3830SOL    HW212390   0.469   6.308   5.796  1.2187 -1.8565 -1.5836
 3831SOL     OW12391   5.469   2.438   2.791 -0.3483 -0.3883 -0.0538
 3831SOL    HW112392   5.369   2.430   2.793 -0.3980  0.2623  0.3462
 3831SOL    HW212393   5.504   2.404   2.704 -0.9259 -0.5425 -0.2284
 3832SOL     OW12394   6.616   1.585   1.649  0.5129  0.0384 -0.6581
 3832SOL    HW112395   6.690   1.548   1.591  1.4618  2.3383 -1.0280
 3832SOL    HW212396   6.553   1.638   1.592  0.2137  0.5051  0.1025
 3833SOL     OW12397   2.859   5.988   6.018  0.3645  0.2463 -0.0863
 3833SOL    HW112398   2.761   5.991   5.998  0.2359  0.6979  0.5385
 3833SOL    HW212399   2.886   6.074   6.063  0.4916 -0.8671  2.1329
 3834SOL     OW12400   3.746   2.487   0.109  0.4652  0.0317  0.0597
 3834SOL    HW112401   3.670   2.479   0.045  0.2066  0.8308  0.2564
 3834SOL    HW212402   3.832   2.475   0.060  0.2438 -0.1225 -0.2974
 3835SOL     OW12403   3.295   4.946   3.635  0.1178  0.3724  0.3601
 3835SOL    HW112404   3.375   4.929   3.693  0.3433 -0.6607 -0.2406
 3835SOL    HW212405   3.222   4.986   3.691  1.1619  1.6806  0.8402
 3836SOL     OW12406   1.308   4.085   5.190 -0.3388  0.1958  0.4468
 3836SOL    HW112407   1.231   4.024   5.206 -1.2011  1.4938  1.4464
 3836SOL    HW212408   1.305   4.161   5.256  1.6797  0.3876  0.3813
 3837SOL     OW12409   4.059   4.157   6.880 -0.2999  0.4782  0.3087
 3837SOL    HW112410   3.992   4.083   6.891  0.2480 -0.1247 -0.3288
 3837SOL    HW212411   4.101   4.150   6.789  2.9369 -1.1185  1.7723
 3838SOL     OW12412   5.426   5.823   5.075  0.3633 -0.6331  0.1696
 3838SOL    HW112413   5.404   5.893   5.007 -0.3174 -0.8516  0.1532
 3838SOL    HW212414   5.359   5.826   5.149  1.1890 -0.2903  0.9321
 3839SOL     OW12415   3.752   0.576   3.705 -0.6267 -0.0259 -0.3383
 3839SOL    HW112416   3.690   0.583   3.783 -3.0544 -0.0817 -2.1428
 3839SOL    HW212417   3.729   0.495   3.651  1.4291 -0.3658 -0.8092
 3840SOL     OW12418   2.093   0.984   3.607 -0.3946  0.2793  0.6924
 3840SOL    HW112419   2.142   1.072   3.606  1.2347 -0.5673 -0.9842
 3840SOL    HW212420   2.076   0.956   3.701  1.9888  0.8623  1.3712
 3841SOL     OW12421   0.931   3.745   0.316  0.5186 -0.0745 -0.0036
 3841SOL    HW112422   0.927   3.756   0.415 -0.0460  1.4361 -0.1692
 3841SOL    HW212423   0.930   3.647   0.293 -2.1599 -0.4623  1.3727
 3842SOL     OW12424   0.498   6.826   6.251  0.0430 -0.0825  0.1449
 3842SOL    HW112425   0.484   6.832   6.350  0.7589  1.5600  0.1762
 3842SOL    HW212426   0.570   6.890   6.223 -0.6821  0.0516 -1.5416
 3843SOL     OW12427   6.860   6.643   3.198  0.5027 -0.3630  0.4162
 3843SOL    HW112428   6.908   6.729   3.183  2.8361 -1.7173 -0.5195
 3843SOL    HW212429   6.889   6.604   3.286  0.3192 -0.7214  0.3196
 3844SOL     OW12430   5.429   5.358   4.688 -0.3022  0.0287  0.0774
 3844SOL    HW112431   5.472   5.378   4.776  1.9197  1.3233 -1.2181
 3844SOL    HW212432   5.370   5.434   4.662 -0.6721 -0.1917  0.2587
 3845SOL     OW12433   3.806   3.717   3.876 -0.3192 -0.0183 -0.0458
 3845SOL    HW112434   3.857   3.760   3.951  0.2041  0.3700 -0.6105
 3845SOL    HW212435   3.846   3.628   3.855 -0.3072 -0.0150 -0.0369
 3846SOL     OW12436   5.608   3.803   3.153 -0.4740  0.0316  0.3928
 3846SOL    HW112437   5.610   3.903   3.145 -2.5515  0.0494 -0.4429
 3846SOL    HW212438   5.691   3.765   3.112  0.4209  1.3966  0.8495
 3847SOL     OW12439   5.752   2.284   0.407 -0.0925 -0.0596  0.5164
 3847SOL    HW112440   5.852   2.283   0.398 -0.2165  1.1332 -1.6228
 3847SOL    HW212441   5.728   2.290   0.504  1.8729 -1.1412  1.1324
 3848SOL     OW12442   1.264   6.178   1.200  0.2898  0.2495 -0.0702
 3848SOL    HW112443   1.323   6.257   1.214  0.5036  0.0320  0.2757
 3848SOL    HW212444   1.191   6.178   1.269 -2.0944  2.2861 -2.3550
 3849SOL     OW12445   2.096   0.266   0.366 -0.5981  0.3471 -0.5532
 3849SOL    HW112446   2.008   0.218   0.364  1.5125 -3.9812 -1.4410
 3849SOL    HW212447   2.131   0.276   0.273  1.0926 -0.8206 -0.1023
 3850SOL     OW12448   1.837   2.621   6.173 -0.0408 -0.1088 -0.2799
 3850SOL    HW112449   1.905   2.551   6.195  0.5591  0.8857  1.1863
 3850SOL    HW212450   1.868   2.674   6.094 -0.6905 -1.6997 -1.6582
 3851SOL     OW12451   1.292   6.477   3.950  0.3069  0.3094 -0.0234
 3851SOL    HW112452   1.376   6.430   3.923 -0.6757 -2.2782  1.0527
 3851SOL    HW212453   1.285   6.478   4.050 -0.5620  1.2242 -0.0796
 3852SOL     OW12454   3.914   6.331   4.383  0.2303  0.0331  0.2694
 3852SOL    HW112455   3.861   6.393   4.440 -0.5137  0.6214 -0.9958
 3852SOL    HW212456   3.869   6.323   4.293  1.4496 -0.6924 -0.2969
 3853SOL     OW12457   0.281   2.619   3.351 -0.0698 -0.7075  0.4878
 3853SOL    HW112458   0.311   2.535   3.396 -0.7244 -0.8984  0.5663
 3853SOL    HW212459   0.360   2.661   3.305  0.1500 -1.6572 -0.0382
 3854SOL     OW12460   2.197   3.324   1.109  0.7785  0.5190  0.4647
 3854SOL    HW112461   2.159   3.357   1.196  0.2927  2.0156 -0.2713
 3854SOL    HW212462   2.278   3.379   1.086  0.5549  0.5342 -0.3032
 3855SOL     OW12463   4.081   5.178   5.006 -0.0857 -0.1229  0.1418
 3855SOL    HW112464   4.056   5.254   4.947 -0.4635  0.0302  0.4891
 3855SOL    HW212465   4.008   5.109   5.005 -1.3622  1.0503  2.3932
 3856SOL     OW12466   0.447   0.318   3.815 -0.2989 -0.0298 -0.0725
 3856SOL    HW112467   0.399   0.397   3.852 -0.1436  0.2721 -0.4998
 3856SOL    HW212468   0.468   0.254   3.888 -0.3944  0.3452  0.2848
 3857SOL     OW12469   1.284   6.551   4.279  0.5149  0.4332  0.5307
 3857SOL    HW112470   1.355   6.620   4.290  0.5024  0.4149  0.7345
 3857SOL    HW212471   1.206   6.590   4.229 -0.0620  0.9688  1.8108
 3858SOL     OW12472   0.388   6.080   0.544  0.5517  0.2980  0.0518
 3858SOL    HW112473   0.350   6.050   0.457 -1.7375  1.1778  0.6745
 3858SOL    HW212474   0.442   6.006   0.584  0.5205 -0.5903 -1.4642
 3859SOL     OW12475   6.970   1.910   3.347 -0.3481 -0.5286  0.1496
 3859SOL    HW112476   6.927   1.843   3.408 -2.4829  0.8532  0.2758
 3859SOL    HW212477   7.002   1.864   3.264  0.3020 -2.0222  1.1742
 3860SOL     OW12478   2.112   6.638   5.251 -0.2424 -0.1842  0.0661
 3860SOL    HW112479   2.172   6.718   5.261 -1.1040  0.2422  2.6778
 3860SOL    HW212480   2.142   6.567   5.315 -3.0021  0.4406  2.2762
 3861SOL     OW12481   5.065   6.155   0.849 -0.6641 -0.0514  0.0908
 3861SOL    HW112482   5.049   6.056   0.855  2.0471 -0.5496  0.2174
 3861SOL    HW212483   5.036   6.198   0.935 -0.7121 -0.9389  0.5356
 3862SOL     OW12484   6.457   0.003   4.222 -0.0639 -0.4334  0.3730
 3862SOL    HW112485   6.449  -0.045   4.135 -0.9750  0.2175  0.0761
 3862SOL    HW212486   6.367   0.039   4.248  0.5570  1.0536  0.6061
 3863SOL     OW12487   4.765   3.019   6.062  0.6682 -0.4869  0.7419
 3863SOL    HW112488   4.767   3.118   6.044 -3.2009 -0.1268  1.5232
 3863SOL    HW212489   4.838   2.995   6.125  1.1543  2.0480  1.2323
 3864SOL     OW12490   4.985   2.478   1.997  0.1358  0.9814  0.6175
 3864SOL    HW112491   5.077   2.503   1.966  0.1351 -0.6815 -0.8412
 3864SOL    HW212492   4.990   2.437   2.088  0.8139  0.9893  0.5847
 3865SOL     OW12493   2.290   6.397   1.079 -0.2076  0.5805  0.2269
 3865SOL    HW112494   2.207   6.401   1.024  0.0794  0.2435 -0.2379
 3865SOL    HW212495   2.355   6.333   1.037 -0.1097  0.0722  1.1253
 3866SOL     OW12496   3.074   0.598   0.841  0.2157  0.2069  0.5536
 3866SOL    HW112497   3.068   0.643   0.752  2.2496 -0.2557  0.1312
 3866SOL    HW212498   2.984   0.564   0.868 -0.4529  0.4465 -1.2697
 3867SOL     OW12499   1.122   4.262   3.428  0.3717  0.1121  0.1135
 3867SOL    HW112500   1.186   4.324   3.382  2.8144 -0.9830  1.8006
 3867SOL    HW212501   1.128   4.276   3.527  0.6619 -2.4734  0.5241
 3868SOL     OW12502   2.323   6.076   0.543 -0.2278 -0.4855  0.1888
 3868SOL    HW112503   2.318   6.173   0.520 -2.1579 -0.3748  0.8841
 3868SOL    HW212504   2.285   6.062   0.635 -0.5237 -1.9779 -0.1378
 3869SOL     OW12505   6.757   4.551   3.456 -0.1257  0.2350  0.7881
 3869SOL    HW112506   6.796   4.614   3.523 -2.6825  0.9225  1.7380
 3869SOL    HW212507   6.674   4.510   3.493 -0.1109 -1.5184 -0.9390
 3870SOL     OW12508   4.326   4.370   6.782 -0.3425 -0.6789  0.3791
 3870SOL    HW112509   4.250   4.305   6.780  0.4514 -1.6244 -2.0524
 3870SOL    HW212510   4.411   4.322   6.801 -0.0771  0.0872  1.2054
 3871SOL     OW12511   4.342   1.655   4.382  1.0893 -0.0491  0.0570
 3871SOL    HW112512   4.326   1.562   4.415  1.4942  0.0964  0.6784
 3871SOL    HW212513   4.405   1.702   4.444  0.5787  0.7721 -0.0413
 3872SOL     OW12514   3.882   3.010   2.727 -0.3647 -0.3032 -0.8882
 3872SOL    HW112515   3.923   3.070   2.659 -0.3800 -0.5380 -1.1082
 3872SOL    HW212516   3.800   2.967   2.689 -1.6514  1.2293  0.0037
 3873SOL     OW12517   0.084   4.524   1.193  0.1754 -0.4836  0.5649
 3873SOL    HW112518   0.180   4.498   1.198 -0.2502 -1.9309  1.7251
 3873SOL    HW212519   0.039   4.502   1.279 -1.4001 -0.6591 -0.2726
 3874SOL     OW12520   2.660   4.721   0.464  0.1207  0.1958  0.4230
 3874SOL    HW112521   2.573   4.688   0.428  0.3887 -0.5105  0.4057
 3874SOL    HW212522   2.690   4.801   0.412  0.2905 -0.5547 -0.6576
 3875SOL     OW12523   0.180   3.942   3.018  0.0222 -0.4208 -0.2489
 3875SOL    HW112524   0.182   3.928   3.117 -1.2704  0.9050  0.0002
 3875SOL    HW212525   0.248   4.010   2.992 -0.7965  0.5161 -0.0080
 3876SOL     OW12526   4.780   4.720   4.607 -0.1798 -0.5295 -0.2805
 3876SOL    HW112527   4.763   4.675   4.520  1.1205 -0.6373 -0.4948
 3876SOL    HW212528   4.870   4.763   4.606 -0.3426 -0.1175  0.8412
 3877SOL     OW12529   6.698   0.542   0.426 -0.0544 -0.2884  0.3258
 3877SOL    HW112530   6.731   0.457   0.467  0.2381  0.3650  1.4963
 3877SOL    HW212531   6.776   0.593   0.388 -0.2375 -0.5712 -0.4406
 3878SOL     OW12532   0.751   3.391   6.890 -0.0375  0.6300  0.2331
 3878SOL    HW112533   0.730   3.356   6.981  0.3662 -0.3341 -0.0338
 3878SOL    HW212534   0.776   3.487   6.897 -1.5960  1.0242  0.9302
 3879SOL     OW12535   4.876   5.304   0.517  0.1589 -0.5803 -0.2899
 3879SOL    HW112536   4.845   5.266   0.430 -0.0885  1.1350 -0.9946
 3879SOL    HW212537   4.949   5.371   0.500  0.4385 -0.5732  0.8634
 3880SOL     OW12538   4.342   4.993   2.481 -0.0186  0.0956 -0.3461
 3880SOL    HW112539   4.393   4.920   2.436  3.5075  2.8611 -1.2732
 3880SOL    HW212540   4.267   5.022   2.421  0.6384 -0.5356 -1.5282
 3881SOL     OW12541   1.475   4.874   0.988  0.1828  0.7054  0.8271
 3881SOL    HW112542   1.491   4.793   0.932 -1.6682  2.2069 -2.0984
 3881SOL    HW212543   1.388   4.864   1.036 -0.0503  0.9616  0.4579
 3882SOL     OW12544   6.691   1.388   6.677 -0.7453  0.2679  0.3373
 3882SOL    HW112545   6.648   1.393   6.587  2.5567 -0.1148 -1.4147
 3882SOL    HW212546   6.789   1.373   6.667 -0.4670 -1.6950  4.0849
 3883SOL     OW12547   6.957   2.935   4.307 -0.0570  0.4562 -0.2798
 3883SOL    HW112548   6.904   2.850   4.310  1.9010 -0.8119  0.0120
 3883SOL    HW212549   6.904   3.009   4.348 -1.1519 -1.0013  1.0380
 3884SOL     OW12550   2.072   5.891   3.025  0.3018 -0.3629  0.0252
 3884SOL    HW112551   1.999   5.855   3.082  0.9033 -0.3445  0.8304
 3884SOL    HW212552   2.159   5.887   3.076  0.5556  1.2646 -0.2327
 3885SOL     OW12553   1.053   0.337   5.103 -0.4387  0.1509 -0.0117
 3885SOL    HW112554   1.073   0.239   5.115 -2.4371 -0.3184 -0.1149
 3885SOL    HW212555   1.108   0.390   5.167  0.7943 -1.0103 -0.0443
 3886SOL     OW12556   5.509   0.412   5.626 -0.6917  0.3224 -0.4940
 3886SOL    HW112557   5.437   0.372   5.569 -0.2501  0.9379 -1.5267
 3886SOL    HW212558   5.480   0.503   5.657 -0.4301  0.5049 -0.7785
 3887SOL     OW12559   4.273   1.845   5.385 -0.2018 -0.4370 -0.3884
 3887SOL    HW112560   4.350   1.794   5.346  1.4568 -0.1984  2.3610
 3887SOL    HW212561   4.226   1.787   5.451 -0.1735  0.5832  0.5479
 3888SOL     OW12562   5.964   1.425   2.012  0.3419 -0.1931  0.5501
 3888SOL    HW112563   5.991   1.355   1.946  1.7031  0.1449  0.7174
 3888SOL    HW212564   6.038   1.491   2.023 -0.8728  1.2379  0.4684
 3889SOL     OW12565   0.313   6.708   0.127  0.0024 -0.1806 -0.1737
 3889SOL    HW112566   0.319   6.782   0.060 -1.3200 -1.3341 -1.6286
 3889SOL    HW212567   0.406   6.679   0.151  0.5562  1.8713  0.4128
 3890SOL     OW12568   6.140   0.834   1.954  0.1297  0.1123 -0.3209
 3890SOL    HW112569   6.159   0.771   2.029  0.8847 -0.7242 -1.1962
 3890SOL    HW212570   6.054   0.882   1.972 -0.7116 -1.4897  0.1367
 3891SOL     OW12571   5.753   4.994   5.327  0.3595 -0.3479  0.1933
 3891SOL    HW112572   5.811   4.922   5.365  1.8692  1.0995  0.6881
 3891SOL    HW212573   5.660   4.959   5.317  0.6998 -1.8636  1.9090
 3892SOL     OW12574   3.292   0.439   0.602 -0.3242  0.0376 -0.0428
 3892SOL    HW112575   3.312   0.532   0.572 -1.1254  0.6363  1.1748
 3892SOL    HW212576   3.297   0.434   0.702 -2.1281 -0.7317  0.0596
 3893SOL     OW12577   4.372   5.357   3.340  0.2217 -0.1227 -0.1960
 3893SOL    HW112578   4.454   5.319   3.384  0.9705  1.5855 -0.0011
 3893SOL    HW212579   4.296   5.293   3.350  1.5527 -1.8270 -0.5082
 3894SOL     OW12580   6.675   1.230   1.682 -0.2224  0.0623  0.0332
 3894SOL    HW112581   6.620   1.261   1.605  1.3606  0.7909 -0.8533
 3894SOL    HW212582   6.666   1.295   1.758  0.5048  0.9652 -0.6275
 3895SOL     OW12583   0.378   0.131   4.030  0.3202  0.0997 -0.2785
 3895SOL    HW112584   0.434   0.068   3.976  1.1943  0.8565 -0.2747
 3895SOL    HW212585   0.431   0.165   4.107 -1.2380 -1.8606  1.8254
 3896SOL     OW12586   1.360   2.031   0.594 -0.2048 -0.1526 -0.7088
 3896SOL    HW112587   1.399   1.942   0.619 -0.6098  0.3485  2.1176
 3896SOL    HW212588   1.373   2.047   0.497  1.7145 -2.3907 -0.9216
 3897SOL     OW12589   2.831   0.064   3.153  0.0016  0.6216 -0.8068
 3897SOL    HW112590   2.778   0.090   3.072  0.2001  2.2865 -0.4272
 3897SOL    HW212591   2.920   0.109   3.151  0.3950 -0.0921 -0.1263
 3898SOL     OW12592   4.070   3.704   3.169  0.3913 -0.8809  0.4280
 3898SOL    HW112593   4.042   3.777   3.107 -0.0855 -1.6938 -0.3408
 3898SOL    HW212594   4.150   3.733   3.221  1.6146 -0.6539 -1.4941
 3899SOL     OW12595   4.186   1.916   4.203 -0.4468  0.0294 -0.0231
 3899SOL    HW112596   4.262   1.971   4.167 -0.8599  1.1382  0.7511
 3899SOL    HW212597   4.223   1.848   4.267 -0.0915  0.5863  0.3808
 3900SOL     OW12598   5.409   3.967   1.513 -0.3153  0.0631  0.2596
 3900SOL    HW112599   5.374   3.981   1.420  1.4414  0.9064 -0.3021
 3900SOL    HW212600   5.397   4.051   1.566  1.8331  0.7825 -0.3022
 3901SOL     OW12601   2.650   5.087   4.094  0.6606 -0.0607  0.1967
 3901SOL    HW112602   2.641   5.084   4.193  1.0454 -1.1843  0.2128
 3901SOL    HW212603   2.746   5.072   4.069  0.5808  0.3023 -0.3462
 3902SOL     OW12604   3.499   5.526   1.697 -0.4077 -0.0260 -0.1594
 3902SOL    HW112605   3.470   5.567   1.784 -0.1666 -0.5310  0.1635
 3902SOL    HW212606   3.599   5.528   1.691 -0.4557  1.0506 -0.9437
 3903SOL     OW12607   4.059   1.991   6.488 -0.2393 -0.1090 -0.4173
 3903SOL    HW112608   4.008   2.067   6.448  1.8895  1.6213  0.0015
 3903SOL    HW212609   4.086   2.014   6.581  0.2796 -1.4791 -0.2063
 3904SOL     OW12610   2.277   6.437   6.680 -0.1347 -0.3146 -0.6502
 3904SOL    HW112611   2.342   6.363   6.661  0.3685  0.2830 -1.3030
 3904SOL    HW212612   2.184   6.404   6.665 -0.1635 -1.7091  1.9248
 3905SOL     OW12613   4.801   0.714   1.753  0.3477 -0.0033  0.2892
 3905SOL    HW112614   4.737   0.720   1.677  1.2579  2.6425 -0.3635
 3905SOL    HW212615   4.751   0.698   1.838 -0.9114 -0.5452 -0.5364
 3906SOL     OW12616   2.840   5.084   4.475  0.2323  0.7158 -0.4378
 3906SOL    HW112617   2.839   4.990   4.509 -1.9839 -0.7172 -3.8625
 3906SOL    HW212618   2.746   5.117   4.463  0.9130  2.3319 -1.8150
 3907SOL     OW12619   5.893   2.745   4.903 -0.0932  0.0878  0.5706
 3907SOL    HW112620   5.884   2.756   4.804  3.1776  1.5439  0.3347
 3907SOL    HW212621   5.863   2.653   4.929 -0.1719 -0.6411 -1.8953
 3908SOL     OW12622   2.394   7.011   6.464  0.3179  0.3871 -0.5950
 3908SOL    HW112623   2.383   6.928   6.409  0.9099 -0.1449  0.0660
 3908SOL    HW212624   2.308   7.032   6.511  0.7340 -1.1304  0.9603
 3909SOL     OW12625   3.854   3.347   6.014  0.0326 -0.0667 -0.7580
 3909SOL    HW112626   3.756   3.364   6.010  0.1245  0.8096  0.1393
 3909SOL    HW212627   3.902   3.412   5.956  0.1552  0.3635 -0.1859
 3910SOL     OW12628   4.073   3.728   3.712  0.6110 -0.3517  0.7665
 3910SOL    HW112629   4.011   3.652   3.730 -0.1439 -0.2814 -1.2525
 3910SOL    HW212630   4.021   3.814   3.713  0.9202 -0.1543  0.3551
 3911SOL     OW12631   4.128   0.794   2.466  0.1451 -0.0159 -0.2378
 3911SOL    HW112632   4.138   0.797   2.565  0.0805  0.2684 -0.2389
 3911SOL    HW212633   4.218   0.788   2.423  0.2282  0.7233 -0.1875
 3912SOL     OW12634   4.016   3.899   4.377  0.0482 -0.5913  0.7469
 3912SOL    HW112635   4.042   3.903   4.474 -0.8128 -1.5869  1.0325
 3912SOL    HW212636   4.023   3.805   4.345  0.5841 -0.2246 -0.2445
 3913SOL     OW12637   3.809   5.893   0.839 -0.2878 -0.1297  0.3702
 3913SOL    HW112638   3.774   5.799   0.841 -0.6215 -0.0340  3.0078
 3913SOL    HW212639   3.747   5.952   0.890  0.7810  1.2015  0.1829
 3914SOL     OW12640   5.105   0.853   0.792  0.1584 -0.4705  0.1254
 3914SOL    HW112641   5.050   0.770   0.786  0.8949 -0.9363 -0.3890
 3914SOL    HW212642   5.176   0.851   0.721  1.0759 -0.0691  1.0044
 3915SOL     OW12643   3.112   6.435   0.231 -0.1306 -0.3370  0.1475
 3915SOL    HW112644   3.142   6.495   0.305  0.8418 -0.3955 -0.1840
 3915SOL    HW212645   3.127   6.481   0.143  0.2140 -0.8906 -0.0846
 3916SOL     OW12646   5.845   1.032   4.755 -0.2535  0.3992 -0.1842
 3916SOL    HW112647   5.891   1.109   4.711  0.7209  0.1255  0.3239
 3916SOL    HW212648   5.754   1.060   4.784  0.8271  2.0524  1.8962
 3917SOL     OW12649   3.633   5.290   0.949  0.7657  0.0083 -0.3651
 3917SOL    HW112650   3.647   5.231   0.869  0.2909  0.6965 -0.9805
 3917SOL    HW212651   3.535   5.297   0.967  0.8176  0.6101 -0.3095
 3918SOL     OW12652   4.629   1.365   0.452 -0.3057 -0.0032 -0.4632
 3918SOL    HW112653   4.601   1.462   0.454 -0.3007  0.0640 -2.0191
 3918SOL    HW212654   4.614   1.324   0.542 -1.7424  1.0562 -0.1756
 3919SOL     OW12655   3.244   1.494   1.722  0.2020  0.6585  0.0177
 3919SOL    HW112656   3.169   1.504   1.788 -0.5493  1.1722 -0.8911
 3919SOL    HW212657   3.208   1.464   1.634  1.4676 -2.6408  0.4536
 3920SOL     OW12658   2.722   2.013   6.359 -0.2807  0.0994  0.4381
 3920SOL    HW112659   2.793   1.953   6.322 -0.9181 -1.1333  1.1601
 3920SOL    HW212660   2.650   2.025   6.291 -1.1465 -1.6574  0.9745
 3921SOL     OW12661   6.067   3.278   4.533  0.0188  0.4238 -0.0907
 3921SOL    HW112662   6.120   3.201   4.496  0.9381  0.6387  0.7470
 3921SOL    HW212663   5.983   3.243   4.576  0.8250 -0.2217  1.0108
 3922SOL     OW12664   5.043   3.677   0.861  0.0795 -0.5181 -0.0041
 3922SOL    HW112665   4.949   3.708   0.872 -0.1890 -0.5082 -1.9849
 3922SOL    HW212666   5.106   3.751   0.883 -0.4735  0.3251 -1.1581
 3923SOL     OW12667   0.735   1.745   2.725 -0.1272 -0.2844  0.2336
 3923SOL    HW112668   0.766   1.822   2.669  2.5990  0.0678  2.0524
 3923SOL    HW212669   0.673   1.779   2.796  1.6682  0.4860  1.5186
 3924SOL     OW12670   6.721   4.270   3.596 -0.3922 -0.1646  0.4930
 3924SOL    HW112671   6.787   4.248   3.668  2.9856 -0.8508 -2.5227
 3924SOL    HW212672   6.651   4.198   3.592  1.5831 -2.2267  0.6882
 3925SOL     OW12673   5.624   3.818   5.829  0.1745 -0.1444 -0.1406
 3925SOL    HW112674   5.570   3.737   5.855 -1.5313  1.4447  1.6892
 3925SOL    HW212675   5.579   3.865   5.753 -2.5571  2.3450  2.7057
 3926SOL     OW12676   1.815   1.298   3.384  0.4318  0.2572 -0.4858
 3926SOL    HW112677   1.770   1.383   3.354 -1.7047 -1.1246 -1.4460
 3926SOL    HW212678   1.774   1.267   3.469  1.5604  0.4140  0.1347
 3927SOL     OW12679   6.434   3.106   4.346 -0.4149 -0.3463  0.0092
 3927SOL    HW112680   6.383   3.068   4.268  1.9270 -1.0778 -1.2786
 3927SOL    HW212681   6.450   3.203   4.330 -1.8326  0.0392  0.7204
 3928SOL     OW12682   3.750   0.312   3.289 -0.2468 -0.1485 -0.1002
 3928SOL    HW112683   3.728   0.215   3.298  1.4958 -0.6663 -1.0966
 3928SOL    HW212684   3.681   0.357   3.232  1.1930 -1.7834 -3.3661
 3929SOL     OW12685   6.526   1.617   6.408 -0.3434  0.0626  0.3048
 3929SOL    HW112686   6.495   1.605   6.502  0.0108 -1.1602  0.2926
 3929SOL    HW212687   6.455   1.584   6.345  0.0848 -0.7246  0.2143
 3930SOL     OW12688   0.930   3.973   5.875 -0.0675  0.1762 -0.1172
 3930SOL    HW112689   0.831   3.986   5.873  0.0899  1.5228 -1.4993
 3930SOL    HW212690   0.966   3.979   5.781  1.3906  0.3716  0.4272
 3931SOL     OW12691   0.284   4.445   3.210 -0.1565 -0.0761  0.4065
 3931SOL    HW112692   0.274   4.397   3.298 -0.9459 -0.1549  0.2822
 3931SOL    HW212693   0.377   4.432   3.176 -0.3068 -1.4070  0.4464
 3932SOL     OW12694   2.653   5.691   3.480 -0.1561  0.2288  0.0362
 3932SOL    HW112695   2.741   5.665   3.519 -0.2161  0.2783  0.2063
 3932SOL    HW212696   2.583   5.625   3.508 -0.5592  1.2317  1.4884
 3933SOL     OW12697   1.377   5.236   0.147 -0.0458 -0.2432  0.6000
 3933SOL    HW112698   1.450   5.241   0.079 -1.3557  0.1955 -0.8239
 3933SOL    HW212699   1.357   5.328   0.181  0.0046 -0.3535  0.9341
 3934SOL     OW12700   1.649   1.365   2.152 -0.3382 -0.4736  0.4775
 3934SOL    HW112701   1.707   1.410   2.220  1.8715 -3.0021  0.4361
 3934SOL    HW212702   1.560   1.410   2.149  0.6339  1.8296  2.5858
 3935SOL     OW12703   5.996   2.779   6.664 -0.0385 -0.2351 -0.0617
 3935SOL    HW112704   5.944   2.782   6.579 -0.9222 -3.6568  0.2027
 3935SOL    HW212705   5.937   2.800   6.741 -0.6396 -2.3006  0.0834
 3936SOL     OW12706   0.222   0.310   4.637 -0.1496  0.4311 -0.2230
 3936SOL    HW112707   0.133   0.265   4.648  0.8440 -1.1632  1.9975
 3936SOL    HW212708   0.214   0.406   4.663 -0.6319 -0.4272  3.2109
 3937SOL     OW12709   0.947   4.750   2.697  0.0029 -0.1308  0.3994
 3937SOL    HW112710   0.855   4.713   2.704 -0.3968  0.9163  0.9134
 3937SOL    HW212711   0.998   4.702   2.625 -1.0060 -0.5742 -0.0282
 3938SOL     OW12712   6.494   4.301   4.849 -0.7049  0.2264  0.0674
 3938SOL    HW112713   6.477   4.316   4.752 -0.6974 -0.5020 -0.0490
 3938SOL    HW212714   6.518   4.388   4.892  0.8962  0.3272 -0.9163
 3939SOL     OW12715   1.345   0.469   3.346 -0.3577  0.2289 -0.1012
 3939SOL    HW112716   1.353   0.568   3.336 -0.5214  0.1854 -0.7238
 3939SOL    HW212717   1.433   0.431   3.374  0.1315  0.3812 -1.3652
 3940SOL     OW12718   4.010   3.749   1.621 -0.3244  0.1824  0.4395
 3940SOL    HW112719   4.002   3.844   1.652 -0.8640  0.0830  0.6196
 3940SOL    HW212720   4.061   3.696   1.689  2.5630  0.9539 -0.9940
 3941SOL     OW12721   6.269   6.584   3.360  0.4804  0.2712  0.4188
 3941SOL    HW112722   6.278   6.507   3.297  1.1623  0.7135 -0.0289
 3941SOL    HW212723   6.177   6.583   3.400 -0.7145  1.1390 -2.1130
 3942SOL     OW12724   1.907   6.164   3.961 -0.7847 -0.1375 -0.4738
 3942SOL    HW112725   1.866   6.082   4.002 -0.2345  0.2569  0.9025
 3942SOL    HW212726   1.993   6.139   3.916 -0.8309 -0.3845 -0.4275
 3943SOL     OW12727   3.004   5.334   3.055  0.2905  0.1209 -0.1464
 3943SOL    HW112728   3.059   5.407   3.014 -0.4488  0.0964 -1.2115
 3943SOL    HW212729   3.028   5.247   3.012 -0.2877  0.0500 -0.3276
 3944SOL     OW12730   5.411   2.786   5.771  0.2420  0.0436 -0.5060
 3944SOL    HW112731   5.396   2.883   5.789  2.9089  0.6692 -1.1968
 3944SOL    HW212732   5.358   2.758   5.691 -0.8201  0.8212 -0.0933
 3945SOL     OW12733   0.917   1.952   3.981 -0.2727 -0.1371  0.2062
 3945SOL    HW112734   1.006   1.922   3.947 -1.0983 -1.5090 -0.8630
 3945SOL    HW212735   0.897   1.906   4.068  0.0081  0.1054  0.4025
 3946SOL     OW12736   6.379   4.590   0.215 -0.0594 -0.1347  0.0101
 3946SOL    HW112737   6.349   4.616   0.307  0.9023  1.6277 -0.1224
 3946SOL    HW212738   6.336   4.649   0.147 -0.0756 -0.8304 -0.5995
 3947SOL     OW12739   6.274   6.609   0.190 -0.0994 -0.3048 -0.1031
 3947SOL    HW112740   6.177   6.590   0.204 -0.2572 -0.0180 -0.7574
 3947SOL    HW212741   6.285   6.691   0.134  0.4732 -1.2742 -1.4815
 3948SOL     OW12742   1.886   2.657   1.940 -0.6442 -0.5617  0.0257
 3948SOL    HW112743   1.793   2.658   1.977 -0.5387  2.5951  0.4670
 3948SOL    HW212744   1.883   2.654   1.840 -1.2587  0.3951  0.0126
 3949SOL     OW12745   4.017   0.387   2.177  0.3156  0.5541  0.1175
 3949SOL    HW112746   3.987   0.409   2.270 -2.5954 -0.9607 -0.3459
 3949SOL    HW212747   4.006   0.289   2.161  0.6544  0.8039 -1.8538
 3950SOL     OW12748   3.497   3.936   1.135 -1.0252  0.0134  0.0817
 3950SOL    HW112749   3.486   3.885   1.220 -2.3825 -2.5749 -1.5237
 3950SOL    HW212750   3.590   3.924   1.100 -0.8627  0.0052  0.5084
 3951SOL     OW12751   0.964   3.729   5.609 -0.2786 -0.2187  0.2281
 3951SOL    HW112752   0.955   3.796   5.535 -0.0579 -1.4067 -0.9016
 3951SOL    HW212753   0.877   3.723   5.659 -0.4089  0.6378  0.1312
 3952SOL     OW12754   4.887   2.711   4.764 -0.2306 -0.4347 -0.0048
 3952SOL    HW112755   4.913   2.639   4.828 -0.5549  0.1719  0.8331
 3952SOL    HW212756   4.787   2.717   4.761 -0.2084 -0.2360 -0.3134
 3953SOL     OW12757   2.196   4.876   5.322  0.0886 -0.2109 -0.0012
 3953SOL    HW112758   2.184   4.803   5.255 -0.7987  0.2402 -0.3453
 3953SOL    HW212759   2.112   4.930   5.328  1.0765  1.4462 -0.5379
 3954SOL     OW12760   0.214   5.420   5.158 -0.1235  0.2277  0.7437
 3954SOL    HW112761   0.167   5.332   5.160 -1.0558  0.6972 -0.1202
 3954SOL    HW212762   0.303   5.409   5.113  0.4580 -0.5724  2.0211
 3955SOL     OW12763   6.755   0.440   6.598  0.0429  0.1066 -0.0475
 3955SOL    HW112764   6.819   0.514   6.615 -0.3111  0.3608  0.1985
 3955SOL    HW212765   6.781   0.359   6.651 -0.4337  0.5447  0.8769
 3956SOL     OW12766   0.529   2.904   4.925 -0.3971  0.0192  0.5262
 3956SOL    HW112767   0.619   2.938   4.899 -0.8849  0.3056 -0.9326
 3956SOL    HW212768   0.459   2.960   4.880 -1.2680 -0.8662  0.7568
 3957SOL     OW12769   2.016   1.198   4.553  0.2654 -0.1960  0.8961
 3957SOL    HW112770   2.063   1.184   4.640  2.0988 -0.0767 -0.0257
 3957SOL    HW212771   1.973   1.288   4.553  1.0183  0.1751  1.3510
 3958SOL     OW12772   5.657   4.761   6.833  0.0668 -0.2327 -0.3544
 3958SOL    HW112773   5.655   4.782   6.931 -2.7557 -0.5245 -0.2626
 3958SOL    HW212774   5.662   4.846   6.781  2.0090 -0.0942 -0.0004
 3959SOL     OW12775   3.188   5.915   0.846  0.2405  0.3277  0.5141
 3959SOL    HW112776   3.282   5.884   0.860 -1.1813 -4.2892  1.6585
 3959SOL    HW212777   3.154   5.957   0.931  0.9687  1.3925  0.3100
 3960SOL     OW12778   3.393   2.046   1.555  0.1810  0.2697  0.2176
 3960SOL    HW112779   3.465   2.072   1.620  2.6557  0.2721 -2.3018
 3960SOL    HW212780   3.383   1.947   1.555  0.5777  0.2251  0.2295
 3961SOL     OW12781   6.614   2.812   1.831  0.3884 -0.4097 -0.3962
 3961SOL    HW112782   6.659   2.901   1.828  1.1909 -0.8313 -1.2924
 3961SOL    HW212783   6.625   2.772   1.923  1.7920 -0.4573 -0.5618
 3962SOL     OW12784   1.562   4.540   6.866 -0.0318  0.4403 -0.3730
 3962SOL    HW112785   1.467   4.516   6.886  0.0699 -0.5878 -1.0525
 3962SOL    HW212786   1.608   4.569   6.950 -0.7639  0.2837  0.0866
 3963SOL     OW12787   5.111   5.233   3.648 -0.0339  0.5046  0.6594
 3963SOL    HW112788   5.125   5.172   3.726  0.8945  0.1066  0.1956
 3963SOL    HW212789   5.056   5.187   3.579 -1.7192  1.2137  1.4725
 3964SOL     OW12790   6.587   6.427   6.048  0.6273  0.0055  0.8757
 3964SOL    HW112791   6.528   6.361   6.001  0.2952 -0.0792  1.4025
 3964SOL    HW212792   6.554   6.440   6.141  1.8464 -0.5694  1.4084
 3965SOL     OW12793   3.389   4.594   5.425 -0.3047 -0.9731  0.1873
 3965SOL    HW112794   3.412   4.526   5.356 -1.4761 -0.9797 -0.2233
 3965SOL    HW212795   3.319   4.656   5.388 -0.0842 -0.2451  0.9553
 3966SOL     OW12796   4.926   4.624   6.626 -0.6577  0.4127  0.0364
 3966SOL    HW112797   4.897   4.612   6.531 -0.3472  0.2897 -0.0426
 3966SOL    HW212798   4.942   4.721   6.643 -0.5838  0.4207 -0.0740
 3967SOL     OW12799   6.781   4.443   4.125 -0.0811  0.3486  0.2883
 3967SOL    HW112800   6.839   4.525   4.129  1.7206 -0.8727  0.6678
 3967SOL    HW212801   6.722   4.440   4.206  1.4860  0.1721  1.4891
 3968SOL     OW12802   4.676   1.267   3.621 -0.5370 -0.1345  0.6538
 3968SOL    HW112803   4.775   1.255   3.613 -0.5448 -0.0176  0.3717
 3968SOL    HW212804   4.655   1.303   3.712 -0.1746  1.2890  0.2136
 3969SOL     OW12805   6.526   5.650   2.916  0.9219 -0.1230 -0.0575
 3969SOL    HW112806   6.518   5.561   2.962 -0.2863  0.1978  0.3931
 3969SOL    HW212807   6.494   5.641   2.822  0.6188 -0.1242  0.0453
 3970SOL     OW12808   5.813   5.158   5.151  0.6990 -0.0965 -0.1865
 3970SOL    HW112809   5.739   5.152   5.084  0.1748  0.5951  0.3203
 3970SOL    HW212810   5.790   5.102   5.231  0.2895  0.8401  0.3639
 3971SOL     OW12811   2.767   5.181   2.123 -0.3994 -0.0627 -0.8683
 3971SOL    HW112812   2.843   5.166   2.186 -2.0138 -1.3503  0.8726
 3971SOL    HW212813   2.682   5.150   2.165 -2.1765  2.7646 -2.1023
 3972SOL     OW12814   2.042   6.031   6.414 -0.2174  0.2480 -0.4164
 3972SOL    HW112815   2.056   6.037   6.513 -0.1184  2.6626 -0.5125
 3972SOL    HW212816   2.116   5.977   6.374 -0.8370 -1.6809  0.8913
 3973SOL     OW12817   3.051   3.190   5.282  0.2155 -0.4874 -0.0659
 3973SOL    HW112818   3.081   3.127   5.210  3.7219  0.0063  0.7786
 3973SOL    HW212819   3.001   3.139   5.352  0.8615 -1.8874 -0.5746
 3974SOL     OW12820   5.750   2.043   6.536  0.1479  0.0121 -0.8636
 3974SOL    HW112821   5.663   2.003   6.566 -0.6823  1.1923 -1.6234
 3974SOL    HW212822   5.820   2.026   6.605 -0.7770 -0.6514 -0.0689
 3975SOL     OW12823   6.584   1.770   5.998 -0.1219  0.4690 -0.5370
 3975SOL    HW112824   6.563   1.678   6.032 -0.9643 -0.1323 -2.5605
 3975SOL    HW212825   6.518   1.795   5.927  1.0247  2.0348 -1.1021
 3976SOL     OW12826   1.834   5.435   0.837  0.1443  0.2832  0.5100
 3976SOL    HW112827   1.894   5.399   0.765  1.8433  2.9571  0.4563
 3976SOL    HW212828   1.841   5.377   0.918  0.7384 -0.9298 -0.3689
 3977SOL     OW12829   1.058   4.537   5.384 -0.9624  0.0017  0.1646
 3977SOL    HW112830   1.000   4.461   5.352 -2.5229  1.2085  0.0029
 3977SOL    HW212831   1.009   4.588   5.455 -0.0846  1.0634  0.0315
 3978SOL     OW12832   4.894   2.533   4.995  0.5736  0.4010 -0.4556
 3978SOL    HW112833   4.966   2.464   5.007 -0.5723 -0.7882 -0.0990
 3978SOL    HW212834   4.804   2.490   5.011 -0.4825  1.0206 -3.8425
 3979SOL     OW12835   2.889   1.041   2.505  0.2920  0.5307 -0.1738
 3979SOL    HW112836   2.848   1.073   2.419  1.0611  1.0128 -0.3693
 3979SOL    HW212837   2.989   1.042   2.497  0.3570 -0.2933  0.4180
 3980SOL     OW12838   5.754   4.277   4.902  0.1047  0.3649  0.5046
 3980SOL    HW112839   5.722   4.204   4.841  1.5756  0.3133 -0.2579
 3980SOL    HW212840   5.678   4.310   4.958 -0.9335 -0.6659 -0.2559
 3981SOL     OW12841   5.574   1.804   6.373  0.5763  0.4692  0.4306
 3981SOL    HW112842   5.669   1.783   6.348  0.8945 -0.1253  2.0138
 3981SOL    HW212843   5.564   1.800   6.472 -1.0388  0.8805  0.3148
 3982SOL     OW12844   2.191   0.748   3.432 -0.1402  0.6624 -0.2914
 3982SOL    HW112845   2.277   0.706   3.460 -0.5389 -0.5207 -0.7539
 3982SOL    HW212846   2.178   0.833   3.482  0.6731  0.2090  0.7488
 3983SOL     OW12847   2.752   6.793   4.404  0.3116  0.7177 -0.0435
 3983SOL    HW112848   2.812   6.717   4.383 -0.2572 -0.0012  0.8351
 3983SOL    HW212849   2.758   6.815   4.501 -0.0808  1.3096 -0.1439
 3984SOL     OW12850   1.234   0.026   1.623 -0.0959 -0.1455 -0.2315
 3984SOL    HW112851   1.279   0.116   1.624  0.7861 -0.5710  0.5795
 3984SOL    HW212852   1.204   0.003   1.715  0.4839 -1.0555 -0.2549
 3985SOL     OW12853   2.042   3.783   0.978 -0.1105 -0.2053  0.5328
 3985SOL    HW112854   1.991   3.779   1.064 -1.6638  0.1163 -0.3432
 3985SOL    HW212855   1.982   3.760   0.902  1.5227 -1.6446 -0.4029
 3986SOL     OW12856   6.971   6.685   1.758  0.3854 -0.7125  0.1369
 3986SOL    HW112857   7.043   6.752   1.777  0.2355  0.3492 -2.5540
 3986SOL    HW212858   6.970   6.665   1.660 -3.5393  0.0184 -0.1332
 3987SOL     OW12859   1.358   4.364   4.757  0.5239  0.0956 -0.4534
 3987SOL    HW112860   1.295   4.399   4.687  1.0939  2.6931  0.2306
 3987SOL    HW212861   1.307   4.309   4.822 -0.0802 -2.1294 -2.6484
 3988SOL     OW12862   3.314   0.524   5.311  0.1632  0.0723  0.4314
 3988SOL    HW112863   3.282   0.617   5.330  0.3097  0.2197 -0.0291
 3988SOL    HW212864   3.412   0.526   5.290  0.2969 -0.2689  1.0242
 3989SOL     OW12865   6.204   0.446   5.869 -0.0863 -0.1669 -0.0795
 3989SOL    HW112866   6.194   0.536   5.827  1.1510 -0.4701 -1.0938
 3989SOL    HW212867   6.138   0.436   5.943 -0.2050  1.5920  0.0910
 3990SOL     OW12868   6.301   3.410   5.466  0.2406  0.5176 -0.3432
 3990SOL    HW112869   6.325   3.315   5.484 -1.4540 -0.3143 -2.1586
 3990SOL    HW212870   6.384   3.461   5.440  1.1049 -0.5119  0.3286
 3991SOL     OW12871   0.841   3.100   3.748 -0.0706 -0.0356  0.5894
 3991SOL    HW112872   0.831   3.199   3.743  2.3855  0.4243  2.6288
 3991SOL    HW212873   0.905   3.069   3.678 -0.3324 -0.1015  0.3769
 3992SOL     OW12874   2.748   4.053   6.015 -0.1032  0.0446 -0.4130
 3992SOL    HW112875   2.777   4.010   6.100 -1.0657  0.6079  0.2177
 3992SOL    HW212876   2.793   4.007   5.938 -0.2108 -1.3302  0.3053
 3993SOL     OW12877   2.150   2.407   3.088  0.2376  0.4167  0.0165
 3993SOL    HW112878   2.235   2.389   3.139 -0.6739 -0.3017  1.3522
 3993SOL    HW212879   2.164   2.386   2.992  1.1812 -1.0059  0.4334
 3994SOL     OW12880   3.211   4.320   5.317 -0.1502 -0.7958 -0.4739
 3994SOL    HW112881   3.218   4.273   5.230 -2.9034 -2.3342  0.0418
 3994SOL    HW212882   3.147   4.396   5.309  0.7735  0.0399 -0.1414
 3995SOL     OW12883   1.409   4.359   3.378 -0.1974  0.2486  0.4549
 3995SOL    HW112884   1.502   4.392   3.366 -0.9493  2.0965 -0.8573
 3995SOL    HW212885   1.408   4.259   3.373  1.6888  0.1922  0.5187
 3996SOL     OW12886   6.546   1.262   4.036 -0.8230  0.5419 -0.4660
 3996SOL    HW112887   6.532   1.211   4.121 -0.7228  0.0771 -0.7235
 3996SOL    HW212888   6.556   1.360   4.056  1.0549  0.2367  0.2507
 3997SOL     OW12889   5.306   2.629   1.645 -0.7262  0.2502 -0.8981
 3997SOL    HW112890   5.308   2.531   1.628  1.2272  0.3533 -1.5913
 3997SOL    HW212891   5.350   2.649   1.733  0.5434  0.5892 -1.5787
 3998SOL     OW12892   6.369   1.290   2.303 -0.3267  0.0474  0.1369
 3998SOL    HW112893   6.295   1.354   2.324 -0.3312  0.2419 -0.4333
 3998SOL    HW212894   6.331   1.209   2.258 -0.3310 -0.4060  0.9348
 3999SOL     OW12895   5.688   2.390   1.556  0.0757 -0.1193  0.4819
 3999SOL    HW112896   5.732   2.467   1.602 -0.9284  1.0866 -0.5385
 3999SOL    HW212897   5.758   2.322   1.532  1.1497  1.0086  0.3091
 4000SOL     OW12898   2.992   6.262   1.430  0.2275 -0.5760 -0.2190
 4000SOL    HW112899   2.938   6.332   1.477 -2.2590 -1.5071 -1.5007
 4000SOL    HW212900   3.004   6.183   1.489  1.2184  0.0619  0.4692
 4001SOL     OW12901   1.937   4.128   4.880 -0.5913  0.1028 -0.2345
 4001SOL    HW112902   2.034   4.107   4.872 -1.1533 -2.6007 -0.8180
 4001SOL    HW212903   1.893   4.117   4.791 -1.5842  0.4282  0.1993
 4002SOL     OW12904   2.955   3.916   4.607  0.0930 -0.1358 -0.3538
 4002SOL    HW112905   2.952   3.881   4.513 -0.3388 -0.4879 -0.2107
 4002SOL    HW212906   2.872   3.970   4.625  0.7494  0.9760 -0.5743
 4003SOL     OW12907   2.696   1.783   6.938 -0.0487 -0.3410 -0.2850
 4003SOL    HW112908   2.701   1.871   6.986  0.8468 -0.5344 -0.0080
 4003SOL    HW212909   2.786   1.740   6.937 -0.2917 -0.8588 -1.1884
 4004SOL     OW12910   5.415   6.014   6.313 -0.1178  0.1598 -0.0876
 4004SOL    HW112911   5.336   6.072   6.335  2.2915  3.5476  0.4366
 4004SOL    HW212912   5.462   6.051   6.232  1.4553 -1.1993  0.1546
 4005SOL     OW12913   3.517   4.789   0.088 -0.4465 -0.1690 -0.3332
 4005SOL    HW112914   3.462   4.857   0.136 -1.5459 -2.1012  1.2955
 4005SOL    HW212915   3.527   4.707   0.145 -0.3348 -1.9364 -2.7055
 4006SOL     OW12916   5.085   3.517   3.415 -0.2842 -0.1444  0.2779
 4006SOL    HW112917   5.131   3.463   3.344  1.1648 -0.3727  1.3380
 4006SOL    HW212918   5.047   3.455   3.484 -1.1576  0.1021  0.0370
 4007SOL     OW12919   0.962   2.279   3.884  0.2736 -0.2010  0.0103
 4007SOL    HW112920   0.947   2.325   3.972  1.2645  2.2269 -1.0013
 4007SOL    HW212921   1.043   2.222   3.890 -0.8964 -1.8250  1.2637
 4008SOL     OW12922   3.790   5.754   2.007  0.1860  0.2007  0.0406
 4008SOL    HW112923   3.807   5.814   2.085  1.3551 -0.8243  0.5970
 4008SOL    HW212924   3.877   5.723   1.969 -0.3899 -0.4147 -0.8102
 4009SOL     OW12925   0.325   1.773   6.519 -0.4123  0.4556  0.6229
 4009SOL    HW112926   0.226   1.769   6.523 -0.4225  0.8034  0.6995
 4009SOL    HW212927   0.357   1.729   6.435 -0.5069 -1.6048  1.5980
 4010SOL     OW12928   4.260   1.931   0.158 -0.0976  0.0716 -0.5105
 4010SOL    HW112929   4.237   2.001   0.091 -3.8002 -0.1272  0.2914
 4010SOL    HW212930   4.286   1.974   0.244 -2.9489  0.6268  0.1650
 4011SOL     OW12931   6.093   6.879   1.598 -0.3905  0.5035  0.0966
 4011SOL    HW112932   6.099   6.827   1.513 -0.5532 -0.4985  0.6851
 4011SOL    HW212933   6.149   6.962   1.591  0.8141 -0.3343 -0.4436
 4012SOL     OW12934   5.157   0.298   1.229 -0.2673 -0.0747  0.2663
 4012SOL    HW112935   5.228   0.268   1.165 -1.0768  0.9649 -1.1603
 4012SOL    HW212936   5.102   0.219   1.256  1.2641 -0.8610  1.2353
 4013SOL     OW12937   6.921   0.804   1.858  0.3992 -0.1841  0.1223
 4013SOL    HW112938   6.875   0.885   1.822 -0.4087 -0.8080 -0.2657
 4013SOL    HW212939   6.874   0.772   1.940  1.3644  0.3596  0.9203
 4014SOL     OW12940   3.557   1.031   3.661 -0.0282 -0.5261  0.3477
 4014SOL    HW112941   3.505   0.957   3.705  0.7195 -0.4310  1.4381
 4014SOL    HW212942   3.556   1.018   3.562 -0.5530 -1.5666  0.4721
 4015SOL     OW12943   4.906   4.976   6.268 -0.4287 -0.1537 -0.5354
 4015SOL    HW112944   4.906   4.946   6.173  0.5059 -1.9832 -0.0024
 4015SOL    HW212945   4.980   5.042   6.282 -0.2841 -0.2220 -0.9714
 4016SOL     OW12946   2.908   4.646   1.144  0.1768 -0.7712 -0.0413
 4016SOL    HW112947   2.810   4.660   1.130  0.3841 -0.8916 -1.9254
 4016SOL    HW212948   2.933   4.673   1.237 -1.3763  0.7474 -0.0175
 4017SOL     OW12949   5.668   6.386   5.570  0.3792 -0.7556 -0.4624
 4017SOL    HW112950   5.596   6.366   5.637  1.1707  0.0418  0.6669
 4017SOL    HW212951   5.683   6.485   5.566  3.2191 -1.0169  1.3264
 4018SOL     OW12952   3.437   5.873   0.884 -0.0723 -0.1666 -0.6242
 4018SOL    HW112953   3.473   5.848   0.794 -0.4172  0.2997 -0.8974
 4018SOL    HW212954   3.478   5.960   0.913 -0.3596 -0.0494 -0.5672
 4019SOL     OW12955   4.293   5.636   1.702  0.4047 -0.0680  0.6946
 4019SOL    HW112956   4.207   5.660   1.748  0.1105 -0.5079  0.3805
 4019SOL    HW212957   4.367   5.694   1.738  0.0408  0.1016  1.1889
 4020SOL     OW12958   0.397   2.767   5.374  0.1239 -0.2353 -0.0068
 4020SOL    HW112959   0.331   2.718   5.317  0.1374  0.6154 -0.7739
 4020SOL    HW212960   0.468   2.806   5.316  0.2196  0.5193  0.6051
 4021SOL     OW12961   3.459   3.923   6.517  0.8990  0.2801 -0.5394
 4021SOL    HW112962   3.397   3.943   6.441 -2.4684 -2.7154  1.1449
 4021SOL    HW212963   3.437   3.981   6.595  0.4683 -0.4731 -0.0874
 4022SOL     OW12964   5.097   6.368   0.378  0.0597  0.5210  0.1641
 4022SOL    HW112965   5.134   6.290   0.327 -2.1754 -0.9290  0.5967
 4022SOL    HW212966   5.061   6.436   0.314 -2.4652 -1.1472 -0.3302
 4023SOL     OW12967   2.202   1.813   5.797 -0.1692 -0.8324 -0.0830
 4023SOL    HW112968   2.193   1.719   5.762  0.3076 -0.6049 -0.8399
 4023SOL    HW212969   2.288   1.822   5.847  0.5639 -0.4001 -1.3681
 4024SOL     OW12970   2.915   5.411   4.217  0.2999 -0.3256 -0.2963
 4024SOL    HW112971   2.829   5.360   4.211 -0.0275  0.3473 -1.7577
 4024SOL    HW212972   2.912   5.472   4.296 -0.2440 -0.8823  0.1209
 4025SOL     OW12973   0.079   5.730   4.652 -0.1463  0.4997 -0.4680
 4025SOL    HW112974  -0.021   5.730   4.656 -0.1085  0.6172  2.6121
 4025SOL    HW212975   0.113   5.637   4.660  0.0285  0.4485 -1.6185
 4026SOL     OW12976   5.570   1.117   4.239 -0.4373  0.3853 -0.2094
 4026SOL    HW112977   5.493   1.181   4.240 -0.3862  0.4525 -0.4929
 4026SOL    HW212978   5.554   1.044   4.306 -0.6767  0.4802 -0.1636
 4027SOL     OW12979   2.579   3.209   6.582  0.4483 -0.2779 -0.2650
 4027SOL    HW112980   2.605   3.305   6.576 -1.1377  0.0791 -3.4359
 4027SOL    HW212981   2.549   3.189   6.676 -0.2315  2.6121  0.2405
 4028SOL     OW12982   3.096   0.973   1.159  1.0946 -0.1984  0.3460
 4028SOL    HW112983   3.140   0.900   1.212 -1.7539 -1.4017  1.2628
 4028SOL    HW212984   3.007   0.993   1.198  0.7464  2.0872 -1.4085
 4029SOL     OW12985   5.301   4.461   5.154 -0.1558 -0.0520  0.4053
 4029SOL    HW112986   5.303   4.503   5.245  0.2366  1.8622 -0.4414
 4029SOL    HW212987   5.248   4.518   5.092  0.0032 -1.0695 -0.7032
 4030SOL     OW12988   5.175   1.038   1.912  0.2981  0.4083  0.4726
 4030SOL    HW112989   5.164   1.113   1.978 -1.3605  0.3686  0.2942
 4030SOL    HW212990   5.142   1.068   1.823 -1.6497 -0.8967  0.6841
 4031SOL     OW12991   4.597   6.697   4.019 -0.1102  0.3516  0.3782
 4031SOL    HW112992   4.674   6.758   4.001  0.5182 -0.1603  1.2687
 4031SOL    HW212993   4.511   6.745   3.999  0.4299  0.3782 -2.2802
 4032SOL     OW12994   1.465   5.303   1.535  0.0188 -0.6197  1.0378
 4032SOL    HW112995   1.551   5.353   1.543 -0.5375  0.6873 -0.5383
 4032SOL    HW212996   1.402   5.354   1.477 -1.1822 -2.4128  0.6697
 4033SOL     OW12997   6.613   2.264   2.380  0.9097 -0.2246  0.2725
 4033SOL    HW112998   6.673   2.334   2.342  1.0122 -0.4760 -0.0341
 4033SOL    HW212999   6.665   2.181   2.397  0.3960 -0.9054 -1.2910
 4034SOL     OW13000   6.745   2.029   4.400 -0.4856 -0.0513  0.3719
 4034SOL    HW113001   6.680   2.084   4.453  0.2160  0.6903  0.4722
 4034SOL    HW213002   6.747   2.061   4.306 -0.6340 -0.4066  0.2453
 4035SOL     OW13003   5.630   0.889   0.673  0.0301 -0.0193  0.1584
 4035SOL    HW113004   5.667   0.851   0.588 -3.9637 -1.2806 -1.2071
 4035SOL    HW213005   5.633   0.820   0.745 -0.9577 -0.6517 -0.3839
 4036SOL     OW13006   5.312   5.545   2.854  0.1015 -0.5483  0.3396
 4036SOL    HW113007   5.409   5.565   2.869  0.0547  0.0989 -0.1516
 4036SOL    HW213008   5.303   5.483   2.776  0.0489  0.8289 -0.7963
 4037SOL     OW13009   1.198   1.630   6.166 -0.3427 -0.2043 -0.1377
 4037SOL    HW113010   1.135   1.555   6.149  0.6314 -0.6678 -1.9753
 4037SOL    HW213011   1.238   1.661   6.079 -1.3533  3.0614  0.4179
 4038SOL     OW13012   4.906   3.506   0.434 -0.1167 -0.3665 -0.0264
 4038SOL    HW113013   4.894   3.453   0.351  0.9063 -1.0545  0.2390
 4038SOL    HW213014   4.972   3.460   0.494  1.0372  1.3161  0.0928
 4039SOL     OW13015   4.064   5.607   1.432 -0.4264  0.2573 -0.2464
 4039SOL    HW113016   4.158   5.575   1.439 -0.2832  0.5555 -0.7392
 4039SOL    HW213017   4.045   5.674   1.503 -0.1061  0.5855 -0.4695
 4040SOL     OW13018   4.139   5.192   6.160  0.0069  0.1167 -0.2240
 4040SOL    HW113019   4.108   5.226   6.249  0.6436  1.0069 -0.3293
 4040SOL    HW213020   4.092   5.241   6.087  0.6687  0.5327 -0.3759
 4041SOL     OW13021   1.215   5.419   1.178 -0.5277  0.2225 -0.3980
 4041SOL    HW113022   1.283   5.351   1.208 -2.7828 -1.4945  1.1701
 4041SOL    HW213023   1.191   5.479   1.255 -2.0486 -0.3717 -0.3685
 4042SOL     OW13024   6.684   5.754   3.760  0.2994 -0.0641 -0.5096
 4042SOL    HW113025   6.710   5.808   3.840 -1.2658  0.7497 -0.5106
 4042SOL    HW213026   6.741   5.780   3.683  2.2200 -1.2639  0.4344
 4043SOL     OW13027   6.928   3.798   5.354 -0.0438  0.4744  0.3991
 4043SOL    HW113028   7.014   3.748   5.356 -1.6137 -2.6011 -1.2133
 4043SOL    HW213029   6.910   3.831   5.261 -0.9919  0.2798  0.5002
 4044SOL     OW13030   3.598   6.294   3.619  0.2229 -0.2781 -0.1321
 4044SOL    HW113031   3.602   6.201   3.581  0.4146 -0.5220  0.4755
 4044SOL    HW213032   3.623   6.291   3.716 -0.7637  0.2672  0.1439
 4045SOL     OW13033   5.880   5.605   5.314  0.1296 -0.6191  0.1503
 4045SOL    HW113034   5.827   5.522   5.293 -0.4053 -0.2739  0.0985
 4045SOL    HW213035   5.817   5.681   5.332  0.6023  0.1410 -1.2441
 4046SOL     OW13036   0.954   1.153   4.716 -0.3014  0.6365 -0.0935
 4046SOL    HW113037   0.895   1.221   4.674 -1.0390 -0.4800 -0.9376
 4046SOL    HW213038   1.044   1.194   4.736  0.2831  1.1454 -3.2279
 4047SOL     OW13039   3.486   1.849   1.353 -0.2043  0.1018  0.6920
 4047SOL    HW113040   3.445   1.940   1.346  0.4826  0.3981  0.4512
 4047SOL    HW213041   3.524   1.838   1.445  2.2605  1.1860 -0.1119
 4048SOL     OW13042   5.774   0.409   1.989  0.1655 -0.0067  0.0337
 4048SOL    HW113043   5.764   0.509   1.991  1.2312  0.1144 -0.2675
 4048SOL    HW213044   5.684   0.368   1.978 -0.2105  0.9616 -0.7417
 4049SOL     OW13045   5.372   5.227   0.448  0.5461 -0.4755  0.1877
 4049SOL    HW113046   5.375   5.275   0.536  1.9774  0.6025 -0.3980
 4049SOL    HW213047   5.341   5.290   0.377 -1.5006 -1.5950  0.0288
 4050SOL     OW13048   2.727   1.742   2.425  0.3252  0.3113  0.5973
 4050SOL    HW113049   2.806   1.793   2.457  0.8992 -1.3889  2.0313
 4050SOL    HW213050   2.655   1.743   2.495  0.1455 -0.3793  0.4390
 4051SOL     OW13051   3.751   0.708   5.210  0.6078  0.6648 -0.8569
 4051SOL    HW113052   3.685   0.633   5.216  0.6986  0.6152 -0.4091
 4051SOL    HW213053   3.842   0.675   5.233  0.3257  1.3183  1.5000
 4052SOL     OW13054   0.847   0.852   2.666 -0.3622  0.0327  0.2297
 4052SOL    HW113055   0.897   0.932   2.634  0.2921  1.1492  3.5952
 4052SOL    HW213056   0.910   0.776   2.680 -0.6277 -0.4156 -0.8749
 4053SOL     OW13057   2.587   1.478   5.366 -0.2231  0.1761  0.2054
 4053SOL    HW113058   2.580   1.494   5.465 -0.5106 -1.0024  0.3842
 4053SOL    HW213059   2.496   1.478   5.325 -0.1574 -0.0382  0.0552
 4054SOL     OW13060   5.295   3.738   0.218 -0.4290 -0.2577  0.0202
 4054SOL    HW113061   5.273   3.769   0.126 -1.4897  0.0059  0.3484
 4054SOL    HW213062   5.342   3.812   0.267 -0.3887 -0.1925 -0.1161
 4055SOL     OW13063   2.558   3.788   1.117 -0.6062  0.0423  0.6029
 4055SOL    HW113064   2.503   3.780   1.034  0.3622 -1.2252  0.0538
 4055SOL    HW213065   2.627   3.716   1.119 -0.0436  0.5721  2.0981
 4056SOL     OW13066   6.220   5.264   5.627  0.2442 -0.6750  0.1192
 4056SOL    HW113067   6.149   5.194   5.638 -1.8274  1.0643 -1.3504
 4056SOL    HW213068   6.238   5.278   5.530  1.4148  0.0874  0.4311
 4057SOL     OW13069   6.408   2.928   0.955  0.3685  0.1392  0.3205
 4057SOL    HW113070   6.423   2.874   0.873 -0.4908  0.9640 -0.4032
 4057SOL    HW213071   6.347   3.005   0.934 -0.2290  0.1116  1.8289
 4058SOL     OW13072   3.975   5.764   3.597 -0.3839 -0.0484 -0.5487
 4058SOL    HW113073   4.060   5.767   3.545 -0.2168  3.8465 -0.3209
 4058SOL    HW213074   3.911   5.833   3.562 -1.4281  0.6472  2.4123
 4059SOL     OW13075   1.490   1.120   2.617  0.6567 -0.5531 -0.0461
 4059SOL    HW113076   1.473   1.034   2.665  1.4873  0.2339  1.7652
 4059SOL    HW213077   1.584   1.150   2.636  0.6132  0.3895 -1.2474
 4060SOL     OW13078   5.379   1.548   6.156  0.2221  0.4540  0.0111
 4060SOL    HW113079   5.433   1.465   6.164  0.0759  0.4100  0.5516
 4060SOL    HW213080   5.396   1.590   6.067  1.6059  0.7744  0.4021
 4061SOL     OW13081   1.417   3.703   3.093  0.0302 -0.5295  0.5449
 4061SOL    HW113082   1.320   3.725   3.099  0.5994  2.1601  1.4418
 4061SOL    HW213083   1.433   3.611   3.127 -2.2946 -1.4260 -0.5788
 4062SOL     OW13084   0.698   1.103   1.159  0.0975 -0.2555 -0.1578
 4062SOL    HW113085   0.781   1.072   1.205 -0.0931 -0.0761  0.3192
 4062SOL    HW213086   0.628   1.032   1.165  0.6294 -0.9627 -1.7341
 4063SOL     OW13087   0.080   0.946   0.779  0.3450  0.3462  0.3626
 4063SOL    HW113088   0.106   1.024   0.722  0.1865  0.3183  0.2508
 4063SOL    HW213089   0.140   0.941   0.858  0.0759  0.8524  0.6028
 4064SOL     OW13090   4.098   6.950   2.011 -0.0027 -0.0982  0.0440
 4064SOL    HW113091   4.035   6.874   1.996  0.7357 -0.4894 -1.2637
 4064SOL    HW213092   4.060   7.012   2.079 -2.4153  0.3648 -1.6125
 4065SOL     OW13093   0.711   5.516   3.226 -0.6395  0.1677 -0.6340
 4065SOL    HW113094   0.663   5.433   3.253  0.2047 -0.1640 -0.0785
 4065SOL    HW213095   0.730   5.514   3.128 -0.5899 -0.3255 -0.6176
 4066SOL     OW13096   6.658   3.009   4.446 -1.0350 -0.4617 -0.4728
 4066SOL    HW113097   6.586   3.049   4.389 -1.5225 -0.7951 -0.0963
 4066SOL    HW213098   6.645   2.911   4.454  0.1149 -0.7092 -1.3147
 4067SOL     OW13099   6.195   4.935   3.179 -0.3691 -0.3234 -0.3890
 4067SOL    HW113100   6.292   4.918   3.163  0.2314  0.7066  1.7344
 4067SOL    HW213101   6.143   4.918   3.095  1.3551 -2.7991 -1.0646
 4068SOL     OW13102   2.133   0.505   3.771 -0.1489 -0.3349  0.6395
 4068SOL    HW113103   2.226   0.473   3.753  0.0367  0.2461  0.5355
 4068SOL    HW213104   2.086   0.520   3.684 -0.4498 -0.9316  0.6958
 4069SOL     OW13105   2.738   5.008   6.140 -0.4002  0.2094 -0.3029
 4069SOL    HW113106   2.825   4.991   6.092 -0.6734 -2.2869  0.0109
 4069SOL    HW213107   2.731   5.106   6.159  2.1160  0.5656 -0.7714
 4070SOL     OW13108   0.510   2.515   3.819 -0.3971 -0.4442 -0.3267
 4070SOL    HW113109   0.441   2.507   3.891  0.4913 -1.8209  0.4192
 4070SOL    HW213110   0.562   2.430   3.813 -0.9411 -0.6843 -3.1530
 4071SOL     OW13111   0.425   2.747   0.014  0.3899 -0.5538 -0.3962
 4071SOL    HW113112   0.484   2.682  -0.034 -0.3947  0.3164 -2.6753
 4071SOL    HW213113   0.394   2.706   0.100  1.6578 -2.3001 -0.7091
 4072SOL     OW13114   0.218   4.908   3.100 -0.0426  0.6134 -0.1461
 4072SOL    HW113115   0.244   4.941   3.191  0.4858 -0.0394 -0.0497
 4072SOL    HW213116   0.277   4.951   3.031  3.9436 -3.3472  0.3205
 4073SOL     OW13117   2.537   0.204   0.328 -0.1476 -0.2749 -0.4442
 4073SOL    HW113118   2.492   0.115   0.314 -0.3400 -0.5759  1.6855
 4073SOL    HW213119   2.488   0.254   0.400  1.4141  0.4937  0.1166
 4074SOL     OW13120   5.272   4.740   1.284  0.0221 -0.3646 -0.3378
 4074SOL    HW113121   5.362   4.776   1.309  0.0914 -1.9815  2.0941
 4074SOL    HW213122   5.201   4.789   1.337 -0.0898 -1.9521  1.0708
 4075SOL     OW13123   5.594   3.758   6.961 -0.0073  0.0768 -0.1136
 4075SOL    HW113124   5.522   3.692   6.939  0.9875 -0.7488 -1.0558
 4075SOL    HW213125   5.591   3.780   7.058  0.4520 -2.4143  0.5380
 4076SOL     OW13126   1.671   2.783   0.145  0.3568  0.0540  0.0562
 4076SOL    HW113127   1.717   2.783   0.234  0.5317 -1.2531 -0.0101
 4076SOL    HW213128   1.623   2.870   0.132  0.1391  0.1838  1.5216
 4077SOL     OW13129   3.488   1.709   6.840 -0.1589  0.0331  0.2903
 4077SOL    HW113130   3.507   1.786   6.901 -0.0256 -1.0915  1.7420
 4077SOL    HW213131   3.398   1.670   6.863  0.1601 -0.7859  0.1829
 4078SOL     OW13132   1.324   6.942   1.402  0.4492  0.4950  0.2212
 4078SOL    HW113133   1.272   6.856   1.405 -0.9430  1.3156  0.5995
 4078SOL    HW213134   1.307   6.994   1.485  0.3799  1.6361 -0.4804
 4079SOL     OW13135   2.055   3.033   1.713  0.4362  0.0920  0.4723
 4079SOL    HW113136   2.124   3.104   1.703  0.8277 -0.3905 -0.3916
 4079SOL    HW213137   2.087   2.949   1.669 -2.0426  0.7691 -3.0571
 4080SOL     OW13138   3.572   3.604   5.067 -0.1170 -0.1762  1.2194
 4080SOL    HW113139   3.560   3.582   4.971  0.5187 -0.1393  1.1307
 4080SOL    HW213140   3.653   3.558   5.103 -0.5468 -0.4793  1.8335
 4081SOL     OW13141   1.137   3.916   3.578 -0.5033  0.2871 -0.4328
 4081SOL    HW113142   1.042   3.936   3.601 -0.1829  1.3143  0.0520
 4081SOL    HW213143   1.194   3.922   3.660  0.3811  2.2558 -1.1066
 4082SOL     OW13144   1.998   2.888   6.200 -0.1384  0.6117  0.3338
 4082SOL    HW113145   2.053   2.886   6.283 -1.8506 -2.0672  1.5398
 4082SOL    HW213146   1.903   2.862   6.222 -0.7309  0.1718 -2.3771
 4083SOL     OW13147   6.109   2.277   2.238 -0.4860  0.7478 -0.0590
 4083SOL    HW113148   6.100   2.232   2.326  0.4546 -1.6199 -1.0864
 4083SOL    HW213149   6.070   2.219   2.166  0.5668  1.6709 -1.4432
 4084SOL     OW13150   4.975   1.420   6.685  0.4105  1.0103 -0.0699
 4084SOL    HW113151   4.943   1.346   6.626 -2.6988  1.4897  0.8321
 4084SOL    HW213152   5.065   1.396   6.723  1.2289 -0.5255 -2.7137
 4085SOL     OW13153   1.868   5.877   1.545  0.5807 -0.3927 -0.7182
 4085SOL    HW113154   1.872   5.843   1.639 -1.0632 -0.7136 -0.7273
 4085SOL    HW213155   1.960   5.879   1.506  1.0940 -1.9438  0.3130
 4086SOL     OW13156   1.230   4.903   1.548  0.5468 -0.1029 -0.4510
 4086SOL    HW113157   1.167   4.935   1.619  0.6968 -0.4556 -0.1552
 4086SOL    HW213158   1.317   4.953   1.556  1.2038 -1.3563  0.7593
 4087SOL     OW13159   2.373   1.715   4.220 -0.5823 -0.1756  0.0593
 4087SOL    HW113160   2.471   1.693   4.213 -0.6554 -0.7889  0.7855
 4087SOL    HW213161   2.348   1.778   4.147 -0.1867 -1.9320 -1.6762
 4088SOL     OW13162   0.278   1.228   0.253  0.0037  0.1601 -0.0061
 4088SOL    HW113163   0.262   1.251   0.157 -0.3134 -0.7969 -0.1898
 4088SOL    HW213164   0.240   1.300   0.311 -0.2709  0.4854 -0.5813
 4089SOL     OW13165   6.694   5.578   5.106  0.2120 -0.3510 -0.0723
 4089SOL    HW113166   6.619   5.637   5.137  1.1014  1.2571 -0.8292
 4089SOL    HW213167   6.722   5.518   5.180 -2.0889 -1.3124  0.0981
 4090SOL     OW13168   1.159   4.427   0.845 -0.0023  0.1524  0.2984
 4090SOL    HW113169   1.087   4.494   0.825  0.1408 -0.3238 -2.1377
 4090SOL    HW213170   1.206   4.403   0.760  1.5544 -1.2477  1.4960
 4091SOL     OW13171   0.534   6.508   1.269 -0.4380  0.5756 -0.3163
 4091SOL    HW113172   0.563   6.589   1.320  0.4467  0.3950 -0.5212
 4091SOL    HW213173   0.459   6.533   1.207 -1.7605  0.7300  1.2720
 4092SOL     OW13174   5.927   2.658   0.075  0.1499 -0.3475 -0.2786
 4092SOL    HW113175   5.941   2.648   0.174 -2.6305  0.4687  0.2744
 4092SOL    HW213176   5.923   2.567   0.033 -1.6741 -0.8680  0.9007
 4093SOL     OW13177   4.697   0.218   4.742 -0.2873  0.1666 -0.0118
 4093SOL    HW113178   4.629   0.257   4.804  0.2153  0.7861  0.1544
 4093SOL    HW213179   4.671   0.124   4.720 -1.6890  0.6935 -0.6917
 4094SOL     OW13180   2.021   5.219   4.547 -0.0799  0.1536 -0.1146
 4094SOL    HW113181   2.066   5.131   4.559 -0.8690 -0.1738  0.5753
 4094SOL    HW213182   1.933   5.217   4.594  0.6804  1.9186  1.5245
 4095SOL     OW13183   1.592   4.619   0.152 -0.1086 -0.5158 -0.0483
 4095SOL    HW113184   1.570   4.641   0.247  1.4101 -2.4299  0.8280
 4095SOL    HW213185   1.650   4.691   0.114 -1.4784  0.7267  0.1188
 4096SOL     OW13186   5.910   5.635   5.781 -0.1256 -0.6263  0.5992
 4096SOL    HW113187   5.909   5.735   5.788  0.0783 -0.4498 -1.3644
 4096SOL    HW213188   6.005   5.603   5.775 -0.1730 -0.9888  1.6731
 4097SOL     OW13189   4.052   4.729   5.981  0.0575 -0.4035  0.1605
 4097SOL    HW113190   4.102   4.810   6.012  0.4658 -0.3257 -0.6650
 4097SOL    HW213191   4.116   4.659   5.949 -0.3244 -0.5320 -0.3613
 4098SOL     OW13192   1.661   2.035   1.702  0.6834 -0.0910  0.0378
 4098SOL    HW113193   1.672   2.123   1.656 -1.1951  0.4718  0.5830
 4098SOL    HW213194   1.708   1.963   1.649 -1.3846  0.4982 -2.8127
 4099SOL     OW13195   3.580   4.475   1.269  0.0786  0.4713  0.0112
 4099SOL    HW113196   3.544   4.527   1.347  0.9665 -1.1146  1.5580
 4099SOL    HW213197   3.552   4.519   1.184 -2.9525  0.9809  1.1478
 4100SOL     OW13198   1.133   6.108   1.703 -0.0592  0.0347  0.5236
 4100SOL    HW113199   1.083   6.101   1.617  0.6251  3.3302 -0.2725
 4100SOL    HW213200   1.069   6.101   1.780 -1.0173 -0.5510 -0.3041
 4101SOL     OW13201   0.694   0.537   6.967  0.0190  0.0945 -0.0561
 4101SOL    HW113202   0.762   0.609   6.983 -0.2286  0.4478 -0.5776
 4101SOL    HW213203   0.722   0.454   7.016  1.5443 -0.2019 -1.3360
 4102SOL     OW13204   6.529   0.090   0.597  0.2840  0.4896  0.4480
 4102SOL    HW113205   6.571   0.070   0.508  0.6662  2.4939  0.1279
 4102SOL    HW213206   6.542   0.013   0.658  0.8824 -0.5371 -0.9289
 4103SOL     OW13207   6.831   1.149   0.336 -0.6533  0.6387  0.0773
 4103SOL    HW113208   6.789   1.060   0.353  0.9431 -0.0365  0.6561
 4103SOL    HW213209   6.916   1.136   0.286 -0.5670  1.8909 -0.1334
 4104SOL     OW13210   2.057   4.889   2.633  0.0635 -0.2630  0.1590
 4104SOL    HW113211   2.093   4.975   2.670  1.1297 -0.2251 -0.8962
 4104SOL    HW213212   2.133   4.831   2.604 -0.6587 -1.4258  0.5174
 4105SOL     OW13213   2.551   0.355   0.908 -0.2271 -0.7417 -0.1493
 4105SOL    HW113214   2.453   0.367   0.895 -0.2293 -1.7476 -1.2363
 4105SOL    HW213215   2.570   0.336   1.005 -1.0046  0.2000  0.1950
 4106SOL     OW13216   5.171   4.692   2.332  0.0567 -0.0410 -0.3507
 4106SOL    HW113217   5.161   4.752   2.411  1.1607  1.7463 -1.5068
 4106SOL    HW213218   5.114   4.726   2.257  0.1472 -0.8668 -0.8044
 4107SOL     OW13219   1.028   5.260   1.049  0.0708 -0.8703 -0.2475
 4107SOL    HW113220   1.108   5.308   1.084  0.1528 -0.3607 -1.1070
 4107SOL    HW213221   1.048   5.222   0.959 -0.6682 -0.6647 -0.5124
 4108SOL     OW13222   0.080   4.505   5.999 -0.0172  0.4132  0.0822
 4108SOL    HW113223   0.033   4.458   5.925 -1.0909  0.9468  0.4001
 4108SOL    HW213224   0.015   4.562   6.049  0.8072  0.5443  1.0524
 4109SOL     OW13225   6.438   6.145   4.643  0.1468  0.2575  0.1246
 4109SOL    HW113226   6.370   6.105   4.581  0.5614 -0.1009 -0.1124
 4109SOL    HW213227   6.404   6.142   4.737 -0.9205  1.7135 -0.1744
 4110SOL     OW13228   4.282   4.290   6.015  0.5010 -0.1070  0.2175
 4110SOL    HW113229   4.379   4.308   5.997  0.3470  1.7366  1.0429
 4110SOL    HW213230   4.264   4.295   6.113 -0.6174  0.6303 -0.0050
 4111SOL     OW13231   3.718   4.262   0.978 -0.0363  0.1830  0.2452
 4111SOL    HW113232   3.627   4.264   1.019  0.0212 -2.8391  0.7178
 4111SOL    HW213233   3.786   4.243   1.048  0.6565 -0.1044 -0.4897
 4112SOL     OW13234   4.208   0.553   5.308  0.2304  0.5305  0.5497
 4112SOL    HW113235   4.134   0.497   5.345  0.5398  0.1276  0.5581
 4112SOL    HW213236   4.176   0.598   5.224 -0.1514  0.6734  0.7671
 4113SOL     OW13237   6.215   6.864   3.344  0.4045  0.2453  0.3253
 4113SOL    HW113238   6.242   6.915   3.262 -0.3327  1.0158  0.5364
 4113SOL    HW213239   6.249   6.771   3.339 -0.8051 -0.1563 -1.5404
 4114SOL     OW13240   4.513   1.395   4.639  0.1845 -0.5797  0.1107
 4114SOL    HW113241   4.518   1.493   4.655 -0.1666 -0.6305  0.5401
 4114SOL    HW213242   4.543   1.375   4.545 -2.0821  0.1873 -0.8512
 4115SOL     OW13243   4.631   5.464   4.903 -0.1827  0.3031 -0.2635
 4115SOL    HW113244   4.552   5.417   4.943 -0.4986  0.6758 -0.4459
 4115SOL    HW213245   4.623   5.562   4.918 -0.7383  0.5427 -1.9653
 4116SOL     OW13246   5.261   1.114   1.193  0.0116  0.0295 -0.0521
 4116SOL    HW113247   5.302   1.162   1.116  0.5054 -0.8355 -0.3418
 4116SOL    HW213248   5.233   1.022   1.164  1.0827 -0.6643  1.0156
 4117SOL     OW13249   2.781   5.911   1.077  0.1821  0.3821  0.2019
 4117SOL    HW113250   2.868   5.866   1.061 -0.2439 -1.4410  2.4904
 4117SOL    HW213251   2.747   5.888   1.168 -1.7466  2.6718  0.1875
 4118SOL     OW13252   0.267   5.923   0.354  0.4751  0.2182 -0.3037
 4118SOL    HW113253   0.240   5.829   0.370  1.8860 -0.8215 -3.2913
 4118SOL    HW213254   0.200   5.967   0.294  0.2767  0.8358  0.3647
 4119SOL     OW13255   3.623   0.587   3.952 -0.3857 -0.6668  0.3106
 4119SOL    HW113256   3.681   0.667   3.967  0.9198 -1.2787 -1.1834
 4119SOL    HW213257   3.588   0.554   4.039  1.3372 -0.1346  1.2409
 4120SOL     OW13258   2.871   6.693   0.265 -0.0851 -0.7910  0.5121
 4120SOL    HW113259   2.793   6.744   0.231  0.9526  0.0838 -0.6659
 4120SOL    HW213260   2.874   6.603   0.221 -0.5004 -0.8675  0.6450
 4121SOL     OW13261   6.148   1.554   4.834 -0.3342 -0.4918 -0.0888
 4121SOL    HW113262   6.177   1.459   4.840 -0.8463 -0.5704  1.7447
 4121SOL    HW213263   6.227   1.612   4.812  0.5454 -1.0773  1.3622
 4122SOL     OW13264   6.981   5.872   5.595 -0.6331  0.0971  0.1947
 4122SOL    HW113265   6.930   5.945   5.641 -0.4885  1.0774 -1.1557
 4122SOL    HW213266   7.076   5.874   5.626 -0.5754  0.6370 -0.0080
 4123SOL     OW13267   5.283   4.164   6.258  0.7713 -0.1013 -0.2600
 4123SOL    HW113268   5.332   4.077   6.263 -0.3178 -0.7282 -0.0719
 4123SOL    HW213269   5.218   4.170   6.334 -0.5528 -0.0020 -1.3767
 4124SOL     OW13270   6.345   6.314   0.296 -0.0191 -0.0195  0.1159
 4124SOL    HW113271   6.280   6.389   0.311  1.7547  1.7119 -0.2838
 4124SOL    HW213272   6.339   6.249   0.371 -0.0070  1.8241  1.8235
 4125SOL     OW13273   4.199   6.806   2.283  0.0230 -0.1022  0.2076
 4125SOL    HW113274   4.257   6.735   2.322  1.7703  0.5621 -1.0816
 4125SOL    HW213275   4.233   6.832   2.193 -1.6618  1.0917 -0.1415
 4126SOL     OW13276   6.150   4.465   4.140  0.4376 -0.0439  0.4111
 4126SOL    HW113277   6.111   4.436   4.053  2.7988 -3.4751  0.2980
 4126SOL    HW213278   6.243   4.500   4.124  0.3640  0.6599  1.4304
 4127SOL     OW13279   4.309   4.273   5.651 -0.2136  0.3219 -0.7056
 4127SOL    HW113280   4.300   4.174   5.663 -0.8567  0.1733 -2.1622
 4127SOL    HW213281   4.406   4.297   5.641  0.0224 -0.0165  0.5659
 4128SOL     OW13282   1.983   3.751   1.491 -0.2803 -0.4622  0.6578
 4128SOL    HW113283   2.071   3.709   1.468 -0.0228  0.8023 -0.7894
 4128SOL    HW213284   2.000   3.841   1.532 -0.9051  0.2485 -0.6069
 4129SOL     OW13285   4.860   1.858   0.438  0.2553  0.1265  0.2762
 4129SOL    HW113286   4.833   1.807   0.519 -0.4724 -1.4691 -0.9136
 4129SOL    HW213287   4.783   1.914   0.406 -0.0522 -0.5895 -0.2759
 4130SOL     OW13288   4.977   0.257   4.752  0.1166 -0.8732 -0.2902
 4130SOL    HW113289   4.884   0.223   4.741 -0.4876 -0.0941  1.8480
 4130SOL    HW213290   4.978   0.329   4.822  2.0746  0.3041 -1.4548
 4131SOL     OW13291   0.829   0.313   3.365  0.7233  0.0174  0.0992
 4131SOL    HW113292   0.871   0.226   3.337 -0.5588 -0.1416 -1.4636
 4131SOL    HW213293   0.773   0.298   3.446 -0.1436 -0.8213 -0.6323
 4132SOL     OW13294   3.663   5.401   3.741 -0.1789 -0.7419 -0.1336
 4132SOL    HW113295   3.653   5.346   3.824 -1.2048  1.3035  1.1942
 4132SOL    HW213296   3.753   5.443   3.739 -0.8440  0.8325  1.0731
 4133SOL     OW13297   3.551   6.589   0.811  0.1138 -0.4842  0.0238
 4133SOL    HW113298   3.587   6.681   0.793  1.8658 -1.2450 -0.6544
 4133SOL    HW213299   3.494   6.590   0.893  2.6880  0.6460  1.9188
 4134SOL     OW13300   1.673   1.752   5.910  0.2038  0.0367 -0.1793
 4134SOL    HW113301   1.664   1.779   5.814  1.0046 -0.0892 -0.2989
 4134SOL    HW213302   1.742   1.809   5.954  0.6463 -0.6483  0.0283
 4135SOL     OW13303   2.164   1.808   3.482 -0.1149  1.0428 -0.5250
 4135SOL    HW113304   2.191   1.891   3.531 -1.3058  1.9099 -1.3064
 4135SOL    HW213305   2.067   1.790   3.497 -0.2015  0.5968 -1.5276
 4136SOL     OW13306   2.008   1.421   3.567  0.1653 -0.0823 -0.8825
 4136SOL    HW113307   1.947   1.395   3.492  0.5468  1.9451 -1.9528
 4136SOL    HW213308   1.975   1.505   3.610  0.7746 -0.4100  0.2676
 4137SOL     OW13309   6.730   5.504   1.171 -0.3759 -0.2839  0.2292
 4137SOL    HW113310   6.792   5.575   1.138 -0.5300  0.3482  1.2699
 4137SOL    HW213311   6.705   5.444   1.094  5.1640 -3.4896  0.3212
 4138SOL     OW13312   5.024   4.411   4.060 -0.0061  0.0114 -0.4778
 4138SOL    HW113313   5.114   4.454   4.057  0.4792 -0.2298  3.9300
 4138SOL    HW213314   5.033   4.314   4.039  1.0763 -0.2406  0.9343
 4139SOL     OW13315   1.400   1.700   4.899  0.4487 -0.1364 -0.2996
 4139SOL    HW113316   1.463   1.739   4.966  1.7520  1.6518 -2.4218
 4139SOL    HW213317   1.365   1.612   4.933  1.8245  0.1949  2.2122
 4140SOL     OW13318   2.971   7.022   5.369 -0.4717  0.1415 -0.1913
 4140SOL    HW113319   2.880   6.987   5.390 -0.0736 -0.5513  0.4859
 4140SOL    HW213320   3.039   6.954   5.398  0.2644  0.7514 -0.4626
 4141SOL     OW13321   5.752   0.681   2.340 -0.0469  0.2943 -0.0281
 4141SOL    HW113322   5.817   0.702   2.413  0.1345 -1.3688  0.3132
 4141SOL    HW213323   5.738   0.763   2.283  1.4660  0.9925  0.5689
 4142SOL     OW13324   0.971   0.005   3.637 -0.2464 -0.4783  0.2581
 4142SOL    HW113325   0.877  -0.029   3.645 -0.7510  0.9589  0.7681
 4142SOL    HW213326   0.971   0.105   3.647  1.3270 -0.4486  0.1575
 4143SOL     OW13327   6.116   3.409   1.176  0.6320  0.0989  0.4946
 4143SOL    HW113328   6.138   3.423   1.080 -1.2639 -0.2415 -0.0326
 4143SOL    HW213329   6.137   3.493   1.227  1.5112  0.3349 -0.2380
 4144SOL     OW13330   4.076   2.074   5.440  0.0852  0.0677 -0.2605
 4144SOL    HW113331   4.011   2.048   5.511  1.3071  1.4379  1.4656
 4144SOL    HW213332   4.151   2.008   5.437  1.3179  1.2958  1.5639
 4145SOL     OW13333   6.898   0.583   1.074 -0.8220  0.4132 -0.4821
 4145SOL    HW113334   6.894   0.526   0.992 -0.1488  0.9553 -0.9110
 4145SOL    HW213335   6.922   0.677   1.048  0.8516  0.2861  0.4551
 4146SOL     OW13336   6.477   6.860   6.100 -0.2000  0.0217  1.1554
 4146SOL    HW113337   6.451   6.846   6.196 -3.8338 -0.4795  0.2248
 4146SOL    HW213338   6.489   6.958   6.084  0.7961  0.0857  2.1796
 4147SOL     OW13339   5.328   2.462   5.128 -0.5967 -0.6913  0.1225
 4147SOL    HW113340   5.306   2.383   5.071  0.8813 -0.0310 -1.4414
 4147SOL    HW213341   5.287   2.544   5.090 -0.3738 -0.3825  0.5351
 4148SOL     OW13342   2.873   0.903   3.766  0.2455 -0.0338  0.0350
 4148SOL    HW113343   2.832   0.842   3.834  1.4206 -1.9680 -0.9036
 4148SOL    HW213344   2.961   0.935   3.799  0.3067 -0.0614 -0.1003
 4149SOL     OW13345   3.536   2.396   0.290  0.2721  0.0937  0.0189
 4149SOL    HW113346   3.590   2.316   0.318  0.9696  0.3624 -0.5441
 4149SOL    HW213347   3.570   2.431   0.203 -0.3039  0.7560  0.0505
 4150SOL     OW13348   2.847   0.652   0.290  0.0499  0.1043  0.1815
 4150SOL    HW113349   2.846   0.572   0.350  0.0159  0.3263  0.4819
 4150SOL    HW213350   2.828   0.624   0.196  1.2285 -0.4072  0.0696
 4151SOL     OW13351   5.591   6.200   0.289  0.0662 -0.4636  0.2744
 4151SOL    HW113352   5.556   6.192   0.382 -1.0830  1.5039  0.0719
 4151SOL    HW213353   5.681   6.157   0.283  0.2457 -0.4481  2.3456
 4152SOL     OW13354   1.495   5.312   3.017  0.5163  0.0459 -0.0237
 4152SOL    HW113355   1.512   5.305   3.115  0.0386 -0.7151  0.0174
 4152SOL    HW213356   1.532   5.230   2.972 -0.6413 -0.3566 -0.2694
 4153SOL     OW13357   5.946   5.611   1.139  0.6173  0.3125 -0.1595
 4153SOL    HW113358   5.950   5.648   1.046 -2.1207  0.1692 -0.4101
 4153SOL    HW213359   6.015   5.540   1.150  0.0036 -0.7391 -2.5808
 4154SOL     OW13360   6.572   4.950   3.242  0.1996 -0.2735  0.0985
 4154SOL    HW113361   6.623   4.930   3.159 -1.4424 -0.3367 -0.9253
 4154SOL    HW213362   6.622   4.913   3.321  1.3723 -0.9474 -0.9206
 4155SOL     OW13363   5.961   4.023   1.471 -0.1914  0.0627 -0.2916
 4155SOL    HW113364   6.053   4.043   1.503 -0.3122 -0.3518  0.3324
 4155SOL    HW213365   5.963   3.999   1.374  0.2005  1.1863 -0.5757
 4156SOL     OW13366   4.782   0.161   6.770 -0.2900  0.2947  0.2960
 4156SOL    HW113367   4.809   0.182   6.864  0.3278 -1.7532  0.6450
 4156SOL    HW213368   4.683   0.168   6.762 -0.3628  0.4039  1.1419
 4157SOL     OW13369   3.439   5.964   4.252  0.2059  1.0457  0.1993
 4157SOL    HW113370   3.490   6.001   4.173  2.2551  0.2423  1.0799
 4157SOL    HW213371   3.433   5.865   4.244 -1.5349  1.1408 -0.0154
 4158SOL     OW13372   2.351   4.797   3.407 -0.1941  0.0396  0.8469
 4158SOL    HW113373   2.421   4.726   3.406  0.8094  0.9373  2.4091
 4158SOL    HW213374   2.393   4.884   3.432 -1.4934  1.0858 -0.4048
 4159SOL     OW13375   1.696   4.805   4.994  0.4254  1.1250  0.4073
 4159SOL    HW113376   1.758   4.856   4.934  0.8242  0.4472  0.2441
 4159SOL    HW213377   1.630   4.755   4.938  1.8480 -0.8756  0.4331
 4160SOL     OW13378   6.727   2.147   1.492 -0.4810  0.1707  0.9550
 4160SOL    HW113379   6.645   2.160   1.547 -0.0736 -1.2810  1.9619
 4160SOL    HW213380   6.807   2.173   1.545 -0.2963  2.8582 -0.4722
 4161SOL     OW13381   1.502   0.829   5.632 -0.6663  0.0066 -0.0374
 4161SOL    HW113382   1.438   0.771   5.682 -1.4127  0.4280 -0.4843
 4161SOL    HW213383   1.453   0.906   5.591  0.1690  0.4831 -0.1747
 4162SOL     OW13384   6.068   6.391   6.828 -0.1310 -0.6645  0.0474
 4162SOL    HW113385   6.110   6.382   6.737  2.2217 -1.6271  1.1459
 4162SOL    HW213386   6.106   6.322   6.889 -0.8952  0.6094  2.0558
 4163SOL     OW13387   0.236   0.889   2.735 -0.7117  0.1282  0.6499
 4163SOL    HW113388   0.224   0.983   2.701 -1.3741 -0.3742 -0.5786
 4163SOL    HW213389   0.162   0.832   2.700 -0.1123 -0.9391  1.0917
 4164SOL     OW13390   2.639   4.431   6.193 -0.1927 -0.2702 -0.1260
 4164SOL    HW113391   2.623   4.473   6.104 -1.1690 -1.4874 -0.5521
 4164SOL    HW213392   2.737   4.429   6.212  0.0324 -0.1162 -1.2280
 4165SOL     OW13393   3.492   6.136   6.056 -0.5471  0.4820 -0.3025
 4165SOL    HW113394   3.473   6.102   6.149  1.5076 -0.8324 -0.2921
 4165SOL    HW213395   3.407   6.169   6.015 -1.5254  1.0866  2.0230
 4166SOL     OW13396   6.433   3.054   2.524  0.1229 -0.1175  0.7222
 4166SOL    HW113397   6.476   3.032   2.436 -1.0107 -0.1595  0.1590
 4166SOL    HW213398   6.394   3.146   2.519  1.5437  0.5671  1.7802
 4167SOL     OW13399   0.582   1.889   0.068 -0.0796  0.6578  0.7251
 4167SOL    HW113400   0.643   1.869  -0.009  0.9294  0.5851  1.5154
 4167SOL    HW213401   0.494   1.844   0.054  1.0103 -1.7231  0.8914
 4168SOL     OW13402   5.973   5.331   0.982 -0.0406  0.5528  0.0064
 4168SOL    HW113403   6.021   5.245   0.970  0.5664  0.9599 -0.5532
 4168SOL    HW213404   6.012   5.381   1.059 -0.6863  0.1378  0.6131
 4169SOL     OW13405   6.318   4.531   4.489 -0.0399 -0.4668 -0.0481
 4169SOL    HW113406   6.240   4.568   4.441 -0.8734 -1.5975  0.3832
 4169SOL    HW213407   6.288   4.488   4.574  1.1134 -0.4784  0.3793
 4170SOL     OW13408   3.518   4.016   5.915 -0.1105 -0.1142  0.0257
 4170SOL    HW113409   3.514   3.951   5.839 -0.5307  0.0705 -0.1148
 4170SOL    HW213410   3.488   4.106   5.883  1.7556  0.4953 -0.1236
 4171SOL     OW13411   5.367   4.411   1.114 -0.1915  0.0458 -0.5083
 4171SOL    HW113412   5.424   4.463   1.051 -1.2664  0.1579 -1.4320
 4171SOL    HW213413   5.416   4.329   1.144  0.6154  0.3711 -0.9198
 4172SOL     OW13414   6.526   1.505   5.997  0.0498  0.0571 -0.2039
 4172SOL    HW113415   6.488   1.503   6.090 -0.0783 -0.4434 -0.2663
 4172SOL    HW213416   6.528   1.413   5.960  0.2196  0.2416 -0.6556
 4173SOL     OW13417   4.880   4.346   5.475 -0.1457 -0.6900 -0.3534
 4173SOL    HW113418   4.848   4.368   5.383  0.2904  0.8646 -0.1597
 4173SOL    HW213419   4.972   4.381   5.488  0.5286 -2.5003  0.0950
 4174SOL     OW13420   5.879   2.272   4.863 -0.1080 -0.5607 -0.6937
 4174SOL    HW113421   5.908   2.263   4.958  0.6840 -0.5158 -0.9230
 4174SOL    HW213422   5.960   2.281   4.804 -0.5266 -1.9807 -1.5174
 4175SOL     OW13423   1.062   4.182   4.146  0.0631 -0.2359 -0.0138
 4175SOL    HW113424   1.120   4.201   4.226  2.6683 -3.6291 -0.8580
 4175SOL    HW213425   0.978   4.138   4.176  0.4684 -0.4080  0.9349
 4176SOL     OW13426   3.887   0.183   0.858 -0.5101  0.1382  0.6600
 4176SOL    HW113427   3.822   0.210   0.787 -0.8579 -0.2986  0.8036
 4176SOL    HW213428   3.922   0.091   0.839  0.3603  0.5196  0.3842
 4177SOL     OW13429   6.184   3.654   3.126 -0.0824  0.1093  0.2479
 4177SOL    HW113430   6.263   3.599   3.155 -0.2770 -0.2786  0.0592
 4177SOL    HW213431   6.106   3.633   3.184  0.4923  2.0588  1.8238
 4178SOL     OW13432   4.993   1.050   3.168  0.3071  0.0286 -0.0982
 4178SOL    HW113433   4.909   1.076   3.120 -0.3050 -0.8528  0.4726
 4178SOL    HW213434   5.067   1.112   3.141 -0.4697  0.6943 -0.7588
 4179SOL     OW13435   5.843   2.509   3.505  0.5853  0.3233 -0.7391
 4179SOL    HW113436   5.901   2.562   3.443  2.5769  0.1027  0.8264
 4179SOL    HW213437   5.808   2.569   3.578  0.1746  0.1215 -0.7661
 4180SOL     OW13438   5.173   4.873   1.886 -0.2428  0.0766 -0.2578
 4180SOL    HW113439   5.227   4.954   1.861  0.6446  0.0079  1.2929
 4180SOL    HW213440   5.235   4.796   1.902 -0.9568 -0.4860 -0.1745
 4181SOL     OW13441   3.406   1.581   6.138  0.0211  0.6466 -0.3329
 4181SOL    HW113442   3.406   1.622   6.047 -0.2797 -0.0610 -0.6615
 4181SOL    HW213443   3.420   1.482   6.130 -3.7658 -0.0726  0.0602
 4182SOL     OW13444   1.345   6.496   2.381 -0.0010 -0.2373 -0.1889
 4182SOL    HW113445   1.284   6.554   2.435 -0.3641 -0.1660 -0.6727
 4182SOL    HW213446   1.440   6.525   2.396 -0.0968 -0.2088  0.3948
 4183SOL     OW13447   3.048   6.286   1.033  0.0817 -0.0299 -0.2165
 4183SOL    HW113448   3.104   6.204   1.050  1.5737  1.2382  1.2332
 4183SOL    HW213449   2.953   6.258   1.019  0.2852 -1.9068  1.6696
 4184SOL     OW13450   4.197   6.204   1.427 -0.0773 -0.5540  0.0638
 4184SOL    HW113451   4.284   6.245   1.451  1.2147 -1.9350 -1.9117
 4184SOL    HW213452   4.172   6.134   1.494  0.9603 -0.9954 -0.0035
 4185SOL     OW13453   2.575   4.745   2.722  0.0346  0.0552  0.2614
 4185SOL    HW113454   2.483   4.710   2.738 -0.6282  0.8814 -1.4237
 4185SOL    HW213455   2.612   4.704   2.639  0.8854  0.3131  0.5027
 4186SOL     OW13456   4.129   2.225   0.433 -0.6503 -0.2522  0.8849
 4186SOL    HW113457   4.099   2.267   0.519 -1.9494  1.5244 -0.3858
 4186SOL    HW213458   4.089   2.273   0.356  2.0544 -0.5543 -0.8372
 4187SOL     OW13459   3.177   3.848   5.799 -0.3590  0.2622  0.3810
 4187SOL    HW113460   3.123   3.839   5.716  1.2484 -1.1894 -0.5916
 4187SOL    HW213461   3.274   3.846   5.776  0.1535 -1.1565  2.3380
 4188SOL     OW13462   6.098   6.267   3.275 -0.2154  0.1338 -0.7282
 4188SOL    HW113463   6.021   6.305   3.326  0.6131  1.0219 -0.1034
 4188SOL    HW213464   6.099   6.168   3.286 -0.9234  0.1700 -0.2419
 4189SOL     OW13465   2.984   6.172   5.728  0.4619 -0.3476 -0.1683
 4189SOL    HW113466   2.978   6.253   5.786 -0.1613  0.5722 -1.4764
 4189SOL    HW213467   2.934   6.097   5.770 -0.5401  0.4958  0.1872
 4190SOL     OW13468   2.118   0.294   6.420 -0.1044 -0.2542 -0.5591
 4190SOL    HW113469   2.033   0.343   6.440 -0.1502 -1.0625  1.5386
 4190SOL    HW213470   2.133   0.291   6.321 -2.2253  0.3718 -0.9466
 4191SOL     OW13471   0.692   4.657   2.178 -0.5446  0.0988 -0.1322
 4191SOL    HW113472   0.607   4.613   2.206 -0.5163  0.5231  0.6320
 4191SOL    HW213473   0.688   4.755   2.199  1.0541 -0.2603  2.2126
 4192SOL     OW13474   0.286   6.643   4.241 -0.8580 -0.2510 -0.5726
 4192SOL    HW113475   0.257   6.604   4.154  0.5062  0.8055 -1.5530
 4192SOL    HW213476   0.242   6.732   4.255 -0.0383  0.2126 -0.8680
 4193SOL     OW13477   1.754   6.947   2.213 -0.2285 -0.0833  0.6075
 4193SOL    HW113478   1.834   6.981   2.261 -0.8485  0.1512  1.5163
 4193SOL    HW213479   1.744   6.994   2.126 -0.8370  1.8058  1.6465
 4194SOL     OW13480   5.859   1.679   6.457 -0.7038  0.1349 -0.0881
 4194SOL    HW113481   5.834   1.680   6.360 -0.7947 -0.6701 -0.0858
 4194SOL    HW213482   5.793   1.622   6.507 -0.6311  0.5097  0.4423
 4195SOL     OW13483   2.888   6.910   3.461  0.1443 -0.3687  0.5843
 4195SOL    HW113484   2.912   6.970   3.537  0.5563  0.4956 -0.2139
 4195SOL    HW213485   2.955   6.920   3.387 -0.6625 -0.6351 -0.2053
 4196SOL     OW13486   4.331   2.435   3.190  0.1696 -0.2948 -0.2559
 4196SOL    HW113487   4.339   2.397   3.282  0.8961 -1.6830 -0.8671
 4196SOL    HW213488   4.242   2.411   3.151 -0.0206  0.0414 -0.0358
 4197SOL     OW13489   4.540   0.090   5.540  0.0437  0.2040  0.2090
 4197SOL    HW113490   4.616   0.029   5.562  0.3632  0.2909 -0.6194
 4197SOL    HW213491   4.575   0.182   5.523 -0.3250  0.3958  0.4805
 4198SOL     OW13492   5.266   3.788   6.430 -0.3050 -0.7708  0.2819
 4198SOL    HW113493   5.204   3.832   6.495 -0.2906 -1.4736  0.7805
 4198SOL    HW213494   5.355   3.834   6.433 -0.6281 -0.1153 -0.0322
 4199SOL     OW13495   1.308   4.265   6.560 -0.7124 -0.0766  0.1789
 4199SOL    HW113496   1.325   4.364   6.562  2.2698 -0.5088  0.8492
 4199SOL    HW213497   1.354   4.226   6.480 -0.3945 -1.1250  0.8658
 4200SOL     OW13498   3.523   5.152   5.695 -0.1146 -0.3492 -0.1536
 4200SOL    HW113499   3.447   5.118   5.639 -1.5634  0.1588  1.4151
 4200SOL    HW213500   3.532   5.251   5.682  1.1561 -0.5865 -1.2992
 4201SOL     OW13501   6.151   0.632   2.899  0.2837 -0.2784  0.3100
 4201SOL    HW113502   6.100   0.551   2.869 -1.3038 -0.0049  2.0612
 4201SOL    HW213503   6.226   0.649   2.836 -0.7907 -1.6921 -1.4701
 4202SOL     OW13504   3.950   5.087   5.693  0.4134 -0.2453  0.1609
 4202SOL    HW113505   4.042   5.061   5.724  0.1231 -0.1944  1.0804
 4202SOL    HW213506   3.882   5.050   5.756 -0.3401 -1.9391 -1.5300
 4203SOL     OW13507   4.331   5.063   1.766 -0.2798  0.2186  0.5050
 4203SOL    HW113508   4.307   5.160   1.776 -0.7326  0.1831 -0.1625
 4203SOL    HW213509   4.428   5.051   1.785 -0.2157  0.8112  0.5772
 4204SOL     OW13510   3.395   3.389   3.781 -0.4850  0.0011 -0.0377
 4204SOL    HW113511   3.412   3.466   3.842 -0.2027  1.1397 -1.4752
 4204SOL    HW213512   3.472   3.326   3.783  0.2885  0.9079 -0.4469
 4205SOL     OW13513   3.475   5.714   4.197  0.6417 -0.2070 -0.3747
 4205SOL    HW113514   3.386   5.679   4.168  0.5650 -1.2789  1.0174
 4205SOL    HW213515   3.533   5.728   4.117 -1.1397  1.6672 -1.4220
 4206SOL     OW13516   0.443   1.961   6.106 -0.0521 -0.3506  0.1630
 4206SOL    HW113517   0.417   2.013   6.188 -1.1616  0.6598 -0.7875
 4206SOL    HW213518   0.471   2.024   6.034  0.9524 -1.2314 -0.2375
 4207SOL     OW13519   2.396   3.124   1.097  0.0301 -0.3286  0.3374
 4207SOL    HW113520   2.360   3.214   1.074  2.2985  0.3017 -1.0646
 4207SOL    HW213521   2.402   3.115   1.197  0.3537  1.3523  0.5029
 4208SOL     OW13522   1.029   2.279   6.752 -0.1863 -0.2492 -0.0684
 4208SOL    HW113523   1.091   2.351   6.723  0.0206 -0.1712  0.5706
 4208SOL    HW213524   1.012   2.217   6.674  2.0595 -1.2765  0.1779
 4209SOL     OW13525   0.823   1.460   4.991 -0.5550 -0.1891  0.2919
 4209SOL    HW113526   0.761   1.422   4.923 -1.0275 -0.6279  0.9607
 4209SOL    HW213527   0.857   1.548   4.959 -0.9299 -0.2939 -0.4182
 4210SOL     OW13528   3.338   3.083   1.001 -0.2177 -0.4853 -0.5984
 4210SOL    HW113529   3.276   3.007   0.986  1.1930 -1.6672 -0.6776
 4210SOL    HW213530   3.397   3.063   1.080 -0.9469  1.2916  0.4636
 4211SOL     OW13531   5.268   5.113   6.461 -0.2547  0.5191 -0.2327
 4211SOL    HW113532   5.350   5.085   6.411  0.0733  1.6678 -0.3811
 4211SOL    HW213533   5.293   5.184   6.527 -0.8527 -0.2788  0.8961
 4212SOL     OW13534   5.974   2.961   1.341 -0.2410  0.1189  0.0661
 4212SOL    HW113535   5.876   2.954   1.360 -0.5846 -2.4479 -2.0288
 4212SOL    HW213536   6.025   2.906   1.407 -0.5813 -1.3105 -0.8180
 4213SOL     OW13537   4.075   0.269   4.541  0.7994  0.2616 -0.3316
 4213SOL    HW113538   4.122   0.181   4.537 -0.3947 -0.5952  2.1182
 4213SOL    HW213539   4.127   0.332   4.598 -1.1395 -0.9647  3.1192
 4214SOL     OW13540   6.859   4.834   6.603  0.6477 -0.0687 -0.4903
 4214SOL    HW113541   6.946   4.798   6.637  0.2510  0.6700  1.4248
 4214SOL    HW213542   6.795   4.758   6.588  1.3679 -0.5506 -1.2759
 4215SOL     OW13543   5.118   5.859   3.878 -0.4845  0.2938  0.4227
 4215SOL    HW113544   5.149   5.879   3.785 -1.4699  0.2904  0.0870
 4215SOL    HW213545   5.186   5.801   3.923  0.0139  0.3115 -0.2860
 4216SOL     OW13546   1.579   4.274   4.016 -0.0549  0.7301 -0.4026
 4216SOL    HW113547   1.649   4.339   4.044  0.0627  0.5485 -0.2701
 4216SOL    HW213548   1.539   4.303   3.929 -2.3418  2.7822  1.2100
 4217SOL     OW13549   6.969   6.201   2.894  0.3500 -0.2228 -0.1622
 4217SOL    HW113550   6.922   6.271   2.947 -0.1803 -1.8098  1.5892
 4217SOL    HW213551   7.050   6.170   2.944  0.3568 -1.1243 -0.7007
 4218SOL     OW13552   4.989   0.442   1.085  0.1723  0.2163  0.5161
 4218SOL    HW113553   5.067   0.412   1.140 -0.4255 -0.9332  0.7546
 4218SOL    HW213554   4.905   0.437   1.139 -0.0802  1.5658  0.3027
 4219SOL     OW13555   2.038   5.818   4.309 -0.1654 -0.1708  0.5116
 4219SOL    HW113556   2.002   5.726   4.293  2.1078 -1.0093 -0.2729
 4219SOL    HW213557   1.964   5.885   4.301 -1.5222 -1.7483 -0.9607
 4220SOL     OW13558   0.043   1.802   3.137  1.0413  0.0664 -0.1367
 4220SOL    HW113559  -0.021   1.808   3.061  1.4831  2.0544 -0.3916
 4220SOL    HW213560   0.128   1.849   3.113  2.3528 -1.8412  0.4854
 4221SOL     OW13561   5.117   4.410   0.436 -0.5391  0.0517  0.0816
 4221SOL    HW113562   5.110   4.406   0.336 -0.6701  0.7985  0.0592
 4221SOL    HW213563   5.176   4.486   0.462 -3.3924  2.2498  0.6590
 4222SOL     OW13564   5.038   2.571   3.185 -0.4509  0.0885  0.1085
 4222SOL    HW113565   4.997   2.551   3.274 -1.0520 -1.0719 -0.4067
 4222SOL    HW213566   5.072   2.487   3.144  0.5445  0.7242 -0.4313
 4223SOL     OW13567   3.157   3.041   5.072 -0.2099  0.2552 -0.1653
 4223SOL    HW113568   3.250   3.012   5.049 -0.3258  0.1606 -0.5260
 4223SOL    HW213569   3.111   3.075   4.990 -0.3967  0.5723  0.0696
 4224SOL     OW13570   5.938   2.866   2.834 -0.2360 -0.0651  0.1412
 4224SOL    HW113571   5.979   2.856   2.744 -1.0233 -1.3319 -0.1041
 4224SOL    HW213572   6.011   2.866   2.904  0.2577 -1.6164 -0.3243
 4225SOL     OW13573   6.043   6.694   4.393  0.0803  0.3617 -0.0093
 4225SOL    HW113574   5.999   6.649   4.471 -0.1990 -1.5903 -1.2142
 4225SOL    HW213575   6.124   6.642   4.365 -0.0386  0.7956 -1.2362
 4226SOL     OW13576   2.060   0.753   3.171 -0.0876  0.1704 -0.1756
 4226SOL    HW113577   2.144   0.754   3.227 -0.7606 -1.3204  0.9474
 4226SOL    HW213578   1.982   0.732   3.229 -0.9362 -0.6403 -1.5486
 4227SOL     OW13579   5.644   3.641   0.788  0.8687  0.6332 -0.2190
 4227SOL    HW113580   5.649   3.662   0.690  1.3165  0.2123 -0.2886
 4227SOL    HW213581   5.735   3.617   0.821  0.7664  1.0118  0.3589
 4228SOL     OW13582   5.793   3.483   3.639 -0.4899  0.2070  0.2065
 4228SOL    HW113583   5.779   3.578   3.665 -0.5315  0.3550 -0.3566
 4228SOL    HW213584   5.766   3.469   3.544  2.8645  0.4648 -0.9308
 4229SOL     OW13585   4.549   5.566   6.711  0.6220 -0.3363  0.1699
 4229SOL    HW113586   4.595   5.560   6.800 -0.7035  2.6124  1.1660
 4229SOL    HW213587   4.606   5.618   6.648 -0.2984  1.4380  0.7384
 4230SOL     OW13588   4.532   1.797   4.534  0.2780  0.2018  0.0651
 4230SOL    HW113589   4.541   1.875   4.471  0.2341  0.9234  0.9361
 4230SOL    HW213590   4.611   1.794   4.595  0.7117 -0.9734 -0.5216
 4231SOL     OW13591   6.724   5.421   3.608  0.0289 -0.2490 -0.1677
 4231SOL    HW113592   6.747   5.403   3.513 -0.2320 -0.2151 -0.2393
 4231SOL    HW213593   6.638   5.472   3.612 -0.6348 -1.3685  0.1310
 4232SOL     OW13594   6.065   0.016   2.265  0.3716  0.1172 -0.4420
 4232SOL    HW113595   6.059   0.103   2.216  1.4061  0.9345  0.8027
 4232SOL    HW213596   6.161  -0.008   2.279  0.1296 -0.0976  1.1008
 4233SOL     OW13597   1.163   0.473   6.190 -0.2435  0.1160  0.4557
 4233SOL    HW113598   1.218   0.394   6.216 -1.3069 -0.5248  0.8075
 4233SOL    HW213599   1.159   0.479   6.090 -1.0178 -0.9042  0.4156
 4234SOL     OW13600   2.722   4.994   5.320 -0.8268  0.3027 -0.1091
 4234SOL    HW113601   2.734   4.899   5.350  1.4429  0.6922  0.3672
 4234SOL    HW213602   2.649   5.036   5.374 -0.4144 -0.5630  1.1742
 4235SOL     OW13603   6.937   4.436   5.394  0.4137  0.0310 -0.5803
 4235SOL    HW113604   7.002   4.498   5.351  0.5289  0.6069  0.3840
 4235SOL    HW213605   6.922   4.464   5.489 -0.6986 -0.5120 -0.5717
 4236SOL     OW13606   6.957   3.474   2.334  0.5543  0.0496 -0.1688
 4236SOL    HW113607   7.016   3.407   2.379 -0.1725 -0.1333  0.5241
 4236SOL    HW213608   6.962   3.462   2.235  1.1572 -0.3978 -0.0899
 4237SOL     OW13609   6.344   6.173   5.677  0.8092  0.0379 -0.1592
 4237SOL    HW113610   6.247   6.173   5.653  1.0055  1.2796 -1.0606
 4237SOL    HW213611   6.381   6.081   5.665 -0.8185 -1.1387  2.8100
 4238SOL     OW13612   4.005   0.052   4.140 -0.5492 -0.3418 -0.0790
 4238SOL    HW113613   3.920   0.028   4.094 -0.2336  0.2814 -1.0166
 4238SOL    HW213614   3.994   0.042   4.239 -1.2951 -1.5497 -0.2695
 4239SOL     OW13615   6.491   5.915   4.000  0.3756 -0.4986  0.0359
 4239SOL    HW113616   6.589   5.904   3.989  0.6552  2.5310 -1.2489
 4239SOL    HW213617   6.451   5.949   3.915 -1.5312 -0.1165  1.0316
 4240SOL     OW13618   3.695   6.157   6.640 -0.0174 -0.2670 -0.2313
 4240SOL    HW113619   3.703   6.082   6.574 -0.4089  1.3587 -2.2248
 4240SOL    HW213620   3.635   6.129   6.715  0.0435 -2.0094 -0.7809
 4241SOL     OW13621   5.085   6.533   1.604  0.1410 -0.1309  0.1423
 4241SOL    HW113622   5.175   6.567   1.633  0.6727 -1.8207  0.6011
 4241SOL    HW213623   5.040   6.489   1.682 -0.1662 -1.1674 -0.6023
 4242SOL     OW13624   1.103   0.356   2.544  0.0194 -0.3781  0.6520
 4242SOL    HW113625   1.181   0.361   2.481  0.9995 -2.1322  1.6372
 4242SOL    HW213626   1.114   0.427   2.615 -1.6199  2.3040 -1.5581
 4243SOL     OW13627   1.247   3.234   2.612 -0.7106  0.6168 -0.4373
 4243SOL    HW113628   1.286   3.318   2.573  0.5117  0.8871  1.2627
 4243SOL    HW213629   1.221   3.251   2.707 -1.0398 -0.7731 -0.2653
 4244SOL     OW13630   3.167   5.741   2.417 -0.8256  0.6603  0.2598
 4244SOL    HW113631   3.231   5.678   2.372  0.4056  1.2944  1.0594
 4244SOL    HW213632   3.074   5.708   2.405 -0.3748 -0.2584 -1.0145
 4245SOL     OW13633   1.826   0.497   0.026  0.0622  0.0083 -0.1347
 4245SOL    HW113634   1.857   0.570  -0.036 -0.3176 -0.0277 -0.3719
 4245SOL    HW213635   1.886   0.418   0.018 -0.4451 -0.2967 -1.0549
 4246SOL     OW13636   6.159   1.918   4.971 -0.4314 -0.2391  0.1091
 4246SOL    HW113637   6.241   1.862   4.980 -0.7159 -0.8382 -0.8758
 4246SOL    HW213638   6.094   1.893   5.043 -0.4117 -0.9288 -0.1055
 4247SOL     OW13639   3.781   6.007   3.187 -0.1674  0.0947  0.1434
 4247SOL    HW113640   3.705   5.953   3.151  0.2110 -1.0914  1.0568
 4247SOL    HW213641   3.838   6.038   3.111 -1.1406  0.3765 -0.4957
 4248SOL     OW13642   1.813   0.660   3.308 -0.6613  0.7402  0.3396
 4248SOL    HW113643   1.764   0.712   3.378 -0.5805  0.0699  0.9105
 4248SOL    HW213644   1.755   0.586   3.274  0.0420 -0.2790  1.2754
 4249SOL     OW13645   0.579   3.120   3.570  0.8588 -0.5605  0.5417
 4249SOL    HW113646   0.573   3.162   3.660 -0.5397  0.4874 -0.0130
 4249SOL    HW213647   0.656   3.056   3.568  2.6993  1.5081  1.6039
 4250SOL     OW13648   0.519   4.084   2.157 -0.3443  0.0469  0.3175
 4250SOL    HW113649   0.436   4.078   2.212 -0.2068 -1.1402  0.4211
 4250SOL    HW213650   0.570   3.998   2.165  0.2198  0.2659 -0.8100
 4251SOL     OW13651   2.703   3.064   0.723  0.1548  0.4898 -0.0445
 4251SOL    HW113652   2.769   2.991   0.704  0.1356  0.2573  0.7635
 4251SOL    HW213653   2.618   3.025   0.758  0.8542  0.9812  2.3970
 4252SOL     OW13654   4.988   5.537   0.396 -0.4756  0.3067 -0.2583
 4252SOL    HW113655   4.934   5.598   0.337 -0.6674 -1.9578 -2.6477
 4252SOL    HW213656   5.072   5.513   0.348 -0.9525 -2.1663  0.0485
 4253SOL     OW13657   3.294   5.546   0.378 -0.3761 -0.2893 -0.4577
 4253SOL    HW113658   3.333   5.633   0.408 -0.6544 -0.1172 -0.5932
 4253SOL    HW213659   3.368   5.482   0.355 -0.1131 -0.7613  1.4891
 4254SOL     OW13660   1.337   3.912   1.960  0.4746 -0.2573 -0.4478
 4254SOL    HW113661   1.297   3.907   1.868  2.3611 -0.0926 -1.3296
 4254SOL    HW213662   1.437   3.905   1.953  0.6011 -1.2256  1.6974
 4255SOL     OW13663   0.230   4.124   5.324 -0.4584  0.3269  0.2204
 4255SOL    HW113664   0.133   4.100   5.327 -0.0881 -1.3056 -0.1924
 4255SOL    HW213665   0.268   4.100   5.234  0.8532 -1.2751  1.1480
 4256SOL     OW13666   1.615   0.688   1.474 -0.3730  0.0207  0.7840
 4256SOL    HW113667   1.654   0.779   1.491 -0.4956  0.4782 -1.1802
 4256SOL    HW213668   1.522   0.698   1.438  0.4822 -0.7343 -1.7952
 4257SOL     OW13669   5.270   1.396   5.860 -0.0729  0.0747  0.3845
 4257SOL    HW113670   5.218   1.399   5.775  0.2336 -1.8739  0.0754
 4257SOL    HW213671   5.219   1.442   5.933  0.0293  2.5313 -0.9939
 4258SOL     OW13672   2.156   5.779   6.670  0.8606  0.9951  0.1760
 4258SOL    HW113673   2.119   5.828   6.749  0.7237  2.5976 -0.8395
 4258SOL    HW213674   2.256   5.776   6.676  0.8202  0.5329  0.7171
 4259SOL     OW13675   0.873   0.102   1.120 -0.1053 -0.5011  0.2384
 4259SOL    HW113676   0.902   0.180   1.175  0.1072 -1.2875  1.2670
 4259SOL    HW213677   0.906   0.114   1.026 -0.5051  0.8763  0.2419
 4260SOL     OW13678   4.401   2.061   4.126 -1.0873 -0.2194 -0.0287
 4260SOL    HW113679   4.462   2.139   4.118  0.2482 -1.3193 -1.1313
 4260SOL    HW213680   4.424   1.993   4.056 -3.5133 -0.7438 -0.4147
 4261SOL     OW13681   0.855   3.240   3.409 -0.4063 -0.4084  0.4543
 4261SOL    HW113682   0.800   3.309   3.457  0.3916  1.0762 -0.6794
 4261SOL    HW213683   0.918   3.197   3.474 -0.8977 -0.0429  1.1838
 4262SOL     OW13684   0.962   4.341   5.829  0.4722 -0.6513 -0.0291
 4262SOL    HW113685   0.986   4.309   5.920  0.4158 -0.3040  0.1118
 4262SOL    HW213686   1.043   4.381   5.785  0.2518  0.1911  0.3053
 4263SOL     OW13687   3.942   2.082   2.391 -0.5268 -0.3607 -0.4207
 4263SOL    HW113688   3.987   2.107   2.477 -1.3696  0.1936 -0.1310
 4263SOL    HW213689   3.993   2.120   2.314  0.6741 -1.5031 -0.2375
 4264SOL     OW13690   6.490   0.916   3.304  0.0284 -0.1190 -0.0469
 4264SOL    HW113691   6.517   0.833   3.255 -0.8136 -0.2426 -0.3281
 4264SOL    HW213692   6.397   0.905   3.339 -0.6137  1.1801 -1.2147
 4265SOL     OW13693   3.452   1.603   6.550 -0.0497  0.2073 -0.7190
 4265SOL    HW113694   3.510   1.657   6.612  0.4180  2.2169 -2.7875
 4265SOL    HW213695   3.356   1.616   6.575  0.0670  1.8466 -0.9977
 4266SOL     OW13696   0.321   6.190   6.596 -0.2776 -0.3130  0.5917
 4266SOL    HW113697   0.406   6.139   6.583 -0.6366 -0.3463 -2.1089
 4266SOL    HW213698   0.245   6.126   6.607 -0.3732 -0.3296 -0.1547
 4267SOL     OW13699   1.418   3.465   4.800  0.2036  0.1476  0.1375
 4267SOL    HW113700   1.471   3.380   4.800  2.3191  1.4002  0.1987
 4267SOL    HW213701   1.419   3.505   4.891 -1.3902 -0.0633  0.2861
 4268SOL     OW13702   2.347   4.342   6.803  0.1111  0.3531  0.4004
 4268SOL    HW113703   2.286   4.371   6.877  0.1002  1.2589  0.0441
 4268SOL    HW213704   2.414   4.413   6.784 -1.0123  0.9482 -1.6810
 4269SOL     OW13705   4.335   0.687   3.565 -0.0672 -0.3346 -0.4734
 4269SOL    HW113706   4.308   0.738   3.647  2.4750  0.3876 -0.0012
 4269SOL    HW213707   4.298   0.594   3.570 -1.4348  0.2314  0.5926
 4270SOL     OW13708   3.464   4.184   0.789 -0.6442  0.3023  0.3891
 4270SOL    HW113709   3.382   4.240   0.801  0.4464  2.1035 -0.0613
 4270SOL    HW213710   3.514   4.181   0.875 -0.8716 -0.2690  0.5005
 4271SOL     OW13711   0.402   0.410   1.458 -0.0295 -0.7771  0.1559
 4271SOL    HW113712   0.477   0.348   1.480  0.2359 -1.0678 -1.4331
 4271SOL    HW213713   0.364   0.449   1.542  2.5672  0.1769  0.9638
 4272SOL     OW13714   0.447   1.435   6.581 -0.1026 -0.2683 -0.2131
 4272SOL    HW113715   0.413   1.460   6.671 -3.4026 -0.6024 -1.2574
 4272SOL    HW213716   0.468   1.518   6.529 -1.5255  0.0472 -0.2999
 4273SOL     OW13717   5.944   6.100   3.548  0.1666 -0.2144  0.1106
 4273SOL    HW113718   5.878   6.042   3.596 -0.8888  1.2842  0.5392
 4273SOL    HW213719   5.895   6.168   3.494  1.3725  0.3720 -0.2733
 4274SOL     OW13720   1.348   6.129   4.884 -0.1611 -0.3211 -0.4449
 4274SOL    HW113721   1.255   6.160   4.863 -0.4889 -0.2331  0.9897
 4274SOL    HW213722   1.384   6.076   4.808 -2.2446 -2.2327 -0.2045
 4275SOL     OW13723   0.882   3.221   5.286  0.1407  0.7299  0.0569
 4275SOL    HW113724   0.961   3.232   5.347  0.2532  0.5047 -0.0476
 4275SOL    HW213725   0.913   3.224   5.191 -0.0488  1.2042  0.0034
 4276SOL     OW13726   3.567   5.460   2.846  0.6994  0.0232  0.6265
 4276SOL    HW113727   3.598   5.541   2.896  1.1716  0.1409  0.1577
 4276SOL    HW213728   3.557   5.483   2.749 -1.0190  0.0223  0.7839
 4277SOL     OW13729   6.653   5.365   2.421  0.1229 -0.2032 -0.2863
 4277SOL    HW113730   6.588   5.322   2.358 -0.6088  1.1190 -0.4791
 4277SOL    HW213731   6.649   5.320   2.510  0.3549 -1.3693 -0.8444
 4278SOL     OW13732   6.833   6.413   3.044 -0.5541  0.1065  0.3194
 4278SOL    HW113733   6.745   6.429   2.999 -1.5214 -0.6218  1.8962
 4278SOL    HW213734   6.864   6.498   3.087 -1.2914 -0.0172  1.1185
 4279SOL     OW13735   3.789   2.854   0.081 -0.0903 -0.1395  0.2331
 4279SOL    HW113736   3.851   2.870   0.004 -0.1364 -0.3090  0.1612
 4279SOL    HW213737   3.760   2.942   0.119  1.4715 -0.0578  1.3075
 4280SOL     OW13738   0.981   6.936   6.133  0.1624 -0.2480 -0.0507
 4280SOL    HW113739   0.924   6.859   6.106  0.7534 -0.7048 -0.0227
 4280SOL    HW213740   0.962   6.960   6.229 -1.3822  0.8781 -0.5996
 4281SOL     OW13741   4.522   4.973   3.952  0.5429  0.0847  0.7326
 4281SOL    HW113742   4.547   4.939   3.862 -1.0057  0.8377 -0.0199
 4281SOL    HW213743   4.546   4.905   4.022  0.0823 -1.3118 -0.4227
 4282SOL     OW13744   1.546   5.219   2.104  0.0457  0.1365  0.0101
 4282SOL    HW113745   1.482   5.242   2.030  0.6261  1.9139  0.0008
 4282SOL    HW213746   1.527   5.276   2.183  0.7563 -0.2750  0.4866
 4283SOL     OW13747   2.981   0.674   2.832 -0.0563  0.3952 -0.3007
 4283SOL    HW113748   3.044   0.723   2.771  1.8050 -1.2027  0.2334
 4283SOL    HW213749   3.018   0.674   2.925 -0.4224 -1.2764 -0.1348
 4284SOL     OW13750   4.711   6.093   1.993 -0.3699  0.0200  0.2972
 4284SOL    HW113751   4.777   6.105   2.066 -0.3189 -1.4485  0.5180
 4284SOL    HW213752   4.650   6.017   2.015 -1.3968  0.6012 -0.4416
 4285SOL     OW13753   1.232   1.034   6.656  0.4458 -0.0005  0.3401
 4285SOL    HW113754   1.180   0.959   6.615  3.3322 -1.0312 -1.8093
 4285SOL    HW213755   1.217   1.035   6.755 -4.1849  0.4251 -0.1618
 4286SOL     OW13756   5.622   1.951   5.579  0.0054  0.2473 -0.1843
 4286SOL    HW113757   5.698   1.976   5.519  1.0056  0.1260  0.9933
 4286SOL    HW213758   5.650   1.963   5.674 -0.7996 -1.6174  0.3293
 4287SOL     OW13759   5.698   1.181   0.442 -0.0823  0.3462  0.2517
 4287SOL    HW113760   5.639   1.261   0.425 -2.1428 -0.6588  2.1490
 4287SOL    HW213761   5.675   1.109   0.377  0.7414  0.7621 -0.5146
 4288SOL     OW13762   0.651   6.741   0.837  0.3129  0.6700  0.0664
 4288SOL    HW113763   0.553   6.724   0.821  0.8077 -0.4987 -1.9499
 4288SOL    HW213764   0.667   6.747   0.936 -1.4217 -1.6142  0.5812
 4289SOL     OW13765   6.700   3.722   6.663 -0.3010  0.1342  0.2075
 4289SOL    HW113766   6.754   3.641   6.684  0.5869  0.6375 -0.0993
 4289SOL    HW213767   6.757   3.804   6.674 -0.4609  0.5699 -1.9233
 4290SOL     OW13768   1.605   1.187   4.947 -0.1378  0.3170 -0.0795
 4290SOL    HW113769   1.583   1.243   5.027 -2.5894  1.6203 -1.5424
 4290SOL    HW213770   1.523   1.139   4.916  1.4734 -2.6749 -0.0435
 4291SOL     OW13771   3.822   4.000   6.960  0.3413  0.1176 -0.4333
 4291SOL    HW113772   3.769   4.082   6.942 -0.4425 -0.2328  0.2242
 4291SOL    HW213773   3.796   3.962   7.049  1.1796 -0.4624 -0.4253
 4292SOL     OW13774   6.902   1.895   0.122  0.1708 -0.4380 -0.1236
 4292SOL    HW113775   6.814   1.933   0.149 -0.6703 -2.1966 -0.2667
 4292SOL    HW213776   6.888   1.810   0.070  1.9198 -0.2009 -1.0601
 4293SOL     OW13777   3.215   2.977   0.080 -0.2629  0.1719  0.0861
 4293SOL    HW113778   3.195   3.075   0.070  0.6160  0.5760  1.8305
 4293SOL    HW213779   3.298   2.966   0.135 -1.0573 -1.5737  1.0028
 4294SOL     OW13780   1.059   0.206   4.685 -0.0602 -0.1574  0.0778
 4294SOL    HW113781   1.036   0.191   4.589  0.0033 -1.2723  0.2145
 4294SOL    HW213782   1.158   0.203   4.696  0.1371  2.6995 -0.2142
 4295SOL     OW13783   4.761   5.410   3.114 -0.4681  0.3406 -0.3300
 4295SOL    HW113784   4.663   5.389   3.103  0.3131 -2.8978 -2.5822
 4295SOL    HW213785   4.797   5.359   3.191  0.0254 -1.0681 -1.4571
 4296SOL     OW13786   3.551   6.815   0.460 -0.0771  0.5413 -0.2567
 4296SOL    HW113787   3.455   6.823   0.434 -0.3799 -1.3198  0.1496
 4296SOL    HW213788   3.576   6.718   0.466  1.6721  0.9854  0.2131
 4297SOL     OW13789   5.427   1.332   1.843 -0.1223 -0.2284  0.0264
 4297SOL    HW113790   5.420   1.239   1.807  0.5702  0.4820 -2.0631
 4297SOL    HW213791   5.341   1.380   1.829 -0.9488 -0.8941  2.3226
 4298SOL     OW13792   3.239   1.201   2.278  0.1370 -0.6151  0.0272
 4298SOL    HW113793   3.296   1.240   2.206 -1.0877  1.1919 -0.0283
 4298SOL    HW213794   3.180   1.272   2.317 -0.6631 -1.9771  1.4502
 4299SOL     OW13795   2.457   3.349   5.560  0.2448  0.1020  0.4990
 4299SOL    HW113796   2.503   3.435   5.536 -0.2868  0.0201 -0.9068
 4299SOL    HW213797   2.404   3.362   5.644  0.2118  1.1339  0.3363
 4300SOL     OW13798   3.262   5.722   0.130  0.0952  0.2030 -0.1448
 4300SOL    HW113799   3.297   5.631   0.154  0.7764  0.1897 -1.1122
 4300SOL    HW213800   3.321   5.792   0.171 -0.2738  0.2121  0.3782
 4301SOL     OW13801   3.138   2.171   3.230  0.2463  0.5160 -0.5035
 4301SOL    HW113802   3.195   2.119   3.166  0.3108  0.1027 -0.1172
 4301SOL    HW213803   3.071   2.225   3.179  0.7070  0.6742 -0.9423
 4302SOL     OW13804   4.648   7.002   0.811 -0.4333 -0.0843  0.0231
 4302SOL    HW113805   4.553   6.970   0.814 -1.2810  1.8238  5.7556
 4302SOL    HW213806   4.707   6.934   0.856  0.5548 -0.1475 -1.3074
 4303SOL     OW13807   5.504   3.017   2.287  0.2682  0.1157 -0.1670
 4303SOL    HW113808   5.428   2.974   2.335  1.1925 -0.5309  0.7400
 4303SOL    HW213809   5.589   3.006   2.340  1.0790  0.4696 -1.3461
 4304SOL     OW13810   3.967   2.093   1.079  0.2047 -0.7672 -0.4338
 4304SOL    HW113811   4.009   2.128   1.162  0.9738 -1.3787 -0.5572
 4304SOL    HW213812   4.027   2.111   1.001 -0.8872  0.5703 -1.0170
 4305SOL     OW13813   1.113   4.783   5.261 -0.2721  0.2633 -0.1956
 4305SOL    HW113814   1.106   4.692   5.301  1.3278  0.6634  1.0861
 4305SOL    HW213815   1.059   4.848   5.314  1.2450  0.6503  0.9446
 4306SOL     OW13816   6.059   4.343   6.484 -0.1879 -0.6183 -0.2446
 4306SOL    HW113817   6.157   4.326   6.485 -0.0815 -0.0946  1.7951
 4306SOL    HW213818   6.014   4.274   6.426  1.4709  0.0204 -2.4418
 4307SOL     OW13819   4.887   4.341   2.507 -0.4961  0.7088 -0.2570
 4307SOL    HW113820   4.861   4.250   2.477 -0.6887  0.6237  0.1655
 4307SOL    HW213821   4.942   4.386   2.436  1.9244 -0.7572  0.5619
 4308SOL     OW13822   6.047   2.592   1.579 -0.3252  0.0450  0.2911
 4308SOL    HW113823   6.012   2.539   1.502  0.1948  0.4870 -0.2590
 4308SOL    HW213824   6.138   2.627   1.557 -0.1387  0.1103  1.1402
 4309SOL     OW13825   0.884   3.498   0.219  0.2601 -0.4230  0.4790
 4309SOL    HW113826   0.937   3.493   0.134 -0.1696 -1.0840  0.2402
 4309SOL    HW213827   0.906   3.420   0.277 -0.6104 -0.8453  0.2698
 4310SOL     OW13828   1.597   2.983   3.588  0.4340  0.7471 -0.5829
 4310SOL    HW113829   1.529   3.038   3.539 -0.5022  0.0925 -0.0474
 4310SOL    HW213830   1.562   2.890   3.601  1.4973  0.3550 -0.4196
 4311SOL     OW13831   0.851   5.812   3.777 -0.0187  0.2557 -0.2302
 4311SOL    HW113832   0.793   5.837   3.854  0.8756  1.9075 -0.0385
 4311SOL    HW213833   0.941   5.854   3.788  0.2532  0.2146 -1.9749
 4312SOL     OW13834   2.297   6.588   1.659  0.3079 -0.0860 -0.0889
 4312SOL    HW113835   2.363   6.647   1.613  0.1026 -0.2763 -0.6311
 4312SOL    HW213836   2.228   6.644   1.705  0.1639  0.1018 -0.5309
 4313SOL     OW13837   4.030   1.889   1.265 -0.1878 -0.2200  0.4377
 4313SOL    HW113838   3.994   1.949   1.193 -0.5259 -2.0831 -1.0298
 4313SOL    HW213839   4.125   1.868   1.246  0.4948  1.2282  1.9559
 4314SOL     OW13840   4.489   1.937   4.899 -0.0962 -0.2523 -0.1326
 4314SOL    HW113841   4.533   1.961   4.812 -0.0597  2.2102  0.4663
 4314SOL    HW213842   4.395   1.969   4.898  0.1538  0.5790  1.0103
 4315SOL     OW13843   2.101   2.373   4.442 -0.0422 -0.0930 -0.6140
 4315SOL    HW113844   2.053   2.454   4.411 -1.2420 -0.4378  0.2614
 4315SOL    HW213845   2.163   2.397   4.517 -0.7148 -0.0349 -0.0634
 4316SOL     OW13846   5.351   0.623   3.011 -0.1304  0.8341 -0.5606
 4316SOL    HW113847   5.281   0.636   2.941 -1.1606 -0.0942  0.2620
 4316SOL    HW213848   5.315   0.651   3.100  0.6614  0.6483 -0.1736
 4317SOL     OW13849   3.430   1.718   5.521 -0.4910 -0.4498  0.2471
 4317SOL    HW113850   3.462   1.627   5.546 -0.3680  0.1830  2.5693
 4317SOL    HW213851   3.331   1.719   5.516 -0.6337 -0.2645  2.3488
 4318SOL     OW13852   0.690   1.150   6.335 -0.2496 -0.1965 -0.0051
 4318SOL    HW113853   0.631   1.209   6.391 -1.3659 -0.7379 -0.5733
 4318SOL    HW213854   0.638   1.070   6.305  0.2505  0.1677 -1.9586
 4319SOL     OW13855   3.194   6.903   2.124  0.3802  0.6841 -0.1133
 4319SOL    HW113856   3.132   6.901   2.045  0.7249  0.5145 -0.3843
 4319SOL    HW213857   3.151   6.856   2.201  0.5064 -0.1725 -0.5562
 4320SOL     OW13858   4.596   5.006   1.786  0.1395 -0.2870 -0.7835
 4320SOL    HW113859   4.652   5.079   1.746  1.7128 -1.1316 -0.1976
 4320SOL    HW213860   4.602   4.924   1.730 -0.1165 -0.5371 -0.4512
 4321SOL     OW13861   1.040   5.783   1.156 -0.1574 -0.0421 -0.0724
 4321SOL    HW113862   1.131   5.792   1.197  0.2728 -2.6569 -0.3256
 4321SOL    HW213863   0.971   5.786   1.228  0.3625 -1.2439  0.4881
 4322SOL     OW13864   6.527   5.309   5.188  0.2484  0.1988  0.0659
 4322SOL    HW113865   6.586   5.232   5.165  0.3860  0.0070  1.0284
 4322SOL    HW213866   6.519   5.318   5.287  0.9416  1.9500  0.0122
 4323SOL     OW13867   6.590   6.009   5.041 -0.0160  0.4643 -0.2483
 4323SOL    HW113868   6.672   6.015   5.098 -0.7481 -0.2782  0.9397
 4323SOL    HW213869   6.532   6.089   5.059 -0.4449  0.0205  0.4019
 4324SOL     OW13870   0.983   5.463   4.142  0.2707  0.1680 -0.1616
 4324SOL    HW113871   0.997   5.478   4.044 -0.9556 -2.0087 -0.7316
 4324SOL    HW213872   1.068   5.431   4.184  0.7164  0.8173 -0.5403
 4325SOL     OW13873   1.981   3.480   3.033  0.1384  0.0513 -0.1469
 4325SOL    HW113874   1.930   3.401   3.000  0.1310  0.6079 -1.5422
 4325SOL    HW213875   1.922   3.561   3.029  0.9837  0.6404 -1.4600
 4326SOL     OW13876   5.320   3.371   0.898 -0.2037 -0.1617  0.0341
 4326SOL    HW113877   5.340   3.430   0.977  0.6398 -1.6718  0.9876
 4326SOL    HW213878   5.221   3.367   0.884 -0.2718  2.0595 -0.5456
 4327SOL     OW13879   5.632   6.810   2.410 -0.1637 -0.3294 -0.2995
 4327SOL    HW113880   5.597   6.742   2.475  0.3819 -0.4386 -0.1129
 4327SOL    HW213881   5.726   6.833   2.435  1.0387 -2.3501 -2.6002
 4328SOL     OW13882   5.086   3.625   6.317 -0.1103  1.0985 -0.0999
 4328SOL    HW113883   5.161   3.660   6.372 -0.8384 -0.3689  1.9596
 4328SOL    HW213884   5.090   3.525   6.314 -2.0683  0.9569  0.2989
 4329SOL     OW13885   6.041   2.704   6.335  0.5160  0.5165 -0.1395
 4329SOL    HW113886   5.976   2.743   6.270 -0.2545  2.9871  1.9226
 4329SOL    HW213887   6.127   2.754   6.331  0.1975  1.2322  1.1836
 4330SOL     OW13888   1.272   0.843   4.356  0.6026 -0.2884  0.1333
 4330SOL    HW113889   1.286   0.749   4.388  1.1030 -1.3509 -2.7958
 4330SOL    HW213890   1.339   0.863   4.284 -0.7081  1.6433 -0.6347
 4331SOL     OW13891   6.148   6.871   0.649  0.1614  0.8322  0.2717
 4331SOL    HW113892   6.182   6.861   0.555  0.0958  1.1568  0.2096
 4331SOL    HW213893   6.064   6.818   0.660 -0.0360  1.0887  0.0326
 4332SOL     OW13894   0.087   4.299   2.675 -0.4036 -0.2470  0.3510
 4332SOL    HW113895   0.090   4.363   2.752  2.7295 -1.7133  1.6370
 4332SOL    HW213896   0.168   4.313   2.618 -0.7349 -1.7119 -0.5082
 4333SOL     OW13897   5.301   1.538   6.424 -0.4730 -0.6567  0.4725
 4333SOL    HW113898   5.367   1.470   6.456 -1.0951 -0.8827  1.3073
 4333SOL    HW213899   5.325   1.566   6.331  0.3386 -1.3131  0.4697
 4334SOL     OW13900   0.907   4.552   1.569  0.5018 -0.3281 -0.6264
 4334SOL    HW113901   0.924   4.454   1.584  0.9464 -0.3530 -1.2618
 4334SOL    HW213902   0.977   4.606   1.615 -0.2217 -0.2646  0.4417
 4335SOL     OW13903   3.328   1.156   1.697 -0.4249 -0.3991  0.1475
 4335SOL    HW113904   3.373   1.160   1.786 -1.9011 -0.5205  0.9147
 4335SOL    HW213905   3.378   1.093   1.637  1.2261  0.5222  0.4780
 4336SOL     OW13906   2.920   0.461   4.933 -0.2335 -0.5748 -0.1503
 4336SOL    HW113907   3.009   0.491   4.968  0.0404 -0.1094 -1.1708
 4336SOL    HW213908   2.911   0.492   4.838 -0.6375 -2.3756 -0.7249
 4337SOL     OW13909   0.613   6.287   1.092  0.4858  0.0599 -0.2009
 4337SOL    HW113910   0.603   6.348   1.171  0.9144 -0.8511  0.5723
 4337SOL    HW213911   0.527   6.287   1.040 -0.3783 -0.5540  1.1652
 4338SOL     OW13912   6.424   0.920   2.064 -0.1583  0.0181 -0.4816
 4338SOL    HW113913   6.455   0.909   1.969  0.4270  0.2602 -0.3217
 4338SOL    HW213914   6.502   0.910   2.126 -0.0775  2.2453 -0.1490
 4339SOL     OW13915   2.206   1.632   6.617 -0.4061 -0.0179 -0.5445
 4339SOL    HW113916   2.109   1.655   6.613 -0.0494  1.6682 -0.0381
 4339SOL    HW213917   2.257   1.691   6.555  0.5878  0.8366  1.0197
 4340SOL     OW13918   5.719   2.874   2.082  0.2712  0.1158 -0.5345
 4340SOL    HW113919   5.705   2.776   2.092  0.2901  0.2562  1.0348
 4340SOL    HW213920   5.813   2.891   2.051  0.5095 -0.3207 -0.0599
 4341SOL     OW13921   3.526   4.622   1.044 -0.3130 -0.1849  0.3008
 4341SOL    HW113922   3.499   4.565   0.965 -2.2902  1.2956 -0.1760
 4341SOL    HW213923   3.593   4.689   1.015 -0.9338  0.2665 -0.1187
 4342SOL     OW13924   6.205   4.513   2.570 -0.2492 -0.0729 -0.2307
 4342SOL    HW113925   6.210   4.490   2.473 -0.5955 -2.6056  0.2808
 4342SOL    HW213926   6.294   4.543   2.602  0.5178 -1.6549 -0.8043
 4343SOL     OW13927   2.391   4.630   4.376 -0.1044  0.2382 -0.2332
 4343SOL    HW113928   2.455   4.616   4.301  0.7945 -0.1586  0.5957
 4343SOL    HW213929   2.382   4.728   4.395 -0.3660  0.3416 -0.8761
 4344SOL     OW13930   6.793   1.710   2.363 -0.2363  0.3530 -0.4828
 4344SOL    HW113931   6.716   1.647   2.373 -0.2341  0.5285  0.7483
 4344SOL    HW213932   6.771   1.797   2.407  0.4704  0.5914 -0.5857
 4345SOL     OW13933   4.123   3.610   2.518  0.5801  0.0149  0.8337
 4345SOL    HW113934   4.060   3.634   2.592 -1.2063 -0.7702 -0.3584
 4345SOL    HW213935   4.203   3.563   2.556 -0.6034 -0.9679  2.2160
 4346SOL     OW13936   1.872   3.845   2.094 -0.7803  0.3978  0.3938
 4346SOL    HW113937   1.845   3.937   2.122 -0.2034  0.1211  1.9524
 4346SOL    HW213938   1.964   3.825   2.129  0.4213  0.3313 -2.5144
 4347SOL     OW13939   5.679   5.990   1.797 -0.2149 -0.2489  0.0965
 4347SOL    HW113940   5.677   5.956   1.703  0.3909 -0.1009  0.0291
 4347SOL    HW213941   5.665   6.089   1.797 -1.2067 -0.3790  0.2383
 4348SOL     OW13942   0.923   6.498   3.382 -0.1914 -0.0694  0.2222
 4348SOL    HW113943   0.956   6.442   3.458 -0.5285 -0.1237  0.3255
 4348SOL    HW213944   1.000   6.551   3.345  0.1645 -0.7069  0.0273
 4349SOL     OW13945   0.480   4.623   4.949  0.2361 -0.4832  0.0748
 4349SOL    HW113946   0.413   4.562   4.907 -0.3395  0.2225 -0.0601
 4349SOL    HW213947   0.443   4.716   4.951  0.5339 -0.3812  1.5497
 4350SOL     OW13948   4.577   1.072   5.055  0.7282 -0.1053  0.3846
 4350SOL    HW113949   4.498   1.011   5.070  0.6019 -0.2782 -0.8705
 4350SOL    HW213950   4.544   1.160   5.022  1.0338  0.0079  0.3869
 4351SOL     OW13951   1.707   5.032   1.405 -0.2394 -0.2338 -0.0274
 4351SOL    HW113952   1.789   4.982   1.379 -0.3063 -1.1073  1.3344
 4351SOL    HW213953   1.626   4.980   1.377 -0.3334  0.1136 -0.4173
 4352SOL     OW13954   5.006   5.816   3.217  0.1235 -0.0419 -0.4200
 4352SOL    HW113955   5.097   5.839   3.250  0.2153 -1.1403  0.1488
 4352SOL    HW213956   4.999   5.837   3.120  1.3892 -1.0896 -0.7565
 4353SOL     OW13957   4.255   3.816   6.039  0.0183 -0.1376 -0.5220
 4353SOL    HW113958   4.231   3.912   6.056  0.1276 -0.0552 -0.8207
 4353SOL    HW213959   4.203   3.757   6.101 -0.3828  0.0851 -0.6430
 4354SOL     OW13960   1.012   2.401   7.007 -0.3713 -0.2468 -0.0761
 4354SOL    HW113961   1.008   2.388   6.908 -1.2340 -0.2196 -0.0473
 4354SOL    HW213962   0.925   2.375   7.048  0.3101 -1.2725  0.7993
 4355SOL     OW13963   1.351   6.620   2.859  0.2847  0.4739 -0.0530
 4355SOL    HW113964   1.266   6.650   2.816  0.5942  0.9364 -0.3519
 4355SOL    HW213965   1.366   6.671   2.944  1.7444  2.5959 -1.4823
 4356SOL     OW13966   6.763   3.389   5.264 -0.1205 -0.2895 -0.0511
 4356SOL    HW113967   6.760   3.405   5.166 -1.7810  0.6076  0.1139
 4356SOL    HW213968   6.676   3.414   5.305  0.7957  0.0999  1.7740
 4357SOL     OW13969   0.424   1.732   1.579  0.3311 -0.1027  0.3157
 4357SOL    HW113970   0.484   1.659   1.549  1.7131  1.1324 -0.0463
 4357SOL    HW213971   0.407   1.724   1.677  1.4355 -0.2331  0.5026
 4358SOL     OW13972   1.759   0.465   1.455 -0.2223  0.2069  0.3032
 4358SOL    HW113973   1.704   0.548   1.464 -1.9109 -0.9302  1.0017
 4358SOL    HW213974   1.798   0.441   1.544 -1.2743 -0.7200  0.5423
 4359SOL     OW13975   1.065   3.185   6.934 -0.2944  0.1792 -0.4391
 4359SOL    HW113976   1.129   3.261   6.920 -0.8882  1.1003  1.4356
 4359SOL    HW213977   1.074   3.152   7.028 -1.2576 -0.9506 -0.7249
 4360SOL     OW13978   1.143   2.740   3.152  0.3510  0.0009  0.8822
 4360SOL    HW113979   1.144   2.827   3.202  0.2599 -0.3887  1.5637
 4360SOL    HW213980   1.237   2.705   3.145  1.0331  1.9997 -2.6971
 4361SOL     OW13981   1.827   1.952   0.259  0.0351  0.1173  0.1044
 4361SOL    HW113982   1.822   2.018   0.184  1.6081  0.4546  0.2530
 4361SOL    HW213983   1.891   1.879   0.234  1.1019  0.5947  1.3599
 4362SOL     OW13984   0.468   6.129   3.826 -0.1023 -0.6020 -0.4935
 4362SOL    HW113985   0.389   6.089   3.779  0.7785 -1.8964 -0.9110
 4362SOL    HW213986   0.530   6.169   3.759 -0.0558 -0.1965 -0.2166
 4363SOL     OW13987   3.754   1.226   1.888  0.2957  0.0565 -0.6219
 4363SOL    HW113988   3.785   1.137   1.853  0.3826  0.0571 -0.5474
 4363SOL    HW213989   3.791   1.240   1.980  0.5115  0.2946 -0.7442
 4364SOL     OW13990   3.329   2.952   2.780 -0.1559  0.6955 -0.2231
 4364SOL    HW113991   3.303   2.920   2.870  0.8991 -2.1441 -0.8412
 4364SOL    HW213992   3.261   3.018   2.747 -1.7645  0.0719  1.6697
 4365SOL     OW13993   3.231   1.386   2.580  0.1929  0.0333 -0.0029
 4365SOL    HW113994   3.228   1.485   2.590 -1.8915 -0.2233  3.0799
 4365SOL    HW213995   3.161   1.357   2.515  0.3990  0.5149 -0.4467
 4366SOL     OW13996   5.308   0.334   0.725  0.1656  0.2351 -0.5533
 4366SOL    HW113997   5.366   0.379   0.793  0.3258  0.8513 -1.0884
 4366SOL    HW213998   5.352   0.249   0.695 -0.0865 -0.2422  0.3799
 4367SOL     OW13999   5.327   5.566   1.733  0.1607 -0.7067 -0.3375
 4367SOL    HW114000   5.250   5.552   1.794  0.9122 -1.2642  0.5120
 4367SOL    HW214001   5.382   5.643   1.764 -0.1673 -0.1628 -1.0731
 4368SOL     OW14002   3.548   4.979   2.157 -0.0277  0.3915 -0.2248
 4368SOL    HW114003   3.459   4.943   2.185 -0.4692  0.4169 -1.5511
 4368SOL    HW214004   3.603   4.905   2.117  0.3590  0.4885  0.1153
 4369SOL     OW14005   4.160   6.467   5.183 -0.1035  0.2632 -0.0871
 4369SOL    HW114006   4.136   6.559   5.152 -3.5676 -0.9359 -1.5761
 4369SOL    HW214007   4.192   6.413   5.105 -0.0374 -0.3320  0.3432
 4370SOL     OW14008   2.470   3.704   0.871  0.1624 -0.6463  0.3405
 4370SOL    HW114009   2.401   3.735   0.805  1.2869  1.1676 -0.0612
 4370SOL    HW214010   2.549   3.668   0.822  0.5140 -0.3913  0.7123
 4371SOL     OW14011   2.332   1.651   3.263  0.0369  0.7699  0.0645
 4371SOL    HW114012   2.316   1.595   3.345  0.6364 -1.0723 -1.0246
 4371SOL    HW214013   2.421   1.695   3.270 -0.5909  1.9415  1.0928
 4372SOL     OW14014   2.187   1.229   3.626 -0.1916 -0.2759  0.0066
 4372SOL    HW114015   2.237   1.217   3.540 -1.4159 -1.4057 -0.5710
 4372SOL    HW214016   2.121   1.304   3.615 -0.5239 -0.5843 -0.1404
 4373SOL     OW14017   4.670   6.659   5.658  0.5266  0.0464 -0.2592
 4373SOL    HW114018   4.659   6.686   5.753 -0.9975 -0.5330 -0.2461
 4373SOL    HW214019   4.689   6.561   5.652  1.0690  0.1661 -0.5321
 4374SOL     OW14020   2.846   1.911   1.876  0.8063 -0.2708  0.5443
 4374SOL    HW114021   2.897   1.888   1.959  2.1068  0.0688 -0.1272
 4374SOL    HW214022   2.807   1.828   1.837  1.9788 -0.7568  0.3647
 4375SOL     OW14023   4.792   5.654   2.194  0.1667  0.6477  0.2354
 4375SOL    HW114024   4.815   5.573   2.248  1.1231 -0.1218 -1.2380
 4375SOL    HW214025   4.695   5.651   2.168  0.0013  0.4055  0.8677
 4376SOL     OW14026   5.176   0.883   1.075 -0.3804 -0.1671 -0.4595
 4376SOL    HW114027   5.172   0.838   0.986  0.5115  0.0554 -0.6223
 4376SOL    HW214028   5.150   0.817   1.146 -0.9272 -0.3948 -0.8604
 4377SOL     OW14029   0.194   3.928   2.045  0.0381  0.0483  0.0048
 4377SOL    HW114030   0.232   4.021   2.050  1.5247 -0.4848 -0.7380
 4377SOL    HW214031   0.157   3.903   2.135  0.3794  1.0398  0.4430
 4378SOL     OW14032   0.730   3.272   2.478  0.0525  0.1634  0.0089
 4378SOL    HW114033   0.694   3.316   2.396  0.8885  2.5120  0.8454
 4378SOL    HW214034   0.830   3.268   2.473  0.0764 -0.1832  0.6848
 4379SOL     OW14035   0.676   0.879   7.010  0.2507 -0.1592  0.0678
 4379SOL    HW114036   0.589   0.903   7.053 -0.3339  2.2065 -2.1745
 4379SOL    HW214037   0.749   0.937   7.048  0.2121  0.1416 -0.3100
 4380SOL     OW14038   4.346   4.879   5.467 -0.0511 -0.1326 -0.1746
 4380SOL    HW114039   4.356   4.819   5.388  0.4796  0.9131 -0.9260
 4380SOL    HW214040   4.433   4.925   5.484 -0.1833 -0.2863  0.9828
 4381SOL     OW14041   2.717   4.354   5.289  0.1075 -0.0058 -0.0016
 4381SOL    HW114042   2.755   4.422   5.227 -1.9583  0.2212 -1.1039
 4381SOL    HW214043   2.617   4.354   5.282 -0.0258 -2.2451  0.9403
 4382SOL     OW14044   5.087   4.469   4.880 -0.1877 -0.1421 -0.2625
 4382SOL    HW114045   5.126   4.560   4.893  1.0935 -0.9122  1.8261
 4382SOL    HW214046   4.992   4.469   4.910  0.4985  0.0063  2.0862
 4383SOL     OW14047   1.216   3.774   5.668 -0.6760  0.1373  0.0135
 4383SOL    HW114048   1.235   3.862   5.710 -0.0394  0.4588 -0.9242
 4383SOL    HW214049   1.118   3.763   5.655 -0.7525  0.7144  0.1168
 4384SOL     OW14050   3.388   2.610   1.289  0.7704 -0.6561 -0.4712
 4384SOL    HW114051   3.420   2.529   1.239  0.1365 -0.8299 -0.6103
 4384SOL    HW214052   3.320   2.582   1.357  0.9887 -0.3112 -0.1074
 4385SOL     OW14053   6.678   4.102   5.501 -0.5255 -0.0868  0.1644
 4385SOL    HW114054   6.661   4.187   5.551  0.3749  0.0794  0.2127
 4385SOL    HW214055   6.774   4.076   5.513 -0.0856  0.3233 -2.0125
 4386SOL     OW14056   1.510   3.391   6.441 -0.2998  0.3735 -0.0169
 4386SOL    HW114057   1.410   3.384   6.448 -0.0590 -1.8169  3.1523
 4386SOL    HW214058   1.536   3.488   6.446 -2.2082  0.9732 -0.5118
 4387SOL     OW14059   6.411   4.029   1.844 -0.4479  0.1115  0.5930
 4387SOL    HW114060   6.404   3.933   1.871 -3.1945  0.1281  0.1995
 4387SOL    HW214061   6.467   4.078   1.911 -3.9836 -0.5850  4.4573
 4388SOL     OW14062   2.573   1.613   6.141  0.1674  0.4052  0.0063
 4388SOL    HW114063   2.565   1.674   6.220 -0.1017 -0.0349  0.3175
 4388SOL    HW214064   2.482   1.583   6.112  0.1703  1.4241 -1.1533
 4389SOL     OW14065   6.965   2.282   0.852  0.4045  0.1483  0.0786
 4389SOL    HW114066   6.919   2.196   0.875  1.7611 -0.0635  2.2486
 4389SOL    HW214067   7.019   2.313   0.930  1.7819  1.8047 -1.4453
 4390SOL     OW14068   3.571   1.310   2.429 -0.1182  0.3905 -0.7574
 4390SOL    HW114069   3.599   1.397   2.471 -1.3309  0.4999 -0.1335
 4390SOL    HW214070   3.475   1.316   2.400  0.4562  0.0646 -2.9198
 4391SOL     OW14071   0.682   6.100   4.356 -0.5083 -0.3738  0.5548
 4391SOL    HW114072   0.615   6.052   4.299  0.1974 -0.6820 -0.0307
 4391SOL    HW214073   0.642   6.118   4.446 -1.3177 -0.7037  0.2723
 4392SOL     OW14074   5.272   4.171   5.095 -0.1142 -0.2065 -0.7991
 4392SOL    HW114075   5.278   4.122   5.182 -2.2661  1.9476  0.6724
 4392SOL    HW214076   5.284   4.269   5.111  0.9736  0.1215 -3.2023
 4393SOL     OW14077   5.803   0.000   2.575 -0.0303  0.1334  0.2268
 4393SOL    HW114078   5.796   0.081   2.517  0.6771  1.9489  2.4997
 4393SOL    HW214079   5.712  -0.026   2.609 -0.1699  0.4773  0.1151
 4394SOL     OW14080   6.358   6.027   3.793 -0.2611  0.5544 -0.3443
 4394SOL    HW114081   6.261   6.052   3.789 -0.2101  0.7810 -0.1614
 4394SOL    HW214082   6.381   5.970   3.714 -0.2362  1.5812 -1.0993
 4395SOL     OW14083   4.556   2.315   1.468  0.3548 -0.0277  0.8433
 4395SOL    HW114084   4.535   2.264   1.552  1.9588 -0.2459  1.1386
 4395SOL    HW214085   4.643   2.283   1.430 -0.1952  0.2706 -0.7618
 4396SOL     OW14086   1.632   1.535   4.208 -0.2172 -0.1370  0.4324
 4396SOL    HW114087   1.724   1.572   4.212 -0.2408  0.2115 -1.3136
 4396SOL    HW214088   1.616   1.476   4.287  1.4160 -0.0480  0.8655
 4397SOL     OW14089   0.124   3.829   4.702 -0.0219 -0.2867  0.3730
 4397SOL    HW114090   0.097   3.917   4.741 -0.2374 -0.5468  0.8149
 4397SOL    HW214091   0.162   3.844   4.611 -0.8213  0.1775  0.1064
 4398SOL     OW14092   5.858   4.952   4.975 -0.3154  0.7552  0.5795
 4398SOL    HW114093   5.845   5.000   5.062  0.0563  2.4575 -0.2417
 4398SOL    HW214094   5.956   4.937   4.960 -0.2739  1.5657 -0.0619
 4399SOL     OW14095   1.629   1.289   1.880 -0.1238  0.8110  0.4440
 4399SOL    HW114096   1.718   1.256   1.848 -1.1646  0.6550 -2.6172
 4399SOL    HW214097   1.632   1.301   1.979  2.7733 -0.7552  0.6660
 4400SOL     OW14098   1.832   1.102   6.451  0.4982 -0.4253  0.3730
 4400SOL    HW114099   1.768   1.133   6.522 -1.2683 -0.9785 -0.9217
 4400SOL    HW214100   1.816   1.152   6.367  1.1208 -1.2603 -0.2585
 4401SOL     OW14101   5.668   0.317   5.821 -0.1198 -0.2174 -0.2551
 4401SOL    HW114102   5.681   0.402   5.770  0.0824 -1.1487 -1.8540
 4401SOL    HW214103   5.591   0.266   5.781 -0.1118 -0.8759  0.5461
 4402SOL     OW14104   2.421   0.286   2.187  0.0624 -0.4229  0.2854
 4402SOL    HW114105   2.342   0.229   2.210 -0.6949  0.4997  0.0749
 4402SOL    HW214106   2.391   0.381   2.179  1.0225 -0.1883 -0.7403
 4403SOL     OW14107   1.002   4.031   2.187 -1.0186 -0.3238  0.2831
 4403SOL    HW114108   1.047   4.046   2.275 -0.3737  0.1175 -0.1126
 4403SOL    HW214109   1.033   4.101   2.122 -2.4020  0.0852  0.0414
 4404SOL     OW14110   1.673   3.696   5.706 -0.0452  0.3416 -0.1276
 4404SOL    HW114111   1.692   3.787   5.743  0.3870  0.3609 -0.3991
 4404SOL    HW214112   1.748   3.667   5.648 -0.0266 -0.3280  0.2179
 4405SOL     OW14113   3.367   4.799   0.824 -0.4738 -0.6330  0.2467
 4405SOL    HW114114   3.357   4.837   0.916 -0.5949  2.0965 -0.8011
 4405SOL    HW214115   3.281   4.812   0.773  0.7657  1.7261 -1.4761
 4406SOL     OW14116   6.731   6.189   2.042 -1.0861 -0.4399 -0.1433
 4406SOL    HW114117   6.760   6.202   1.947 -1.4806  0.7487 -0.1108
 4406SOL    HW214118   6.799   6.133   2.090 -0.8667 -1.0311 -1.1073
 4407SOL     OW14119   6.578   5.034   6.929 -0.8104  0.1259  0.1949
 4407SOL    HW114120   6.595   4.938   6.908  0.6618  0.0716  1.4759
 4407SOL    HW214121   6.627   5.091   6.863 -0.0985 -0.0216  0.5858
 4408SOL     OW14122   6.914   0.605   6.821  0.7202 -0.4744  0.8362
 4408SOL    HW114123   6.968   0.668   6.877  1.2314 -0.5691  0.4601
 4408SOL    HW214124   6.857   0.549   6.880  1.2955 -0.6150  1.2729
 4409SOL     OW14125   6.145   6.672   1.961  0.7598 -0.0082  0.1815
 4409SOL    HW114126   6.189   6.716   2.040  0.5179  2.1306 -0.8248
 4409SOL    HW214127   6.149   6.573   1.973  1.0432  0.2288  2.7111
 4410SOL     OW14128   1.981   4.627   0.484 -0.2411  0.5459  0.1169
 4410SOL    HW114129   2.027   4.690   0.422  0.7826  0.3873  0.6811
 4410SOL    HW214130   1.926   4.678   0.550 -0.6228  0.7572 -0.3598
 4411SOL     OW14131   3.229   4.093   2.531  0.1684 -0.7655  0.1092
 4411SOL    HW114132   3.199   4.034   2.456  0.2099 -0.1312 -0.4205
 4411SOL    HW214133   3.250   4.184   2.494  0.4924 -0.5414  0.8462
 4412SOL     OW14134   2.609   2.240   5.226  0.1410 -0.1570 -0.5401
 4412SOL    HW114135   2.682   2.299   5.192  1.2117 -0.6363  0.8265
 4412SOL    HW214136   2.574   2.277   5.312  0.5179 -1.2397  0.1019
 4413SOL     OW14137   6.549   5.581   4.147  0.0418  0.4061  0.3773
 4413SOL    HW114138   6.471   5.632   4.111 -1.0261 -1.1686  0.3746
 4413SOL    HW214139   6.600   5.539   4.072 -0.5694 -0.6088  0.5255
 4414SOL     OW14140   3.497   5.374   0.349 -0.5783  0.1282 -0.2148
 4414SOL    HW114141   3.514   5.329   0.261 -1.6673 -0.0133 -0.3654
 4414SOL    HW214142   3.554   5.331   0.420 -0.2222 -0.2310 -0.7154
 4415SOL     OW14143   4.529   4.143   6.721 -0.2632  0.2698  0.3210
 4415SOL    HW114144   4.467   4.105   6.789 -0.6640 -0.3008 -0.3559
 4415SOL    HW214145   4.593   4.205   6.766  0.5960 -1.3980  1.5050
 4416SOL     OW14146   2.619   2.069   4.620  0.2322 -0.4518 -0.3924
 4416SOL    HW114147   2.640   2.021   4.534 -0.7605 -0.1212 -0.8403
 4416SOL    HW214148   2.520   2.072   4.632  0.3104  0.7628  0.0499
 4417SOL     OW14149   5.875   3.124   1.607 -0.4448 -0.0814  0.7214
 4417SOL    HW114150   5.790   3.145   1.558 -0.7126 -2.7625 -0.1315
 4417SOL    HW214151   5.871   3.031   1.643  1.9929 -0.1542  1.0094
 4418SOL     OW14152   4.541   6.088   5.825 -0.2153 -0.0025  0.4774
 4418SOL    HW114153   4.584   6.178   5.820  1.6057 -0.7820  1.4005
 4418SOL    HW214154   4.456   6.094   5.878 -1.8986  1.7411 -2.1473
 4419SOL     OW14155   5.542   6.701   1.679  0.2267 -0.1206 -0.4829
 4419SOL    HW114156   5.603   6.705   1.600  1.3289  0.4929  0.3767
 4419SOL    HW214157   5.593   6.672   1.760 -0.5595  0.5965  0.2913
 4420SOL     OW14158   5.515   2.956   0.236 -0.0941 -0.1236  0.0690
 4420SOL    HW114159   5.610   2.938   0.262  0.3470 -0.3352 -1.5932
 4420SOL    HW214160   5.507   2.958   0.136 -1.3247  2.7154  0.1328
 4421SOL     OW14161   0.912   1.357   3.114 -0.9347 -0.4663 -0.5636
 4421SOL    HW114162   0.904   1.344   3.015 -0.2576 -0.6837 -0.5964
 4421SOL    HW214163   0.929   1.453   3.134  1.6302 -0.7695 -0.8760
 4422SOL     OW14164   2.753   3.497   6.871  0.1009  0.0298 -0.4372
 4422SOL    HW114165   2.685   3.491   6.798 -0.5923  1.6287  0.0214
 4422SOL    HW214166   2.759   3.410   6.919 -0.2241 -0.7092 -1.6974
 4423SOL     OW14167   1.696   2.458   5.645 -0.1301  0.3596  0.1748
 4423SOL    HW114168   1.708   2.552   5.612  2.8205  1.0844  2.8921
 4423SOL    HW214169   1.650   2.460   5.734 -0.3381 -0.8292  0.1070
 4424SOL     OW14170   6.138   1.035   5.148  0.0442  0.0584 -0.2468
 4424SOL    HW114171   6.140   1.133   5.168  2.5816 -0.0028  0.2032
 4424SOL    HW214172   6.179   1.020   5.058 -1.1624 -0.5463 -0.7123
 4425SOL     OW14173   3.029   4.842   6.847  0.0436 -0.0174 -0.3771
 4425SOL    HW114174   3.002   4.938   6.853 -1.0766 -0.2186 -1.7262
 4425SOL    HW214175   3.103   4.832   6.781 -2.5518 -0.5099 -3.4270
 4426SOL     OW14176   6.607   0.683   4.671 -0.3281  0.6477  0.0139
 4426SOL    HW114177   6.573   0.594   4.641  0.9748 -0.2058  0.9601
 4426SOL    HW214178   6.670   0.719   4.602  0.6744 -0.1026  0.5242
 4427SOL     OW14179   0.589   6.726   2.186 -0.2789  0.2554  0.0487
 4427SOL    HW114180   0.497   6.708   2.149 -0.1374 -0.0035 -0.1811
 4427SOL    HW214181   0.657   6.686   2.125 -0.0919 -4.5073  2.9033
 4428SOL     OW14182   2.658   6.004   3.061  0.6265  0.1134  0.2989
 4428SOL    HW114183   2.737   6.065   3.072 -0.6772  2.2277 -1.3565
 4428SOL    HW214184   2.667   5.927   3.124  2.9170  1.4087  1.7020
 4429SOL     OW14185   2.293   1.611   3.865  0.1690 -0.1140 -0.1469
 4429SOL    HW114186   2.310   1.582   3.959  0.0616 -1.6872 -0.5799
 4429SOL    HW214187   2.381   1.624   3.818  0.2245  0.8756  0.2178
 4430SOL     OW14188   4.769   4.158   3.941  0.2068 -0.4154 -0.0509
 4430SOL    HW114189   4.766   4.215   4.023 -0.5039  0.1355 -0.4481
 4430SOL    HW214190   4.845   4.093   3.948  0.5106  0.0177  0.7780
 4431SOL     OW14191   1.645   0.679   2.553  0.2025 -0.0872 -0.0166
 4431SOL    HW114192   1.678   0.754   2.610 -1.7263 -0.1516  1.2882
 4431SOL    HW214193   1.718   0.612   2.539  1.8222  1.7629 -0.8275
 4432SOL     OW14194   3.124   3.449   3.084  0.2002 -0.2764  0.5133
 4432SOL    HW114195   3.189   3.391   3.035 -0.3698 -0.2606 -0.2782
 4432SOL    HW214196   3.043   3.396   3.108  0.3873 -0.2279  1.2695
 4433SOL     OW14197   5.537   6.661   5.546 -0.0520  0.8581 -0.1395
 4433SOL    HW114198   5.506   6.587   5.487  2.9582 -0.5751 -0.0776
 4433SOL    HW214199   5.482   6.662   5.629  0.1595 -1.7329  0.1138
 4434SOL     OW14200   4.282   2.311   2.751 -1.0133 -0.5581 -0.2453
 4434SOL    HW114201   4.319   2.258   2.674 -1.7304 -0.1128 -0.9165
 4434SOL    HW214202   4.185   2.289   2.763 -1.0063 -0.3163  0.2671
 4435SOL     OW14203   5.349   3.238   0.641 -0.1984  0.4938 -0.5186
 4435SOL    HW114204   5.417   3.165   0.650 -0.4432  0.2260 -0.8760
 4435SOL    HW214205   5.335   3.281   0.731  0.9510  1.0054 -0.5640
 4436SOL     OW14206   3.302   1.235   6.828 -0.2756  0.3385 -0.0038
 4436SOL    HW114207   3.258   1.314   6.785  1.2506  1.4423  0.3613
 4436SOL    HW214208   3.383   1.266   6.878  0.0834 -1.4132  0.5572
 4437SOL     OW14209   6.842   2.200   1.241 -0.3178  0.0247  0.1224
 4437SOL    HW114210   6.792   2.185   1.327 -1.4714 -1.3983 -0.7589
 4437SOL    HW214211   6.807   2.282   1.196 -2.0041 -1.0061 -0.5326
 4438SOL     OW14212   4.444   2.511   0.616 -0.3283  0.1070 -0.0434
 4438SOL    HW114213   4.375   2.454   0.572  0.2898 -1.6436  1.1295
 4438SOL    HW214214   4.402   2.562   0.691 -0.9195  1.3994 -1.2041
 4439SOL     OW14215   6.638   5.011   1.704 -0.5915 -0.4657 -0.1931
 4439SOL    HW114216   6.608   5.105   1.689  1.0796  0.2027  0.4300
 4439SOL    HW214217   6.724   4.994   1.655  0.3913 -0.8940  1.5624
 4440SOL     OW14218   2.220   3.714   1.269 -0.6434  0.5676 -0.2059
 4440SOL    HW114219   2.163   3.654   1.212 -0.3434  0.8392 -0.8001
 4440SOL    HW214220   2.273   3.657   1.333 -1.9122  0.3409  0.6890
 4441SOL     OW14221   6.999   2.115   1.633  0.2338  0.1357 -0.2365
 4441SOL    HW114222   7.011   2.158   1.723  1.4997  1.1164 -0.8406
 4441SOL    HW214223   7.035   2.022   1.636  0.0861  0.0926  0.3315
 4442SOL     OW14224   3.736   6.736   4.172 -0.2242  0.0549 -0.3593
 4442SOL    HW114225   3.662   6.692   4.222  0.0205  0.5551  0.4702
 4442SOL    HW214226   3.744   6.831   4.201 -1.0025  0.7929 -2.4106
 4443SOL     OW14227   1.824   3.382   0.675  0.9268 -0.5111 -0.1643
 4443SOL    HW114228   1.917   3.345   0.681  0.2402 -2.3448  0.0038
 4443SOL    HW214229   1.802   3.430   0.759  0.5365 -3.1723  1.3559
 4444SOL     OW14230   5.077   6.604   6.555  0.3082 -0.7732 -0.0550
 4444SOL    HW114231   4.990   6.595   6.505  0.6315  1.7052 -1.2224
 4444SOL    HW214232   5.065   6.571   6.649 -1.7179 -1.0475 -0.3583
 4445SOL     OW14233   1.030   6.128   0.485 -0.3431  0.0366 -0.1245
 4445SOL    HW114234   0.959   6.168   0.543  0.0155 -2.0812  1.9512
 4445SOL    HW214235   0.988   6.081   0.408 -0.9653  1.4081 -0.6404
 4446SOL     OW14236   3.135   2.019   2.119 -0.2753  0.5228  0.1081
 4446SOL    HW114237   3.133   1.923   2.089  0.2264  0.2528  0.9197
 4446SOL    HW214238   3.174   2.025   2.210 -2.0810  1.2893  0.8920
 4447SOL     OW14239   5.351   2.972   4.914 -0.6266  0.2210 -0.5856
 4447SOL    HW114240   5.370   2.967   5.013 -1.8921 -1.0286 -0.3710
 4447SOL    HW214241   5.406   2.903   4.866 -1.1696 -0.2376 -0.5511
 4448SOL     OW14242   2.229   4.453   0.627  0.0302  0.0454  0.4185
 4448SOL    HW114243   2.243   4.374   0.567  1.1439  2.0702 -2.1481
 4448SOL    HW214244   2.138   4.491   0.611 -0.1319 -0.1020  0.9474
 4449SOL     OW14245   3.280   1.068   0.205  0.0155  0.2923 -0.2535
 4449SOL    HW114246   3.242   1.033   0.120 -1.2426  0.0504  0.3967
 4449SOL    HW214247   3.369   1.024   0.222 -0.5953 -1.0660 -0.4835
 4450SOL     OW14248   3.456   4.162   3.071  0.3287 -0.3733  0.0710
 4450SOL    HW114249   3.462   4.062   3.068  0.5115 -0.3832  0.7034
 4450SOL    HW214250   3.464   4.198   2.978 -2.3081 -1.0700 -0.5169
 4451SOL     OW14251   5.803   4.643   3.287  0.2055 -0.3211 -0.2589
 4451SOL    HW114252   5.819   4.734   3.326  1.5351 -1.4388  2.0392
 4451SOL    HW214253   5.877   4.621   3.224  0.9713 -0.5418  0.6900
 4452SOL     OW14254   0.709   0.054   5.636  0.0169  0.4193 -0.3723
 4452SOL    HW114255   0.790  -0.003   5.642  0.6500  1.2640 -0.7541
 4452SOL    HW214256   0.729   0.146   5.670 -0.7776  0.6391 -0.4651
 4453SOL     OW14257   5.453   2.138   3.170  0.1565 -0.0911 -0.2718
 4453SOL    HW114258   5.544   2.104   3.147 -0.1628 -0.3414 -1.2056
 4453SOL    HW214259   5.460   2.203   3.245  1.1556  0.1521 -0.5601
 4454SOL     OW14260   5.314   4.963   0.382 -0.5143 -0.2416 -0.0355
 4454SOL    HW114261   5.377   5.037   0.406 -0.1831 -0.6326  0.3241
 4454SOL    HW214262   5.260   4.989   0.302 -0.6217  0.5140  0.2760
 4455SOL     OW14263   3.197   6.870   4.454 -0.5270 -0.2365 -0.5794
 4455SOL    HW114264   3.216   6.772   4.446 -0.5016 -0.5167  1.9059
 4455SOL    HW214265   3.247   6.920   4.384  0.9952 -1.8447 -0.7112
 4456SOL     OW14266   1.473   5.117   3.752  0.5253 -0.3017 -0.8631
 4456SOL    HW114267   1.471   5.217   3.755  1.1037 -0.3035  0.0664
 4456SOL    HW214268   1.486   5.086   3.658  0.2288  0.4939 -1.1710
 4457SOL     OW14269   4.853   2.164   6.836  0.0174 -0.1763 -0.0692
 4457SOL    HW114270   4.830   2.260   6.821 -0.9546 -0.4881 -0.6763
 4457SOL    HW214271   4.815   2.109   6.762  1.1510 -0.9620 -0.0923
 4458SOL     OW14272   0.652   5.320   6.890 -0.0327  0.2355  0.0079
 4458SOL    HW114273   0.714   5.247   6.920  1.3088  0.0034 -3.0044
 4458SOL    HW214274   0.563   5.281   6.869  0.9899 -0.8824 -2.6722
 4459SOL     OW14275   5.822   6.887   4.713  0.0332 -0.1009  0.3404
 4459SOL    HW114276   5.765   6.840   4.781 -1.3830 -0.5861 -1.1250
 4459SOL    HW214277   5.784   6.977   4.694  0.1279 -0.1680 -0.1781
 4460SOL     OW14278   3.528   2.639   6.729 -0.1151  0.0649 -0.0253
 4460SOL    HW114279   3.443   2.692   6.735 -0.8257 -1.1586  1.6842
 4460SOL    HW214280   3.592   2.671   6.798 -0.2705 -0.7876  0.5338
 4461SOL     OW14281   1.906   0.202   3.507  0.1954 -1.2390 -0.9541
 4461SOL    HW114282   1.938   0.245   3.422 -0.9903  1.7441 -0.0308
 4461SOL    HW214283   1.984   0.167   3.558  1.7116  2.1796 -0.6354
 4462SOL     OW14284   6.402   3.613   1.105 -0.6194  0.0139 -0.0408
 4462SOL    HW114285   6.475   3.657   1.158 -0.1510  0.1251 -0.7577
 4462SOL    HW214286   6.439   3.581   1.018 -1.3018 -0.4627 -0.1647
 4463SOL     OW14287   4.588   2.975   5.256 -0.0170 -0.2812  0.3980
 4463SOL    HW114288   4.571   3.066   5.295 -0.5833 -1.2686  2.6280
 4463SOL    HW214289   4.660   2.930   5.308 -0.1911 -1.3604 -0.2769
 4464SOL     OW14290   6.966   6.514   5.663 -0.4290  0.7320 -0.2556
 4464SOL    HW114291   6.935   6.506   5.568 -1.0961  2.1222 -0.1956
 4464SOL    HW214292   6.893   6.482   5.724  0.5142 -1.4736 -0.1959
 4465SOL     OW14293   0.895   6.208   1.298 -0.5586 -0.5557 -0.1403
 4465SOL    HW114294   0.885   6.195   1.199 -0.9435  0.9274 -0.3262
 4465SOL    HW214295   0.928   6.301   1.316 -0.4293 -0.8301  1.1343
 4466SOL     OW14296   1.389   1.373   2.579 -0.0087 -0.5230 -0.5111
 4466SOL    HW114297   1.442   1.438   2.633  1.6029 -2.1010 -0.0953
 4466SOL    HW214298   1.406   1.281   2.612  0.0018 -1.4357 -2.8462
 4467SOL     OW14299   1.211   6.482   3.242  0.5330 -0.1907 -0.4317
 4467SOL    HW114300   1.142   6.540   3.200  0.3877 -0.2559 -0.2805
 4467SOL    HW214301   1.282   6.539   3.284  0.0054 -0.1175  0.3636
 4468SOL     OW14302   1.995   2.259   1.318 -0.6419  0.1681 -0.1203
 4468SOL    HW114303   2.095   2.263   1.316 -0.5726 -0.0328  1.3429
 4468SOL    HW214304   1.965   2.166   1.295 -0.4310 -0.0455  0.4560
 4469SOL     OW14305   3.388   0.139   1.736 -0.1045  0.7477  0.1656
 4469SOL    HW114306   3.454   0.076   1.777  0.1293  0.0854 -1.1783
 4469SOL    HW214307   3.311   0.088   1.698 -0.1401  1.2959 -0.5353
 4470SOL     OW14308   4.782   2.150   1.410 -0.0974  0.2441 -0.1099
 4470SOL    HW114309   4.759   2.150   1.312  0.8787  0.3948 -0.3529
 4470SOL    HW214310   4.880   2.135   1.420 -0.3256 -0.6686  0.8947
 4471SOL     OW14311   0.554   1.973   0.947  0.0861 -0.4601 -0.1882
 4471SOL    HW114312   0.456   1.952   0.943 -0.2059  0.9089 -0.8230
 4471SOL    HW214313   0.567   2.069   0.972  1.2804 -0.7098  0.2055
 4472SOL     OW14314   1.224   2.060   4.837 -0.2373  0.5351 -0.0906
 4472SOL    HW114315   1.297   2.001   4.872  0.0917  1.7311  1.2822
 4472SOL    HW214316   1.201   2.129   4.904 -1.8026  0.9552 -1.0066
 4473SOL     OW14317   5.864   1.909   4.148 -0.5669  0.1628 -0.0394
 4473SOL    HW114318   5.851   2.000   4.187  0.9876 -0.1368  1.2431
 4473SOL    HW214319   5.950   1.907   4.096 -1.4407 -0.1242 -1.5524
 4474SOL     OW14320   1.708   6.902   0.580 -0.7986 -0.1415  0.4197
 4474SOL    HW114321   1.802   6.935   0.569 -0.7165 -0.1758  0.9961
 4474SOL    HW214322   1.699   6.858   0.669 -1.6811  0.9140  0.8610
 4475SOL     OW14323   0.838   3.403   3.799 -1.2022  0.0609 -0.0996
 4475SOL    HW114324   0.745   3.427   3.773 -0.8761  1.5351  0.0169
 4475SOL    HW214325   0.903   3.449   3.738 -0.5329 -0.0280  0.5207
 4476SOL     OW14326   6.001   0.018   3.374 -0.4301 -0.4362 -0.1167
 4476SOL    HW114327   6.085  -0.033   3.357 -1.7227 -2.4204 -1.0003
 4476SOL    HW214328   6.013   0.113   3.347  1.0710 -1.0085 -1.6275
 4477SOL     OW14329   3.852   4.919   4.490  0.4752  0.4777  0.5905
 4477SOL    HW114330   3.880   4.986   4.558 -0.5317  0.4963  1.0045
 4477SOL    HW214331   3.930   4.859   4.468  0.8080  0.4623  1.7616
 4478SOL     OW14332   2.926   5.643   1.899 -0.3238 -0.3954  0.4133
 4478SOL    HW114333   2.918   5.702   1.979 -0.1841  2.0126 -1.2494
 4478SOL    HW214334   2.994   5.680   1.836 -1.0635 -1.6906 -1.2330
 4479SOL     OW14335   1.969   5.613   1.365 -0.2349  0.3052 -0.5132
 4479SOL    HW114336   1.965   5.597   1.464 -0.1939 -2.0756 -0.8370
 4479SOL    HW214337   1.906   5.551   1.319  2.2046 -1.1076 -2.1815
 4480SOL     OW14338   1.986   4.213   4.043  0.3328 -0.2472  0.1987
 4480SOL    HW114339   1.978   4.265   4.129  2.6931 -0.3643  0.5559
 4480SOL    HW214340   2.058   4.253   3.987  1.1300 -2.1717 -0.2158
 4481SOL     OW14341   3.014   6.628   5.238 -0.3511  0.3721  0.3645
 4481SOL    HW114342   2.931   6.574   5.224 -1.0315  1.1210  1.3298
 4481SOL    HW214343   3.010   6.710   5.182 -0.0772  0.2220  0.1231
 4482SOL     OW14344   2.465   4.488   2.296  0.0782 -0.6549  0.1983
 4482SOL    HW114345   2.486   4.493   2.393 -0.0986 -0.5133  0.2275
 4482SOL    HW214346   2.526   4.549   2.245  0.4549 -1.0428  0.1758
 4483SOL     OW14347   5.647   4.498   6.798  0.5234 -0.1120  0.5100
 4483SOL    HW114348   5.571   4.467   6.741 -1.1390 -0.5319  2.8120
 4483SOL    HW214349   5.639   4.597   6.812  1.8492  0.2907 -1.1635
 4484SOL     OW14350   1.374   2.131   6.105  0.1819  0.1767 -0.0401
 4484SOL    HW114351   1.327   2.083   6.031 -0.1128 -0.3588  0.4839
 4484SOL    HW214352   1.469   2.099   6.110  0.2437  0.3264 -0.2901
 4485SOL     OW14353   6.429   2.019   1.452  0.3163 -0.6493  0.3848
 4485SOL    HW114354   6.358   2.086   1.473  1.0393 -0.4456  2.4520
 4485SOL    HW214355   6.388   1.932   1.428 -0.6224  0.1045 -0.8420
 4486SOL     OW14356   6.973   1.789   3.931 -0.0144 -0.0177  0.4174
 4486SOL    HW114357   7.048   1.855   3.938 -1.6948  2.0803 -0.4268
 4486SOL    HW214358   6.941   1.785   3.836 -2.3945  0.8301  1.1101
 4487SOL     OW14359   2.282   3.624   6.323  0.5767 -0.1186 -0.0132
 4487SOL    HW114360   2.251   3.700   6.266 -0.0232  0.1875  0.7006
 4487SOL    HW214361   2.376   3.600   6.298 -0.0493 -0.7458 -1.8881
 4488SOL     OW14362   5.285   4.179   4.495 -0.1321 -0.0965 -0.5996
 4488SOL    HW114363   5.224   4.247   4.536 -0.3361 -0.7647  0.2482
 4488SOL    HW214364   5.280   4.184   4.396 -1.7982 -0.3345 -0.5429
 4489SOL     OW14365   5.478   0.914   3.178  0.2376 -0.4584 -0.5886
 4489SOL    HW114366   5.446   0.823   3.204 -1.6846  0.1823 -0.5565
 4489SOL    HW214367   5.538   0.907   3.098  0.0051 -1.7286 -0.6685
 4490SOL     OW14368   0.063   5.220   1.534  0.2971 -0.2243  0.6924
 4490SOL    HW114369   0.023   5.135   1.502  0.1805 -0.8126  2.3120
 4490SOL    HW214370   0.120   5.260   1.462  0.2935 -1.6204 -0.1105
 4491SOL     OW14371   0.167   1.933   3.900  0.8984 -0.3170  0.1603
 4491SOL    HW114372   0.255   1.917   3.854 -0.0961 -0.9056 -1.5973
 4491SOL    HW214373   0.144   2.030   3.896  0.4248 -0.4675 -1.3982
 4492SOL     OW14374   5.539   2.273   0.948 -0.4776 -0.0566  0.3812
 4492SOL    HW114375   5.532   2.180   0.912  0.6506 -0.8419  2.0571
 4492SOL    HW214376   5.448   2.313   0.956 -1.0207 -1.1802  0.0532
 4493SOL     OW14377   4.732   5.800   0.666 -0.1622 -0.4734  0.1637
 4493SOL    HW114378   4.732   5.895   0.695 -2.4510 -0.9109  1.9089
 4493SOL    HW214379   4.821   5.759   0.684  0.3762  0.9496  0.8235
 4494SOL     OW14380   0.994   1.459   0.359 -0.1764 -0.3768  0.1250
 4494SOL    HW114381   0.963   1.550   0.330 -1.2614 -0.4649  0.9446
 4494SOL    HW214382   1.015   1.461   0.457 -0.5056 -1.0846  0.2142
 4495SOL     OW14383   5.401   1.412   3.446 -0.1037 -0.1644 -0.0689
 4495SOL    HW114384   5.352   1.338   3.401 -0.2608  1.3973 -2.6729
 4495SOL    HW214385   5.487   1.430   3.396  1.1410 -0.1707  1.9682
 4496SOL     OW14386   3.802   6.457   1.251 -0.0482  0.4761  0.0399
 4496SOL    HW114387   3.718   6.444   1.197  0.4771  2.0050 -1.2207
 4496SOL    HW214388   3.869   6.387   1.225 -0.1635  0.5842 -0.5603
 4497SOL     OW14389   5.724   0.320   6.712 -0.2017  0.2495  0.4970
 4497SOL    HW114390   5.771   0.393   6.761 -1.0487 -0.1685  1.9884
 4497SOL    HW214391   5.678   0.260   6.777 -0.4697 -0.9666 -0.7676
 4498SOL     OW14392   6.272   0.806   6.461  0.3341  0.1462  0.1642
 4498SOL    HW114393   6.243   0.869   6.534  1.2910  0.0757  0.6322
 4498SOL    HW214394   6.274   0.713   6.496 -1.4412 -0.2323 -0.6358
 4499SOL     OW14395   0.006   3.604   4.227  0.5239  0.2306  0.3364
 4499SOL    HW114396   0.056   3.540   4.169 -0.7143 -1.2822  0.8727
 4499SOL    HW214397  -0.050   3.554   4.292 -0.9251  1.8674  0.4352
 4500SOL     OW14398   4.157   3.444   3.982  0.3777 -0.4336 -0.0848
 4500SOL    HW114399   4.106   3.490   4.054 -1.2071  2.2110 -2.6607
 4500SOL    HW214400   4.251   3.479   3.980  0.2600 -0.0825  0.3349
 4501SOL     OW14401   5.747   5.793   6.511 -0.0235 -0.2762  0.3981
 4501SOL    HW114402   5.800   5.812   6.428  0.3389  1.0175  0.9071
 4501SOL    HW214403   5.650   5.786   6.488 -0.1030  1.5715  0.0579
 4502SOL     OW14404   2.062   0.359   5.392 -0.0541 -0.0176 -0.1347
 4502SOL    HW114405   2.020   0.377   5.304 -1.0236  0.8689  0.4836
 4502SOL    HW214406   2.119   0.436   5.419 -0.7789  0.2916  0.5723
 4503SOL     OW14407   2.018   0.234   4.026  0.1046  0.3555  0.2200
 4503SOL    HW114408   1.972   0.245   3.938  2.5278  2.0600 -0.9503
 4503SOL    HW214409   2.055   0.142   4.033 -1.2376 -0.2134  0.0748
 4504SOL     OW14410   6.319   2.432   4.941 -0.3054  0.2239  0.0498
 4504SOL    HW114411   6.228   2.470   4.923 -0.2618 -0.6538 -2.2713
 4504SOL    HW214412   6.313   2.332   4.946  0.6850  0.0638 -1.3996
 4505SOL     OW14413   6.257   4.111   2.465 -0.2643  0.2472  0.4704
 4505SOL    HW114414   6.302   4.078   2.548  0.5893 -0.8940 -0.3975
 4505SOL    HW214415   6.278   4.048   2.389 -0.8647  1.3536 -0.6482
 4506SOL     OW14416   4.525   2.730   5.138 -0.2648  0.2874  0.2113
 4506SOL    HW114417   4.546   2.826   5.154 -1.4415  0.6105 -0.1464
 4506SOL    HW214418   4.442   2.704   5.188 -0.3897 -0.3387 -0.2967
 4507SOL     OW14419   4.461   6.216   4.990 -0.0054  0.1672  0.6388
 4507SOL    HW114420   4.461   6.286   4.918  1.5795 -0.3967  0.0458
 4507SOL    HW214421   4.493   6.129   4.953 -0.1492 -0.4084  1.7982
 4508SOL     OW14422   2.034   4.122   5.803  0.2896 -0.3614 -0.0340
 4508SOL    HW114423   1.969   4.072   5.747 -0.4617  0.4440  0.0859
 4508SOL    HW214424   2.127   4.093   5.781  0.1510  0.9933 -2.7895
 4509SOL     OW14425   5.718   2.644   4.374  0.0805  0.2786  0.0636
 4509SOL    HW114426   5.809   2.633   4.413  0.9780  0.4003 -1.8664
 4509SOL    HW214427   5.697   2.567   4.314  0.1293  1.5833 -1.7147
 4510SOL     OW14428   4.908   6.807   5.408 -0.0249 -0.0353  0.1165
 4510SOL    HW114429   4.812   6.832   5.413  0.3840  2.0057 -1.1331
 4510SOL    HW214430   4.965   6.884   5.437  1.2733 -0.2813 -1.5904
 4511SOL     OW14431   4.931   4.340   6.612  0.2786  0.8488  0.9814
 4511SOL    HW114432   4.949   4.290   6.527 -1.3697  2.6045 -0.4971
 4511SOL    HW214433   4.920   4.437   6.592 -1.3994  1.1619  3.0211
 4512SOL     OW14434   2.209   6.866   4.379  0.6722 -0.0749  0.0655
 4512SOL    HW114435   2.145   6.941   4.361 -0.2389 -0.5489  1.2362
 4512SOL    HW214436   2.300   6.904   4.395  0.8188  0.5883 -1.9512
 4513SOL     OW14437   4.009   6.083   0.378 -0.7800  0.1831  0.1826
 4513SOL    HW114438   4.051   6.147   0.442 -0.7635 -0.4360  0.8069
 4513SOL    HW214439   4.065   6.001   0.371 -1.9572 -0.7505  1.1924
 4514SOL     OW14440   3.869   1.718   6.097 -0.3708 -0.5903  0.4132
 4514SOL    HW114441   3.826   1.634   6.129 -2.2472  0.8034  1.8919
 4514SOL    HW214442   3.938   1.748   6.162 -1.7076  0.4196  1.4310
 4515SOL     OW14443   6.928   5.090   6.112 -0.6595 -0.2697 -0.9201
 4515SOL    HW114444   7.018   5.048   6.104 -0.0945  0.7241 -0.0300
 4515SOL    HW214445   6.885   5.060   6.197 -0.7796 -0.0392 -0.8995
 4516SOL     OW14446   6.855   1.790   6.747 -0.4429 -0.0976 -0.1779
 4516SOL    HW114447   6.832   1.884   6.770 -0.6628  0.2562 -1.7626
 4516SOL    HW214448   6.809   1.764   6.662  1.1741 -0.9677 -0.8305
 4517SOL     OW14449   1.922   6.351   5.316 -0.1130  0.0080  0.3109
 4517SOL    HW114450   1.913   6.381   5.411 -1.9406  1.8053 -0.3621
 4517SOL    HW214451   2.019   6.349   5.291  0.3270  0.5978  1.8634
 4518SOL     OW14452   0.644   2.609   4.754  0.4378  0.5228  0.4671
 4518SOL    HW114453   0.552   2.570   4.744  0.6265  0.5829 -2.6237
 4518SOL    HW214454   0.640   2.708   4.741  0.8904  0.5919  0.8271
 4519SOL     OW14455   5.471   5.991   1.414  0.7431  0.4414  0.0616
 4519SOL    HW114456   5.404   6.060   1.441 -0.6216 -0.2817 -1.3592
 4519SOL    HW214457   5.513   6.016   1.327  1.7204  0.4700  0.5301
 4520SOL     OW14458   4.420   6.466   4.857 -0.3215  0.1300  0.4833
 4520SOL    HW114459   4.332   6.434   4.891 -0.2066 -0.0643  0.5996
 4520SOL    HW214460   4.413   6.563   4.833 -0.1108  0.5946  2.1459
 4521SOL     OW14461   5.321   1.236   4.303 -0.2298 -0.3325  0.5793
 4521SOL    HW114462   5.305   1.251   4.206 -1.1737 -0.6307  0.6847
 4521SOL    HW214463   5.275   1.152   4.332 -0.3855  0.0269  1.3962
 4522SOL     OW14464   4.632   0.006   2.182 -0.4593  0.9288 -0.4801
 4522SOL    HW114465   4.567   0.024   2.256  1.6836 -1.2558  2.1567
 4522SOL    HW214466   4.583  -0.021   2.100 -2.9657 -0.8183  1.4375
 4523SOL     OW14467   1.683   5.449   0.218 -0.2361 -0.2480  0.4079
 4523SOL    HW114468   1.656   5.387   0.145 -0.0452  0.2448 -0.0914
 4523SOL    HW214469   1.609   5.457   0.285  0.2965 -2.1937  1.3107
 4524SOL     OW14470   4.652   2.666   3.426 -0.1683  0.5775 -0.1864
 4524SOL    HW114471   4.709   2.741   3.459  0.2326  0.0107  0.4465
 4524SOL    HW214472   4.596   2.631   3.501  0.6507 -0.6409 -0.1107
 4525SOL     OW14473   1.651   1.356   2.922  0.4868 -0.3202  0.4727
 4525SOL    HW114474   1.611   1.442   2.954 -0.0587 -0.6713  0.7343
 4525SOL    HW214475   1.639   1.348   2.823  2.3564  0.8636  0.0861
 4526SOL     OW14476   4.010   5.739   1.675 -0.5022 -0.7992 -0.2029
 4526SOL    HW114477   3.925   5.773   1.635  1.1127  1.4724 -1.9956
 4526SOL    HW214478   3.991   5.704   1.767 -3.2465  0.2817 -0.2404
 4527SOL     OW14479   3.658   6.952   1.614  0.3665  0.0399  0.3623
 4527SOL    HW114480   3.730   6.973   1.679 -1.6367  0.0607  2.7186
 4527SOL    HW214481   3.593   6.888   1.655 -0.2301 -1.1320 -2.1910
 4528SOL     OW14482   5.371   6.882   5.857 -0.1841  0.7445  0.0358
 4528SOL    HW114483   5.382   6.981   5.847 -1.3190  1.0648  1.5860
 4528SOL    HW214484   5.285   6.853   5.814  0.0699  0.4384 -0.2788
 4529SOL     OW14485   2.664   1.565   5.866 -0.2970 -0.0470 -0.0962
 4529SOL    HW114486   2.659   1.594   5.961 -0.0757  0.0716 -0.1198
 4529SOL    HW214487   2.703   1.473   5.861 -0.1451  0.0177 -0.0857
 4530SOL     OW14488   1.519   2.841   0.444  0.0767 -0.1254  0.0780
 4530SOL    HW114489   1.443   2.899   0.475  0.5021  0.2551  0.4275
 4530SOL    HW214490   1.487   2.780   0.372  0.0812  2.0512 -1.9160
 4531SOL     OW14491   0.468   3.107   2.685 -0.2874 -0.6416 -0.1797
 4531SOL    HW114492   0.463   3.189   2.742 -0.5732 -0.3981 -0.5516
 4531SOL    HW214493   0.554   3.059   2.703  0.6166  0.5758 -1.0999
 4532SOL     OW14494   5.894   0.700   0.699  0.4540 -0.6308  0.2277
 4532SOL    HW114495   5.903   0.785   0.751 -0.1319  0.4076 -1.2931
 4532SOL    HW214496   5.813   0.650   0.730  0.8433 -0.6936  1.1825
 4533SOL     OW14497   1.326   1.842   3.378 -0.0663  0.4656 -0.1358
 4533SOL    HW114498   1.273   1.795   3.307  0.8059 -0.0872 -0.4339
 4533SOL    HW214499   1.292   1.935   3.388 -0.2615  0.5272 -1.2147
 4534SOL     OW14500   4.985   3.711   3.772 -0.2893  0.1177  0.4497
 4534SOL    HW114501   5.084   3.727   3.765 -0.2559 -0.5273 -0.8692
 4534SOL    HW214502   4.953   3.739   3.862  1.1718 -0.0464  1.0423
 4535SOL     OW14503   4.289   0.106   1.813  0.0960 -0.6756 -0.9619
 4535SOL    HW114504   4.234   0.099   1.897  0.6623 -1.9834 -0.6658
 4535SOL    HW214505   4.230   0.095   1.733 -0.6751  1.9779 -0.8384
 4536SOL     OW14506   5.227   3.099   3.566  0.4651 -0.0942 -0.7396
 4536SOL    HW114507   5.282   3.060   3.492 -0.4893 -0.2717 -1.3764
 4536SOL    HW214508   5.261   3.191   3.589  0.4085  0.2024 -1.8052
 4537SOL     OW14509   2.993   2.028   5.814  0.1375 -0.2771  0.0613
 4537SOL    HW114510   2.960   2.108   5.764  0.0075 -0.1483  0.3480
 4537SOL    HW214511   2.980   1.946   5.758  4.0382  0.3008 -2.0062
 4538SOL     OW14512   2.720   2.021   3.986  0.4196 -0.1031  0.4701
 4538SOL    HW114513   2.790   2.053   4.049  0.0101  1.5770  0.1186
 4538SOL    HW214514   2.634   2.070   4.003  0.0366 -0.3123 -0.7375
 4539SOL     OW14515   1.850   1.336   3.964  0.2673 -0.1394  0.1225
 4539SOL    HW114516   1.826   1.431   3.986  0.4949 -0.0524 -0.0005
 4539SOL    HW214517   1.939   1.315   4.004  0.2641 -0.2694  0.0593
 4540SOL     OW14518   4.053   3.215   4.239 -0.3288  0.5447  0.6071
 4540SOL    HW114519   4.100   3.297   4.205  3.0406 -2.3275 -2.5494
 4540SOL    HW214520   4.055   3.214   4.339  1.3164  3.3158  0.6991
 4541SOL     OW14521   0.180   1.273   7.020 -0.9974 -0.2400  0.7946
 4541SOL    HW114522   0.189   1.371   7.036 -1.4951  0.0479 -0.5663
 4541SOL    HW214523   0.110   1.256   6.951 -2.0212 -1.6652  2.1258
 4542SOL     OW14524   5.428   6.744   2.011 -0.2652  0.2197  0.1646
 4542SOL    HW114525   5.478   6.675   2.065 -0.2103 -0.4914 -0.7546
 4542SOL    HW214526   5.331   6.719   2.007 -0.1336 -0.2070 -0.7338
 4543SOL     OW14527   5.498   1.886   0.030  0.0954 -0.1435  0.1422
 4543SOL    HW114528   5.597   1.881   0.016 -0.0575  1.8502 -2.2146
 4543SOL    HW214529   5.455   1.804  -0.007  0.5456  1.0860 -3.5250
 4544SOL     OW14530   3.784   0.012   3.263  0.4941  0.0715 -0.2309
 4544SOL    HW114531   3.769  -0.061   3.196  1.0678 -0.4463  0.2020
 4544SOL    HW214532   3.868  -0.006   3.314 -0.6598 -0.3155  1.6339
 4545SOL     OW14533   5.904   3.419   0.062 -0.7514  0.4659 -0.4830
 4545SOL    HW114534   5.819   3.440   0.110 -0.0254  1.0084  0.6063
 4545SOL    HW214535   5.883   3.394  -0.033 -2.3193 -1.8247  0.3859
 4546SOL     OW14536   3.627   0.790   6.493  0.7484  0.2978 -0.0004
 4546SOL    HW114537   3.584   0.847   6.563  2.1949 -0.3214  1.4632
 4546SOL    HW214538   3.592   0.697   6.500 -0.8815  0.7315 -1.7384
 4547SOL     OW14539   6.112   3.057   4.238  0.2254  0.0887  0.5013
 4547SOL    HW114540   6.039   3.023   4.178  1.0240 -0.2659 -0.2948
 4547SOL    HW214541   6.123   2.996   4.316 -1.8580  1.3536  1.8995
 4548SOL     OW14542   0.606   4.297   2.813  0.7658  0.0910 -0.3594
 4548SOL    HW114543   0.626   4.237   2.890  1.3663 -0.8577 -1.2198
 4548SOL    HW214544   0.630   4.250   2.727 -1.8696  0.2673 -1.2722
 4549SOL     OW14545   4.584   5.119   2.045  0.3966 -0.7105  0.3556
 4549SOL    HW114546   4.579   5.054   2.120 -0.9260 -0.5752  0.4124
 4549SOL    HW214547   4.608   5.072   1.960 -0.8745 -1.3508  0.3302
 4550SOL     OW14548   1.287   5.281   4.959 -0.4266  0.5527  0.0040
 4550SOL    HW114549   1.386   5.285   4.943 -0.6706  0.2185 -1.7557
 4550SOL    HW214550   1.247   5.208   4.905 -1.3962 -0.6744  2.2632
 4551SOL     OW14551   0.238   1.439   4.066 -0.1191  0.0359 -0.0507
 4551SOL    HW114552   0.144   1.407   4.062 -0.1407 -0.0688  1.0701
 4551SOL    HW214553   0.295   1.372   4.113 -0.0196  1.2474  1.6518
 4552SOL     OW14554   0.378   3.495   6.160 -0.5546  0.2866  0.2744
 4552SOL    HW114555   0.395   3.552   6.080  0.1805 -0.3107 -0.0054
 4552SOL    HW214556   0.463   3.450   6.188 -0.9644 -0.1002  0.9313
 4553SOL     OW14557   5.351   4.519   5.790  0.2499 -0.7573  0.2530
 4553SOL    HW114558   5.324   4.614   5.807 -0.2391  0.0498 -3.8884
 4553SOL    HW214559   5.270   4.460   5.796  0.6549 -1.1758  3.4406
 4554SOL     OW14560   3.801   1.826   0.539  0.2414  0.1117  0.3301
 4554SOL    HW114561   3.727   1.759   0.531  0.6498 -0.5277  1.6103
 4554SOL    HW214562   3.782   1.887   0.616  1.1395 -0.2065  0.8217
 4555SOL     OW14563   5.527   3.314   5.939  0.8063  0.3936  0.1242
 4555SOL    HW114564   5.453   3.310   6.007 -0.1622  0.0361 -0.9105
 4555SOL    HW214565   5.593   3.241   5.957 -0.7297 -1.3032 -0.7069
 4556SOL     OW14566   4.345   1.605   3.968 -0.0667  0.0778 -0.7405
 4556SOL    HW114567   4.363   1.541   4.043  1.2263  0.3069 -0.8446
 4556SOL    HW214568   4.272   1.568   3.911 -2.9265  1.0372  1.9679
 4557SOL     OW14569   5.199   6.223   6.670 -0.4200  0.2179  0.8418
 4557SOL    HW114570   5.249   6.147   6.629 -0.3219 -0.0301  1.4149
 4557SOL    HW214571   5.130   6.256   6.606 -1.6904 -1.5178  1.2691
 4558SOL     OW14572   6.179   4.707   5.869  1.0546 -0.2630 -0.8079
 4558SOL    HW114573   6.153   4.651   5.948  4.9336 -3.7086 -1.6715
 4558SOL    HW214574   6.123   4.681   5.791 -0.1614  0.3802 -0.1906
 4559SOL     OW14575   1.382   5.514   6.922  0.0765 -0.1049  0.6132
 4559SOL    HW114576   1.384   5.546   6.827 -0.4860  0.4734  0.7939
 4559SOL    HW214577   1.437   5.431   6.930  0.0237 -0.2306 -0.2498
 4560SOL     OW14578   4.629   6.523   3.179 -0.1533 -0.5073 -0.3004
 4560SOL    HW114579   4.708   6.461   3.177 -0.2469 -0.8548  2.7044
 4560SOL    HW214580   4.645   6.600   3.117  2.9540 -0.1316  0.8106
 4561SOL     OW14581   3.412   1.319   2.800 -0.2714  0.4864  0.6862
 4561SOL    HW114582   3.345   1.344   2.730 -0.3930  2.0091  1.2926
 4561SOL    HW214583   3.451   1.230   2.779 -2.1933 -0.2688  0.1010
 4562SOL     OW14584   1.822   5.218   4.765 -0.2288 -0.0718 -0.7276
 4562SOL    HW114585   1.869   5.168   4.838 -0.9662 -0.1970 -0.3350
 4562SOL    HW214586   1.724   5.222   4.785 -0.3701  0.2937 -1.4796
 4563SOL     OW14587   6.788   4.011   6.804  0.2645 -0.3336 -0.2077
 4563SOL    HW114588   6.717   4.053   6.748 -0.4246 -0.6881  0.3792
 4563SOL    HW214589   6.865   3.984   6.746  0.1646  0.5514 -0.7706
 4564SOL     OW14590   1.132   6.154   6.354  0.4121  0.3699 -0.2324
 4564SOL    HW114591   1.154   6.119   6.446  0.9263  0.2871 -0.3830
 4564SOL    HW214592   1.170   6.092   6.285 -1.5264 -0.5638 -0.5248
 4565SOL     OW14593   5.979   1.836   5.855 -0.2192  0.0094  0.6025
 4565SOL    HW114594   5.923   1.913   5.885  0.5149  0.8325 -0.1205
 4565SOL    HW214595   5.972   1.825   5.756  1.0445  0.2486  0.4699
 4566SOL     OW14596   0.886   2.530   1.212  0.5524 -0.0149 -0.0714
 4566SOL    HW114597   0.947   2.537   1.290 -0.6411 -0.3717  0.9435
 4566SOL    HW214598   0.866   2.433   1.195 -0.0928  0.1117 -0.0690
 4567SOL     OW14599   0.266   1.773   1.237 -0.2121 -0.2448 -0.0506
 4567SOL    HW114600   0.243   1.734   1.326 -1.4669 -0.8003 -0.6011
 4567SOL    HW214601   0.326   1.710   1.188  3.6518  1.6563  1.8007
 4568SOL     OW14602   0.669   5.423   4.545 -0.5087 -0.2179 -0.1002
 4568SOL    HW114603   0.667   5.519   4.517  0.7324  0.1554  1.0065
 4568SOL    HW214604   0.670   5.365   4.463 -0.0790  0.7413 -0.7977
 4569SOL     OW14605   2.594   3.115   1.609 -0.0939 -0.7225  0.0382
 4569SOL    HW114606   2.625   3.209   1.620  0.2515 -0.8191 -0.0618
 4569SOL    HW214607   2.660   3.053   1.654 -1.3129 -0.8067  1.8014
 4570SOL     OW14608   0.049   5.483   4.809 -0.7199 -0.1529 -0.3748
 4570SOL    HW114609   0.047   5.406   4.873 -2.5536 -0.0971 -0.3071
 4570SOL    HW214610  -0.003   5.559   4.848  0.7488  1.0171 -0.6065
 4571SOL     OW14611   4.302   2.020   0.481 -0.1149 -0.0804 -0.3201
 4571SOL    HW114612   4.259   2.110   0.474  0.6619  0.1729 -2.9332
 4571SOL    HW214613   4.248   1.962   0.543 -1.0442  1.9004  0.8230
 4572SOL     OW14614   1.643   4.472   5.392  0.3347 -0.2889  0.0793
 4572SOL    HW114615   1.576   4.426   5.449  0.7090 -0.7775  0.1248
 4572SOL    HW214616   1.597   4.541   5.335 -0.2750 -0.9455 -0.2393
 4573SOL     OW14617   5.433   5.702   1.478  0.5600  0.6708 -0.5217
 4573SOL    HW114618   5.381   5.674   1.559  1.0701  0.3337 -0.3062
 4573SOL    HW214619   5.416   5.799   1.459 -1.5197  0.1904 -1.4911
 4574SOL     OW14620   1.193   3.766   0.566 -0.1641  0.1214  0.4131
 4574SOL    HW114621   1.195   3.684   0.510  0.7012  1.6952 -2.0158
 4574SOL    HW214622   1.131   3.752   0.643 -1.6495 -2.0535 -1.0582
 4575SOL     OW14623   0.179   2.114   6.625  0.1680  0.2884 -0.0183
 4575SOL    HW114624   0.217   2.203   6.651  0.0071 -0.0293  1.4146
 4575SOL    HW214625   0.131   2.122   6.538  1.4487  1.2446 -0.6795
 4576SOL     OW14626   0.883   6.232   0.058 -0.5882 -0.1657 -0.0053
 4576SOL    HW114627   0.930   6.173   0.124  1.4790 -1.2835 -2.2876
 4576SOL    HW214628   0.809   6.181   0.014  1.8482 -1.6689 -2.7241
 4577SOL     OW14629   0.981   3.037   1.956 -0.0034  0.1869 -0.8138
 4577SOL    HW114630   1.023   3.061   2.043  2.0309  0.4327 -1.8029
 4577SOL    HW214631   0.975   2.938   1.948 -2.6859  0.1326  0.6617
 4578SOL     OW14632   6.922   3.765   2.830 -0.1162 -0.4372 -0.2031
 4578SOL    HW114633   7.004   3.806   2.789 -0.2824  0.4250  0.3240
 4578SOL    HW214634   6.860   3.837   2.861 -0.3496 -1.0814  0.8636
 4579SOL     OW14635   6.498   1.729   3.763  0.2309 -0.1016  0.0006
 4579SOL    HW114636   6.437   1.719   3.685  0.5278 -2.3774 -0.0156
 4579SOL    HW214637   6.527   1.824   3.772 -2.2960  0.7936 -0.7286
 4580SOL     OW14638   5.878   6.197   1.195 -0.2839 -0.3927  0.3919
 4580SOL    HW114639   5.896   6.256   1.274  1.6483  0.4762 -0.6189
 4580SOL    HW214640   5.944   6.122   1.194  1.8150  1.2994 -1.9348
 4581SOL     OW14641   3.848   6.585   2.543  0.1128  0.2340  0.4087
 4581SOL    HW114642   3.835   6.663   2.604  0.1372  0.7024 -0.1710
 4581SOL    HW214643   3.870   6.618   2.451 -0.0275 -0.4538  0.1188
 4582SOL     OW14644   6.094   6.001   3.296 -0.1678 -0.0137 -0.4458
 4582SOL    HW114645   6.064   5.992   3.391  0.1378 -0.5542 -0.3988
 4582SOL    HW214646   6.188   5.968   3.287  0.7258  2.3398 -0.4383
 4583SOL     OW14647   2.048   2.442   5.988 -0.3292 -0.0856 -0.1266
 4583SOL    HW114648   2.111   2.383   5.938  2.0886 -1.1107  3.7362
 4583SOL    HW214649   2.090   2.531   6.003 -1.4084  0.5371 -0.6380
 4584SOL     OW14650   6.978   4.292   4.691  0.2194  0.1788 -0.1366
 4584SOL    HW114651   7.016   4.383   4.676 -1.0308  0.6574 -0.5321
 4584SOL    HW214652   7.006   4.231   4.617 -0.3880  0.7241 -0.8219
 4585SOL     OW14653   4.328   6.439   3.901 -0.7351  0.0259 -0.3271
 4585SOL    HW114654   4.274   6.494   3.838 -1.2372  0.5563  0.5479
 4585SOL    HW214655   4.425   6.450   3.881 -0.8818  0.3590 -0.8597
 4586SOL     OW14656   3.391   5.641   6.702 -0.2094 -0.6888  0.1392
 4586SOL    HW114657   3.482   5.605   6.721 -0.1998 -0.3709  0.7167
 4586SOL    HW214658   3.324   5.593   6.759 -0.1220  0.6048  1.3869
 4587SOL     OW14659   3.611   2.818   2.167  0.0259 -0.1956  0.2257
 4587SOL    HW114660   3.667   2.749   2.215 -0.4792 -1.8384 -1.4273
 4587SOL    HW214661   3.520   2.820   2.208  0.4047  0.3836  1.0589
 4588SOL     OW14662   3.717   3.966   6.248  0.1372 -0.2028  0.0051
 4588SOL    HW114663   3.755   3.987   6.338  1.8833 -1.0181 -0.4992
 4588SOL    HW214664   3.649   4.036   6.223  0.9039  1.0171  1.1957
 4589SOL     OW14665   5.207   1.309   2.628  0.3686  0.0039 -0.7007
 4589SOL    HW114666   5.231   1.212   2.622 -1.8039 -0.7038  0.8515
 4589SOL    HW214667   5.254   1.350   2.706 -2.9252 -1.3515  2.2714
 4590SOL     OW14668   5.640   5.662   3.134  0.0277  0.0841  0.5020
 4590SOL    HW114669   5.659   5.576   3.181 -0.1604 -0.2340 -0.0009
 4590SOL    HW214670   5.671   5.738   3.191  2.5311 -0.3783 -0.1201
 4591SOL     OW14671   6.513   6.275   3.799  0.2051  0.0518  0.3882
 4591SOL    HW114672   6.499   6.185   3.840 -0.9868  0.2723  0.5027
 4591SOL    HW214673   6.464   6.280   3.712  0.1983  0.6176  0.4217
 4592SOL     OW14674   4.334   1.897   1.578 -0.0453 -0.1604 -0.5399
 4592SOL    HW114675   4.412   1.919   1.519  0.6882 -1.8446 -0.2397
 4592SOL    HW214676   4.311   1.800   1.569 -1.9482  0.2424 -0.4095
 4593SOL     OW14677   4.333   4.775   5.741  0.0059  0.0229  0.0074
 4593SOL    HW114678   4.292   4.686   5.763 -0.6211  0.6523  1.4732
 4593SOL    HW214679   4.301   4.805   5.651  0.3552 -1.2871 -0.5917
 4594SOL     OW14680   3.211   0.703   1.211  0.3777 -0.2724  0.0945
 4594SOL    HW114681   3.257   0.665   1.291 -0.3392  0.8044  1.0424
 4594SOL    HW214682   3.123   0.656   1.198  0.8574 -1.0085 -0.5675
 4595SOL     OW14683   3.549   4.302   5.927  0.0973 -1.3830  0.4426
 4595SOL    HW114684   3.636   4.274   5.966  0.9906  0.8495  0.1810
 4595SOL    HW214685   3.562   4.336   5.834 -0.4937  1.5380  1.3052
 4596SOL     OW14686   6.438   6.026   3.504  0.0913 -0.1219 -0.0957
 4596SOL    HW114687   6.420   5.929   3.518  2.9789 -0.9066 -1.0564
 4596SOL    HW214688   6.466   6.042   3.410  1.0326  1.3975  0.3939
 4597SOL     OW14689   3.815   4.657   0.307  0.2832 -0.0740  0.3989
 4597SOL    HW114690   3.887   4.708   0.261 -0.7159  2.0486  1.0399
 4597SOL    HW214691   3.777   4.589   0.245  1.8714 -0.2724 -0.4038
 4598SOL     OW14692   1.332   6.380   1.978  0.2277 -0.1073 -0.0277
 4598SOL    HW114693   1.402   6.431   2.026  0.1769 -0.0992  0.0380
 4598SOL    HW214694   1.375   6.316   1.914  0.4244 -2.2132  2.0781
 4599SOL     OW14695   0.567   6.017   6.309  0.7272 -0.0775  0.6653
 4599SOL    HW114696   0.586   6.051   6.217 -3.9111  2.5962  0.3782
 4599SOL    HW214697   0.510   5.935   6.303  1.0271 -0.3184  1.1423
 4600SOL     OW14698   3.432   5.557   3.337 -0.4582 -0.2647 -0.2707
 4600SOL    HW114699   3.400   5.515   3.252 -0.3646  0.0857 -0.4788
 4600SOL    HW214700   3.487   5.490   3.388 -1.3329 -0.8044 -0.0095
 4601SOL     OW14701   0.071   6.805   4.312  0.6332 -0.2248 -0.1148
 4601SOL    HW114702   0.088   6.814   4.410  0.5047  1.2448 -0.2041
 4601SOL    HW214703   0.097   6.890   4.266  0.5892 -0.8577 -1.3433
 4602SOL     OW14704   1.518   0.219   0.917  0.0760 -0.1693 -0.2929
 4602SOL    HW114705   1.592   0.262   0.866  1.0608  0.1816  1.3656
 4602SOL    HW214706   1.545   0.126   0.944 -0.6097 -0.5141 -0.7384
 4603SOL     OW14707   2.577   4.930   0.230  0.4897  0.1606 -0.1112
 4603SOL    HW114708   2.554   5.019   0.271  0.6403 -0.1859  0.7280
 4603SOL    HW214709   2.674   4.913   0.240  0.2970 -0.5405  0.6024
 4604SOL     OW14710   5.052   0.515   2.275 -0.4668  0.5877 -0.1315
 4604SOL    HW114711   5.151   0.509   2.262 -0.3149  0.2870  1.0282
 4604SOL    HW214712   5.008   0.540   2.189  0.7387  2.1262 -0.3392
 4605SOL     OW14713   4.509   1.056   4.023 -0.6792  0.0007 -0.3959
 4605SOL    HW114714   4.420   1.021   3.994 -0.8781  1.6269 -1.9615
 4605SOL    HW214715   4.565   0.982   4.059 -1.7387 -1.5351 -1.8005
 4606SOL     OW14716   5.683   6.245   2.812 -0.4709 -0.3483  0.3818
 4606SOL    HW114717   5.674   6.246   2.912 -3.1178 -0.5934  0.1966
 4606SOL    HW214718   5.753   6.178   2.786 -0.0674 -0.6126  2.0237
 4607SOL     OW14719   3.961   4.009   1.700 -0.0994  0.4910  0.1065
 4607SOL    HW114720   4.019   4.078   1.657  0.7220  0.3515  0.9536
 4607SOL    HW214721   3.882   4.053   1.742 -1.2436  0.5640 -2.0280
 4608SOL     OW14722   6.459   5.922   5.383 -0.4654  0.0562  0.4611
 4608SOL    HW114723   6.359   5.924   5.394 -0.6261  3.1549 -0.5552
 4608SOL    HW214724   6.501   5.991   5.442  0.8041  0.4841 -0.8784
 4609SOL     OW14725   4.274   6.568   0.360 -0.1953  0.3576  0.8541
 4609SOL    HW114726   4.323   6.485   0.389 -1.8463 -0.6940  0.7848
 4609SOL    HW214727   4.196   6.583   0.421 -1.5639  0.2207 -0.8045
 4610SOL     OW14728   5.661   2.809   0.528  0.2258  0.1102  0.1848
 4610SOL    HW114729   5.711   2.855   0.454 -1.6587  0.6364 -0.8098
 4610SOL    HW214730   5.652   2.712   0.507 -1.1359  0.4294 -0.7795
 4611SOL     OW14731   5.684   6.996   0.076 -0.1846 -0.3726 -0.2869
 4611SOL    HW114732   5.737   7.067   0.122  1.7317 -1.9301  0.0495
 4611SOL    HW214733   5.741   6.950   0.008 -1.1276 -2.0475 -0.0110
 4612SOL     OW14734   0.882   6.359   0.951 -0.3042  0.5088  0.6453
 4612SOL    HW114735   0.964   6.380   0.897  0.6257 -0.9205  1.4143
 4612SOL    HW214736   0.852   6.440   1.000  1.3274  0.8161  1.1917
 4613SOL     OW14737   1.548   6.076   1.698  0.8508  0.0083 -0.1104
 4613SOL    HW114738   1.507   5.984   1.698  0.4896  0.1604 -1.0628
 4613SOL    HW214739   1.475   6.145   1.698  1.0984  0.2840 -0.9414
 4614SOL     OW14740   6.525   3.283   4.058 -0.2292  0.1351  0.6644
 4614SOL    HW114741   6.436   3.308   4.096 -0.2028 -0.6844  1.2873
 4614SOL    HW214742   6.577   3.366   4.039 -1.1463  0.6220  0.2401
 4615SOL     OW14743   1.971   1.139   6.772 -0.6543  0.8277 -0.2519
 4615SOL    HW114744   2.019   1.161   6.857 -2.3590  1.6892  0.5378
 4615SOL    HW214745   2.037   1.134   6.697  1.3123 -2.3774  1.4421
 4616SOL     OW14746   5.249   0.341   5.783 -0.2603  0.3994 -0.0958
 4616SOL    HW114747   5.205   0.426   5.811  0.4557  1.1374 -1.1209
 4616SOL    HW214748   5.221   0.319   5.689  0.7287  0.3168 -0.3780
 4617SOL     OW14749   1.483   2.721   3.615  0.0008 -0.2643 -0.6977
 4617SOL    HW114750   1.463   2.642   3.557  3.7825 -1.4637 -0.6321
 4617SOL    HW214751   1.509   2.690   3.706 -1.0906  1.2966  0.1926
 4618SOL     OW14752   1.135   4.442   4.576 -0.1174  0.1849 -0.4852
 4618SOL    HW114753   1.185   4.488   4.503 -1.1098  0.1126 -1.2283
 4618SOL    HW214754   1.055   4.396   4.538 -0.1373 -0.6469  0.5127
 4619SOL     OW14755   4.622   0.339   3.949  0.1241 -0.4256 -0.5027
 4619SOL    HW114756   4.587   0.268   3.888  0.1039 -2.1742  1.4089
 4619SOL    HW214757   4.600   0.429   3.912  0.9692 -1.3335 -3.5082
 4620SOL     OW14758   2.455   5.570   5.370 -0.2593  0.3070 -0.2211
 4620SOL    HW114759   2.397   5.558   5.289 -0.6774  0.9724 -0.0346
 4620SOL    HW214760   2.550   5.550   5.347 -0.7748 -2.7591 -0.0573
 4621SOL     OW14761   0.594   1.754   3.951 -0.1143 -0.6035 -0.2433
 4621SOL    HW114762   0.674   1.770   3.894 -0.0697  0.8740  0.2117
 4621SOL    HW214763   0.616   1.774   4.046 -0.8187 -0.9330 -0.0021
 4622SOL     OW14764   1.080   2.515   0.769  0.0996  0.2780 -0.5861
 4622SOL    HW114765   1.159   2.543   0.715 -0.2884  0.0473 -1.2823
 4622SOL    HW214766   1.103   2.433   0.821  0.0559 -0.2999 -1.4614
 4623SOL     OW14767   0.060   5.447   0.897 -0.0544 -0.1826 -0.1833
 4623SOL    HW114768   0.150   5.414   0.926 -0.1093  0.9646  1.4326
 4623SOL    HW214769   0.018   5.379   0.837  1.3159 -1.3699  0.1253
 4624SOL     OW14770   4.899   0.786   2.497 -0.2718  0.4187 -0.0221
 4624SOL    HW114771   4.833   0.845   2.451 -1.1380  0.0722  0.7452
 4624SOL    HW214772   4.858   0.748   2.580  0.5020 -0.7116 -0.1249
 4625SOL     OW14773   1.502   5.326   6.751 -0.1524 -0.0562 -0.6566
 4625SOL    HW114774   1.552   5.335   6.665 -1.2116  0.3787 -1.2602
 4625SOL    HW214775   1.404   5.323   6.732 -0.4304  0.4273  0.5645
 4626SOL     OW14776   3.863   5.462   1.337 -0.1491 -0.0893 -0.0961
 4626SOL    HW114777   3.945   5.515   1.360 -0.9853  0.4767  1.7288
 4626SOL    HW214778   3.829   5.492   1.248  1.4658 -0.1619 -0.7742
 4627SOL     OW14779   3.361   5.247   2.782 -0.6677 -0.5810 -0.3330
 4627SOL    HW114780   3.392   5.334   2.743 -0.8666  0.0783  0.9029
 4627SOL    HW214781   3.344   5.181   2.709  1.4773 -0.2637 -1.1877
 4628SOL     OW14782   6.521   4.459   3.615  0.2035  0.3351  0.3463
 4628SOL    HW114783   6.579   4.377   3.617 -0.6685 -0.2845  1.0536
 4628SOL    HW214784   6.430   4.436   3.649 -0.2713  1.4427 -0.1396
 4629SOL     OW14785   2.323   4.180   4.148  0.2680 -0.3393  0.1245
 4629SOL    HW114786   2.397   4.227   4.196  1.2641 -0.3954 -1.3014
 4629SOL    HW214787   2.255   4.148   4.214  0.8457  0.8635  1.3471
 4630SOL     OW14788   4.481   0.327   1.903  0.1700 -0.7451 -0.0692
 4630SOL    HW114789   4.462   0.424   1.915  1.5670  0.0941 -3.5321
 4630SOL    HW214790   4.396   0.275   1.914 -0.7212  0.8801  1.2136
 4631SOL     OW14791   2.953   6.323   3.632  0.1603 -0.3093  0.4503
 4631SOL    HW114792   2.940   6.281   3.722 -0.1189 -3.1614 -0.8168
 4631SOL    HW214793   2.864   6.350   3.595  0.1032 -0.6555  0.3384
 4632SOL     OW14794   4.536   5.156   3.473 -0.2143 -0.1096 -0.5979
 4632SOL    HW114795   4.507   5.075   3.422  0.2106  0.3237 -1.5513
 4632SOL    HW214796   4.500   5.151   3.566 -1.6911 -0.5385 -1.1499
 4633SOL     OW14797   5.314   3.170   1.768  0.0170  0.2385 -0.6558
 4633SOL    HW114798   5.320   3.082   1.720 -2.1933 -0.8510  0.8817
 4633SOL    HW214799   5.317   3.154   1.867 -0.7980  1.8663 -0.3376
 4634SOL     OW14800   2.029   4.314   0.180 -0.1074 -0.3767  0.0284
 4634SOL    HW114801   1.979   4.346   0.261  1.1788  1.2021  0.2532
 4634SOL    HW214802   2.121   4.286   0.207  0.1330 -0.3940 -0.7944
 4635SOL     OW14803   5.683   3.143   0.536  0.6389  0.3173 -0.3492
 4635SOL    HW114804   5.665   3.209   0.608  0.6339 -0.0953  0.0328
 4635SOL    HW214805   5.605   3.081   0.527  0.3456  0.7913 -1.1835
 4636SOL     OW14806   2.787   4.924   0.974  0.8881  0.1838  0.4533
 4636SOL    HW114807   2.820   4.829   0.973  2.9773  0.8341  1.4355
 4636SOL    HW214808   2.735   4.942   0.890  0.6751 -1.7421  0.1259
 4637SOL     OW14809   1.343   2.351   2.361 -0.4400  0.2903 -0.3558
 4637SOL    HW114810   1.303   2.324   2.448 -0.0596 -1.7930 -0.7851
 4637SOL    HW214811   1.285   2.318   2.286  0.9142 -0.8663 -0.9421
 4638SOL     OW14812   4.062   2.905   5.842 -0.1440 -0.2392 -0.1357
 4638SOL    HW114813   4.051   2.862   5.753  1.9553 -0.6691 -0.2448
 4638SOL    HW214814   4.015   2.850   5.912 -0.9727 -0.4305 -0.8288
 4639SOL     OW14815   1.250   3.651   4.663  0.3716  0.1153  0.2974
 4639SOL    HW114816   1.301   3.575   4.703  0.9756  0.2032 -0.2760
 4639SOL    HW214817   1.186   3.617   4.595  0.4771  0.0932  0.2081
 4640SOL     OW14818   5.133   4.762   2.994 -0.6594  0.0376  0.2574
 4640SOL    HW114819   5.070   4.827   2.950 -0.1675  0.2858 -0.0880
 4640SOL    HW214820   5.145   4.682   2.936 -0.0716  0.3298 -0.0346
 4641SOL     OW14821   5.238   6.532   2.778 -0.3735  0.9458  0.3532
 4641SOL    HW114822   5.281   6.577   2.856  2.6752 -0.4695 -0.3781
 4641SOL    HW214823   5.209   6.440   2.805  1.4331  0.1417 -0.2931
 4642SOL     OW14824   0.730   2.161   4.289 -0.1615  0.0570 -0.0721
 4642SOL    HW114825   0.758   2.155   4.385 -0.3818  2.5346  0.1867
 4642SOL    HW214826   0.730   2.069   4.249  3.1882 -0.7363  1.3559
 4643SOL     OW14827   5.672   1.699   2.773  0.2778  0.6913 -0.3993
 4643SOL    HW114828   5.595   1.731   2.718 -0.2029 -0.9176 -0.7091
 4643SOL    HW214829   5.756   1.742   2.741  0.4316 -1.8656 -4.0707
 4644SOL     OW14830   1.196   4.446   4.138 -0.0639  0.3844 -0.1723
 4644SOL    HW114831   1.126   4.383   4.102 -0.8267  0.8967  0.3782
 4644SOL    HW214832   1.252   4.479   4.062 -0.4611  0.0168 -0.6410
 4645SOL     OW14833   1.027   1.842   5.897  0.1251 -0.3012  0.2809
 4645SOL    HW114834   0.954   1.806   5.840  1.2744  1.8159 -2.8120
 4645SOL    HW214835   1.000   1.932   5.932  0.6463 -0.2105  0.4598
 4646SOL     OW14836   3.444   6.828   1.815  0.1633  0.1391 -0.0182
 4646SOL    HW114837   3.408   6.871   1.897  0.2221  1.2502 -0.5606
 4646SOL    HW214838   3.508   6.755   1.841  0.3967  0.6611  0.9227
 4647SOL     OW14839   0.259   5.969   5.371  0.1198  0.5575  0.0237
 4647SOL    HW114840   0.302   5.888   5.333 -0.8219  0.3319 -0.5995
 4647SOL    HW214841   0.164   5.974   5.341  0.0536  1.6956  0.3565
 4648SOL     OW14842   4.622   0.028   1.158 -0.9520 -0.1958  0.0722
 4648SOL    HW114843   4.676  -0.044   1.200  0.5098  0.8712  0.1214
 4648SOL    HW214844   4.558  -0.011   1.093  0.3917 -1.4870 -0.5307
 4649SOL     OW14845   5.826   4.551   5.535 -0.0525  0.0102 -0.0575
 4649SOL    HW114846   5.897   4.484   5.511 -0.3483 -0.1366 -0.5211
 4649SOL    HW214847   5.736   4.512   5.519 -0.2549  1.4691 -3.0536
 4650SOL     OW14848   3.518   5.999   3.814 -0.3665 -0.0723  0.2385
 4650SOL    HW114849   3.565   6.035   3.895  0.7358  0.0678 -0.4386
 4650SOL    HW214850   3.420   6.008   3.826 -0.2783 -0.8809  1.9499
 4651SOL     OW14851   6.762   1.427   1.428 -0.2980 -0.3651 -0.3708
 4651SOL    HW114852   6.664   1.412   1.442 -0.4553  1.9901  1.8711
 4651SOL    HW214853   6.776   1.508   1.371  0.4152 -1.2015 -1.4480
 4652SOL     OW14854   1.050   0.540   6.470 -0.2407  0.0925 -0.1459
 4652SOL    HW114855   0.955   0.572   6.470 -0.1612  0.3732  1.0528
 4652SOL    HW214856   1.085   0.542   6.377  0.0907  4.5595 -0.1479
 4653SOL     OW14857   5.804   6.493   6.768 -0.1377 -0.1709  0.3197
 4653SOL    HW114858   5.890   6.456   6.804  0.6423  1.1009 -0.1283
 4653SOL    HW214859   5.823   6.545   6.684 -1.6065 -1.2920 -0.7622
 4654SOL     OW14860   1.108   0.790   6.596  0.0336  0.3825  0.4370
 4654SOL    HW114861   1.087   0.695   6.576 -1.1045  0.3984  1.4426
 4654SOL    HW214862   1.093   0.808   6.693  1.3158  1.3199  0.4857
 4655SOL     OW14863   5.676   5.550   2.287  0.4640 -0.4013 -0.1970
 4655SOL    HW114864   5.705   5.498   2.368  0.5287  0.1479  0.1385
 4655SOL    HW214865   5.618   5.492   2.230 -0.0947 -0.6048  0.5499
 4656SOL     OW14866   0.145   1.887   5.726 -0.1685 -0.1083  0.1328
 4656SOL    HW114867   0.166   1.789   5.734 -0.9231 -0.3879 -1.0507
 4656SOL    HW214868   0.048   1.902   5.748 -0.2973  0.2237 -0.6443
 4657SOL     OW14869   3.749   6.244   2.367 -0.0315  0.0918  0.1767
 4657SOL    HW114870   3.661   6.271   2.405  0.4571  2.0400 -0.0000
 4657SOL    HW214871   3.800   6.191   2.434 -0.3846  0.9622  1.1499
 4658SOL     OW14872   3.530   1.815   3.637  0.2348 -0.2548 -0.1999
 4658SOL    HW114873   3.484   1.865   3.711 -1.2767 -0.2647 -1.0988
 4658SOL    HW214874   3.538   1.875   3.557  1.4918 -0.3740 -0.1776
 4659SOL     OW14875   2.978   3.674   0.441 -0.4109  0.6359 -0.1809
 4659SOL    HW114876   2.980   3.576   0.463 -2.9223  0.7331  0.8685
 4659SOL    HW214877   3.071   3.708   0.432  0.5401 -1.8492 -0.6399
 4660SOL     OW14878   1.206   4.212   4.937 -0.6059 -0.2578 -0.6738
 4660SOL    HW114879   1.127   4.257   4.979 -0.0544 -0.1567  0.2691
 4660SOL    HW214880   1.252   4.155   5.005  0.6805  0.4126 -0.9577
 4661SOL     OW14881   4.818   3.024   5.450  0.1798 -0.2210  0.4652
 4661SOL    HW114882   4.908   2.983   5.432 -0.4005 -0.9383 -0.9374
 4661SOL    HW214883   4.812   3.113   5.404  0.7904  0.6936  2.0510
 4662SOL     OW14884   3.170   1.212   5.756  0.0936 -0.0241  0.0763
 4662SOL    HW114885   3.134   1.149   5.826  1.2104 -1.2529 -0.4270
 4662SOL    HW214886   3.223   1.161   5.689  0.6326  1.4072 -0.6269
 4663SOL     OW14887   1.871   0.532   2.495 -0.6298 -0.2120 -0.4297
 4663SOL    HW114888   1.868   0.446   2.444  0.5281 -0.2157 -0.5322
 4663SOL    HW214889   1.963   0.544   2.534 -1.1245  0.4204  0.5595
 4664SOL     OW14890   2.246   2.675   1.795 -0.1707 -0.4155  0.6085
 4664SOL    HW114891   2.188   2.607   1.841  0.3893 -0.7329  0.8641
 4664SOL    HW214892   2.340   2.666   1.828 -0.1314  0.6482  0.8157
 4665SOL     OW14893   2.613   0.839   6.959 -0.0980  0.1485  0.3585
 4665SOL    HW114894   2.604   0.919   7.018 -0.9328  0.2660  0.0767
 4665SOL    HW214895   2.526   0.790   6.956  0.2591 -0.4776  0.1068
 4666SOL     OW14896   2.094   1.659   2.547 -0.2866  0.2172 -0.2453
 4666SOL    HW114897   2.178   1.608   2.563  0.9955  2.8725  2.3987
 4666SOL    HW214898   2.107   1.723   2.472  0.5687  1.4526  0.9016
 4667SOL     OW14899   5.129   5.616   1.132 -0.5921  0.2271 -0.2305
 4667SOL    HW114900   5.205   5.680   1.144 -0.6459  0.0201  1.4661
 4667SOL    HW214901   5.118   5.596   1.035  0.1682  1.8849 -0.7073
 4668SOL     OW14902   6.298   2.083   3.069  0.4285  0.5747  0.1325
 4668SOL    HW114903   6.337   2.012   3.127 -1.7190 -2.0708 -1.4156
 4668SOL    HW214904   6.204   2.103   3.099 -0.4113 -0.2190 -1.8010
 4669SOL     OW14905   4.666   5.542   0.279  0.3194 -0.2522 -0.1940
 4669SOL    HW114906   4.671   5.445   0.258 -0.6341 -0.3185 -0.1352
 4669SOL    HW214907   4.635   5.555   0.374 -3.6442  0.1013 -1.3826
 4670SOL     OW14908   3.921   0.597   5.417  0.2973  0.3458  0.0536
 4670SOL    HW114909   3.948   0.502   5.399 -0.4696  0.4644 -1.9795
 4670SOL    HW214910   3.852   0.599   5.489 -0.6178 -0.7742 -0.7656
 4671SOL     OW14911   5.871   1.831   1.416 -0.0341  0.1765 -0.5405
 4671SOL    HW114912   5.938   1.902   1.397  0.0271 -0.0589 -1.2261
 4671SOL    HW214913   5.908   1.742   1.390  0.0841 -0.1826  0.7808
 4672SOL     OW14914   2.388   4.615   0.440 -0.7190 -0.1605 -0.3770
 4672SOL    HW114915   2.348   4.704   0.458 -0.6944 -0.1380 -0.4317
 4672SOL    HW214916   2.361   4.550   0.511  1.0044  0.4295  0.8944
 4673SOL     OW14917   5.668   0.098   0.387  0.3862  0.0571 -0.2372
 4673SOL    HW114918   5.610   0.017   0.380 -1.0902  0.9351  1.1663
 4673SOL    HW214919   5.647   0.159   0.310 -0.0230  0.0411 -0.1423
 4674SOL     OW14920   6.964   0.185   6.672 -0.1520  0.3765  0.3322
 4674SOL    HW114921   6.892   0.144   6.729 -2.7693  2.0945 -1.5193
 4674SOL    HW214922   6.998   0.117   6.607 -2.1710  0.1905 -0.6084
 4675SOL     OW14923   0.029   4.506   0.829 -0.3463 -0.3105  0.1532
 4675SOL    HW114924   0.096   4.503   0.755  1.2732  0.5460  1.5095
 4675SOL    HW214925  -0.006   4.414   0.846  0.2214 -0.7205 -0.8288
 4676SOL     OW14926   4.962   4.682   2.700 -0.2287 -0.6817 -0.2854
 4676SOL    HW114927   5.042   4.731   2.667 -1.0584  2.6163  1.9928
 4676SOL    HW214928   4.989   4.618   2.772  0.3193  2.3554  2.4274
 4677SOL     OW14929   3.657   2.094   0.970  0.2006  0.1363 -0.1342
 4677SOL    HW114930   3.690   2.176   1.018 -1.3174  0.7952 -0.1688
 4677SOL    HW214931   3.692   2.012   1.017  2.2966  0.7530 -0.4887
 4678SOL     OW14932   4.601   5.654   3.572 -0.1922 -0.5008  0.1828
 4678SOL    HW114933   4.552   5.726   3.523 -1.3625 -0.8303  0.8356
 4678SOL    HW214934   4.698   5.656   3.545  0.1101  2.1742  1.1579
 4679SOL     OW14935   3.556   0.214   1.147 -0.3038 -0.4231  0.4031
 4679SOL    HW114936   3.596   0.285   1.089  1.1049 -2.2984 -1.0460
 4679SOL    HW214937   3.621   0.187   1.217 -0.6386 -0.6335  0.6375
 4680SOL     OW14938   4.937   6.814   5.894  0.2143  0.1965 -0.4342
 4680SOL    HW114939   4.949   6.795   5.992  2.0349  1.3642 -0.3787
 4680SOL    HW214940   4.851   6.862   5.880 -0.0524  0.0533  0.5915
 4681SOL     OW14941   4.623   5.387   2.039 -0.0595  0.1907  0.0771
 4681SOL    HW114942   4.637   5.289   2.031  0.2301  0.2703 -0.4044
 4681SOL    HW214943   4.663   5.433   1.960  4.5434  1.1780  2.5996
 4682SOL     OW14944   5.056   3.530   6.019 -0.1127 -0.2508 -0.5774
 4682SOL    HW114945   4.960   3.551   5.999 -0.3847 -0.6209  0.2480
 4682SOL    HW214946   5.063   3.435   6.049  0.4505 -0.1183 -0.2739
 4683SOL     OW14947   4.919   4.973   1.843 -0.2822  0.0999 -0.3597
 4683SOL    HW114948   4.875   4.989   1.931  1.4303  1.1073  0.3648
 4683SOL    HW214949   5.006   4.926   1.857  1.2495  2.5139 -1.2018
 4684SOL     OW14950   3.814   5.823   5.096  0.3010 -0.0295 -0.0334
 4684SOL    HW114951   3.827   5.726   5.118 -1.7913 -0.7797 -1.7637
 4684SOL    HW214952   3.862   5.844   5.010 -2.9775 -0.8572 -2.2458
 4685SOL     OW14953   2.452   4.926   5.722 -0.0930  0.4888  0.0458
 4685SOL    HW114954   2.519   4.991   5.756  3.3174 -2.2099 -0.9852
 4685SOL    HW214955   2.454   4.926   5.622  1.2352 -2.2569  0.0055
 4686SOL     OW14956   5.877   5.502   6.567 -0.0812 -0.5708  0.0817
 4686SOL    HW114957   5.870   5.602   6.563  1.4158 -0.3814  1.1011
 4686SOL    HW214958   5.825   5.462   6.492 -1.0685  0.9530 -0.0902
 4687SOL     OW14959   5.181   2.575   4.207  0.3515 -0.2949 -0.0619
 4687SOL    HW114960   5.098   2.596   4.156  0.8161 -1.6798 -1.4807
 4687SOL    HW214961   5.260   2.610   4.158  0.6350  1.4659  1.5346
 4688SOL     OW14962   4.810   3.073   4.713  0.0379  0.0134 -0.0845
 4688SOL    HW114963   4.762   3.033   4.635  0.0768  2.0351 -1.2237
 4688SOL    HW214964   4.903   3.037   4.718 -0.5833 -1.6253  0.2752
 4689SOL     OW14965   5.814   6.709   0.160 -0.6430 -0.6852 -0.0029
 4689SOL    HW114966   5.738   6.702   0.225 -1.2092 -0.3944 -0.6165
 4689SOL    HW214967   5.784   6.762   0.080  0.6835  0.8319  0.4520
 4690SOL     OW14968   1.100   0.262   1.168  0.5254  0.3188  0.3376
 4690SOL    HW114969   1.105   0.361   1.183  1.0357  0.1387  1.4632
 4690SOL    HW214970   1.163   0.236   1.095 -0.3432  0.9395 -0.6623
 4691SOL     OW14971   2.556   3.819   5.406  0.4450  0.3325  0.4110
 4691SOL    HW114972   2.528   3.861   5.320 -0.5658 -1.2853 -0.0939
 4691SOL    HW214973   2.488   3.838   5.477 -0.8324 -1.5990 -0.2056
 4692SOL     OW14974   5.549   4.271   3.881 -0.0726 -0.4233 -0.3024
 4692SOL    HW114975   5.623   4.313   3.934 -0.5928  1.3964 -0.9394
 4692SOL    HW214976   5.583   4.188   3.835  1.8627  0.8659 -1.3251
 4693SOL     OW14977   0.735   0.603   3.959  0.6322 -0.4489 -0.0991
 4693SOL    HW114978   0.772   0.510   3.957 -1.6340 -1.4148  0.4417
 4693SOL    HW214979   0.720   0.630   4.054  1.2831  0.5022 -0.2555
 4694SOL     OW14980   2.955   0.467   5.800  0.2873  0.2041  0.3344
 4694SOL    HW114981   3.026   0.533   5.775  1.1296 -0.0794  1.8670
 4694SOL    HW214982   2.994   0.397   5.859 -1.5240  0.8051  2.3884
 4695SOL     OW14983   2.230   4.952   1.848 -0.0122  0.4428 -0.0854
 4695SOL    HW114984   2.275   4.887   1.787 -0.7821  1.3542 -1.6737
 4695SOL    HW214985   2.264   5.044   1.829  0.1067  0.6891  1.2441
 4696SOL     OW14986   5.036   5.428   6.909 -0.2180 -0.1564 -0.2102
 4696SOL    HW114987   5.005   5.497   6.844 -2.2313 -1.1645 -0.3901
 4696SOL    HW214988   5.091   5.472   6.980 -1.4509  1.6570 -0.3064
 4697SOL     OW14989   1.596   1.012   0.322  0.0572 -0.4106  0.1079
 4697SOL    HW114990   1.518   1.000   0.384 -0.8892 -0.2519 -0.9989
 4697SOL    HW214991   1.651   0.929   0.320 -0.0038 -0.4772  1.0069
 4698SOL     OW14992   5.153   3.995   3.052 -0.8575 -0.2085 -0.4990
 4698SOL    HW114993   5.184   3.977   2.958 -1.6899 -0.2751 -0.7735
 4698SOL    HW214994   5.092   4.075   3.052  0.0180  0.4767  0.1644
 4699SOL     OW14995   0.738   0.513   3.001 -0.6274  0.1952  0.1332
 4699SOL    HW114996   0.798   0.509   3.081 -1.3211 -0.8332  0.6314
 4699SOL    HW214997   0.645   0.487   3.028 -0.4592 -2.2823 -1.3696
 4700SOL     OW14998   0.266   2.354   0.988  0.2516 -0.0696  0.6750
 4700SOL    HW114999   0.206   2.292   1.040  0.5881 -1.2711 -0.3210
 4700SOL    HW215000   0.222   2.442   0.977 -1.9056 -1.2704 -1.0358
 4701SOL     OW15001   3.493   0.343   1.542 -0.6399 -0.0554  0.2025
 4701SOL    HW115002   3.586   0.363   1.574  0.0393 -1.6141 -0.6682
 4701SOL    HW215003   3.442   0.298   1.615 -1.3084  2.2775  1.2568
 4702SOL     OW15004   3.963   4.182   1.155  0.3096  0.0987 -0.0586
 4702SOL    HW115005   3.971   4.084   1.171  0.2863  0.1216  0.0980
 4702SOL    HW215006   3.897   4.221   1.220  2.2529  0.6555  1.6804
 4703SOL     OW15007   0.590   6.618   2.812  0.5187 -0.6573 -0.4884
 4703SOL    HW115008   0.521   6.595   2.881  0.4062  0.0497 -0.3555
 4703SOL    HW215009   0.569   6.570   2.727  0.7552 -1.6744  0.0084
 4704SOL     OW15010   0.073   0.265   6.932 -0.2284 -0.2092  0.2185
 4704SOL    HW115011   0.156   0.312   6.900  0.5006 -0.6461  1.4180
 4704SOL    HW215012   0.025   0.226   6.853  0.9843 -0.4030 -0.4514
 4705SOL     OW15013   3.825   1.762   1.712  0.1072 -0.4932  0.4989
 4705SOL    HW115014   3.914   1.730   1.743  0.3681 -1.0681 -0.7498
 4705SOL    HW215015   3.755   1.695   1.738  0.1665 -0.4605  0.7440
 4706SOL     OW15016   0.694   6.691   7.019 -0.5892  0.1626  0.0800
 4706SOL    HW115017   0.659   6.614   7.072 -1.0141  0.1730 -0.1807
 4706SOL    HW215018   0.620   6.729   6.963 -0.0192 -0.2173 -0.9648
 4707SOL     OW15019   1.422   5.333   2.324 -0.4933  0.2710  0.7709
 4707SOL    HW115020   1.331   5.372   2.308 -0.4463  0.0090 -0.1829
 4707SOL    HW215021   1.466   5.382   2.399 -0.1892  2.5521 -0.7870
 4708SOL     OW15022   0.207   1.167   5.478 -0.3217  0.4140 -0.1683
 4708SOL    HW115023   0.294   1.118   5.479  0.4292  1.7241  0.3705
 4708SOL    HW215024   0.200   1.223   5.396  0.5771  2.3960  1.0400
 4709SOL     OW15025   5.231   4.708   5.026  0.2571 -0.6198 -1.1015
 4709SOL    HW115026   5.177   4.780   5.070  0.4593 -1.1406  0.0486
 4709SOL    HW215027   5.245   4.730   4.930 -1.5251 -0.2070 -1.2878
 4710SOL     OW15028   5.409   0.671   5.703 -0.3337  0.2452  0.0829
 4710SOL    HW115029   5.364   0.673   5.792 -0.0185 -0.2405  0.2573
 4710SOL    HW215030   5.340   0.679   5.631 -0.8293 -1.3996  0.3280
 4711SOL     OW15031   6.637   1.021   2.224 -0.1244 -0.1463 -0.4160
 4711SOL    HW115032   6.714   1.070   2.262 -0.1147 -0.5099  0.0411
 4711SOL    HW215033   6.592   0.967   2.296 -0.4781 -0.3533 -0.7840
 4712SOL     OW15034   2.254   5.299   5.780 -0.3434  0.1752 -0.5055
 4712SOL    HW115035   2.212   5.371   5.835 -1.1849  0.5246 -1.5616
 4712SOL    HW215036   2.182   5.246   5.735  0.2935 -0.7540 -0.4573
 4713SOL     OW15037   4.054   4.507   1.714 -0.2479  0.4431  0.4639
 4713SOL    HW115038   3.973   4.549   1.753 -1.3381  0.2375 -1.4616
 4713SOL    HW215039   4.136   4.556   1.744 -0.9736  0.2046  3.0302
 4714SOL     OW15040   0.356   0.933   5.874 -0.0376 -0.0003  0.3764
 4714SOL    HW115041   0.290   0.887   5.934  0.4373  0.4318  1.2503
 4714SOL    HW215042   0.449   0.908   5.902  0.2199  1.1298  0.5820
 4715SOL     OW15043   6.185   2.693   0.861  0.7820  0.0636  0.1126
 4715SOL    HW115044   6.189   2.671   0.958 -1.3489 -1.5711 -0.1021
 4715SOL    HW215045   6.243   2.629   0.810  1.6723  0.7421  0.2360
 4716SOL     OW15046   5.185   5.663   6.872  0.5914 -0.2289  0.8787
 4716SOL    HW115047   5.187   5.752   6.916 -0.1372  0.2181  0.0364
 4716SOL    HW215048   5.273   5.618   6.885  0.2327 -0.3946  3.2835
 4717SOL     OW15049   0.455   4.026   4.840 -0.8989 -0.3629  0.4762
 4717SOL    HW115050   0.427   3.969   4.762 -1.2751  1.0971 -0.4876
 4717SOL    HW215051   0.472   4.119   4.808 -1.5928  0.3956  2.2334
 4718SOL     OW15052   3.758   0.997   1.112 -0.2411 -0.1874 -0.0250
 4718SOL    HW115053   3.790   1.009   1.206  0.9814  0.7472 -0.5283
 4718SOL    HW215054   3.661   1.019   1.106 -0.4840 -0.8754  1.1307
 4719SOL     OW15055   4.532   4.403   3.109  0.4355 -0.2949 -0.1139
 4719SOL    HW115056   4.518   4.335   3.182 -1.2547 -0.2261 -0.3188
 4719SOL    HW215057   4.626   4.436   3.111  0.4940 -0.4652  1.8942
 4720SOL     OW15058   3.081   4.436   6.603 -0.2566 -0.5505  0.4884
 4720SOL    HW115059   3.092   4.471   6.696  1.3531 -2.7607  1.2131
 4720SOL    HW215060   3.002   4.374   6.601 -0.3528 -0.4224  0.3530
 4721SOL     OW15061   6.376   1.680   4.760 -0.2376  0.0079  0.4631
 4721SOL    HW115062   6.392   1.706   4.855 -1.9616  1.4671  0.4008
 4721SOL    HW215063   6.421   1.745   4.699 -0.1208 -0.2419  0.2807
 4722SOL     OW15064   1.257   4.316   5.367 -0.2002 -0.0846  0.2849
 4722SOL    HW115065   1.194   4.393   5.369 -0.0463  0.1176 -1.2392
 4722SOL    HW215066   1.326   4.328   5.439 -1.6272 -0.1111  1.7082
 4723SOL     OW15067   2.391   4.100   5.389 -0.3821 -0.6241 -0.0926
 4723SOL    HW115068   2.397   4.194   5.355  0.7230 -0.2369  1.1254
 4723SOL    HW215069   2.423   4.037   5.318  1.3397  0.1263 -0.0143
 4724SOL     OW15070   1.000   6.024   4.087  0.3833 -0.4006  0.3359
 4724SOL    HW115071   1.019   5.980   3.998 -1.8448  0.2740 -0.5377
 4724SOL    HW215072   1.020   6.121   4.081 -0.2097 -0.2717  0.4291
 4725SOL     OW15073   5.834   4.743   6.390  0.2951 -0.6396  0.2115
 4725SOL    HW115074   5.750   4.774   6.436 -0.6144 -1.0068 -1.1520
 4725SOL    HW215075   5.895   4.701   6.458 -0.5605 -0.2551  1.2518
 4726SOL     OW15076   2.306   1.784   6.825  0.7992 -0.0533 -0.1624
 4726SOL    HW115077   2.284   1.731   6.743  0.2758 -0.2108  0.0753
 4726SOL    HW215078   2.230   1.845   6.846  0.2223 -1.1590  1.1201
 4727SOL     OW15079   0.622   0.254   1.552  0.1609 -0.2899 -0.5216
 4727SOL    HW115080   0.671   0.181   1.505 -0.7141 -2.9348  2.3021
 4727SOL    HW215081   0.665   0.272   1.641 -0.3676  1.8313 -0.6335
 4728SOL     OW15082   6.156   0.234   4.270  0.0483  0.1367  0.2997
 4728SOL    HW115083   6.109   0.309   4.318  0.9267 -0.1219  1.6354
 4728SOL    HW215084   6.108   0.213   4.185 -1.3334  0.9188  0.8530
 4729SOL     OW15085   2.855   6.847   6.316 -0.1304  0.6844  0.0475
 4729SOL    HW115086   2.877   6.819   6.409 -1.9324 -0.1649  0.2694
 4729SOL    HW215087   2.833   6.766   6.261  0.0028  1.2489 -0.8686
 4730SOL     OW15088   6.272   5.550   6.385  0.0050  0.0482  0.0582
 4730SOL    HW115089   6.364   5.511   6.389 -0.1727 -0.4241 -0.3646
 4730SOL    HW215090   6.206   5.481   6.414 -0.3107  0.0422 -0.6696
 4731SOL     OW15091   1.726   1.299   1.078 -0.2765  0.6591  0.2465
 4731SOL    HW115092   1.768   1.224   1.029  0.4231  1.8970 -1.1432
 4731SOL    HW215093   1.753   1.386   1.036 -1.9229  1.6467  1.0952
 4732SOL     OW15094   0.831   3.569   5.250  0.1865  0.1817  0.0623
 4732SOL    HW115095   0.928   3.549   5.243  0.8944  2.8775  1.1734
 4732SOL    HW215096   0.795   3.532   5.336  0.0499 -1.2740 -0.5889
 4733SOL     OW15097   1.626   4.808   2.136 -0.2445 -0.0510 -0.1650
 4733SOL    HW115098   1.704   4.826   2.077  0.2687  1.3339  0.8639
 4733SOL    HW215099   1.623   4.877   2.209 -1.4373 -1.0845  0.8183
 4734SOL     OW15100   4.541   3.810   5.504 -0.4361  0.1488  0.5292
 4734SOL    HW115101   4.618   3.813   5.440  1.5896 -0.1074  2.7982
 4734SOL    HW215102   4.455   3.820   5.454  0.8886 -1.7432 -2.4088
 4735SOL     OW15103   0.865   5.863   2.357  0.4770 -0.2427 -0.1518
 4735SOL    HW115104   0.926   5.938   2.335 -1.0838  1.0594 -0.2683
 4735SOL    HW215105   0.875   5.790   2.289  0.4721  0.8263 -1.3258
 4736SOL     OW15106   6.310   1.272   5.145 -0.2290 -0.8037 -0.1567
 4736SOL    HW115107   6.390   1.217   5.169 -0.3847 -0.7867  0.4379
 4736SOL    HW215108   6.277   1.245   5.055  0.1278 -1.1834 -0.1799
 4737SOL     OW15109   1.413   4.839   5.904  0.0616  0.4809 -0.9296
 4737SOL    HW115110   1.512   4.842   5.886  0.5225  1.2701  1.3955
 4737SOL    HW215111   1.376   4.932   5.898 -0.1102  0.4939  0.2617
 4738SOL     OW15112   2.355   6.556   2.314  0.2768 -0.3553  0.1339
 4738SOL    HW115113   2.337   6.459   2.332  0.4613 -0.6974 -1.3975
 4738SOL    HW215114   2.292   6.612   2.367 -1.4666 -1.3760 -0.7903
 4739SOL     OW15115   5.016   1.797   4.907 -0.2877  0.4928 -0.2628
 4739SOL    HW115116   4.976   1.884   4.879 -1.7360 -0.4119 -1.1746
 4739SOL    HW215117   5.115   1.806   4.916 -0.0186  1.5437 -3.2543
 4740SOL     OW15118   0.383   0.328   6.866 -0.3738 -0.4410  0.0756
 4740SOL    HW115119   0.455   0.258   6.876 -0.3236 -0.1267  2.5344
 4740SOL    HW215120   0.366   0.344   6.769  3.8180  0.4258 -0.7448
 4741SOL     OW15121   3.900   4.292   1.596  0.1581  0.4059 -0.1191
 4741SOL    HW115122   3.977   4.355   1.607  1.0484 -0.7394  0.4469
 4741SOL    HW215123   3.818   4.332   1.635  0.5936  1.4269 -0.2302
 4742SOL     OW15124   6.357   0.462   1.937  0.3174  0.1686  0.0287
 4742SOL    HW115125   6.283   0.503   1.884  0.1360  2.6657  2.0199
 4742SOL    HW215126   6.338   0.365   1.952 -1.3052  0.1999 -1.5435
 4743SOL     OW15127   1.053   3.934   6.581  0.1404  0.0483 -0.1054
 4743SOL    HW115128   1.107   3.992   6.520  1.4811 -1.2913 -0.2358
 4743SOL    HW215129   1.014   3.858   6.530  2.1168 -1.6732  0.7683
 4744SOL     OW15130   3.547   5.252   0.115 -0.3384  0.4062 -0.5867
 4744SOL    HW115131   3.519   5.255   0.019  0.5933  1.9750 -0.8552
 4744SOL    HW215132   3.647   5.242   0.120 -0.2489  1.4955  0.1781
 4745SOL     OW15133   0.999   5.195   4.836  0.6920 -0.1001  0.1216
 4745SOL    HW115134   0.946   5.274   4.806  0.2641 -0.4774 -0.1209
 4745SOL    HW215135   1.005   5.195   4.936  0.5427  0.1397  0.1312
 4746SOL     OW15136   5.329   5.866   3.222 -0.3385 -0.1273 -0.3787
 4746SOL    HW115137   5.313   5.775   3.185 -2.7487  0.8700 -2.0991
 4746SOL    HW215138   5.401   5.911   3.169  1.1700 -1.1070  0.7549
 4747SOL     OW15139   3.411   3.302   5.942  0.3543  0.2529  0.4683
 4747SOL    HW115140   3.397   3.390   5.986  1.8348  1.0057 -0.5015
 4747SOL    HW215141   3.499   3.264   5.969  0.6678  0.0782 -0.7501
 4748SOL     OW15142   0.028   6.703   0.804 -0.1894 -0.3210  0.0687
 4748SOL    HW115143   0.102   6.673   0.744  1.4315 -0.5485  2.0634
 4748SOL    HW215144  -0.055   6.718   0.750  1.3217  0.1167 -2.2796
 4749SOL     OW15145   3.338   5.798   3.436  0.0012  0.0704 -0.0286
 4749SOL    HW115146   3.268   5.820   3.368 -1.2011 -0.4154  1.0056
 4749SOL    HW215147   3.373   5.706   3.418  1.1916  0.7267 -1.1954
 4750SOL     OW15148   6.963   4.158   5.061  0.0290  0.1418  0.2274
 4750SOL    HW115149   6.961   4.088   5.133 -0.5570  0.3033  0.3718
 4750SOL    HW215150   6.894   4.227   5.079 -0.7454 -0.2765 -0.9401
 4751SOL     OW15151   2.776   3.218   7.005 -0.1614  0.3066  0.3040
 4751SOL    HW115152   2.779   3.182   7.099  0.3979 -2.3344 -0.6222
 4751SOL    HW215153   2.801   3.145   6.941  0.1509  2.2125 -1.8854
 4752SOL     OW15154   1.808   6.188   6.593 -0.2435  1.0481 -0.5561
 4752SOL    HW115155   1.896   6.222   6.626 -0.2893 -0.7797  1.7716
 4752SOL    HW215156   1.736   6.251   6.620  0.0339  0.9353  0.4895
 4753SOL     OW15157   5.383   0.523   3.493  0.1602  0.2436  0.2113
 4753SOL    HW115158   5.350   0.442   3.542  1.4954 -1.2663 -1.2423
 4753SOL    HW215159   5.474   0.548   3.528 -0.9697  2.3144  1.8988
 4754SOL     OW15160   0.192   6.676   3.596  0.5845 -0.1234 -0.2704
 4754SOL    HW115161   0.239   6.756   3.558  1.4821 -0.4872  0.0636
 4754SOL    HW215162   0.113   6.706   3.650 -0.6316  0.4195 -2.2444
 4755SOL     OW15163   2.620   0.427   1.178  0.3858 -0.3537  0.0980
 4755SOL    HW115164   2.697   0.376   1.216  1.4949  2.0944  1.3434
 4755SOL    HW215165   2.543   0.424   1.242  0.1493 -1.1236 -0.2155
 4756SOL     OW15166   5.853   3.381   1.289 -0.9133  0.0880 -0.5351
 4756SOL    HW115167   5.952   3.386   1.278 -1.0931  0.8206 -2.2758
 4756SOL    HW215168   5.824   3.444   1.361 -0.1084 -0.3288  0.1734
 4757SOL     OW15169   2.855   1.903   1.023 -0.2100  0.0727  0.2027
 4757SOL    HW115170   2.889   1.843   1.096 -1.5601  0.3305  1.0863
 4757SOL    HW215171   2.839   1.850   0.940  0.6717 -0.3651  0.3055
 4758SOL     OW15172   3.439   6.046   6.323  0.5286  0.3271  0.8619
 4758SOL    HW115173   3.356   6.059   6.379  0.9552 -1.4947  2.0140
 4758SOL    HW215174   3.516   6.025   6.383  1.3692 -0.1049 -0.3380
 4759SOL     OW15175   4.970   6.292   3.828 -0.1010 -0.4245 -0.3320
 4759SOL    HW115176   5.061   6.251   3.834  0.4139  0.7165  0.0068
 4759SOL    HW215177   4.976   6.388   3.855 -1.7264 -0.7626  1.4137
 4760SOL     OW15178   3.835   1.512   0.486 -0.1342  0.7640 -0.1861
 4760SOL    HW115179   3.863   1.545   0.396 -0.4833 -0.9795 -0.9801
 4760SOL    HW215180   3.899   1.546   0.555  0.5234  1.5998 -1.1769
 4761SOL     OW15181   0.774   6.228   6.387  0.2491  0.0208 -0.2802
 4761SOL    HW115182   0.674   6.239   6.391  0.1849 -0.6888  0.5156
 4761SOL    HW215183   0.806   6.250   6.295 -0.3862  2.1670 -0.0431
 4762SOL     OW15184   2.121   0.209   2.326  0.1473 -0.2301 -0.1223
 4762SOL    HW115185   2.065   0.201   2.244  2.8363 -0.4893 -2.0601
 4762SOL    HW215186   2.100   0.132   2.387 -1.7282 -0.1712 -0.6174
 4763SOL     OW15187   5.646   6.488   3.303  0.4491 -0.1424  1.0020
 4763SOL    HW115188   5.661   6.497   3.205  0.2602  1.6021  1.1017
 4763SOL    HW215189   5.672   6.573   3.349  0.9602 -1.0681  2.5305
 4764SOL     OW15190   4.722   3.803   5.299  0.6143  0.4321  0.3726
 4764SOL    HW115191   4.816   3.818   5.267  0.2564  0.5329 -0.6631
 4764SOL    HW215192   4.690   3.713   5.271 -0.2182  1.0894 -0.8737
 4765SOL     OW15193   4.830   2.054   3.592  0.0528 -0.1199  0.8157
 4765SOL    HW115194   4.855   1.984   3.659 -1.7773  0.4638  2.1947
 4765SOL    HW215195   4.898   2.127   3.593  1.5662 -1.4491 -0.0821
 4766SOL     OW15196   4.442   6.854   5.357 -0.0220 -0.2604  0.1393
 4766SOL    HW115197   4.428   6.770   5.409 -1.2343 -0.6887 -0.8278
 4766SOL    HW215198   4.485   6.922   5.415  2.3246 -1.9682  0.5661
 4767SOL     OW15199   4.157   6.731   0.129  0.3192  0.3472 -0.4251
 4767SOL    HW115200   4.079   6.784   0.097 -0.6170 -0.3394  0.6385
 4767SOL    HW215201   4.126   6.642   0.163  1.8683 -1.0521 -2.4076
 4768SOL     OW15202   2.859   0.883   5.678  0.0451 -0.4365 -0.7932
 4768SOL    HW115203   2.911   0.802   5.652 -0.2301 -0.9183  0.1184
 4768SOL    HW215204   2.767   0.877   5.640 -0.2593 -0.9932  0.0001
 4769SOL     OW15205   4.793   6.848   2.349 -0.0014  0.0704  0.3841
 4769SOL    HW115206   4.760   6.919   2.286  1.8916  1.9397  1.3523
 4769SOL    HW215207   4.772   6.758   2.312 -1.5950  1.1109 -1.4240
 4770SOL     OW15208   0.073   1.076   4.607  0.1999 -0.0686  0.4362
 4770SOL    HW115209   0.088   1.149   4.674 -3.5986 -0.2191  1.6863
 4770SOL    HW215210   0.060   1.116   4.517  1.1597  0.5152  0.5452
 4771SOL     OW15211   2.720   4.690   4.724  0.1360  0.2067 -0.3663
 4771SOL    HW115212   2.781   4.683   4.803  0.9660  0.1297 -1.0001
 4771SOL    HW215213   2.634   4.644   4.745  0.3782  0.1066  0.4610
 4772SOL     OW15214   3.155   4.254   7.011  1.4401 -0.2892 -0.0323
 4772SOL    HW115215   3.062   4.264   7.048  1.4291 -0.3213 -0.0512
 4772SOL    HW215216   3.152   4.267   6.912  1.5930  0.5756  0.0721
 4773SOL     OW15217   5.632   5.602   4.205  0.4876  0.0295 -0.4296
 4773SOL    HW115218   5.577   5.571   4.283  0.6958  0.5182 -0.0863
 4773SOL    HW215219   5.607   5.549   4.123 -0.7903  0.5304 -0.3797
 4774SOL     OW15220   0.180   1.965   2.038 -0.2441 -0.0681  0.4202
 4774SOL    HW115221   0.246   1.990   1.967 -1.7356  2.0120 -0.3428
 4774SOL    HW215222   0.214   1.997   2.127 -0.1112  0.8162  0.0629
 4775SOL     OW15223   5.001   5.444   3.815  0.5721  0.2861 -0.6101
 4775SOL    HW115224   5.030   5.390   3.735  0.3500 -0.0110 -0.4912
 4775SOL    HW215225   4.906   5.472   3.804 -0.3955 -2.1161  0.7808
 4776SOL     OW15226   0.301   6.750   4.935  0.4824 -0.2585 -0.1024
 4776SOL    HW115227   0.330   6.753   5.031  1.2895 -0.5153 -0.3327
 4776SOL    HW215228   0.202   6.762   4.930  0.7186  2.9341  0.5943
 4777SOL     OW15229   3.019   4.399   0.702 -0.3092  0.2093 -0.5677
 4777SOL    HW115230   2.994   4.488   0.740  0.3260 -0.0466  0.4895
 4777SOL    HW215231   2.942   4.336   0.709  0.0487 -0.0895  1.1372
 4778SOL     OW15232   4.920   2.565   2.572 -0.0930 -0.3783 -0.0814
 4778SOL    HW115233   4.877   2.534   2.656 -0.4573 -0.5213 -0.3157
 4778SOL    HW215234   4.859   2.546   2.494 -0.5364  1.3234 -0.1883
 4779SOL     OW15235   6.320   6.233   2.279  0.2726 -0.1033 -0.3681
 4779SOL    HW115236   6.392   6.169   2.255 -1.1528 -1.5988 -0.8684
 4779SOL    HW215237   6.280   6.271   2.195  1.3458  1.8010 -0.0792
 4780SOL     OW15238   6.538   6.591   0.347 -0.3584 -0.6100 -0.2146
 4780SOL    HW115239   6.565   6.519   0.410  0.5870 -2.4519 -2.5914
 4780SOL    HW215240   6.444   6.577   0.317 -0.7496  0.1660  0.5958
 4781SOL     OW15241   1.200   6.266   2.313  0.3996 -0.2356  0.4968
 4781SOL    HW115242   1.265   6.322   2.363 -0.2915 -0.7680  2.0663
 4781SOL    HW215243   1.116   6.319   2.296  0.4728 -0.1911  0.2688
 4782SOL     OW15244   4.345   4.656   6.598 -0.3587 -0.2627  0.0297
 4782SOL    HW115245   4.444   4.650   6.585 -0.3110  1.1783 -0.5889
 4782SOL    HW215246   4.313   4.745   6.564 -2.0363 -1.1590 -0.8971
 4783SOL     OW15247   6.021   5.029   1.336 -0.4257  0.3976 -0.0587
 4783SOL    HW115248   6.087   5.047   1.263 -0.5387  0.3357 -0.1757
 4783SOL    HW215249   6.041   5.089   1.414 -0.4676  0.6491 -0.2413
 4784SOL     OW15250   0.193   4.170   5.600  0.1923  0.1698  0.2229
 4784SOL    HW115251   0.277   4.207   5.640 -1.0383  1.7956  1.4303
 4784SOL    HW215252   0.206   4.160   5.501  1.8493  0.2494  0.3963
 4785SOL     OW15253   5.989   4.037   2.080  0.1521  0.0275  0.4387
 4785SOL    HW115254   5.912   4.096   2.060  1.9582  2.3397 -0.1154
 4785SOL    HW215255   5.984   4.006   2.175 -0.9143  0.9409  0.6887
 4786SOL     OW15256   1.896   1.995   1.294  0.7754 -0.1916 -0.7872
 4786SOL    HW115257   1.829   1.958   1.358  1.1306  0.7451  0.1568
 4786SOL    HW215258   1.883   1.954   1.204 -0.4170 -0.7464 -0.3752
 4787SOL     OW15259   2.611   0.718   3.834 -0.9201  0.0611 -0.0190
 4787SOL    HW115260   2.641   0.730   3.928 -2.0667  0.9911  0.2490
 4787SOL    HW215261   2.564   0.630   3.824 -1.1106  0.1200  0.3681
 4788SOL     OW15262   1.176   4.451   5.692  0.0497  0.1537 -0.1191
 4788SOL    HW115263   1.235   4.505   5.752  0.2196 -0.3402  0.1614
 4788SOL    HW215264   1.189   4.481   5.597  1.9570 -0.9994 -0.2800
 4789SOL     OW15265   6.798   0.408   6.121 -0.0463  0.6696  0.4201
 4789SOL    HW115266   6.782   0.421   6.218  1.2168  1.0055  0.5974
 4789SOL    HW215267   6.710   0.401   6.073 -0.8440  4.2036  1.0636
 4790SOL     OW15268   0.492   3.683   0.323  0.2777 -0.3035 -0.0060
 4790SOL    HW115269   0.416   3.619   0.334  0.7588 -0.8833  0.0093
 4790SOL    HW215270   0.572   3.648   0.372  0.4069  0.5612  0.4196
 4791SOL     OW15271   6.963   1.560   1.813  0.1373 -0.0509  0.1036
 4791SOL    HW115272   7.017   1.599   1.887 -0.2213 -2.0275  1.4679
 4791SOL    HW215273   6.891   1.625   1.786  0.1942  0.6549  1.5719
 4792SOL     OW15274   0.893   5.366   2.148 -0.1300  0.6312 -0.1909
 4792SOL    HW115275   0.958   5.409   2.085 -1.8410  1.8065 -1.2298
 4792SOL    HW215276   0.943   5.328   2.226  1.8509  0.8644 -1.2739
 4793SOL     OW15277   0.220   3.659   6.845 -0.7883 -0.4099 -0.1317
 4793SOL    HW115278   0.253   3.567   6.863 -1.9030 -1.1648 -1.7622
 4793SOL    HW215279   0.193   3.702   6.931  1.1650 -0.9922  0.8383
 4794SOL     OW15280   5.639   1.506   3.316 -0.3843  0.7714  0.3775
 4794SOL    HW115281   5.678   1.559   3.391 -1.7824  0.7030  1.1832
 4794SOL    HW215282   5.662   1.549   3.229  1.9821  0.3990  0.7374
 4795SOL     OW15283   6.658   1.961   3.881  0.5160  0.4162 -0.3869
 4795SOL    HW115284   6.667   1.890   3.951 -0.3842  1.7489  1.1517
 4795SOL    HW215285   6.697   2.047   3.916  0.5874  0.9675 -1.7713
 4796SOL     OW15286   4.845   2.287   3.226 -0.2141  0.3681  0.3471
 4796SOL    HW115287   4.808   2.340   3.149 -0.7079 -0.2290  0.1633
 4796SOL    HW215288   4.774   2.278   3.296 -0.7288 -1.4682 -0.3497
 4797SOL     OW15289   2.703   5.708   5.139 -0.2231 -0.3852 -0.0629
 4797SOL    HW115290   2.703   5.626   5.196  2.1599 -0.7555 -0.4937
 4797SOL    HW215291   2.731   5.787   5.195  0.0302 -0.3573 -0.2286
 4798SOL     OW15292   0.854   4.087   6.305  0.4841  0.4385  0.2711
 4798SOL    HW115293   0.887   4.156   6.241 -1.1389  0.7138 -0.3127
 4798SOL    HW215294   0.754   4.079   6.297  0.3112  0.0395  2.3438
 4799SOL     OW15295   4.315   1.900   6.475  0.1701  0.8913  0.2741
 4799SOL    HW115296   4.316   1.917   6.376 -0.7236 -1.2940 -0.1455
 4799SOL    HW215297   4.222   1.912   6.510  0.4102  1.2681  0.7978
 4800SOL     OW15298   4.035   2.706   5.646 -0.1242  0.4280 -0.2398
 4800SOL    HW115299   4.038   2.661   5.557  0.4361 -1.4427  0.6579
 4800SOL    HW215300   3.957   2.671   5.699 -0.1268  1.0818  0.1958
 4801SOL     OW15301   2.845   2.749   1.415 -0.2538 -0.1475 -0.0396
 4801SOL    HW115302   2.821   2.704   1.501 -2.2832 -1.5123 -1.2284
 4801SOL    HW215303   2.944   2.764   1.412  0.0567 -1.4090  1.8934
 4802SOL     OW15304   0.177   6.273   1.550 -0.1972 -0.3241  0.0198
 4802SOL    HW115305   0.088   6.311   1.525  0.1281  1.8517  1.7894
 4802SOL    HW215306   0.245   6.300   1.482 -0.1854  1.5083  0.6868
 4803SOL     OW15307   2.067   6.170   1.128  0.2226  0.3351 -0.6507
 4803SOL    HW115308   1.981   6.120   1.140  0.1402  0.4635 -0.7046
 4803SOL    HW215309   2.136   6.108   1.090  0.2389  0.1539 -0.3242
 4804SOL     OW15310   5.803   6.819   5.564  0.1105 -0.7186 -0.5923
 4804SOL    HW115311   5.835   6.829   5.659  1.4832 -1.6536 -0.9231
 4804SOL    HW215312   5.752   6.733   5.555  1.9048 -1.7739 -1.1498
 4805SOL     OW15313   0.408   5.769   1.785 -0.1783 -0.0307  0.4629
 4805SOL    HW115314   0.328   5.711   1.798 -1.2287  1.4928  1.1099
 4805SOL    HW215315   0.415   5.796   1.689 -0.7013  0.1552  0.4745
 4806SOL     OW15316   5.500   4.163   3.431 -0.3540 -0.4229  0.0305
 4806SOL    HW115317   5.429   4.211   3.379  0.3294 -0.2192 -0.7205
 4806SOL    HW215318   5.575   4.138   3.370 -0.4024 -1.8809  0.5324
 4807SOL     OW15319   2.158   4.629   6.657 -0.0270  0.2202  0.2115
 4807SOL    HW115320   2.120   4.561   6.720  2.1060 -0.2761  1.0489
 4807SOL    HW215321   2.133   4.720   6.688 -1.2257 -0.0979  0.2337
 4808SOL     OW15322   6.122   4.547   5.652 -0.4252  0.6474 -0.1230
 4808SOL    HW115323   6.088   4.473   5.595  0.2034  0.2242  0.0438
 4808SOL    HW215324   6.187   4.511   5.719 -3.3551  0.5915  2.9011
 4809SOL     OW15325   4.676   4.430   0.625 -0.1998  0.1984  0.3407
 4809SOL    HW115326   4.619   4.499   0.579 -0.9785 -1.1241 -0.7358
 4809SOL    HW215327   4.766   4.470   0.644  0.0398  0.9491 -2.0176
 4810SOL     OW15328   1.104   5.586   2.630  0.1153  0.4116  0.0081
 4810SOL    HW115329   1.037   5.659   2.614  0.6058  0.9031  0.1629
 4810SOL    HW215330   1.130   5.585   2.727  1.2513  1.0443 -0.2666
 4811SOL     OW15331   2.147   4.490   1.707 -0.2360  0.4368 -0.2166
 4811SOL    HW115332   2.162   4.555   1.782 -1.3002 -1.5284  1.8466
 4811SOL    HW215333   2.207   4.411   1.719 -1.4071 -0.5435 -0.6114
 4812SOL     OW15334   6.849   6.159   4.013  0.7059 -0.1566  0.1591
 4812SOL    HW115335   6.802   6.246   4.028  0.8327 -0.0289 -0.1765
 4812SOL    HW215336   6.902   6.136   4.095  1.7093  0.7369 -0.2135
 4813SOL     OW15337   6.341   1.863   0.587 -0.2626 -0.0988 -0.2537
 4813SOL    HW115338   6.337   1.937   0.655  2.4032 -0.0778  0.0130
 4813SOL    HW215339   6.279   1.884   0.512 -0.2900  1.9463  0.2688
 4814SOL     OW15340   5.617   4.601   1.111 -0.1633 -0.0225 -0.9462
 4814SOL    HW115341   5.594   4.653   1.028 -0.6245  1.7182  0.2099
 4814SOL    HW215342   5.713   4.573   1.107  0.0065  0.6404 -1.7805
 4815SOL     OW15343   5.103   4.969   5.229 -0.4056  0.2122 -0.5580
 4815SOL    HW115344   5.012   4.934   5.250 -0.4530 -0.0255 -1.1305
 4815SOL    HW215345   5.159   4.970   5.312 -2.1152  4.1008  0.7721
 4816SOL     OW15346   2.021   4.855   0.974  0.3065 -0.0533 -0.5360
 4816SOL    HW115347   1.981   4.766   0.996 -0.0365 -0.0217 -1.0078
 4816SOL    HW215348   2.029   4.910   1.057 -0.5826 -0.0841 -0.4121
 4817SOL     OW15349   1.625   2.383   0.423 -0.2548  0.4741  0.4872
 4817SOL    HW115350   1.711   2.400   0.471  1.2219 -0.7065 -1.5803
 4817SOL    HW215351   1.619   2.286   0.399 -0.8857  1.0094 -1.7098
 4818SOL     OW15352   2.185   2.810   1.568 -0.5748 -1.0062 -0.6270
 4818SOL    HW115353   2.120   2.758   1.514 -0.3157 -2.4992  0.4205
 4818SOL    HW215354   2.213   2.756   1.648 -2.0487  1.5954  1.8419
 4819SOL     OW15355   1.317   2.144   0.325  0.4149 -0.4860 -0.1859
 4819SOL    HW115356   1.269   2.082   0.262  0.0499  0.1851 -0.5801
 4819SOL    HW215357   1.377   2.204   0.273  1.1274 -0.8181  0.2401
 4820SOL     OW15358   0.613   2.595   1.187 -0.1551  0.0986 -0.4720
 4820SOL    HW115359   0.712   2.587   1.195 -0.1387  1.4571  1.6814
 4820SOL    HW215360   0.569   2.520   1.236 -0.1118  1.0850  1.1766
 4821SOL     OW15361   1.671   5.518   3.643  0.0139 -0.3717  0.0389
 4821SOL    HW115362   1.740   5.457   3.683 -0.0826  0.4400  1.5158
 4821SOL    HW215363   1.696   5.538   3.548  1.6086 -0.3988  0.4156
 4822SOL     OW15364   2.119   5.156   3.440  0.0017 -0.1026 -0.8862
 4822SOL    HW115365   2.152   5.064   3.420  2.9379  0.5576  0.2810
 4822SOL    HW215366   2.197   5.220   3.443 -1.9177  2.4575 -1.6970
 4823SOL     OW15367   2.643   1.566   4.210  0.5605  0.0209 -0.5806
 4823SOL    HW115368   2.693   1.535   4.291 -0.3380  0.2851  0.0883
 4823SOL    HW215369   2.631   1.489   4.148  1.6639 -0.0793 -0.6901
 4824SOL     OW15370   6.227   3.104   3.617  0.1580  0.0857 -0.1405
 4824SOL    HW115371   6.142   3.051   3.619  0.1036 -0.0088 -2.4635
 4824SOL    HW215372   6.206   3.200   3.601  0.4778 -0.0289 -1.3556
 4825SOL     OW15373   0.615   1.927   4.893  0.2984 -0.2820 -0.1351
 4825SOL    HW115374   0.688   1.992   4.874  0.2772 -0.5451 -1.2166
 4825SOL    HW215375   0.630   1.844   4.838 -1.8860  0.4665 -2.0265
 4826SOL     OW15376   5.440   0.047   1.657 -0.0773  0.5462  0.0527
 4826SOL    HW115377   5.364  -0.018   1.660 -2.5004  3.2026  1.9833
 4826SOL    HW215378   5.515   0.012   1.713 -0.5115 -1.3746 -0.4703
 4827SOL     OW15379   6.496   2.413   1.509 -0.1233  0.0389 -0.7146
 4827SOL    HW115380   6.555   2.465   1.447 -0.1765 -0.8837 -1.5582
 4827SOL    HW215381   6.447   2.477   1.569  2.8734  0.7727  1.1369
 4828SOL     OW15382   5.141   1.257   1.650 -0.1099 -0.9304 -0.1339
 4828SOL    HW115383   5.189   1.228   1.567 -0.0842 -1.2903  0.0037
 4828SOL    HW215384   5.144   1.357   1.658  0.2579 -0.9246 -0.3414
 4829SOL     OW15385   3.807   0.304   6.404  0.1429 -0.1655  0.0814
 4829SOL    HW115386   3.732   0.295   6.339  1.5715  2.0556 -2.0341
 4829SOL    HW215387   3.794   0.387   6.459  0.8670  0.0483 -0.0625
 4830SOL     OW15388   3.333   5.940   2.516 -0.1595  0.4728  0.3894
 4830SOL    HW115389   3.302   6.034   2.500 -0.1776  0.3038 -0.6063
 4830SOL    HW215390   3.258   5.876   2.496  0.5804  0.1049 -1.3588
 4831SOL     OW15391   2.251   2.055   5.361 -0.4234 -0.0509  0.1249
 4831SOL    HW115392   2.232   2.072   5.458  0.5886 -3.0157  0.9373
 4831SOL    HW215393   2.350   2.048   5.347 -0.6141 -1.3121 -0.7581
 4832SOL     OW15394   3.129   3.862   3.376  0.2062  0.1524 -0.1857
 4832SOL    HW115395   3.185   3.808   3.314  1.1382 -0.5032  1.1567
 4832SOL    HW215396   3.066   3.920   3.324  0.9811 -0.3274 -1.7052
 4833SOL     OW15397   5.978   1.861   2.317  0.1754 -0.5989 -0.4790
 4833SOL    HW115398   6.065   1.882   2.273  0.1888 -2.7102 -1.5697
 4833SOL    HW215399   5.969   1.762   2.327 -0.6369 -0.3234  2.7009
 4834SOL     OW15400   1.234   0.043   2.092 -0.1940 -0.2548 -0.1279
 4834SOL    HW115401   1.141   0.080   2.088  0.1958  0.6723 -1.0948
 4834SOL    HW215402   1.283   0.065   2.008  0.7037 -1.2995  0.0949
 4835SOL     OW15403   5.510   2.509   5.596 -0.2192  0.2777 -0.1643
 4835SOL    HW115404   5.581   2.563   5.641 -0.7517  0.3774  0.5648
 4835SOL    HW215405   5.526   2.412   5.613 -1.1238  0.3630  1.3396
 4836SOL     OW15406   0.055   0.479   4.874 -0.4726 -0.9798  0.1110
 4836SOL    HW115407   0.045   0.560   4.816 -0.7894 -1.3618 -0.3729
 4836SOL    HW215408   0.137   0.489   4.931 -0.0026 -0.7176 -0.5989
 4837SOL     OW15409   0.273   3.598   1.771  0.5184  0.1987  0.3661
 4837SOL    HW115410   0.277   3.498   1.772  0.4562  0.1952  0.8084
 4837SOL    HW215411   0.182   3.628   1.741  0.3447  0.1102  0.7913
 4838SOL     OW15412   2.688   5.320   6.683  0.2307  0.2168 -0.3712
 4838SOL    HW115413   2.721   5.267   6.605 -1.1779  0.8853 -1.4712
 4838SOL    HW215414   2.668   5.259   6.759 -0.9165 -0.8108 -1.4524
 4839SOL     OW15415   1.729   2.155   6.500 -0.3447 -0.5571 -0.1081
 4839SOL    HW115416   1.672   2.075   6.480 -0.4002 -0.3513 -0.8030
 4839SOL    HW215417   1.674   2.225   6.546 -0.8931 -0.0338 -1.4899
 4840SOL     OW15418   5.560   4.423   5.057  0.2545 -0.0674  0.3812
 4840SOL    HW115419   5.475   4.433   5.108  1.5586 -1.8505  3.1773
 4840SOL    HW215420   5.613   4.508   5.066 -1.3451  1.2903 -1.8983
 4841SOL     OW15421   0.766   5.556   3.645 -0.5302  0.2428 -0.3445
 4841SOL    HW115422   0.829   5.586   3.573  0.6989 -1.1845  0.0653
 4841SOL    HW215423   0.753   5.629   3.712  0.9887  0.4840 -0.2694
 4842SOL     OW15424   2.560   4.611   3.435 -0.4607 -0.0237 -0.0951
 4842SOL    HW115425   2.602   4.629   3.346  1.0577 -0.4459  0.5145
 4842SOL    HW215426   2.610   4.661   3.506 -1.8152  0.5254  0.5145
 4843SOL     OW15427   1.492   2.837   3.043  0.0094  0.6447 -0.1845
 4843SOL    HW115428   1.552   2.866   2.968  1.9591 -0.2124  0.9581
 4843SOL    HW215429   1.530   2.868   3.130 -1.3293  0.2272  0.5731
 4844SOL     OW15430   5.732   6.108   5.218 -0.1562  0.0766  0.3313
 4844SOL    HW115431   5.721   6.089   5.121 -0.5065 -0.2124  0.4232
 4844SOL    HW215432   5.756   6.204   5.231 -2.0677  0.6454  0.0542
 4845SOL     OW15433   4.425   5.013   7.016  0.0491  0.0424  0.0563
 4845SOL    HW115434   4.385   5.047   7.102 -0.8818 -0.1736 -0.2787
 4845SOL    HW215435   4.444   4.915   7.025  1.0392  0.2573  0.4031
 4846SOL     OW15436   0.621   2.864   5.751 -0.0693  0.8149 -0.7560
 4846SOL    HW115437   0.608   2.895   5.845 -2.8521  0.6635 -1.0032
 4846SOL    HW215438   0.569   2.923   5.689 -0.9973 -1.0219 -1.8216
 4847SOL     OW15439   2.016   1.360   5.183  0.2411 -0.4562  0.4314
 4847SOL    HW115440   2.011   1.451   5.140  1.5521 -0.0888  1.0107
 4847SOL    HW215441   1.940   1.304   5.151 -0.1337  0.5818 -0.5652
 4848SOL     OW15442   2.863   1.331   4.693  0.1405 -0.8295  0.0885
 4848SOL    HW115443   2.795   1.259   4.705 -0.5489 -0.0573  1.0605
 4848SOL    HW215444   2.924   1.332   4.772  1.2233 -1.4454 -0.7287
 4849SOL     OW15445   1.838   4.753   0.669  0.4201 -0.6949  0.3188
 4849SOL    HW115446   1.739   4.751   0.680 -0.2149  3.3118 -2.4642
 4849SOL    HW215447   1.876   4.833   0.716  1.6822 -0.0120 -1.7024
 4850SOL     OW15448   5.748   0.696   1.954 -0.7880  0.0703  0.1981
 4850SOL    HW115449   5.769   0.788   1.988  1.0319  0.1601 -0.9672
 4850SOL    HW215450   5.668   0.700   1.894 -0.5590  0.9703 -0.0646
 4851SOL     OW15451   2.551   4.642   5.315  0.3170  0.3214 -0.4581
 4851SOL    HW115452   2.643   4.616   5.345  0.3290  1.6906  0.7770
 4851SOL    HW215453   2.549   4.647   5.215  1.3278 -0.5691 -0.5474
 4852SOL     OW15454   1.831   5.714   5.473 -0.2183 -0.0589 -0.2930
 4852SOL    HW115455   1.743   5.735   5.514  0.2023  1.6306 -0.1916
 4852SOL    HW215456   1.886   5.661   5.538 -0.5684  0.2464  0.2621
 4853SOL     OW15457   4.541   1.669   3.717  0.3442 -0.6060  0.1624
 4853SOL    HW115458   4.536   1.647   3.814 -0.9467  0.8401  0.4583
 4853SOL    HW215459   4.458   1.639   3.671 -1.1191  2.5950  0.4255
 4854SOL     OW15460   6.192   0.093   2.848  0.2162  0.2472 -0.3079
 4854SOL    HW115461   6.126   0.088   2.923  0.7253 -0.1321  0.1227
 4854SOL    HW215462   6.230   0.002   2.831  0.6924  0.4764 -0.4892
 4855SOL     OW15463   6.891   3.624   4.961 -0.6059  0.2126 -0.1987
 4855SOL    HW115464   6.870   3.527   4.974 -0.6178  0.2335 -0.0605
 4855SOL    HW215465   6.807   3.674   4.940 -0.6481  0.2442  0.0404
 4856SOL     OW15466   0.448   4.100   3.286  0.8549  0.1674  0.3881
 4856SOL    HW115467   0.357   4.059   3.289  1.7303 -1.8430  0.9670
 4856SOL    HW215468   0.459   4.165   3.361 -0.4501  1.2515 -0.3342
 4857SOL     OW15469   3.874   1.139   3.167  0.4492  0.1097 -0.0646
 4857SOL    HW115470   3.886   1.238   3.155 -0.1723  0.3001  0.7490
 4857SOL    HW215471   3.897   1.114   3.261  0.3012 -0.4663 -0.1779
 4858SOL     OW15472   1.771   1.617   2.584 -0.0868 -0.4035  0.0159
 4858SOL    HW115473   1.673   1.601   2.590 -0.0156 -0.6026  0.6883
 4858SOL    HW215474   1.813   1.605   2.674  0.5064 -0.0024 -0.1975
 4859SOL     OW15475   6.513   6.709   1.886 -0.1705 -0.1864  0.0087
 4859SOL    HW115476   6.530   6.781   1.953  0.6256 -0.5289  0.1892
 4859SOL    HW215477   6.515   6.620   1.932  0.6926 -0.4493 -0.5034
 4860SOL     OW15478   2.449   3.025   5.877  0.0893 -0.0931  0.4277
 4860SOL    HW115479   2.495   3.056   5.794 -2.0471 -1.8155 -1.5354
 4860SOL    HW215480   2.511   2.965   5.928  2.3142  2.9009  1.5080
 4861SOL     OW15481   7.017   5.287   6.933  0.1999  0.0626 -0.0921
 4861SOL    HW115482   6.918   5.289   6.943  0.2086  0.3385 -0.0500
 4861SOL    HW215483   7.049   5.376   6.899 -0.0262 -1.3149 -4.5565
 4862SOL     OW15484   2.684   4.915   1.931 -0.0236  0.6918  0.0807
 4862SOL    HW115485   2.715   4.959   2.015 -1.8931  0.2596  1.0320
 4862SOL    HW215486   2.761   4.864   1.890  0.4053 -0.9273  2.7021
 4863SOL     OW15487   4.507   2.545   2.474 -0.9394  0.5666  0.0535
 4863SOL    HW115488   4.424   2.518   2.424 -1.2294  0.2366  0.6871
 4863SOL    HW215489   4.494   2.524   2.571  0.5023 -1.0011 -0.0469
 4864SOL     OW15490   1.199   1.769   3.146 -0.0733 -0.8104 -0.0919
 4864SOL    HW115491   1.152   1.826   3.078 -0.3766 -0.3814  0.4736
 4864SOL    HW215492   1.230   1.685   3.102  3.2577  1.0929 -1.7985
 4865SOL     OW15493   3.235   0.432   4.253  0.4327  0.3915  0.2289
 4865SOL    HW115494   3.244   0.456   4.350  0.6121  0.5628  0.1698
 4865SOL    HW215495   3.140   0.405   4.235  0.4297  0.2316  0.4805
 4866SOL     OW15496   3.775   5.959   0.548 -0.5861 -0.2710 -0.0519
 4866SOL    HW115497   3.858   5.954   0.604 -0.4690 -0.5439 -0.2411
 4866SOL    HW215498   3.799   5.991   0.456 -0.5886 -0.8986 -0.2831
 4867SOL     OW15499   5.729   6.727   3.451 -0.0154  0.1969 -0.2862
 4867SOL    HW115500   5.786   6.691   3.525  0.2782  0.1657 -0.5286
 4867SOL    HW215501   5.705   6.822   3.471 -3.1233 -0.8540  1.7835
 4868SOL     OW15502   0.163   4.917   2.264 -0.3558  0.3901 -1.2098
 4868SOL    HW115503   0.134   4.930   2.359  0.2027 -0.1926 -0.9442
 4868SOL    HW215504   0.248   4.966   2.248 -0.3433  0.3252 -1.3451
 4869SOL     OW15505   0.374   2.443   3.559  0.2930  0.2167 -0.2070
 4869SOL    HW115506   0.429   2.468   3.639 -1.1222 -0.6114  1.0662
 4869SOL    HW215507   0.384   2.345   3.542 -0.8353  0.0451  0.0895
 4870SOL     OW15508   5.297   5.069   1.778 -0.4460 -0.5495 -0.7234
 4870SOL    HW115509   5.332   5.147   1.831  0.1658 -1.3153  0.0149
 4870SOL    HW215510   5.298   5.093   1.680 -0.7652  0.5541 -0.4812
 4871SOL     OW15511   5.816   1.969   6.072 -0.3492  0.3824  0.2397
 4871SOL    HW115512   5.831   2.067   6.083 -1.2151  0.6580 -0.7843
 4871SOL    HW215513   5.719   1.949   6.086 -0.0649 -0.4417  1.1199
 4872SOL     OW15514   1.361   5.237   3.480 -0.2950  0.5349 -0.4430
 4872SOL    HW115515   1.270   5.197   3.491 -0.0927  0.4215  1.0072
 4872SOL    HW215516   1.357   5.335   3.498 -0.2716  0.6818 -1.2014
 4873SOL     OW15517   4.978   4.904   4.570 -0.5835 -0.3420 -0.0303
 4873SOL    HW115518   4.946   4.999   4.566 -1.2434 -0.5225  0.6315
 4873SOL    HW215519   5.074   4.900   4.543  0.1620  0.8793  2.1804
 4874SOL     OW15520   5.913   1.803   2.700 -0.0330  0.0512  0.7663
 4874SOL    HW115521   5.979   1.807   2.775  0.6579  0.5175  0.1413
 4874SOL    HW215522   5.933   1.875   2.634 -1.0349  0.0507  0.4509
 4875SOL     OW15523   6.128   0.567   0.880 -0.2692  0.0887  0.7504
 4875SOL    HW115524   6.056   0.500   0.858 -0.3262  0.1315  0.8063
 4875SOL    HW215525   6.094   0.659   0.863  0.9139  0.0297 -2.6878
 4876SOL     OW15526   6.825   6.601   5.089  0.2958  0.1584  0.1815
 4876SOL    HW115527   6.916   6.560   5.097  0.5579  0.7448  0.2440
 4876SOL    HW215528   6.834   6.697   5.063 -0.3769 -0.4418 -2.5120
 4877SOL     OW15529   6.870   4.304   2.152 -0.2013 -0.0633 -0.1468
 4877SOL    HW115530   6.860   4.402   2.166  0.7088  0.1850 -1.1274
 4877SOL    HW215531   6.794   4.256   2.197 -1.0878  1.1306 -0.3184
 4878SOL     OW15532   4.154   1.440   3.078 -0.0675 -0.1768 -0.1750
 4878SOL    HW115533   4.140   1.424   3.176  0.5800  2.3436  0.4073
 4878SOL    HW215534   4.066   1.457   3.034 -0.1740  1.1349  0.4995
 4879SOL     OW15535   4.068   4.780   4.419 -0.1029 -0.0540  0.3989
 4879SOL    HW115536   4.066   4.724   4.336  2.5405  1.1850 -0.6373
 4879SOL    HW215537   4.122   4.734   4.489 -0.9728 -0.3667  0.8829
 4880SOL     OW15538   5.646   4.222   5.885 -0.3440 -0.4050 -0.6142
 4880SOL    HW115539   5.667   4.131   5.922 -1.5740 -0.2724  0.4830
 4880SOL    HW215540   5.592   4.213   5.802 -3.1019 -0.7550  1.0769
 4881SOL     OW15541   3.196   5.202   5.780 -0.7435  0.0757 -0.5151
 4881SOL    HW115542   3.162   5.247   5.698  3.4287  1.4127 -1.7746
 4881SOL    HW215543   3.201   5.104   5.765 -0.9231  0.2089 -1.5002
 4882SOL     OW15544   6.547   2.416   4.781 -0.0741 -0.1551  0.5930
 4882SOL    HW115545   6.554   2.316   4.790 -0.7413 -0.0745  2.2359
 4882SOL    HW215546   6.491   2.453   4.855 -0.9937  1.3113 -0.7664
 4883SOL     OW15547   4.788   4.727   3.518 -0.3068 -0.5740  0.2885
 4883SOL    HW115548   4.774   4.629   3.511  0.0381 -0.6585  0.7186
 4883SOL    HW215549   4.882   4.746   3.547 -0.0943 -0.0852 -0.6653
 4884SOL     OW15550   4.816   5.613   5.548 -0.3684 -0.1695 -0.1926
 4884SOL    HW115551   4.766   5.659   5.622  0.7263 -2.7900  2.4014
 4884SOL    HW215552   4.791   5.516   5.547  0.7237 -0.4895 -2.3804
 4885SOL     OW15553   2.627   5.528   2.300 -0.2828  0.2425  0.7296
 4885SOL    HW115554   2.632   5.548   2.202 -0.7508 -0.6273  0.5196
 4885SOL    HW215555   2.596   5.610   2.348  0.4025  0.8197  0.2154
 4886SOL     OW15556   6.009   0.237   6.661 -0.0812  0.1721 -0.3509
 4886SOL    HW115557   6.048   0.233   6.753  0.6293 -1.6771 -0.6935
 4886SOL    HW215558   5.909   0.229   6.667 -0.1667  1.4532  0.3136
 4887SOL     OW15559   0.165   2.393   2.075 -0.0771  0.0877  0.4462
 4887SOL    HW115560   0.107   2.340   2.137  0.5893 -0.2737  0.7701
 4887SOL    HW215561   0.251   2.415   2.121 -0.1120  0.9584  0.1116
 4888SOL     OW15562   1.729   6.781   4.049 -0.0616 -0.3663 -0.2627
 4888SOL    HW115563   1.767   6.703   3.999 -0.7088 -0.1791 -1.0725
 4888SOL    HW215564   1.777   6.864   4.021  1.0227 -0.5199  1.0239
 4889SOL     OW15565   1.104   0.812   6.095  0.2941  0.4616 -0.3246
 4889SOL    HW115566   1.118   0.868   6.176 -0.8401  4.1805 -2.4488
 4889SOL    HW215567   1.022   0.843   6.047  1.7077 -0.4733 -3.6574
 4890SOL     OW15568   0.675   2.999   6.315 -0.1195  0.0796  0.1569
 4890SOL    HW115569   0.598   3.045   6.360 -1.6390 -1.2900 -0.8985
 4890SOL    HW215570   0.725   2.945   6.383  0.0674  1.1672  0.9065
 4891SOL     OW15571   2.397   5.108   1.489  0.7949  0.0159  0.0795
 4891SOL    HW115572   2.375   5.184   1.428  0.5129 -0.3554 -0.2851
 4891SOL    HW215573   2.468   5.137   1.554  2.2556 -0.0340 -1.4173
 4892SOL     OW15574   4.515   5.594   2.393  0.0947  0.2827  0.3190
 4892SOL    HW115575   4.528   5.504   2.351  1.0117  0.7101 -0.3566
 4892SOL    HW215576   4.533   5.587   2.491  0.8740 -0.1394  0.1586
 4893SOL     OW15577   6.418   4.011   5.541 -0.3196 -0.0720  0.3737
 4893SOL    HW115578   6.510   3.975   5.525  1.0873  3.1172  0.4576
 4893SOL    HW215579   6.382   4.049   5.456 -0.3311  1.1863  0.9152
 4894SOL     OW15580   3.978   0.480   2.475  0.1274 -0.5012  0.3624
 4894SOL    HW115581   4.016   0.439   2.558  0.7176 -1.9986 -0.6126
 4894SOL    HW215582   4.008   0.575   2.469  1.4760 -0.8626  1.0037
 4895SOL     OW15583   1.232   5.110   0.860 -0.5192  0.2285 -0.0958
 4895SOL    HW115584   1.138   5.080   0.848  0.5986 -2.7175 -2.6323
 4895SOL    HW215585   1.277   5.052   0.928 -0.8444  2.7663  2.5107
 4896SOL     OW15586   3.334   6.725   2.447  0.1065  0.2571  0.4339
 4896SOL    HW115587   3.380   6.767   2.369 -3.0329  1.8032 -0.7984
 4896SOL    HW215588   3.356   6.774   2.531 -1.3842  2.8472 -0.5711
 4897SOL     OW15589   2.491   5.322   6.191 -0.5968 -0.3496  0.8679
 4897SOL    HW115590   2.414   5.387   6.191 -0.3297 -0.0327  0.3354
 4897SOL    HW215591   2.488   5.269   6.276 -0.9536  0.1987  1.2110
 4898SOL     OW15592   5.790   0.021   5.949 -0.3519 -0.5788  0.0859
 4898SOL    HW115593   5.845  -0.001   5.869  0.9890 -1.0296  1.0913
 4898SOL    HW215594   5.779   0.120   5.956 -0.7629 -0.5558 -0.8261
 4899SOL     OW15595   0.389   1.944   2.546  0.0399 -0.3563  0.2142
 4899SOL    HW115596   0.457   1.885   2.502 -0.6576  0.5908 -2.3055
 4899SOL    HW215597   0.432   1.993   2.622  1.2968 -2.0925  0.7104
 4900SOL     OW15598   2.360   5.323   4.563 -0.2677  0.2810 -0.4123
 4900SOL    HW115599   2.335   5.287   4.653  1.0846  0.5447  0.1002
 4900SOL    HW215600   2.340   5.254   4.493  1.7265 -1.3518  0.4885
 4901SOL     OW15601   2.408   0.260   3.984  0.4133 -0.2128 -0.9927
 4901SOL    HW115602   2.381   0.336   3.926  0.8859  1.4253  0.8258
 4901SOL    HW215603   2.373   0.274   4.076  2.4719 -0.9669 -0.0207
 4902SOL     OW15604   2.346   2.733   5.608  0.3017  0.0744  0.1106
 4902SOL    HW115605   2.405   2.749   5.529  2.5187  1.3109  1.8422
 4902SOL    HW215606   2.278   2.806   5.614  0.3200  0.1440 -0.4693
 4903SOL     OW15607   3.158   6.380   0.673 -0.0824  0.0108 -0.0144
 4903SOL    HW115608   3.211   6.299   0.649 -1.1351 -1.1472  1.3586
 4903SOL    HW215609   3.188   6.414   0.762  0.2926  1.0951 -0.5440
 4904SOL     OW15610   2.718   2.039   3.074 -0.2842  0.2423 -0.2201
 4904SOL    HW115611   2.633   2.044   3.127 -1.1295  0.8221 -1.5555
 4904SOL    HW215612   2.774   2.120   3.093 -1.6763  1.6886 -1.8986
 4905SOL     OW15613   4.576   0.802   1.594 -0.0391  0.1066  0.0911
 4905SOL    HW115614   4.560   0.846   1.506  0.7089  0.3803  0.0846
 4905SOL    HW215615   4.563   0.869   1.667  1.4806  0.4712  0.0614
 4906SOL     OW15616   3.749   0.589   5.623 -0.2801  0.1991 -0.5111
 4906SOL    HW115617   3.705   0.504   5.655 -0.2812  0.9937  1.7933
 4906SOL    HW215618   3.776   0.643   5.702 -1.8190  3.1661 -1.8637
 4907SOL     OW15619   4.669   6.264   0.916 -0.1293 -0.0700  0.7797
 4907SOL    HW115620   4.752   6.320   0.923 -0.2583  0.3407 -0.6268
 4907SOL    HW215621   4.590   6.317   0.948 -0.8460  2.0655 -3.7022
 4908SOL     OW15622   4.962   4.437   0.671 -0.3880  0.3601 -0.5773
 4908SOL    HW115623   5.018   4.515   0.698 -0.3021 -0.0985  0.6394
 4908SOL    HW215624   5.002   4.393   0.591 -0.7555  1.8857 -1.6572
 4909SOL     OW15625   0.059   5.237   0.725 -0.4119  0.2897  0.3983
 4909SOL    HW115626   0.112   5.304   0.674 -1.1407  1.4912  1.1639
 4909SOL    HW215627  -0.024   5.215   0.673 -0.3937  0.3159  0.3573
 4910SOL     OW15628   5.525   6.218   4.071  0.2307 -0.2343  0.1635
 4910SOL    HW115629   5.539   6.155   4.148 -0.8699 -0.3851  0.2594
 4910SOL    HW215630   5.472   6.296   4.101  0.5305  0.1366 -0.2553
 4911SOL     OW15631   6.749   2.494   0.983 -0.0318 -0.1856 -0.3591
 4911SOL    HW115632   6.787   2.586   0.983 -1.3240  0.4004 -2.0186
 4911SOL    HW215633   6.759   2.454   0.893 -0.4045 -1.2728  0.0648
 4912SOL     OW15634   6.053   1.446   6.760  0.3083  0.4834  0.2664
 4912SOL    HW115635   6.130   1.498   6.798 -0.0515  0.6001  0.8348
 4912SOL    HW215636   5.968   1.495   6.777 -0.0345 -0.2790  0.7717
 4913SOL     OW15637   3.634   4.066   3.299 -0.4591 -0.3045  0.1300
 4913SOL    HW115638   3.604   4.117   3.379  3.1435  0.2047  1.3606
 4913SOL    HW215639   3.642   4.127   3.220 -3.0462 -0.5974 -0.4227
 4914SOL     OW15640   5.218   2.105   6.197 -0.0933  0.1322 -0.0229
 4914SOL    HW115641   5.241   2.008   6.205 -0.8008 -0.0365  0.0147
 4914SOL    HW215642   5.150   2.129   6.266 -1.9294  0.0153 -1.6954
 4915SOL     OW15643   4.958   6.058   4.174 -0.7738 -0.5541 -0.1350
 4915SOL    HW115644   4.905   6.033   4.093 -2.3497  1.6173  0.1336
 4915SOL    HW215645   5.048   6.092   4.145 -0.4240 -1.9584 -0.7735
 4916SOL     OW15646   0.580   1.010   3.312  0.0030  0.4343 -0.1046
 4916SOL    HW115647   0.522   1.071   3.366 -0.1408  0.0789  0.1469
 4916SOL    HW215648   0.524   0.959   3.247 -0.2243 -1.0775  1.2180
 4917SOL     OW15649   2.554   3.521   6.676 -0.8561  0.0934 -0.0495
 4917SOL    HW115650   2.461   3.557   6.669 -0.8642 -0.0897 -1.0628
 4917SOL    HW215651   2.616   3.576   6.619 -0.2636  0.4300  0.8885
 4918SOL     OW15652   2.967   6.668   3.809 -0.1865 -0.1049  0.4594
 4918SOL    HW115653   3.005   6.595   3.752  1.2938  1.2466 -0.3661
 4918SOL    HW215654   2.867   6.660   3.811 -0.1280 -1.5133 -0.4585
 4919SOL     OW15655   2.505   1.092   0.766 -0.5304 -0.1460  0.1580
 4919SOL    HW115656   2.587   1.052   0.725 -0.4698  0.8453 -0.7276
 4919SOL    HW215657   2.518   1.101   0.865  0.9108  1.0514 -0.0947
 4920SOL     OW15658   4.510   0.986   6.802  0.0717 -0.8720 -0.1900
 4920SOL    HW115659   4.501   1.013   6.707 -1.1956  0.3696  0.2522
 4920SOL    HW215660   4.429   0.932   6.829 -1.6245  2.1161  1.1933
 4921SOL     OW15661   0.584   3.395   2.737 -0.1877  0.1138 -0.1990
 4921SOL    HW115662   0.640   3.474   2.760  1.7666 -1.2841  0.1029
 4921SOL    HW215663   0.633   3.337   2.672 -1.6397 -0.7828 -0.5327
 4922SOL     OW15664   0.552   4.093   4.047  0.1015 -0.6314  0.2280
 4922SOL    HW115665   0.488   4.163   4.014 -2.8035 -1.8967  2.6567
 4922SOL    HW215666   0.608   4.060   3.971 -0.2545  2.3839 -1.5194
 4923SOL     OW15667   4.348   1.496   1.789  0.7398  0.1577  0.2097
 4923SOL    HW115668   4.430   1.441   1.774 -1.1245 -2.0897 -3.1577
 4923SOL    HW215669   4.343   1.568   1.720 -0.5393 -0.3262 -0.2248
 4924SOL     OW15670   2.285   2.153   6.081 -0.1139 -0.0935 -0.1303
 4924SOL    HW115671   2.224   2.074   6.091 -0.1596 -0.0572 -0.1232
 4924SOL    HW215672   2.275   2.213   6.160 -0.8557  0.4582 -0.6353
 4925SOL     OW15673   5.527   5.311   1.196  0.1695 -0.9026  0.0838
 4925SOL    HW115674   5.571   5.294   1.108  0.1975 -0.9403  0.1051
 4925SOL    HW215675   5.587   5.368   1.252 -0.4141  0.2527 -0.4245
 4926SOL     OW15676   5.303   2.179   1.195  0.8961  0.1699  0.3352
 4926SOL    HW115677   5.307   2.225   1.106 -0.0470 -0.1871  0.0962
 4926SOL    HW215678   5.378   2.211   1.253  0.4923  1.7089  0.0371
 4927SOL     OW15679   4.014   3.199   4.797 -0.0014 -0.2833  0.7667
 4927SOL    HW115680   3.953   3.253   4.856 -0.6705  0.1543 -0.2947
 4927SOL    HW215681   4.109   3.222   4.817 -0.2815  2.2099 -0.4499
 4928SOL     OW15682   0.595   6.896   6.641 -0.0429  0.7993  0.4769
 4928SOL    HW115683   0.589   6.847   6.728  0.5603  0.1706  0.1679
 4928SOL    HW215684   0.526   6.859   6.578 -0.3361  1.1107  0.6097
 4929SOL     OW15685   1.966   3.628   4.807  0.0269  0.2463 -0.1122
 4929SOL    HW115686   1.871   3.598   4.806  0.3621 -1.0258 -3.0515
 4929SOL    HW215687   1.980   3.694   4.881 -2.1763 -2.4196  2.9462
 4930SOL     OW15688   6.609   6.939   1.574 -0.0413 -0.0959 -0.2456
 4930SOL    HW115689   6.641   6.869   1.509 -0.6452 -1.1709  0.5879
 4930SOL    HW215690   6.645   6.920   1.665 -0.8233  0.2377  0.1499
 4931SOL     OW15691   0.541   6.046   6.571  0.4534  0.3117  0.5890
 4931SOL    HW115692   0.610   5.988   6.615  0.1311  0.4245  1.2467
 4931SOL    HW215693   0.556   6.045   6.472 -0.9505 -2.7750  0.2954
 4932SOL     OW15694   3.687   3.196   1.825 -0.3367  0.3873 -0.1854
 4932SOL    HW115695   3.633   3.141   1.889  0.2927  1.4487  1.2946
 4932SOL    HW215696   3.762   3.141   1.789 -0.5669 -0.1540  0.1444
 4933SOL     OW15697   2.372   6.245   4.849  0.5430  0.4623 -0.3488
 4933SOL    HW115698   2.414   6.314   4.790  0.2683 -0.6407 -1.8826
 4933SOL    HW215699   2.278   6.229   4.819  0.3191  0.0498  0.5507
 4934SOL     OW15700   1.010   4.787   3.676 -0.2578  0.0645  0.2222
 4934SOL    HW115701   1.023   4.782   3.775  0.0800 -0.4345  0.1543
 4934SOL    HW215702   1.087   4.744   3.630 -0.5767 -0.0022 -0.2564
 4935SOL     OW15703   0.836   2.028   5.663  0.5004  0.2158 -0.0456
 4935SOL    HW115704   0.784   2.104   5.623  1.4918  1.1379  0.3678
 4935SOL    HW215705   0.799   2.006   5.753  0.0622  0.0486 -0.2642
 4936SOL     OW15706   1.504   3.502   1.571  0.4225  0.7181  0.1391
 4936SOL    HW115707   1.508   3.414   1.618  0.9619  1.0680  0.7665
 4936SOL    HW215708   1.596   3.533   1.548  0.1369 -0.5762 -3.3926
 4937SOL     OW15709   2.265   2.834   5.239 -0.0013 -0.0054  0.4443
 4937SOL    HW115710   2.338   2.860   5.177 -0.0850 -0.8855 -0.0373
 4937SOL    HW215711   2.303   2.812   5.329  0.1484  1.0076  0.6343
 4938SOL     OW15712   3.887   5.151   0.292 -0.2317  0.1028  0.1163
 4938SOL    HW115713   3.844   5.071   0.250 -0.6416 -0.0409  0.8000
 4938SOL    HW215714   3.984   5.151   0.271 -0.4877  0.2377 -1.1504
 4939SOL     OW15715   0.644   2.669   3.418  0.2723 -0.3504  0.2437
 4939SOL    HW115716   0.606   2.690   3.328  1.3614 -0.8133 -0.3549
 4939SOL    HW215717   0.676   2.574   3.419  0.6692 -0.2176  0.9763
 4940SOL     OW15718   5.442   4.489   4.769 -0.2008  0.5898 -0.7563
 4940SOL    HW115719   5.410   4.417   4.831  0.6296  0.6066 -0.2888
 4940SOL    HW215720   5.492   4.448   4.693 -1.9927  0.5014 -1.9440
 4941SOL     OW15721   3.582   2.645   5.666 -0.3193  0.0195  0.7092
 4941SOL    HW115722   3.486   2.624   5.681 -0.3982  0.1862  0.4452
 4941SOL    HW215723   3.602   2.646   5.568  0.1248 -0.7719  0.7825
 4942SOL     OW15724   6.097   3.542   5.061  0.3774 -0.4217  0.0450
 4942SOL    HW115725   6.026   3.503   5.120  0.2712 -0.4856 -0.1249
 4942SOL    HW215726   6.142   3.618   5.109  1.1941 -1.3115  0.7385
 4943SOL     OW15727   3.824   4.196   5.054  0.4264  0.2223  0.4013
 4943SOL    HW115728   3.744   4.160   5.007  0.9220  0.0166 -0.2879
 4943SOL    HW215729   3.905   4.185   4.997  0.7218  1.7508  0.4778
 4944SOL     OW15730   3.414   3.020   0.259  0.0294  0.0484  0.0915
 4944SOL    HW115731   3.362   3.075   0.323  3.2167  1.4761  1.6968
 4944SOL    HW215732   3.455   2.942   0.307  0.0234 -0.6100 -0.9262
 4945SOL     OW15733   6.113   5.805   4.393  0.2613  0.4436  0.1205
 4945SOL    HW115734   6.064   5.739   4.451 -0.2159  1.8057  1.3161
 4945SOL    HW215735   6.106   5.776   4.298 -0.9295 -0.6139  0.4918
 4946SOL     OW15736   0.150   6.488   0.636 -0.3592 -0.5063  0.6271
 4946SOL    HW115737   0.110   6.426   0.570 -1.3077 -1.4293  2.0185
 4946SOL    HW215738   0.215   6.549   0.590  0.2566 -2.2056 -0.8432
 4947SOL     OW15739   2.259   3.235   1.734 -0.1570 -0.1073  0.1483
 4947SOL    HW115740   2.301   3.304   1.792  0.4890 -0.6256  0.3088
 4947SOL    HW215741   2.282   3.253   1.638  1.0428 -0.7835  0.2907
 4948SOL     OW15742   1.853   3.301   4.051 -0.4933 -0.0600 -0.5799
 4948SOL    HW115743   1.834   3.273   3.957  0.9915 -0.4289 -0.7965
 4948SOL    HW215744   1.904   3.388   4.050  0.8663 -0.8264 -0.2126
 4949SOL     OW15745   0.023   2.816   5.478  0.6155  0.2146  0.0620
 4949SOL    HW115746  -0.040   2.860   5.415 -0.1352  0.6162  1.0685
 4949SOL    HW215747  -0.028   2.778   5.555  1.6304  0.8386  1.0608
 4950SOL     OW15748   2.278   4.566   6.137  0.2270 -0.2714 -0.3912
 4950SOL    HW115749   2.201   4.554   6.200  1.9637 -2.5465  1.4849
 4950SOL    HW215750   2.282   4.487   6.075  0.1560  0.6147 -1.5526
 4951SOL     OW15751   6.998   5.240   4.617  0.1927  0.4228  0.5177
 4951SOL    HW115752   7.007   5.340   4.617  0.8301  0.4088 -1.5585
 4951SOL    HW215753   6.959   5.210   4.704 -3.0360  2.7517  0.0816
 4952SOL     OW15754   0.247   6.249   0.017 -0.5908  0.2387  0.1385
 4952SOL    HW115755   0.312   6.266   0.091  0.3332 -0.2451 -0.5520
 4952SOL    HW215756   0.283   6.285  -0.068  0.4323 -3.0352 -0.9525
 4953SOL     OW15757   0.502   5.531   3.926  0.5212 -0.4245  0.6161
 4953SOL    HW115758   0.537   5.605   3.868  0.1066 -1.4846 -1.0867
 4953SOL    HW215759   0.407   5.551   3.951  0.8525  0.2693  1.3494
 4954SOL     OW15760   2.941   4.922   5.919 -0.4008  0.1506 -0.2107
 4954SOL    HW115761   2.946   4.873   6.006 -1.8955  2.7381  1.4692
 4954SOL    HW215762   2.877   4.874   5.858 -0.0560 -1.1939  0.4426
 4955SOL     OW15763   4.257   5.560   6.944 -0.0246  0.2295 -0.5014
 4955SOL    HW115764   4.164   5.558   6.907 -1.1840  1.3901  2.0517
 4955SOL    HW215765   4.314   5.495   6.895 -2.1063 -0.3189 -2.3468
 4956SOL     OW15766   1.290   0.305   4.129  0.0954  0.2642 -0.3083
 4956SOL    HW115767   1.296   0.286   4.227  0.4063  1.2507 -0.1236
 4956SOL    HW215768   1.331   0.229   4.078  2.0091  0.7419  0.4236
 4957SOL     OW15769   0.258   2.643   1.250  0.9588  0.0640  0.0639
 4957SOL    HW115770   0.327   2.701   1.294  2.5883 -0.9489 -1.0340
 4957SOL    HW215771   0.265   2.550   1.286  1.0662 -0.3522 -0.9860
 4958SOL     OW15772   1.221   3.391   6.908  0.2722 -0.8620  0.8858
 4958SOL    HW115773   1.181   3.468   6.958 -1.0737 -1.4025  0.6820
 4958SOL    HW215774   1.320   3.404   6.901 -0.1141  1.9620 -0.9923
 4959SOL     OW15775   7.012   1.394   1.582 -0.2632 -0.1211  0.1948
 4959SOL    HW115776   7.030   1.454   1.660  0.0512 -1.4915  1.2177
 4959SOL    HW215777   6.935   1.430   1.529  0.4494  1.6242  0.2722
 4960SOL     OW15778   4.297   4.780   5.153 -0.3365 -0.5197 -0.1679
 4960SOL    HW115779   4.197   4.771   5.158 -0.3105 -0.7747 -0.0698
 4960SOL    HW215780   4.333   4.713   5.088 -0.6734  2.7343 -4.0922
 4961SOL     OW15781   2.504   6.977   5.640 -0.4924 -0.0801 -0.3731
 4961SOL    HW115782   2.565   6.996   5.716 -0.4587 -0.3034 -0.3432
 4961SOL    HW215783   2.458   6.890   5.655  0.9043 -1.0653 -1.4959
 4962SOL     OW15784   5.042   2.328   1.613  0.1630  0.1134 -0.4208
 4962SOL    HW115785   5.117   2.364   1.669 -1.6631 -0.8907  2.9599
 4962SOL    HW215786   5.072   2.245   1.568  0.4375 -2.1046  3.3853
 4963SOL     OW15787   2.824   5.793   0.219  0.1435  0.6368  0.1392
 4963SOL    HW115788   2.846   5.805   0.122 -0.9746 -0.0417 -0.2103
 4963SOL    HW215789   2.904   5.755   0.266  0.1669 -0.6232 -0.8601
 4964SOL     OW15790   2.506   6.403   3.859  0.4202 -0.4718  0.3204
 4964SOL    HW115791   2.569   6.355   3.921  1.6195 -0.4310 -0.8411
 4964SOL    HW215792   2.413   6.370   3.875  0.7548 -0.7448  1.8639
 4965SOL     OW15793   0.754   0.796   3.304 -0.5184  0.4200  0.1023
 4965SOL    HW115794   0.703   0.880   3.323  0.6825  0.9721  1.0400
 4965SOL    HW215795   0.842   0.819   3.261 -0.0785 -0.3310  0.5771
 4966SOL     OW15796   2.034   1.134   4.841 -0.1676 -0.1970 -0.0797
 4966SOL    HW115797   1.937   1.110   4.837 -0.5498  1.2655 -0.1880
 4966SOL    HW215798   2.052   1.188   4.923  0.2752  0.6326 -0.7058
 4967SOL     OW15799   1.851   5.246   5.262 -0.4961 -0.6444 -0.2167
 4967SOL    HW115800   1.807   5.334   5.283 -0.6605 -0.9380  0.7189
 4967SOL    HW215801   1.795   5.196   5.197 -0.1477  0.1491 -1.1566
 4968SOL     OW15802   0.815   3.461   4.985 -1.2299  0.3853  0.0704
 4968SOL    HW115803   0.826   3.516   5.067 -1.9816 -0.0119  0.4476
 4968SOL    HW215804   0.890   3.395   4.978 -0.3273  1.4301 -0.3797
 4969SOL     OW15805   0.910   0.538   2.257 -0.2059 -0.2281 -0.1681
 4969SOL    HW115806   0.861   0.473   2.315 -0.3467  0.5017  0.5594
 4969SOL    HW215807   0.844   0.602   2.216 -0.0062 -0.1342 -0.3423
 4970SOL     OW15808   2.466   1.408   2.230  0.1100 -0.1545  0.9216
 4970SOL    HW115809   2.424   1.488   2.186  0.5462  0.2417  1.2221
 4970SOL    HW215810   2.507   1.349   2.160 -0.4610 -0.2667  0.6732
 4971SOL     OW15811   6.453   5.283   1.922  0.0644  0.1876 -0.6298
 4971SOL    HW115812   6.408   5.323   2.003  1.5995  0.9647 -0.1264
 4971SOL    HW215813   6.547   5.317   1.916  0.3372 -0.7545 -2.1231
 4972SOL     OW15814   6.691   4.611   6.522  0.4530 -0.0682  1.0282
 4972SOL    HW115815   6.603   4.590   6.564  0.1381  0.9438  0.8920
 4972SOL    HW215816   6.744   4.527   6.512 -0.3317 -0.6267  1.4752
 4973SOL     OW15817   2.471   6.480   4.668  0.2649  0.5120  0.5661
 4973SOL    HW115818   2.403   6.436   4.610 -0.3944 -0.9918  2.4089
 4973SOL    HW215819   2.510   6.559   4.619 -2.7060  1.3886 -0.5773
 4974SOL     OW15820   5.082   4.386   0.970  0.1241 -0.0993  0.3859
 4974SOL    HW115821   5.081   4.350   1.063 -0.0214 -0.5626  0.2094
 4974SOL    HW215822   4.990   4.382   0.931 -0.0303  1.1083  0.6003
 4975SOL     OW15823   5.016   3.952   0.352 -0.0072  0.8997 -0.6555
 4975SOL    HW115824   5.087   4.001   0.403 -1.6125  2.6074  0.0016
 4975SOL    HW215825   5.038   3.955   0.255  1.8546 -0.3719 -0.3430
 4976SOL     OW15826   2.398   0.958   3.784  0.2127 -0.5193  0.4990
 4976SOL    HW115827   2.477   0.949   3.723 -0.7209 -1.1840 -0.6340
 4976SOL    HW215828   2.367   0.867   3.812 -0.3945 -0.2722  0.6291
 4977SOL     OW15829   4.894   5.738   0.188  0.4182  0.7976 -0.0265
 4977SOL    HW115830   4.933   5.749   0.096  1.5364  1.4331  0.5057
 4977SOL    HW215831   4.797   5.762   0.186  0.6229  1.6089 -0.8735
 4978SOL     OW15832   5.190   3.937   5.989  0.0118 -0.3557  0.1989
 4978SOL    HW115833   5.173   3.924   5.892 -0.2485  2.8819 -0.3020
 4978SOL    HW215834   5.253   4.014   6.002 -0.4837 -0.2806  2.6201
 4979SOL     OW15835   0.108   1.636   5.754 -0.3718 -0.4846 -0.0039
 4979SOL    HW115836   0.071   1.619   5.845  2.1623 -1.2603  0.9888
 4979SOL    HW215837   0.158   1.555   5.723  1.5404  0.8539 -0.6169
 4980SOL     OW15838   4.307   5.688   4.012 -0.2949  0.2585  0.0010
 4980SOL    HW115839   4.298   5.641   3.924 -1.4707  1.0743 -0.3511
 4980SOL    HW215840   4.260   5.636   4.083  0.7878 -0.4795  0.1951
 4981SOL     OW15841   3.701   5.336   2.571  0.2072  0.3396 -0.8993
 4981SOL    HW115842   3.746   5.280   2.641 -0.3559  0.6201 -0.3013
 4981SOL    HW215843   3.696   5.285   2.485 -2.2944 -1.4686  0.1988
 4982SOL     OW15844   4.063   3.357   5.673 -0.0511  0.3087  0.6045
 4982SOL    HW115845   4.135   3.288   5.671 -0.3933 -0.0760  1.4614
 4982SOL    HW215846   3.977   3.317   5.642  0.4881  1.2847 -2.5326
 4983SOL     OW15847   5.710   4.674   5.141  0.2532  0.0125 -0.6494
 4983SOL    HW115848   5.796   4.641   5.180 -0.3225  0.6646  1.2727
 4983SOL    HW215849   5.677   4.752   5.194 -1.9322 -0.7137 -0.8438
 4984SOL     OW15850   5.670   3.730   1.943 -0.5853 -0.7912  0.4452
 4984SOL    HW115851   5.676   3.680   1.857 -0.5270  1.0192 -0.6520
 4984SOL    HW215852   5.581   3.776   1.948 -0.1481  0.0168  0.8344
 4985SOL     OW15853   4.442   1.140   3.351  0.1941 -0.1560  0.0446
 4985SOL    HW115854   4.424   1.057   3.297 -0.1792  1.0304 -1.7673
 4985SOL    HW215855   4.499   1.202   3.297 -0.3158  1.1545  0.9683
 4986SOL     OW15856   5.341   3.782   1.712 -0.5333 -0.0213 -0.4374
 4986SOL    HW115857   5.375   3.820   1.798  0.0924 -0.0388 -0.6724
 4986SOL    HW215858   5.363   3.846   1.637 -2.0427  0.5343 -0.4504
 4987SOL     OW15859   1.394   6.353   2.862 -0.0476  0.4043 -1.0023
 4987SOL    HW115860   1.487   6.343   2.827  1.1194  2.9292  1.0161
 4987SOL    HW215861   1.378   6.448   2.887 -2.4911 -0.3368  0.6333
 4988SOL     OW15862   0.576   0.404   2.289 -0.0108  0.2799  0.5025
 4988SOL    HW115863   0.637   0.436   2.361 -0.0843 -1.7572  1.5491
 4988SOL    HW215864   0.486   0.447   2.300 -0.4409 -0.9915  2.5299
 4989SOL     OW15865   3.787   0.259   0.602  0.0842 -0.3439  0.4752
 4989SOL    HW115866   3.768   0.162   0.588 -0.6389 -0.0644 -0.5822
 4989SOL    HW215867   3.864   0.286   0.544  0.9895 -0.5040  1.5615
 4990SOL     OW15868   3.272   1.829   6.411 -0.3783  0.1363  0.2387
 4990SOL    HW115869   3.370   1.832   6.389 -0.5626 -0.9664 -0.8216
 4990SOL    HW215870   3.223   1.894   6.353 -0.1741  1.4702  1.5061
 4991SOL     OW15871   5.029   6.844   4.853 -0.1847  0.2033 -0.0225
 4991SOL    HW115872   5.056   6.881   4.765  0.9175 -1.5893 -0.4822
 4991SOL    HW215873   5.012   6.746   4.845 -0.7219  0.1176  1.6298
 4992SOL     OW15874   4.069   6.746   1.377 -0.0981  0.1751 -0.1069
 4992SOL    HW115875   4.003   6.820   1.362 -0.5643  0.5863  3.3540
 4992SOL    HW215876   4.123   6.764   1.459  1.5018 -2.1931 -0.5177
 4993SOL     OW15877   2.882   6.860   2.435 -0.0692 -0.1072  0.1888
 4993SOL    HW115878   2.974   6.891   2.412 -0.6236  1.5449  0.1111
 4993SOL    HW215879   2.846   6.805   2.359  1.1423 -1.5210  0.5741
 4994SOL     OW15880   2.738   6.674   3.013  0.5312 -0.4057 -0.1293
 4994SOL    HW115881   2.681   6.638   3.086  1.3237 -1.1644  0.1342
 4994SOL    HW215882   2.831   6.691   3.047  0.7876 -0.3322 -0.8312
 4995SOL     OW15883   0.259   2.081   5.565  0.0231 -0.4137 -0.2773
 4995SOL    HW115884   0.201   2.005   5.596  0.6452 -1.0295 -0.5902
 4995SOL    HW215885   0.333   2.045   5.508  0.3745  0.4258 -0.3636
 4996SOL     OW15886   2.123   6.333   2.844 -0.2350 -0.1140 -0.5497
 4996SOL    HW115887   2.176   6.362   2.765 -1.7393  0.8210 -1.2735
 4996SOL    HW215888   2.133   6.400   2.917 -0.0331 -0.2010 -0.4966
 4997SOL     OW15889   3.097   2.837   1.536  0.5753  0.0692  0.2224
 4997SOL    HW115890   3.182   2.851   1.484  0.7549  1.3895  0.8265
 4997SOL    HW215891   3.060   2.925   1.564 -0.5987 -0.5305  0.6232
 4998SOL     OW15892   2.545   4.644   5.044  0.1706 -0.3739 -0.4356
 4998SOL    HW115893   2.482   4.601   4.980 -0.4481 -0.6441  0.3285
 4998SOL    HW215894   2.637   4.645   5.006 -0.1196 -0.8630 -1.1637
 4999SOL     OW15895   5.185   4.876   6.007 -0.2666  0.1513 -0.7870
 4999SOL    HW115896   5.270   4.928   6.005 -0.5823  0.7826  0.6709
 4999SOL    HW215897   5.173   4.835   6.097 -0.5310 -1.6401 -1.5923
 5000SOL     OW15898   2.351   6.992   1.043  0.0132  0.2323  0.2992
 5000SOL    HW115899   2.339   6.919   1.111  1.0079  0.5972  0.9006
 5000SOL    HW215900   2.376   6.952   0.955 -1.5895 -0.2690  0.0341
 5001SOL     OW15901   0.943   5.020   2.169  0.2111 -0.0646 -0.1018
 5001SOL    HW115902   1.031   4.974   2.156 -0.5686 -1.6682  0.0604
 5001SOL    HW215903   0.881   4.993   2.095 -0.7205 -0.4056  0.7907
 5002SOL     OW15904   0.288   1.938   0.574 -0.4098  0.1629  0.0841
 5002SOL    HW115905   0.332   2.011   0.522  2.9851 -0.3814  1.9255
 5002SOL    HW215906   0.245   1.978   0.656  0.3459  0.2635  0.4391
 5003SOL     OW15907   4.439   6.482   2.818 -0.6047  0.1373 -0.6112
 5003SOL    HW115908   4.418   6.468   2.915  0.2704 -0.4632 -0.4887
 5003SOL    HW215909   4.372   6.543   2.777 -0.2758  1.4133  0.6722
 5004SOL     OW15910   1.039   4.670   4.752 -0.6037 -0.1190  0.0971
 5004SOL    HW115911   1.072   4.628   4.668 -1.0592 -0.8115  0.2590
 5004SOL    HW215912   1.055   4.609   4.830 -1.0235  0.1107  0.3725
 5005SOL     OW15913   4.555   1.700   6.329 -0.6013 -0.4626 -0.2221
 5005SOL    HW115914   4.549   1.611   6.375 -1.6891 -0.8747 -1.1071
 5005SOL    HW215915   4.510   1.694   6.240  0.6909  0.5552 -0.9820
 5006SOL     OW15916   4.191   0.228   1.456  0.2555  0.3694  0.0428
 5006SOL    HW115917   4.289   0.223   1.441 -0.0207 -0.1232 -1.9713
 5006SOL    HW215918   4.151   0.294   1.392 -0.9310 -0.9084 -0.6056
 5007SOL     OW15919   0.636   5.870   6.979  0.0834  0.7420 -0.2553
 5007SOL    HW115920   0.569   5.866   7.053  1.1184 -0.8917  0.6429
 5007SOL    HW215921   0.701   5.794   6.988  0.9962  1.2372 -2.1237
 5008SOL     OW15922   5.081   6.948   3.605  0.2645 -0.3150  0.2795
 5008SOL    HW115923   5.047   6.942   3.511  2.6619 -3.6847 -0.5778
 5008SOL    HW215924   5.012   6.912   3.668  0.2890 -2.4079 -0.8054
 5009SOL     OW15925   0.286   2.797   6.523  0.3251  0.3734 -0.1365
 5009SOL    HW115926   0.344   2.817   6.444  1.2761 -0.5514  0.2880
 5009SOL    HW215927   0.344   2.787   6.604 -0.2862 -1.4999  0.1339
 5010SOL     OW15928   5.402   1.510   1.459  0.5687  0.5706  0.3473
 5010SOL    HW115929   5.336   1.490   1.532  0.4974 -0.3411  0.0502
 5010SOL    HW215930   5.494   1.482   1.488  0.6269  0.7053  0.2944
 5011SOL     OW15931   1.540   3.711   0.683  0.2896  0.0874  0.3180
 5011SOL    HW115932   1.507   3.796   0.641  0.4761  0.4187  0.8333
 5011SOL    HW215933   1.462   3.656   0.714  0.1798  0.2479  0.3278
 5012SOL     OW15934   6.461   2.808   4.122  0.6295  0.2808  0.2943
 5012SOL    HW115935   6.496   2.801   4.216 -0.1407  1.2959  0.6840
 5012SOL    HW215936   6.519   2.872   4.070  0.0651  1.0612  0.6007
 5013SOL     OW15937   5.764   1.145   6.934  0.1799 -0.4594 -0.5481
 5013SOL    HW115938   5.699   1.213   6.900 -0.4304 -0.6852  0.1393
 5013SOL    HW215939   5.822   1.114   6.859  1.7145  2.1490 -0.5466
 5014SOL     OW15940   5.044   4.184   6.868  0.0258  0.2380 -0.3844
 5014SOL    HW115941   5.029   4.232   6.782  1.6139 -0.7376 -1.2564
 5014SOL    HW215942   5.132   4.211   6.907 -0.4479  0.2923  0.7025
 5015SOL     OW15943   6.948   1.399   5.336 -0.3620 -0.1867  0.2171
 5015SOL    HW115944   6.962   1.301   5.340  1.2923  0.0518  1.0906
 5015SOL    HW215945   6.890   1.428   5.413  1.0440 -0.2221  1.3290
 5016SOL     OW15946   1.692   3.810   4.862 -0.0959  0.1498  0.2757
 5016SOL    HW115947   1.623   3.878   4.886  1.0772  0.6968  2.3661
 5016SOL    HW215948   1.767   3.855   4.813  0.4980  0.3394  1.3195
 5017SOL     OW15949   2.867   1.522   0.864 -0.2024 -0.6224  0.3770
 5017SOL    HW115950   2.957   1.560   0.840 -0.6992  1.0468  0.9779
 5017SOL    HW215951   2.870   1.423   0.859  1.1545 -0.5513 -1.4696
 5018SOL     OW15952   6.764   4.859   2.726  0.1913 -0.1708  0.4544
 5018SOL    HW115953   6.686   4.878   2.666  1.0283  0.3586 -0.4875
 5018SOL    HW215954   6.809   4.775   2.696  1.0430  0.4802 -0.1243
 5019SOL     OW15955   2.219   5.782   5.341  0.0237 -0.0817  0.2100
 5019SOL    HW115956   2.128   5.756   5.307 -0.4266  2.1715 -0.4514
 5019SOL    HW215957   2.282   5.791   5.264  0.1130  0.9339  0.3992
 5020SOL     OW15958   5.866   5.952   6.723  0.1617 -0.0513 -0.4572
 5020SOL    HW115959   5.937   5.896   6.765  3.4917  1.8472 -3.0439
 5020SOL    HW215960   5.815   5.897   6.656  0.6303 -0.9486 -0.0943
 5021SOL     OW15961   0.797   3.423   6.486  0.5473  0.8512 -0.2138
 5021SOL    HW115962   0.742   3.487   6.540  0.0910 -0.6474  1.1642
 5021SOL    HW215963   0.865   3.380   6.544 -0.7078 -1.6751 -0.4726
 5022SOL     OW15964   1.163   1.782   1.950  0.1727  0.1786 -0.2912
 5022SOL    HW115965   1.136   1.866   1.902  0.1669  0.0389 -0.5381
 5022SOL    HW215966   1.114   1.775   2.036 -0.6479 -0.1079 -0.7675
 5023SOL     OW15967   0.168   4.873   0.598  0.1539 -0.5676  0.0088
 5023SOL    HW115968   0.154   4.957   0.544  0.4610 -0.2596  0.3999
 5023SOL    HW215969   0.265   4.847   0.594 -0.0544 -1.2877 -0.6577
 5024SOL     OW15970   4.744   4.464   1.580  0.3181 -0.0712  0.5258
 5024SOL    HW115971   4.687   4.509   1.511 -0.0543 -1.6594 -0.2463
 5024SOL    HW215972   4.840   4.482   1.559  0.3878 -2.7705 -2.1722
 5025SOL     OW15973   5.043   2.127   2.722  0.2019 -0.3971  0.1130
 5025SOL    HW115974   4.977   2.100   2.652 -0.8613  1.0886  0.4799
 5025SOL    HW215975   5.099   2.048   2.748  0.3857 -1.0570 -2.1287
 5026SOL     OW15976   6.185   0.856   4.919 -0.1020 -0.0137 -0.1461
 5026SOL    HW115977   6.257   0.855   4.850 -1.2373 -1.0072 -1.3759
 5026SOL    HW215978   6.202   0.783   4.986  0.1285 -0.1147 -0.3144
 5027SOL     OW15979   5.277   6.852   1.568  0.0809  0.0189 -0.2533
 5027SOL    HW115980   5.197   6.909   1.555 -0.3375 -0.7527 -1.1742
 5027SOL    HW215981   5.259   6.785   1.639  0.0282  0.0538 -0.2343
 5028SOL     OW15982   1.018   2.751   2.719 -0.1837 -0.2933 -0.0193
 5028SOL    HW115983   1.001   2.828   2.659 -2.3106 -1.0669 -0.4690
 5028SOL    HW215984   1.111   2.758   2.757  0.1546  1.7091 -1.1184
 5029SOL     OW15985   5.694   2.954   1.387 -0.5290  0.1918 -0.1861
 5029SOL    HW115986   5.674   2.963   1.484 -1.4222  0.9159 -0.4234
 5029SOL    HW215987   5.659   3.033   1.338  0.8207  0.3389 -0.9759
 5030SOL     OW15988   1.817   5.289   5.644  0.3325  0.2664  0.0349
 5030SOL    HW115989   1.879   5.365   5.626  0.4292  0.1198 -0.2466
 5030SOL    HW215990   1.796   5.286   5.742  2.0888 -0.7127  0.4098
 5031SOL     OW15991   4.938   1.681   5.714 -0.2898  0.2146 -0.4730
 5031SOL    HW115992   4.917   1.632   5.629  3.5829 -0.9033 -1.0180
 5031SOL    HW215993   4.892   1.636   5.791 -1.1543 -0.9032 -1.6026
 5032SOL     OW15994   3.295   1.049   5.581  0.3850  0.1969  0.5212
 5032SOL    HW115995   3.200   1.029   5.559  0.3624  0.1644  0.6444
 5032SOL    HW215996   3.355   0.986   5.532  0.3393  0.1730  0.4961
 5033SOL     OW15997   2.799   6.341   5.428  0.3303 -0.4204 -0.2937
 5033SOL    HW115998   2.708   6.313   5.459  0.3456 -1.8543 -1.4386
 5033SOL    HW215999   2.851   6.378   5.505 -1.5598  1.4033  0.1703
 5034SOL     OW16000   6.915   5.420   2.355 -0.2343  0.0085 -0.0928
 5034SOL    HW116001   6.963   5.350   2.301  1.4809  0.1932  1.1265
 5034SOL    HW216002   6.831   5.381   2.393  0.1687 -1.0778 -0.2918
 5035SOL     OW16003   0.967   2.654   5.879 -0.2640 -0.2460 -0.3351
 5035SOL    HW116004   0.880   2.604   5.875 -0.9779  0.8614  0.6588
 5035SOL    HW216005   0.970   2.722   5.806 -1.5909  1.7384  1.3307
 5036SOL     OW16006   1.844   3.637   0.164  0.1533 -0.3756  0.2095
 5036SOL    HW116007   1.840   3.720   0.219  1.0220  0.3535 -0.7853
 5036SOL    HW216008   1.927   3.638   0.109 -0.8864 -0.8849 -1.4260
 5037SOL     OW16009   4.614   5.049   1.388 -0.2954  0.0090 -0.2263
 5037SOL    HW116010   4.699   5.025   1.434 -0.1021 -0.1782 -0.6776
 5037SOL    HW216011   4.575   5.131   1.430  1.2521  1.4132 -1.4562
 5038SOL     OW16012   4.088   4.480   5.377 -0.6202  0.5540  0.2130
 5038SOL    HW116013   4.137   4.444   5.298  0.3858  2.1434  0.0762
 5038SOL    HW216014   4.014   4.540   5.346  0.3314  1.8976  0.4303
 5039SOL     OW16015   3.320   4.395   5.619 -0.2092  0.5556  0.4980
 5039SOL    HW116016   3.231   4.354   5.599  0.7589 -0.5039 -2.1068
 5039SOL    HW216017   3.331   4.478   5.564  0.7978  0.1022 -0.0157
 5040SOL     OW16018   1.448   5.097   6.061  0.8667  0.2835  0.0769
 5040SOL    HW116019   1.441   5.083   6.159 -0.5626  0.9886  0.0973
 5040SOL    HW216020   1.504   5.178   6.042  0.5056  0.5947  0.3409
 5041SOL     OW16021   1.110   1.249   2.008 -0.2827 -0.1545 -0.2056
 5041SOL    HW116022   1.201   1.212   2.028 -1.1490 -1.8242  0.8368
 5041SOL    HW216023   1.082   1.309   2.083 -0.2739 -0.0838 -0.2589
 5042SOL     OW16024   6.818   3.801   1.070  0.2622  0.0269  0.1802
 5042SOL    HW116025   6.817   3.874   1.002  0.3255 -0.6060 -0.5176
 5042SOL    HW216026   6.894   3.816   1.133 -0.1646  0.9505  0.4917
 5043SOL     OW16027   1.286   5.925   0.238  0.4265 -0.2371  0.0278
 5043SOL    HW116028   1.373   5.903   0.194 -0.9008 -0.9471 -2.4087
 5043SOL    HW216029   1.233   5.842   0.252 -0.8450  0.4002 -0.7837
 5044SOL     OW16030   0.044   6.276   0.487 -0.1652  0.6325  0.0277
 5044SOL    HW116031   0.062   6.256   0.390 -0.3065 -0.7570  0.2591
 5044SOL    HW216032   0.098   6.214   0.544 -1.7456 -0.1241  0.7936
 5045SOL     OW16033   4.499   0.098   0.557 -0.6684 -0.0595 -0.3113
 5045SOL    HW116034   4.550   0.012   0.557 -0.5348 -0.0237  1.4147
 5045SOL    HW216035   4.563   0.175   0.551 -0.6279 -0.0512  0.1681
 5046SOL     OW16036   3.659   2.882   2.486 -0.6063 -0.0242 -0.6983
 5046SOL    HW116037   3.581   2.916   2.434 -0.4846  2.1967  0.4752
 5046SOL    HW216038   3.632   2.862   2.580  0.4265  1.9313  0.0663
 5047SOL     OW16039   6.938   4.275   1.876  0.2547 -0.1948  0.3320
 5047SOL    HW116040   7.034   4.266   1.851 -0.1340  0.8488 -1.7507
 5047SOL    HW216041   6.931   4.310   1.970  1.8968  0.2021  0.3295
 5048SOL     OW16042   1.370   0.590   3.851 -0.2200 -0.2484 -0.1617
 5048SOL    HW116043   1.453   0.639   3.879  0.3871 -0.4041 -1.5912
 5048SOL    HW216044   1.326   0.550   3.932  0.1800  1.2213  0.8267
 5049SOL     OW16045   4.842   3.000   6.691  0.0746 -0.5620  0.5052
 5049SOL    HW116046   4.868   2.927   6.627 -1.7630 -0.2123 -0.7334
 5049SOL    HW216047   4.795   2.960   6.770 -2.2510 -0.7219 -0.8620
 5050SOL     OW16048   2.287   2.134   1.834 -0.3782 -0.5065  0.0820
 5050SOL    HW116049   2.304   2.039   1.810  1.2000 -0.3684  0.5764
 5050SOL    HW216050   2.355   2.192   1.790 -0.1777  0.1962  1.2852
 5051SOL     OW16051   4.557   3.054   1.504 -0.5137  0.1813 -0.1451
 5051SOL    HW116052   4.510   3.140   1.486  0.3251  0.4352 -1.2139
 5051SOL    HW216053   4.584   3.012   1.418 -0.3814 -0.8573  0.3917
 5052SOL     OW16054   1.761   1.175   0.697 -0.8190 -0.2566 -0.2993
 5052SOL    HW116055   1.664   1.193   0.713 -0.3569  1.9472  0.3674
 5052SOL    HW216056   1.810   1.262   0.692  0.8039 -1.2244 -2.8669
 5053SOL     OW16057   0.495   4.878   2.895  0.2550  0.4188 -0.9359
 5053SOL    HW116058   0.483   4.974   2.867  2.9870  0.5310 -2.0422
 5053SOL    HW216059   0.417   4.824   2.863  0.1228  1.7370 -3.0042
 5054SOL     OW16060   4.640   5.314   4.009  0.5781  0.4650 -0.6484
 5054SOL    HW116061   4.582   5.233   4.004  2.8760 -1.3822  0.3190
 5054SOL    HW216062   4.594   5.385   4.063 -1.8255  0.1696 -2.1753
 5055SOL     OW16063   1.326   4.536   4.377 -0.1830 -0.6214 -0.3868
 5055SOL    HW116064   1.418   4.535   4.336 -0.3292  1.9661 -0.9398
 5055SOL    HW216065   1.258   4.516   4.306 -0.1925 -0.0524 -0.5409
 5056SOL     OW16066   5.181   4.147   0.778  0.2912 -0.0069  0.0554
 5056SOL    HW116067   5.156   4.237   0.812  3.6435  0.5645  1.4561
 5056SOL    HW216068   5.169   4.080   0.851 -0.4785 -0.3881 -0.4078
 5057SOL     OW16069   5.690   5.319   3.143 -0.0641  0.1991  0.1621
 5057SOL    HW116070   5.710   5.226   3.113 -1.6826 -0.1029 -0.0520
 5057SOL    HW216071   5.591   5.332   3.147  0.1290  2.0377 -0.2335
 5058SOL     OW16072   2.953   3.533   4.118  0.1679 -0.6099 -0.8458
 5058SOL    HW116073   2.895   3.509   4.196 -0.7059 -0.7539 -1.5194
 5058SOL    HW216074   2.950   3.633   4.105  0.6633 -0.5407 -0.4301
 5059SOL     OW16075   0.477   3.579   2.511  0.7071  0.5978 -0.0853
 5059SOL    HW116076   0.500   3.506   2.446  1.1077 -0.0334  0.7426
 5059SOL    HW216077   0.443   3.538   2.595 -1.0151  1.4412 -0.3242
 5060SOL     OW16078   1.494   3.419   6.842  0.1421  0.1446 -0.2687
 5060SOL    HW116079   1.568   3.440   6.906  0.6518 -1.7774 -0.1894
 5060SOL    HW216080   1.471   3.502   6.790 -0.1876  1.7194  2.2349
 5061SOL     OW16081   4.271   3.855   6.768 -0.4891 -0.2121 -0.1138
 5061SOL    HW116082   4.308   3.925   6.829 -0.3102  2.2091 -2.7718
 5061SOL    HW216083   4.179   3.830   6.797 -1.0402  2.0744  0.2754
 5062SOL     OW16084   5.296   1.656   2.879 -0.0153  0.1542 -0.2052
 5062SOL    HW116085   5.374   1.624   2.933 -0.4562  0.5097  0.6590
 5062SOL    HW216086   5.230   1.581   2.870 -0.5500  0.4767  0.8950
 5063SOL     OW16087   2.150   5.615   2.889 -0.1769 -0.3131 -0.2563
 5063SOL    HW116088   2.219   5.598   2.820  0.6022  0.6663  0.2556
 5063SOL    HW216089   2.182   5.686   2.952 -2.4115  1.5886 -1.1148
 5064SOL     OW16090   6.499   4.849   0.840  0.8301  0.3044  0.2083
 5064SOL    HW116091   6.507   4.816   0.746  2.2214  1.1996 -0.0045
 5064SOL    HW216092   6.512   4.772   0.903  2.1176  0.0857 -0.3066
 5065SOL     OW16093   3.463   1.840   5.888  0.1167 -0.3409 -0.1723
 5065SOL    HW116094   3.380   1.891   5.866  0.1299  0.3359  1.2259
 5065SOL    HW216095   3.464   1.753   5.838 -0.9844  0.0408 -0.8861
 5066SOL     OW16096   5.264   1.543   1.887  0.1853 -0.6040  0.0913
 5066SOL    HW116097   5.328   1.609   1.926 -0.8550 -0.5140  1.7580
 5066SOL    HW216098   5.205   1.508   1.959  0.4922 -3.1431 -0.8030
 5067SOL     OW16099   4.452   6.875   1.026  0.2542  0.4137  0.3769
 5067SOL    HW116100   4.377   6.846   1.086  1.0630 -0.4940  0.9820
 5067SOL    HW216101   4.414   6.910   0.940 -0.9104  1.4507  1.2758
 5068SOL     OW16102   2.448   4.087   0.758  0.5509  0.4902  0.2376
 5068SOL    HW116103   2.366   4.034   0.735 -0.3757  2.9928 -3.0419
 5068SOL    HW216104   2.433   4.138   0.842 -1.5417  1.1998 -0.5045
 5069SOL     OW16105   1.081   3.589   0.019 -0.6110  0.0555 -0.0530
 5069SOL    HW116106   1.122   3.648   0.088 -1.0223  0.8239 -0.4414
 5069SOL    HW216107   1.051   3.645  -0.058 -3.3382 -0.2763  0.6557
 5070SOL     OW16108   4.929   3.641   4.778  0.1801 -0.5261 -0.2088
 5070SOL    HW116109   4.861   3.627   4.706  0.3345  0.7250 -0.6392
 5070SOL    HW216110   4.884   3.644   4.867 -0.2047 -0.6835 -0.3950
 5071SOL     OW16111   4.153   2.275   4.453  0.1219  0.1958 -0.3240
 5071SOL    HW116112   4.065   2.275   4.406 -1.0913 -0.5067  1.8035
 5071SOL    HW216113   4.204   2.358   4.430 -0.2185 -0.2588 -3.0597
 5072SOL     OW16114   0.690   0.535   1.493  0.2191  0.5181 -0.4500
 5072SOL    HW116115   0.669   0.438   1.497 -1.8626  0.9737  1.3791
 5072SOL    HW216116   0.763   0.557   1.557 -0.3987  0.3949  0.2995
 5073SOL     OW16117   1.219   6.032   3.289 -0.3355  0.7568 -0.5362
 5073SOL    HW116118   1.135   6.069   3.250  0.2513  0.7081 -1.8834
 5073SOL    HW216119   1.298   6.077   3.248  0.3371 -0.4473 -0.6038
 5074SOL     OW16120   4.021   2.802   1.202 -0.5677  0.0848  0.1675
 5074SOL    HW116121   4.113   2.776   1.230 -0.1497  1.2739 -0.0414
 5074SOL    HW216122   3.964   2.817   1.283 -1.3266 -3.0045  0.3233
 5075SOL     OW16123   1.388   2.710   6.837  0.1453 -0.2336 -0.0446
 5075SOL    HW116124   1.435   2.658   6.766 -0.4365  2.0145 -2.1976
 5075SOL    HW216125   1.301   2.745   6.802 -0.3634  0.6411  1.9275
 5076SOL     OW16126   3.842   0.146   6.786 -0.3900  0.2097 -0.3805
 5076SOL    HW116127   3.838   0.123   6.884 -0.8200  0.9921 -0.2037
 5076SOL    HW216128   3.914   0.092   6.742 -0.2543 -0.2205  0.3494
 5077SOL     OW16129   0.429   3.523   6.940  0.1905 -1.0720 -0.0506
 5077SOL    HW116130   0.441   3.622   6.936 -2.0191 -0.7383  0.4475
 5077SOL    HW216131   0.430   3.485   6.847  0.0203 -0.4469 -0.3092
 5078SOL     OW16132   2.165   3.077   5.219 -0.2129 -0.3239 -0.0974
 5078SOL    HW116133   2.240   3.142   5.221 -1.2836  0.9538  1.3053
 5078SOL    HW216134   2.201   2.984   5.209  1.5957  0.2012  1.0354
 5079SOL     OW16135   2.598   2.827   6.244 -0.0209 -0.0792 -0.2643
 5079SOL    HW116136   2.591   2.927   6.239 -1.3627 -0.1893 -1.5233
 5079SOL    HW216137   2.602   2.799   6.339  0.5427  1.1851  0.1101
 5080SOL     OW16138   5.965   0.570   0.095  0.0358 -0.1097 -0.1221
 5080SOL    HW116139   6.010   0.502   0.153 -1.1514 -0.4752  0.3888
 5080SOL    HW216140   5.875   0.592   0.132 -1.0880 -0.9075 -2.2007
 5081SOL     OW16141   3.369   3.900   3.097 -0.5249 -0.0416 -0.1716
 5081SOL    HW116142   3.280   3.921   3.058 -0.1058  1.2778 -0.4471
 5081SOL    HW216143   3.361   3.818   3.155 -2.3940  1.2367  1.5091
 5082SOL     OW16144   4.912   5.356   6.488 -0.0574  0.0681 -0.3421
 5082SOL    HW116145   4.837   5.316   6.541  0.3247 -0.6860 -0.3600
 5082SOL    HW216146   4.970   5.411   6.548 -0.6715  0.7475 -0.3476
 5083SOL     OW16147   4.414   0.328   3.549 -0.4304  0.8452  0.2235
 5083SOL    HW116148   4.325   0.365   3.575 -0.6140  0.6844 -0.1720
 5083SOL    HW216149   4.401   0.247   3.492 -0.0329  0.3103  0.8745
 5084SOL     OW16150   0.567   4.951   4.715 -0.1746 -0.8973  0.2871
 5084SOL    HW116151   0.557   5.033   4.771 -1.7652 -0.4179 -0.6520
 5084SOL    HW216152   0.664   4.928   4.707  0.1883 -0.1468  2.0125
 5085SOL     OW16153   4.095   0.852   5.230 -0.0283 -0.2978  0.8253
 5085SOL    HW116154   4.025   0.920   5.252 -0.1429  0.3765 -1.3352
 5085SOL    HW216155   4.092   0.778   5.297 -1.7916  0.4530  1.6465
 5086SOL     OW16156   0.430   6.496   3.846 -0.1679 -0.1196  0.2490
 5086SOL    HW116157   0.362   6.535   3.907  3.3209  0.7656  4.0263
 5086SOL    HW216158   0.421   6.396   3.845 -1.8025  0.0153  0.2166
 5087SOL     OW16159   0.953   6.438   2.763  0.0168 -0.2575  0.4159
 5087SOL    HW116160   0.912   6.412   2.851 -0.7855 -2.1005 -0.4312
 5087SOL    HW216161   0.938   6.535   2.746 -3.3904 -0.6492  0.5477
 5088SOL     OW16162   6.092   2.310   4.696  0.4235  0.7445  0.4410
 5088SOL    HW116163   6.100   2.373   4.774  1.9661  1.6214 -0.3702
 5088SOL    HW216164   6.111   2.360   4.611  0.8393 -0.6382 -0.3054
 5089SOL     OW16165   6.640   2.761   4.988  0.0514  0.6609  0.3618
 5089SOL    HW116166   6.554   2.808   4.970 -0.8704 -0.0753  2.4840
 5089SOL    HW216167   6.626   2.693   5.061  2.5769  1.0123  1.2704
 5090SOL     OW16168   1.694   3.572   1.908  0.6768 -0.1190  0.2334
 5090SOL    HW116169   1.732   3.482   1.885  0.8594 -0.1517  0.6589
 5090SOL    HW216170   1.735   3.642   1.850  1.6170 -0.1120  0.8835
 5091SOL     OW16171   1.087   5.954   4.650 -0.5834  0.0597  0.0139
 5091SOL    HW116172   1.047   5.885   4.591 -1.0025 -0.5882  1.0333
 5091SOL    HW216173   1.058   6.045   4.619 -0.0278 -0.1949 -1.3309
 5092SOL     OW16174   4.960   1.692   0.971 -0.3967  0.3743  0.2183
 5092SOL    HW116175   5.012   1.667   1.053 -0.8602  0.7110  0.6144
 5092SOL    HW216176   4.921   1.609   0.931  0.6116  0.0814 -0.2122
 5093SOL     OW16177   2.355   1.245   1.758  0.5888  0.0922  0.0547
 5093SOL    HW116178   2.399   1.328   1.724 -0.6750  0.5092 -0.6479
 5093SOL    HW216179   2.260   1.243   1.727  0.9051 -2.2157 -0.9739
 5094SOL     OW16180   0.274   5.174   4.799 -0.2816 -0.8552  0.1366
 5094SOL    HW116181   0.195   5.189   4.858  0.4591 -2.3263  1.6031
 5094SOL    HW216182   0.290   5.076   4.789  1.4882 -0.5995  0.1068
 5095SOL     OW16183   1.746   2.416   4.918 -0.4517  0.0909  0.2829
 5095SOL    HW116184   1.647   2.422   4.906 -0.6043  0.3599  1.4958
 5095SOL    HW216185   1.775   2.320   4.912 -0.7423  0.0370 -0.3204
 5096SOL     OW16186   3.261   2.045   0.072  0.2332 -0.0536  0.3200
 5096SOL    HW116187   3.212   1.966   0.035 -0.6276  0.0957  1.1132
 5096SOL    HW216188   3.225   2.067   0.162  0.9726  0.7989  0.4187
 5097SOL     OW16189   3.278   6.372   6.429  0.2546  0.1220 -0.5382
 5097SOL    HW116190   3.269   6.464   6.469 -1.7137 -0.1856 -0.2060
 5097SOL    HW216191   3.241   6.372   6.336 -0.3871 -0.4778 -0.2915
 5098SOL     OW16192   1.212   1.238   1.068  0.2798  0.1008  0.1146
 5098SOL    HW116193   1.296   1.292   1.061 -0.1276  0.8744  0.8830
 5098SOL    HW216194   1.204   1.203   1.162  0.7900 -1.7586 -0.4897
 5099SOL     OW16195   1.596   4.049   5.289 -0.2326 -0.2941  0.6744
 5099SOL    HW116196   1.639   4.136   5.312  0.4917 -0.3415 -0.4451
 5099SOL    HW216197   1.518   4.065   5.229  0.4358 -0.4693 -0.2541
 5100SOL     OW16198   6.395   6.988   5.487  0.2389 -0.2138  0.3057
 5100SOL    HW116199   6.304   7.029   5.495  0.4607  0.6251 -1.1230
 5100SOL    HW216200   6.399   6.931   5.405  0.7830 -0.8883  0.7849
 5101SOL     OW16201   3.852   0.686   0.596  0.2130 -0.6720  0.6469
 5101SOL    HW116202   3.910   0.755   0.553 -0.2352 -0.4044  0.4641
 5101SOL    HW216203   3.757   0.718   0.596 -0.1042 -1.5633 -0.0354
 5102SOL     OW16204   6.852   2.209   6.523  0.3471 -0.5771 -0.4306
 5102SOL    HW116205   6.762   2.214   6.480  0.8242  1.3029 -1.3099
 5102SOL    HW216206   6.904   2.134   6.484 -0.5259 -1.1449 -0.5261
 5103SOL     OW16207   5.786   1.855   3.178  0.9893 -0.2182  0.4765
 5103SOL    HW116208   5.774   1.920   3.253  0.5578 -0.1372  0.3423
 5103SOL    HW216209   5.860   1.792   3.200 -0.9008 -1.9966  2.2843
 5104SOL     OW16210   3.709   6.688   2.134  0.1788 -0.2495 -0.1839
 5104SOL    HW116211   3.792   6.721   2.179  0.0290  1.1821 -0.9082
 5104SOL    HW216212   3.690   6.594   2.163  2.8398 -1.1425 -1.0883
 5105SOL     OW16213   2.114   2.957   6.775  0.5810  0.5778  0.0423
 5105SOL    HW116214   2.135   3.050   6.805 -0.1026  0.5569  0.6077
 5105SOL    HW216215   2.151   2.892   6.842  0.8555  0.4493 -0.2326
 5106SOL     OW16216   4.248   6.802   0.561  0.2838 -0.5294 -0.2837
 5106SOL    HW116217   4.280   6.828   0.470  0.2681 -0.2870 -0.2194
 5106SOL    HW216218   4.173   6.736   0.552  0.1604 -0.3663 -0.4499
 5107SOL     OW16219   4.877   6.722   6.874  0.1616 -0.3558 -0.0344
 5107SOL    HW116220   4.807   6.684   6.813  1.2669 -2.7171  0.0662
 5107SOL    HW216221   4.942   6.777   6.820  0.2108 -1.0750 -0.7236
 5108SOL     OW16222   4.090   3.793   3.971  0.4569 -0.5056  0.2163
 5108SOL    HW116223   4.084   3.704   4.018  1.1357 -1.0543 -0.7118
 5108SOL    HW216224   4.113   3.778   3.875 -1.0697  0.5923 -0.3535
 5109SOL     OW16225   1.935   6.253   6.275 -0.3288  0.0162  0.0478
 5109SOL    HW116226   1.958   6.171   6.327 -0.2290 -0.8519 -1.3155
 5109SOL    HW216227   1.850   6.292   6.310  0.0655 -0.1613  1.2579
 5110SOL     OW16228   1.729   6.387   6.356  0.1217  0.1773  0.2536
 5110SOL    HW116229   1.710   6.474   6.311 -1.1908  0.3017  1.0001
 5110SOL    HW216230   1.708   6.394   6.453  2.7471 -0.1303  0.9091
 5111SOL     OW16231   0.932   6.988   6.392 -0.0583 -0.2068 -0.0540
 5111SOL    HW116232   1.023   7.014   6.423  0.0250 -0.1612 -0.3354
 5111SOL    HW216233   0.891   6.924   6.458 -0.3444  0.7789  0.7526
 5112SOL     OW16234   0.431   0.733   3.636 -0.0870  0.0955 -0.6565
 5112SOL    HW116235   0.369   0.790   3.581 -0.9350  0.6902  0.8490
 5112SOL    HW216236   0.522   0.775   3.637 -0.4631  0.9398 -0.3441
 5113SOL     OW16237   1.710   1.204   3.631  0.4458  0.5853  0.0310
 5113SOL    HW116238   1.679   1.150   3.709  0.9599 -0.9872 -0.8079
 5113SOL    HW216239   1.635   1.262   3.599 -0.9467 -1.3999 -0.5045
 5114SOL     OW16240   3.061   2.351   6.146 -0.6687 -0.2134 -0.3240
 5114SOL    HW116241   3.148   2.304   6.129  1.1698  2.3488  1.2286
 5114SOL    HW216242   3.040   2.348   6.244 -1.2861  0.8433 -0.4079
 5115SOL     OW16243   1.808   4.849   4.268 -0.1773  0.4589 -0.4394
 5115SOL    HW116244   1.767   4.940   4.268 -0.0467  0.5218 -1.5382
 5115SOL    HW216245   1.783   4.799   4.185 -0.0230 -0.4114  0.0181
 5116SOL     OW16246   4.859   6.450   0.983  0.4335  0.6219  0.1439
 5116SOL    HW116247   4.916   6.508   1.042  0.6597  0.2176  0.3309
 5116SOL    HW216248   4.864   6.484   0.889  0.7033  0.8027  0.2194
 5117SOL     OW16249   1.261   4.679   3.602 -0.1248 -0.3489  0.2454
 5117SOL    HW116250   1.285   4.612   3.672  0.5172 -0.6302 -0.2352
 5117SOL    HW216251   1.344   4.718   3.563 -0.4042 -1.2509 -1.3592
 5118SOL     OW16252   4.965   6.689   6.136 -0.6230 -0.5820 -0.3039
 5118SOL    HW116253   5.027   6.731   6.203 -0.7059  0.8387 -1.0766
 5118SOL    HW216254   4.997   6.597   6.115  1.2830  0.1097 -0.6977
 5119SOL     OW16255   3.035   1.882   0.014 -0.6563  0.1105 -0.1383
 5119SOL    HW116256   3.048   1.790   0.052 -0.8561  0.7604  1.5755
 5119SOL    HW216257   2.943   1.914   0.033 -0.7617  0.4784 -1.1931
 5120SOL     OW16258   5.930   1.395   3.499  0.3784  0.6276  0.5119
 5120SOL    HW116259   5.935   1.490   3.465  0.6619 -0.1582 -1.8245
 5120SOL    HW216260   5.835   1.366   3.502  0.3961  0.3525 -0.8112
 5121SOL     OW16261   6.697   0.899   0.366 -0.1007  0.2814  0.5445
 5121SOL    HW116262   6.607   0.887   0.326  0.4456 -0.4855 -0.4976
 5121SOL    HW216263   6.694   0.875   0.463 -0.7733 -0.8188  0.2615
 5122SOL     OW16264   2.199   0.943   4.739 -0.3278 -0.0961  0.1108
 5122SOL    HW116265   2.163   1.028   4.777  3.3811  1.0222  1.5837
 5122SOL    HW216266   2.173   0.867   4.798 -3.1421 -0.0152 -0.8731
 5123SOL     OW16267   0.788   3.025   4.851  0.2061 -0.3514  0.1519
 5123SOL    HW116268   0.879   3.030   4.892  0.0316  0.6553  0.4471
 5123SOL    HW216269   0.756   3.118   4.830 -1.3112 -0.5887  1.2891
 5124SOL     OW16270   0.642   3.512   3.202 -0.3851  0.3402  0.5210
 5124SOL    HW116271   0.634   3.492   3.299  0.1020  1.3734  0.7938
 5124SOL    HW216272   0.552   3.539   3.166 -0.4974  0.3016  0.7723
 5125SOL     OW16273   0.349   3.062   4.092 -0.5573  0.0291  0.1758
 5125SOL    HW116274   0.412   3.022   4.159 -1.3468  0.3415  1.1353
 5125SOL    HW216275   0.358   3.014   4.005  0.7471 -0.1612  0.3901
 5126SOL     OW16276   3.957   5.512   0.739 -0.8975 -0.4717  0.2479
 5126SOL    HW116277   3.881   5.567   0.772  0.0822  0.5068  0.9414
 5126SOL    HW216278   4.015   5.568   0.679 -0.5436 -1.1026 -0.0124
 5127SOL     OW16279   0.156   2.457   0.340  0.4070  0.0878  0.2791
 5127SOL    HW116280   0.105   2.539   0.367  0.1418 -0.2610  0.8536
 5127SOL    HW216281   0.094   2.379   0.337  0.9358 -0.3829  1.1642
 5128SOL     OW16282   0.748   0.534   5.910  0.4738  0.0821  0.0669
 5128SOL    HW116283   0.741   0.623   5.956 -0.8086  0.1560 -0.2466
 5128SOL    HW216284   0.839   0.495   5.928  1.5943  2.0624 -0.9308
 5129SOL     OW16285   6.822   6.144   1.789 -0.1238 -0.4144  0.5009
 5129SOL    HW116286   6.914   6.107   1.798 -0.3729 -0.9372  1.0091
 5129SOL    HW216287   6.763   6.076   1.746  0.0644  0.4878 -1.2384
 5130SOL     OW16288   2.460   5.776   1.557 -0.1160 -0.3623  0.4275
 5130SOL    HW116289   2.471   5.835   1.477  0.3648  0.4826  1.1047
 5130SOL    HW216290   2.536   5.790   1.620  0.1061 -1.8423  0.5338
 5131SOL     OW16291   3.981   5.237   1.828  0.6463 -0.4422  0.2732
 5131SOL    HW116292   4.034   5.204   1.906  0.5457  0.7243  0.8495
 5131SOL    HW216293   4.040   5.290   1.768  0.2948  0.2745  0.5554
 5132SOL     OW16294   2.887   1.550   5.647 -0.7754 -0.1953  0.3467
 5132SOL    HW116295   2.878   1.480   5.718 -0.1059 -1.7797 -1.0412
 5132SOL    HW216296   2.802   1.554   5.594 -0.6485 -0.3002  0.1333
 5133SOL     OW16297   1.549   4.895   5.481  0.1582  0.1756  0.2185
 5133SOL    HW116298   1.573   4.992   5.482  2.4699 -0.3487  0.0721
 5133SOL    HW216299   1.614   4.844   5.537 -1.5936 -1.2094  1.1034
 5134SOL     OW16300   0.509   0.439   1.073 -0.1335 -0.5912  0.5254
 5134SOL    HW116301   0.452   0.496   1.132  1.9542  1.4843  0.7064
 5134SOL    HW216302   0.605   0.452   1.098  0.7303 -0.7678 -2.3926
 5135SOL     OW16303   6.695   2.918   5.253  0.4155  0.2734  0.2521
 5135SOL    HW116304   6.666   2.887   5.163 -0.1952  1.6169 -0.0409
 5135SOL    HW216305   6.620   2.907   5.318  0.5474  0.1557  0.3851
 5136SOL     OW16306   5.512   1.232   4.550 -0.0289 -0.0635 -0.0053
 5136SOL    HW116307   5.553   1.284   4.475 -3.5881  0.2826 -1.9285
 5136SOL    HW216308   5.545   1.138   4.548  2.0077  0.6088 -0.1914
 5137SOL     OW16309   6.532   2.153   4.772 -0.1213  0.4728 -0.1430
 5137SOL    HW116310   6.440   2.119   4.789  0.2347 -0.3957  0.1093
 5137SOL    HW216311   6.542   2.173   4.674  0.3019 -2.2695 -0.7424
 5138SOL     OW16312   3.656   3.013   3.064 -0.0086  0.1211 -0.1804
 5138SOL    HW116313   3.610   2.939   3.111  0.3974  0.3645  0.6148
 5138SOL    HW216314   3.666   3.092   3.125  0.9722  0.2674 -0.4982
 5139SOL     OW16315   1.225   5.050   6.514  0.1020 -0.4529  0.0586
 5139SOL    HW116316   1.199   5.084   6.423  1.1103 -1.8074 -0.7884
 5139SOL    HW216317   1.149   4.997   6.553  0.5947 -2.2425 -1.2742
 5140SOL     OW16318   1.958   1.728   6.617  0.0070 -0.0769  0.8757
 5140SOL    HW116319   1.919   1.819   6.634  0.2240  0.0197  0.8520
 5140SOL    HW216320   1.884   1.665   6.592 -0.0705  0.2212  0.3537
 5141SOL     OW16321   6.866   3.555   0.891  0.3263 -0.4205 -0.3133
 5141SOL    HW116322   6.866   3.644   0.937  1.1437 -0.6718  0.1949
 5141SOL    HW216323   6.826   3.486   0.951 -0.6683 -0.3407 -0.8546
 5142SOL     OW16324   6.152   5.274   3.234  0.0004 -0.3653 -0.1382
 5142SOL    HW116325   6.219   5.200   3.225 -0.5312 -0.9634  0.6513
 5142SOL    HW216326   6.120   5.279   3.328 -2.5734 -1.4778 -0.8593
 5143SOL     OW16327   0.148   4.318   4.970  0.3983 -0.2420 -0.4468
 5143SOL    HW116328   0.222   4.253   4.991 -0.6860 -2.1233 -2.0840
 5143SOL    HW216329   0.060   4.278   4.997 -0.2156  1.0304 -0.5072
 5144SOL     OW16330   3.199   4.941   0.261  0.1873  0.6954 -0.3838
 5144SOL    HW116331   3.171   4.845   0.269  0.7311  0.4422 -1.3133
 5144SOL    HW216332   3.297   4.949   0.278  0.5392  0.7628 -2.1780
 5145SOL     OW16333   5.675   5.728   0.062 -0.3451  0.4595  0.0359
 5145SOL    HW116334   5.659   5.652   0.124  4.5578  0.5405  1.8407
 5145SOL    HW216335   5.667   5.697  -0.033 -1.2783 -1.5106  0.7215
 5146SOL     OW16336   3.605   4.759   5.516  0.0992 -0.2226 -0.2356
 5146SOL    HW116337   3.622   4.824   5.443  1.9667 -0.3468  0.0356
 5146SOL    HW216338   3.539   4.690   5.485 -0.4326  0.6897 -1.1826
 5147SOL     OW16339   4.482   5.383   4.575 -0.2816  0.0493 -0.3204
 5147SOL    HW116340   4.536   5.464   4.597 -2.7614  1.4617  1.0053
 5147SOL    HW216341   4.520   5.303   4.623 -0.6868  1.4639  2.5595
 5148SOL     OW16342   0.453   0.514   2.612  0.2597  0.2668 -0.4239
 5148SOL    HW116343   0.498   0.596   2.646 -1.3681  0.4845  1.4565
 5148SOL    HW216344   0.386   0.539   2.542 -0.3765  0.6116  0.2884
 5149SOL     OW16345   0.232   5.816   4.850 -0.3746  0.1512  0.0662
 5149SOL    HW116346   0.182   5.789   4.768 -0.3145 -1.3848  0.4885
 5149SOL    HW216347   0.168   5.829   4.926 -0.3456  0.6106  0.0138
 5150SOL     OW16348   2.431   4.375   3.257 -0.9107  0.1397  0.2482
 5150SOL    HW116349   2.443   4.436   3.335 -1.1228 -0.2364  0.5791
 5150SOL    HW216350   2.509   4.312   3.252 -0.9989  0.0281  0.2813
 5151SOL     OW16351   1.036   4.230   2.965  0.0013  0.1979 -0.2327
 5151SOL    HW116352   1.103   4.245   3.038 -1.3493 -0.8316  1.2676
 5151SOL    HW216353   1.025   4.131   2.950 -1.6602  0.3196  0.0320
 5152SOL     OW16354   1.090   6.655   6.792 -0.1067 -0.2738 -0.1445
 5152SOL    HW116355   1.057   6.679   6.883 -0.9569 -0.5759 -0.3627
 5152SOL    HW216356   1.190   6.651   6.793 -0.1176 -0.6365  0.8683
 5153SOL     OW16357   0.112   2.156   2.427  0.4868 -0.3452 -0.1480
 5153SOL    HW116358   0.134   2.225   2.496 -1.5793 -0.2416  0.4871
 5153SOL    HW216359   0.111   2.066   2.470 -2.2992 -0.1286  0.4180
 5154SOL     OW16360   6.731   3.883   5.785 -0.1567 -0.3850  0.0094
 5154SOL    HW116361   6.764   3.895   5.879 -2.1112  1.7541  0.5051
 5154SOL    HW216362   6.793   3.932   5.722  0.2891 -0.4980  0.3546
 5155SOL     OW16363   4.873   0.201   1.584  0.2869  0.4545 -0.3029
 5155SOL    HW116364   4.881   0.267   1.509  1.2179 -0.2776 -0.8791
 5155SOL    HW216365   4.786   0.214   1.632  0.6999  2.4665 -0.0280
 5156SOL     OW16366   6.071   4.122   4.706 -0.0761 -0.0409  0.4078
 5156SOL    HW116367   6.061   4.175   4.790  0.4002  0.8130 -0.0630
 5156SOL    HW216368   6.001   4.149   4.640  0.0533 -0.1304  0.2310
 5157SOL     OW16369   4.217   1.766   2.264  0.7853 -0.2727  0.3122
 5157SOL    HW116370   4.268   1.852   2.265 -0.1735  0.3066  0.7590
 5157SOL    HW216371   4.119   1.785   2.268  0.5224 -1.3696 -0.5628
 5158SOL     OW16372   4.473   1.347   6.670 -1.0386 -0.1881  0.1113
 5158SOL    HW116373   4.483   1.373   6.766  1.9207 -0.5370 -0.0149
 5158SOL    HW216374   4.476   1.247   6.662 -0.6953 -0.1444 -0.3716
 5159SOL     OW16375   6.942   4.017   6.303  0.0038  0.4051 -0.4619
 5159SOL    HW116376   6.988   4.092   6.256  2.7059 -0.2578  0.9442
 5159SOL    HW216377   6.859   3.992   6.252  0.9981  1.8646 -3.0037
 5160SOL     OW16378   0.981   6.008   1.472 -0.2475 -0.3681 -0.2810
 5160SOL    HW116379   0.947   6.070   1.402  0.3752 -1.2500 -1.4057
 5160SOL    HW216380   0.904   5.966   1.520 -0.6740  1.1560  0.4146
 5161SOL     OW16381   1.389   3.229   0.877 -0.2047  0.9146 -0.5094
 5161SOL    HW116382   1.446   3.187   0.806  0.4146 -2.3257  1.7253
 5161SOL    HW216383   1.293   3.202   0.864  0.2744 -2.0397  1.2826
 5162SOL     OW16384   0.331   3.708   2.115  0.4459 -0.1389 -0.2260
 5162SOL    HW116385   0.420   3.680   2.079 -0.3244  0.7548 -3.0233
 5162SOL    HW216386   0.319   3.806   2.102 -0.9642 -0.2449  0.1495
 5163SOL     OW16387   3.819   5.485   0.152  0.4092 -0.2748  0.3417
 5163SOL    HW116388   3.853   5.404   0.104 -0.0855 -0.6224  0.5699
 5163SOL    HW216389   3.721   5.494   0.136  0.3854  0.0440  0.6631
 5164SOL     OW16390   3.401   4.775   6.818  0.0998 -0.1497  0.1525
 5164SOL    HW116391   3.441   4.780   6.910 -2.3462  0.2879  1.2799
 5164SOL    HW216392   3.354   4.861   6.797 -1.8575 -1.2351 -0.2316
 5165SOL     OW16393   0.868   3.099   3.182  0.6595 -0.1929  0.3410
 5165SOL    HW116394   0.892   3.157   3.104  0.3768 -0.6801 -0.1217
 5165SOL    HW216395   0.858   3.155   3.264 -0.2061  0.4972 -0.2165
 5166SOL     OW16396   1.114   3.647   2.051 -0.3737 -0.3974 -0.4251
 5166SOL    HW116397   1.174   3.715   2.092  0.0201 -0.2000 -1.2965
 5166SOL    HW216398   1.139   3.635   1.955 -3.7585  2.1236 -1.8290
 5167SOL     OW16399   6.138   4.729   4.660 -0.0288 -0.3953  0.3738
 5167SOL    HW116400   6.151   4.637   4.696  0.1845  0.5293  2.8632
 5167SOL    HW216401   6.167   4.733   4.564  1.8057 -2.4191  0.7914
 5168SOL     OW16402   5.166   1.972   1.943 -0.3208  0.2944  0.3539
 5168SOL    HW116403   5.243   1.936   1.890  0.3754 -2.0979  2.7707
 5168SOL    HW216404   5.199   2.040   2.008 -0.8290  1.5854 -0.6779
 5169SOL     OW16405   4.446   0.378   2.969 -0.7944 -0.2563 -0.2696
 5169SOL    HW116406   4.477   0.366   3.064 -0.0042 -0.0067 -0.4868
 5169SOL    HW216407   4.524   0.366   2.907 -1.5317 -1.5674 -0.9676
 5170SOL     OW16408   2.483   1.988   5.106 -0.1792 -0.1536  0.1191
 5170SOL    HW116409   2.495   1.908   5.166 -2.4348  0.6642  1.8170
 5170SOL    HW216410   2.537   2.064   5.142  0.6142 -0.4106 -0.5042
 5171SOL     OW16411   5.203   4.436   4.580  0.2346 -0.5641  0.0007
 5171SOL    HW116412   5.269   4.482   4.638 -0.0866  0.0648 -0.1196
 5171SOL    HW216413   5.116   4.428   4.628 -0.1808  0.4114 -0.5633
 5172SOL     OW16414   0.473   4.309   3.495 -0.0057  0.4239  0.2128
 5172SOL    HW116415   0.562   4.321   3.539  0.9323  0.8083 -1.7131
 5172SOL    HW216416   0.401   4.332   3.561  1.3520  2.0401  1.2270
 5173SOL     OW16417   3.879   3.827   5.277 -0.1448 -0.0007 -0.0803
 5173SOL    HW116418   3.929   3.908   5.244 -0.6470 -0.2211 -1.4555
 5173SOL    HW216419   3.796   3.856   5.324  0.0382  0.2974  0.0657
 5174SOL     OW16420   1.841   6.020   4.413 -0.4929  0.3963 -0.1265
 5174SOL    HW116421   1.772   6.010   4.341 -0.8551  0.2550  0.2423
 5174SOL    HW216422   1.810   5.976   4.497  0.5035 -0.6274 -0.2648
 5175SOL     OW16423   1.584   4.389   1.009 -0.4504  0.1716  0.3244
 5175SOL    HW116424   1.527   4.306   1.002  1.5016 -1.2800  0.6908
 5175SOL    HW216425   1.535   4.467   0.971 -1.6686 -1.5104 -1.7519
 5176SOL     OW16426   6.051   5.333   6.713 -0.4371  0.0669 -0.1130
 5176SOL    HW116427   6.025   5.239   6.688 -0.5365  0.3244 -0.9941
 5176SOL    HW216428   5.989   5.398   6.668 -0.2529  0.5712  0.3462
 5177SOL     OW16429   6.087   0.202   6.921 -0.5539 -0.0031  0.2060
 5177SOL    HW116430   6.157   0.243   6.980 -0.5165  0.6112 -0.2611
 5177SOL    HW216431   6.070   0.108   6.951  0.3007 -0.0840  0.4662
 5178SOL     OW16432   2.108   3.199   0.410 -0.3899  0.0314 -0.3891
 5178SOL    HW116433   2.059   3.273   0.365  0.2872  0.7085 -0.0250
 5178SOL    HW216434   2.120   3.220   0.507  1.2867  0.2562 -0.6130
 5179SOL     OW16435   5.014   3.735   5.062  0.4614 -0.0912 -0.2740
 5179SOL    HW116436   4.940   3.669   5.051  1.3898 -1.5263  1.5263
 5179SOL    HW216437   5.052   3.728   5.154  3.1557  0.2361 -1.2606
 5180SOL     OW16438   3.313   1.153   1.189 -0.2934  0.4361  0.1823
 5180SOL    HW116439   3.239   1.088   1.172  1.0633 -2.0920  3.1944
 5180SOL    HW216440   3.294   1.204   1.273  1.3019 -0.2429  0.9905
 5181SOL     OW16441   0.065   6.613   1.499  0.1773  0.1998  0.1319
 5181SOL    HW116442   0.079   6.682   1.428 -1.3531  0.8884  0.4608
 5181SOL    HW216443   0.151   6.598   1.548  0.8069  1.0477 -0.6673
 5182SOL     OW16444   4.698   3.456   0.952 -0.4316  0.4401 -0.2480
 5182SOL    HW116445   4.731   3.527   0.889  1.4322  1.2845  1.5614
 5182SOL    HW216446   4.622   3.407   0.910  1.6449 -0.0841 -3.7875
 5183SOL     OW16447   4.123   1.870   2.675 -0.2295 -0.3197 -0.3580
 5183SOL    HW116448   4.107   1.945   2.611 -0.7612 -0.0013  0.1361
 5183SOL    HW216449   4.211   1.827   2.656  0.4211  0.9115 -0.1734
 5184SOL     OW16450   2.630   2.100   5.577  0.1933  0.1936 -0.0228
 5184SOL    HW116451   2.562   2.170   5.553  1.0089  0.8528 -0.4796
 5184SOL    HW216452   2.702   2.142   5.632  0.4840 -0.3910  0.0462
 5185SOL     OW16453   4.778   6.818   0.943  0.1757 -0.1031  0.1416
 5185SOL    HW116454   4.753   6.723   0.927  0.0613  0.0118 -0.3693
 5185SOL    HW216455   4.876   6.830   0.928  0.0718  0.0019 -0.4961
 5186SOL     OW16456   6.814   2.458   6.337 -0.1143  0.3031 -0.3367
 5186SOL    HW116457   6.821   2.370   6.291 -1.2666 -0.0921  0.1989
 5186SOL    HW216458   6.831   2.445   6.435  0.7453  0.8613 -0.4062
 5187SOL     OW16459   1.703   4.932   6.315 -0.5440 -0.8210 -0.3959
 5187SOL    HW116460   1.739   4.915   6.223  0.7541 -0.3358 -0.0024
 5187SOL    HW216461   1.772   4.980   6.369 -1.0397 -1.6810  1.0450
 5188SOL     OW16462   6.811   4.049   1.852 -0.0517  0.0866  0.0352
 5188SOL    HW116463   6.867   4.129   1.877 -1.0939  0.6782  0.5243
 5188SOL    HW216464   6.806   3.986   1.929  0.6357 -0.3867 -0.2967
 5189SOL     OW16465   6.301   0.872   0.125  0.3451  0.4274 -0.0469
 5189SOL    HW116466   6.201   0.880   0.119  0.3548 -0.1816 -1.3991
 5189SOL    HW216467   6.327   0.855   0.219 -0.7786  1.1783  0.4257
 5190SOL     OW16468   0.568   3.949   1.825 -0.3196 -0.2103  0.1203
 5190SOL    HW116469   0.543   3.938   1.921 -0.8859  1.2994  0.1711
 5190SOL    HW216470   0.667   3.954   1.816 -0.2903  0.4679  0.7407
 5191SOL     OW16471   5.146   5.097   2.128 -0.4430 -0.0333 -0.2397
 5191SOL    HW116472   5.219   5.028   2.136 -1.4170 -1.0319  0.4035
 5191SOL    HW216473   5.098   5.085   2.042 -0.5476 -0.0889 -0.1734
 5192SOL     OW16474   1.688   5.544   1.249 -0.3005 -0.1011 -0.5304
 5192SOL    HW116475   1.708   5.638   1.279  1.4893 -0.0175 -1.8395
 5192SOL    HW216476   1.613   5.546   1.183  1.9968  0.9798 -3.3323
 5193SOL     OW16477   5.802   6.372   5.213 -0.1941  0.2457  0.7483
 5193SOL    HW116478   5.794   6.445   5.281 -0.9321  0.7510  0.1323
 5193SOL    HW216479   5.775   6.406   5.123 -0.0092 -0.6346  0.3442
 5194SOL     OW16480   2.740   1.587   6.731  0.4086  0.2259 -0.2854
 5194SOL    HW116481   2.785   1.610   6.645  0.4584  0.1922 -0.2686
 5194SOL    HW216482   2.698   1.670   6.770  1.2661  0.4558  0.1727
 5195SOL     OW16483   1.990   2.838   4.137  0.0879  0.4013 -0.1958
 5195SOL    HW116484   2.003   2.758   4.196  1.2043  1.0749  0.5068
 5195SOL    HW216485   1.892   2.853   4.123 -0.1352 -1.2657 -0.6102
 5196SOL     OW16486   2.778   6.732   2.226 -0.2005  0.1155  0.1226
 5196SOL    HW116487   2.684   6.731   2.191 -0.2286  1.2615  0.1143
 5196SOL    HW216488   2.839   6.772   2.157  0.0920  0.4764  0.5839
 5197SOL     OW16489   1.050   4.660   6.606 -0.4017  0.5314  0.3095
 5197SOL    HW116490   1.020   4.726   6.676 -0.5243  1.1905 -0.3554
 5197SOL    HW216491   1.073   4.574   6.651  0.7841  1.3361  1.3369
 5198SOL     OW16492   0.307   5.363   0.995  0.3530 -0.2420 -0.6956
 5198SOL    HW116493   0.278   5.288   1.054  1.3367  0.7357  1.1494
 5198SOL    HW216494   0.389   5.336   0.944  2.0302  0.1849  1.6013
 5199SOL     OW16495   1.074   3.338   1.085  0.4190  0.4859 -0.1929
 5199SOL    HW116496   1.009   3.364   1.156 -1.8417 -0.2316 -1.9137
 5199SOL    HW216497   1.118   3.421   1.049 -1.8685  1.3754 -1.1090
 5200SOL     OW16498   0.442   3.883   4.613 -0.3775 -0.1372 -0.3802
 5200SOL    HW116499   0.526   3.851   4.568  0.5838 -0.6571  1.6555
 5200SOL    HW216500   0.363   3.835   4.575  0.1937  0.4543 -2.4249
 5201SOL     OW16501   1.397   5.824   3.121  0.0744 -0.5676  0.4739
 5201SOL    HW116502   1.439   5.892   3.061 -0.9757 -0.3751 -0.0556
 5201SOL    HW216503   1.417   5.847   3.216  1.2680 -0.5540  0.2358
 5202SOL     OW16504   5.232   2.370   5.652  0.4655 -0.2815 -0.4097
 5202SOL    HW116505   5.215   2.395   5.557 -0.0944 -0.3089 -0.3221
 5202SOL    HW216506   5.236   2.271   5.661  2.4060 -0.2657 -0.7096
 5203SOL     OW16507   0.442   0.925   5.573  0.5955  0.5970  0.3239
 5203SOL    HW116508   0.370   0.876   5.524 -0.8481  3.4874 -0.6626
 5203SOL    HW216509   0.413   0.940   5.668  0.5216  0.6063  0.2994
 5204SOL     OW16510   3.772   3.557   0.571  0.3670 -0.0560 -0.4427
 5204SOL    HW116511   3.674   3.578   0.565  0.3467 -0.1461 -0.4229
 5204SOL    HW216512   3.821   3.613   0.504  0.4028  0.6257  0.1382
 5205SOL     OW16513   1.980   6.830   0.762 -0.2155 -0.1609  0.3575
 5205SOL    HW116514   2.064   6.777   0.778  0.3287  0.4798 -0.3256
 5205SOL    HW216515   2.004   6.925   0.742 -1.2414  0.7960  3.2093
 5206SOL     OW16516   0.295   4.886   6.165  0.1637 -0.3254  0.3845
 5206SOL    HW116517   0.296   4.978   6.127  1.7698 -0.4882 -0.0269
 5206SOL    HW216518   0.211   4.873   6.217 -2.2022 -0.1159 -3.0746
 5207SOL     OW16519   0.454   5.180   3.923  0.1205 -0.7768 -0.3282
 5207SOL    HW116520   0.523   5.233   3.973 -1.4050  1.3807 -0.3649
 5207SOL    HW216521   0.377   5.162   3.983 -0.6050 -0.4607 -1.1459
 5208SOL     OW16522   3.458   0.798   2.197  0.8612  0.2313  0.6346
 5208SOL    HW116523   3.421   0.772   2.287  2.3635  0.0296  1.2144
 5208SOL    HW216524   3.507   0.720   2.158  1.1578  0.6637  0.1386
 5209SOL     OW16525   5.559   5.460   4.905  0.6698 -0.1388  0.1561
 5209SOL    HW116526   5.550   5.448   5.004  1.7160 -2.0311  0.0641
 5209SOL    HW216527   5.565   5.558   4.884  1.4087  0.2699  2.0583
 5210SOL     OW16528   4.587   2.076   4.683 -0.5175 -0.2189  0.0415
 5210SOL    HW116529   4.625   2.164   4.710 -2.6237  0.6420  0.3717
 5210SOL    HW216530   4.584   2.070   4.583 -1.9548  0.8454 -0.0017
 5211SOL     OW16531   4.859   2.505   6.105 -0.6331 -0.2589  0.2609
 5211SOL    HW116532   4.866   2.524   6.007 -1.9312 -0.5243  0.0920
 5211SOL    HW216533   4.924   2.432   6.130  0.3500  0.4417 -0.2015
 5212SOL     OW16534   6.661   3.061   1.011  0.1848 -0.0278 -0.3781
 5212SOL    HW116535   6.691   3.122   1.084  0.9150  0.0700 -0.7524
 5212SOL    HW216536   6.562   3.048   1.017  0.4056 -1.2402  1.5648
 5213SOL     OW16537   5.635   4.997   0.087  0.1399 -0.4328  0.6144
 5213SOL    HW116538   5.643   5.072   0.152 -1.8757  0.0172  0.4359
 5213SOL    HW216539   5.684   5.020   0.003  0.8006  0.0147  1.1160
 5214SOL     OW16540   5.815   6.880   6.852 -0.4524  0.5513 -0.4416
 5214SOL    HW116541   5.872   6.897   6.771 -0.4816 -1.6156 -0.9919
 5214SOL    HW216542   5.719   6.872   6.823 -0.3407 -1.3216 -0.4241
 5215SOL     OW16543   5.174   4.805   2.589 -0.3884 -0.1503 -0.2922
 5215SOL    HW116544   5.270   4.793   2.614 -0.5631 -0.0511  0.4536
 5215SOL    HW216545   5.158   4.899   2.559  0.2727 -0.7964 -2.9080
 5216SOL     OW16546   2.912   4.637   0.821 -0.2163  0.5752  0.5489
 5216SOL    HW116547   2.820   4.674   0.805 -1.5434 -2.6801 -0.0394
 5216SOL    HW216548   2.922   4.614   0.918 -0.3596  0.0933  0.4492
 5217SOL     OW16549   5.172   5.251   3.246 -0.1202  0.4187  0.4691
 5217SOL    HW116550   5.105   5.183   3.276 -0.5621  1.4376  1.8785
 5217SOL    HW216551   5.129   5.340   3.238 -0.2810  0.1479 -4.2553
 5218SOL     OW16552   0.740   6.307   3.921 -0.1316  0.2608 -0.4224
 5218SOL    HW116553   0.675   6.312   3.997  0.5026  0.8439  0.0989
 5218SOL    HW216554   0.694   6.272   3.840 -0.9771  0.2201  0.0648
 5219SOL     OW16555   3.718   1.178   6.938  0.0415  0.7255 -0.1236
 5219SOL    HW116556   3.768   1.256   6.901 -0.7379  0.9347 -0.7737
 5219SOL    HW216557   3.781   1.102   6.953  0.2913  0.2984 -2.8300
 5220SOL     OW16558   0.988   6.750   0.672  0.0192  0.1342  0.6157
 5220SOL    HW116559   0.912   6.686   0.665 -1.0158  1.3531  0.3885
 5220SOL    HW216560   0.981   6.820   0.600  1.6624 -0.0304  0.2438
 5221SOL     OW16561   5.328   2.075   4.035 -0.3183  0.9647  0.2952
 5221SOL    HW116562   5.272   2.150   4.069 -0.4566  0.3564  1.4270
 5221SOL    HW216563   5.408   2.112   3.988 -1.8559  1.8740 -1.8238
 5222SOL     OW16564   1.875   5.407   3.796  0.0270 -0.8390  0.3217
 5222SOL    HW116565   1.847   5.396   3.891 -0.2722 -2.9913  0.0345
 5222SOL    HW216566   1.926   5.327   3.766  1.1981  0.3240 -1.0026
 5223SOL     OW16567   6.425   1.681   1.459 -0.2214 -0.5586  0.2712
 5223SOL    HW116568   6.326   1.695   1.464 -0.1169  0.0466  0.7134
 5223SOL    HW216569   6.449   1.646   1.368 -0.9349 -1.5282  0.4407
 5224SOL     OW16570   5.866   0.357   3.996  0.0424 -0.0689  0.0597
 5224SOL    HW116571   5.930   0.402   4.058  0.4077 -0.5500  0.0418
 5224SOL    HW216572   5.802   0.424   3.959 -0.2665  0.2033  1.0637
 5225SOL     OW16573   5.646   1.038   3.507 -0.0521  0.2951 -0.2710
 5225SOL    HW116574   5.599   1.107   3.453  0.1381 -0.2481 -1.1429
 5225SOL    HW216575   5.667   0.959   3.450 -0.6498 -0.6715  0.8068
 5226SOL     OW16576   6.741   6.383   4.096 -0.3052 -0.6408  0.1855
 5226SOL    HW116577   6.738   6.408   4.193 -1.9256  0.2975 -0.0712
 5226SOL    HW216578   6.662   6.422   4.049  1.6163  0.8685 -2.0005
 5227SOL     OW16579   0.757   6.610   3.111  0.0048 -0.7083 -0.0585
 5227SOL    HW116580   0.708   6.623   3.025 -1.1831 -0.8959  0.5704
 5227SOL    HW216581   0.730   6.522   3.152  1.6487 -1.3101 -0.1893
 5228SOL     OW16582   5.986   1.258   0.795 -0.6008  0.3003 -0.4544
 5228SOL    HW116583   5.977   1.273   0.697  0.9039 -0.4878 -0.7433
 5228SOL    HW216584   6.078   1.225   0.816 -0.7269  0.9243  1.2935
 5229SOL     OW16585   0.702   4.151   1.033  0.5670  0.9379  0.0187
 5229SOL    HW116586   0.687   4.068   0.980  1.0681  0.5223  0.5162
 5229SOL    HW216587   0.788   4.143   1.084  1.3079  2.2886 -0.9505
 5230SOL     OW16588   0.957   6.417   3.656  0.6482  0.6907  0.5142
 5230SOL    HW116589   0.902   6.363   3.719 -0.3780  3.0625  1.7821
 5230SOL    HW216590   1.050   6.381   3.654  0.4078 -0.1414  2.5081
 5231SOL     OW16591   4.180   3.536   4.437 -0.5621  0.7538 -0.3005
 5231SOL    HW116592   4.277   3.528   4.457 -0.3430  2.1665 -0.6775
 5231SOL    HW216593   4.139   3.605   4.496 -1.5479 -0.4664  0.4821
 5232SOL     OW16594   4.835   2.898   4.967  0.4648 -0.0862  0.5049
 5232SOL    HW116595   4.793   2.813   4.936  0.8804  0.1850 -0.8760
 5232SOL    HW216596   4.764   2.966   4.985  0.2125 -0.1253 -0.2814
 5233SOL     OW16597   6.171   0.982   3.752 -0.1307 -0.3760 -0.3180
 5233SOL    HW116598   6.093   0.980   3.690 -0.8756 -0.3157  0.6105
 5233SOL    HW216599   6.185   1.075   3.786  0.8190 -0.2285 -1.0498
 5234SOL     OW16600   3.146   0.453   5.116  0.5596  0.0777  0.4518
 5234SOL    HW116601   3.066   0.440   5.173  0.2570 -1.2781 -0.2409
 5234SOL    HW216602   3.228   0.455   5.173  0.3334 -1.9399  0.9285
 5235SOL     OW16603   1.138   4.658   1.672 -0.1610 -0.0804  0.2436
 5235SOL    HW116604   1.169   4.727   1.606  2.9231 -1.0787  0.4693
 5235SOL    HW216605   1.202   4.581   1.671 -1.7616 -1.5292  2.2290
 5236SOL     OW16606   0.298   4.055   2.340 -0.1564  0.1628  0.0968
 5236SOL    HW116607   0.307   3.974   2.398  0.1021 -0.8268 -1.2923
 5236SOL    HW216608   0.209   4.054   2.294 -0.3432  0.9194  0.4255
 5237SOL     OW16609   2.110   6.454   4.477  0.0743  0.5650 -0.6382
 5237SOL    HW116610   2.100   6.542   4.523  1.4234  1.1400 -1.3732
 5237SOL    HW216611   2.030   6.398   4.494  0.3473  0.8870  2.0640
 5238SOL     OW16612   1.077   5.376   0.026  0.1974  0.8259  0.1709
 5238SOL    HW116613   1.017   5.351  -0.049  0.1572 -0.8152  0.6972
 5238SOL    HW216614   1.094   5.474   0.025 -1.3139  1.0981 -0.8347
 5239SOL     OW16615   3.748   3.867   3.451 -0.0730 -0.4456 -0.1543
 5239SOL    HW116616   3.777   3.799   3.384 -0.5332  0.1291 -0.9461
 5239SOL    HW216617   3.693   3.937   3.406  0.2944  0.3894  0.6771
 5240SOL     OW16618   1.831   2.158   6.241 -0.0380 -0.5265 -0.0816
 5240SOL    HW116619   1.813   2.178   6.338 -0.0635  0.3586 -0.2599
 5240SOL    HW216620   1.870   2.240   6.197  0.5132 -1.1025 -0.6847
 5241SOL     OW16621   0.703   6.518   6.546  0.5932 -0.0088 -0.1281
 5241SOL    HW116622   0.634   6.461   6.503  1.1018 -0.3068 -0.5512
 5241SOL    HW216623   0.735   6.475   6.631  1.4400 -0.6788 -0.7743
 5242SOL     OW16624   6.307   5.447   6.735  0.0112  0.7976  0.6612
 5242SOL    HW116625   6.213   5.414   6.729  0.3207 -0.4957  2.3412
 5242SOL    HW216626   6.368   5.382   6.689  0.2042  1.0397  0.5739
 5243SOL     OW16627   1.754   4.180   1.079  0.0138  0.0218  0.4485
 5243SOL    HW116628   1.761   4.167   0.980 -0.3762 -2.0063  0.6491
 5243SOL    HW216629   1.698   4.260   1.098  0.1216  0.4603 -0.9692
 5244SOL     OW16630   3.170   4.135   6.507 -0.0674  0.1341 -0.3163
 5244SOL    HW116631   3.134   4.135   6.413  0.0553 -0.1398 -0.3636
 5244SOL    HW216632   3.266   4.164   6.506 -0.3542  1.1310 -0.1598
 5245SOL     OW16633   4.373   3.102   1.028 -0.2305  1.0278 -0.0459
 5245SOL    HW116634   4.472   3.115   1.038  0.3083 -0.4188 -2.6093
 5245SOL    HW216635   4.327   3.132   1.111  2.4532  0.6596  1.6969
 5246SOL     OW16636   3.993   5.181   2.892  0.0767  0.2205  0.4200
 5246SOL    HW116637   3.917   5.245   2.904  1.1009  1.6249 -0.3187
 5246SOL    HW216638   3.979   5.128   2.809 -1.0287 -0.9424  1.2954
 5247SOL     OW16639   0.933   6.024   0.242  0.7055 -0.4767  0.2987
 5247SOL    HW116640   0.834   6.036   0.246  0.7846  3.8453 -3.1098
 5247SOL    HW216641   0.956   5.955   0.174  0.0183 -0.0186 -0.4100
 5248SOL     OW16642   6.381   1.896   4.442 -0.2195 -0.0249 -0.1916
 5248SOL    HW116643   6.413   1.881   4.536 -1.0274  1.6665  0.4012
 5248SOL    HW216644   6.292   1.851   4.429  0.4452 -1.2734 -0.5496
 5249SOL     OW16645   0.884   6.478   5.715  0.1422 -0.3334 -0.6768
 5249SOL    HW116646   0.923   6.500   5.805  2.3953 -0.2787 -1.6134
 5249SOL    HW216647   0.830   6.555   5.683 -0.1441 -0.0961  0.3385
 5250SOL     OW16648   6.700   1.137   0.070 -0.0170 -0.2526  0.1245
 5250SOL    HW116649   6.638   1.061   0.049 -0.1395 -0.0384 -0.3040
 5250SOL    HW216650   6.705   1.149   0.169  0.6444 -1.3519  0.2430
 5251SOL     OW16651   2.048   2.516   1.117 -0.1507 -0.5486 -0.2573
 5251SOL    HW116652   1.992   2.435   1.130  0.1008 -0.8923 -1.2273
 5251SOL    HW216653   2.001   2.580   1.056 -0.8131  0.5211  1.3138
 5252SOL     OW16654   2.439   5.525   0.125  0.0030  0.0047 -0.1497
 5252SOL    HW116655   2.357   5.546   0.179 -0.2381  1.3381 -0.9912
 5252SOL    HW216656   2.510   5.593   0.145  0.5510 -0.5486 -0.1836
 5253SOL     OW16657   5.018   3.919   5.434 -0.7193 -0.1069  0.6287
 5253SOL    HW116658   4.982   3.985   5.368  0.1995  0.5698  0.7754
 5253SOL    HW216659   4.943   3.878   5.486 -1.4101 -0.2859 -0.4983
 5254SOL     OW16660   6.049   0.870   2.793 -0.1517 -0.1413 -0.3101
 5254SOL    HW116661   6.081   0.799   2.855 -1.0945  0.1329  0.5144
 5254SOL    HW216662   6.127   0.906   2.741  0.3531 -1.7585 -0.7649
 5255SOL     OW16663   4.806   0.827   0.383 -0.1483  0.0693 -0.5756
 5255SOL    HW116664   4.735   0.849   0.316 -0.0594 -0.3432 -0.8027
 5255SOL    HW216665   4.896   0.843   0.343  0.1015 -3.6735 -1.9237
 5256SOL     OW16666   5.212   6.889   4.596  0.3301  0.1269  0.1013
 5256SOL    HW116667   5.306   6.922   4.585  0.4389  0.6141  2.1364
 5256SOL    HW216668   5.213   6.792   4.619  0.4066  0.3820  1.1985
 5257SOL     OW16669   4.224   1.647   1.012 -0.0050 -0.0888 -0.4798
 5257SOL    HW116670   4.299   1.614   0.955  1.6878 -0.4575  1.8489
 5257SOL    HW216671   4.254   1.727   1.064 -1.7641  0.7359 -0.6329
 5258SOL     OW16672   4.635   4.042   1.000 -0.2634 -0.0885  0.0087
 5258SOL    HW116673   4.543   4.058   1.036 -0.4050 -1.3501  0.2483
 5258SOL    HW216674   4.650   4.100   0.920 -0.7429  1.1579  0.7780
 5259SOL     OW16675   3.766   6.370   6.318  0.1327 -0.4344  0.2240
 5259SOL    HW116676   3.694   6.377   6.388  0.5890 -0.7899  0.7333
 5259SOL    HW216677   3.809   6.459   6.307 -0.8428 -0.0374 -0.5913
 5260SOL     OW16678   5.899   2.501   0.994 -0.1594  0.3579  0.3888
 5260SOL    HW116679   5.812   2.548   1.008  0.1477  0.8227  0.7874
 5260SOL    HW216680   5.930   2.516   0.901 -0.3648  0.4362  0.3325
 5261SOL     OW16681   2.685   1.001   4.287 -0.2112  0.1220  0.0766
 5261SOL    HW116682   2.680   1.036   4.194 -0.0459  0.6958  0.2736
 5261SOL    HW216683   2.593   0.974   4.318 -0.5357  1.4052  0.2878
 5262SOL     OW16684   1.427   1.855   3.849  0.1438  0.2905  0.3844
 5262SOL    HW116685   1.487   1.848   3.768  0.6441  0.0061  0.7727
 5262SOL    HW216686   1.402   1.951   3.863  1.2306  0.5392  0.7206
 5263SOL     OW16687   0.863   0.935   0.327 -0.1339  0.1203 -0.6516
 5263SOL    HW116688   0.774   0.891   0.315  0.4048 -0.6268 -2.2472
 5263SOL    HW216689   0.935   0.873   0.294  0.9442  0.8840  0.2004
 5264SOL     OW16690   5.696   6.361   0.666  0.1794 -0.1635 -0.3510
 5264SOL    HW116691   5.613   6.413   0.650  0.5740  1.3654  2.1036
 5264SOL    HW216692   5.755   6.410   0.731  1.8517 -2.3795 -0.0584
 5265SOL     OW16693   5.135   4.740   4.772  0.1009  0.9267 -0.0532
 5265SOL    HW116694   5.199   4.771   4.702 -0.7677 -1.2538 -1.9372
 5265SOL    HW216695   5.053   4.797   4.770  0.2817  1.1771 -0.5049
 5266SOL     OW16696   3.047   0.758   1.762  0.0718 -0.2405 -0.0381
 5266SOL    HW116697   3.026   0.702   1.842 -1.2397 -0.9765 -0.8637
 5266SOL    HW216698   3.042   0.702   1.680  0.4151  0.7265 -0.7347
 5267SOL     OW16699   4.866   3.296   0.285 -0.0765  0.9004 -0.0095
 5267SOL    HW116700   4.772   3.302   0.318 -0.3853 -0.4665 -0.5996
 5267SOL    HW216701   4.918   3.231   0.340  0.2311  0.8379 -0.3662
 5268SOL     OW16702   5.193   5.432   4.992  0.4171 -0.0571  0.6285
 5268SOL    HW116703   5.189   5.530   4.972 -0.7453 -0.7017 -2.9543
 5268SOL    HW216704   5.122   5.408   5.058 -1.6348  1.0781 -1.0473
 5269SOL     OW16705   2.729   0.668   4.457 -0.1391 -0.2396 -0.4390
 5269SOL    HW116706   2.730   0.594   4.525 -1.1835  1.4061  1.4657
 5269SOL    HW216707   2.806   0.730   4.474 -0.7213  0.4821 -0.4024
 5270SOL     OW16708   5.163   1.897   6.740 -0.4702  0.1291  0.2056
 5270SOL    HW116709   5.164   1.820   6.676 -0.0967 -0.5854  1.0473
 5270SOL    HW216710   5.125   1.867   6.827  0.2994  0.7120  0.7534
 5271SOL     OW16711   5.627   5.714   4.924 -0.1441 -0.2064 -0.2473
 5271SOL    HW116712   5.556   5.747   4.988  0.9783  2.2248 -0.1538
 5271SOL    HW216713   5.710   5.695   4.975  0.0161 -0.6462 -0.6762
 5272SOL     OW16714   2.699   5.776   3.202  0.0843  0.1709  0.2417
 5272SOL    HW116715   2.742   5.687   3.190 -1.2762 -0.5657  0.5889
 5272SOL    HW216716   2.662   5.783   3.294 -2.9232 -0.3955 -0.7919
 5273SOL     OW16717   5.658   4.091   3.682  0.0282 -1.0286  0.0979
 5273SOL    HW116718   5.720   4.161   3.645  0.4859 -1.3917  0.1621
 5273SOL    HW216719   5.577   4.084   3.625  1.5297 -2.8613 -1.9595
 5274SOL     OW16720   6.471   3.327   2.266  0.1233  0.8079  0.0263
 5274SOL    HW116721   6.407   3.313   2.341 -2.4101 -0.5115 -2.2026
 5274SOL    HW216722   6.423   3.367   2.188  1.7049 -1.2280 -2.1336
 5275SOL     OW16723   5.247   0.910   5.456  0.1456  0.7174  0.0110
 5275SOL    HW116724   5.273   0.889   5.362  1.4969  0.8055  0.3453
 5275SOL    HW216725   5.228   0.825   5.506  0.4006  0.6081 -0.0768
 5276SOL     OW16726   2.763   1.511   3.722  0.7658  0.0703  0.1078
 5276SOL    HW116727   2.838   1.526   3.657 -0.5775 -0.0054 -1.5216
 5276SOL    HW216728   2.676   1.522   3.676 -0.3057 -3.1853  1.0488
 5277SOL     OW16729   0.274   3.661   2.966 -0.4140  1.0382 -0.0443
 5277SOL    HW116730   0.210   3.624   2.899 -1.9841  0.2170  1.8200
 5277SOL    HW216731   0.236   3.744   3.007  0.3572  1.3408  0.0739
 5278SOL     OW16732   3.171   1.704   5.456  0.2394 -0.3212 -0.3336
 5278SOL    HW116733   3.152   1.606   5.450  2.9289 -0.8556 -1.7518
 5278SOL    HW216734   3.155   1.746   5.366  2.4280 -0.2169 -0.7178
 5279SOL     OW16735   0.679   3.656   0.522 -0.5200 -0.5507  0.2483
 5279SOL    HW116736   0.761   3.606   0.494 -1.4299 -2.3397  0.6282
 5279SOL    HW216737   0.698   3.755   0.519  1.6693 -0.9030  0.4892
 5280SOL     OW16738   2.489   5.418   5.748 -0.3747  0.3582  1.2432
 5280SOL    HW116739   2.517   5.431   5.844 -1.8147 -0.0737  1.7467
 5280SOL    HW216740   2.398   5.377   5.745 -0.1010 -0.2131 -0.3255
 5281SOL     OW16741   1.176   2.315   4.232  0.4375 -0.7444 -0.1025
 5281SOL    HW116742   1.171   2.233   4.288 -1.3141 -1.2897 -0.9979
 5281SOL    HW216743   1.106   2.312   4.161  0.7070  1.2672 -0.5229
 5282SOL     OW16744   2.089   0.942   3.873 -0.3214  0.2176  0.0497
 5282SOL    HW116745   2.136   0.868   3.921 -1.4193  0.3591  1.4068
 5282SOL    HW216746   2.118   1.030   3.911 -0.1205  0.4100 -0.5446
 5283SOL     OW16747   2.156   0.046   3.248 -0.3129  0.3259  0.0643
 5283SOL    HW116748   2.177   0.050   3.151  0.3900 -1.8496  0.0796
 5283SOL    HW216749   2.236   0.013   3.299 -1.1794 -0.1619  1.1699
 5284SOL     OW16750   4.767   1.908   2.161 -0.1688  0.0600  0.3286
 5284SOL    HW116751   4.709   1.866   2.092  0.4958 -0.9174  0.3584
 5284SOL    HW216752   4.787   2.003   2.134 -0.3041 -0.1592 -0.5685
 5285SOL     OW16753   2.288   2.855   3.590  0.1152 -0.4114  0.4162
 5285SOL    HW116754   2.205   2.804   3.614 -0.2320 -0.1614 -0.2318
 5285SOL    HW216755   2.272   2.907   3.506  0.8262 -0.1035  0.4660
 5286SOL     OW16756   6.613   2.655   2.360 -0.1579  0.0242  0.0419
 5286SOL    HW116757   6.573   2.747   2.359 -0.1017  0.0515  0.3776
 5286SOL    HW216758   6.583   2.607   2.442 -1.1980 -0.7016 -0.7430
 5287SOL     OW16759   3.017   0.216   4.207 -0.0297  0.5103  0.0498
 5287SOL    HW116760   3.016   0.203   4.306 -0.7111 -0.4865 -0.0772
 5287SOL    HW216761   3.007   0.128   4.162  0.3808  0.9452 -0.9176
 5288SOL     OW16762   2.608   1.314   2.480  0.0610 -0.2205  0.0710
 5288SOL    HW116763   2.617   1.229   2.429 -0.9277 -0.2000 -0.1483
 5288SOL    HW216764   2.512   1.340   2.485  0.4078  1.3061 -0.5605
 5289SOL     OW16765   1.619   0.270   5.244 -0.1669 -0.9182  0.5844
 5289SOL    HW116766   1.667   0.221   5.171  1.5287 -0.7738  1.5437
 5289SOL    HW216767   1.531   0.302   5.210  0.4378 -1.1193 -1.3057
 5290SOL     OW16768   1.055   4.279   6.889 -0.6161  0.1127  0.1920
 5290SOL    HW116769   1.065   4.287   6.790 -0.8633 -0.3669  0.1261
 5290SOL    HW216770   1.123   4.216   6.925  0.9380  1.9477  0.6329
 5291SOL     OW16771   4.947   0.051   6.324 -0.7543  0.2764 -0.0715
 5291SOL    HW116772   4.959   0.142   6.284 -0.7592  0.1141 -0.4440
 5291SOL    HW216773   4.896  -0.007   6.260 -1.8109  0.3636  0.6611
 5292SOL     OW16774   0.027   4.544   4.711  0.5628  0.2337  0.3517
 5292SOL    HW116775   0.050   4.599   4.630 -2.3336 -1.8893 -2.1495
 5292SOL    HW216776  -0.048   4.588   4.760 -0.3398 -0.3559 -0.4534
 5293SOL     OW16777   0.953   1.881   6.183  0.5971  0.4720 -0.0131
 5293SOL    HW116778   1.009   1.799   6.169 -0.9196 -0.5377 -0.4328
 5293SOL    HW216779   0.993   1.957   6.131  0.9667 -0.5018 -1.2338
 5294SOL     OW16780   6.177   2.905   2.989 -0.1346 -0.0154 -0.0076
 5294SOL    HW116781   6.192   2.806   2.985  0.9304  0.1286  0.0322
 5294SOL    HW216782   6.232   2.949   2.917 -2.0516  0.4102 -1.2903
 5295SOL     OW16783   3.351   0.976   2.379 -0.3930  0.3323 -0.2530
 5295SOL    HW116784   3.316   1.060   2.338  2.1774  1.6168  0.0192
 5295SOL    HW216785   3.451   0.979   2.382 -0.2996 -1.8044  1.7659
 5296SOL     OW16786   2.629   6.309   0.328  0.4226  0.0954 -0.0153
 5296SOL    HW116787   2.605   6.237   0.262  1.1765 -0.8292  0.6890
 5296SOL    HW216788   2.729   6.323   0.327  0.4205  0.2125  0.7875
 5297SOL     OW16789   2.580   5.452   1.036 -0.3072  0.1647  0.1027
 5297SOL    HW116790   2.668   5.454   0.988 -0.3576  0.6756  0.0199
 5297SOL    HW216791   2.527   5.373   1.006  0.4898 -0.6654  0.8248
 5298SOL     OW16792   1.048   5.367   6.430  0.3912  0.1107  0.5692
 5298SOL    HW116793   0.970   5.363   6.493 -1.0080 -2.3935 -1.1782
 5298SOL    HW216794   1.034   5.302   6.356  1.7035  3.2331 -2.6858
 5299SOL     OW16795   3.025   3.333   6.583 -0.1295 -0.1613 -0.4210
 5299SOL    HW116796   2.992   3.414   6.535 -0.4258 -0.4753 -0.7657
 5299SOL    HW216797   3.050   3.356   6.676 -2.5040 -0.1089  0.2748
 5300SOL     OW16798   0.519   5.241   0.834  0.3219  0.1550 -0.3714
 5300SOL    HW116799   0.560   5.265   0.746 -1.3128  0.8520 -0.9957
 5300SOL    HW216800   0.590   5.211   0.898  1.6790  0.7510 -1.5549
 5301SOL     OW16801   5.430   3.185   6.728  0.5775 -0.0689  0.2737
 5301SOL    HW116802   5.381   3.099   6.714 -1.7297  1.2332 -0.2090
 5301SOL    HW216803   5.427   3.211   6.824 -0.3995  0.3728  0.1361
 5302SOL     OW16804   6.164   6.319   2.488 -0.0854  0.4912 -0.3378
 5302SOL    HW116805   6.236   6.307   2.419  0.3837 -0.0103  0.2273
 5302SOL    HW216806   6.088   6.258   2.468 -0.2522  0.8487 -0.8034
 5303SOL     OW16807   2.883   4.824   4.534  0.3266  0.3536  0.0911
 5303SOL    HW116808   2.855   4.759   4.605 -1.3944  0.8166 -0.1155
 5303SOL    HW216809   2.858   4.787   4.444  0.1966  0.8845 -0.0921
 5304SOL     OW16810   5.395   6.778   1.342 -0.9738 -0.6956  0.4504
 5304SOL    HW116811   5.334   6.806   1.416 -0.1229 -1.2294  1.3772
 5304SOL    HW216812   5.488   6.773   1.376 -0.4467 -0.1908 -0.8721
 5305SOL     OW16813   0.665   5.241   2.745  0.0330  0.6321  0.2981
 5305SOL    HW116814   0.595   5.214   2.811 -0.9930  0.4464 -0.8388
 5305SOL    HW216815   0.748   5.187   2.761 -0.1274  0.7112  1.5335
 5306SOL     OW16816   0.684   4.141   5.073 -0.3069 -0.0306 -0.6302
 5306SOL    HW116817   0.740   4.111   4.995  1.4096  0.9087  0.1958
 5306SOL    HW216818   0.616   4.207   5.042 -0.7767 -0.9178 -1.5834
 5307SOL     OW16819   4.224   2.400   5.544  0.3471 -0.2095 -0.3323
 5307SOL    HW116820   4.253   2.495   5.555 -0.2139 -0.1534  0.8360
 5307SOL    HW216821   4.298   2.339   5.571 -0.3844 -0.0678  2.2681
 5308SOL     OW16822   0.167   5.824   4.135  0.1791 -0.7627 -0.0692
 5308SOL    HW116823   0.191   5.913   4.096  0.0579 -1.3854 -1.6349
 5308SOL    HW216824   0.207   5.816   4.227  0.6043  0.6957 -0.0985
 5309SOL     OW16825   2.363   4.317   1.783  0.3376  0.0553  0.1525
 5309SOL    HW116826   2.425   4.299   1.707  1.5787  0.2417  1.0850
 5309SOL    HW216827   2.416   4.348   1.862 -0.8860 -0.4560  1.2023
 5310SOL     OW16828   5.393   3.394   2.081 -0.0503  0.0805  0.7004
 5310SOL    HW116829   5.374   3.421   1.986  0.6337  1.0595  0.8204
 5310SOL    HW216830   5.376   3.296   2.092  3.4784 -0.9504 -1.4506
 5311SOL     OW16831   6.905   6.978   6.081  0.2242  0.0153  0.0219
 5311SOL    HW116832   6.985   6.919   6.064  1.1302  0.7030  1.6909
 5311SOL    HW216833   6.856   6.944   6.161 -0.7960  0.0171 -0.5815
 5312SOL     OW16834   0.644   4.407   1.164  0.5841 -0.0402  0.0231
 5312SOL    HW116835   0.644   4.310   1.141  1.4439 -0.0653  0.1033
 5312SOL    HW216836   0.729   4.450   1.133  0.0770  0.7639 -0.3063
 5313SOL     OW16837   1.732   2.692   5.534 -0.3156 -0.1610  0.3943
 5313SOL    HW116838   1.681   2.777   5.523 -0.5194 -0.5594 -2.5503
 5313SOL    HW216839   1.830   2.713   5.537 -0.3089  0.1611 -1.2678
 5314SOL     OW16840   2.436   5.226   0.944  0.2205 -0.6754  0.1162
 5314SOL    HW116841   2.456   5.181   1.031 -0.1882  0.0063  0.5784
 5314SOL    HW216842   2.462   5.167   0.869  0.1345 -1.4758  0.7029
 5315SOL     OW16843   4.562   1.819   1.935  0.1061  0.1387  0.0694
 5315SOL    HW116844   4.581   1.745   1.999  0.4249  0.1410 -0.0181
 5315SOL    HW216845   4.611   1.801   1.849  0.3325  0.5395  0.1127
 5316SOL     OW16846   0.098   4.143   4.498  0.3076 -0.3894  0.0624
 5316SOL    HW116847   0.097   4.086   4.415  1.0708 -0.1205 -0.1450
 5316SOL    HW216848   0.183   4.196   4.500 -0.4816  0.9206  0.1338
 5317SOL     OW16849   0.466   6.684   3.280 -0.2029 -0.2850 -0.1574
 5317SOL    HW116850   0.479   6.780   3.256 -0.0549  0.5945  3.0321
 5317SOL    HW216851   0.545   6.651   3.331 -1.0673 -1.5189  0.4329
 5318SOL     OW16852   6.661   3.737   0.200  0.0763  0.0298 -0.5575
 5318SOL    HW116853   6.696   3.787   0.121 -1.7601 -0.1022 -1.5069
 5318SOL    HW216854   6.707   3.649   0.207  0.1954  0.0032 -1.5301
 5319SOL     OW16855   2.095   4.844   0.348 -0.2495 -0.1731  0.2023
 5319SOL    HW116856   2.024   4.912   0.362 -1.0111 -0.9146  0.0730
 5319SOL    HW216857   2.181   4.875   0.389 -0.0439  1.7104 -1.4843
 5320SOL     OW16858   6.193   2.986   0.064  0.0529  0.0366 -0.5699
 5320SOL    HW116859   6.117   2.925   0.041 -0.1732  0.3324 -0.6147
 5320SOL    HW216860   6.181   3.073   0.017  0.1794  0.2491 -0.2126
 5321SOL     OW16861   1.610   4.616   3.220  0.2870 -0.0096  0.3076
 5321SOL    HW116862   1.549   4.583   3.149  0.9603  1.5132 -1.0629
 5321SOL    HW216863   1.660   4.539   3.261  0.7012 -0.8471 -1.6692
 5322SOL     OW16864   5.498   5.898   5.357  0.3836 -0.9723  0.0892
 5322SOL    HW116865   5.590   5.889   5.397 -0.2543 -2.9881  1.2752
 5322SOL    HW216866   5.505   5.904   5.258  1.7908 -2.6096  0.0319
 5323SOL     OW16867   4.531   1.724   0.192 -0.1720 -0.4873 -0.0595
 5323SOL    HW116868   4.462   1.785   0.153  0.1044  0.8748  1.4388
 5323SOL    HW216869   4.568   1.665   0.121 -1.8277 -0.2252 -1.1792
 5324SOL     OW16870   3.574   1.287   3.112  0.2405  0.6087 -0.4074
 5324SOL    HW116871   3.651   1.277   3.048  0.1827  0.3981 -0.4443
 5324SOL    HW216872   3.609   1.321   3.200  0.5680 -0.7080 -0.0117
 5325SOL     OW16873   5.246   0.795   0.052  0.9668  0.0198  0.2489
 5325SOL    HW116874   5.295   0.737   0.116 -0.7321 -0.4261  1.1959
 5325SOL    HW216875   5.192   0.862   0.102  2.2578  1.9545 -0.8066
 5326SOL     OW16876   0.212   5.741   2.398  0.4162  0.6080  0.1096
 5326SOL    HW116877   0.300   5.751   2.354  0.0443  0.9496 -0.5706
 5326SOL    HW216878   0.145   5.708   2.332  0.4884 -1.7251  1.1081
 5327SOL     OW16879   5.919   4.188   4.480 -0.0739 -0.2672 -0.2454
 5327SOL    HW116880   5.847   4.245   4.442 -1.6611 -0.8313  1.7209
 5327SOL    HW216881   6.003   4.198   4.426 -1.0924  1.7861 -1.5362
 5328SOL     OW16882   5.435   5.291   5.103  0.1770  0.0942 -0.8570
 5328SOL    HW116883   5.351   5.316   5.055 -1.6712 -2.3497  0.8437
 5328SOL    HW216884   5.497   5.244   5.039 -1.0745 -0.7225 -1.5160
 5329SOL     OW16885   6.741   5.243   0.836  0.0766 -0.2144  0.7052
 5329SOL    HW116886   6.709   5.202   0.921 -2.5414 -0.5604 -0.3551
 5329SOL    HW216887   6.710   5.188   0.758  1.1882  0.8437 -0.5441
 5330SOL     OW16888   3.178   5.073   4.716  0.0512  0.0417 -0.2633
 5330SOL    HW116889   3.148   5.051   4.808 -1.1528 -0.6941 -0.8035
 5330SOL    HW216890   3.133   5.156   4.685 -0.0106 -0.0444 -0.4055
 5331SOL     OW16891   5.288   2.350   1.773 -0.0567 -0.8385  0.1603
 5331SOL    HW116892   5.374   2.302   1.759  0.4563 -0.2094  0.9981
 5331SOL    HW216893   5.291   2.398   1.861 -0.6625  0.4441 -0.4883
 5332SOL     OW16894   6.684   2.707   2.080 -0.6531  0.2589 -0.0269
 5332SOL    HW116895   6.643   2.621   2.111  1.5035 -1.2141 -1.0204
 5332SOL    HW216896   6.743   2.743   2.152  0.5052 -0.5363 -0.5543
 5333SOL     OW16897   1.210   0.928   4.623  0.0276  0.0697 -0.3082
 5333SOL    HW116898   1.224   1.025   4.606 -0.1198 -0.0551 -1.1425
 5333SOL    HW216899   1.223   0.876   4.539  0.4712 -0.6779  0.2098
 5334SOL     OW16900   5.321   0.524   5.043 -0.8275 -0.2643 -0.1750
 5334SOL    HW116901   5.395   0.578   5.083 -0.7589 -0.6784  0.2637
 5334SOL    HW216902   5.358   0.466   4.970 -0.7331 -0.4206 -0.0025
 5335SOL     OW16903   5.322   0.705   3.287  0.0686 -0.1475  0.2335
 5335SOL    HW116904   5.327   0.621   3.341  1.4186 -0.1890  0.0960
 5335SOL    HW216905   5.321   0.784   3.348 -1.8839 -0.2411  0.3850
 5336SOL     OW16906   1.850   3.524   4.510 -0.0276 -0.9561  0.2252
 5336SOL    HW116907   1.845   3.590   4.435 -0.2280 -0.9991  0.1980
 5336SOL    HW216908   1.801   3.560   4.590  1.1470 -0.4158  0.7245
 5337SOL     OW16909   6.225   3.773   0.920 -0.1777 -0.0047 -0.2082
 5337SOL    HW116910   6.136   3.772   0.965 -0.6937 -0.0958 -1.1958
 5337SOL    HW216911   6.274   3.688   0.939 -0.5326 -0.1862 -0.0987
 5338SOL     OW16912   6.805   2.221   6.213  0.1638  0.4826 -0.5830
 5338SOL    HW116913   6.750   2.140   6.193  0.7182  0.0350 -0.3187
 5338SOL    HW216914   6.891   2.194   6.256  0.4515  1.1977 -0.6838
 5339SOL     OW16915   6.723   1.492   3.583  0.2875 -0.0658 -0.2072
 5339SOL    HW116916   6.712   1.522   3.678  1.8810  0.1940 -0.0856
 5339SOL    HW216917   6.640   1.515   3.532 -0.6883 -0.4015  1.1491
 5340SOL     OW16918   5.133   1.872   2.541  0.1946  0.2241  0.6058
 5340SOL    HW116919   5.177   1.866   2.631  1.5463  1.2117  0.0472
 5340SOL    HW216920   5.102   1.782   2.513 -1.8544  0.1574  2.8148
 5341SOL     OW16921   5.264   6.257   5.294 -0.0552 -0.5278  0.2712
 5341SOL    HW116922   5.364   6.258   5.296 -0.0474  1.4880  2.0028
 5341SOL    HW216923   5.232   6.256   5.199  1.6386  0.6409 -0.3418
 5342SOL     OW16924   3.257   5.758   3.696  0.1855  0.8092 -0.7292
 5342SOL    HW116925   3.238   5.843   3.744 -0.9047  1.0276 -1.5074
 5342SOL    HW216926   3.301   5.778   3.608  0.7824  0.5048 -0.5069
 5343SOL     OW16927   4.772   3.345   5.277 -0.2347 -0.4720  0.6076
 5343SOL    HW116928   4.791   3.295   5.193  1.4017  0.3071  0.4788
 5343SOL    HW216929   4.741   3.438   5.255  0.6530 -0.1103  0.8542
 5344SOL     OW16930   3.110   2.154   2.579  0.2165  0.5317 -0.5481
 5344SOL    HW116931   3.195   2.140   2.529  0.9980  2.2017  0.2395
 5344SOL    HW216932   3.041   2.088   2.547  1.4664 -0.1610 -1.9277
 5345SOL     OW16933   3.138   5.996   1.114  0.1495 -0.1395 -0.3367
 5345SOL    HW116934   3.226   5.954   1.134 -0.7278 -1.4653  0.9579
 5345SOL    HW216935   3.080   5.994   1.196 -0.6820  1.7963 -0.7983
 5346SOL     OW16936   3.022   5.781   5.399  0.2499  0.1023 -0.1531
 5346SOL    HW116937   3.080   5.700   5.408  0.7663  0.5778  0.9738
 5346SOL    HW216938   3.054   5.836   5.321 -0.0969 -0.7467 -0.9189
 5347SOL     OW16939   0.985   2.756   1.983  0.4728  0.0155  0.3992
 5347SOL    HW116940   0.946   2.757   2.075  0.4597  2.9751  0.4389
 5347SOL    HW216941   1.084   2.741   1.989  0.6179  1.1173  1.0038
 5348SOL     OW16942   0.568   1.686   0.829  0.5348 -0.6318 -0.9471
 5348SOL    HW116943   0.607   1.713   0.741 -1.2791  2.1182 -1.0579
 5348SOL    HW216944   0.590   1.756   0.898 -3.7220  1.0740 -1.0055
 5349SOL     OW16945   0.632   1.357   1.252 -0.0308  0.3178 -0.5980
 5349SOL    HW116946   0.644   1.270   1.204 -2.3217  1.0483 -2.6929
 5349SOL    HW216947   0.708   1.418   1.230  0.4894 -0.4043 -0.8538
 5350SOL     OW16948   3.903   0.045   5.850  0.5112  0.4598  0.4486
 5350SOL    HW116949   3.826  -0.015   5.825  0.7673 -0.4799  1.8254
 5350SOL    HW216950   3.928   0.029   5.945  0.8402  2.5275  0.7493
 5351SOL     OW16951   5.254   5.603   3.120  0.0919  0.1759 -0.5739
 5351SOL    HW116952   5.246   5.626   3.023 -0.5634  1.6038 -0.2021
 5351SOL    HW216953   5.168   5.566   3.153  0.3951 -0.5602 -0.5819
 5352SOL     OW16954   2.584   5.812   2.235  0.3069 -0.0115 -0.2364
 5352SOL    HW116955   2.582   5.796   2.333 -0.5531 -1.1201 -0.4167
 5352SOL    HW216956   2.527   5.890   2.212 -1.4647 -1.2054 -0.0759
 5353SOL     OW16957   4.853   5.699   3.438 -0.3129 -0.2834  0.4961
 5353SOL    HW116958   4.872   5.754   3.519 -0.8734  0.4006  0.1664
 5353SOL    HW216959   4.907   5.732   3.361 -1.5805  0.6402 -0.0307
 5354SOL     OW16960   1.820   6.594   0.682  0.5073  0.1999  0.4775
 5354SOL    HW116961   1.850   6.618   0.590  0.4435  0.9077  0.6397
 5354SOL    HW216962   1.867   6.651   0.749 -0.5020  0.6796  0.7949
 5355SOL     OW16963   6.006   3.339   3.822 -0.3767  0.1747 -0.1588
 5355SOL    HW116964   5.913   3.315   3.794 -0.4522 -0.0948  0.3100
 5355SOL    HW216965   6.064   3.349   3.741 -1.3229  2.6103 -0.6424
 5356SOL     OW16966   4.091   4.929   2.356 -0.0921  0.4872 -0.0137
 5356SOL    HW116967   4.131   4.856   2.300 -0.0434  0.2145  0.3691
 5356SOL    HW216968   4.046   4.996   2.297 -1.0299 -0.3860 -0.3144
 5357SOL     OW16969   2.712   3.961   6.565  0.0831  0.3963 -0.0014
 5357SOL    HW116970   2.661   4.037   6.525  0.7711  1.0066  0.2726
 5357SOL    HW216971   2.698   3.961   6.664 -2.7587 -1.9307 -0.2609
 5358SOL     OW16972   3.441   1.018   6.031 -0.3357 -0.1003 -0.7002
 5358SOL    HW116973   3.365   0.965   5.994 -0.2013  0.6360 -2.0900
 5358SOL    HW216974   3.464   0.984   6.122 -2.0763 -0.5729 -0.4114
 5359SOL     OW16975   0.229   1.536   0.087  0.0031  0.4287  0.0277
 5359SOL    HW116976   0.169   1.598   0.036 -1.0241  0.3788  1.1349
 5359SOL    HW216977   0.275   1.588   0.159 -0.3641  0.0421  0.5450
 5360SOL     OW16978   2.806   0.219   4.406  0.3020  0.3470 -0.6859
 5360SOL    HW116979   2.853   0.307   4.415  1.6172 -0.5265  1.9172
 5360SOL    HW216980   2.864   0.156   4.355  0.0117  0.5451 -1.2647
 5361SOL     OW16981   3.434   0.883   5.422 -0.0889  0.0353  0.4202
 5361SOL    HW116982   3.521   0.917   5.386  1.0088 -2.4522  0.5439
 5361SOL    HW216983   3.377   0.852   5.347  2.2684 -5.3153  0.3853
 5362SOL     OW16984   5.573   4.375   3.073 -0.4227  0.5632  0.4426
 5362SOL    HW116985   5.526   4.345   2.990  1.5295  1.1890 -0.9636
 5362SOL    HW216986   5.584   4.474   3.071 -1.2237  0.7018  1.9565
 5363SOL     OW16987   1.679   5.617   6.321  0.4039  0.0539 -0.5433
 5363SOL    HW116988   1.713   5.557   6.393  0.4400 -1.9349 -2.1236
 5363SOL    HW216989   1.714   5.710   6.336 -1.1248  0.2209  2.9992
 5364SOL     OW16990   0.997   0.331   1.637 -0.0409  0.0201 -0.2241
 5364SOL    HW116991   0.909   0.296   1.669  0.0933 -1.4207 -1.3094
 5364SOL    HW216992   1.026   0.280   1.555  1.1560  1.3778 -0.6986
 5365SOL     OW16993   4.365   3.027   5.525  0.1991  0.2259  0.9278
 5365SOL    HW116994   4.325   2.990   5.441  0.7921  1.1146  0.2278
 5365SOL    HW216995   4.435   2.965   5.558 -0.3886 -0.3789  1.0569
 5366SOL     OW16996   4.297   5.317   2.370  0.0056 -0.4090 -0.4517
 5366SOL    HW116997   4.396   5.305   2.356  0.0557 -1.3226  0.4809
 5366SOL    HW216998   4.281   5.396   2.430  0.2708 -0.9628  0.3752
 5367SOL     OW16999   2.149   1.690   1.838  0.0917  0.1831 -0.3179
 5367SOL    HW117000   2.203   1.769   1.809 -0.0471  0.4479  0.1292
 5367SOL    HW217001   2.080   1.719   1.905  1.5010 -0.6454  1.5875
 5368SOL     OW17002   6.305   1.231   3.856 -0.4817  0.7971 -0.5670
 5368SOL    HW117003   6.339   1.225   3.950 -1.0100  0.3166 -0.3948
 5368SOL    HW217004   6.226   1.293   3.853 -1.7971 -0.7678 -0.2564
 5369SOL     OW17005   1.740   1.280   2.630  0.3353  0.3455  0.0858
 5369SOL    HW117006   1.811   1.210   2.634  0.2238  0.0043 -2.5031
 5369SOL    HW217007   1.773   1.358   2.577 -0.7881  0.6955 -0.1243
 5370SOL     OW17008   4.792   0.238   0.830 -0.2163  0.4986  0.3664
 5370SOL    HW117009   4.716   0.175   0.814  0.4542 -0.2411  0.0610
 5370SOL    HW217010   4.873   0.187   0.859 -0.3786  1.4614  2.7333
 5371SOL     OW17011   6.773   4.839   3.416 -0.0425  0.0871  0.1313
 5371SOL    HW117012   6.829   4.804   3.341 -0.5349  1.7044 -1.0525
 5371SOL    HW217013   6.813   4.812   3.503  1.5286 -0.3563 -0.6898
 5372SOL     OW17014   4.343   5.881   3.722 -0.3761 -0.2714  1.0278
 5372SOL    HW117015   4.371   5.799   3.771  1.7655  0.5634  1.3409
 5372SOL    HW217016   4.315   5.951   3.787 -1.1890 -0.3934  0.8193
 5373SOL     OW17017   4.375   0.549   2.588  0.1756  0.6154  0.4014
 5373SOL    HW117018   4.422   0.474   2.541  0.1447  0.1965  1.0236
 5373SOL    HW217019   4.385   0.633   2.535  0.7346  0.3033  0.0023
 5374SOL     OW17020   1.927   4.067   6.651 -0.6568  0.3284  0.0361
 5374SOL    HW117021   1.945   4.160   6.619  0.2690 -0.2687 -1.2544
 5374SOL    HW217022   1.976   4.052   6.737  0.1165  0.6848 -0.3296
 5375SOL     OW17023   0.603   6.968   4.047  0.8133 -0.2577  0.1340
 5375SOL    HW117024   0.630   6.888   4.101 -1.4651 -1.2534 -0.0709
 5375SOL    HW217025   0.562   6.938   3.961  1.1811  1.1971 -0.5813
 5376SOL     OW17026   0.544   2.177   2.239  0.7507  0.0964 -0.4201
 5376SOL    HW117027   0.609   2.225   2.298  0.5318  0.9224 -0.8374
 5376SOL    HW217028   0.594   2.133   2.164  1.0881 -1.4283  0.6759
 5377SOL     OW17029   1.196   0.074   0.697  0.1334 -0.2788 -0.2559
 5377SOL    HW117030   1.226   0.161   0.735 -0.0601 -0.2067 -0.2664
 5377SOL    HW217031   1.273   0.028   0.652 -0.1288  0.6477 -1.7067
 5378SOL     OW17032   4.873   0.406   1.436  0.5658  0.3857 -0.2241
 5378SOL    HW117033   4.814   0.420   1.356 -1.5908 -0.8204  1.0660
 5378SOL    HW217034   4.899   0.494   1.474  1.8194  0.9988 -2.3275
 5379SOL     OW17035   6.452   3.751   6.510  0.0912 -0.3974 -0.1546
 5379SOL    HW117036   6.527   3.700   6.552 -0.6009 -0.5651  0.9205
 5379SOL    HW217037   6.374   3.689   6.496  0.1217 -0.2147 -1.2114
 5380SOL     OW17038   2.086   0.046   3.650  0.0217 -0.5718  0.1047
 5380SOL    HW117039   2.057  -0.041   3.609  2.3090 -1.9641  1.2269
 5380SOL    HW217040   2.115   0.031   3.744 -1.4000  1.8396  1.0248
 5381SOL     OW17041   0.327   3.823   2.480 -0.5568 -0.4459  0.1379
 5381SOL    HW117042   0.397   3.752   2.486 -0.0650 -0.0467 -0.7306
 5381SOL    HW217043   0.248   3.787   2.430 -0.5439 -0.5524  0.1917
 5382SOL     OW17044   3.010   0.499   2.223 -0.4206 -0.2127 -0.2181
 5382SOL    HW117045   3.011   0.405   2.257  1.7647 -0.1934 -0.1206
 5382SOL    HW217046   2.928   0.545   2.257  0.8169 -0.6385  3.8678
 5383SOL     OW17047   3.202   2.932   5.561  0.3578 -0.0749  0.0059
 5383SOL    HW117048   3.139   2.856   5.576  0.5063  0.0043  1.1147
 5383SOL    HW217049   3.177   3.008   5.622  0.4468  0.6320 -0.8099
 5384SOL     OW17050   5.174   0.841   5.812  0.3886 -0.2172  0.0538
 5384SOL    HW117051   5.156   0.872   5.906 -2.9098 -0.1810 -0.4861
 5384SOL    HW217052   5.146   0.746   5.802 -3.3618  0.9218 -1.8123
 5385SOL     OW17053   3.160   3.372   4.560  0.1494  0.2230  0.1820
 5385SOL    HW117054   3.251   3.338   4.538  0.0623 -0.1103  0.3231
 5385SOL    HW217055   3.094   3.333   4.496  0.2068  1.0608 -0.3933
 5386SOL     OW17056   3.168   0.044   1.382 -0.0967  0.5090  0.2504
 5386SOL    HW117057   3.210   0.131   1.357  0.5553  0.2739  0.5009
 5386SOL    HW217058   3.225  -0.031   1.348 -0.5951  0.1796  0.1333
 5387SOL     OW17059   1.520   0.542   4.551  0.4962  0.3908  0.2874
 5387SOL    HW117060   1.435   0.584   4.518  1.1313  2.4383  1.0988
 5387SOL    HW217061   1.511   0.522   4.648  0.9484  0.6888  0.3930
 5388SOL     OW17062   0.469   1.304   4.446 -0.1497  0.1868  0.0885
 5388SOL    HW117063   0.559   1.264   4.429 -0.3359 -0.6564  0.9605
 5388SOL    HW217064   0.421   1.249   4.515 -1.2361  0.7638 -0.1862
 5389SOL     OW17065   5.669   2.376   2.985 -0.1840  0.2007 -0.4084
 5389SOL    HW117066   5.628   2.455   3.030 -2.5630 -0.8039 -0.6756
 5389SOL    HW217067   5.642   2.374   2.889  0.3329 -0.6221 -0.5420
 5390SOL     OW17068   5.572   4.427   2.662 -0.2353 -0.1239  0.5854
 5390SOL    HW117069   5.528   4.395   2.746  0.7331  0.2041  1.2309
 5390SOL    HW217070   5.567   4.356   2.592 -1.4000 -0.2543  0.7732
 5391SOL     OW17071   1.488   1.466   1.725 -0.8512  0.3517  0.3372
 5391SOL    HW117072   1.401   1.489   1.769 -1.6414 -0.8996 -0.4540
 5391SOL    HW217073   1.539   1.403   1.783 -1.2397 -0.1746  0.1287
 5392SOL     OW17074   6.022   2.330   0.401  0.0134  0.7667 -0.1443
 5392SOL    HW117075   6.076   2.323   0.317 -1.2239  0.3178 -0.9355
 5392SOL    HW217076   6.059   2.269   0.470 -0.5099 -0.8917 -1.2747
 5393SOL     OW17077   5.851   6.091   0.226  1.0426 -1.0896  0.4187
 5393SOL    HW117078   5.799   6.070   0.144  0.5110 -1.2434  0.7935
 5393SOL    HW217079   5.857   6.010   0.284  1.5473 -1.0235  0.4653
 5394SOL     OW17080   0.831   6.122   5.720 -0.0454  0.0556  0.2743
 5394SOL    HW117081   0.920   6.078   5.709  0.3006  0.6750  0.6077
 5394SOL    HW217082   0.803   6.163   5.633 -0.2401 -0.5703  0.0357
 5395SOL     OW17083   6.381   0.712   0.609 -0.1914 -0.1725 -0.0796
 5395SOL    HW117084   6.301   0.654   0.592  0.3003 -0.8642 -0.0506
 5395SOL    HW217085   6.455   0.657   0.647  0.4033  0.4018 -0.3831
 5396SOL     OW17086   4.095   4.541   1.443 -0.2725 -0.0122  0.0213
 5396SOL    HW117087   4.182   4.508   1.405  0.4302  1.0948  0.5851
 5396SOL    HW217088   4.094   4.525   1.542 -0.7787 -0.1537 -0.0054
 5397SOL     OW17089   0.973   4.628   3.004  0.5413 -0.0916  0.1903
 5397SOL    HW117090   0.957   4.602   2.909 -0.8940  1.1118  0.0838
 5397SOL    HW217091   0.895   4.600   3.060  1.1720 -0.3676  0.9528
 5398SOL     OW17092   2.775   2.335   3.625  0.5933  0.3750 -0.3846
 5398SOL    HW117093   2.682   2.305   3.646  0.3878  1.5349  0.3980
 5398SOL    HW217094   2.782   2.434   3.635  2.5324  0.0919  2.0376
 5399SOL     OW17095   4.437   6.460   1.326  0.5839 -0.5496  0.1712
 5399SOL    HW117096   4.404   6.417   1.410  0.9188 -0.2726  0.4456
 5399SOL    HW217097   4.424   6.559   1.332 -0.3062 -0.6020 -0.5100
 5400SOL     OW17098   3.709   3.590   0.081 -0.2434  0.5002  0.1634
 5400SOL    HW117099   3.732   3.681   0.117 -1.0065  1.4289 -1.5689
 5400SOL    HW217100   3.627   3.556   0.127  0.0847  0.6399  0.8691
 5401SOL     OW17101   6.095   3.459   1.485 -0.3586  0.1128  0.2007
 5401SOL    HW117102   6.154   3.539   1.473  0.9246 -0.8445 -0.0869
 5401SOL    HW217103   6.000   3.488   1.495  0.3583  1.8866  2.9090
 5402SOL     OW17104   1.777   5.407   2.979 -0.0638 -0.2667 -0.0725
 5402SOL    HW117105   1.818   5.344   3.044 -1.2062 -2.1930 -1.1136
 5402SOL    HW217106   1.681   5.382   2.964 -0.1964  0.9412 -1.4854
 5403SOL     OW17107   4.653   1.301   4.890  0.6710 -0.4021 -0.4219
 5403SOL    HW117108   4.574   1.354   4.860  1.7673  1.5828  0.0473
 5403SOL    HW217109   4.688   1.248   4.814 -0.3253 -0.3144 -0.9676
 5404SOL     OW17110   6.058   1.019   2.386  0.0844 -0.2602 -0.6228
 5404SOL    HW117111   6.109   1.017   2.300 -0.3354  0.1208 -0.8859
 5404SOL    HW217112   6.010   1.107   2.394  0.8850  0.0921  0.4542
 5405SOL     OW17113   5.834   4.725   2.192 -0.3467  0.0904 -0.0017
 5405SOL    HW117114   5.781   4.798   2.237 -1.7331 -0.4509 -0.7042
 5405SOL    HW217115   5.836   4.644   2.250  0.9767  0.5597  0.6631
 5406SOL     OW17116   3.438   6.630   6.404 -1.0016 -0.1898 -0.3579
 5406SOL    HW117117   3.496   6.570   6.460 -0.7012  0.7435  0.3653
 5406SOL    HW217118   3.435   6.596   6.311 -1.1231 -1.5193  0.1169
 5407SOL     OW17119   4.073   1.231   0.702 -0.1446 -0.0073  0.1969
 5407SOL    HW117120   4.133   1.309   0.718 -0.4615  0.7971 -2.2371
 5407SOL    HW217121   4.021   1.212   0.786  1.1579  1.2791  1.3614
 5408SOL     OW17122   3.451   1.346   6.470  0.5530 -0.2486 -0.0085
 5408SOL    HW117123   3.474   1.429   6.521  0.4170 -1.1644  1.6223
 5408SOL    HW217124   3.360   1.355   6.431  1.6162  1.4709 -2.3343
 5409SOL     OW17125   6.197   3.173   3.974 -0.1759 -0.6983 -0.5104
 5409SOL    HW117126   6.131   3.234   3.929 -0.5549 -1.4776 -1.0441
 5409SOL    HW217127   6.163   3.150   4.066  0.9719  1.5121  0.5441
 5410SOL     OW17128   2.395   2.778   0.807 -0.3913 -0.3022 -0.6476
 5410SOL    HW117129   2.478   2.724   0.796 -0.7304 -1.0693  0.4398
 5410SOL    HW217130   2.420   2.872   0.834  0.1570 -0.1357 -1.6748
 5411SOL     OW17131   5.929   5.203   4.603  0.0807  0.5978  0.2231
 5411SOL    HW117132   5.859   5.273   4.615 -0.2927  0.2512  0.0904
 5411SOL    HW217133   5.965   5.176   4.693 -1.2149 -0.4856  0.4481
 5412SOL     OW17134   4.217   0.280   6.686 -0.2177  0.7623  0.2117
 5412SOL    HW117135   4.275   0.264   6.606  0.1054 -0.4457  0.6694
 5412SOL    HW217136   4.168   0.196   6.708 -0.5310  1.1759  1.1129
 5413SOL     OW17137   4.952   0.624   1.556 -0.3105  0.0813 -0.2590
 5413SOL    HW117138   4.890   0.631   1.634  0.1537 -3.0181  0.4985
 5413SOL    HW217139   5.045   0.607   1.589  0.9361  3.6699 -1.4093
 5414SOL     OW17140   5.235   3.388   4.829 -0.0482  0.0753  0.3003
 5414SOL    HW117141   5.302   3.391   4.756  0.5238 -0.9599  0.7569
 5414SOL    HW217142   5.164   3.320   4.806  0.6400 -0.9499  1.0909
 5415SOL     OW17143   1.831   0.350   2.299  0.2436 -0.1998  0.1402
 5415SOL    HW117144   1.774   0.399   2.233  0.5131 -0.6673 -0.4516
 5415SOL    HW217145   1.877   0.274   2.252  0.4294 -0.5408  0.8726
 5416SOL     OW17146   4.248   5.829   5.685  0.6894  0.1517  0.0015
 5416SOL    HW117147   4.199   5.749   5.718  3.6194 -0.6025  3.1381
 5416SOL    HW217148   4.306   5.803   5.608  1.7153 -0.8576  1.0769
 5417SOL     OW17149   3.243   6.292   5.674 -0.1277 -0.1103  0.1972
 5417SOL    HW117150   3.308   6.253   5.739 -1.4087 -0.8469  1.0949
 5417SOL    HW217151   3.154   6.249   5.687 -0.1386 -1.2939 -2.9993
 5418SOL     OW17152   6.972   0.094   4.157  0.1988 -0.2578  0.2176
 5418SOL    HW117153   6.970   0.144   4.071 -0.6550 -1.9801 -0.8221
 5418SOL    HW217154   6.912   0.138   4.223  0.4240  0.7666 -0.2495
 5419SOL     OW17155   2.985   5.079   2.315  0.1505  0.1901  0.1200
 5419SOL    HW117156   3.074   5.112   2.283 -0.1914  0.4510 -0.5584
 5419SOL    HW217157   2.987   4.979   2.320 -0.0027  0.0870 -1.3831
 5420SOL     OW17158   2.250   4.199   3.870  0.0989  0.4097 -0.0589
 5420SOL    HW117159   2.269   4.213   3.967  0.1107  0.3454 -0.0523
 5420SOL    HW217160   2.228   4.103   3.853 -0.8144  0.5939  0.0313
 5421SOL     OW17161   1.109   5.054   4.629 -0.1223  0.1626  0.0590
 5421SOL    HW117162   1.049   4.975   4.644 -0.3571 -0.0753 -1.8467
 5421SOL    HW217163   1.093   5.122   4.701 -1.1837 -0.7693  0.7498
 5422SOL     OW17164   0.224   5.138   4.517 -0.7397 -0.2550 -0.0550
 5422SOL    HW117165   0.141   5.190   4.536 -0.9501 -0.1438 -1.2345
 5422SOL    HW217166   0.280   5.135   4.600 -2.1778 -0.8406  0.9457
 5423SOL     OW17167   6.414   2.941   6.890  0.6438 -0.4876 -0.3627
 5423SOL    HW117168   6.350   2.956   6.966  2.2922 -0.3381  1.0506
 5423SOL    HW217169   6.366   2.893   6.816 -0.6653 -2.0587  1.3778
 5424SOL     OW17170   5.747   4.375   4.017  0.0159 -0.3090 -0.3043
 5424SOL    HW117171   5.745   4.431   4.100 -0.1287  0.6146 -0.9127
 5424SOL    HW217172   5.755   4.435   3.937  0.1519 -1.1850 -0.9580
 5425SOL     OW17173   5.449   2.644   4.107  0.3023 -0.1154 -0.2354
 5425SOL    HW117174   5.418   2.732   4.142  2.2018  0.9557 -1.0663
 5425SOL    HW217175   5.482   2.655   4.013  0.0749 -1.8456 -0.5589
 5426SOL     OW17176   0.915   5.021   2.492  0.3418 -0.3388  0.2671
 5426SOL    HW117177   0.924   4.987   2.398  1.4379  1.8640 -0.4990
 5426SOL    HW217178   0.822   5.054   2.506  0.2550 -0.3962 -0.1462
 5427SOL     OW17179   4.788   4.515   1.289  0.6971 -0.1335  0.3804
 5427SOL    HW117180   4.856   4.485   1.354  1.3110  1.1684  0.3779
 5427SOL    HW217181   4.791   4.615   1.281 -0.8068 -0.0907 -0.0558
 5428SOL     OW17182   5.946   0.475   2.311  0.7160 -0.5731 -0.3097
 5428SOL    HW117183   5.877   0.547   2.324 -0.5394 -1.8631  0.5476
 5428SOL    HW217184   6.007   0.472   2.390  1.7287  0.4965 -1.0191
 5429SOL     OW17185   2.148   1.436   4.377  0.0279  0.5159  0.2919
 5429SOL    HW117186   2.210   1.442   4.299  0.4278 -1.6363  0.3856
 5429SOL    HW217187   2.054   1.422   4.344 -0.4680  3.4547  0.1606
 5430SOL     OW17188   2.163   2.629   0.850 -0.2036 -0.0855  0.7066
 5430SOL    HW117189   2.154   2.530   0.844 -1.7349  0.1379 -2.7331
 5430SOL    HW217190   2.248   2.658   0.804  0.1970  0.2290  1.6229
 5431SOL     OW17191   3.009   5.334   0.153  0.3591  0.2842  1.2859
 5431SOL    HW117192   3.062   5.333   0.238  0.6937  1.5690  1.1116
 5431SOL    HW217193   2.942   5.408   0.157  0.0599  0.0538  0.6154
 5432SOL     OW17194   4.596   6.512   5.076  0.2620  0.1137  0.3484
 5432SOL    HW117195   4.525   6.480   5.138 -0.3401  1.7218  0.5398
 5432SOL    HW217196   4.556   6.526   4.985  0.3845  0.7328  0.3826
 5433SOL     OW17197   0.097   1.699   4.652  0.2168  0.5338 -0.4324
 5433SOL    HW117198   0.023   1.765   4.638 -1.2190 -0.8480  0.2856
 5433SOL    HW217199   0.132   1.707   4.745 -1.5749 -1.1909  0.4634
 5434SOL     OW17200   2.932   6.595   4.340 -0.3240 -0.2279 -0.5246
 5434SOL    HW117201   2.971   6.617   4.250  0.2138  1.1979  0.0252
 5434SOL    HW217202   2.988   6.526   4.384  0.7258  0.6910 -0.3821
 5435SOL     OW17203   5.579   0.286   6.992  0.1395 -0.5331 -0.1532
 5435SOL    HW117204   5.667   0.259   7.030 -0.0539 -1.9441 -0.6542
 5435SOL    HW217205   5.545   0.215   6.931 -1.6328 -0.3047  0.4892
 5436SOL     OW17206   5.363   3.157   4.713 -0.1584 -0.1707  0.1457
 5436SOL    HW117207   5.396   3.117   4.627 -1.5528 -1.6595  0.2549
 5436SOL    HW217208   5.356   3.085   4.782  0.1488  0.8603  1.2782
 5437SOL     OW17209   0.997   4.340   5.064 -0.2146  0.0192 -0.5176
 5437SOL    HW117210   0.951   4.310   5.147  2.5428  0.0266  1.1215
 5437SOL    HW217211   1.001   4.440   5.062  0.0708  0.0106 -0.4404
 5438SOL     OW17212   4.572   4.877   3.704 -0.1443  0.4317 -0.1318
 5438SOL    HW117213   4.649   4.828   3.663  0.2800  1.1254 -0.1788
 5438SOL    HW217214   4.507   4.901   3.632 -0.1322  0.3410 -0.1742
 5439SOL     OW17215   0.965   3.593   0.596  0.0066  0.2024  0.1816
 5439SOL    HW117216   1.046   3.534   0.599  0.0155  0.1703 -0.4590
 5439SOL    HW217217   0.890   3.550   0.647 -0.9920 -1.9629 -2.7820
 5440SOL     OW17218   1.499   0.015   2.690 -0.4510  0.0463 -0.1578
 5440SOL    HW117219   1.508   0.032   2.788 -0.8573 -1.6713  0.1928
 5440SOL    HW217220   1.539   0.093   2.640 -0.5980  1.1328  1.3378
 5441SOL     OW17221   5.276   3.430   3.193  0.4133  0.6862  0.3686
 5441SOL    HW117222   5.324   3.472   3.116 -0.8512  4.1593  1.2786
 5441SOL    HW217223   5.321   3.457   3.279  0.3810 -1.1088  0.9907
 5442SOL     OW17224   4.295   0.757   4.412 -0.1111  0.5038 -0.7519
 5442SOL    HW117225   4.308   0.665   4.375  2.2592  0.9524 -1.1833
 5442SOL    HW217226   4.373   0.814   4.387 -2.3191  3.1914 -2.0293
 5443SOL     OW17227   4.335   5.504   2.607  0.1151  0.2450  0.0561
 5443SOL    HW117228   4.373   5.424   2.654  0.1590  0.2407  0.0124
 5443SOL    HW217229   4.347   5.585   2.664  2.2677  0.6731 -0.9309
 5444SOL     OW17230   2.236   1.991   2.676 -0.0202 -0.1826  0.2584
 5444SOL    HW117231   2.209   1.909   2.725 -1.2608  0.8456  1.3829
 5444SOL    HW217232   2.296   1.967   2.599 -1.3704 -2.2407 -0.2137
 5445SOL     OW17233   5.502   3.107   4.278 -0.2069  0.2624  0.6798
 5445SOL    HW117234   5.404   3.129   4.273 -0.4984 -1.0891 -0.0771
 5445SOL    HW217235   5.555   3.187   4.252 -1.1294  0.8716  0.6220
 5446SOL     OW17236   5.107   5.639   4.804 -0.0106 -0.1481 -0.9276
 5446SOL    HW117237   5.070   5.546   4.802  0.6187 -0.4105 -0.6342
 5446SOL    HW217238   5.036   5.703   4.775 -0.1517 -0.8110 -2.0988
 5447SOL     OW17239   0.957   2.107   5.975  0.3494  0.6482 -0.0300
 5447SOL    HW117240   0.945   2.178   6.045 -0.6381  0.4487  0.0234
 5447SOL    HW217241   1.002   2.146   5.895  0.5498  1.1359  0.3147
 5448SOL     OW17242   5.420   3.806   3.666 -0.1308 -0.3446  0.0598
 5448SOL    HW117243   5.393   3.878   3.603 -0.4617 -1.5940 -1.2880
 5448SOL    HW217244   5.357   3.803   3.743 -0.0041  0.8995  0.2243
 5449SOL     OW17245   2.166   1.238   5.840 -0.0301  0.1849 -0.6337
 5449SOL    HW117246   2.135   1.173   5.771  1.0261  0.9685 -1.9037
 5449SOL    HW217247   2.265   1.228   5.852 -0.0104  0.9062 -0.1365
 5450SOL     OW17248   1.596   1.762   0.885  0.0930  0.4237 -0.6821
 5450SOL    HW117249   1.670   1.713   0.929 -0.6934 -0.5524 -0.4090
 5450SOL    HW217250   1.567   1.839   0.942  1.1188  1.0365 -0.9659
 5451SOL     OW17251   2.821   5.449   3.469 -0.0484  0.0762  0.0217
 5451SOL    HW117252   2.799   5.495   3.383  1.1747 -1.0072 -0.9231
 5451SOL    HW217253   2.895   5.383   3.453  0.2677 -0.0880  1.9359
 5452SOL     OW17254   2.318   4.295   0.201 -0.0534 -0.3095  0.0122
 5452SOL    HW117255   2.330   4.376   0.144 -1.9059 -0.5819 -0.8559
 5452SOL    HW217256   2.376   4.221   0.166 -1.2369 -0.5011 -1.6520
 5453SOL     OW17257   6.536   4.605   0.477 -0.2827  0.1657 -0.9153
 5453SOL    HW117258   6.609   4.610   0.408 -0.2227  1.2142 -0.7849
 5453SOL    HW217259   6.488   4.517   0.468  0.6561 -0.3134 -1.3397
 5454SOL     OW17260   0.427   4.220   5.759  0.1902 -0.3000 -0.0831
 5454SOL    HW117261   0.489   4.155   5.804 -0.4236 -0.2501  0.8686
 5454SOL    HW217262   0.422   4.304   5.814 -0.0345  0.0468 -0.6251
 5455SOL     OW17263   0.865   2.722   3.969  0.3870 -0.2224  0.3596
 5455SOL    HW117264   0.852   2.651   3.900 -0.1070  1.0719 -0.9459
 5455SOL    HW217265   0.782   2.732   4.023  0.7999 -1.2918  1.2097
 5456SOL     OW17266   1.148   6.716   1.385  0.1141  0.5514 -0.2783
 5456SOL    HW117267   1.109   6.626   1.365  1.6587 -0.0900 -0.5285
 5456SOL    HW217268   1.089   6.787   1.347 -1.5892 -0.2921  0.6766
 5457SOL     OW17269   0.399   4.071   0.629 -0.2145 -0.1853 -0.1300
 5457SOL    HW117270   0.423   4.115   0.543  0.6103 -0.9215 -0.2985
 5457SOL    HW217271   0.300   4.059   0.635 -0.3270  0.4476 -0.6860
 5458SOL     OW17272   0.819   5.240   1.243  0.5833  0.9425 -0.2756
 5458SOL    HW117273   0.885   5.271   1.175  0.4879  0.7443 -0.4597
 5458SOL    HW217274   0.746   5.189   1.198  1.6208 -1.0587  0.1873
 5459SOL     OW17275   2.071   2.929   6.507  0.1689 -0.4066 -0.3952
 5459SOL    HW117276   1.974   2.929   6.483  0.4430  0.0131 -1.5690
 5459SOL    HW217277   2.081   2.934   6.606 -1.0053  1.8621 -0.3261
 5460SOL     OW17278   3.709   1.577   3.573 -0.1891  0.5671 -0.1920
 5460SOL    HW117279   3.788   1.599   3.630  0.2914 -0.7160 -0.3250
 5460SOL    HW217280   3.629   1.562   3.630  1.1061 -4.7345  0.8073
 5461SOL     OW17281   0.787   0.994   5.667 -0.1065  0.2278  1.0836
 5461SOL    HW117282   0.740   0.914   5.628  0.4164  0.1984  0.4985
 5461SOL    HW217283   0.818   1.054   5.594  0.3969  0.4627  1.4799
 5462SOL     OW17284   6.430   6.089   1.423  0.4155 -0.9532 -0.1744
 5462SOL    HW117285   6.340   6.122   1.453  1.8173  1.5280  1.7313
 5462SOL    HW217286   6.470   6.032   1.495  0.3151 -2.2908 -1.1361
 5463SOL     OW17287   0.594   1.821   1.185  0.7553 -0.1717  0.0496
 5463SOL    HW117288   0.601   1.872   1.099 -1.2329 -0.2290 -0.1856
 5463SOL    HW217289   0.684   1.816   1.228  1.4640  1.3327 -1.1749
 5464SOL     OW17290   6.409   0.327   4.367 -0.0813 -0.5467 -0.1253
 5464SOL    HW117291   6.323   0.292   4.330 -0.5051  1.9734 -1.7343
 5464SOL    HW217292   6.483   0.308   4.303  0.3957 -1.6965  0.7313
 5465SOL     OW17293   4.550   6.497   4.195  0.5215  0.1066 -0.0334
 5465SOL    HW117294   4.455   6.491   4.225  0.4353  3.8115  0.8846
 5465SOL    HW217295   4.563   6.580   4.141  3.4148  0.1971  0.6209
 5466SOL     OW17296   5.249   1.204   4.634  0.2915 -0.0198  0.7689
 5466SOL    HW117297   5.344   1.236   4.636  0.2235  0.1615  1.3038
 5466SOL    HW217298   5.224   1.180   4.540  1.6532 -2.4503  0.9319
 5467SOL     OW17299   4.368   5.728   2.752 -0.1530 -0.5283  0.1402
 5467SOL    HW117300   4.418   5.728   2.838  0.2925  0.9560 -0.0868
 5467SOL    HW217301   4.330   5.819   2.735 -0.1123 -0.7480 -1.2920
 5468SOL     OW17302   6.014   2.431   3.845  0.4568 -0.1141  0.4066
 5468SOL    HW117303   5.951   2.378   3.788  0.5008 -1.2731  1.3791
 5468SOL    HW217304   6.053   2.506   3.792 -0.5809 -0.3013 -0.6501
 5469SOL     OW17305   1.893   5.599   5.981 -0.0000 -0.0067 -0.0921
 5469SOL    HW117306   1.929   5.692   5.996 -0.8127  0.2793  0.1035
 5469SOL    HW217307   1.796   5.604   5.959  0.0864 -0.7765 -0.6850
 5470SOL     OW17308   2.132   6.979   2.471  0.2854  0.4296 -0.5280
 5470SOL    HW117309   2.175   6.889   2.481  0.9036  0.7648 -0.1490
 5470SOL    HW217310   2.045   6.980   2.520  0.2235  0.0053 -0.6228
 5471SOL     OW17311   3.432   0.797   2.888 -0.1624  0.2827 -0.4827
 5471SOL    HW117312   3.497   0.874   2.887 -0.3681  0.5410  1.8811
 5471SOL    HW217313   3.339   0.833   2.883 -0.3048  0.3220  1.6341
 5472SOL     OW17314   3.278   4.649   1.241  0.2730  0.4592 -0.0408
 5472SOL    HW117315   3.350   4.671   1.306  1.5154  0.7849 -1.4644
 5472SOL    HW217316   3.299   4.690   1.152 -2.1441  1.3485 -0.2856
 5473SOL     OW17317   0.028   1.296   1.298  0.1938 -0.4284  0.3502
 5473SOL    HW117318  -0.016   1.317   1.386 -1.0337 -0.2201 -0.2919
 5473SOL    HW217319   0.114   1.345   1.292 -0.1652  0.3167  1.0412
 5474SOL     OW17320   0.692   4.681   2.776  0.7083  0.8300  0.3725
 5474SOL    HW117321   0.671   4.667   2.872  1.1277  0.4349  0.4110
 5474SOL    HW217322   0.636   4.756   2.740 -0.5770 -0.0347  0.5245
 5475SOL     OW17323   3.483   4.024   1.532 -0.5120  0.1277  0.6163
 5475SOL    HW117324   3.430   3.984   1.457 -1.7435  1.2124  0.8832
 5475SOL    HW217325   3.550   3.957   1.564  1.5669  0.3384 -2.8188
 5476SOL     OW17326   3.838   3.808   5.629  0.8710 -0.1815 -0.1317
 5476SOL    HW117327   3.887   3.777   5.710  0.1695 -2.8341 -0.6276
 5476SOL    HW217328   3.904   3.836   5.559  1.5009  0.9871  0.8815
 5477SOL     OW17329   1.140   4.630   2.245  0.6492  0.4999 -0.1273
 5477SOL    HW117330   1.197   4.705   2.211  0.1072  1.4883  1.0756
 5477SOL    HW217331   1.067   4.610   2.180 -0.5727  2.5842  0.5174
 5478SOL     OW17332   4.040   5.510   2.505  0.6153  0.4350  0.2102
 5478SOL    HW117333   4.094   5.581   2.461 -0.8803  2.0255  0.8066
 5478SOL    HW217334   4.050   5.517   2.604 -0.3810  0.5189  0.3151
 5479SOL     OW17335   4.718   1.167   6.771 -0.6213 -0.1340 -0.4351
 5479SOL    HW117336   4.660   1.088   6.791 -0.5749  0.2822  1.5782
 5479SOL    HW217337   4.737   1.217   6.856  1.2620  0.7314 -1.3022
 5480SOL     OW17338   6.857   4.584   2.183  0.4922  0.2253  0.4725
 5480SOL    HW117339   6.910   4.649   2.128  0.5548 -0.5995 -0.4815
 5480SOL    HW217340   6.876   4.599   2.280  1.6982  0.6121  0.1979
 5481SOL     OW17341   6.598   2.173   5.057  0.1533 -0.1112 -0.5900
 5481SOL    HW117342   6.538   2.151   4.980 -1.6831  2.5362 -0.0602
 5481SOL    HW217343   6.671   2.234   5.026 -0.2813  0.5345 -0.3662
 5482SOL     OW17344   4.508   4.134   1.479 -0.3200 -0.4747  0.0920
 5482SOL    HW117345   4.595   4.089   1.459 -0.2076 -0.6601  0.9471
 5482SOL    HW217346   4.440   4.108   1.410  0.4665  0.2093 -0.9792
 5483SOL     OW17347   0.234   0.477   5.834 -0.4363  0.0860 -0.3669
 5483SOL    HW117348   0.256   0.385   5.801 -0.4874 -0.3399  0.7588
 5483SOL    HW217349   0.246   0.542   5.759  1.1799 -0.6057 -0.7617
 5484SOL     OW17350   4.506   6.736   5.863 -0.2313 -0.4106  0.3189
 5484SOL    HW117351   4.526   6.692   5.951 -0.1501 -0.5592  0.2248
 5484SOL    HW217352   4.407   6.751   5.855 -0.0268  2.5076  1.8536
 5485SOL     OW17353   4.636   0.342   2.760 -0.2208 -0.0167 -0.3952
 5485SOL    HW117354   4.565   0.333   2.690 -1.9230 -1.2141  1.3934
 5485SOL    HW217355   4.718   0.292   2.731 -0.8355 -0.3734 -1.5791
 5486SOL     OW17356   0.818   4.821   4.739  0.2898  0.3911  0.1565
 5486SOL    HW117357   0.771   4.770   4.666 -0.0618  1.8321 -0.6639
 5486SOL    HW217358   0.912   4.790   4.746  0.0932 -0.3531 -0.3402
 5487SOL     OW17359   5.381   3.279   6.169  0.5914  0.1579  0.8926
 5487SOL    HW117360   5.308   3.298   6.234  0.0298 -0.4788  0.4682
 5487SOL    HW217361   5.397   3.180   6.165  1.3255  0.2750  0.8157
 5488SOL     OW17362   5.184   6.658   2.003 -0.2763  0.1712  0.0039
 5488SOL    HW117363   5.180   6.601   2.085  1.5884 -1.7648 -1.1343
 5488SOL    HW217364   5.096   6.657   1.957 -1.1622  0.7777  1.5973
 5489SOL     OW17365   1.115   3.145   0.872  0.2497 -0.3836  0.7270
 5489SOL    HW117366   1.045   3.075   0.858 -1.3672  1.2437  0.3080
 5489SOL    HW217367   1.079   3.216   0.933  1.0730  1.0848 -0.4389
 5490SOL     OW17368   3.076   1.894   3.332  0.6749 -0.0574  0.3443
 5490SOL    HW117369   3.076   1.986   3.372  2.5981  0.1915 -0.1365
 5490SOL    HW217370   3.006   1.839   3.376  1.7198  0.6324  3.0932
 5491SOL     OW17371   1.453   4.228   6.295  0.2042  0.1820 -0.4692
 5491SOL    HW117372   1.399   4.151   6.260  0.4842 -0.1801 -0.1107
 5491SOL    HW217373   1.427   4.311   6.247 -2.1892  0.4331  1.0748
 5492SOL     OW17374   6.380   5.235   4.617 -1.3207  0.1283  0.0740
 5492SOL    HW117375   6.313   5.165   4.593 -0.6439 -1.0470  1.3919
 5492SOL    HW217376   6.381   5.247   4.717  0.7107 -0.2403  0.1524
 5493SOL     OW17377   3.354   3.525   3.440  0.0621 -0.2188  0.2123
 5493SOL    HW117378   3.298   3.445   3.416  0.1094 -0.3069  0.3936
 5493SOL    HW217379   3.414   3.501   3.516  0.1140 -0.0237  0.2313
 5494SOL     OW17380   0.245   6.096   6.093 -0.0063  0.2061  0.5439
 5494SOL    HW117381   0.309   6.092   6.017 -0.5482  2.2081 -0.0740
 5494SOL    HW217382   0.158   6.054   6.066  0.3449 -0.6229  0.6701
 5495SOL     OW17383   5.378   0.324   2.819  0.1779  0.0987  0.5521
 5495SOL    HW117384   5.348   0.374   2.737  0.7762  1.0343  0.8800
 5495SOL    HW217385   5.478   0.316   2.818  0.2263  0.5150  1.4021
 5496SOL     OW17386   4.253   0.001   4.618  0.2407  0.1358  0.4971
 5496SOL    HW117387   4.286  -0.091   4.598  0.7050  0.3890  0.0996
 5496SOL    HW217388   4.325   0.067   4.599  0.3939  0.4695  2.1064
 5497SOL     OW17389   5.971   4.242   5.812 -0.2410  0.0792  0.2171
 5497SOL    HW117390   6.044   4.298   5.772  0.9725 -1.3040  0.4034
 5497SOL    HW217391   5.898   4.301   5.844  0.5921  1.4934 -0.3740
 5498SOL     OW17392   1.059   5.465   1.962  0.3139  0.0738  0.8195
 5498SOL    HW117393   1.016   5.545   1.919 -1.3099 -0.8409  0.6682
 5498SOL    HW217394   1.157   5.482   1.971  0.3218  1.3242 -0.9275
 5499SOL     OW17395   0.697   2.608   5.189 -0.1033  0.1533 -0.6553
 5499SOL    HW117396   0.653   2.697   5.186  0.0096  0.3123  1.2685
 5499SOL    HW217397   0.649   2.549   5.253  0.7914 -0.6285 -0.6795
 5500SOL     OW17398   1.924   6.934   6.408 -0.2675  0.2734 -0.1008
 5500SOL    HW117399   1.836   6.902   6.443  0.8449 -2.4127  0.5011
 5500SOL    HW217400   1.915   6.957   6.312 -1.9676  1.6903  0.3378
 5501SOL     OW17401   3.150   1.063   6.975 -0.5272 -0.1523  0.4946
 5501SOL    HW117402   3.056   1.081   6.946 -0.2761  0.1185 -0.1931
 5501SOL    HW217403   3.209   1.136   6.941 -0.1753  0.0656  1.5483
 5502SOL     OW17404   4.686   4.213   1.226 -0.3069  0.2129  0.6473
 5502SOL    HW117405   4.672   4.179   1.133  2.7033 -0.2616  0.2659
 5502SOL    HW217406   4.622   4.288   1.244 -2.3752 -1.0408 -0.9959
 5503SOL     OW17407   5.132   4.126   2.718  0.2954 -0.4585  0.3529
 5503SOL    HW117408   5.052   4.077   2.681  0.3237  1.5007 -2.6554
 5503SOL    HW217409   5.211   4.065   2.717 -0.3805 -1.3681 -0.0875
 5504SOL     OW17410   3.309   0.032   5.056 -0.3729 -0.2277 -0.1759
 5504SOL    HW117411   3.251   0.095   5.005 -2.0401 -2.2631 -0.9427
 5504SOL    HW217412   3.352  -0.032   4.993  1.7554  0.4235  0.5275
 5505SOL     OW17413   0.234   4.932   2.525 -0.1159  0.6764 -0.3349
 5505SOL    HW117414   0.181   5.006   2.567  0.5166  2.3209 -2.2165
 5505SOL    HW217415   0.314   4.971   2.480 -0.4240 -0.9861 -2.4866
 5506SOL     OW17416   1.464   4.150   1.001  0.2641  0.3018 -0.4104
 5506SOL    HW117417   1.493   4.061   1.036  0.9179  1.7956  3.2552
 5506SOL    HW217418   1.365   4.158   1.009  0.3687  0.4777  0.8470
 5507SOL     OW17419   4.262   1.707   4.669  0.1488 -0.1119  0.1645
 5507SOL    HW117420   4.261   1.607   4.669  1.3035 -0.1498  1.6308
 5507SOL    HW217421   4.354   1.739   4.648 -0.1263  0.6403  0.0967
 5508SOL     OW17422   1.878   6.978   6.123 -0.3369 -0.0143  0.3667
 5508SOL    HW117423   1.861   7.075   6.105  1.7855  0.6507  1.5282
 5508SOL    HW217424   1.848   6.924   6.044 -2.3655  1.4613  0.0493
 5509SOL     OW17425   0.503   0.656   5.827  0.6723  0.4285 -0.3802
 5509SOL    HW117426   0.519   0.685   5.733  0.1853 -0.0192 -0.6063
 5509SOL    HW217427   0.508   0.556   5.832 -1.2716  0.2977 -0.3312
 5510SOL     OW17428   4.933   6.727   1.443  0.4535 -0.2436 -0.0472
 5510SOL    HW117429   4.963   6.642   1.486  0.2043  0.0056  0.6205
 5510SOL    HW217430   4.965   6.805   1.496  2.4126  0.1823 -1.7058
 5511SOL     OW17431   1.715   0.168   3.206 -0.3531  0.5103 -0.2353
 5511SOL    HW117432   1.790   0.158   3.272 -1.1044  0.2770  0.5913
 5511SOL    HW217433   1.632   0.197   3.253 -1.7005 -2.4556 -0.5600
 5512SOL     OW17434   3.896   0.957   0.516  0.2568 -0.0527 -0.6099
 5512SOL    HW117435   3.930   0.957   0.422 -1.2741  0.9861 -1.2060
 5512SOL    HW217436   3.921   1.043   0.561  0.8821 -0.4968 -0.0914
 5513SOL     OW17437   2.792   4.307   5.878 -0.5015 -0.3061  0.1494
 5513SOL    HW117438   2.817   4.270   5.789 -0.7525 -1.4585  0.5384
 5513SOL    HW217439   2.803   4.236   5.948 -0.0663  0.6454  1.0818
 5514SOL     OW17440   3.980   6.373   5.581 -0.1917  0.7292 -0.4673
 5514SOL    HW117441   4.015   6.279   5.580  0.9785  1.1514 -0.5801
 5514SOL    HW217442   3.925   6.387   5.664  0.6074  0.2846  0.1559
 5515SOL     OW17443   1.256   6.784   0.715  0.3876 -0.0898  0.0535
 5515SOL    HW117444   1.271   6.850   0.789  0.4996 -2.5660  2.4012
 5515SOL    HW217445   1.158   6.773   0.700  0.3384 -0.2269  0.4701
 5516SOL     OW17446   1.955   3.359   5.963  0.4707  0.4773  0.1119
 5516SOL    HW117447   2.043   3.401   5.984  2.0195 -2.1150 -0.6761
 5516SOL    HW217448   1.936   3.286   6.029  0.1256 -0.5507 -1.0643
 5517SOL     OW17449   2.023   4.453   1.269 -0.0760 -0.4035 -0.3217
 5517SOL    HW117450   2.073   4.491   1.347 -0.0593  0.3749 -0.6944
 5517SOL    HW217451   2.033   4.354   1.268  0.6153 -0.3507  0.1876
 5518SOL     OW17452   6.568   6.801   5.691 -0.0392  0.1290 -0.6278
 5518SOL    HW117453   6.503   6.855   5.638  0.7890  1.2084 -0.5619
 5518SOL    HW217454   6.518   6.738   5.751 -0.9972 -0.2950 -1.8228
 5519SOL     OW17455   5.298   2.781   3.263 -0.0204 -0.3367 -0.0998
 5519SOL    HW117456   5.208   2.753   3.229  0.0660 -0.7923  0.0386
 5519SOL    HW217457   5.369   2.756   3.197  0.0974 -0.7994  0.1986
 5520SOL     OW17458   5.230   6.714   3.394  0.1274 -0.4206 -0.2468
 5520SOL    HW117459   5.322   6.745   3.417  0.4247  0.0677 -1.9181
 5520SOL    HW217460   5.188   6.671   3.474  1.7994 -0.6693  0.5438
 5521SOL     OW17461   6.531   6.967   2.020  0.2614 -0.4005 -0.1963
 5521SOL    HW117462   6.518   7.064   2.040  1.9137  0.1674 -1.6492
 5521SOL    HW217463   6.530   6.915   2.106  2.1662  1.2763  0.9256
 5522SOL     OW17464   6.147   2.272   6.858 -0.4072 -0.4013 -0.1466
 5522SOL    HW117465   6.167   2.370   6.860 -3.0864  0.2520 -0.4186
 5522SOL    HW217466   6.076   2.251   6.926  0.7135 -2.3460  0.4981
 5523SOL     OW17467   4.097   2.357   0.688  0.6285 -0.4162  0.3137
 5523SOL    HW117468   4.112   2.295   0.765 -3.3928  0.1906  1.8253
 5523SOL    HW217469   4.066   2.446   0.722  1.0771  0.6889 -1.9857
 5524SOL     OW17470   3.954   1.253   3.489  0.3448 -0.8818 -0.0540
 5524SOL    HW117471   4.040   1.292   3.522 -0.4178  1.8289 -0.9807
 5524SOL    HW217472   3.904   1.322   3.437 -2.5144 -2.2871  0.6104
 5525SOL     OW17473   1.564   3.132   0.707 -0.6624 -0.3194 -0.6448
 5525SOL    HW117474   1.625   3.055   0.727  0.0641  0.5901  0.7359
 5525SOL    HW217475   1.616   3.207   0.667 -0.3778  1.2326  2.3763
 5526SOL     OW17476   5.224   4.372   2.651 -0.1305  0.5212 -0.0472
 5526SOL    HW117477   5.191   4.394   2.559  1.4454 -1.0716 -1.0476
 5526SOL    HW217478   5.196   4.279   2.675 -1.9834  1.4834  1.8519
 5527SOL     OW17479   4.711   4.637   2.608  0.6752  0.0090 -0.2604
 5527SOL    HW117480   4.648   4.601   2.676  0.1083  1.7644  0.1902
 5527SOL    HW217481   4.805   4.629   2.642  0.4148  0.6441  0.6360
 5528SOL     OW17482   3.602   6.777   6.948 -0.4610 -0.3689 -0.2743
 5528SOL    HW117483   3.611   6.873   6.918  0.7243 -0.6611 -0.9488
 5528SOL    HW217484   3.537   6.772   7.023 -1.4252  0.8055 -0.9752
 5529SOL     OW17485   1.935   5.102   4.985 -0.1296  0.0127 -0.1782
 5529SOL    HW117486   1.842   5.100   5.022 -0.2129 -2.1428 -0.3673
 5529SOL    HW217487   1.982   5.016   5.006  1.3529  0.4933 -1.2769
 5530SOL     OW17488   6.581   2.648   0.111 -0.3226  0.1791 -0.1228
 5530SOL    HW117489   6.598   2.709   0.033  1.4223  0.0503  0.1175
 5530SOL    HW217490   6.546   2.561   0.077  1.6744 -0.3665 -0.9726
 5531SOL     OW17491   4.458   3.476   0.255  0.1901  0.2376  0.5739
 5531SOL    HW117492   4.371   3.511   0.291 -0.3890  0.5905 -1.0833
 5531SOL    HW217493   4.529   3.546   0.267 -0.2198  0.7314  0.1880
 5532SOL     OW17494   2.054   3.051   1.349  0.2809 -0.0121 -0.0558
 5532SOL    HW117495   2.001   3.046   1.265  0.1124 -1.1076  0.1030
 5532SOL    HW217496   2.125   2.981   1.348  0.9016  0.5920  0.3078
 5533SOL     OW17497   2.705   0.844   2.185 -0.2881  0.1122  0.0933
 5533SOL    HW117498   2.790   0.887   2.156 -0.1251  0.8068  1.4994
 5533SOL    HW217499   2.648   0.911   2.234 -0.5289 -0.9577  1.3483
 5534SOL     OW17500   2.358   1.590   0.650  0.1946  0.2365 -0.0514
 5534SOL    HW117501   2.289   1.553   0.588  1.4122 -0.1738 -1.2022
 5534SOL    HW217502   2.429   1.521   0.666 -0.0919  0.3329  1.8323
 5535SOL     OW17503   1.150   2.973   3.270 -0.3089 -0.2020 -0.1376
 5535SOL    HW117504   1.223   3.027   3.313  0.7084  0.3106 -2.3816
 5535SOL    HW217505   1.065   3.025   3.274 -0.2494 -0.1551  1.1702
 5536SOL     OW17506   5.111   0.918   2.256  0.1095 -0.4530  0.5608
 5536SOL    HW117507   5.138   0.851   2.325 -0.6255  0.4176  1.7321
 5536SOL    HW217508   5.151   0.892   2.167  1.9531 -1.0331  1.4952
 5537SOL     OW17509   1.543   1.822   3.580  0.0517  0.0750  0.0257
 5537SOL    HW117510   1.457   1.829   3.529 -0.9049  1.0887  1.6791
 5537SOL    HW217511   1.615   1.872   3.531 -0.6357  0.3628 -0.7048
 5538SOL     OW17512   3.424   5.145   5.945 -0.4441 -0.0863  0.5976
 5538SOL    HW117513   3.335   5.190   5.934 -1.9354 -2.5338  1.7725
 5538SOL    HW217514   3.470   5.140   5.857 -2.6209 -0.9208 -0.5634
 5539SOL     OW17515   1.159   2.520   1.325 -0.4428 -0.1894  0.6273
 5539SOL    HW117516   1.161   2.438   1.384 -0.4645  0.6984  1.9041
 5539SOL    HW217517   1.137   2.600   1.381 -0.4975  0.6868 -0.6220
 5540SOL     OW17518   3.376   6.868   4.891 -0.1438 -0.4529  0.0579
 5540SOL    HW117519   3.307   6.889   4.821 -0.9552 -0.9312  0.6838
 5540SOL    HW217520   3.365   6.772   4.919  4.0474 -2.2906 -3.4258
 5541SOL     OW17521   4.201   6.351   0.011 -0.2329 -0.0257 -0.2683
 5541SOL    HW117522   4.229   6.301  -0.071 -0.3804 -2.8388  1.2702
 5541SOL    HW217523   4.273   6.413   0.039  0.1628  0.3546 -2.0271
 5542SOL     OW17524   5.143   4.422   0.155  0.4264 -0.0192 -0.0516
 5542SOL    HW117525   5.087   4.342   0.132  1.7109 -0.6815 -0.9723
 5542SOL    HW217526   5.230   4.417   0.107  1.6156  0.5976  1.9011
 5543SOL     OW17527   4.038   5.256   0.712  0.0213 -0.5943  0.1778
 5543SOL    HW117528   4.114   5.281   0.652 -1.3060  0.5892 -1.0786
 5543SOL    HW217529   3.998   5.339   0.751 -1.0527 -1.1518  0.2849
 5544SOL     OW17530   5.541   3.745   6.383 -0.1911 -0.4355  0.3867
 5544SOL    HW117531   5.475   3.718   6.313  0.5421 -1.2832 -0.0050
 5544SOL    HW217532   5.630   3.703   6.362  0.8842  1.9024  0.0376
 5545SOL     OW17533   3.924   0.378   1.070  0.2730  1.2378  0.2456
 5545SOL    HW117534   3.922   0.330   0.982 -0.0178 -2.8735  2.2881
 5545SOL    HW217535   3.834   0.416   1.089 -0.4563 -0.2309 -0.1002
 5546SOL     OW17536   0.096   1.979   3.567 -0.4409 -0.0966  0.3540
 5546SOL    HW117537   0.116   1.886   3.597 -0.2321 -0.1603  0.0268
 5546SOL    HW217538   0.039   1.976   3.485 -0.5542  0.0644  0.4272
 5547SOL     OW17539   3.326   4.974   4.065  0.6738  0.0808  0.0210
 5547SOL    HW117540   3.322   5.026   4.150 -1.4008  0.0923 -0.0218
 5547SOL    HW217541   3.396   4.903   4.072  0.9121  0.4356  1.5265
 5548SOL     OW17542   5.525   1.149   0.696  0.1805  0.7318 -0.4523
 5548SOL    HW117543   5.587   1.072   0.712  0.3549  0.9406 -0.1203
 5548SOL    HW217544   5.521   1.169   0.598  0.1831  0.3413 -0.5354
 5549SOL     OW17545   4.265   5.364   1.786  0.0809 -0.3041  0.2854
 5549SOL    HW117546   4.258   5.438   1.720  0.9062 -0.9166 -0.5095
 5549SOL    HW217547   4.309   5.398   1.869  1.4925 -0.1518 -0.4942
 5550SOL     OW17548   3.260   5.225   3.336  0.5091 -0.2320 -0.0014
 5550SOL    HW117549   3.187   5.162   3.311  0.4235  0.2408 -0.9972
 5550SOL    HW217550   3.222   5.316   3.355  0.6213 -0.4784  1.4985
 5551SOL     OW17551   4.256   0.449   3.984 -0.2760  0.0914 -0.1893
 5551SOL    HW117552   4.317   0.424   4.060 -1.1912 -1.5021  0.0760
 5551SOL    HW217553   4.194   0.373   3.965 -1.5080  1.2806 -1.1322
 5552SOL     OW17554   6.149   6.784   1.341  0.1923 -0.9436  0.0231
 5552SOL    HW117555   6.236   6.817   1.305  0.2659 -1.0220  0.1264
 5552SOL    HW217556   6.140   6.686   1.322  0.3667 -1.0499  0.4762
 5553SOL     OW17557   3.782   5.869   1.582  0.3988 -0.5059  0.9800
 5553SOL    HW117558   3.703   5.912   1.626  1.6940  1.3393  1.6813
 5553SOL    HW217559   3.836   5.940   1.536  1.3387 -1.7994  0.0395
 5554SOL     OW17560   4.113   1.204   5.332  0.1519  0.0004 -0.0266
 5554SOL    HW117561   4.207   1.226   5.305 -0.2636  2.7717  0.5248
 5554SOL    HW217562   4.115   1.133   5.403  1.8113 -0.1866 -0.2185
 5555SOL     OW17563   0.424   5.396   4.227 -0.6308 -0.3173  0.5420
 5555SOL    HW117564   0.424   5.473   4.162 -1.6884  1.7016  2.8111
 5555SOL    HW217565   0.497   5.333   4.202  1.5224  2.3410 -0.4232
 5556SOL     OW17566   6.949   1.944   4.582  0.3985  0.2147  0.0541
 5556SOL    HW117567   6.866   1.973   4.535  1.2542  1.3885 -0.8078
 5556SOL    HW217568   7.024   1.938   4.517  1.3379  0.6704  1.0564
 5557SOL     OW17569   4.576   4.984   4.836  0.3423 -0.0728 -0.3730
 5557SOL    HW117570   4.621   4.895   4.834 -0.0233 -0.2567 -1.2896
 5557SOL    HW217571   4.524   4.994   4.920  0.4195 -0.7119 -0.2491
 5558SOL     OW17572   5.719   3.466   5.480 -0.4087  0.2272  0.7191
 5558SOL    HW117573   5.781   3.530   5.526  0.3225 -0.1404  0.2595
 5558SOL    HW217574   5.625   3.492   5.499 -0.1266  1.4329  0.5582
 5559SOL     OW17575   1.562   6.606   3.618  0.0427 -0.5278 -0.5685
 5559SOL    HW117576   1.623   6.533   3.589  1.3028  0.3916 -0.3122
 5559SOL    HW217577   1.616   6.684   3.649 -1.2719  0.1895 -0.0101
 5560SOL     OW17578   0.416   6.296   2.906  0.4291 -0.6377  0.6125
 5560SOL    HW117579   0.322   6.316   2.879  0.3791 -1.6823 -0.0362
 5560SOL    HW217580   0.476   6.299   2.826  0.6608 -1.5987  0.7352
 5561SOL     OW17581   2.729   1.862   4.452  0.0370  0.4161 -0.6233
 5561SOL    HW117582   2.799   1.933   4.457 -1.4371  1.9392 -0.5547
 5561SOL    HW217583   2.720   1.817   4.540 -0.4367  1.6220 -0.0320
 5562SOL     OW17584   0.709   1.883   6.283 -0.2846  0.1647 -0.2255
 5562SOL    HW117585   0.684   1.976   6.259  0.0018  0.6046  1.0848
 5562SOL    HW217586   0.806   1.869   6.262 -0.4769 -0.0538 -1.0048
 5563SOL     OW17587   5.654   2.173   3.783  0.3252  0.3302  0.0518
 5563SOL    HW117588   5.692   2.081   3.794 -0.6554  0.0260  1.1454
 5563SOL    HW217589   5.692   2.233   3.854 -0.0681  0.4153  0.1918
 5564SOL     OW17590   5.222   2.055   0.549  0.1688 -0.2878  0.4732
 5564SOL    HW117591   5.296   2.098   0.498  0.7611 -1.4212  0.3450
 5564SOL    HW217592   5.138   2.060   0.495  0.2610  0.5690  0.4016
 5565SOL     OW17593   3.760   2.454   6.032 -0.1239  0.0966 -0.5934
 5565SOL    HW117594   3.801   2.363   6.039  0.7936  0.4894 -0.7154
 5565SOL    HW217595   3.771   2.502   6.119  0.8303  0.6649 -1.0035
 5566SOL     OW17596   1.130   5.559   6.662  0.1097  0.1415  0.0034
 5566SOL    HW117597   1.076   5.591   6.584 -0.4297 -0.3877  0.1436
 5566SOL    HW217598   1.084   5.584   6.747  1.1474  1.4941  0.1864
 5567SOL     OW17599   0.216   5.352   1.331 -0.4319  1.0176  0.1841
 5567SOL    HW117600   0.305   5.305   1.328 -0.4524  1.0278 -1.4352
 5567SOL    HW217601   0.229   5.443   1.371  0.2349  0.8922  0.2758
 5568SOL     OW17602   5.545   2.314   2.276  0.3642 -0.6405 -0.2896
 5568SOL    HW117603   5.519   2.275   2.365 -1.7814 -1.1940 -1.1024
 5568SOL    HW217604   5.577   2.408   2.290 -1.1079 -0.2783  0.9671
 5569SOL     OW17605   5.070   2.431   3.809  0.4055  0.1989  0.0834
 5569SOL    HW117606   5.166   2.407   3.799  0.5193  0.5122  0.4068
 5569SOL    HW217607   5.050   2.514   3.757  0.4151  0.3827  0.3669
 5570SOL     OW17608   0.452   4.372   3.930 -0.1459  0.3213 -0.4048
 5570SOL    HW117609   0.458   4.419   4.018  2.2977  2.9103 -1.8042
 5570SOL    HW217610   0.361   4.386   3.891  0.7787  5.4075 -1.3507
 5571SOL     OW17611   1.069   0.713   2.422 -0.7471  0.1830  0.6142
 5571SOL    HW117612   1.070   0.664   2.509  2.1330 -1.2378 -0.0885
 5571SOL    HW217613   1.016   0.661   2.355  0.1660 -0.7096  0.5620
 5572SOL     OW17614   1.472   4.850   1.286  0.2393  0.0207  0.3108
 5572SOL    HW117615   1.413   4.825   1.209 -0.6222 -0.4719  1.1161
 5572SOL    HW217616   1.422   4.837   1.372  2.2311 -2.7127  1.2086
 5573SOL     OW17617   2.027   2.779   0.514 -0.0483  0.1791  0.2712
 5573SOL    HW117618   1.990   2.731   0.594 -0.5431  0.1624  0.0330
 5573SOL    HW217619   2.097   2.844   0.545  1.3312 -1.3475  0.5098
 5574SOL     OW17620   0.645   2.254   3.807  0.0483  0.0081  0.0688
 5574SOL    HW117621   0.707   2.177   3.792  0.6286  0.5791 -0.5648
 5574SOL    HW217622   0.608   2.250   3.899 -0.1272 -1.1620 -0.0348
 5575SOL     OW17623   3.057   2.164   0.839 -0.0441  0.2992 -0.1792
 5575SOL    HW117624   2.982   2.227   0.818 -1.1891 -0.2378  1.9241
 5575SOL    HW217625   3.071   2.161   0.938  2.9244  0.4811 -0.5184
 5576SOL     OW17626   5.843   6.554   3.064 -0.7351 -0.2096  0.5866
 5576SOL    HW117627   5.914   6.485   3.058  1.0838  1.6426 -0.5309
 5576SOL    HW217628   5.869   6.623   3.132 -1.4111  0.5181  0.1325
 5577SOL     OW17629   1.878   3.030   3.545 -0.5641  0.2347 -0.0441
 5577SOL    HW117630   1.946   2.960   3.567  0.3634  1.5336  1.5037
 5577SOL    HW217631   1.787   2.998   3.571 -0.3814 -1.0191 -0.9009
 5578SOL     OW17632   5.179   3.144   1.157 -0.0347  0.4032  0.0728
 5578SOL    HW117633   5.237   3.083   1.211 -2.9639 -2.8991 -0.1001
 5578SOL    HW217634   5.106   3.181   1.215 -0.4719  0.6397 -0.6078
 5579SOL     OW17635   4.627   4.078   5.959 -0.3072  0.3499  0.0661
 5579SOL    HW117636   4.605   3.998   5.904  1.4764  0.1954 -0.4838
 5579SOL    HW217637   4.580   4.072   6.047  0.2676 -1.6186  0.2770
 5580SOL     OW17638   3.879   1.520   1.954 -0.5870  0.2906  0.0606
 5580SOL    HW117639   3.867   1.531   1.855  1.7003  0.7491 -0.2441
 5580SOL    HW217640   3.967   1.475   1.971 -1.6855 -1.3401  1.8787
 5581SOL     OW17641   2.279   5.921   6.277 -0.3644  0.2568 -0.2394
 5581SOL    HW117642   2.324   5.834   6.294 -1.1465  0.0306  0.7576
 5581SOL    HW217643   2.244   5.924   6.184  0.4353 -0.1314 -0.5600
 5582SOL     OW17644   4.036   3.224   4.514  0.0737 -0.4001 -0.1266
 5582SOL    HW117645   4.058   3.320   4.532 -0.5336 -0.1639 -0.6002
 5582SOL    HW217646   4.016   3.178   4.601 -0.9508  0.2448  0.0086
 5583SOL     OW17647   5.630   1.047   1.944 -0.4720 -0.5920 -0.0157
 5583SOL    HW117648   5.616   1.059   1.846  1.2821  1.4302 -0.0798
 5583SOL    HW217649   5.596   1.128   1.993 -0.5970 -1.2270  0.9863
 5584SOL     OW17650   6.335   2.942   3.402 -1.4098  0.3017 -0.4632
 5584SOL    HW117651   6.423   2.984   3.385 -1.2138 -0.0089 -0.2272
 5584SOL    HW217652   6.291   2.986   3.481 -0.2306 -1.3480  1.2071
 5585SOL     OW17653   0.036   6.652   4.882 -0.2015  0.0612 -0.1236
 5585SOL    HW117654   0.031   6.626   4.978 -3.0373 -1.6710 -0.6194
 5585SOL    HW217655   0.074   6.576   4.829  1.6309  1.1152 -0.4022
 5586SOL     OW17656   1.096   2.264   4.648 -0.5034  0.4421 -0.0604
 5586SOL    HW117657   1.176   2.220   4.689 -0.7866  0.4728  0.5432
 5586SOL    HW217658   1.053   2.323   4.716 -0.2993  1.4324 -0.7738
 5587SOL     OW17659   2.318   6.684   1.141 -0.1902  0.1655 -0.8881
 5587SOL    HW117660   2.409   6.702   1.179 -0.1124 -0.1087 -0.9426
 5587SOL    HW217661   2.312   6.589   1.113 -0.5407  0.1511 -0.7660
 5588SOL     OW17662   2.146   6.293   5.890  0.9087  0.3090 -0.1105
 5588SOL    HW117663   2.187   6.315   5.979 -0.3141  0.5545  0.4035
 5588SOL    HW217664   2.207   6.232   5.840  3.2303  2.7469 -0.5089
 5589SOL     OW17665   6.940   2.205   6.953  0.0386  0.4869 -0.5353
 5589SOL    HW117666   6.926   2.257   7.038 -0.9935 -1.4259  0.5214
 5589SOL    HW217667   7.035   2.176   6.948 -0.2943 -1.0399  1.0118
 5590SOL     OW17668   4.970   6.429   3.409  0.4666 -0.6564  0.0597
 5590SOL    HW117669   5.006   6.491   3.478 -0.7922  0.3883 -0.1754
 5590SOL    HW217670   4.870   6.434   3.409  0.2126 -3.8032  1.0249
 5591SOL     OW17671   4.563   7.001   6.591 -0.0466  0.2845  0.0886
 5591SOL    HW117672   4.508   7.080   6.620  0.5631  0.6870  0.1570
 5591SOL    HW217673   4.659   7.026   6.588  0.3131 -0.8360  1.4099
 5592SOL     OW17674   0.613   4.146   3.072  0.2885  0.2629 -0.3820
 5592SOL    HW117675   0.689   4.209   3.086  0.3595 -0.0988  1.0738
 5592SOL    HW217676   0.562   4.137   3.158 -0.0304 -1.2658 -0.7093
 5593SOL     OW17677   0.929   3.734   6.416 -0.3171 -0.2809  0.0232
 5593SOL    HW117678   0.833   3.716   6.437 -0.5643 -0.7335 -1.3845
 5593SOL    HW217679   0.938   3.763   6.321  0.8317  0.8787  0.4561
 5594SOL     OW17680   2.922   6.163   6.507 -0.3238 -0.0249  0.7961
 5594SOL    HW117681   2.945   6.156   6.604 -1.4709 -1.7686  0.9845
 5594SOL    HW217682   2.843   6.224   6.496  0.2020  0.6884  0.8575
 5595SOL     OW17683   0.013   2.145   0.608 -0.1413  0.4043 -0.4187
 5595SOL    HW117684   0.026   2.065   0.665 -2.2718 -0.0195 -0.4662
 5595SOL    HW217685  -0.034   2.217   0.660  1.7259  1.6831 -0.3723
 5596SOL     OW17686   5.287   0.078   3.746  0.0540  0.2768 -0.2414
 5596SOL    HW117687   5.225   0.020   3.694  0.6723 -0.2541 -0.3981
 5596SOL    HW217688   5.379   0.072   3.708  0.7872 -1.0063  1.5801
 5597SOL     OW17689   4.104   0.871   4.734  0.0960 -0.2026 -0.6372
 5597SOL    HW117690   4.092   0.918   4.647  3.2927 -1.4436 -1.8942
 5597SOL    HW217691   4.183   0.810   4.729 -2.3103 -3.9579  1.6291
 5598SOL     OW17692   5.344   2.365   3.794 -0.0066  0.2574  0.3592
 5598SOL    HW117693   5.381   2.287   3.745 -0.0398 -0.1069  0.9081
 5598SOL    HW217694   5.362   2.355   3.892 -1.9728 -0.1782  0.7092
 5599SOL     OW17695   5.357   3.111   2.074  0.2551 -0.4961  0.2662
 5599SOL    HW117696   5.424   3.069   2.135  1.8390 -0.2558 -1.2328
 5599SOL    HW217697   5.267   3.069   2.089  0.6297 -0.6511  2.4954
 5600SOL     OW17698   2.231   0.498   2.993  0.0683  0.3464  0.4559
 5600SOL    HW117699   2.239   0.434   3.069 -0.0042 -0.3027 -0.0742
 5600SOL    HW217700   2.231   0.592   3.028 -1.4897  0.0291  1.3912
 5601SOL     OW17701   5.775   1.210   6.516  0.0059  0.0021 -0.0991
 5601SOL    HW117702   5.849   1.263   6.474  1.0519 -0.1892  1.4123
 5601SOL    HW217703   5.814   1.144   6.581 -1.4869 -0.0499  0.7851
 5602SOL     OW17704   0.079   2.762   4.847  0.5340  0.1319 -0.1825
 5602SOL    HW117705   0.067   2.675   4.896  2.1646  0.6004  1.1281
 5602SOL    HW217706  -0.010   2.795   4.816 -0.2729 -1.3383  0.4567
 5603SOL     OW17707   5.677   2.204   6.078 -0.6825  0.1254 -0.2964
 5603SOL    HW117708   5.698   2.294   6.040 -0.2852 -0.4024 -1.3748
 5603SOL    HW217709   5.589   2.172   6.043 -0.1893 -0.4824 -1.0095
 5604SOL     OW17710   0.579   1.494   5.151  0.1729 -0.0478  0.0581
 5604SOL    HW117711   0.539   1.498   5.059  1.0524  1.9389 -0.3048
 5604SOL    HW217712   0.677   1.475   5.144  0.0436 -0.9974  0.6787
 5605SOL     OW17713   2.272   6.439   3.198  0.5003  0.6326 -0.0632
 5605SOL    HW117714   2.235   6.504   3.132  2.0463  0.7998 -0.8021
 5605SOL    HW217715   2.240   6.347   3.176  0.6162  0.7568 -0.7591
 5606SOL     OW17716   6.168   0.108   6.485  0.2057  0.4223 -0.3426
 5606SOL    HW117717   6.250   0.060   6.516 -0.2523 -0.8294 -1.0291
 5606SOL    HW217718   6.124   0.152   6.563  0.4453 -0.5653  0.3675
 5607SOL     OW17719   6.400   2.361   5.415  0.1290 -0.3500  0.6712
 5607SOL    HW117720   6.466   2.315   5.474 -0.1514 -1.2887  0.2775
 5607SOL    HW217721   6.396   2.458   5.437  0.1407 -0.6562  2.0810
 5608SOL     OW17722   6.016   0.440   4.906 -0.1669 -0.1678  0.1358
 5608SOL    HW117723   6.110   0.415   4.929  0.0082  0.6814  0.3723
 5608SOL    HW217724   6.014   0.532   4.867 -0.8056 -0.5096 -0.6747
 5609SOL     OW17725   5.448   6.679   6.105  0.3646 -0.6064 -0.1263
 5609SOL    HW117726   5.495   6.745   6.048  0.8041  1.2914  2.2627
 5609SOL    HW217727   5.356   6.662   6.069  0.7182  0.3024 -1.5005
 5610SOL     OW17728   5.562   4.935   5.633 -0.2359 -0.0427  0.0662
 5610SOL    HW117729   5.614   5.018   5.614 -2.1822  1.5574  1.3081
 5610SOL    HW217730   5.616   4.874   5.690  1.5631 -0.0840 -1.5762
 5611SOL     OW17731   0.321   5.227   2.221  0.0574 -0.4106  0.4508
 5611SOL    HW117732   0.363   5.212   2.131  0.1701  0.2475  0.3861
 5611SOL    HW217733   0.353   5.314   2.258 -1.7194  0.4458  0.1039
 5612SOL     OW17734   2.200   2.942   0.666  0.1022 -0.0719  0.2278
 5612SOL    HW117735   2.183   3.034   0.702  1.6595  0.8881 -1.3105
 5612SOL    HW217736   2.247   2.887   0.734 -0.0285  0.5678  0.8419
 5613SOL     OW17737   0.434   5.371   5.035 -0.0849 -0.0922 -0.3426
 5613SOL    HW117738   0.449   5.389   4.938  1.6503  0.6404  0.0252
 5613SOL    HW217739   0.522   5.362   5.082 -0.7734  2.2059  1.6202
 5614SOL     OW17740   6.008   3.378   4.174  0.1739  0.7274 -0.1896
 5614SOL    HW117741   5.974   3.396   4.266  1.2069 -1.1955  0.6405
 5614SOL    HW217742   5.935   3.337   4.119 -0.0239  0.4402  0.2799
 5615SOL     OW17743   6.434   1.496   3.104 -0.3982  0.3359  0.2894
 5615SOL    HW117744   6.449   1.399   3.124 -0.4248  0.1894 -0.4056
 5615SOL    HW217745   6.342   1.509   3.069 -0.1778  0.5171 -0.2346
 5616SOL     OW17746   1.549   1.831   5.444 -0.4802 -0.0594 -0.1898
 5616SOL    HW117747   1.482   1.789   5.383 -0.6960 -2.0623  1.3189
 5616SOL    HW217748   1.540   1.930   5.441 -1.5425 -0.1724 -2.1695
 5617SOL     OW17749   1.767   3.409   4.979 -0.6750 -0.2685  0.1976
 5617SOL    HW117750   1.750   3.327   4.923 -0.8665 -0.1730  0.1155
 5617SOL    HW217751   1.736   3.490   4.930 -0.8615 -0.1849  0.4537
 5618SOL     OW17752   6.763   5.887   3.972 -0.3262 -0.0540 -0.0234
 5618SOL    HW117753   6.819   5.829   4.031  2.4363 -0.3444 -2.6548
 5618SOL    HW217754   6.780   5.983   3.994 -0.3824 -0.1606  0.5025
 5619SOL     OW17755   3.532   3.599   3.099  0.2613  0.2004 -0.1154
 5619SOL    HW117756   3.592   3.538   3.151  0.1540 -0.7193 -1.0261
 5619SOL    HW217757   3.448   3.616   3.150  0.8326  0.6334  0.7007
 5620SOL     OW17758   4.498   2.684   5.794  0.3121  0.2213 -0.1034
 5620SOL    HW117759   4.507   2.598   5.845 -1.2232 -0.8131 -1.4907
 5620SOL    HW217760   4.556   2.754   5.837  0.5158 -1.0941  1.9091
 5621SOL     OW17761   3.575   2.786   6.959 -0.1520 -0.2444  0.0456
 5621SOL    HW117762   3.652   2.826   7.007  0.2307 -1.0352  0.0996
 5621SOL    HW217763   3.525   2.858   6.911  0.6988  0.2582 -0.1069
 5622SOL     OW17764   4.537   5.203   5.618 -0.1613  0.2467  0.1015
 5622SOL    HW117765   4.600   5.259   5.671  1.1221 -1.2415  0.2176
 5622SOL    HW217766   4.577   5.180   5.530 -1.8258  1.7649 -1.1389
 5623SOL     OW17767   4.115   6.789   4.459  0.4414 -0.3511  0.1388
 5623SOL    HW117768   4.055   6.866   4.438  0.3539  0.6968  3.5515
 5623SOL    HW217769   4.204   6.804   4.416 -0.1065  0.7667 -0.6786
 5624SOL     OW17770   0.691   5.177   3.278 -0.1478 -0.7007 -0.3382
 5624SOL    HW117771   0.724   5.195   3.371  1.4466  1.5905 -1.2385
 5624SOL    HW217772   0.591   5.174   3.278 -0.2619  1.0376  1.2255
 5625SOL     OW17773   2.305   4.819   2.848 -0.2873 -0.3044 -0.0093
 5625SOL    HW117774   2.228   4.770   2.889 -1.2015  0.8310 -0.3418
 5625SOL    HW217775   2.340   4.886   2.913  1.1885 -1.5788  0.5745
 5626SOL     OW17776   1.838   4.652   3.575 -0.2032 -0.1239 -0.1208
 5626SOL    HW117777   1.920   4.603   3.606 -0.9170 -2.2301 -1.3560
 5626SOL    HW217778   1.859   4.700   3.489 -0.0787 -0.0193 -0.0339
 5627SOL     OW17779   0.027   6.899   3.979  0.1885  0.4831 -0.4285
 5627SOL    HW117780  -0.059   6.854   3.958  0.6778  0.4603 -2.5794
 5627SOL    HW217781   0.018   6.949   4.065 -1.9180  0.3814 -0.5402
 5628SOL     OW17782   2.013   2.235   1.748 -0.3211 -0.0345 -0.5061
 5628SOL    HW117783   2.112   2.250   1.743  0.0832 -0.9973  2.5788
 5628SOL    HW217784   1.970   2.268   1.664  2.0415  4.6164 -0.2200
 5629SOL     OW17785   5.947   3.196   0.532  0.8301  0.2046 -0.3842
 5629SOL    HW117786   5.853   3.162   0.531  0.6552  0.6619 -0.0427
 5629SOL    HW217787   5.986   3.184   0.623  0.6460  1.2093 -0.1523
 5630SOL     OW17788   2.438   2.998   6.493 -0.3050  0.1610 -0.4196
 5630SOL    HW117789   2.505   3.062   6.529  0.3332  0.3826 -1.9315
 5630SOL    HW217790   2.466   2.904   6.514  0.1410  0.2797 -0.4755
 5631SOL     OW17791   5.078   0.223   1.999 -0.2971  0.0447 -0.4724
 5631SOL    HW117792   5.131   0.138   1.995  0.2013  0.2039  1.8216
 5631SOL    HW217793   4.984   0.203   2.027  0.0423  0.3181  0.8914
 5632SOL     OW17794   3.396   1.615   4.531  0.0117 -0.1754 -0.5034
 5632SOL    HW117795   3.491   1.628   4.560 -0.4533  0.6305  0.6999
 5632SOL    HW217796   3.362   1.528   4.567 -0.0384  0.0405 -0.0201
 5633SOL     OW17797   6.600   3.985   4.083 -0.1655 -0.0820 -0.2388
 5633SOL    HW117798   6.670   3.914   4.088  0.1146  0.2092  0.1175
 5633SOL    HW217799   6.510   3.946   4.104 -0.0776 -0.4177 -0.4919
 5634SOL     OW17800   3.133   5.565   4.616  0.4892 -0.1790  0.1265
 5634SOL    HW117801   3.196   5.638   4.591 -0.0265 -0.0328 -0.7720
 5634SOL    HW217802   3.068   5.550   4.542  0.6963 -1.6821  0.2236
 5635SOL     OW17803   4.227   5.630   0.222  0.0229  0.5488  0.0102
 5635SOL    HW117804   4.287   5.630   0.141 -1.1137 -1.0002 -0.8899
 5635SOL    HW217805   4.234   5.542   0.268  0.5701  1.3820  1.5706
 5636SOL     OW17806   6.410   0.823   0.918 -0.4501  0.2102 -0.2480
 5636SOL    HW117807   6.384   0.760   0.845  0.7515 -0.5469 -0.0648
 5636SOL    HW217808   6.491   0.875   0.890 -0.4521  0.4731  0.2300
 5637SOL     OW17809   0.167   1.252   4.788 -0.6045  0.3098  0.7951
 5637SOL    HW117810   0.214   1.337   4.765 -0.7267  0.6037  1.6139
 5637SOL    HW217811   0.210   1.210   4.868 -0.2734 -0.6259  0.1435
 5638SOL     OW17812   5.018   5.999   1.801 -0.5537  0.3658  0.3315
 5638SOL    HW117813   4.944   6.050   1.844 -0.2443  1.5467 -0.5025
 5638SOL    HW217814   5.009   6.003   1.702 -1.3233 -2.4084  0.1903
 5639SOL     OW17815   1.222   1.892   2.661  0.5192 -0.5952  0.0003
 5639SOL    HW117816   1.302   1.952   2.663 -0.9430  1.4667  0.4659
 5639SOL    HW217817   1.166   1.908   2.742 -1.8723  0.3103 -1.6936
 5640SOL     OW17818   1.336   0.269   1.557  0.2507  0.7691 -0.7151
 5640SOL    HW117819   1.401   0.276   1.481  0.2358 -0.8429 -0.9076
 5640SOL    HW217820   1.290   0.357   1.569 -0.2366  0.8983 -3.0282
 5641SOL     OW17821   1.141   4.039   6.356  0.0745  0.3036  0.7037
 5641SOL    HW117822   1.191   3.985   6.288 -0.2303  0.7573  0.1102
 5641SOL    HW217823   1.065   4.087   6.312 -1.8447 -1.5317  1.8293
 5642SOL     OW17824   2.166   4.728   6.396  0.4548  0.4666  0.4780
 5642SOL    HW117825   2.156   4.689   6.487  0.7741 -0.9625 -0.0654
 5642SOL    HW217826   2.263   4.740   6.375  0.3921  0.5184  0.2117
 5643SOL     OW17827   4.299   0.156   5.712 -0.4191  0.7885 -0.0623
 5643SOL    HW117828   4.246   0.229   5.754  0.3569  1.2499  0.1461
 5643SOL    HW217829   4.390   0.190   5.688  0.3925 -0.3851  1.1126
 5644SOL     OW17830   5.756   2.369   5.393  0.0841  0.2730  0.0557
 5644SOL    HW117831   5.806   2.437   5.339 -1.4688  2.8561  1.7000
 5644SOL    HW217832   5.658   2.381   5.379 -0.3075  0.1128  2.3667
 5645SOL     OW17833   6.174   4.120   2.989  0.3224  0.1821  0.0185
 5645SOL    HW117834   6.092   4.164   2.952 -0.4187 -2.4639 -1.8114
 5645SOL    HW217835   6.150   4.063   3.067  0.1207 -1.5475 -1.2568
 5646SOL     OW17836   6.488   3.742   4.140 -0.2324 -0.1324  0.0146
 5646SOL    HW117837   6.563   3.715   4.201 -0.3115  1.4862  0.8751
 5646SOL    HW217838   6.405   3.758   4.193 -0.9837 -1.0691 -0.8370
 5647SOL     OW17839   5.617   1.077   5.778  0.1728 -0.2002  0.9082
 5647SOL    HW117840   5.622   0.994   5.724  0.3727 -1.3047  2.5515
 5647SOL    HW217841   5.640   1.057   5.873 -0.6120  1.5789  1.5281
 5648SOL     OW17842   2.774   0.639   3.440 -0.3153 -0.5695 -0.0478
 5648SOL    HW117843   2.756   0.668   3.346  1.4324 -0.9247 -0.5203
 5648SOL    HW217844   2.815   0.715   3.491  1.0722 -1.1299 -0.3063
 5649SOL     OW17845   1.296   0.057   4.732  0.5426 -0.1134 -0.1607
 5649SOL    HW117846   1.350   0.083   4.812 -0.5738  0.6478  0.3655
 5649SOL    HW217847   1.212   0.012   4.761  0.1484  0.1247 -0.9029
 5650SOL     OW17848   1.894   4.864   1.319 -0.0195 -0.7545  0.3314
 5650SOL    HW117849   1.856   4.832   1.232  0.5180 -2.1899  0.6031
 5650SOL    HW217850   1.941   4.789   1.365  1.1781  0.4031  1.0787
 5651SOL     OW17851   6.646   2.099   0.785 -0.1739 -0.4459 -0.4780
 5651SOL    HW117852   6.662   2.087   0.687 -0.0795 -1.8863 -0.3008
 5651SOL    HW217853   6.731   2.086   0.835 -0.2612  0.1026 -0.1766
 5652SOL     OW17854   3.481   6.548   2.682 -0.4744  0.4994  0.2973
 5652SOL    HW117855   3.525   6.637   2.671  0.0181  0.2620  0.3259
 5652SOL    HW217856   3.401   6.557   2.742  0.1334  0.7459  1.0732
 5653SOL     OW17857   6.818   0.094   0.363 -0.6414 -0.1032  0.6174
 5653SOL    HW117858   6.726   0.069   0.333 -0.2607 -0.0080 -0.7320
 5653SOL    HW217859   6.856   0.161   0.300 -0.0534  0.6949  1.7900
 5654SOL     OW17860   1.355   6.698   5.478 -0.5871 -0.0868  0.3550
 5654SOL    HW117861   1.362   6.598   5.476  0.7563 -0.0248  0.8581
 5654SOL    HW217862   1.319   6.727   5.567 -0.0584 -0.0858  0.5710
 5655SOL     OW17863   0.738   2.433   6.979 -0.3997 -0.2272  0.2575
 5655SOL    HW117864   0.720   2.370   6.903  0.1016 -1.4412  1.1003
 5655SOL    HW217865   0.658   2.437   7.039  0.0781 -1.2889  1.0148
 5656SOL     OW17866   2.251   6.444   1.434 -0.6745 -0.0307  0.3617
 5656SOL    HW117867   2.343   6.461   1.397 -1.6618 -0.4941 -2.5655
 5656SOL    HW217868   2.244   6.483   1.526  1.9477  1.3776  0.0547
 5657SOL     OW17869   4.924   0.530   2.715 -0.0857  0.1181  0.0205
 5657SOL    HW117870   4.929   0.502   2.619 -1.1710  1.7238 -0.5420
 5657SOL    HW217871   4.830   0.554   2.738  0.3903  1.0485  1.1089
 5658SOL     OW17872   2.060   4.868   5.040 -0.3219 -0.2227  0.5559
 5658SOL    HW117873   2.159   4.869   5.054 -0.4569 -0.9965  1.7493
 5658SOL    HW217874   2.026   4.774   5.047 -0.9700 -0.1748 -1.3459
 5659SOL     OW17875   3.401   3.965   1.854 -0.2162 -0.1078 -0.1413
 5659SOL    HW117876   3.468   4.013   1.910 -0.6879 -1.9412  2.1084
 5659SOL    HW217877   3.441   3.880   1.819 -0.0593  0.8064 -2.3755
 5660SOL     OW17878   5.478   1.921   0.294 -0.1710 -0.4598 -0.6776
 5660SOL    HW117879   5.503   2.010   0.332 -0.0032 -0.5425 -0.5924
 5660SOL    HW217880   5.487   1.924   0.195 -0.4064 -0.3068 -0.6959
 5661SOL     OW17881   5.693   0.337   5.288 -0.2751 -0.1967 -0.2148
 5661SOL    HW117882   5.627   0.406   5.317 -0.6538 -0.2035 -1.0359
 5661SOL    HW217883   5.764   0.379   5.233 -2.7411 -0.9349 -4.3904
 5662SOL     OW17884   2.714   5.003   3.667 -0.3870 -0.2149  0.4391
 5662SOL    HW117885   2.642   5.072   3.678 -0.8469 -0.4863 -0.7347
 5662SOL    HW217886   2.799   5.048   3.639 -0.2226  0.0490  1.3257
 5663SOL     OW17887   6.044   4.516   6.025  0.1670 -0.2723 -0.3914
 5663SOL    HW117888   6.044   4.464   6.110 -0.8736  1.4628  0.7422
 5663SOL    HW217889   5.956   4.504   5.979  1.3401 -2.6071 -2.2063
 5664SOL     OW17890   0.117   2.237   2.949 -0.1049 -0.4874 -0.2107
 5664SOL    HW117891   0.112   2.187   3.035  2.3447  0.2903  0.4575
 5664SOL    HW217892   0.092   2.333   2.964  1.3603 -0.1025 -0.0895
 5665SOL     OW17893   1.362   2.103   5.726 -0.6761  0.2413  0.3656
 5665SOL    HW117894   1.320   2.028   5.777 -0.2845 -0.6755 -0.6221
 5665SOL    HW217895   1.441   2.137   5.776 -1.7453  1.0584  1.5708
 5666SOL     OW17896   4.903   6.719   0.473  0.6587 -0.1996  0.2384
 5666SOL    HW117897   4.893   6.819   0.478  0.4806 -0.2457  0.8702
 5666SOL    HW217898   4.901   6.690   0.377 -0.0244  0.3313  0.0862
 5667SOL     OW17899   0.662   4.668   3.051 -0.2464 -0.1571  0.2544
 5667SOL    HW117900   0.588   4.611   3.014 -0.3136 -0.1660  0.4011
 5667SOL    HW217901   0.625   4.755   3.083 -0.3041 -0.4148  0.9223
 5668SOL     OW17902   6.291   0.984   6.695  0.1967  0.0523  0.5745
 5668SOL    HW117903   6.376   0.932   6.703  1.8960  2.1806 -2.0226
 5668SOL    HW217904   6.287   1.051   6.769  2.5203  2.1192 -1.0394
 5669SOL     OW17905   1.463   3.329   0.382 -0.5969 -0.1770 -0.1616
 5669SOL    HW117906   1.455   3.415   0.332 -1.3552  0.3850  0.8990
 5669SOL    HW217907   1.555   3.293   0.371  0.1820  1.5100  0.5421
 5670SOL     OW17908   6.603   2.628   3.881 -0.0902  0.1939 -0.1891
 5670SOL    HW117909   6.513   2.666   3.860  0.7491  1.8748 -0.9049
 5670SOL    HW217910   6.635   2.575   3.802  0.3350  1.1867 -0.7023
 5671SOL     OW17911   1.757   4.820   5.277  0.9458 -0.2265 -0.0667
 5671SOL    HW117912   1.753   4.819   5.177  1.9219 -0.4982 -0.1140
 5671SOL    HW217913   1.667   4.797   5.314  0.6449 -0.4007 -0.8831
 5672SOL     OW17914   4.501   3.303   6.420 -0.3234 -0.0662 -0.2931
 5672SOL    HW117915   4.547   3.322   6.333  0.0854  1.9946  0.3033
 5672SOL    HW217916   4.570   3.296   6.492 -0.5650 -2.9269 -0.2419
 5673SOL     OW17917   6.166   1.215   1.116  0.5738  0.1452 -0.2728
 5673SOL    HW117918   6.068   1.202   1.125  0.3124  0.7911 -1.8765
 5673SOL    HW217919   6.212   1.126   1.119 -0.0594 -0.1686  0.3850
 5674SOL     OW17920   6.252   0.629   3.345 -0.3216  0.0660 -0.0504
 5674SOL    HW117921   6.177   0.695   3.334 -0.8892 -0.5330  0.1554
 5674SOL    HW217922   6.241   0.580   3.432  1.1465  1.0137  0.7238
 5675SOL     OW17923   4.512   0.812   5.318  0.3505  0.1563 -0.4926
 5675SOL    HW117924   4.471   0.779   5.403  1.6292 -0.0951  0.0473
 5675SOL    HW217925   4.494   0.909   5.307  1.4160  0.5378  0.8447
 5676SOL     OW17926   2.688   1.852   1.402 -0.5181 -0.8641  0.0467
 5676SOL    HW117927   2.601   1.900   1.399 -0.1219 -0.1500 -0.1729
 5676SOL    HW217928   2.747   1.893   1.471  0.0899 -0.5624 -0.6444
 5677SOL     OW17929   0.848   4.339   1.980  0.3991 -0.5243  1.0443
 5677SOL    HW117930   0.782   4.342   2.056 -0.4456  2.7716  0.3612
 5677SOL    HW217931   0.799   4.345   1.894  1.4649  3.0662  0.5358
 5678SOL     OW17932   2.588   0.101   2.991  0.4131 -0.3097  0.0731
 5678SOL    HW117933   2.555   0.185   3.034  3.5222  0.2148  1.7397
 5678SOL    HW217934   2.599   0.115   2.893 -1.9256  0.1895 -0.1631
 5679SOL     OW17935   2.068   5.937   2.754  0.0817 -0.0546  0.1202
 5679SOL    HW117936   2.064   5.932   2.854 -1.2365  0.8692  0.1413
 5679SOL    HW217937   1.981   5.973   2.719  0.6214 -0.1166 -1.3438
 5680SOL     OW17938   2.029   5.227   1.909  0.1333  0.4172 -0.1642
 5680SOL    HW117939   1.950   5.177   1.875 -0.8998  1.1729  1.0084
 5680SOL    HW217940   2.082   5.168   1.969  0.2547  0.0210 -0.6520
 5681SOL     OW17941   2.017   4.480   6.822 -0.6105 -0.0289  0.5154
 5681SOL    HW117942   1.935   4.535   6.837 -0.1010  0.3612  1.9930
 5681SOL    HW217943   1.995   4.403   6.762 -1.8512  0.5318  0.2225
 5682SOL     OW17944   2.544   3.851   6.311 -0.5126  0.0966  0.1195
 5682SOL    HW117945   2.464   3.904   6.340 -0.8206  0.4940 -1.3517
 5682SOL    HW217946   2.538   3.833   6.213  0.5302 -1.0750  0.2484
 5683SOL     OW17947   3.442   0.682   4.799 -0.6183 -0.0362  0.0521
 5683SOL    HW117948   3.530   0.722   4.773  0.0243 -0.7130  1.1159
 5683SOL    HW217949   3.400   0.738   4.871  0.9370 -1.8961  2.5586
 5684SOL     OW17950   4.703   2.323   6.308  0.2074  0.4994  0.7946
 5684SOL    HW117951   4.604   2.310   6.313  0.2276  0.2798  0.6542
 5684SOL    HW217952   4.739   2.274   6.229  0.3942  0.7966  0.6951
 5685SOL     OW17953   0.572   4.842   1.267  0.1622 -0.0899 -0.2025
 5685SOL    HW117954   0.623   4.857   1.182  1.9668  0.8110  0.9584
 5685SOL    HW217955   0.613   4.767   1.318 -1.5159 -1.2846 -0.5248
 5686SOL     OW17956   2.031   0.040   0.964  0.2380  0.4020  0.2741
 5686SOL    HW117957   2.012  -0.058   0.969 -0.9177  0.4781 -1.5811
 5686SOL    HW217958   2.128   0.057   0.983  0.0345 -0.8165  2.8122
 5687SOL     OW17959   6.976   3.283   3.548 -0.3929  0.3421 -0.2711
 5687SOL    HW117960   7.072   3.254   3.548 -0.4186  0.1611  1.3707
 5687SOL    HW217961   6.934   3.258   3.460  0.9388  0.0498 -0.8548
 5688SOL     OW17962   0.554   2.477   6.628  0.1195  0.3748 -0.1757
 5688SOL    HW117963   0.568   2.449   6.533 -0.1077  0.8460 -0.3553
 5688SOL    HW217964   0.621   2.432   6.687  1.2415  1.2139 -0.7647
 5689SOL     OW17965   4.178   0.130   5.995  0.3917 -0.3053  0.1951
 5689SOL    HW117966   4.111   0.090   6.058 -1.0365 -0.1747 -1.1703
 5689SOL    HW217967   4.184   0.074   5.913  2.2310 -0.4733  0.4083
 5690SOL     OW17968   2.030   0.177   1.558 -0.3625  0.2589 -0.1702
 5690SOL    HW117969   2.115   0.227   1.577 -0.2704 -0.3933  1.2667
 5690SOL    HW217970   2.028   0.150   1.462  1.4284 -0.3343 -0.0803
 5691SOL     OW17971   2.581   5.943   5.973 -0.1053 -0.4698 -0.4957
 5691SOL    HW117972   2.603   5.987   5.886 -0.5041 -2.0072 -1.4230
 5691SOL    HW217973   2.488   5.905   5.968 -0.0891 -0.6729  0.5574
 5692SOL     OW17974   0.322   3.963   6.495 -0.7089 -0.5792 -0.7543
 5692SOL    HW117975   0.274   4.050   6.509 -0.4755 -0.8672  2.8161
 5692SOL    HW217976   0.274   3.891   6.545  0.2324 -2.1110 -1.9799
 5693SOL     OW17977   5.762   4.168   0.783 -0.7727 -0.6310  0.1242
 5693SOL    HW117978   5.745   4.101   0.711 -1.8206 -0.9839  0.6784
 5693SOL    HW217979   5.680   4.178   0.839 -0.0413 -0.2045  1.1485
 5694SOL     OW17980   1.234   1.298   4.550  0.0811  0.4598 -0.9388
 5694SOL    HW117981   1.207   1.393   4.565  0.5543  0.7385 -1.7547
 5694SOL    HW217982   1.230   1.278   4.452  1.1145 -0.0114 -0.8943
 5695SOL     OW17983   0.385   2.496   1.655  0.5864  0.4312  0.3674
 5695SOL    HW117984   0.345   2.427   1.594  0.4913  0.2075  0.6795
 5695SOL    HW217985   0.473   2.463   1.689 -0.2481 -0.3141  1.8941
 5696SOL     OW17986   2.517   1.836   2.641 -0.4100  0.5920 -0.4401
 5696SOL    HW117987   2.494   1.767   2.709  0.6228  0.2464 -0.4187
 5696SOL    HW217988   2.527   1.925   2.686 -0.4604  0.5058 -0.2592
 5697SOL     OW17989   6.216   4.146   6.591  0.0829 -0.3971 -0.0140
 5697SOL    HW117990   6.231   4.112   6.684  1.8015  0.1599 -0.0479
 5697SOL    HW217991   6.210   4.069   6.528 -0.6744 -0.7643  0.4974
 5698SOL     OW17992   1.252   2.428   2.824 -0.0343 -0.7238  0.4361
 5698SOL    HW117993   1.259   2.393   2.731  1.9922 -0.4665  0.4475
 5698SOL    HW217994   1.285   2.522   2.827 -0.2337 -0.6705  1.3900
 5699SOL     OW17995   6.279   3.298   2.478  0.6984 -0.1541 -0.3471
 5699SOL    HW117996   6.187   3.271   2.450  0.9765 -1.0948 -0.3981
 5699SOL    HW217997   6.274   3.374   2.543 -0.0108  1.4021 -2.1468
 5700SOL     OW17998   0.103   5.744   3.064 -0.1814 -0.7407  0.1744
 5700SOL    HW117999   0.046   5.811   3.112  2.8532  2.5070 -0.2879
 5700SOL    HW218000   0.108   5.767   2.967  1.3015 -1.3165  0.0771
 5701SOL     OW18001   0.969   0.052   2.109 -0.4781  0.2521  0.2501
 5701SOL    HW118002   0.937   0.060   2.015  0.0946 -1.0974 -0.0822
 5701SOL    HW218003   0.981  -0.045   2.132 -0.1566  0.5849  1.5549
 5702SOL     OW18004   1.858   4.399   5.521 -0.6421  0.5976 -0.0152
 5702SOL    HW118005   1.914   4.343   5.460 -2.6925 -1.4731 -0.1233
 5702SOL    HW218006   1.773   4.423   5.476 -1.3743  0.6724  1.3551
 5703SOL     OW18007   5.234   4.267   3.308  0.8432 -0.4813 -0.1779
 5703SOL    HW118008   5.168   4.331   3.347  1.2871  0.1312 -0.4030
 5703SOL    HW218009   5.196   4.175   3.308 -0.0283 -0.1282 -0.3657
 5704SOL     OW18010   5.034   4.539   1.483 -0.2652  0.2976 -0.1891
 5704SOL    HW118011   5.061   4.618   1.538 -0.4571  0.1438  0.1254
 5704SOL    HW218012   5.113   4.505   1.432 -0.2853  0.9842 -0.6879
 5705SOL     OW18013   0.497   0.113   6.012 -0.5768 -0.0849 -0.2842
 5705SOL    HW118014   0.496   0.128   6.111  0.2321  1.4835 -0.4862
 5705SOL    HW218015   0.574   0.054   5.988 -0.6306 -0.2717 -0.0051
 5706SOL     OW18016   0.814   1.771   1.399 -0.3209  0.0610  0.1869
 5706SOL    HW118017   0.793   1.767   1.496 -1.9360 -1.4512 -0.1552
 5706SOL    HW218018   0.837   1.679   1.366 -0.6622  0.3894 -1.0332
 5707SOL     OW18019   0.624   6.169   6.988  0.2593  0.7949 -0.1206
 5707SOL    HW118020   0.617   6.069   6.987  2.6451  0.4930  2.3285
 5707SOL    HW218021   0.574   6.206   6.910 -1.8534 -2.1909 -0.3780
 5708SOL     OW18022   6.021   0.280   2.080 -0.3591 -0.1732 -0.4242
 5708SOL    HW118023   6.045   0.345   2.152 -0.4330 -0.5186 -0.0849
 5708SOL    HW218024   5.930   0.301   2.045 -0.4970 -0.2667 -0.1197
 5709SOL     OW18025   1.352   5.568   2.890 -0.1157 -0.4293  0.4890
 5709SOL    HW118026   1.430   5.551   2.952 -0.8208 -3.1236  0.7823
 5709SOL    HW218027   1.267   5.562   2.942 -0.6514 -1.1225 -0.4407
 5710SOL     OW18028   2.433   2.581   5.301 -0.2214 -0.5333 -0.2881
 5710SOL    HW118029   2.505   2.645   5.273  0.6785 -1.5909 -0.4834
 5710SOL    HW218030   2.369   2.568   5.225 -1.0843  0.9911  0.1374
 5711SOL     OW18031   3.543   0.551   2.076  1.0009  0.7602 -0.3060
 5711SOL    HW118032   3.485   0.522   2.000  1.2733  1.8628 -0.9582
 5711SOL    HW218033   3.507   0.514   2.162 -0.0581  0.5846 -0.8097
 5712SOL     OW18034   1.310   0.171   3.643  0.3411 -0.1121  0.1430
 5712SOL    HW118035   1.253   0.133   3.715 -0.6145  2.8048  1.0774
 5712SOL    HW218036   1.277   0.263   3.619  2.2237  0.0690 -2.1814
 5713SOL     OW18037   6.980   2.622   1.481 -0.0845 -0.1804  0.1848
 5713SOL    HW118038   6.994   2.524   1.490 -1.1791 -0.6164 -2.2339
 5713SOL    HW218039   7.054   2.662   1.427 -1.1018 -0.2280 -1.3111
 5714SOL     OW18040   2.134   5.441   6.827  0.0977 -0.7417 -0.4773
 5714SOL    HW118041   2.205   5.510   6.816 -2.1907  1.7565 -0.7410
 5714SOL    HW218042   2.173   5.350   6.816  3.2090  0.4890 -0.4844
 5715SOL     OW18043   0.195   5.968   2.212  0.0612 -0.6105  0.0660
 5715SOL    HW118044   0.183   5.894   2.279 -2.5286  0.0210  0.4233
 5715SOL    HW218045   0.291   5.994   2.207  0.8615 -3.1834  0.7948
 5716SOL     OW18046   2.377   2.458   6.635  0.1980 -0.1108  0.5618
 5716SOL    HW118047   2.313   2.531   6.610  0.0079  0.2133  1.8785
 5716SOL    HW218048   2.410   2.412   6.553  0.8798  1.9319 -0.3668
 5717SOL     OW18049   1.473   6.119   6.633  0.4490 -0.2332 -0.2292
 5717SOL    HW118050   1.492   6.064   6.715  1.9392 -0.9187 -0.9991
 5717SOL    HW218051   1.525   6.082   6.556  1.2877  2.0764 -0.8379
 5718SOL     OW18052   0.411   5.151   6.623 -0.0352 -0.2216 -0.2505
 5718SOL    HW118053   0.359   5.068   6.601 -2.1397  1.5075 -2.4062
 5718SOL    HW218054   0.490   5.159   6.562 -1.1490  0.4251 -1.6770
 5719SOL     OW18055   5.776   1.316   5.942  0.4592 -0.7943 -0.9963
 5719SOL    HW118056   5.836   1.264   5.881  2.2988 -0.1616  0.1756
 5719SOL    HW218057   5.791   1.413   5.927 -1.3180 -0.5920 -1.6177
 5720SOL     OW18058   0.420   5.180   3.189 -0.5033  0.4034 -0.3234
 5720SOL    HW118059   0.381   5.117   3.255 -2.3262  0.3459 -1.3900
 5720SOL    HW218060   0.358   5.258   3.176  1.1401  1.8591  0.0908
 5721SOL     OW18061   2.773   1.474   2.321 -0.6468  0.4602 -0.8096
 5721SOL    HW118062   2.715   1.400   2.352 -0.5588  0.7763  0.1455
 5721SOL    HW218063   2.745   1.559   2.366  1.8850  0.2533  1.4495
 5722SOL     OW18064   5.896   3.666   4.662 -0.0549 -0.4803  0.6370
 5722SOL    HW118065   5.807   3.625   4.644  0.4193 -1.2641  0.0453
 5722SOL    HW218066   5.885   3.738   4.731 -0.8825 -1.6754  1.8161
 5723SOL     OW18067   5.622   4.087   0.548 -0.3006 -0.0335  0.2184
 5723SOL    HW118068   5.524   4.067   0.543 -0.3497  0.2346  0.0803
 5723SOL    HW218069   5.639   4.179   0.513  0.0932 -0.3665 -0.4825
 5724SOL     OW18070   3.731   2.066   5.477  0.0874 -0.4667  0.1085
 5724SOL    HW118071   3.639   2.033   5.453 -0.2599  0.1573  0.5480
 5724SOL    HW218072   3.759   2.137   5.413 -0.5866  0.7661  1.1386
 5725SOL     OW18073   4.609   0.868   2.648 -0.0612  0.3583 -0.5907
 5725SOL    HW118074   4.646   0.935   2.713 -0.1952  1.4882 -1.6338
 5725SOL    HW218075   4.600   0.779   2.692  1.2427  0.7424  0.5012
 5726SOL     OW18076   6.809   3.901   2.515  0.2830 -0.5223  0.9887
 5726SOL    HW118077   6.871   3.972   2.483  1.3323 -0.7646  2.3835
 5726SOL    HW218078   6.753   3.936   2.589  1.0184 -1.2141  1.8914
 5727SOL     OW18079   1.013   3.830   5.000  0.0908 -0.0782  0.0817
 5727SOL    HW118080   0.929   3.826   5.055  1.3750  1.1601  2.2826
 5727SOL    HW218081   0.999   3.888   4.921 -1.2179 -0.1619  0.2381
 5728SOL     OW18082   4.370   1.307   5.338  0.2947 -0.6081  0.1122
 5728SOL    HW118083   4.447   1.307   5.275  1.0384 -1.8899  0.9556
 5728SOL    HW218084   4.373   1.389   5.395 -0.3795  0.5448 -1.4681
 5729SOL     OW18085   1.777   1.601   1.029 -0.6643  0.0216 -0.0165
 5729SOL    HW118086   1.753   1.653   1.111  0.2133  0.8826 -0.2900
 5729SOL    HW218087   1.876   1.585   1.027 -0.8767 -1.3439 -0.1276
 5730SOL     OW18088   4.962   3.083   0.439  0.4266 -0.1880 -0.4192
 5730SOL    HW118089   4.999   3.016   0.374 -0.8817 -1.7991  0.4439
 5730SOL    HW218090   4.999   3.066   0.530 -0.0964  0.1363 -0.1422
 5731SOL     OW18091   2.883   0.429   2.965  0.2916  0.0477  0.6097
 5731SOL    HW118092   2.902   0.523   2.934 -1.4304  0.2035 -0.0478
 5731SOL    HW218093   2.788   0.422   2.993  0.8097 -1.1218  2.2017
 5732SOL     OW18094   6.156   5.481   4.955  0.2045  0.0578  0.1911
 5732SOL    HW118095   6.225   5.486   5.027 -0.8195  1.4958  1.1483
 5732SOL    HW218096   6.181   5.411   4.888  2.4883  0.4532  0.5691
 5733SOL     OW18097   1.507   0.528   6.239  0.1217  0.8699 -0.5434
 5733SOL    HW118098   1.434   0.539   6.306  0.5640 -0.7699  0.2542
 5733SOL    HW218099   1.544   0.618   6.215 -1.1836  1.6082  0.1210
 5734SOL     OW18100   1.998   5.946   6.849 -0.0803  0.5654 -0.8105
 5734SOL    HW118101   2.050   5.951   6.934  1.2068 -0.2046 -1.5071
 5734SOL    HW218102   1.900   5.955   6.868  0.2373  1.0977  0.6542
 5735SOL     OW18103   2.917   2.218   2.757  0.5335  0.2342  0.3144
 5735SOL    HW118104   2.974   2.203   2.676 -0.8410 -0.0760 -0.6384
 5735SOL    HW218105   2.836   2.270   2.732  0.0033  0.0050  1.4711
 5736SOL     OW18106   6.243   4.103   1.392 -0.2257 -0.3602  0.8803
 5736SOL    HW118107   6.248   4.199   1.363  0.6898 -0.7091 -0.1629
 5736SOL    HW218108   6.205   4.048   1.318 -1.9983 -0.6394  1.9361
 5737SOL     OW18109   5.207   6.112   0.308  0.2374  0.0727 -0.8234
 5737SOL    HW118110   5.119   6.066   0.310  0.6413 -0.7218  0.9277
 5737SOL    HW218111   5.230   6.144   0.400  2.9548 -2.1334 -0.5975
 5738SOL     OW18112   4.158   1.124   1.667 -0.3839  0.3023  0.2849
 5738SOL    HW118113   4.248   1.168   1.663  0.0905 -0.6844 -0.1792
 5738SOL    HW218114   4.087   1.194   1.673  0.2651  1.1836 -1.6485
 5739SOL     OW18115   1.628   5.474   4.955 -0.1498  0.1924 -0.2342
 5739SOL    HW118116   1.603   5.387   4.911  0.1698  0.3705 -0.7830
 5739SOL    HW218117   1.726   5.489   4.944 -0.0213  0.1237  0.7760
 5740SOL     OW18118   6.832   5.631   0.932 -0.4349  0.0562 -0.5745
 5740SOL    HW118119   6.919   5.587   0.911  0.4934  0.7240  1.5370
 5740SOL    HW218120   6.846   5.729   0.944 -1.7146  0.3569 -1.3623
 5741SOL     OW18121   0.449   5.148   2.914 -0.0602 -0.7127 -0.3035
 5741SOL    HW118122   0.498   5.179   2.996 -0.1060 -1.0447 -0.1509
 5741SOL    HW218123   0.362   5.196   2.906 -1.8519 -3.3116  1.9091
 5742SOL     OW18124   5.027   5.480   3.244  0.4613  0.0156 -0.2388
 5742SOL    HW118125   5.053   5.544   3.316  0.6279 -1.3787  1.0020
 5742SOL    HW218126   4.933   5.496   3.217 -0.0917 -0.3320  1.3593
 5743SOL     OW18127   3.710   4.980   0.142 -0.5808 -0.4412 -0.2806
 5743SOL    HW118128   3.616   4.991   0.175 -0.0676 -0.7349  1.3731
 5743SOL    HW218129   3.714   4.903   0.078 -1.2436 -1.2650  0.6329
 5744SOL     OW18130   5.507   1.265   2.084 -0.0366 -0.0628 -0.4879
 5744SOL    HW118131   5.482   1.295   1.993 -2.6913  0.6612  0.3918
 5744SOL    HW218132   5.433   1.209   2.123 -0.0647  1.5373  2.0340
 5745SOL     OW18133   2.740   2.413   4.174  0.2037  0.0622  0.1734
 5745SOL    HW118134   2.721   2.510   4.160  1.9275  0.3993 -0.0415
 5745SOL    HW218135   2.659   2.360   4.148  0.5856  1.1346 -4.0410
 5746SOL     OW18136   0.397   6.628   3.015 -0.7651  0.4553  0.6402
 5746SOL    HW118137   0.436   6.647   3.106 -2.7932 -1.0898  1.9160
 5746SOL    HW218138   0.321   6.565   3.024  0.0917 -1.2024 -2.3893
 5747SOL     OW18139   1.926   5.594   2.244  0.2463  0.2661  0.1423
 5747SOL    HW118140   2.007   5.541   2.268  0.5755  0.4993 -0.4434
 5747SOL    HW218141   1.896   5.572   2.152  0.7491  1.5168 -0.3406
 5748SOL     OW18142   3.236   0.799   5.219  0.7088  0.4365 -0.3180
 5748SOL    HW118143   3.286   0.825   5.137  0.1089  1.0406 -0.4966
 5748SOL    HW218144   3.153   0.854   5.227  1.2682  1.1417  1.2333
 5749SOL     OW18145   2.108   5.075   4.042  0.4337  0.1191 -0.1210
 5749SOL    HW118146   2.031   5.014   4.023  0.3153 -0.2446  1.3675
 5749SOL    HW218147   2.194   5.029   4.021  0.3000 -0.1453 -0.0898
 5750SOL     OW18148   5.749   0.267   4.304  0.6569  0.2240 -0.2737
 5750SOL    HW118149   5.834   0.299   4.347 -1.0354  2.0951  1.9742
 5750SOL    HW218150   5.707   0.342   4.254 -1.1235  0.3129  1.2224
 5751SOL     OW18151   1.849   1.563   5.644  0.1057 -0.3022 -0.2558
 5751SOL    HW118152   1.816   1.657   5.646 -0.2653 -0.4295 -0.3482
 5751SOL    HW218153   1.791   1.506   5.702  1.6417 -0.0664  1.6209
 5752SOL     OW18154   5.961   7.010   1.337  0.2204  0.1818  0.7333
 5752SOL    HW118155   5.906   6.991   1.418  1.1947  0.2547  1.4368
 5752SOL    HW218156   6.020   6.932   1.317 -1.6880 -0.8532 -1.3853
 5753SOL     OW18157   3.583   3.187   5.045  0.2084  0.3365  0.9886
 5753SOL    HW118158   3.605   3.111   4.985  1.5586  1.7037 -0.3250
 5753SOL    HW218159   3.488   3.214   5.031 -0.0316 -0.5476  0.8666
 5754SOL     OW18160   0.613   5.758   1.285 -0.1425 -0.0288  0.0750
 5754SOL    HW118161   0.610   5.800   1.194  1.9672  1.3117  0.5553
 5754SOL    HW218162   0.674   5.679   1.282 -1.7166 -1.2981 -0.1029
 5755SOL     OW18163   0.438   2.244   0.613 -0.8705 -0.2966  0.3189
 5755SOL    HW118164   0.378   2.203   0.682 -2.0755  1.1267  0.1747
 5755SOL    HW218165   0.519   2.282   0.657 -0.3442 -1.7056  0.5981
 5756SOL     OW18166   1.142   6.479   4.597 -0.3356  0.5990 -0.0693
 5756SOL    HW118167   1.190   6.549   4.649  0.0222  1.1421 -1.0912
 5756SOL    HW218168   1.108   6.519   4.511  1.8062 -0.9377 -1.7580
 5757SOL     OW18169   6.333   5.519   5.169 -0.4291  0.0733 -0.4113
 5757SOL    HW118170   6.395   5.440   5.168  0.0784  0.4422  0.7558
 5757SOL    HW218171   6.387   5.603   5.157 -0.5474  0.4756  1.6079
 5758SOL     OW18172   2.459   2.301   4.491  0.0694  0.3020 -0.0065
 5758SOL    HW118173   2.397   2.331   4.563  0.9238  2.1963  0.0120
 5758SOL    HW218174   2.550   2.284   4.530 -0.2000 -1.6800 -0.1562
 5759SOL     OW18175   2.820   1.149   0.485  0.1689  0.2610  0.4613
 5759SOL    HW118176   2.909   1.186   0.460 -0.6235  1.2921 -0.9929
 5759SOL    HW218177   2.750   1.219   0.471 -0.8154 -0.3309  2.1717
 5760SOL     OW18178   5.341   1.456   1.025  0.2615 -0.0617  0.0902
 5760SOL    HW118179   5.433   1.454   1.064  1.7352 -0.2781 -3.1286
 5760SOL    HW218180   5.334   1.530   0.959 -1.5490 -0.6795 -0.4759
 5761SOL     OW18181   5.658   6.049   4.937 -0.0114 -0.2356 -0.5252
 5761SOL    HW118182   5.571   6.006   4.913 -0.3234 -0.5398  1.0312
 5761SOL    HW218183   5.731   6.010   4.882 -0.7188 -0.6607 -1.1804
 5762SOL     OW18184   5.527   4.427   1.655  0.7985 -0.0839  0.3922
 5762SOL    HW118185   5.490   4.499   1.596 -0.0289  0.6756  1.7700
 5762SOL    HW218186   5.627   4.434   1.657  0.8107  0.1192 -0.5990
 5763SOL     OW18187   4.791   6.053   1.154  0.0991  0.4958  0.1415
 5763SOL    HW118188   4.778   6.119   1.080  2.3333  0.7903 -0.0538
 5763SOL    HW218189   4.842   5.974   1.120  1.3308  0.7206  1.3647
 5764SOL     OW18190   3.860   5.129   5.237  0.4964 -0.1129  0.8774
 5764SOL    HW118191   3.842   5.112   5.141 -2.0977  1.2003  1.0499
 5764SOL    HW218192   3.949   5.089   5.262  2.0086  0.8436 -2.3814
 5765SOL     OW18193   6.355   5.044   0.947  0.1397  0.0904 -1.2596
 5765SOL    HW118194   6.355   5.109   0.872  1.0599  1.0277 -0.4774
 5765SOL    HW218195   6.399   4.959   0.917  1.3626  0.7884 -1.5324
 5766SOL     OW18196   2.303   1.874   4.003  0.4486  0.1055  0.2997
 5766SOL    HW118197   2.218   1.839   3.962 -0.5919 -0.5462  2.8107
 5766SOL    HW218198   2.376   1.871   3.936 -0.5545 -3.1885 -0.8449
 5767SOL     OW18199   4.550   6.285   2.185  0.1838 -0.1388 -0.1834
 5767SOL    HW118200   4.622   6.222   2.155 -0.3427 -0.7671 -0.1414
 5767SOL    HW218201   4.463   6.236   2.191 -0.1959  0.5517  0.0309
 5768SOL     OW18202   0.352   5.484   3.239  0.7851 -0.0151 -0.3320
 5768SOL    HW118203   0.406   5.473   3.322  0.6784  0.9261 -0.1318
 5768SOL    HW218204   0.403   5.538   3.172  0.3603  0.3242 -0.3882
 5769SOL     OW18205   1.288   3.908   3.836  0.3276 -0.2981  0.3072
 5769SOL    HW118206   1.323   3.830   3.888  1.4010  0.0240  0.1006
 5769SOL    HW218207   1.287   3.990   3.893 -1.3385 -0.5470  0.6978
 5770SOL     OW18208   5.359   5.442   5.735 -0.0585 -0.1240 -0.0978
 5770SOL    HW118209   5.286   5.506   5.712 -1.1667 -2.0811 -2.4793
 5770SOL    HW218210   5.404   5.412   5.651  3.2280  0.6113  1.2597
 5771SOL     OW18211   1.919   6.538   3.889 -0.0767  0.2747 -0.4245
 5771SOL    HW118212   1.897   6.623   3.841  3.6530  0.9980 -1.1240
 5771SOL    HW218213   2.012   6.543   3.925 -0.6167 -2.6230  1.7159
 5772SOL     OW18214   4.970   1.030   1.450  0.8999 -0.4296 -0.1425
 5772SOL    HW118215   4.935   1.103   1.509  2.1945  1.6367 -1.7635
 5772SOL    HW218216   4.904   1.011   1.377  1.2238  0.3013 -0.6388
 5773SOL     OW18217   4.906   1.026   4.647 -0.5921 -0.2630  0.1032
 5773SOL    HW118218   4.877   0.935   4.617 -1.3661 -0.6945  2.0282
 5773SOL    HW218219   4.953   1.018   4.735  0.1551  1.1128 -0.1494
 5774SOL     OW18220   2.621   0.447   3.044 -0.4109 -0.3005 -0.1570
 5774SOL    HW118221   2.552   0.401   2.988 -1.7080 -0.0463  1.1597
 5774SOL    HW218222   2.600   0.544   3.051 -0.7238 -0.4470  1.3463
 5775SOL     OW18223   0.483   1.442   2.016  0.1968 -0.5883 -0.2621
 5775SOL    HW118224   0.434   1.507   1.958 -1.8734 -0.3493  1.6142
 5775SOL    HW218225   0.526   1.372   1.958 -0.2649  0.6094 -2.1394
 5776SOL     OW18226   1.889   1.664   3.140 -0.2550  0.0634 -0.0360
 5776SOL    HW118227   1.845   1.696   3.055 -0.6173  0.2336  0.2151
 5776SOL    HW218228   1.964   1.727   3.164 -1.3411  1.0797  0.7763
 5777SOL     OW18229   1.534   1.581   6.863 -0.0505  0.1830  0.3958
 5777SOL    HW118230   1.599   1.514   6.829  0.3416  1.5075 -1.6214
 5777SOL    HW218231   1.441   1.548   6.848  0.1376  0.0832 -0.5929
 5778SOL     OW18232   1.755   0.057   5.101  0.5266 -0.9131  0.7652
 5778SOL    HW118233   1.825   0.033   5.035  0.1869  1.0315 -0.3897
 5778SOL    HW218234   1.793   0.051   5.194  2.1084 -0.2789  0.1907
 5779SOL     OW18235   6.537   1.763   1.001  0.5343 -0.6140  0.5427
 5779SOL    HW118236   6.511   1.857   1.024 -0.5715 -0.9510  0.7375
 5779SOL    HW218237   6.544   1.755   0.901 -1.6255 -0.8322  0.3404
 5780SOL     OW18238   0.533   6.986   2.212  0.2871 -0.5028  0.7203
 5780SOL    HW118239   0.564   6.891   2.205  0.5498 -0.4805  1.4639
 5780SOL    HW218240   0.552   7.020   2.304 -1.1559 -0.2048  0.9306
 5781SOL     OW18241   5.601   3.905   2.745  0.4425  0.2208  0.8606
 5781SOL    HW118242   5.617   3.841   2.670 -1.1989  0.1729  0.5108
 5781SOL    HW218243   5.688   3.926   2.790  1.4148 -0.0387 -0.8037
 5782SOL     OW18244   2.187   0.554   6.219 -0.1256 -0.1093 -0.1788
 5782SOL    HW118245   2.238   0.545   6.304 -0.2009  2.8582  0.2913
 5782SOL    HW218246   2.129   0.474   6.206  1.8860 -1.8863  1.1207
 5783SOL     OW18247   6.358   1.471   6.591 -0.1952  0.4526 -0.1323
 5783SOL    HW118248   6.370   1.381   6.549 -1.9577  0.7131 -1.3106
 5783SOL    HW218249   6.324   1.460   6.684 -0.0866 -0.1082 -0.1563
 5784SOL     OW18250   6.927   5.099   2.415 -0.2806  0.4483 -0.0130
 5784SOL    HW118251   6.942   5.141   2.504  0.2706 -1.0540  0.6403
 5784SOL    HW218252   6.851   5.035   2.420  0.1556 -0.1179 -0.4390
 5785SOL     OW18253   1.465   1.608   6.273  0.8420  0.7351 -0.3588
 5785SOL    HW118254   1.453   1.592   6.371 -1.2793  2.8604 -0.1891
 5785SOL    HW218255   1.376   1.613   6.228  1.7233  1.2489 -2.1392
 5786SOL     OW18256   6.962   4.181   0.567  0.5519 -0.0700  0.1692
 5786SOL    HW118257   7.019   4.131   0.632  1.6236 -0.0832 -0.7460
 5786SOL    HW218258   6.972   4.140   0.476  1.1451  1.5484 -0.5287
 5787SOL     OW18259   1.168   0.882   5.784  0.2287 -0.0090 -0.1615
 5787SOL    HW118260   1.174   0.950   5.857  0.8976  0.2083 -0.4132
 5787SOL    HW218261   1.163   0.791   5.825  1.6049  0.0376  0.1575
 5788SOL     OW18262   3.765   2.700   0.294 -0.5702  0.4864 -0.7747
 5788SOL    HW118263   3.798   2.762   0.223  0.7222 -0.6072 -1.1884
 5788SOL    HW218264   3.744   2.611   0.253  1.5114 -0.6036  0.3499
 5789SOL     OW18265   3.370   5.313   1.018  0.0934 -0.1924  0.8548
 5789SOL    HW118266   3.354   5.335   0.922  0.0973  0.7130  1.0561
 5789SOL    HW218267   3.291   5.264   1.055  0.9150 -2.4276 -0.1456
 5790SOL     OW18268   0.585   5.132   4.906 -0.8398  0.0130 -0.0867
 5790SOL    HW118269   0.494   5.170   4.921 -1.3047 -1.7671  2.1336
 5790SOL    HW218270   0.651   5.174   4.968 -0.6878 -0.5033  0.1081
 5791SOL     OW18271   2.655   1.495   2.668  0.1416 -0.2027  0.0263
 5791SOL    HW118272   2.719   1.477   2.743  1.1686  1.8982 -0.2596
 5791SOL    HW218273   2.655   1.419   2.604  3.7513  0.3784 -0.8998
 5792SOL     OW18274   5.610   2.612   0.874 -0.2919 -0.6016  0.0290
 5792SOL    HW118275   5.593   2.619   0.973  2.1635 -0.9910  0.5376
 5792SOL    HW218276   5.665   2.691   0.845  0.3710 -1.3110 -0.6773
 5793SOL     OW18277   6.780   1.038   5.007 -0.4073  0.0130  0.4975
 5793SOL    HW118278   6.872   1.077   5.011  0.4921 -1.9899  0.8729
 5793SOL    HW218279   6.732   1.057   5.092 -0.1645  0.6712  0.4911
 5794SOL     OW18280   4.089   3.472   6.187  0.7669  0.2077 -0.0624
 5794SOL    HW118281   4.157   3.400   6.199  1.3903  0.4293 -1.9338
 5794SOL    HW218282   4.062   3.477   6.091 -0.5859  1.3099  0.3406
 5795SOL     OW18283   6.735   0.269   0.113  0.0220  0.3664  0.2706
 5795SOL    HW118284   6.826   0.296   0.084  1.3310 -1.9180  1.8540
 5795SOL    HW218285   6.694   0.341   0.169  0.6925  1.5440 -0.7198
 5796SOL     OW18286   6.013   0.873   6.548  0.3247  0.6195 -0.2596
 5796SOL    HW118287   5.913   0.874   6.544  0.3245 -0.2114 -0.6107
 5796SOL    HW218288   6.049   0.836   6.462  0.8183 -2.8494  1.2973
 5797SOL     OW18289   5.503   2.899   7.009 -0.1231  0.0128  0.7109
 5797SOL    HW118290   5.559   2.816   7.009  0.1791  0.1919  2.1553
 5797SOL    HW218291   5.406   2.874   7.014 -0.1605 -0.2811 -1.0523
 5798SOL     OW18292   1.476   5.406   5.813  0.0354 -0.6579 -0.0516
 5798SOL    HW118293   1.400   5.358   5.857 -0.4105 -0.6603 -0.8257
 5798SOL    HW218294   1.519   5.467   5.880 -0.6365 -0.6608  0.3951
 5799SOL     OW18295   2.255   0.762   2.653  0.4824  0.1197 -0.1502
 5799SOL    HW118296   2.285   0.839   2.597  0.4359  1.6263  1.8031
 5799SOL    HW218297   2.156   0.769   2.669  0.5725 -0.0298  0.4870
 5800SOL     OW18298   6.630   6.464   0.576 -0.3091 -0.1525  0.6563
 5800SOL    HW118299   6.667   6.399   0.510 -2.1396  0.1625 -0.7668
 5800SOL    HW218300   6.688   6.465   0.657  0.1219 -3.0876  0.4968
 5801SOL     OW18301   2.394   2.159   3.664  0.1315 -0.5884  0.1236
 5801SOL    HW118302   2.471   2.102   3.694  1.3568  0.4068 -1.0051
 5801SOL    HW218303   2.410   2.254   3.691 -0.7461 -0.3749 -0.0686
 5802SOL     OW18304   1.761   5.200   1.160  0.7278 -0.2498  0.2371
 5802SOL    HW118305   1.718   5.137   1.225  0.8661  0.1404  0.7139
 5802SOL    HW218306   1.855   5.220   1.189  0.8753 -0.2733 -0.2218
 5803SOL     OW18307   1.101   4.548   3.403 -0.2752  0.1920  0.0057
 5803SOL    HW118308   1.172   4.581   3.465 -0.0521  0.9002 -0.6093
 5803SOL    HW218309   1.136   4.549   3.309 -0.6505 -0.7456 -0.1515
 5804SOL     OW18310   0.410   4.631   3.538 -0.3107 -0.2137  0.4619
 5804SOL    HW118311   0.441   4.725   3.522 -1.2220  0.1092  0.5389
 5804SOL    HW218312   0.459   4.569   3.476  0.7493  0.2229  0.8467
 5805SOL     OW18313   1.949   4.301   5.993 -0.0184 -0.6649 -0.1523
 5805SOL    HW118314   1.944   4.225   5.928  0.5251 -1.2121  0.4371
 5805SOL    HW218315   1.898   4.277   6.076 -0.0191 -0.2980 -0.0457
 5806SOL     OW18316   1.121   6.757   3.880  0.2772 -0.0874 -0.4723
 5806SOL    HW118317   1.220   6.769   3.868  0.1975  1.6086  0.2887
 5806SOL    HW218318   1.077   6.753   3.791  0.9527 -0.1127 -0.8107
 5807SOL     OW18319   6.148   3.821   1.733  0.1236  0.5279  0.3815
 5807SOL    HW118320   6.055   3.786   1.727 -0.5800  2.4081 -0.2815
 5807SOL    HW218321   6.174   3.830   1.830 -0.9816  1.4581  0.6060
 5808SOL     OW18322   6.488   0.111   4.753 -0.1947  0.0902  0.2341
 5808SOL    HW118323   6.500   0.023   4.707  0.5394 -0.2044  0.9589
 5808SOL    HW218324   6.422   0.166   4.703  1.0188  0.0308 -1.5278
 5809SOL     OW18325   6.012   0.688   5.985  0.1382  0.3540  0.0640
 5809SOL    HW118326   6.043   0.669   6.078  1.4507  0.3419 -0.3557
 5809SOL    HW218327   6.070   0.758   5.944  0.5058 -0.6891 -1.2463
 5810SOL     OW18328   4.019   2.176   4.931 -0.1590  0.4870 -0.4593
 5810SOL    HW118329   4.050   2.269   4.952  0.5868  0.1043  0.2007
 5810SOL    HW218330   3.983   2.134   5.014  1.0292 -0.3719 -0.3468
 5811SOL     OW18331   1.626   0.503   6.543  0.0392  0.1337 -0.6364
 5811SOL    HW118332   1.610   0.601   6.540  2.5126  0.6260  0.1991
 5811SOL    HW218333   1.608   0.469   6.636 -1.4485 -0.3659 -1.0808
 5812SOL     OW18334   5.577   3.319   4.625 -0.0353 -0.2809  0.1466
 5812SOL    HW118335   5.513   3.355   4.558  0.2801 -1.0172 -0.5693
 5812SOL    HW218336   5.536   3.240   4.672  1.6182 -3.3186 -3.0482
 5813SOL     OW18337   3.559   2.725   6.495  0.2494  0.3752  0.5763
 5813SOL    HW118338   3.573   2.822   6.512 -1.8200  0.6962  0.7498
 5813SOL    HW218339   3.552   2.676   6.582 -0.9581  0.4742  0.5580
 5814SOL     OW18340   0.140   5.144   2.693  0.2254  0.2490  0.2056
 5814SOL    HW118341   0.182   5.225   2.732  0.7496  0.7274 -1.2961
 5814SOL    HW218342   0.041   5.146   2.709  0.4963 -0.0951  2.3481
 5815SOL     OW18343   4.914   1.274   4.981 -0.2313 -0.0827 -0.1255
 5815SOL    HW118344   4.818   1.296   4.963 -0.0555  0.0495 -0.9414
 5815SOL    HW218345   4.971   1.352   4.956  0.2223 -0.7208 -1.1410
 5816SOL     OW18346   4.112   3.730   6.255  0.1910 -0.7447 -0.0841
 5816SOL    HW118347   4.171   3.761   6.330  0.5792  2.2084 -1.4927
 5816SOL    HW218348   4.105   3.630   6.258  1.5272 -0.8666  2.8418
 5817SOL     OW18349   6.488   5.251   6.671 -0.4313  0.2706 -0.1165
 5817SOL    HW118350   6.541   5.167   6.657 -0.3611  0.4710 -1.1167
 5817SOL    HW218351   6.549   5.330   6.669 -0.7312  0.4951 -1.1827
 5818SOL     OW18352   5.863   1.489   4.221  0.2728  0.2504 -0.3311
 5818SOL    HW118353   5.897   1.567   4.272  3.1754 -1.1517  0.0553
 5818SOL    HW218354   5.866   1.510   4.123  0.3773  0.8265 -0.2094
 5819SOL     OW18355   5.845   1.573   5.846  0.5672 -0.1823  0.4136
 5819SOL    HW118356   5.902   1.646   5.883  0.3740  1.1178 -1.7292
 5819SOL    HW218357   5.799   1.604   5.763 -0.3129 -2.4274 -0.0258
 5820SOL     OW18358   4.068   5.999   6.386 -0.4144  0.3351  0.6719
 5820SOL    HW118359   4.091   6.074   6.448  0.0296  0.2494  0.6103
 5820SOL    HW218360   4.021   5.927   6.437 -0.1729  0.3261  0.8826
 5821SOL     OW18361   6.722   1.973   2.486  0.0632 -0.4410  0.2637
 5821SOL    HW118362   6.626   1.974   2.514  0.4672  0.2608  1.7178
 5821SOL    HW218363   6.780   1.986   2.566  1.3838 -0.8024 -0.6030
 5822SOL     OW18364   6.618   0.715   3.157  0.1876  0.4643  0.1339
 5822SOL    HW118365   6.691   0.661   3.199 -0.4458  0.3198  1.0664
 5822SOL    HW218366   6.558   0.654   3.104  0.8609  0.6154 -0.8214
 5823SOL     OW18367   1.393   1.708   5.273  0.5604 -0.5611  0.3936
 5823SOL    HW118368   1.297   1.716   5.301  0.0191  0.9421 -1.6295
 5823SOL    HW218369   1.405   1.628   5.215  0.8644 -1.5204  1.7354
 5824SOL     OW18370   6.556   5.649   1.852 -0.9189 -0.0907  0.2989
 5824SOL    HW118371   6.602   5.564   1.875  0.0049  0.4051  0.3338
 5824SOL    HW218372   6.559   5.711   1.931 -2.4428 -0.3801  0.6069
 5825SOL     OW18373   1.885   0.447   6.122 -0.7659 -0.2263 -0.4736
 5825SOL    HW118374   1.861   0.432   6.218 -1.2249  0.0387 -0.5426
 5825SOL    HW218375   1.841   0.531   6.090 -1.6083 -0.9475 -1.2636
 5826SOL     OW18376   6.530   6.241   3.194 -0.2693  0.5373 -0.3243
 5826SOL    HW118377   6.598   6.238   3.268  0.6550 -0.2560 -1.1707
 5826SOL    HW218378   6.533   6.155   3.143 -2.4037  0.2106  0.0187
 5827SOL     OW18379   1.453   3.128   6.781 -0.8093 -0.0015 -0.4653
 5827SOL    HW118380   1.451   3.075   6.865  0.8469  0.3548 -0.1594
 5827SOL    HW218381   1.460   3.225   6.802  0.3849  0.0478 -0.9727
 5828SOL     OW18382   0.180   1.903   6.821  0.3195 -0.1386  0.5007
 5828SOL    HW118383   0.113   1.830   6.812 -1.6339  1.5348  0.8853
 5828SOL    HW218384   0.184   1.955   6.736  1.2707 -0.3112  0.4280
 5829SOL     OW18385   2.767   6.880   1.507  0.5368  0.4791  0.0731
 5829SOL    HW118386   2.776   6.925   1.418  1.3561  1.3411  0.5654
 5829SOL    HW218387   2.822   6.797   1.509 -0.3181 -0.1131 -0.5664
 5830SOL     OW18388   5.739   6.605   4.881 -0.1635  0.0937  0.4451
 5830SOL    HW118389   5.682   6.549   4.821 -0.5464  1.0582 -0.1333
 5830SOL    HW218390   5.683   6.643   4.955  0.0730 -0.2214  0.7869
 5831SOL     OW18391   1.017   1.793   6.785 -0.0134 -0.0571 -0.0212
 5831SOL    HW118392   1.058   1.883   6.797  0.6998 -0.5467  1.3463
 5831SOL    HW218393   0.958   1.794   6.704 -0.5391  1.8186  0.3461
 5832SOL     OW18394   2.429   6.144   6.363 -0.3403  0.0397  0.5095
 5832SOL    HW118395   2.370   6.080   6.313 -0.6386  1.0047 -0.4218
 5832SOL    HW218396   2.394   6.237   6.351  0.8473  0.5287  0.7186
 5833SOL     OW18397   3.347   4.141   2.787 -0.1374  0.5833  0.2512
 5833SOL    HW118398   3.402   4.061   2.810 -0.9471 -0.4660 -1.3185
 5833SOL    HW218399   3.315   4.135   2.692 -0.3238  2.7192  0.1164
 5834SOL     OW18400   6.249   4.130   6.203 -0.2424 -0.0710 -0.2103
 5834SOL    HW118401   6.155   4.140   6.171 -0.8939  1.5167  1.9275
 5834SOL    HW218402   6.254   4.056   6.270  0.3877 -1.1664 -1.4400
 5835SOL     OW18403   4.898   3.448   3.811  0.5715  0.2150 -0.1747
 5835SOL    HW118404   4.919   3.420   3.905 -2.3323  1.0280  0.8287
 5835SOL    HW218405   4.915   3.546   3.801 -2.0683  0.8220  0.5658
 5836SOL     OW18406   2.713   1.336   3.035  0.2309  0.0890  0.7570
 5836SOL    HW118407   2.622   1.296   3.050  0.0535 -0.1342 -0.6771
 5836SOL    HW218408   2.760   1.347   3.122 -0.5454 -1.2936  1.3848
 5837SOL     OW18409   4.157   4.065   5.908  0.1348 -0.4593 -0.7346
 5837SOL    HW118410   4.229   4.046   5.841 -0.3362  0.2296 -1.4573
 5837SOL    HW218411   4.170   4.157   5.944 -0.6162 -0.1694 -1.1871
 5838SOL     OW18412   4.379   3.626   0.008  0.0840  0.2949  0.3841
 5838SOL    HW118413   4.319   3.605  -0.069  0.2622  1.9632 -0.2755
 5838SOL    HW218414   4.469   3.585  -0.008 -0.2348 -0.3822  0.3064
 5839SOL     OW18415   1.369   2.373   1.626  0.0272  0.0748 -0.1364
 5839SOL    HW118416   1.394   2.388   1.722  0.0902 -1.2022  0.0694
 5839SOL    HW218417   1.416   2.292   1.592  0.5723  0.9356 -1.4868
 5840SOL     OW18418   0.569   3.806   6.087 -0.0851 -0.0267 -0.6014
 5840SOL    HW118419   0.587   3.721   6.037 -1.2861 -0.6519 -0.0155
 5840SOL    HW218420   0.470   3.822   6.092 -0.0016  0.0983  1.4192
 5841SOL     OW18421   6.288   0.983   1.105 -0.6117  0.4125 -0.2421
 5841SOL    HW118422   6.306   0.923   1.027 -1.8084  0.2944 -0.4474
 5841SOL    HW218423   6.298   0.930   1.190  3.3665  1.1436 -0.0401
 5842SOL     OW18424   5.160   1.527   1.643  0.1065 -0.2075  0.3774
 5842SOL    HW118425   5.179   1.537   1.741  0.8340  0.9246  0.1332
 5842SOL    HW218426   5.127   1.613   1.606 -2.1302 -1.1460  0.0013
 5843SOL     OW18427   2.726   4.754   3.592  0.5118  0.8115 -0.1752
 5843SOL    HW118428   2.727   4.708   3.681  0.1610  1.1494  0.0048
 5843SOL    HW218429   2.717   4.852   3.605  3.8582  1.2837 -0.4135
 5844SOL     OW18430   1.220   4.594   4.989  0.4864  0.1578  0.3528
 5844SOL    HW118431   1.254   4.584   5.083  0.8349  2.1484  0.4843
 5844SOL    HW218432   1.289   4.642   4.934  0.2591 -0.9406 -0.9173
 5845SOL     OW18433   6.155   0.651   2.155  0.9480  0.0564  0.8567
 5845SOL    HW118434   6.226   0.627   2.221 -0.2988  0.6658  2.4621
 5845SOL    HW218435   6.078   0.588   2.164  0.4844  0.5562  0.4580
 5846SOL     OW18436   6.422   1.130   3.610 -0.1125  0.0979  0.1969
 5846SOL    HW118437   6.495   1.062   3.614  1.3591  1.6509  1.4110
 5846SOL    HW218438   6.409   1.170   3.700 -0.2801  2.0510 -0.6367
 5847SOL     OW18439   2.124   2.079   3.663 -0.8194  0.4691 -0.3520
 5847SOL    HW118440   2.085   2.168   3.637 -1.1462  0.4997  0.2333
 5847SOL    HW218441   2.223   2.088   3.674 -0.9496  0.9394  0.4485
 5848SOL     OW18442   4.087   6.835   2.757  0.0799 -0.5887  0.2807
 5848SOL    HW118443   4.094   6.879   2.846  1.1194  1.4710 -0.7561
 5848SOL    HW218444   3.996   6.851   2.719  0.1822 -0.0372  0.2656
 5849SOL     OW18445   6.756   0.078   6.794 -0.0582 -0.5546 -0.0688
 5849SOL    HW118446   6.754   0.037   6.885  1.2299 -1.2204 -0.3240
 5849SOL    HW218447   6.667   0.118   6.774 -0.5277 -0.8887  1.2582
 5850SOL     OW18448   0.538   2.559   1.914 -0.4736 -0.1079 -0.2407
 5850SOL    HW118449   0.605   2.585   1.984 -0.9918  0.0198  0.2139
 5850SOL    HW218450   0.582   2.502   1.845 -0.0879 -0.7186  0.5013
 5851SOL     OW18451   4.076   4.825   4.046  0.5971  1.0849  0.0698
 5851SOL    HW118452   4.024   4.822   3.961  0.1762 -3.3966  0.2730
 5851SOL    HW218453   4.016   4.856   4.120 -1.5021 -2.2530 -0.0292
 5852SOL     OW18454   6.971   5.951   3.369 -0.6076 -0.1767 -0.5919
 5852SOL    HW118455   6.977   6.049   3.386  0.2668 -0.6558  2.5815
 5852SOL    HW218456   6.909   5.934   3.293 -1.3115  2.7867 -0.7956
 5853SOL     OW18457   4.247   6.293   2.458  0.0005  0.3514 -1.2723
 5853SOL    HW118458   4.320   6.315   2.523 -0.0943 -2.0777 -0.2517
 5853SOL    HW218459   4.245   6.195   2.442 -2.8176  0.3703 -1.5509
 5854SOL     OW18460   6.368   5.837   6.072  0.1248  0.0195  0.2368
 5854SOL    HW118461   6.373   5.932   6.103 -0.0420  0.4844 -1.0986
 5854SOL    HW218462   6.454   5.791   6.092  0.5903  0.7508 -0.0153
 5855SOL     OW18463   6.585   6.314   4.974 -0.5338 -0.5690  0.0594
 5855SOL    HW118464   6.578   6.414   4.978 -2.8960 -0.7297  1.7341
 5855SOL    HW218465   6.609   6.279   5.065 -0.9915 -1.5988 -0.2074
 5856SOL     OW18466   1.824   4.093   6.158  0.3240  0.2879 -0.5039
 5856SOL    HW118467   1.844   4.068   6.253 -0.1069 -0.3744 -0.5809
 5856SOL    HW218468   1.879   4.036   6.096 -1.1581 -0.9910 -0.6971
 5857SOL     OW18469   0.463   3.300   4.155  0.1898 -0.5729 -0.3290
 5857SOL    HW118470   0.414   3.216   4.132  1.0232 -1.4049  0.8019
 5857SOL    HW218471   0.503   3.292   4.246  0.8009  0.8251 -0.4402
 5858SOL     OW18472   1.624   3.822   3.699 -0.1941 -0.3361  0.0351
 5858SOL    HW118473   1.564   3.774   3.763  1.0400 -1.6116  0.2632
 5858SOL    HW218474   1.585   3.816   3.607 -0.9238 -0.2674  0.3315
 5859SOL     OW18475   6.694   6.080   2.393  0.0597 -0.5148  0.4953
 5859SOL    HW118476   6.771   6.018   2.384 -0.6212 -1.3089 -0.0504
 5859SOL    HW218477   6.683   6.107   2.488 -0.2582 -2.0851  0.9368
 5860SOL     OW18478   2.663   5.106   0.786  0.3789  0.5797 -0.1744
 5860SOL    HW118479   2.696   5.180   0.845  0.7039  0.3468 -0.0620
 5860SOL    HW218480   2.699   5.119   0.693 -0.0881  0.9161 -0.3152
 5861SOL     OW18481   6.624   6.943   2.989 -0.0109 -0.3335 -0.1989
 5861SOL    HW118482   6.638   6.844   2.998 -1.3375 -0.4607  0.7472
 5861SOL    HW218483   6.695   6.981   2.929  0.5951 -1.8270 -0.4862
 5862SOL     OW18484   4.840   3.948   0.589  0.0015 -0.0739 -0.0149
 5862SOL    HW118485   4.871   4.018   0.654  1.3773 -0.9917  0.3572
 5862SOL    HW218486   4.893   3.957   0.504  0.0444 -0.5369 -0.0370
 5863SOL     OW18487   3.051   2.391   5.784 -0.8783  0.1053 -0.3313
 5863SOL    HW118488   3.106   2.405   5.703  0.4230 -0.1419  0.4865
 5863SOL    HW218489   3.081   2.454   5.856 -1.6206 -0.0730  0.1476
 5864SOL     OW18490   3.592   2.203   6.923  0.4282 -0.1074 -0.3920
 5864SOL    HW118491   3.577   2.276   6.856 -1.3637 -0.0590  0.0129
 5864SOL    HW218492   3.539   2.222   7.006  1.2951 -1.0177  0.4054
 5865SOL     OW18493   4.899   1.538   5.261  0.7957  0.2635 -0.2883
 5865SOL    HW118494   4.997   1.521   5.247  0.8862 -1.7233  2.0349
 5865SOL    HW218495   4.873   1.510   5.354 -1.6729  2.3493 -0.2349
 5866SOL     OW18496   3.813   3.176   0.360 -0.3026  0.6071  0.5055
 5866SOL    HW118497   3.882   3.248   0.366 -1.0591  1.2329  2.6382
 5866SOL    HW218498   3.834   3.104   0.427 -1.9662  1.1031  1.6281
 5867SOL     OW18499   1.648   5.883   0.748  0.3504  0.4283  0.3955
 5867SOL    HW118500   1.679   5.899   0.655  0.3592 -0.1727  0.2940
 5867SOL    HW218501   1.725   5.853   0.804  0.1507 -0.1179  0.3770
 5868SOL     OW18502   6.646   0.371   5.724 -0.1637 -0.5299 -0.1913
 5868SOL    HW118503   6.639   0.468   5.747 -0.6668 -0.2202 -1.5530
 5868SOL    HW218504   6.737   0.353   5.686 -0.6148 -0.2325 -1.4476
 5869SOL     OW18505   2.258   6.287   3.908 -0.2170 -0.0860  0.4753
 5869SOL    HW118506   2.287   6.285   4.004 -1.3845  1.3663  0.8967
 5869SOL    HW218507   2.222   6.198   3.881  0.1401 -0.5102  1.3742
 5870SOL     OW18508   5.035   5.978   6.063 -0.0335  0.5129 -0.0419
 5870SOL    HW118509   4.951   6.033   6.059 -0.5428 -0.1013  1.3962
 5870SOL    HW218510   5.010   5.882   6.078  0.9379  0.3541  0.5938
 5871SOL     OW18511   2.220   3.948   0.689  0.3088 -0.1007 -0.2124
 5871SOL    HW118512   2.181   3.870   0.640  0.7542 -1.7650  1.9314
 5871SOL    HW218513   2.160   3.975   0.764  1.0877  0.3497  0.2661
 5872SOL     OW18514   2.353   4.806   1.126  0.1293 -0.0314 -0.7449
 5872SOL    HW118515   2.264   4.850   1.137 -0.5096 -1.6675  1.3925
 5872SOL    HW218516   2.388   4.822   1.034 -0.6261  3.7442 -0.5233
 5873SOL     OW18517   1.994   1.140   1.876 -0.7159 -0.1036  0.3429
 5873SOL    HW118518   1.919   1.101   1.930  0.1314 -1.1925  0.7780
 5873SOL    HW218519   2.040   1.067   1.826  0.0205  0.5624  0.0348
 5874SOL     OW18520   4.862   3.850   5.629  0.0592 -0.4957 -0.3230
 5874SOL    HW118521   4.814   3.885   5.710  0.2878  1.2472 -0.9159
 5874SOL    HW218522   4.888   3.754   5.645 -0.5415 -0.4064  1.3705
 5875SOL     OW18523   4.706   1.738   6.879 -0.1967 -0.1325 -0.3015
 5875SOL    HW118524   4.647   1.757   6.801 -1.7220  0.2450  0.9151
 5875SOL    HW218525   4.733   1.823   6.923  0.6908 -0.3404 -0.4090
 5876SOL     OW18526   3.778   2.037   0.741 -0.7745 -0.2257  0.0077
 5876SOL    HW118527   3.745   2.104   0.675 -0.4226  0.3604  0.4118
 5876SOL    HW218528   3.727   2.046   0.827 -0.6346 -0.3815  0.1100
 5877SOL     OW18529   2.446   5.414   1.492  0.1566  0.3415 -0.4764
 5877SOL    HW118530   2.494   5.433   1.578  0.6683  0.4582 -0.7816
 5877SOL    HW218531   2.355   5.456   1.494 -0.0329 -0.1046  0.2120
 5878SOL     OW18532   3.898   1.245   0.206 -0.2922  0.8653  0.3445
 5878SOL    HW118533   3.936   1.276   0.119 -0.6246 -0.9842 -0.5055
 5878SOL    HW218534   3.965   1.259   0.279  0.5358  1.1509 -0.4546
 5879SOL     OW18535   1.324   1.178   6.158 -0.3144 -0.1845  0.0779
 5879SOL    HW118536   1.279   1.227   6.232 -3.3802 -1.1362 -1.0146
 5879SOL    HW218537   1.418   1.157   6.185 -0.4324  1.9128  2.5099
 5880SOL     OW18538   5.191   2.580   0.120 -0.2233  0.4286 -0.3369
 5880SOL    HW118539   5.278   2.603   0.164 -0.5969  3.0776 -0.8146
 5880SOL    HW218540   5.208   2.527   0.037  0.9796  1.4306 -0.7482
 5881SOL     OW18541   2.130   6.556   3.015 -0.4150  0.0012 -0.1149
 5881SOL    HW118542   2.039   6.577   2.978  0.4409  0.9621 -1.8158
 5881SOL    HW218543   2.178   6.641   3.037  0.0720 -0.4945  0.7695
 5882SOL     OW18544   2.296   6.749   4.833 -0.0365 -0.4592 -0.2619
 5882SOL    HW118545   2.356   6.793   4.766  0.2381 -2.5955 -1.5293
 5882SOL    HW218546   2.228   6.814   4.866  1.6962  1.4729 -0.3291
 5883SOL     OW18547   0.343   1.779   7.004 -0.4434 -0.1904  0.0834
 5883SOL    HW118548   0.312   1.843   6.934  1.3114  1.1923  0.4680
 5883SOL    HW218549   0.292   1.795   7.089 -0.0685  0.6933  0.1547
 5884SOL     OW18550   6.850   2.708   5.672 -0.3254 -0.2863 -0.0921
 5884SOL    HW118551   6.886   2.656   5.749 -2.8008 -0.3535  1.1361
 5884SOL    HW218552   6.840   2.648   5.593  0.0178 -0.8366  0.2748
 5885SOL     OW18553   0.098   6.475   1.899  0.1959  0.3692  0.4411
 5885SOL    HW118554   0.007   6.507   1.873 -0.1607 -2.1002 -1.7034
 5885SOL    HW218555   0.161   6.486   1.822  0.9456 -0.6763  0.8766
 5886SOL     OW18556   0.155   1.570   3.412  0.1690 -0.6534 -0.0783
 5886SOL    HW118557   0.122   1.475   3.418  2.4977 -1.5714 -0.7370
 5886SOL    HW218558   0.209   1.591   3.494  0.2327 -0.1327 -0.2546
 5887SOL     OW18559   2.858   2.013   0.268 -0.5182  0.5274 -0.4523
 5887SOL    HW118560   2.946   2.058   0.282 -0.4360  0.5612 -1.0796
 5887SOL    HW218561   2.855   1.928   0.321  0.0857  0.2690 -0.8290
 5888SOL     OW18562   2.276   1.119   2.544  0.1139  0.6327 -0.2956
 5888SOL    HW118563   2.344   1.110   2.617 -0.9144 -1.2653  0.4934
 5888SOL    HW218564   2.270   1.216   2.517  1.3900  1.2039  1.2714
 5889SOL     OW18565   5.799   1.695   6.188 -0.1424 -0.1708  1.0698
 5889SOL    HW118566   5.734   1.625   6.160  1.8254 -1.9697  0.6978
 5889SOL    HW218567   5.792   1.774   6.128 -1.0101 -0.9199  0.1572
 5890SOL     OW18568   2.665   0.336   1.515 -0.3218  0.1420 -0.0092
 5890SOL    HW118569   2.602   0.368   1.444  0.7082 -0.2365 -1.1185
 5890SOL    HW218570   2.643   0.382   1.601 -0.6459  1.7538 -0.9071
 5891SOL     OW18571   2.450   3.434   1.078  0.3111  0.7621  0.2151
 5891SOL    HW118572   2.447   3.505   1.008  0.3072  0.8712  0.3258
 5891SOL    HW218573   2.530   3.448   1.137 -0.3428  1.3790  0.9750
 5892SOL     OW18574   0.418   6.855   1.324 -0.4239 -0.2671 -0.0665
 5892SOL    HW118575   0.418   6.934   1.263 -1.7757  0.3463  0.6889
 5892SOL    HW218576   0.342   6.862   1.388  1.8123 -0.1079  2.7781
 5893SOL     OW18577   2.009   3.832   0.520 -0.7441  0.4613  0.4860
 5893SOL    HW118578   1.962   3.913   0.486  0.9471  2.2082  2.0798
 5893SOL    HW218579   2.097   3.822   0.473 -0.4925  0.1791  0.9986
 5894SOL     OW18580   1.354   6.016   4.637 -0.3740 -0.0564  0.6345
 5894SOL    HW118581   1.400   5.940   4.592 -0.1872  0.2770  0.2551
 5894SOL    HW218582   1.255   6.003   4.632 -0.3291 -1.2856  2.3372
 5895SOL     OW18583   5.537   2.249   1.741 -0.2689 -0.0207 -0.6936
 5895SOL    HW118584   5.596   2.301   1.679  0.4882 -1.0286 -0.8325
 5895SOL    HW218585   5.583   2.237   1.829 -0.0252 -1.2696 -0.9782
 5896SOL     OW18586   5.057   2.329   0.820 -0.1002 -0.1393 -0.6436
 5896SOL    HW118587   5.043   2.231   0.836  0.7851 -0.4524 -1.6207
 5896SOL    HW218588   4.969   2.375   0.813 -0.5210 -0.7556  0.4087
 5897SOL     OW18589   2.668   7.008   0.680  0.1047  0.8209 -0.5963
 5897SOL    HW118590   2.712   7.084   0.727  0.4315  0.1602  0.2119
 5897SOL    HW218591   2.733   6.963   0.619  1.7412 -2.0846  2.8599
 5898SOL     OW18592   1.748   1.015   5.612 -0.0115 -0.3971 -0.0460
 5898SOL    HW118593   1.797   0.929   5.616  0.0143 -0.3169  2.2569
 5898SOL    HW218594   1.666   1.010   5.669 -0.0623  1.0540  0.0516
 5899SOL     OW18595   5.269   5.106   0.058 -0.3928 -0.4780 -0.3407
 5899SOL    HW118596   5.331   5.033   0.031 -1.6332 -2.1882  1.2281
 5899SOL    HW218597   5.189   5.067   0.103 -1.7027  1.7855 -0.5500
 5900SOL     OW18598   6.228   6.107   1.647 -0.0506  0.4173  0.4637
 5900SOL    HW118599   6.302   6.040   1.638 -0.4802 -0.1400  0.9597
 5900SOL    HW218600   6.261   6.184   1.701  0.4031  0.5396  0.0231
 5901SOL     OW18601   2.742   1.429   1.807 -0.1748 -0.1166 -0.2141
 5901SOL    HW118602   2.773   1.336   1.787 -1.3616 -0.5175 -0.2907
 5901SOL    HW218603   2.757   1.449   1.904 -2.6037 -1.5264  0.5371
 5902SOL     OW18604   5.775   4.724   4.867  0.1783  0.0451 -0.4062
 5902SOL    HW118605   5.745   4.695   4.958  1.6718 -0.8414 -0.1639
 5902SOL    HW218606   5.820   4.813   4.874 -0.1109  0.1926 -0.3720
 5903SOL     OW18607   4.474   1.796   6.698  0.8041  0.2732 -0.3343
 5903SOL    HW118608   4.436   1.814   6.607  0.6034 -0.8388 -0.4787
 5903SOL    HW218609   4.450   1.872   6.759 -1.6870 -0.3626 -0.4142
 5904SOL     OW18610   3.136   2.816   6.893  0.2455  0.4465 -0.4831
 5904SOL    HW118611   3.157   2.891   6.956  1.3671 -0.4190  0.2039
 5904SOL    HW218612   3.153   2.728   6.937  1.9636 -0.1852 -2.2276
 5905SOL     OW18613   1.337   0.474   4.855 -0.3019 -0.5800 -0.5284
 5905SOL    HW118614   1.279   0.476   4.774 -1.8372 -2.2097  0.4634
 5905SOL    HW218615   1.317   0.552   4.913 -0.8861 -0.6538 -0.6238
 5906SOL     OW18616   3.673   2.205   5.201  0.1973  0.4749  0.0924
 5906SOL    HW118617   3.584   2.180   5.164 -0.0925 -0.7905  1.5469
 5906SOL    HW218618   3.666   2.290   5.253  0.2639  1.3699 -1.3101
 5907SOL     OW18619   1.993   1.008   1.469  0.4105  0.1135  0.2073
 5907SOL    HW118620   1.931   1.021   1.392 -0.9182 -0.7158  1.1090
 5907SOL    HW218621   2.052   1.089   1.478  0.1862  0.4698 -1.2931
 5908SOL     OW18622   0.259   5.290   6.331  0.3406 -0.4625 -0.8261
 5908SOL    HW118623   0.261   5.317   6.428 -1.7161 -1.0268 -0.5767
 5908SOL    HW218624   0.234   5.370   6.275  0.9782 -0.2681 -0.8390
 5909SOL     OW18625   0.509   6.357   6.456 -0.4526  0.7530  0.2353
 5909SOL    HW118626   0.488   6.306   6.372  2.1864  0.5480 -0.3752
 5909SOL    HW218627   0.435   6.344   6.522 -1.1081 -1.7357 -0.8605
 5910SOL     OW18628   0.936   6.129   1.950 -0.0505 -0.2273 -0.0071
 5910SOL    HW118629   0.842   6.099   1.959  0.0190  0.1782  2.8327
 5910SOL    HW218630   0.991   6.091   2.025  1.3409  2.0484  0.2118
 5911SOL     OW18631   6.032   5.368   6.025  0.2708 -0.8769  0.3703
 5911SOL    HW118632   6.070   5.459   6.042 -1.3812 -0.5370  2.7457
 5911SOL    HW218633   5.940   5.376   5.987 -0.0677 -1.4966  1.0116
 5912SOL     OW18634   4.811   3.371   6.920 -0.4875  0.3680 -0.4489
 5912SOL    HW118635   4.797   3.292   6.980 -0.4119  1.3605  0.9276
 5912SOL    HW218636   4.910   3.384   6.905 -0.4434  0.7568  0.1291
 5913SOL     OW18637   3.883   3.452   6.687 -0.2796 -0.8741  0.0761
 5913SOL    HW118638   3.886   3.494   6.778  1.4765  1.3843 -0.9030
 5913SOL    HW218639   3.795   3.472   6.644 -1.0803 -1.8680  1.1873
 5914SOL     OW18640   2.569   5.146   5.890  0.0604 -0.6408  0.4312
 5914SOL    HW118641   2.487   5.200   5.908 -0.7799 -1.2848 -1.3119
 5914SOL    HW218642   2.606   5.113   5.977 -0.6098  0.9611  1.3624
 5915SOL     OW18643   5.274   4.613   1.880  0.1288 -0.2828 -0.0497
 5915SOL    HW118644   5.292   4.586   1.785  0.3707  1.1473 -0.4386
 5915SOL    HW218645   5.254   4.531   1.935 -0.9597 -1.0534 -1.5180
 5916SOL     OW18646   3.832   5.547   5.041  0.5647  0.6914 -0.5442
 5916SOL    HW118647   3.831   5.453   5.075 -0.2408  1.1764  0.8314
 5916SOL    HW218648   3.821   5.546   4.941  0.2849 -0.6596 -0.5157
 5917SOL     OW18649   3.851   3.505   4.731  1.4358 -0.5760 -0.1236
 5917SOL    HW118650   3.757   3.498   4.697  0.7511  0.3670  1.4594
 5917SOL    HW218651   3.867   3.434   4.800  1.7966 -0.5622 -0.1900
 5918SOL     OW18652   2.036   4.440   5.754 -0.2085  0.8957 -0.4480
 5918SOL    HW118653   1.977   4.450   5.674 -0.4286  2.5033 -0.1184
 5918SOL    HW218654   1.990   4.381   5.821 -1.1804  1.6030 -0.4611
 5919SOL     OW18655   1.535   2.424   6.211  0.2933  0.3880 -0.5758
 5919SOL    HW118656   1.613   2.410   6.150 -0.3736 -0.6595 -1.2108
 5919SOL    HW218657   1.498   2.516   6.196  0.7483  0.5055 -1.0315
 5920SOL     OW18658   3.348   6.846   1.387  0.6919  0.4087 -0.0835
 5920SOL    HW118659   3.278   6.806   1.446 -0.5356  1.0048 -1.0906
 5920SOL    HW218660   3.438   6.814   1.416  0.0028 -0.5085  1.1413
 5921SOL     OW18661   2.672   4.770   6.279 -0.2986  0.1731 -0.1922
 5921SOL    HW118662   2.694   4.866   6.257 -0.1566  0.1720 -0.0555
 5921SOL    HW218663   2.668   4.717   6.194  1.9172 -0.1846 -0.1282
 5922SOL     OW18664   0.438   5.655   3.032  0.3792 -0.6776 -0.2181
 5922SOL    HW118665   0.360   5.636   2.973  1.5662 -0.8777 -1.8127
 5922SOL    HW218666   0.494   5.727   2.991  1.8753 -1.6525  0.0404
 5923SOL     OW18667   4.077   5.629   1.937 -0.2933  0.3310  0.2426
 5923SOL    HW118668   4.030   5.584   2.014  0.8911 -1.9082 -0.2473
 5923SOL    HW218669   4.176   5.623   1.951 -0.0841  1.3783 -0.6791
 5924SOL     OW18670   6.997   2.876   4.010 -0.0687  0.3961  0.3283
 5924SOL    HW118671   6.979   2.914   4.101  1.2591  1.1782  0.2827
 5924SOL    HW218672   6.972   2.943   3.940 -1.0767 -0.1991  0.0960
 5925SOL     OW18673   3.760   6.787   3.131  0.3669 -0.2841  0.9424
 5925SOL    HW118674   3.689   6.727   3.094 -0.6252  0.6088  1.3399
 5925SOL    HW218675   3.768   6.773   3.230 -0.1859  0.5041  1.1187
 5926SOL     OW18676   4.390   3.377   1.472  0.0776  0.2569 -0.3213
 5926SOL    HW118677   4.308   3.423   1.507 -0.0485 -0.0971 -0.1478
 5926SOL    HW218678   4.465   3.388   1.537  0.0066  0.0926 -0.2117
 5927SOL     OW18679   1.222   0.023   2.768 -0.9275 -0.1444  0.4297
 5927SOL    HW118680   1.194  -0.053   2.827 -0.2966  0.8551  2.0695
 5927SOL    HW218681   1.317   0.008   2.738 -0.5698  0.3230  1.3141
 5928SOL     OW18682   1.744   0.501   0.362  0.4871 -0.0879  0.3987
 5928SOL    HW118683   1.788   0.505   0.273  1.1810  0.2816  0.7472
 5928SOL    HW218684   1.690   0.417   0.369  1.3917 -0.7111  0.0679
 5929SOL     OW18685   1.480   0.108   6.423 -0.6255  0.6323  0.4514
 5929SOL    HW118686   1.428   0.032   6.461 -1.8685  1.2059 -0.0414
 5929SOL    HW218687   1.453   0.193   6.467  1.0764  0.7772  1.3198
 5930SOL     OW18688   0.161   1.247   3.295  0.6604  0.7619  0.3855
 5930SOL    HW118689   0.067   1.214   3.301  1.0166 -0.0350  2.2821
 5930SOL    HW218690   0.203   1.212   3.211 -0.7082  1.1376 -0.4850
 5931SOL     OW18691   4.112   5.986   1.600 -0.0313  0.2081  0.0205
 5931SOL    HW118692   4.092   6.015   1.694 -1.9728  0.9401 -0.5616
 5931SOL    HW218693   4.127   5.887   1.598 -0.9157  0.0381  0.9854
 5932SOL     OW18694   2.844   0.092   2.099  0.4385 -0.1534 -0.5255
 5932SOL    HW118695   2.774   0.101   2.170 -0.0154 -0.2461 -0.9573
 5932SOL    HW218696   2.821   0.016   2.039  0.4735  0.3207 -1.1509
 5933SOL     OW18697   2.134   5.089   2.812  0.6820 -0.2642 -0.0087
 5933SOL    HW118698   2.162   5.175   2.855  1.2725 -1.2783  1.6841
 5933SOL    HW218699   2.095   5.028   2.880 -0.0979 -1.2212 -1.2593
 5934SOL     OW18700   3.009   3.052   5.738 -0.1901 -0.9975  0.2634
 5934SOL    HW118701   2.948   3.100   5.674 -1.7766 -0.5986  1.9947
 5934SOL    HW218702   3.034   3.114   5.812  0.2829 -1.9327  0.8948
 5935SOL     OW18703   1.755   2.526   6.676 -0.4155 -0.3437 -0.0627
 5935SOL    HW118704   1.832   2.509   6.616 -0.6385 -0.5148 -0.3044
 5935SOL    HW218705   1.786   2.575   6.758 -0.0469 -0.4539 -0.1349
 5936SOL     OW18706   4.752   3.627   0.724 -0.2091  0.0724 -0.0990
 5936SOL    HW118707   4.821   3.629   0.651 -0.3247  0.7233 -0.1993
 5936SOL    HW218708   4.683   3.697   0.705 -0.2980  0.1683  0.5859
 5937SOL     OW18709   1.405   4.900   2.795  0.4437  0.1436 -0.8050
 5937SOL    HW118710   1.314   4.857   2.792  0.6943 -0.3643 -1.4254
 5937SOL    HW218711   1.405   4.981   2.735 -0.1898  1.3699  0.7874
 5938SOL     OW18712   4.248   5.129   3.357  0.0403  0.5119 -0.2598
 5938SOL    HW118713   4.264   5.061   3.285 -3.8248  0.0496 -0.8791
 5938SOL    HW218714   4.258   5.085   3.446  1.6521  0.2754 -0.5128
 5939SOL     OW18715   4.740   0.035   3.614 -0.0593  0.3005  0.6419
 5939SOL    HW118716   4.657   0.041   3.669 -1.2920  0.2119 -1.1550
 5939SOL    HW218717   4.766  -0.061   3.605  0.0615  0.3050  0.9127
 5940SOL     OW18718   4.346   6.134   1.136 -0.5925 -0.3063  0.1892
 5940SOL    HW118719   4.308   6.160   1.225 -1.1303  1.5416 -0.5275
 5940SOL    HW218720   4.343   6.035   1.126  0.4176 -0.6526  2.6238
 5941SOL     OW18721   6.651   3.725   2.023 -0.3347 -0.6004 -0.8441
 5941SOL    HW118722   6.690   3.634   2.010 -1.7619 -1.0987 -1.9976
 5941SOL    HW218723   6.723   3.789   2.047  0.7468 -1.9713 -0.2767
 5942SOL     OW18724   4.931   2.837   5.666  0.3702  0.3265 -0.6142
 5942SOL    HW118725   4.914   2.921   5.615  2.6521  0.0226 -2.0122
 5942SOL    HW218726   4.962   2.765   5.604  1.2768 -0.6773  0.9187
 5943SOL     OW18727   3.020   6.601   1.946  0.5284  0.3276 -0.5320
 5943SOL    HW118728   2.949   6.530   1.947  0.7962  0.0051 -1.9635
 5943SOL    HW218729   3.086   6.584   2.019  0.4636 -0.7785 -0.7154
 5944SOL     OW18730   6.555   4.317   1.394  0.3248  0.3239  0.2368
 5944SOL    HW118731   6.458   4.316   1.370  0.1079 -0.4383  1.1223
 5944SOL    HW218732   6.565   4.309   1.493  1.3201 -0.4929  0.0790
 5945SOL     OW18733   6.868   5.180   5.831  0.2873  0.4032  0.3856
 5945SOL    HW118734   6.952   5.234   5.840  1.1210 -0.7313 -0.3069
 5945SOL    HW218735   6.863   5.112   5.905 -0.3607  0.8810  0.7970
 5946SOL     OW18736   3.214   3.454   3.986  0.6474 -0.6184 -0.3366
 5946SOL    HW118737   3.134   3.469   4.044 -0.3531 -1.1397 -1.5288
 5946SOL    HW218738   3.205   3.507   3.902  1.1210 -1.3809 -0.8816
 5947SOL     OW18739   3.190   2.846   1.930 -0.0095 -0.1968  0.4534
 5947SOL    HW118740   3.130   2.887   1.860  1.1141 -0.1171 -0.4977
 5947SOL    HW218741   3.143   2.768   1.971 -1.4231  0.8619  0.9330
 5948SOL     OW18742   3.049   4.794   2.114  0.2180  0.6513  0.1256
 5948SOL    HW118743   2.999   4.731   2.054  3.6716 -0.1143 -2.1904
 5948SOL    HW218744   3.052   4.755   2.206 -1.7459 -0.1715 -0.0942
 5949SOL     OW18745   4.060   3.714   0.746 -0.0286 -0.2468  0.6289
 5949SOL    HW118746   4.143   3.711   0.802  0.9931 -2.2608 -0.8401
 5949SOL    HW218747   4.015   3.624   0.750 -0.5742 -0.0492 -0.8029
 5950SOL     OW18748   5.930   3.382   4.833  0.8029 -0.5752 -0.1255
 5950SOL    HW118749   5.979   3.404   4.917  1.2010 -0.3721 -0.4016
 5950SOL    HW218750   5.958   3.446   4.761  0.3850 -0.6753 -0.3815
 5951SOL     OW18751   6.337   3.908   2.305 -0.1924 -0.6306 -0.6450
 5951SOL    HW118752   6.322   3.817   2.344  0.9437 -0.3545  0.5161
 5951SOL    HW218753   6.368   3.899   2.211 -0.2630 -1.4344 -0.6015
 5952SOL     OW18754   4.104   0.221   3.939  0.1511 -0.2234  0.2099
 5952SOL    HW118755   4.037   0.264   3.880 -0.7556  0.7103  1.8470
 5952SOL    HW218756   4.061   0.194   4.025  1.6911 -0.3812  0.9730
 5953SOL     OW18757   6.262   0.642   5.047  0.3231 -0.5556 -0.9528
 5953SOL    HW118758   6.329   0.599   4.987  0.8852 -1.5496  0.3476
 5953SOL    HW218759   6.310   0.703   5.111 -0.0571 -0.9788 -0.2642
 5954SOL     OW18760   0.206   3.887   5.101  0.0057 -0.6986  0.4945
 5954SOL    HW118761   0.266   3.966   5.100 -1.3160  0.3429  0.4608
 5954SOL    HW218762   0.222   3.831   5.020 -0.2421  0.4704 -0.3806
 5955SOL     OW18763   4.864   6.023   3.933 -0.0699  0.2944 -0.4008
 5955SOL    HW118764   4.892   6.111   3.896 -0.0068  0.2418 -0.4803
 5955SOL    HW218765   4.934   5.954   3.911 -0.0693  0.2466 -0.2501
 5956SOL     OW18766   2.369   1.352   6.361 -0.6868  0.5152 -0.4373
 5956SOL    HW118767   2.323   1.326   6.446 -0.2753  0.7349 -0.1465
 5956SOL    HW218768   2.465   1.373   6.380  0.0068 -1.5440 -1.2683
 5957SOL     OW18769   4.676   5.342   6.090  0.4472  0.0505  0.1421
 5957SOL    HW118770   4.678   5.250   6.129 -0.0034 -0.7860 -1.7300
 5957SOL    HW218771   4.581   5.369   6.073  0.5458  1.0752  1.1069
 5958SOL     OW18772   0.316   0.299   2.962  0.3826 -0.2012  0.3907
 5958SOL    HW118773   0.360   0.284   2.873  2.1313  2.2889  0.7560
 5958SOL    HW218774   0.302   0.211   3.007 -0.4984 -1.5283 -2.2811
 5959SOL     OW18775   5.095   2.779   5.879 -0.5798 -0.2136 -0.0674
 5959SOL    HW118776   5.032   2.809   5.806 -2.0990  0.1387  1.3272
 5959SOL    HW218777   5.090   2.679   5.887 -1.6450 -0.1196  0.6015
 5960SOL     OW18778   4.716   5.579   5.905  0.0004  0.2244  0.0743
 5960SOL    HW118779   4.781   5.563   5.980 -0.4668  0.8227  0.6183
 5960SOL    HW218780   4.651   5.650   5.932 -1.0329 -0.5340 -0.3687
 5961SOL     OW18781   6.445   2.930   4.896  0.5053  0.2206  0.3492
 5961SOL    HW118782   6.355   2.940   4.938  0.5646  1.9187  0.1278
 5961SOL    HW218783   6.449   2.986   4.813  1.5425 -0.3721 -0.0115
 5962SOL     OW18784   3.870   6.735   6.888 -0.2418 -0.6586  0.0962
 5962SOL    HW118785   3.916   6.647   6.875  0.4363 -0.5392  1.5278
 5962SOL    HW218786   3.771   6.719   6.895 -0.0087 -1.5529  2.0472
 5963SOL     OW18787   3.249   4.042   4.579 -0.3600  0.0305  0.0087
 5963SOL    HW118788   3.158   4.000   4.582  0.6652 -2.5745 -1.5286
 5963SOL    HW218789   3.273   4.061   4.484  1.3320 -0.9498  0.2053
 5964SOL     OW18790   1.863   5.165   2.718  0.5700 -0.0095 -0.4646
 5964SOL    HW118791   1.956   5.172   2.754  0.4685 -0.4901 -0.1035
 5964SOL    HW218792   1.844   5.244   2.659  0.7707  0.7607  0.4708
 5965SOL     OW18793   4.038   2.501   6.363  0.5348 -0.3381 -0.1710
 5965SOL    HW118794   3.999   2.593   6.354  1.4124 -0.1133 -2.1484
 5965SOL    HW218795   4.101   2.484   6.287  0.5342 -2.5092  0.2576
 5966SOL     OW18796   3.447   4.860   5.147 -0.1185  0.1511  0.3069
 5966SOL    HW118797   3.361   4.814   5.168  0.1134 -0.8077 -0.7792
 5966SOL    HW218798   3.455   4.873   5.048  2.0786 -2.0354  0.1110
 5967SOL     OW18799   3.769   6.764   0.220 -0.3627  0.3887 -0.3700
 5967SOL    HW118800   3.698   6.702   0.186  0.1042 -0.7163  0.6314
 5967SOL    HW218801   3.823   6.797   0.143  0.4782 -1.8281 -0.7865
 5968SOL     OW18802   5.629   6.085   2.378 -0.6327  0.0071  0.1128
 5968SOL    HW118803   5.581   6.143   2.444 -1.5591 -0.3591 -0.2203
 5968SOL    HW218804   5.573   6.004   2.357 -1.1617  0.9088 -2.3491
 5969SOL     OW18805   4.852   6.379   4.973  0.5576 -0.0835  0.2657
 5969SOL    HW118806   4.800   6.313   4.919  0.6347  0.3712 -0.3751
 5969SOL    HW218807   4.789   6.434   5.028  0.4584 -0.4074  0.4718
 5970SOL     OW18808   6.353   5.735   2.432  0.0068  0.0886  0.0285
 5970SOL    HW118809   6.416   5.675   2.382  0.3982 -0.1769  0.8351
 5970SOL    HW218810   6.270   5.748   2.377  1.3630  1.7448 -1.7964
 5971SOL     OW18811   0.721   1.007   2.869 -0.1470  0.1362  0.1356
 5971SOL    HW118812   0.643   0.946   2.878  0.1791 -0.3483 -0.2317
 5971SOL    HW218813   0.780   0.975   2.794  1.2131 -0.4149  1.3816
 5972SOL     OW18814   5.976   5.576   0.338  0.7183 -0.0781  0.1588
 5972SOL    HW118815   6.014   5.485   0.320  1.8938  0.2745  0.7419
 5972SOL    HW218816   6.012   5.641   0.270 -0.7881 -0.1864 -0.7878
 5973SOL     OW18817   1.890   4.827   3.340  0.1845 -0.4818 -0.1737
 5973SOL    HW118818   1.839   4.897   3.291 -0.4057 -1.2095 -0.6245
 5973SOL    HW218819   1.975   4.807   3.291  1.1117  0.9735  0.7568
 5974SOL     OW18820   5.370   3.572   5.437 -0.0865 -0.0101 -0.3135
 5974SOL    HW118821   5.405   3.512   5.365  0.5409 -1.4914  1.1335
 5974SOL    HW218822   5.376   3.667   5.408 -1.5561 -0.6165 -2.9019
 5975SOL     OW18823   1.189   0.448   6.683  0.1177  0.9633  0.0809
 5975SOL    HW118824   1.179   0.499   6.768  1.0309  2.0582 -0.4343
 5975SOL    HW218825   1.137   0.493   6.611 -2.7939 -1.3712  0.5353
 5976SOL     OW18826   3.511   3.263   6.480 -0.0488 -0.0030  0.3812
 5976SOL    HW118827   3.593   3.246   6.534  1.1338  1.1127 -0.9846
 5976SOL    HW218828   3.526   3.343   6.422 -1.8939 -0.1506 -0.3422
 5977SOL     OW18829   0.771   4.936   1.955 -0.4927 -0.4555  0.0385
 5977SOL    HW118830   0.821   4.858   1.919  0.0756  0.7206 -1.8233
 5977SOL    HW218831   0.719   4.980   1.882 -2.6773 -0.4156  1.4927
 5978SOL     OW18832   4.260   1.193   2.970 -0.3789  0.5516 -0.0961
 5978SOL    HW118833   4.242   1.285   3.006 -1.3717 -0.2482  1.5963
 5978SOL    HW218834   4.176   1.155   2.933 -0.1643  0.0195 -0.0422
 5979SOL     OW18835   5.166   6.287   3.128  0.7146  0.3004 -0.3419
 5979SOL    HW118836   5.159   6.387   3.133 -0.7549  0.1689  1.2710
 5979SOL    HW218837   5.103   6.246   3.194 -0.2646 -1.7556 -2.4194
 5980SOL     OW18838   4.627   3.158   1.109 -0.0295  0.0221 -0.0697
 5980SOL    HW118839   4.700   3.144   1.042  0.0528  1.1618 -0.2505
 5980SOL    HW218840   4.649   3.237   1.166 -1.2091  0.5131 -0.2633
 5981SOL     OW18841   6.735   3.112   1.840  0.3307 -0.5829 -0.2631
 5981SOL    HW118842   6.693   3.107   1.931  0.9457 -0.9522  0.0066
 5981SOL    HW218843   6.710   3.199   1.797 -1.8421 -1.3439 -0.6863
 5982SOL     OW18844   4.680   2.256   6.005  0.0970  0.2101 -0.2885
 5982SOL    HW118845   4.704   2.334   5.949  0.7181  0.2512  0.0305
 5982SOL    HW218846   4.585   2.230   5.987 -0.0085  0.8263 -0.6333
 5983SOL     OW18847   6.487   0.243   4.992 -0.2842 -0.1617 -0.5423
 5983SOL    HW118848   6.524   0.191   5.070  0.2112  0.3981 -0.3998
 5983SOL    HW218849   6.492   0.186   4.910 -1.4350 -1.0063 -0.0507
 5984SOL     OW18850   4.732   6.910   5.601  0.0065  0.9806 -0.0109
 5984SOL    HW118851   4.832   6.917   5.600  0.1223 -0.4583  0.0391
 5984SOL    HW218852   4.705   6.814   5.600 -1.3222  1.1719  3.7161
 5985SOL     OW18853   6.320   3.584   4.406  0.4676 -0.7209  0.3413
 5985SOL    HW118854   6.280   3.671   4.376 -0.2109 -0.9238  0.6330
 5985SOL    HW218855   6.270   3.551   4.487  2.8892  0.3629  2.4396
 5986SOL     OW18856   3.520   2.845   3.761 -0.3709  0.4540 -0.3791
 5986SOL    HW118857   3.431   2.872   3.798 -0.6760  1.9855 -2.1135
 5986SOL    HW218858   3.588   2.846   3.834 -1.5492  0.3583  0.7495
 5987SOL     OW18859   4.278   6.936   5.624 -0.3864  0.0023  0.5181
 5987SOL    HW118860   4.294   6.966   5.530  1.9147 -3.1748 -0.2706
 5987SOL    HW218861   4.278   7.015   5.685 -0.3291  2.0059 -1.9105
 5988SOL     OW18862   4.469   6.661   6.139  0.3333 -0.1352 -0.5080
 5988SOL    HW118863   4.567   6.645   6.137  1.0814  3.3682  0.2808
 5988SOL    HW218864   4.429   6.617   6.219  0.9124 -2.7057 -1.5332
 5989SOL     OW18865   3.574   5.202   0.682  0.2152  0.1114 -0.6601
 5989SOL    HW118866   3.628   5.157   0.612 -1.2163 -0.8539 -1.1923
 5989SOL    HW218867   3.550   5.295   0.652  1.6864  0.6204 -0.3330
 5990SOL     OW18868   4.372   6.081   0.867  0.7256  0.3386 -0.0196
 5990SOL    HW118869   4.353   5.983   0.866  1.8535  0.0933  0.3698
 5990SOL    HW218870   4.382   6.112   0.962 -1.1124  1.1591 -0.0648
 5991SOL     OW18871   5.029   4.104   4.606  0.5499 -0.1308 -0.1521
 5991SOL    HW118872   5.105   4.126   4.667 -0.0391  1.2421  0.1301
 5991SOL    HW218873   4.964   4.180   4.606 -1.1236 -1.5142  0.0635
 5992SOL     OW18874   3.210   0.252   4.604  0.0739  0.2268 -0.3919
 5992SOL    HW118875   3.113   0.230   4.609  0.5569 -1.9286  0.8692
 5992SOL    HW218876   3.222   0.351   4.592 -2.2414  0.4685 -1.0632
 5993SOL     OW18877   5.096   0.928   4.052  0.2546 -0.3154  0.5900
 5993SOL    HW118878   5.042   1.008   4.026 -0.3255 -0.5930  0.9164
 5993SOL    HW218879   5.160   0.905   3.979 -1.1233 -0.8948 -0.4803
 5994SOL     OW18880   6.431   1.221   2.741 -0.2510  0.3612 -0.5114
 5994SOL    HW118881   6.502   1.242   2.809  0.5142 -0.9450 -0.8671
 5994SOL    HW218882   6.474   1.185   2.658 -1.3351 -0.6452 -0.6656
 5995SOL     OW18883   5.015   5.618   2.489  0.5905 -0.3827  0.4793
 5995SOL    HW118884   5.092   5.592   2.430  0.8549  1.3425  0.0020
 5995SOL    HW218885   4.931   5.578   2.453  1.1067 -1.4570  0.4220
 5996SOL     OW18886   0.022   4.755   1.581 -0.7457 -0.0403 -0.6986
 5996SOL    HW118887   0.037   4.657   1.572 -1.1022 -0.5086  2.5548
 5996SOL    HW218888   0.111   4.802   1.582 -0.5872 -0.2567 -2.5310
 5997SOL     OW18889   0.574   6.921   2.891 -0.0499  0.4237  0.5476
 5997SOL    HW118890   0.607   6.850   2.829  0.5354  1.8392 -0.8308
 5997SOL    HW218891   0.474   6.923   2.889 -0.0391  0.3682 -0.2467
 5998SOL     OW18892   6.458   2.337   2.631  0.2447  0.2397  0.0320
 5998SOL    HW118893   6.532   2.330   2.698  0.1984 -0.0141  0.0568
 5998SOL    HW218894   6.467   2.263   2.564 -0.9391 -0.7922  0.9771
 5999SOL     OW18895   1.942   2.945   2.799  0.0765 -0.2237 -0.1670
 5999SOL    HW118896   2.004   2.867   2.800 -0.2755 -0.4957  0.5753
 5999SOL    HW218897   1.941   2.985   2.707  0.3537 -1.0079 -0.5214
 6000SOL     OW18898   5.264   0.905   2.814  0.4298  0.2581 -0.4523
 6000SOL    HW118899   5.348   0.915   2.867 -1.2905  0.6222  2.4028
 6000SOL    HW218900   5.233   0.810   2.816 -0.6554  0.6094  0.9488
 6001SOL     OW18901   6.759   3.463   0.186  0.0602 -0.8543 -0.1392
 6001SOL    HW118902   6.731   3.480   0.091  0.6121  1.5931  0.0606
 6001SOL    HW218903   6.686   3.416   0.234 -1.2206 -0.0474 -1.2023
 6002SOL     OW18904   6.144   0.590   1.768 -0.0849 -0.0997 -0.2683
 6002SOL    HW118905   6.193   0.635   1.693  0.3019  0.7048  0.4407
 6002SOL    HW218906   6.157   0.643   1.852  0.3411 -1.5285  0.6001
 6003SOL     OW18907   0.927   0.949   4.026 -0.1747 -0.0039 -0.2162
 6003SOL    HW118908   0.980   0.973   4.107 -0.9753 -0.5410  0.4886
 6003SOL    HW218909   0.833   0.981   4.037 -0.3888 -0.4308 -0.7496
 6004SOL     OW18910   6.226   3.977   3.506 -0.2950 -0.0432  0.3572
 6004SOL    HW118911   6.151   3.911   3.501 -0.4263  0.0878  0.6243
 6004SOL    HW218912   6.308   3.931   3.541 -0.7584  0.2595  1.8950
 6005SOL     OW18913   5.760   2.519   6.017 -0.4368  0.2533  0.1957
 6005SOL    HW118914   5.771   2.519   6.117  1.6074  1.1822  0.0206
 6005SOL    HW218915   5.690   2.586   5.992  0.3655  1.4315  0.9480
 6006SOL     OW18916   3.208   6.772   6.836 -0.0225  0.7566  0.2827
 6006SOL    HW118917   3.115   6.793   6.866 -0.8108  0.5858 -1.8246
 6006SOL    HW218918   3.247   6.853   6.791 -0.5918 -0.1610 -2.0436
 6007SOL     OW18919   4.715   1.874   5.322 -0.6466 -0.3030  0.3677
 6007SOL    HW118920   4.706   1.953   5.262 -0.2969 -0.1827  0.4701
 6007SOL    HW218921   4.642   1.808   5.302  0.3274 -0.9489 -1.2210
 6008SOL     OW18922   3.517   5.072   6.438 -0.4294 -0.0738 -1.1253
 6008SOL    HW118923   3.486   4.978   6.450 -1.2300  0.2953 -0.1070
 6008SOL    HW218924   3.531   5.091   6.341 -1.3353 -0.9146 -1.4282
 6009SOL     OW18925   4.898   6.708   5.127 -0.3319 -0.7253 -0.2623
 6009SOL    HW118926   4.906   6.735   5.223  3.3018  0.2599 -0.7222
 6009SOL    HW218927   4.937   6.616   5.115  0.6119 -0.2486 -0.9864
 6010SOL     OW18928   0.189   3.106   3.819  0.3306 -0.4057 -0.0331
 6010SOL    HW118929   0.196   3.134   3.723 -0.9066  0.3380  0.0845
 6010SOL    HW218930   0.162   3.184   3.875  3.7058 -0.0869  1.3984
 6011SOL     OW18931   4.125   2.095   1.568  0.3987  0.3999  0.2662
 6011SOL    HW118932   4.036   2.053   1.585 -0.2850  1.5652 -0.3224
 6011SOL    HW218933   4.196   2.024   1.569 -0.3990 -0.4308  1.6336
 6012SOL     OW18934   0.237   2.927   0.670  0.7511 -0.3824  0.1662
 6012SOL    HW118935   0.240   2.977   0.756 -1.0824 -0.6477  0.4279
 6012SOL    HW218936   0.215   2.990   0.595  0.3492 -0.4820  0.2004
 6013SOL     OW18937   6.019   1.308   5.155  0.2475 -0.2552  0.7066
 6013SOL    HW118938   6.064   1.391   5.188  0.6566  0.0920 -0.6598
 6013SOL    HW218939   6.051   1.288   5.063 -1.9613 -0.3294 -0.0925
 6014SOL     OW18940   4.373   2.386   1.885  0.3768  0.4814 -0.0365
 6014SOL    HW118941   4.439   2.455   1.916 -0.6852  1.3932  0.2631
 6014SOL    HW218942   4.332   2.342   1.965  0.1063  0.4153 -0.2142
 6015SOL     OW18943   6.269   2.376   6.470 -0.0787 -0.5450  0.6545
 6015SOL    HW118944   6.341   2.436   6.503 -0.4666  0.5839 -0.4588
 6015SOL    HW218945   6.261   2.385   6.371 -1.4676 -0.9580  0.7048
 6016SOL     OW18946   6.654   1.369   0.999 -0.0219 -0.4600  0.4258
 6016SOL    HW118947   6.727   1.401   1.059  1.4469 -0.9174 -1.0405
 6016SOL    HW218948   6.596   1.303   1.047  0.1911  0.3083  1.7706
 6017SOL     OW18949   4.884   2.683   2.911  0.3231  0.2677  1.1799
 6017SOL    HW118950   4.799   2.675   2.860  1.0728 -0.9231  0.0423
 6017SOL    HW218951   4.920   2.591   2.930  0.6318  0.7080  2.9155
 6018SOL     OW18952   3.739   1.981   6.217  0.6740  0.0113 -0.6915
 6018SOL    HW118953   3.765   1.884   6.216  1.2340  0.1662 -1.3972
 6018SOL    HW218954   3.705   2.005   6.308  0.7270 -0.7943 -0.4514
 6019SOL     OW18955   5.525   1.903   4.617  0.0848 -0.1494 -0.1522
 6019SOL    HW118956   5.494   1.990   4.579 -3.0932  0.3323  2.9496
 6019SOL    HW218957   5.619   1.911   4.647 -0.1906  2.3373  0.2706
 6020SOL     OW18958   1.330   6.611   1.653 -0.5537 -0.2275 -0.3995
 6020SOL    HW118959   1.315   6.608   1.554  0.0036  0.0991 -0.4998
 6020SOL    HW218960   1.242   6.621   1.699 -0.6768  2.1831 -0.9943
 6021SOL     OW18961   3.897   1.002   3.406 -0.8411 -0.1800  0.6403
 6021SOL    HW118962   3.965   1.054   3.457  0.4866 -0.7144 -0.5103
 6021SOL    HW218963   3.920   0.905   3.409 -1.4919 -0.3598  0.1391
 6022SOL     OW18964   3.900   2.058   4.714 -0.4671 -0.3710 -0.0555
 6022SOL    HW118965   3.963   1.986   4.685 -0.0518 -0.0432  0.0288
 6022SOL    HW218966   3.939   2.108   4.792  0.6430  1.8637 -1.9018
 6023SOL     OW18967   6.361   0.642   2.628 -0.7837  0.2105  0.4659
 6023SOL    HW118968   6.439   0.583   2.606 -1.0527  0.2753 -0.7311
 6023SOL    HW218969   6.319   0.674   2.543 -1.9109  0.4432  1.1001
 6024SOL     OW18970   0.305   4.617   2.276 -0.0334 -0.5104 -0.2843
 6024SOL    HW118971   0.334   4.711   2.295 -1.1677 -0.0338 -0.8655
 6024SOL    HW218972   0.352   4.584   2.194 -0.7299  0.0732 -0.9249
 6025SOL     OW18973   3.828   1.067   1.568  0.3711  0.5568  0.1817
 6025SOL    HW118974   3.741   1.070   1.519  0.3081  0.1363  0.2657
 6025SOL    HW218975   3.815   1.027   1.659  0.9073 -0.9811 -0.3809
 6026SOL     OW18976   0.409   4.776   5.252  0.2054  0.4644  0.5480
 6026SOL    HW118977   0.381   4.707   5.318  1.2588 -0.7142 -0.2041
 6026SOL    HW218978   0.499   4.753   5.215 -1.6074 -0.7648 -3.6555
 6027SOL     OW18979   0.813   5.672   0.021 -0.3938  0.3873 -0.1189
 6027SOL    HW118980   0.880   5.734   0.063 -2.3852  2.9302 -0.4511
 6027SOL    HW218981   0.779   5.608   0.090  1.0247  0.2404  0.4770
 6028SOL     OW18982   0.507   2.390   0.084  0.7611 -0.0714 -0.5003
 6028SOL    HW118983   0.460   2.343   0.158  1.1212 -0.4199 -0.4925
 6028SOL    HW218984   0.440   2.440   0.029  0.4698  0.0258 -0.0644
 6029SOL     OW18985   1.127   5.531   4.952  0.7015 -0.3771  0.0640
 6029SOL    HW118986   1.187   5.469   4.901 -2.1048 -0.7975 -3.1106
 6029SOL    HW218987   1.138   5.624   4.917  0.0600 -0.3398 -0.0505
 6030SOL     OW18988   3.536   0.199   2.058  0.4426  0.0837  1.0863
 6030SOL    HW118989   3.545   0.099   2.057  0.5951 -0.0490  4.3916
 6030SOL    HW218990   3.619   0.240   2.022  0.6227 -0.9677  0.2427
 6031SOL     OW18991   3.330   0.284   4.021  0.5468  0.6764 -0.6517
 6031SOL    HW118992   3.298   0.328   4.106  0.7954  0.3657 -0.3969
 6031SOL    HW218993   3.252   0.272   3.959  0.1779  0.0006 -0.0681
 6032SOL     OW18994   1.737   4.059   3.546  0.1524  0.1909  0.1111
 6032SOL    HW118995   1.688   4.000   3.610  1.8017  0.9965  2.2822
 6032SOL    HW218996   1.824   4.015   3.521  0.1669  0.5254 -0.4306
 6033SOL     OW18997   2.468   2.656   1.213 -0.0416  0.5855 -0.1400
 6033SOL    HW118998   2.565   2.641   1.191 -0.1712 -0.0151 -0.3120
 6033SOL    HW218999   2.417   2.674   1.128 -0.0227  1.2720 -0.0136
 6034SOL     OW19000   1.607   4.733   2.913  0.2744 -0.2716  0.3278
 6034SOL    HW119001   1.660   4.789   2.849  0.0119  0.0004  0.3416
 6034SOL    HW219002   1.516   4.774   2.924  0.5009  0.0012  1.3027
 6035SOL     OW19003   0.099   0.709   4.678  0.0821 -0.2858 -0.1515
 6035SOL    HW119004   0.161   0.748   4.747 -1.4401 -0.3569  1.3142
 6035SOL    HW219005   0.008   0.749   4.688 -0.5851 -1.4962 -1.0739
 6036SOL     OW19006   6.540   5.102   4.245 -0.4227 -0.4709  0.4116
 6036SOL    HW119007   6.451   5.066   4.275 -1.3999  0.8960 -0.7008
 6036SOL    HW219008   6.554   5.193   4.283  0.5460 -0.6933  0.6093
 6037SOL     OW19009   4.619   4.150   6.443 -0.4927  0.3847 -0.4533
 6037SOL    HW119010   4.578   4.142   6.534 -0.9478  0.9815 -0.5958
 6037SOL    HW219011   4.621   4.247   6.416  0.6893  0.3335 -0.6009
 6038SOL     OW19012   2.663   3.676   0.696  0.0211 -0.1519  0.5066
 6038SOL    HW119013   2.636   3.642   0.606 -0.1613 -1.1837  0.9309
 6038SOL    HW219014   2.707   3.765   0.686 -0.5109  0.0172 -0.5403
 6039SOL     OW19015   3.112   3.120   2.708 -0.2506  0.5315  0.5125
 6039SOL    HW119016   3.158   3.152   2.626 -0.5868 -1.0526 -0.3184
 6039SOL    HW219017   3.035   3.180   2.728  0.7672  1.8534  0.6093
 6040SOL     OW19018   6.557   3.174   5.402  0.1860  0.7449 -0.0843
 6040SOL    HW119019   6.596   3.254   5.449  0.6431 -0.6991  2.1435
 6040SOL    HW219020   6.625   3.100   5.400 -0.2035  0.3798 -2.1580
 6041SOL     OW19021   0.769   1.898   5.138 -0.2658 -0.2441 -0.3975
 6041SOL    HW119022   0.686   1.920   5.085 -1.4195 -1.2469  0.9206
 6041SOL    HW219023   0.826   1.980   5.145 -1.6730  0.7898 -0.4124
 6042SOL     OW19024   5.088   4.671   0.749 -0.0173 -0.0576  0.1940
 6042SOL    HW119025   5.015   4.693   0.813  0.3895 -0.1682  0.7066
 6042SOL    HW219026   5.110   4.751   0.694  1.6154  0.9562  2.1932
 6043SOL     OW19027   6.755   4.730   5.427  1.2758 -0.0685 -0.5388
 6043SOL    HW119028   6.682   4.676   5.387  1.4556 -0.0566 -0.8836
 6043SOL    HW219029   6.823   4.753   5.357  2.0533 -0.8041 -0.0560
 6044SOL     OW19030   1.808   3.308   1.874 -0.0525 -0.0214  0.4716
 6044SOL    HW119031   1.791   3.232   1.811 -1.1834 -0.8242  1.6886
 6044SOL    HW219032   1.906   3.322   1.884  0.1739 -1.3315  0.2218
 6045SOL     OW19033   6.939   6.068   2.146  0.3243  0.0171  0.0985
 6045SOL    HW119034   7.015   6.013   2.180  1.0949  1.5114  0.9054
 6045SOL    HW219035   6.967   6.164   2.140 -1.1567  0.4334 -0.6842
 6046SOL     OW19036   2.714   2.200   0.494 -0.4756 -0.3075 -0.4461
 6046SOL    HW119037   2.763   2.139   0.432  1.0573 -0.7438  1.1049
 6046SOL    HW219038   2.746   2.184   0.588 -1.1663  1.8119  0.2004
 6047SOL     OW19039   1.552   2.452   2.212 -0.0958 -0.5411  0.8618
 6047SOL    HW119040   1.626   2.495   2.263  0.4139 -0.0910 -0.2365
 6047SOL    HW219041   1.488   2.410   2.276 -0.1366  1.0613  1.9324
 6048SOL     OW19042   4.355   6.774   4.323  0.1154 -0.6033 -0.1113
 6048SOL    HW119043   4.340   6.702   4.255 -0.1018  0.1192 -0.8451
 6048SOL    HW219044   4.409   6.848   4.283 -0.5902  0.1484  0.2841
 6049SOL     OW19045   5.699   4.805   3.672  0.1025  0.4880 -0.0420
 6049SOL    HW119046   5.615   4.752   3.663  0.3743  0.0240  0.1082
 6049SOL    HW219047   5.700   4.850   3.761 -0.4526  1.3220 -0.4514
 6050SOL     OW19048   3.678   2.873   5.223 -0.1437  0.6288  0.2228
 6050SOL    HW119049   3.675   2.958   5.276 -0.1312  0.6598  0.1738
 6050SOL    HW219050   3.633   2.888   5.135 -1.1059  0.2938  0.6368
 6051SOL     OW19051   1.464   1.108   4.397  0.0535  0.0922  0.3574
 6051SOL    HW119052   1.488   1.031   4.339 -1.0155  0.8848 -1.2351
 6051SOL    HW219053   1.372   1.140   4.373 -1.3132 -0.7209  3.8311
 6052SOL     OW19054   0.053   6.245   5.635  0.0759 -0.1723 -0.4714
 6052SOL    HW119055   0.116   6.219   5.561 -2.3689 -0.8129 -2.4704
 6052SOL    HW219056   0.024   6.340   5.622  0.6870  0.1588  0.5073
 6053SOL     OW19057   4.515   0.186   6.809  0.0925 -0.0497 -0.0897
 6053SOL    HW119058   4.457   0.116   6.850 -0.9203  0.8403  0.0431
 6053SOL    HW219059   4.488   0.276   6.843 -0.0826  0.6239 -1.8912
 6054SOL     OW19060   3.829   2.889   0.516 -0.2513 -0.1333 -0.5082
 6054SOL    HW119061   3.916   2.853   0.482 -0.8320 -1.3372 -0.7787
 6054SOL    HW219062   3.754   2.850   0.464 -0.9672  1.0383 -0.4049
 6055SOL     OW19063   3.053   1.341   4.886  0.1926 -1.0156 -0.1619
 6055SOL    HW119064   3.131   1.384   4.840 -0.4253 -0.2512 -0.5217
 6055SOL    HW219065   3.040   1.384   4.976  0.7388 -1.7729  0.2912
 6056SOL     OW19066   4.953   3.312   3.579 -0.0268 -0.2040  0.4039
 6056SOL    HW119067   4.937   3.355   3.668  0.5034 -0.4717  0.6367
 6056SOL    HW219068   4.997   3.223   3.593  0.9791  0.1828 -0.1461
 6057SOL     OW19069   5.472   1.752   3.718  0.1433  0.2084  0.3955
 6057SOL    HW119070   5.497   1.693   3.795 -0.4760  0.0539  0.4823
 6057SOL    HW219071   5.530   1.833   3.718  0.2112  0.1599  0.9629
 6058SOL     OW19072   5.478   2.684   3.823  0.7567  0.0078  0.4375
 6058SOL    HW119073   5.473   2.775   3.781 -1.0897 -0.9788 -1.6866
 6058SOL    HW219074   5.419   2.621   3.773  3.4196 -2.8859  0.6693
 6059SOL     OW19075   4.548   4.339   6.004 -0.7854  0.0594  0.4570
 6059SOL    HW119076   4.568   4.244   5.978 -0.0101  0.4057 -0.2552
 6059SOL    HW219077   4.612   4.367   6.076  0.8287  0.8827 -1.2060
 6060SOL     OW19078   3.271   3.679   6.722 -0.1284 -0.4869  0.5169
 6060SOL    HW119079   3.229   3.591   6.743  1.5674 -0.9313  2.4217
 6060SOL    HW219080   3.314   3.715   6.805 -0.5387  2.0232 -0.2957
 6061SOL     OW19081   5.446   0.819   1.152 -0.2623  0.1262 -0.3320
 6061SOL    HW119082   5.347   0.828   1.136 -0.9380 -0.6110  2.7236
 6061SOL    HW219083   5.474   0.725   1.133 -0.6938 -0.2932  0.9758
 6062SOL     OW19084   0.873   1.379   4.623 -0.3563 -0.5719 -0.8631
 6062SOL    HW119085   0.889   1.473   4.652  0.4958 -0.2925 -2.1828
 6062SOL    HW219086   0.834   1.378   4.530  1.1795 -1.5484 -1.5339
 6063SOL     OW19087   2.390   6.971   0.277  0.0464 -0.5477  0.2455
 6063SOL    HW119088   2.392   6.998   0.181 -3.9092  1.6582  0.5973
 6063SOL    HW219089   2.325   6.897   0.290  0.3641 -0.6617  1.2669
 6064SOL     OW19090   2.500   0.747   1.482  0.0453 -0.3240  0.4987
 6064SOL    HW119091   2.594   0.738   1.515 -0.1798 -0.0306  1.2553
 6064SOL    HW219092   2.437   0.705   1.548 -0.3651 -0.3576  0.0905
 6065SOL     OW19093   4.573   5.119   2.604 -0.9797  0.1174  0.1941
 6065SOL    HW119094   4.547   5.210   2.636 -0.7157  0.2269  0.0909
 6065SOL    HW219095   4.493   5.074   2.564 -0.9898  0.4984 -0.2183
 6066SOL     OW19096   3.889   0.402   6.966  0.0975 -0.6366  0.2549
 6066SOL    HW119097   3.861   0.363   7.053  2.4234 -0.0197  1.3464
 6066SOL    HW219098   3.840   0.356   6.892 -0.2996 -2.7222  1.7195
 6067SOL     OW19099   6.366   1.185   6.482  0.1258 -0.7574  0.5447
 6067SOL    HW119100   6.459   1.147   6.487  0.2461 -0.9190 -1.9660
 6067SOL    HW219101   6.301   1.117   6.515  0.7168 -1.5337  0.1521
 6068SOL     OW19102   6.097   2.844   5.685  0.3415  0.8351  0.5041
 6068SOL    HW119103   6.134   2.932   5.717  0.6060  1.0210 -0.2831
 6068SOL    HW219104   6.048   2.799   5.759  1.8052  0.7817  1.4673
 6069SOL     OW19105   6.978   4.792   5.910 -0.2065  0.3654 -0.1588
 6069SOL    HW119106   7.022   4.776   5.999  1.7289 -0.3930 -1.2012
 6069SOL    HW219107   6.879   4.803   5.924  0.0218  0.1504  2.0600
 6070SOL     OW19108   2.057   1.883   4.830  0.3864 -0.0162  0.0807
 6070SOL    HW119109   1.964   1.907   4.858 -0.0666 -0.8125 -0.6823
 6070SOL    HW219110   2.123   1.937   4.882 -0.5399  1.9839 -0.7203
 6071SOL     OW19111   5.521   6.269   4.965  0.3156 -0.4131 -0.2775
 6071SOL    HW119112   5.564   6.179   4.960  0.9647 -0.0511 -1.7625
 6071SOL    HW219113   5.497   6.289   5.060  0.7543 -1.8692  0.1670
 6072SOL     OW19114   6.005   1.214   1.835  0.2455  0.1196 -0.1107
 6072SOL    HW119115   5.964   1.224   1.744 -0.3789 -0.6902  0.0657
 6072SOL    HW219116   6.088   1.159   1.828  0.4098  0.3849 -0.2462
 6073SOL     OW19117   0.160   3.985   6.020  0.1413 -0.8141 -0.3703
 6073SOL    HW119118   0.109   4.067   6.044 -0.4845 -1.5363  0.8598
 6073SOL    HW219119   0.212   3.953   6.100  2.3947 -0.2296 -1.5136
 6074SOL     OW19120   1.549   5.799   3.590  0.0259  0.3490  0.3306
 6074SOL    HW119121   1.575   5.708   3.622  2.9625  0.4975 -1.3331
 6074SOL    HW219122   1.552   5.863   3.666  2.9640 -0.0352  0.6464
 6075SOL     OW19123   4.750   2.675   1.023  0.0875 -0.0034  0.2456
 6075SOL    HW119124   4.722   2.673   1.119  0.8138 -1.6674  0.4760
 6075SOL    HW219125   4.705   2.750   0.976 -0.5923  0.6036  1.7973
 6076SOL     OW19126   0.825   4.803   4.299  0.0953 -0.1358  0.9104
 6076SOL    HW119127   0.814   4.751   4.383 -0.8923  0.3912  1.1212
 6076SOL    HW219128   0.909   4.775   4.253 -0.3196 -1.7732  1.1087
 6077SOL     OW19129   3.470   4.957   0.330 -0.6831  0.3567  0.3483
 6077SOL    HW119130   3.421   5.030   0.378  0.2644  0.6821  0.8539
 6077SOL    HW219131   3.552   4.932   0.382  0.1886  0.4715 -0.9231
 6078SOL     OW19132   3.635   4.940   1.031 -0.4878 -0.7274  0.3346
 6078SOL    HW119133   3.704   5.012   1.038 -1.3172  0.0845  0.3114
 6078SOL    HW219134   3.660   4.878   0.957  0.3373 -0.5799  0.4769
 6079SOL     OW19135   2.705   3.942   0.711  0.0656  0.4149  0.4589
 6079SOL    HW119136   2.625   4.002   0.720 -0.6730 -0.4606 -0.1190
 6079SOL    HW219137   2.735   3.913   0.801  0.0048  1.0961  0.7055
 6080SOL     OW19138   0.068   1.422   2.627 -0.3164  0.3011 -0.1058
 6080SOL    HW119139   0.067   1.504   2.569  1.5515  1.1407  0.9570
 6080SOL    HW219140   0.058   1.449   2.722  1.0179 -0.6425  0.3179
 6081SOL     OW19141   0.368   4.915   6.476  0.1604  0.2705 -0.0339
 6081SOL    HW119142   0.407   4.834   6.520  2.2379  0.5121 -1.3040
 6081SOL    HW219143   0.287   4.889   6.424 -0.6927 -0.5010  1.5974
 6082SOL     OW19144   2.479   2.606   1.912 -0.0761  0.0936 -0.0570
 6082SOL    HW119145   2.523   2.688   1.876  0.7987  0.0948  0.9726
 6082SOL    HW219146   2.547   2.550   1.960 -1.2233  0.2747  1.8958
 6083SOL     OW19147   0.149   4.709   5.584 -0.1707  0.2582 -0.1139
 6083SOL    HW119148   0.152   4.664   5.495  0.9230  0.5447 -0.2299
 6083SOL    HW219149   0.062   4.688   5.629 -0.1760 -0.9921 -0.6731
 6084SOL     OW19150   0.976   6.734   0.952 -0.1531  0.0305 -0.0757
 6084SOL    HW119151   0.899   6.792   0.928 -0.1316 -1.0899 -3.4508
 6084SOL    HW219152   1.020   6.701   0.868  2.5355 -1.3078  1.7107
 6085SOL     OW19153   0.736   5.251   5.125 -0.3321 -0.0636 -0.4293
 6085SOL    HW119154   0.813   5.312   5.110  0.2305 -0.3345  1.2085
 6085SOL    HW219155   0.763   5.176   5.185 -2.2201  0.5983  1.3782
 6086SOL     OW19156   3.909   6.592   5.872  0.0409  0.1685  0.3872
 6086SOL    HW119157   3.984   6.650   5.903 -0.9489  0.9917  1.3187
 6086SOL    HW219158   3.939   6.497   5.868  0.6181  0.2094  2.6033
 6087SOL     OW19159   4.825   0.502   0.465 -0.5714  0.1147  0.1523
 6087SOL    HW119160   4.919   0.474   0.482 -1.0205 -0.7323  1.4099
 6087SOL    HW219161   4.822   0.566   0.388  1.0396  0.2977  0.2161
 6088SOL     OW19162   5.582   5.326   2.795  0.2323 -0.4717  0.0431
 6088SOL    HW119163   5.611   5.372   2.878  0.2597 -1.8134  0.8011
 6088SOL    HW219164   5.655   5.266   2.762 -0.9228 -2.4183  0.8988
 6089SOL     OW19165   0.748   1.966   0.768 -0.8341  0.4063  0.2010
 6089SOL    HW119166   0.678   1.950   0.837  0.1124 -0.5913  0.9534
 6089SOL    HW219167   0.749   1.889   0.704 -1.8766  1.4371 -1.1148
 6090SOL     OW19168   0.306   0.667   5.486 -0.2422  0.2037  0.1246
 6090SOL    HW119169   0.400   0.636   5.468 -0.0061  0.7599  0.3685
 6090SOL    HW219170   0.244   0.590   5.479  0.2708 -0.2277  0.2312
 6091SOL     OW19171   2.150   3.264   0.657 -0.1625 -0.2894  0.0277
 6091SOL    HW119172   2.190   3.345   0.700  0.3792 -0.0526 -0.9209
 6091SOL    HW219173   2.125   3.198   0.729  0.4257  0.2352  0.7287
 6092SOL     OW19174   1.764   0.102   2.462  0.0784  0.4018 -0.4028
 6092SOL    HW119175   1.732   0.070   2.373  0.0694 -0.4611 -0.1016
 6092SOL    HW219176   1.699   0.167   2.501 -1.5749 -1.6415  0.3950
 6093SOL     OW19177   0.157   2.413   2.567 -0.4720 -0.5902 -0.1816
 6093SOL    HW119178   0.246   2.395   2.527 -0.0825 -1.3702  1.0153
 6093SOL    HW219179   0.161   2.498   2.621 -0.6277 -0.3049 -0.6070
 6094SOL     OW19180   3.683   1.696   2.862 -0.2925  0.5909  0.0566
 6094SOL    HW119181   3.592   1.737   2.861 -0.3958  0.4629  1.8135
 6094SOL    HW219182   3.746   1.754   2.810 -1.2614  0.9056 -0.8144
 6095SOL     OW19183   4.956   0.961   6.021  0.1788  0.0947  0.3831
 6095SOL    HW119184   4.865   0.937   5.988 -0.2180 -0.2108  1.6378
 6095SOL    HW219185   4.959   1.059   6.043  0.2972  0.1967 -0.0715
 6096SOL     OW19186   6.853   6.752   4.224  0.1701  0.4976  0.3531
 6096SOL    HW119187   6.789   6.828   4.235  1.0716  1.1978  0.8946
 6096SOL    HW219188   6.943   6.778   4.260  0.3378 -1.0570  1.1372
 6097SOL     OW19189   2.450   1.267   3.083 -0.6148  0.7269  0.1331
 6097SOL    HW119190   2.408   1.177   3.074  1.7794 -0.4301 -0.3598
 6097SOL    HW219191   2.379   1.337   3.090 -2.5486 -1.0553 -0.7246
 6098SOL     OW19192   1.570   3.434   0.922  0.1924  0.7161  0.1607
 6098SOL    HW119193   1.498   3.364   0.921 -0.3811  1.2813 -1.7138
 6098SOL    HW219194   1.656   3.393   0.951 -0.1800 -0.7310 -0.7101
 6099SOL     OW19195   0.641   6.654   0.392  0.3033  0.5000 -0.5136
 6099SOL    HW119196   0.688   6.619   0.473 -1.5505 -0.3444  0.2471
 6099SOL    HW219197   0.687   6.737   0.360  1.8720  0.0965  0.5816
 6100SOL     OW19198   4.860   3.996   5.892 -0.5804  0.1204 -0.0473
 6100SOL    HW119199   4.772   4.035   5.918 -0.7801 -0.2469 -0.1593
 6100SOL    HW219200   4.897   3.944   5.969 -0.2842  0.5794  0.1236
 6101SOL     OW19201   6.068   2.508   4.878 -0.9509  0.0259  0.1189
 6101SOL    HW119202   6.081   2.607   4.868 -1.0830  0.0419  0.1055
 6101SOL    HW219203   6.021   2.489   4.964 -1.2373  0.0003 -0.0416
 6102SOL     OW19204   3.575   0.039   4.848 -0.6844  0.1978  0.1985
 6102SOL    HW119205   3.512  -0.035   4.873  0.2587 -0.7803 -0.2146
 6102SOL    HW219206   3.647   0.046   4.917 -0.2874  0.1295 -0.1976
 6103SOL     OW19207   2.664   5.081   2.365 -0.4152 -0.3448 -0.5010
 6103SOL    HW119208   2.590   5.058   2.428 -0.8317  0.7664 -0.5575
 6103SOL    HW219209   2.698   4.998   2.322 -0.1520 -1.1206  1.1378
 6104SOL     OW19210   6.345   1.999   5.570 -0.0996  0.9227 -0.1590
 6104SOL    HW119211   6.291   2.072   5.611  0.4550  3.1597 -3.0927
 6104SOL    HW219212   6.307   1.975   5.481  0.0999 -2.0245  0.4458
 6105SOL     OW19213   2.329   6.761   5.664 -0.4273  0.1340  0.0353
 6105SOL    HW119214   2.345   6.663   5.654 -1.4017 -0.2750  2.0419
 6105SOL    HW219215   2.327   6.785   5.761 -0.7060  2.0748 -0.4013
 6106SOL     OW19216   1.169   4.171   4.382 -0.4451  0.0335  0.2872
 6106SOL    HW119217   1.175   4.073   4.400 -1.1776 -0.1393 -0.3557
 6106SOL    HW219218   1.255   4.215   4.408 -0.2544 -0.7111  0.9653
 6107SOL     OW19219   1.914   4.102   3.263 -0.6135  0.3257 -0.3245
 6107SOL    HW119220   2.013   4.110   3.267 -0.4960 -1.1785  1.0462
 6107SOL    HW219221   1.886   4.015   3.305 -2.6391  1.6072  1.1525
 6108SOL     OW19222   6.911   1.199   3.347  0.2809 -0.0502  0.5609
 6108SOL    HW119223   6.827   1.213   3.399 -1.2202  1.4468 -2.0268
 6108SOL    HW219224   6.952   1.112   3.372 -1.4965 -0.3831  2.6098
 6109SOL     OW19225   5.884   2.415   6.962  0.0623  0.0543 -0.0243
 6109SOL    HW119226   5.814   2.354   6.998 -0.1333  0.5596  0.4517
 6109SOL    HW219227   5.857   2.446   6.871  0.3817 -0.9253 -0.4715
 6110SOL     OW19228   5.025   2.774   6.725 -0.0395  0.6838 -0.1006
 6110SOL    HW119229   4.988   2.753   6.634  0.8683  0.8183 -0.5146
 6110SOL    HW219230   5.035   2.689   6.777  1.4666  0.3087 -0.9378
 6111SOL     OW19231   0.626   3.031   2.224  0.3143 -0.0788 -0.4786
 6111SOL    HW119232   0.644   3.108   2.163  0.0870  0.8064  0.5484
 6111SOL    HW219233   0.705   3.015   2.283  0.1000 -0.2025 -0.2221
 6112SOL     OW19234   3.952   2.157   5.208 -0.1919  0.1730  0.1264
 6112SOL    HW119235   3.854   2.175   5.199 -0.6924 -2.6761 -1.0813
 6112SOL    HW219236   3.972   2.125   5.301  0.0257  2.5888  0.9960
 6113SOL     OW19237   0.682   2.272   6.761  0.4483 -0.4756 -0.2383
 6113SOL    HW119238   0.699   2.224   6.675  0.4280 -0.0339 -0.4881
 6113SOL    HW219239   0.620   2.217   6.818  0.6225 -0.8590 -0.4191
 6114SOL     OW19240   3.400   2.688   1.549  0.4218  0.0088  0.6279
 6114SOL    HW119241   3.377   2.782   1.526  2.0891  0.4830  0.7613
 6114SOL    HW219242   3.446   2.644   1.471  0.8177 -0.2626  1.0047
 6115SOL     OW19243   4.815   1.965   3.141 -0.7276 -0.4644 -0.5312
 6115SOL    HW119244   4.743   2.035   3.135  0.8462  1.2001 -0.9536
 6115SOL    HW219245   4.837   1.949   3.237 -2.7834 -2.2706 -0.2880
 6116SOL     OW19246   1.249   1.624   5.633  0.1423 -0.3071  0.3101
 6116SOL    HW119247   1.206   1.674   5.559 -1.2374  1.5076  2.2011
 6116SOL    HW219248   1.341   1.597   5.607 -0.1815  0.5701 -1.8939
 6117SOL     OW19249   7.004   2.074   5.966  0.5336 -0.8536  0.6706
 6117SOL    HW119250   6.969   2.001   5.908 -0.7511 -0.1057  0.4714
 6117SOL    HW219251   7.002   2.045   6.061 -1.1493 -0.6827  0.7258
 6118SOL     OW19252   0.640   1.522   6.205  0.3272  0.4344  0.2661
 6118SOL    HW119253   0.717   1.468   6.238 -0.3183  0.5415  2.0551
 6118SOL    HW219254   0.575   1.463   6.158  1.2087  0.2537 -0.7720
 6119SOL     OW19255   6.653   5.592   3.214 -0.2651  0.3227 -0.2753
 6119SOL    HW119256   6.658   5.587   3.114 -0.1455  1.0885 -0.3095
 6119SOL    HW219257   6.719   5.527   3.253 -0.7760 -0.4526 -0.6836
 6120SOL     OW19258   4.939   1.552   4.647  0.5169  0.1262  0.4820
 6120SOL    HW119259   4.951   1.452   4.650  0.2450  0.0990  0.8344
 6120SOL    HW219260   5.027   1.597   4.658  0.5592 -0.0776  1.0431
 6121SOL     OW19261   1.143   3.599   6.588  0.1991  0.0589  0.0266
 6121SOL    HW119262   1.079   3.553   6.650 -0.6224  2.1703  0.8181
 6121SOL    HW219263   1.092   3.639   6.512  0.7468  0.7221  0.0039
 6122SOL     OW19264   3.372   6.093   2.030  0.1375 -0.0750 -0.4365
 6122SOL    HW119265   3.421   6.135   1.953 -0.6087 -0.8241 -1.3514
 6122SOL    HW219266   3.283   6.137   2.041  1.2096  1.7464  1.6619
 6123SOL     OW19267   1.687   0.964   1.134  0.5416 -0.0862  0.0268
 6123SOL    HW119268   1.750   0.991   1.061 -0.0576 -0.7018 -0.7198
 6123SOL    HW219269   1.735   0.903   1.198  1.4050  1.3468  0.8007
 6124SOL     OW19270   3.569   6.357   6.500 -0.0019 -0.0686  0.6131
 6124SOL    HW119271   3.469   6.346   6.498  0.2866 -3.6383  0.0319
 6124SOL    HW219272   3.608   6.293   6.566  1.9927  0.6118  0.1597
 6125SOL     OW19273   2.685   5.807   1.313 -0.0280 -0.3456 -0.7449
 6125SOL    HW119274   2.648   5.714   1.320  1.4310 -0.8381  1.3415
 6125SOL    HW219275   2.610   5.873   1.319 -0.9723 -1.3349 -1.1165
 6126SOL     OW19276   6.098   4.921   2.711 -0.1988 -0.1005  0.0596
 6126SOL    HW119277   6.023   4.985   2.694  0.7319  1.1270  0.5027
 6126SOL    HW219278   6.165   4.928   2.638 -0.1317 -0.6509  0.0648
 6127SOL     OW19279   3.267   2.164   3.495 -0.1604  0.3304 -0.3060
 6127SOL    HW119280   3.179   2.141   3.537  0.6252 -0.2270  1.0976
 6127SOL    HW219281   3.252   2.190   3.400 -2.1621  2.7837  0.5689
 6128SOL     OW19282   6.585   4.074   0.255  0.4122 -0.7579  0.0333
 6128SOL    HW119283   6.608   4.018   0.176  2.9031 -0.4721  0.4540
 6128SOL    HW219284   6.488   4.066   0.275 -0.1023 -1.5822 -2.4481
 6129SOL     OW19285   6.323   4.485   3.281  0.4220 -0.2646  0.1670
 6129SOL    HW119286   6.391   4.558   3.272  1.1161 -0.5861  2.2664
 6129SOL    HW219287   6.356   4.402   3.236  0.7429 -0.0088 -0.0718
 6130SOL     OW19288   5.248   0.823   3.858 -1.0692  0.5184 -0.4905
 6130SOL    HW119289   5.189   0.785   3.787 -0.9081  1.0384 -0.9043
 6130SOL    HW219290   5.343   0.820   3.829 -1.1591  2.4786 -1.1313
 6131SOL     OW19291   5.089   0.796   6.174  0.1185 -0.6840  0.6745
 6131SOL    HW119292   5.023   0.848   6.120  0.9524  1.3497  1.5418
 6131SOL    HW219293   5.046   0.763   6.258 -0.0781 -0.2210  0.7590
 6132SOL     OW19294   5.762   0.877   6.622  0.1389 -0.3816 -0.3237
 6132SOL    HW119295   5.815   0.915   6.698  0.1884  0.3771 -0.7344
 6132SOL    HW219296   5.709   0.799   6.655 -0.0747  0.1250  0.5691
 6133SOL     OW19297   0.492   1.964   3.518  1.0310 -0.1940 -0.7167
 6133SOL    HW119298   0.446   2.032   3.575  1.8482 -1.1033  1.1387
 6133SOL    HW219299   0.424   1.910   3.469  0.0524 -1.0514  1.4203
 6134SOL     OW19300   4.721   4.332   6.785  0.0057  0.1014 -0.7156
 6134SOL    HW119301   4.805   4.335   6.730  0.7197 -0.7215  0.3053
 6134SOL    HW219302   4.670   4.417   6.772  0.7791  0.4423 -1.6676
 6135SOL     OW19303   1.379   1.224   1.537  0.6827 -0.0900 -0.8056
 6135SOL    HW119304   1.421   1.134   1.547 -0.8753 -0.8330 -0.6112
 6135SOL    HW219305   1.348   1.256   1.627  0.6956  0.3668 -0.9626
 6136SOL     OW19306   6.375   1.571   2.533  0.2391 -0.2497  0.0866
 6136SOL    HW119307   6.281   1.543   2.555  0.5844 -0.5913  1.1959
 6136SOL    HW219308   6.413   1.623   2.609  1.0305 -0.3093 -0.2626
 6137SOL     OW19309   2.853   0.152   5.687  0.1644  0.1580  0.3613
 6137SOL    HW119310   2.936   0.193   5.648  0.4197  1.2940  1.9693
 6137SOL    HW219311   2.780   0.220   5.689 -0.0719 -0.1082  1.1185
 6138SOL     OW19312   4.593   6.611   1.700  0.4396  0.3472 -0.7039
 6138SOL    HW119313   4.643   6.535   1.660 -0.1424  0.2099 -1.1855
 6138SOL    HW219314   4.563   6.586   1.793  1.8420  0.6909 -0.1274
 6139SOL     OW19315   1.455   2.395   4.883 -0.1627 -0.3524  0.0220
 6139SOL    HW119316   1.447   2.420   4.786  1.1117  1.8582  0.4277
 6139SOL    HW219317   1.380   2.436   4.934  0.7848  0.9901  0.3800
 6140SOL     OW19318   0.344   6.295   0.712  0.0872 -0.8444 -0.0378
 6140SOL    HW119319   0.292   6.368   0.669  0.9547 -0.3577 -0.3005
 6140SOL    HW219320   0.364   6.224   0.644  2.4955  0.4886 -0.8613
 6141SOL     OW19321   6.910   6.047   5.815 -0.4838 -0.7526  0.2303
 6141SOL    HW119322   6.811   6.061   5.815 -0.3235  0.7723  1.9584
 6141SOL    HW219323   6.956   6.136   5.815  0.8828 -1.4379  0.0446
 6142SOL     OW19324   5.047   5.481   2.919 -0.6241  0.0466 -0.5970
 6142SOL    HW119325   5.146   5.483   2.924 -0.6086  0.7501 -1.0993
 6142SOL    HW219326   5.013   5.395   2.958 -0.0605  1.2908  2.9288
 6143SOL     OW19327   6.734   5.324   6.889  0.3490 -0.2453 -1.2710
 6143SOL    HW119328   6.638   5.325   6.914  0.5862 -1.3839 -0.2116
 6143SOL    HW219329   6.769   5.418   6.888 -0.3225  0.0414  0.1675
 6144SOL     OW19330   6.384   5.393   1.668  0.2568  0.0794  0.0225
 6144SOL    HW119331   6.416   5.379   1.762 -0.8942  1.1264  0.5908
 6144SOL    HW219332   6.338   5.481   1.661 -1.1473 -0.6987 -1.1136
 6145SOL     OW19333   4.109   6.832   4.119  0.1337  0.6687 -0.2985
 6145SOL    HW119334   4.074   6.925   4.109 -2.2792 -0.1015  0.4774
 6145SOL    HW219335   4.065   6.787   4.196  0.9374 -1.2839 -0.8968
 6146SOL     OW19336   4.128   1.517   5.006  0.0339 -0.4017 -0.5340
 6146SOL    HW119337   4.062   1.499   5.079  0.8730 -0.2860  0.2751
 6146SOL    HW219338   4.082   1.560   4.929 -0.8183 -0.2183  0.0623
 6147SOL     OW19339   0.693   4.008   3.406  0.0706 -0.3322 -0.1211
 6147SOL    HW119340   0.770   4.064   3.375 -0.4208  0.4189 -0.0100
 6147SOL    HW219341   0.612   4.031   3.354 -0.5237  0.2116  1.0158
 6148SOL     OW19342   5.051   6.439   5.304 -0.3127 -0.3698 -0.3288
 6148SOL    HW119343   4.967   6.393   5.334 -0.1559  0.3717  1.4166
 6148SOL    HW219344   5.127   6.374   5.307 -0.5067 -0.5954 -0.1789
 6149SOL     OW19345   4.263   4.942   3.168 -0.8114  0.1000 -0.4921
 6149SOL    HW119346   4.285   4.858   3.217 -0.8028  0.0800 -0.5306
 6149SOL    HW219347   4.166   4.943   3.144 -0.4167 -0.8576 -2.3225
 6150SOL     OW19348   4.536   5.306   1.450 -0.0425 -0.5169  0.5345
 6150SOL    HW119349   4.563   5.354   1.366  0.6324 -0.1459  0.9625
 6150SOL    HW219350   4.446   5.339   1.479  0.7854  1.1685  1.3163
 6151SOL     OW19351   0.585   3.331   5.888  0.0796 -0.1921  0.0803
 6151SOL    HW119352   0.665   3.329   5.947 -0.8969  0.2494  1.4951
 6151SOL    HW219353   0.533   3.246   5.900 -0.8967  0.5138  1.0208
 6152SOL     OW19354   6.663   4.993   3.778  0.2809  0.7564  0.4038
 6152SOL    HW119355   6.661   4.893   3.785 -0.9935  0.7821  0.7583
 6152SOL    HW219356   6.745   5.021   3.729 -0.3698 -0.5905 -1.6120
 6153SOL     OW19357   5.883   4.769   1.652  0.3482 -1.5128  0.9149
 6153SOL    HW119358   5.901   4.864   1.626  0.2709 -1.5842  0.6033
 6153SOL    HW219359   5.806   4.734   1.599  1.2326 -2.1895  0.0482
 6154SOL     OW19360   6.740   2.034   5.399  0.1630 -0.7020  0.0718
 6154SOL    HW119361   6.827   1.997   5.366 -0.3015 -3.2681  1.4709
 6154SOL    HW219362   6.668   1.967   5.385 -0.8471 -0.1965  2.3424
 6155SOL     OW19363   1.267   2.322   5.284  0.2196  0.2900  0.4669
 6155SOL    HW119364   1.346   2.292   5.231  0.2364 -1.2332  1.3004
 6155SOL    HW219365   1.296   2.345   5.377  0.1505  2.6956 -0.0437
 6156SOL     OW19366   6.113   6.404   0.856 -0.0575 -0.3908  0.1605
 6156SOL    HW119367   6.162   6.447   0.931  0.9823 -0.7242 -0.3073
 6156SOL    HW219368   6.174   6.342   0.807 -0.8538 -0.5606 -0.6558
 6157SOL     OW19369   1.256   0.608   4.479  0.2257 -0.2297 -0.2465
 6157SOL    HW119370   1.218   0.574   4.393  2.2190 -1.7062 -0.6222
 6157SOL    HW219371   1.203   0.572   4.556 -0.8977  0.1907 -0.7996
 6158SOL     OW19372   4.389   6.769   7.004  0.5869  0.4694 -0.1307
 6158SOL    HW119373   4.467   6.750   7.064 -0.5333  1.1736  1.6323
 6158SOL    HW219374   4.304   6.749   7.053 -0.3872 -1.4495 -2.3997
 6159SOL     OW19375   6.312   0.966   1.584  0.0485  0.5350  0.1063
 6159SOL    HW119376   6.379   1.010   1.524 -1.9573  3.0964 -0.4652
 6159SOL    HW219377   6.316   1.007   1.675  0.3770 -0.4978  0.5686
 6160SOL     OW19378   6.046   6.155   0.439 -0.2281  0.3394  0.1478
 6160SOL    HW119379   6.014   6.144   0.345 -2.0911  1.2805  0.6154
 6160SOL    HW219380   5.995   6.093   0.499  1.1183 -0.4380  0.5358
 6161SOL     OW19381   5.985   2.000   0.192  0.1334 -0.2450  0.4219
 6161SOL    HW119382   5.937   2.086   0.170 -0.5070 -0.5834  0.4718
 6161SOL    HW219383   6.057   1.985   0.124 -0.0087  0.1335  0.1794
 6162SOL     OW19384   1.838   4.922   4.762 -0.1066  0.0539 -0.1312
 6162SOL    HW119385   1.881   5.010   4.738  0.2325  0.0857  0.5548
 6162SOL    HW219386   1.856   4.855   4.690 -0.3676  0.5471 -0.6602
 6163SOL     OW19387   4.719   6.263   2.478  0.2597  0.1757 -0.7619
 6163SOL    HW119388   4.810   6.242   2.513  0.5828  0.5660 -1.3547
 6163SOL    HW219389   4.703   6.214   2.392  0.2641  0.8051 -1.1285
 6164SOL     OW19390   3.150   3.428   2.661  0.0302  0.1043 -0.5276
 6164SOL    HW119391   3.127   3.418   2.758  0.1541 -1.0745 -0.6101
 6164SOL    HW219392   3.076   3.475   2.613 -0.6276 -0.5109 -0.1211
 6165SOL     OW19393   5.198   6.294   6.237 -0.2613 -0.3157 -0.3603
 6165SOL    HW119394   5.286   6.298   6.285 -0.3254  0.7036 -0.3029
 6165SOL    HW219395   5.124   6.287   6.304 -0.3920  1.7254 -0.2221
 6166SOL     OW19396   4.272   6.127   6.179 -0.1854  0.4454  0.2928
 6166SOL    HW119397   4.294   6.085   6.090 -0.0351  1.0668  0.0305
 6166SOL    HW219398   4.219   6.062   6.234  0.7685 -0.4061  0.2327
 6167SOL     OW19399   6.175   5.681   2.140 -0.2205 -0.0972 -0.2733
 6167SOL    HW119400   6.197   5.778   2.146  0.8161 -0.3082 -0.4814
 6167SOL    HW219401   6.080   5.666   2.168 -0.5949  1.0506 -0.9099
 6168SOL     OW19402   0.710   1.196   0.803 -0.0826  0.7318 -0.4569
 6168SOL    HW119403   0.754   1.124   0.857 -1.4053  1.1781  1.2915
 6168SOL    HW219404   0.723   1.176   0.705  1.0916 -0.9080 -0.0161
 6169SOL     OW19405   1.113   3.469   1.548  0.2747  0.7585  0.4094
 6169SOL    HW119406   1.067   3.382   1.533  1.5020 -0.2324  2.0010
 6169SOL    HW219407   1.205   3.466   1.507 -0.8874  2.6786 -2.6740
 6170SOL     OW19408   0.119   4.570   5.100 -0.1958 -0.4473  0.0188
 6170SOL    HW119409   0.149   4.651   5.050 -0.8051 -0.0283  0.3139
 6170SOL    HW219410   0.107   4.494   5.036 -2.0066  0.3701 -0.6843
 6171SOL     OW19411   0.629   3.574   0.957  0.9255 -0.0279  0.5946
 6171SOL    HW119412   0.572   3.581   0.875  1.5241 -0.4065  0.1343
 6171SOL    HW219413   0.570   3.565   1.037  0.3323 -0.6967  0.1016
 6172SOL     OW19414   0.167   1.399   3.722  0.0131 -0.3003  0.0862
 6172SOL    HW119415   0.181   1.480   3.779  1.2301 -0.0985 -0.4743
 6172SOL    HW219416   0.088   1.414   3.663  0.9718  1.0339 -0.9227
 6173SOL     OW19417   6.176   3.915   3.176  0.1071 -0.2167 -0.4951
 6173SOL    HW119418   6.264   3.917   3.223 -0.6267 -1.9490  1.0815
 6173SOL    HW219419   6.160   3.823   3.141 -1.2445 -0.0321 -0.4102
 6174SOL     OW19420   4.397   6.406   3.082  0.1899 -0.7139 -0.1583
 6174SOL    HW119421   4.474   6.439   3.137  0.2982  0.4325 -0.9611
 6174SOL    HW219422   4.312   6.421   3.132  0.3570 -0.5310  0.0767
 6175SOL     OW19423   2.986   6.569   5.520 -0.2382 -0.1111 -0.9091
 6175SOL    HW119424   3.005   6.572   5.422 -0.6428  2.7147 -0.9960
 6175SOL    HW219425   3.059   6.616   5.569 -0.3326 -0.9886  0.1031
 6176SOL     OW19426   4.277   3.854   5.427 -0.4700 -0.1069  0.1222
 6176SOL    HW119427   4.282   3.862   5.327 -1.1993 -1.7468 -0.0785
 6176SOL    HW219428   4.194   3.806   5.452  0.6067 -1.3944  1.4098
 6177SOL     OW19429   5.321   2.815   2.385  0.5427  0.5461 -0.5842
 6177SOL    HW119430   5.335   2.746   2.456  0.4519  0.9289 -0.1861
 6177SOL    HW219431   5.224   2.819   2.361  0.5748  0.4097 -0.7319
 6178SOL     OW19432   3.992   5.438   2.124 -0.1872  0.0707 -0.7033
 6178SOL    HW119433   4.037   5.353   2.095  0.5734  0.0693  0.4331
 6178SOL    HW219434   3.893   5.424   2.127  0.0286 -1.6288  1.9359
 6179SOL     OW19435   6.414   5.163   3.146 -0.4108  0.0326  0.2021
 6179SOL    HW119436   6.369   5.137   3.061  0.4333  1.0138 -0.5510
 6179SOL    HW219437   6.457   5.082   3.186  1.2083 -0.0194 -1.5281
 6180SOL     OW19438   2.650   5.834   0.848 -0.2098 -0.1717  0.2122
 6180SOL    HW119439   2.703   5.852   0.931  0.3566  1.0780 -0.3908
 6180SOL    HW219440   2.597   5.915   0.824 -0.6344 -0.6387 -0.4681
 6181SOL     OW19441   6.456   6.401   0.881  0.2235  0.1859 -0.4950
 6181SOL    HW119442   6.506   6.322   0.846  1.5499  0.7622  0.0272
 6181SOL    HW219443   6.439   6.465   0.806  1.5819  0.6512 -0.4371
 6182SOL     OW19444   4.887   3.164   5.784 -0.3608 -0.3968  0.3519
 6182SOL    HW119445   4.965   3.130   5.731 -0.2394  0.5075 -0.0724
 6182SOL    HW219446   4.830   3.222   5.725  0.6423  1.9742  1.5591
 6183SOL     OW19447   2.541   1.059   2.346  0.1975 -0.1358  0.4531
 6183SOL    HW119448   2.455   1.087   2.304  1.7278  0.2256 -2.8302
 6183SOL    HW219449   2.526   0.981   2.406 -2.1233 -1.8461 -2.0963
 6184SOL     OW19450   2.372   5.355   6.560 -0.2886  0.0664 -0.5430
 6184SOL    HW119451   2.401   5.441   6.518  0.4348  0.5655  0.9248
 6184SOL    HW219452   2.275   5.360   6.585 -0.4671  0.1248 -1.2280
 6185SOL     OW19453   2.083   2.563   0.109  0.2114 -0.4176  0.5068
 6185SOL    HW119454   2.090   2.632   0.180  1.2482 -0.2581  0.2715
 6185SOL    HW219455   1.990   2.525   0.108  0.1827 -0.4410  1.9395
 6186SOL     OW19456   6.826   1.710   6.118 -0.0846  0.2639  0.0344
 6186SOL    HW119457   6.906   1.682   6.064 -1.1312 -2.1970 -0.3395
 6186SOL    HW219458   6.748   1.724   6.056 -0.1332  2.0894  0.4572
 6187SOL     OW19459   4.540   2.588   4.416  0.1406  0.0155  0.1314
 6187SOL    HW119460   4.515   2.567   4.511  1.1200 -1.0626  0.1623
 6187SOL    HW219461   4.567   2.684   4.410 -2.5083  0.8683  0.3774
 6188SOL     OW19462   1.832   2.163   4.940  0.1969  0.8267 -0.0049
 6188SOL    HW119463   1.824   2.096   4.866 -0.0260  1.6964 -0.7913
 6188SOL    HW219464   1.813   2.119   5.028 -0.5931  0.0088 -0.5706
 6189SOL     OW19465   3.769   4.854   2.363 -0.0537  0.5708  1.1625
 6189SOL    HW119466   3.826   4.785   2.407  0.7477  1.5258  1.6671
 6189SOL    HW219467   3.682   4.813   2.336  0.5283 -0.7048  1.1520
 6190SOL     OW19468   1.111   3.963   0.979 -0.3588 -0.0199  0.5818
 6190SOL    HW119469   1.109   4.059   0.952 -1.4948  0.3681  1.9111
 6190SOL    HW219470   1.022   3.938   1.019 -1.0226 -2.3116 -1.9936
 6191SOL     OW19471   4.088   2.814   0.390  0.4788 -0.3089 -0.0353
 6191SOL    HW119472   4.071   2.816   0.291  1.4627 -0.2000 -0.2162
 6191SOL    HW219473   4.158   2.746   0.410 -0.1163 -0.7252  0.6628
 6192SOL     OW19474   0.617   1.198   1.472 -0.0000  0.4193 -0.2832
 6192SOL    HW119475   0.627   1.258   1.393 -2.5984  1.4493  0.0591
 6192SOL    HW219476   0.520   1.179   1.487  0.5853 -1.8568  1.1529
 6193SOL     OW19477   3.204   6.657   6.548  0.2870  0.5345  0.4110
 6193SOL    HW119478   3.205   6.676   6.646 -0.9749 -1.0890  0.7735
 6193SOL    HW219479   3.298   6.662   6.513  1.2165 -1.5616  2.2995
 6194SOL     OW19480   5.814   1.514   6.868 -0.0994  0.0102  0.5278
 6194SOL    HW119481   5.762   1.433   6.842  0.4138 -0.1847  0.0737
 6194SOL    HW219482   5.817   1.522   6.967 -0.9902  0.0251  0.5529
 6195SOL     OW19483   5.928   6.908   6.214  0.0994 -0.2215 -0.3092
 6195SOL    HW119484   5.887   6.977   6.274 -0.4530 -0.8461  0.0468
 6195SOL    HW219485   5.901   6.927   6.120 -1.2826 -0.7734 -0.0568
 6196SOL     OW19486   4.927   3.944   2.640 -0.2955  0.5493 -0.3536
 6196SOL    HW119487   4.883   3.959   2.728 -1.5510 -3.0229 -0.2129
 6196SOL    HW219488   4.958   3.849   2.634  0.3738  0.8524 -3.5202
 6197SOL     OW19489   1.883   5.651   2.868  0.7665 -0.2981 -0.0421
 6197SOL    HW119490   1.978   5.635   2.894  0.6863  0.8943  1.1116
 6197SOL    HW219491   1.824   5.582   2.911  0.9849 -0.2908  0.2740
 6198SOL     OW19492   4.049   6.318   1.228 -0.4483  0.4370 -0.4202
 6198SOL    HW119493   4.003   6.231   1.211  1.6528 -1.0312  0.9117
 6198SOL    HW219494   4.115   6.307   1.303 -0.2292  3.2369 -0.0943
 6199SOL     OW19495   5.532   1.053   1.688  0.4354 -0.1379  0.0432
 6199SOL    HW119496   5.613   1.034   1.634 -0.4253  0.6024 -1.5940
 6199SOL    HW219497   5.457   0.995   1.657 -0.0050  0.1024  0.6385
 6200SOL     OW19498   1.403   3.411   5.533 -0.3088 -0.4207 -0.0724
 6200SOL    HW119499   1.330   3.438   5.469 -1.0846  0.6842  1.2212
 6200SOL    HW219500   1.490   3.451   5.503 -0.8263  0.8210  0.0156
 6201SOL     OW19501   0.248   3.695   5.868  0.2074  0.2348 -0.5449
 6201SOL    HW119502   0.164   3.658   5.909 -0.5421  0.6861 -1.6435
 6201SOL    HW219503   0.231   3.787   5.834  1.3779  0.6368 -0.0844
 6202SOL     OW19504   6.453   0.472   2.193  0.6539  0.4333  1.2440
 6202SOL    HW119505   6.392   0.479   2.114 -0.3066  0.7364  1.9895
 6202SOL    HW219506   6.404   0.431   2.269  1.4314  0.5594  1.8268
 6203SOL     OW19507   4.857   6.370   3.111 -0.0694 -0.0523  0.8164
 6203SOL    HW119508   4.864   6.270   3.113  1.9555 -0.0721 -1.9242
 6203SOL    HW219509   4.926   6.409   3.170 -1.4704 -0.1821  2.6448
 6204SOL     OW19510   2.435   5.876   5.119  0.5690 -0.0143  0.3740
 6204SOL    HW119511   2.487   5.804   5.072  1.0299  1.1202 -0.8835
 6204SOL    HW219512   2.363   5.910   5.059 -0.5454 -0.3440  1.4730
 6205SOL     OW19513   6.159   4.062   0.877 -0.0453 -0.1239  0.0807
 6205SOL    HW119514   6.095   4.033   0.805 -1.4079 -0.3844  1.3281
 6205SOL    HW219515   6.225   3.989   0.893 -0.5955 -0.6505  0.0261
 6206SOL     OW19516   5.528   1.330   2.698 -0.5539  0.4551  0.5080
 6206SOL    HW119517   5.545   1.428   2.708 -0.2582  0.4217  0.3663
 6206SOL    HW219518   5.477   1.296   2.777 -1.8673  0.9911 -0.0830
 6207SOL     OW19519   0.592   5.931   5.122 -0.8153 -0.1748  0.3981
 6207SOL    HW119520   0.624   5.836   5.126 -1.5087 -0.4399 -0.1736
 6207SOL    HW219521   0.497   5.936   5.152 -1.0862  0.1850 -0.4842
 6208SOL     OW19522   2.145   1.392   5.441  0.1620  0.5900  0.1947
 6208SOL    HW119523   2.067   1.382   5.380 -0.0786  0.8286  0.4608
 6208SOL    HW219524   2.124   1.352   5.530  0.1409  1.1366  0.4408
 6209SOL     OW19525   3.615   5.647   1.031  1.1993  0.3612 -0.5639
 6209SOL    HW119526   3.554   5.608   1.099  1.0875 -0.7240 -1.2661
 6209SOL    HW219527   3.668   5.721   1.072 -1.7606  2.5462 -0.3224
 6210SOL     OW19528   5.009   2.845   3.169  0.3287  0.0234  0.1261
 6210SOL    HW119529   4.927   2.878   3.124  0.7410  0.3665 -0.3845
 6210SOL    HW219530   5.019   2.747   3.152  0.9528  0.3135 -1.3028
 6211SOL     OW19531   3.401   5.462   5.272 -0.2180 -0.3350  0.8012
 6211SOL    HW119532   3.439   5.478   5.181  0.9518  0.8594  1.4793
 6211SOL    HW219533   3.329   5.393   5.265 -3.5219  2.9581 -1.8597
 6212SOL     OW19534   3.526   5.157   5.344 -0.3090 -0.0006 -0.1999
 6212SOL    HW119535   3.598   5.202   5.397 -1.1788  0.0257  1.0012
 6212SOL    HW219536   3.481   5.087   5.400 -1.1361 -0.1108 -0.9655
 6213SOL     OW19537   4.616   6.670   0.132 -0.7533  0.5323  0.3538
 6213SOL    HW119538   4.713   6.692   0.122 -0.6559  0.2603  0.7276
 6213SOL    HW219539   4.590   6.673   0.228 -0.8103 -0.6834  0.3930
 6214SOL     OW19540   5.855   5.745   4.193  0.5321  0.5292  0.0981
 6214SOL    HW119541   5.769   5.695   4.189  0.3942  0.8359 -1.4202
 6214SOL    HW219542   5.837   5.844   4.194  0.8331  0.5821  1.6252
 6215SOL     OW19543   3.401   3.794   4.996 -0.3700  0.7562 -0.6333
 6215SOL    HW119544   3.465   3.721   5.017 -0.9583  0.4105  0.0058
 6215SOL    HW219545   3.385   3.797   4.897  0.1292  0.4224 -0.7266
 6216SOL     OW19546   5.907   1.195   1.162  0.2890  0.2440  0.0480
 6216SOL    HW119547   5.917   1.289   1.130  0.0055  1.5428  3.3031
 6216SOL    HW219548   5.821   1.186   1.213  0.0047 -1.9957 -0.7171
 6217SOL     OW19549   0.769   3.647   2.824 -0.7931  0.0215  0.3957
 6217SOL    HW119550   0.671   3.665   2.812 -0.7548  1.6958  2.1014
 6217SOL    HW219551   0.820   3.694   2.752 -1.2814 -3.1641 -2.2620
 6218SOL     OW19552   3.335   4.521   6.879  0.2205  0.6390 -0.3521
 6218SOL    HW119553   3.351   4.519   6.978  1.6532 -0.2403 -0.5647
 6218SOL    HW219554   3.367   4.608   6.842 -1.5141  1.5160  0.0972
 6219SOL     OW19555   2.776   0.306   3.846 -0.1962 -0.2993  0.5162
 6219SOL    HW119556   2.800   0.229   3.788 -1.1391  0.6487 -1.1965
 6219SOL    HW219557   2.679   0.328   3.836 -0.1461  0.5749  1.6455
 6220SOL     OW19558   4.513   1.098   5.459  0.4834 -0.1620  0.0594
 6220SOL    HW119559   4.451   1.176   5.460 -1.3577 -1.5348 -0.7081
 6220SOL    HW219560   4.605   1.128   5.433 -0.4244  1.5715 -1.3364
 6221SOL     OW19561   6.765   6.386   5.841 -0.1861  0.5219 -0.2823
 6221SOL    HW119562   6.698   6.362   5.770 -0.6938 -2.2263  0.9813
 6221SOL    HW219563   6.719   6.391   5.930  1.1633 -1.2103  0.5804
 6222SOL     OW19564   6.225   6.756   3.727  0.1610  0.4847 -0.0128
 6222SOL    HW119565   6.244   6.836   3.671  1.4642 -0.2426 -0.6798
 6222SOL    HW219566   6.211   6.784   3.822 -1.1078  1.6404 -0.5114
 6223SOL     OW19567   1.468   6.867   2.369  0.0760  0.1175  0.7161
 6223SOL    HW119568   1.493   6.825   2.456  1.3510  0.2513  0.4418
 6223SOL    HW219569   1.401   6.810   2.322  1.1861 -1.2407  0.7023
 6224SOL     OW19570   4.926   2.118   5.624  0.2028 -0.5729  0.4377
 6224SOL    HW119571   4.960   2.167   5.704 -0.4552 -1.3499  1.1990
 6224SOL    HW219572   5.004   2.086   5.569  0.6479  1.2539 -0.0593
 6225SOL     OW19573   4.023   1.608   5.447 -0.4584  0.4199 -0.4301
 6225SOL    HW119574   3.947   1.672   5.434 -0.5860  0.4045  0.2046
 6225SOL    HW219575   3.987   1.516   5.461 -0.2665  0.1729 -1.5331
 6226SOL     OW19576   1.393   1.413   4.089 -0.1738  0.2818 -0.4977
 6226SOL    HW119577   1.464   1.466   4.135  1.0754  0.2525 -2.2776
 6226SOL    HW219578   1.316   1.473   4.066 -0.7772  0.3153  1.4424
 6227SOL     OW19579   0.876   5.134   3.903 -0.1226 -0.1852  0.2710
 6227SOL    HW119580   0.915   5.081   3.978  0.9166 -0.1720 -0.2408
 6227SOL    HW219581   0.824   5.210   3.940  0.4449 -0.1293  0.9859
 6228SOL     OW19582   1.708   2.211   4.326  0.3385 -0.1276 -0.6855
 6228SOL    HW119583   1.771   2.148   4.280 -0.8462 -1.3767 -0.6670
 6228SOL    HW219584   1.760   2.278   4.379  1.6333 -1.6459  0.0334
 6229SOL     OW19585   1.109   2.536   6.352 -0.0935 -0.4995 -0.3948
 6229SOL    HW119586   1.127   2.509   6.446  0.4451 -1.1502 -0.6723
 6229SOL    HW219587   1.143   2.628   6.336  0.8540 -0.8132 -0.2567
 6230SOL     OW19588   1.203   3.996   3.315  0.0488  0.5051  0.0500
 6230SOL    HW119589   1.185   3.987   3.413  1.5784 -0.4912  0.2665
 6230SOL    HW219590   1.200   4.093   3.290 -0.4089  0.7649  1.0648
 6231SOL     OW19591   5.708   5.053   1.296  0.3078  0.3578  0.2388
 6231SOL    HW119592   5.674   5.094   1.380  1.6456  3.2311 -0.5069
 6231SOL    HW219593   5.806   5.074   1.285  0.0135  0.7513 -2.3738
 6232SOL     OW19594   6.628   2.458   1.245 -0.3894  0.2226  0.0665
 6232SOL    HW119595   6.667   2.536   1.294 -1.4053 -0.1069  1.4682
 6232SOL    HW219596   6.627   2.477   1.147 -2.9099  3.0874  0.5189
 6233SOL     OW19597   1.584   3.972   2.195 -0.1025 -0.2922  0.6084
 6233SOL    HW119598   1.495   4.016   2.208 -0.0875 -0.2821  0.6755
 6233SOL    HW219599   1.657   4.040   2.208 -0.0822 -0.3189  0.6335
 6234SOL     OW19600   6.021   0.365   6.070 -1.0717 -0.5037 -0.0014
 6234SOL    HW119601   6.048   0.283   6.121  0.5794  0.0793  0.1247
 6234SOL    HW219602   5.955   0.417   6.125  2.1844  1.1931  2.7147
 6235SOL     OW19603   0.667   1.515   1.696  0.3982  0.0208  0.2469
 6235SOL    HW119604   0.632   1.592   1.749 -0.0438  0.1783 -0.2706
 6235SOL    HW219605   0.721   1.456   1.756 -0.5153 -0.0829  0.9964
 6236SOL     OW19606   6.068   3.991   1.220 -0.3522  0.6133  0.1763
 6236SOL    HW119607   6.096   3.908   1.172  0.4417  1.1741 -0.3349
 6236SOL    HW219608   6.031   4.057   1.154 -0.0191  1.0696  0.4447
 6237SOL     OW19609   1.823   0.183   0.292 -0.3070 -0.1832  0.2007
 6237SOL    HW119610   1.740   0.202   0.344  0.5663 -1.4003  2.1445
 6237SOL    HW219611   1.800   0.134   0.208 -1.6662  0.9593 -0.1345
 6238SOL     OW19612   2.435   6.644   3.706 -0.7713 -0.2476 -0.2486
 6238SOL    HW119613   2.368   6.675   3.638 -1.0822  0.2332  0.2712
 6238SOL    HW219614   2.418   6.548   3.727 -0.4142 -0.5184 -1.1494
 6239SOL     OW19615   5.110   2.101   2.358 -0.4387  0.1673  0.0799
 6239SOL    HW119616   5.160   2.070   2.277 -1.5849 -1.5610 -0.0171
 6239SOL    HW219617   5.132   2.044   2.436 -2.2395 -0.6885  0.0212
 6240SOL     OW19618   3.376   3.346   4.168 -0.6784  0.3991 -0.3233
 6240SOL    HW119619   3.333   3.416   4.111  0.6413  1.3310 -0.2141
 6240SOL    HW219620   3.371   3.373   4.264 -1.0822 -0.1724 -0.1795
 6241SOL     OW19621   5.265   5.987   5.231 -0.0820 -0.3099  0.1988
 6241SOL    HW119622   5.177   6.010   5.275 -1.2462 -1.2189 -1.5592
 6241SOL    HW219623   5.340   6.017   5.290 -1.5571 -0.1967  2.1239
 6242SOL     OW19624   3.363   1.253   3.632 -0.1339 -0.1642  0.1996
 6242SOL    HW119625   3.417   1.337   3.626  2.3542 -1.7092 -0.5093
 6242SOL    HW219626   3.424   1.175   3.643 -2.3833 -1.8978  1.2040
 6243SOL     OW19627   6.166   1.233   4.917  0.4658 -0.4365 -0.0038
 6243SOL    HW119628   6.095   1.223   4.848  1.4124  1.0301 -1.2711
 6243SOL    HW219629   6.247   1.181   4.890  0.8446  0.1518 -0.0257
 6244SOL     OW19630   5.278   4.206   3.958 -0.4347  0.1438  0.6238
 6244SOL    HW119631   5.356   4.266   3.944 -0.1176 -0.3111  0.4168
 6244SOL    HW219632   5.257   4.159   3.872 -0.3567 -0.4291  0.9163
 6245SOL     OW19633   1.348   5.769   1.265 -0.2422  0.2530  0.5401
 6245SOL    HW119634   1.387   5.728   1.183 -0.3636 -1.0424  1.0943
 6245SOL    HW219635   1.396   5.854   1.287 -0.0431  0.4737 -0.7114
 6246SOL     OW19636   1.395   2.627   5.759  0.4024  0.2083 -0.6394
 6246SOL    HW119637   1.308   2.581   5.779  0.9003 -0.0164  1.2281
 6246SOL    HW219638   1.391   2.667   5.667 -1.4614 -0.2682 -0.8168
 6247SOL     OW19639   1.549   0.258   2.519  0.3838  0.1903  0.3813
 6247SOL    HW119640   1.504   0.345   2.540  0.4783  0.5535 -0.8188
 6247SOL    HW219641   1.507   0.219   2.437 -0.1829 -1.2955  1.3470
 6248SOL     OW19642   2.880   5.490   5.939 -0.1881 -0.1657  0.3636
 6248SOL    HW119643   2.907   5.586   5.939 -1.0618  0.2370  4.0113
 6248SOL    HW219644   2.961   5.433   5.951  0.1831  0.2269 -0.2533
 6249SOL     OW19645   0.196   2.388   1.332 -0.0383  0.1735  0.2079
 6249SOL    HW119646   0.146   2.386   1.419 -0.2787 -0.9341  0.0573
 6249SOL    HW219647   0.145   2.338   1.263  0.2064  0.9605 -0.5535
 6250SOL     OW19648   0.840   6.552   1.147  0.0724 -0.1983 -0.0684
 6250SOL    HW119649   0.882   6.621   1.089  0.3280  0.0257  0.3764
 6250SOL    HW219650   0.742   6.572   1.159  0.2174  0.2874  0.3415
 6251SOL     OW19651   2.598   4.825   4.036  0.0547  0.2412  0.0166
 6251SOL    HW119652   2.531   4.844   3.965 -0.7157  0.9695  0.9174
 6251SOL    HW219653   2.623   4.910   4.083  1.1538 -0.1108  0.0991
 6252SOL     OW19654   2.209   4.460   7.023  0.5282  0.2346 -0.2071
 6252SOL    HW119655   2.219   4.543   7.077  1.6117  0.0330 -0.0690
 6252SOL    HW219656   2.122   4.462   6.973  1.2006  2.1659 -1.4282
 6253SOL     OW19657   3.459   6.932   2.965  0.3014  0.4090 -0.1642
 6253SOL    HW119658   3.468   7.029   2.989 -0.4957 -0.0551  2.3090
 6253SOL    HW219659   3.494   6.876   3.040 -0.4236 -1.2256 -0.9953
 6254SOL     OW19660   1.066   1.358   1.751  0.5002  0.3531  0.2255
 6254SOL    HW119661   0.969   1.346   1.734  1.1699 -3.4440 -1.9665
 6254SOL    HW219662   1.089   1.323   1.842 -0.1811  1.9750  1.0737
 6255SOL     OW19663   3.305   1.555   6.973 -0.3111 -0.4601  0.2673
 6255SOL    HW119664   3.264   1.514   6.892 -0.7645  0.0481  0.2347
 6255SOL    HW219665   3.306   1.488   7.048  0.4927 -1.0708 -0.2670
 6256SOL     OW19666   5.802   5.571   2.706 -0.3366  0.9988 -0.3283
 6256SOL    HW119667   5.765   5.505   2.640 -0.8127  0.3097  0.6023
 6256SOL    HW219668   5.900   5.554   2.718  0.3953  2.8965 -2.8800
 6257SOL     OW19669   4.693   3.128   0.534 -0.8633 -0.0463 -0.2815
 6257SOL    HW119670   4.781   3.087   0.509 -0.7495  0.2718 -0.4074
 6257SOL    HW219671   4.622   3.057   0.533 -0.3046 -0.6959  1.5990
 6258SOL     OW19672   3.242   1.574   4.864 -0.3606  0.0791 -0.0118
 6258SOL    HW119673   3.215   1.586   4.768 -3.6260 -1.9862  0.4948
 6258SOL    HW219674   3.228   1.660   4.913  0.3198  0.8632 -1.1262
 6259SOL     OW19675   2.119   1.516   5.736  0.2714  0.1817  0.3282
 6259SOL    HW119676   2.102   1.443   5.803 -1.1635  1.1127  1.0450
 6259SOL    HW219677   2.037   1.530   5.681  0.4638  1.3282  0.3034
 6260SOL     OW19678   1.461   0.100   2.265  0.0280 -0.4960 -0.1079
 6260SOL    HW119679   1.381   0.075   2.210 -0.1939  0.8978 -0.4620
 6260SOL    HW219680   1.507   0.017   2.297 -1.2695 -1.3237 -0.3124
 6261SOL     OW19681   4.277   5.316   1.242 -0.4065  0.2597  0.1171
 6261SOL    HW119682   4.266   5.398   1.299  0.0680  0.2637  0.2064
 6261SOL    HW219683   4.270   5.235   1.299 -0.3030  0.2539  0.1213
 6262SOL     OW19684   0.175   6.324   2.697 -0.1356  0.2129  0.8003
 6262SOL    HW119685   0.079   6.300   2.712 -0.0366 -0.8258 -0.0918
 6262SOL    HW219686   0.181   6.411   2.649 -0.8334 -1.4711 -2.6517
 6263SOL     OW19687   1.171   0.614   5.895  0.4308  0.6681  0.1261
 6263SOL    HW119688   1.152   0.687   5.962  0.2610  0.1421  0.6601
 6263SOL    HW219689   1.268   0.616   5.870  0.1093  2.1493 -1.1599
 6264SOL     OW19690   1.580   0.918   0.833 -0.1112 -0.6519 -1.0092
 6264SOL    HW119691   1.643   0.946   0.760  0.6672  1.4636  0.3803
 6264SOL    HW219692   1.633   0.880   0.909 -0.7516 -1.1439 -0.8060
 6265SOL     OW19693   4.333   1.831   5.728  0.1944  0.2160 -0.3437
 6265SOL    HW119694   4.410   1.780   5.690 -0.6022 -0.1645 -1.4807
 6265SOL    HW219695   4.250   1.776   5.722 -0.0360  0.2760  1.6611
 6266SOL     OW19696   4.397   6.924   3.651 -0.3245  0.0961  1.1786
 6266SOL    HW119697   4.431   7.017   3.641  0.1419 -0.2185 -0.4650
 6266SOL    HW219698   4.472   6.864   3.681  0.1845 -0.2588 -0.6596
 6267SOL     OW19699   1.547   1.265   6.921  0.4702  0.6824 -0.0113
 6267SOL    HW119700   1.556   1.253   7.020 -0.0118  0.0336 -0.0464
 6267SOL    HW219701   1.455   1.298   6.900 -0.1631 -1.2272 -0.4111
 6268SOL     OW19702   0.391   0.716   0.777  0.1640 -0.1125 -0.1803
 6268SOL    HW119703   0.369   0.620   0.794  2.4371 -0.4323  1.3414
 6268SOL    HW219704   0.341   0.773   0.843 -1.0159 -0.2376 -0.9421
 6269SOL     OW19705   4.320   5.008   2.099 -0.5961  0.3919  0.8225
 6269SOL    HW119706   4.409   4.975   2.132 -0.8822 -0.5034  0.7126
 6269SOL    HW219707   4.257   4.932   2.091 -2.5019  1.4141  4.1980
 6270SOL     OW19708   0.750   6.908   0.321  0.4045  0.0799 -0.1120
 6270SOL    HW119709   0.713   6.999   0.344 -0.5693  0.1675 -1.8378
 6270SOL    HW219710   0.835   6.919   0.271 -0.1785  0.0955 -1.1203
 6271SOL     OW19711   6.684   2.945   0.716 -0.4986 -0.1603 -0.2634
 6271SOL    HW119712   6.597   2.901   0.694 -0.2215  0.5153 -3.0988
 6271SOL    HW219713   6.743   2.880   0.764 -1.5491 -1.5588 -0.8025
 6272SOL     OW19714   0.267   1.430   0.441 -0.9869 -0.1019  0.5387
 6272SOL    HW119715   0.231   1.408   0.532 -2.0826 -0.0961  0.1154
 6272SOL    HW219716   0.240   1.524   0.416  2.6792  1.4842  1.8545
 6273SOL     OW19717   6.275   5.020   4.298 -0.5659  0.2450 -0.1183
 6273SOL    HW119718   6.238   5.096   4.246 -0.2182 -0.5526 -1.5909
 6273SOL    HW219719   6.291   4.942   4.237  1.6964 -0.0853  0.7895
 6274SOL     OW19720   2.154   0.577   6.506 -0.3798 -0.2392  0.1972
 6274SOL    HW119721   2.221   0.648   6.529  0.4322 -0.1128 -2.2329
 6274SOL    HW219722   2.090   0.612   6.437 -1.2630 -1.2231  0.4931
 6275SOL     OW19723   0.780   0.016   6.748  0.2055  0.3938 -0.3372
 6275SOL    HW119724   0.730   0.060   6.823  0.9884 -0.9226  1.0276
 6275SOL    HW219725   0.718  -0.044   6.697  0.1838 -0.7224  0.9340
 6276SOL     OW19726   4.488   5.700   4.751 -0.2302 -0.3243  0.2258
 6276SOL    HW119727   4.563   5.709   4.686 -0.8564  0.2903 -0.4279
 6276SOL    HW219728   4.403   5.682   4.702 -0.6755 -0.0802  0.8869
 6277SOL     OW19729   6.027   0.337   0.561  0.2206 -0.4993  0.0629
 6277SOL    HW119730   6.116   0.298   0.584 -0.0481  0.0660  2.2661
 6277SOL    HW219731   6.035   0.436   0.555 -0.1243 -0.5017 -0.5177
 6278SOL     OW19732   1.226   1.225   4.287 -0.0941 -0.1541 -0.1047
 6278SOL    HW119733   1.175   1.139   4.287 -1.3218  0.5488  0.0239
 6278SOL    HW219734   1.175   1.293   4.235  0.3448  0.7925  0.6807
 6279SOL     OW19735   4.763   5.200   1.718 -0.2880 -0.3050 -0.0088
 6279SOL    HW119736   4.786   5.241   1.630 -1.7977 -0.5532 -0.5382
 6279SOL    HW219737   4.831   5.130   1.741  0.4187  0.1378 -0.6962
 6280SOL     OW19738   6.673   0.038   6.256 -0.4892 -0.4694  0.2644
 6280SOL    HW119739   6.634   0.127   6.233 -2.6106 -1.4036  0.0229
 6280SOL    HW219740   6.667   0.022   6.354 -0.7880 -0.6508  0.2167
 6281SOL     OW19741   6.531   6.121   4.216 -0.2661 -0.3261  0.1034
 6281SOL    HW119742   6.505   6.052   4.148 -1.3994 -1.6082  1.7365
 6281SOL    HW219743   6.614   6.092   4.263 -0.2646 -0.1465  0.2132
 6282SOL     OW19744   6.427   2.770   6.109  0.0082  0.3284  0.4382
 6282SOL    HW119745   6.437   2.868   6.090  0.0540  0.5912  1.7664
 6282SOL    HW219746   6.441   2.719   6.024 -0.1158  1.4696 -0.2992
 6283SOL     OW19747   1.388   4.917   4.958  0.7170  0.1595  0.5216
 6283SOL    HW119748   1.330   4.986   5.000 -0.2962 -0.3930  0.0618
 6283SOL    HW219749   1.461   4.962   4.905  1.1855  0.8518  1.7179
 6284SOL     OW19750   0.287   5.861   6.274  0.5104 -0.1717 -0.6707
 6284SOL    HW119751   0.196   5.845   6.311 -0.0838  1.8825 -1.0904
 6284SOL    HW219752   0.282   5.935   6.206  2.6333  0.6626  0.0067
 6285SOL     OW19753   0.960   3.812   3.977 -0.5108 -0.5085 -0.7404
 6285SOL    HW119754   1.021   3.751   3.927 -0.4411 -0.6605 -0.4731
 6285SOL    HW219755   0.986   3.813   4.074 -0.0691  0.4971 -0.8649
 6286SOL     OW19756   0.692   2.796   4.305 -0.0821  0.1364  0.5253
 6286SOL    HW119757   0.643   2.882   4.318  1.2188  0.6409  2.5393
 6286SOL    HW219758   0.627   2.720   4.314 -0.9762  0.8317  0.2088
 6287SOL     OW19759   3.694   4.877   5.293  0.2411 -0.1517 -0.2120
 6287SOL    HW119760   3.751   4.958   5.282 -0.8521  0.6369 -0.2158
 6287SOL    HW219761   3.609   4.888   5.240 -0.2082 -1.0100  0.3055
 6288SOL     OW19762   4.132   3.775   1.111 -0.0085  0.0413  0.4336
 6288SOL    HW119763   4.107   3.690   1.064 -1.3046  0.7980 -0.3018
 6288SOL    HW219764   4.170   3.840   1.044 -0.3683  0.5508  0.7164
 6289SOL     OW19765   0.739   4.594   4.956 -0.3037 -0.3502  0.1420
 6289SOL    HW119766   0.775   4.680   4.920  1.1514 -0.5163  1.0975
 6289SOL    HW219767   0.641   4.604   4.974 -0.5157  0.5460 -1.3538
 6290SOL     OW19768   3.984   5.654   0.318  0.3622 -0.1149 -0.0008
 6290SOL    HW119769   4.072   5.648   0.271  1.0233  2.6525  0.7445
 6290SOL    HW219770   3.924   5.582   0.283  2.6544 -1.7100 -0.9797
 6291SOL     OW19771   3.104   3.061   4.160  0.1750 -0.0952 -0.2017
 6291SOL    HW119772   3.052   3.064   4.075  0.1363  1.6307 -0.1517
 6291SOL    HW219773   3.201   3.080   4.141  0.0262  1.2079  0.1976
 6292SOL     OW19774   3.582   0.890   4.489 -0.7611 -0.2587  0.0628
 6292SOL    HW119775   3.570   0.925   4.582 -1.0445  0.3818 -0.2052
 6292SOL    HW219776   3.619   0.963   4.431 -0.4242 -0.7061 -0.2878
 6293SOL     OW19777   4.564   2.057   0.554 -0.4769  0.4743 -0.7954
 6293SOL    HW119778   4.478   2.029   0.512 -1.1264 -0.1561  0.8927
 6293SOL    HW219779   4.586   1.997   0.630  1.9773  0.0401 -1.7580
 6294SOL     OW19780   3.784   0.723   3.381 -0.1228  0.2462  0.5691
 6294SOL    HW119781   3.882   0.712   3.393 -0.1390 -0.9139 -0.2696
 6294SOL    HW219782   3.736   0.664   3.446 -0.2468 -0.3997 -0.1002
 6295SOL     OW19783   5.694   5.010   5.991  0.0541 -0.1628  0.6196
 6295SOL    HW119784   5.740   4.999   6.080  1.2274 -0.6586 -0.0332
 6295SOL    HW219785   5.749   5.068   5.932  0.7543 -2.2019 -0.8013
 6296SOL     OW19786   0.746   2.768   5.510  0.1195 -0.6505  0.3505
 6296SOL    HW119787   0.660   2.783   5.461  0.1883 -0.4418  0.2912
 6296SOL    HW219788   0.733   2.791   5.606  0.4242  0.5483  0.1257
 6297SOL     OW19789   5.728   0.594   4.499 -0.0766  0.5053 -0.4510
 6297SOL    HW119790   5.729   0.647   4.583  0.0327 -0.6209  0.2730
 6297SOL    HW219791   5.691   0.503   4.517  0.0936  0.1926 -1.5916
 6298SOL     OW19792   6.650   3.407   5.520  0.0514 -0.2779 -0.2740
 6298SOL    HW119793   6.680   3.501   5.502  0.5533 -0.1117  1.3334
 6298SOL    HW219794   6.701   3.369   5.597 -1.4429 -1.2091  0.3017
 6299SOL     OW19795   6.762   3.293   2.991  0.1980  0.2303  0.8009
 6299SOL    HW119796   6.844   3.267   2.940 -0.1219  0.8572 -0.0522
 6299SOL    HW219797   6.783   3.370   3.051  0.4520 -0.2000  1.2795
 6300SOL     OW19798   5.829   0.480   5.665  0.3739 -0.6939 -0.1370
 6300SOL    HW119799   5.834   0.382   5.685 -3.0058 -1.2440 -1.2835
 6300SOL    HW219800   5.915   0.510   5.624  0.5726 -3.9316 -2.5247
 6301SOL     OW19801   2.912   5.453   0.559 -0.5964 -0.5506 -0.0513
 6301SOL    HW119802   2.946   5.448   0.653  0.3686 -1.2760 -0.4117
 6301SOL    HW219803   2.850   5.530   0.549  0.7249  0.6472  0.7433
 6302SOL     OW19804   1.714   1.450   4.901  0.0801  0.0881 -0.4193
 6302SOL    HW119805   1.661   1.370   4.873  1.3143 -0.9665  0.1740
 6302SOL    HW219806   1.795   1.458   4.844  0.1960  0.6600 -0.1782
 6303SOL     OW19807   0.941   6.640   4.725  0.1506 -0.0962 -0.8949
 6303SOL    HW119808   0.923   6.584   4.644  0.6485  0.4366 -1.3848
 6303SOL    HW219809   0.881   6.720   4.724 -0.6671 -0.6874 -0.1173
 6304SOL     OW19810   3.148   0.877   3.432  0.8808 -0.1092  0.1332
 6304SOL    HW119811   3.133   0.782   3.457  0.0948 -0.1567 -0.4744
 6304SOL    HW219812   3.102   0.896   3.345  0.0928  1.1144  0.7951
 6305SOL     OW19813   0.203   6.783   0.610 -0.1230 -0.0737  0.3686
 6305SOL    HW119814   0.278   6.750   0.553  0.3240  0.0920  0.8521
 6305SOL    HW219815   0.152   6.854   0.561  1.6922  1.7962  1.0082
 6306SOL     OW19816   0.059   4.977   3.524 -0.5635  0.3766 -0.2689
 6306SOL    HW119817   0.112   4.892   3.526  0.6567  1.0756 -1.5505
 6306SOL    HW219818   0.001   4.981   3.606 -0.3434 -1.4774  0.0283
 6307SOL     OW19819   3.275   4.057   4.296 -0.2255  0.1853  0.5809
 6307SOL    HW119820   3.252   4.032   4.202  0.3509 -0.9593  0.7319
 6307SOL    HW219821   3.338   4.135   4.295 -0.7785  0.6324  0.0493
 6308SOL     OW19822   1.583   4.142   6.021 -0.2766  0.4174 -0.0331
 6308SOL    HW119823   1.571   4.239   6.000 -0.6522  0.0481 -1.6264
 6308SOL    HW219824   1.669   4.128   6.069 -0.9822  1.7372  1.7404
 6309SOL     OW19825   1.542   0.155   4.042  0.1189  0.6274 -0.1320
 6309SOL    HW119826   1.614   0.207   4.088 -0.6073  1.0529  0.5474
 6309SOL    HW219827   1.508   0.084   4.103 -1.5560  1.8441  0.4191
 6310SOL     OW19828   4.160   6.118   4.213  0.2876 -0.2043 -0.8184
 6310SOL    HW119829   4.148   6.163   4.124 -0.8079  0.0434 -0.5623
 6310SOL    HW219830   4.217   6.174   4.272 -1.7304  1.3497 -0.2112
 6311SOL     OW19831   4.896   2.383   5.546  0.0593  0.0844  0.0670
 6311SOL    HW119832   4.901   2.287   5.572  0.4844  0.2924  0.7695
 6311SOL    HW219833   4.854   2.436   5.620  1.7630  0.7711  0.5799
 6312SOL     OW19834   1.717   0.690   5.541 -0.2101 -0.3774 -0.0235
 6312SOL    HW119835   1.653   0.754   5.584  0.3850 -0.0332  0.3755
 6312SOL    HW219836   1.673   0.645   5.463 -1.0271 -0.3715  0.4259
 6313SOL     OW19837   5.927   1.598   3.948  0.5632  0.1721  0.1942
 6313SOL    HW119838   5.984   1.680   3.942 -0.3370  0.7868 -0.1508
 6313SOL    HW219839   5.832   1.624   3.966 -0.1507 -0.6353 -2.0221
 6314SOL     OW19840   4.489   0.929   1.112 -0.0597 -0.0277  0.3458
 6314SOL    HW119841   4.418   0.878   1.063 -0.7461 -0.2051  1.4743
 6314SOL    HW219842   4.579   0.898   1.082 -0.4271  0.4469 -1.3669
 6315SOL     OW19843   2.121   3.394   5.275  0.0903 -0.5365  0.1341
 6315SOL    HW119844   2.210   3.352   5.290  1.2983  1.4678 -1.0279
 6315SOL    HW219845   2.119   3.438   5.185 -1.2215  1.4704  1.0642
 6316SOL     OW19846   4.321   1.305   0.996 -0.2781 -0.2224  0.2972
 6316SOL    HW119847   4.249   1.365   0.960 -0.1417  1.3409  2.4188
 6316SOL    HW219848   4.298   1.278   1.089  1.2933 -0.7092  0.5728
 6317SOL     OW19849   3.655   5.222   2.311  0.1766 -0.4929 -0.1920
 6317SOL    HW119850   3.632   5.127   2.291 -0.1254 -0.4367 -0.1199
 6317SOL    HW219851   3.626   5.280   2.235 -0.7613 -0.3084  0.2862
 6318SOL     OW19852   5.566   1.292   6.849  0.3680  0.4715 -0.1663
 6318SOL    HW119853   5.510   1.336   6.919 -0.3923  0.5715 -0.8281
 6318SOL    HW219854   5.508   1.240   6.787  0.9120  1.2639 -1.3714
 6319SOL     OW19855   4.892   3.106   4.380 -0.4119 -0.4403  0.3776
 6319SOL    HW119856   4.937   3.166   4.315 -1.0026  0.3168  0.6526
 6319SOL    HW219857   4.960   3.068   4.443  0.2397 -1.5906 -0.9644
 6320SOL     OW19858   5.966   1.037   3.290 -0.2884  0.1733 -0.5962
 6320SOL    HW119859   6.031   0.989   3.348 -1.7317 -1.4656 -0.2572
 6320SOL    HW219860   5.995   1.030   3.194  0.8490  0.8468 -0.3135
 6321SOL     OW19861   3.823   2.910   4.877  0.2832 -0.2493 -0.3546
 6321SOL    HW119862   3.857   2.816   4.884 -0.7442 -0.5333  1.3804
 6321SOL    HW219863   3.871   2.968   4.943 -0.8126 -0.1141  0.3412
 6322SOL     OW19864   3.430   6.851   5.940  0.3287  0.1083  0.1891
 6322SOL    HW119865   3.369   6.776   5.914 -0.6537  1.2447 -0.8980
 6322SOL    HW219866   3.497   6.866   5.868  0.8747 -0.0684  0.6525
 6323SOL     OW19867   1.107   3.078   1.705  0.0468 -0.2553  0.2676
 6323SOL    HW119868   1.068   3.166   1.679 -0.1414  0.0200  1.4556
 6323SOL    HW219869   1.050   3.035   1.774  0.0436 -1.4094 -0.4236
 6324SOL     OW19870   3.176   2.475   0.618 -0.1413  0.1682  0.0191
 6324SOL    HW119871   3.227   2.389   0.623  1.1611  0.9588  0.7196
 6324SOL    HW219872   3.215   2.541   0.682 -0.6891  1.5146 -0.9885
 6325SOL     OW19873   1.902   3.877   4.672 -0.0709  0.3540 -0.2485
 6325SOL    HW119874   1.973   3.948   4.668 -0.8693  1.3073  1.4212
 6325SOL    HW219875   1.945   3.788   4.688  0.8583  0.6478 -1.0098
 6326SOL     OW19876   6.203   5.925   4.776  0.9498 -0.3737 -0.1871
 6326SOL    HW119877   6.209   6.014   4.821  2.2406 -0.7468  0.4562
 6326SOL    HW219878   6.266   5.861   4.821 -0.4900 -1.8417 -0.1367
 6327SOL     OW19879   0.311   0.496   5.013  0.5735 -0.0833  0.4623
 6327SOL    HW119880   0.381   0.439   5.058  0.6612  1.2992  2.1853
 6327SOL    HW219881   0.263   0.549   5.082 -1.8101 -0.5343 -0.7556
 6328SOL     OW19882   4.823   2.507   5.810  0.5229 -0.2645  0.5318
 6328SOL    HW119883   4.783   2.588   5.766  1.9918 -0.8036 -2.0337
 6328SOL    HW219884   4.920   2.524   5.828  0.4616 -0.8844  1.4791
 6329SOL     OW19885   0.251   3.888   6.248  0.0172  0.3393 -0.0503
 6329SOL    HW119886   0.156   3.860   6.262  0.5695 -1.1697  0.8792
 6329SOL    HW219887   0.296   3.898   6.337  1.2068 -0.7487 -0.4968
 6330SOL     OW19888   4.610   0.580   1.404 -0.0459 -0.5769 -0.1461
 6330SOL    HW119889   4.596   0.669   1.449 -0.0234 -0.7505  0.2116
 6330SOL    HW219890   4.522   0.539   1.382 -0.0683 -0.6698  0.1054
 6331SOL     OW19891   6.452   1.553   5.113  0.2630 -0.4584  0.9187
 6331SOL    HW119892   6.512   1.539   5.192  2.3202 -1.6432 -0.7599
 6331SOL    HW219893   6.491   1.507   5.033 -3.5252 -2.4575 -0.0266
 6332SOL     OW19894   1.425   3.615   1.131 -0.5664 -0.2290  0.2135
 6332SOL    HW119895   1.474   3.559   1.064 -0.2000  0.5537 -0.1866
 6332SOL    HW219896   1.486   3.639   1.205 -0.8269 -0.6534  0.5726
 6333SOL     OW19897   5.194   6.619   0.811  0.3299 -0.2803  0.0624
 6333SOL    HW119898   5.260   6.686   0.845 -2.1304  1.0315  2.5896
 6333SOL    HW219899   5.206   6.533   0.860 -0.2107  0.1437  0.9449
 6334SOL     OW19900   2.415   1.226   0.549 -0.4477 -0.2003 -0.5870
 6334SOL    HW119901   2.435   1.184   0.460  1.4215  1.3439 -0.9613
 6334SOL    HW219902   2.459   1.173   0.621 -2.9284 -2.1358 -0.3616
 6335SOL     OW19903   2.570   0.500   1.752  0.3120  0.3124 -0.0036
 6335SOL    HW119904   2.648   0.501   1.814 -0.7184  1.5783  1.3700
 6335SOL    HW219905   2.516   0.584   1.766 -0.6306  0.0487 -1.7687
 6336SOL     OW19906   0.030   5.078   6.725  0.0978 -0.3787  0.2478
 6336SOL    HW119907   0.030   4.983   6.757 -1.4503 -0.1180  1.1412
 6336SOL    HW219908   0.005   5.139   6.801 -2.8349  0.3557 -1.1644
 6337SOL     OW19909   3.264   0.840   4.955 -0.6125 -0.1938 -0.0400
 6337SOL    HW119910   3.166   0.828   4.939 -0.5492  0.0406 -0.6043
 6337SOL    HW219911   3.293   0.927   4.916 -0.2524 -0.0802  0.4652
 6338SOL     OW19912   2.446   2.328   4.941  0.2112  0.0189  0.4989
 6338SOL    HW119913   2.498   2.412   4.929 -1.8208  1.4871  1.3480
 6338SOL    HW219914   2.462   2.291   5.032  0.4406 -0.0342  0.4370
 6339SOL     OW19915   0.094   3.206   4.875  0.5187  0.0949  0.2342
 6339SOL    HW119916   0.026   3.246   4.936  0.4239  1.3091 -0.6168
 6339SOL    HW219917   0.048   3.143   4.811  0.7767 -2.0612  2.0707
 6340SOL     OW19918   1.787   2.442   0.945 -0.8859  0.0005  0.3669
 6340SOL    HW119919   1.718   2.406   0.882  0.3997 -0.0019 -1.0787
 6340SOL    HW219920   1.850   2.369   0.971  0.3474  0.6358 -0.7368
 6341SOL     OW19921   5.886   2.032   2.554  0.9402  0.1039  1.0147
 6341SOL    HW119922   5.890   2.128   2.584  0.0637  0.2895  0.5733
 6341SOL    HW219923   5.940   2.021   2.471 -0.1314  0.5547  0.2346
 6342SOL     OW19924   1.846   7.009   6.690 -0.3747 -0.1824 -0.0328
 6342SOL    HW119925   1.868   7.000   6.593 -1.3686  1.7005 -0.4807
 6342SOL    HW219926   1.917   7.061   6.737 -0.8536  0.6508 -0.2039
 6343SOL     OW19927   4.406   0.309   6.010  0.7746  0.3899  0.3614
 6343SOL    HW119928   4.340   0.251   5.962 -0.1196  2.1127 -0.5900
 6343SOL    HW219929   4.456   0.254   6.078  0.7953 -1.7234 -1.2588
 6344SOL     OW19930   5.022   3.290   4.204 -0.0355 -0.2466  0.1301
 6344SOL    HW119931   4.977   3.370   4.163  2.3641  0.1545 -2.0135
 6344SOL    HW219932   5.026   3.216   4.137 -0.9545 -1.6906  1.6183
 6345SOL     OW19933   5.563   2.996   1.884 -0.1648  0.3337  0.1127
 6345SOL    HW119934   5.630   2.954   1.945 -0.2760  0.0484  0.0364
 6345SOL    HW219935   5.496   3.046   1.939  1.4880  2.7270  0.1170
 6346SOL     OW19936   5.213   4.681   6.213  0.0379 -0.8908  0.7476
 6346SOL    HW119937   5.194   4.598   6.265  0.1869 -1.4289 -0.0354
 6346SOL    HW219938   5.287   4.663   6.148  0.0863 -0.1338  0.5858
 6347SOL     OW19939   1.461   6.110   0.405 -0.0522 -0.3369  0.6782
 6347SOL    HW119940   1.407   6.129   0.488  0.6414  0.5016  0.9488
 6347SOL    HW219941   1.406   6.056   0.342 -1.5564  1.1956  0.5806
 6348SOL     OW19942   1.749   1.831   1.537  0.0062 -0.6909  0.0294
 6348SOL    HW119943   1.702   1.792   1.615 -2.1149  0.4771 -0.6031
 6348SOL    HW219944   1.730   1.776   1.455 -2.1859  0.9926 -0.6686
 6349SOL     OW19945   2.987   6.509   6.261  0.2814 -0.0038 -0.3793
 6349SOL    HW119946   3.003   6.532   6.357  0.5665  0.7287 -0.5980
 6349SOL    HW219947   3.053   6.440   6.232  0.3045 -0.1016 -0.1017
 6350SOL     OW19948   0.726   5.875   4.140 -0.5554  0.4038 -0.3057
 6350SOL    HW119949   0.815   5.874   4.184 -0.1531  0.2778 -1.1114
 6350SOL    HW219950   0.669   5.801   4.176  0.1225 -0.3221 -0.7123
 6351SOL     OW19951   5.657   4.427   3.332  0.2325 -0.0572 -0.3532
 6351SOL    HW119952   5.644   4.399   3.236  2.6359 -0.5114 -0.6291
 6351SOL    HW219953   5.705   4.515   3.335 -0.2170  0.1681  0.4424
 6352SOL     OW19954   1.937   1.453   2.868  0.3365 -0.3203 -0.3192
 6352SOL    HW119955   1.849   1.421   2.904 -0.5892 -0.5331 -2.5744
 6352SOL    HW219956   1.999   1.375   2.859  0.7353 -0.1932  1.1483
 6353SOL     OW19957   2.306   4.893   0.515 -0.5638  0.4156 -0.3498
 6353SOL    HW119958   2.332   4.980   0.473 -0.7680  0.3264 -0.6596
 6353SOL    HW219959   2.233   4.909   0.582 -0.9931  0.4053 -0.8106
 6354SOL     OW19960   4.312   5.467   2.915  0.9420  0.1971 -0.2262
 6354SOL    HW119961   4.360   5.555   2.909  0.8191  0.2689 -0.1708
 6354SOL    HW219962   4.215   5.481   2.896  0.9281  0.0681 -0.2442
 6355SOL     OW19963   3.401   5.816   0.434 -0.0452  0.0011  0.1487
 6355SOL    HW119964   3.469   5.806   0.507 -0.1575  2.2604  0.6235
 6355SOL    HW219965   3.385   5.913   0.416 -1.7777 -0.4965 -1.2661
 6356SOL     OW19966   4.338   6.874   0.280  0.5004  0.3441 -0.8428
 6356SOL    HW119967   4.325   6.956   0.224 -1.6070  0.5694 -0.1404
 6356SOL    HW219968   4.279   6.801   0.246  0.6914 -0.1486 -0.1389
 6357SOL     OW19969   5.769   1.559   1.251  0.3705  0.0754  0.4271
 6357SOL    HW119970   5.752   1.641   1.197  0.9132  0.0650  0.2280
 6357SOL    HW219971   5.715   1.483   1.215 -0.6936  0.5144  1.0669
 6358SOL     OW19972   6.536   2.168   0.378  1.0754 -0.5807  0.2220
 6358SOL    HW119973   6.480   2.232   0.430 -0.3355  0.2691 -2.1615
 6358SOL    HW219974   6.581   2.216   0.303 -0.3265 -2.3372 -1.8684
 6359SOL     OW19975   0.411   5.871   0.126  0.2459 -0.1574  0.6070
 6359SOL    HW119976   0.346   5.805   0.088  1.9516 -1.7282  0.2621
 6359SOL    HW219977   0.395   5.881   0.224 -0.3102 -0.7969  0.5885
 6360SOL     OW19978   5.608   3.620   4.694  0.3486 -0.1758 -0.1128
 6360SOL    HW119979   5.534   3.669   4.739 -0.3289 -1.3698  0.1058
 6360SOL    HW219980   5.582   3.525   4.679  2.4988 -1.1439  1.6458
 6361SOL     OW19981   6.823   6.716   1.123  0.0759  0.4316 -0.2967
 6361SOL    HW119982   6.913   6.673   1.116 -1.2016 -2.3137 -1.5562
 6361SOL    HW219983   6.778   6.713   1.034 -2.2448 -0.7257  0.8150
 6362SOL     OW19984   0.699   4.963   6.045 -0.1523 -0.2944  0.1513
 6362SOL    HW119985   0.626   4.912   5.999  1.6257 -2.6819 -0.1987
 6362SOL    HW219986   0.665   5.054   6.070 -2.6797 -0.6690 -1.5193
 6363SOL     OW19987   2.037   3.697   2.746  0.2340 -0.2715  0.7520
 6363SOL    HW119988   2.034   3.612   2.693  0.3012  0.2800 -0.1539
 6363SOL    HW219989   2.018   3.775   2.686  0.5754  0.3949  1.4867
 6364SOL     OW19990   2.538   2.369   5.449 -0.6002  0.7707 -0.2634
 6364SOL    HW119991   2.559   2.408   5.538 -4.3209  0.5669  0.8811
 6364SOL    HW219992   2.504   2.440   5.388 -4.0162  0.1562  0.6795
 6365SOL     OW19993   5.400   6.683   3.140 -0.2903  0.4397 -0.4724
 6365SOL    HW119994   5.466   6.757   3.151 -0.8227  0.8389  0.0705
 6365SOL    HW219995   5.343   6.676   3.222 -1.3104  0.4818 -1.1621
 6366SOL     OW19996   6.099   0.901   4.205  0.1934 -0.3927  0.5344
 6366SOL    HW119997   6.181   0.857   4.168 -0.2815 -0.3965 -0.5544
 6366SOL    HW219998   6.108   0.909   4.304  1.3827 -0.6525  0.4714
 6367SOL     OW19999   3.117   1.160   2.999 -0.6207  0.3932 -0.5168
 6367SOL    HW120000   3.203   1.160   3.051 -0.4698  0.1625 -0.7586
 6367SOL    HW220001   3.040   1.163   3.062 -0.4796 -1.5567 -0.1803
 6368SOL     OW20002   4.003   4.850   3.103  0.2345  0.2161 -0.4154
 6368SOL    HW120003   3.948   4.934   3.103 -1.3349 -0.7254 -2.0557
 6368SOL    HW220004   4.040   4.834   3.012  1.5037 -0.3000  0.1609
 6369SOL     OW20005   1.418   5.772   4.546  0.3659 -0.2065 -0.2834
 6369SOL    HW120006   1.375   5.735   4.463 -0.8275 -1.4678  0.8535
 6369SOL    HW220007   1.506   5.727   4.561  0.8773  0.4627 -1.1672
 6370SOL     OW20008   5.887   3.551   2.776  0.6869 -0.0066  0.0780
 6370SOL    HW120009   5.825   3.478   2.745  0.0073 -0.1959  1.8104
 6370SOL    HW220010   5.975   3.510   2.800 -0.1277 -0.5533  2.4017
 6371SOL     OW20011   5.119   3.227   2.442 -0.2749 -0.3198  0.2948
 6371SOL    HW120012   5.169   3.311   2.464 -0.8927 -0.0351  0.6325
 6371SOL    HW220013   5.083   3.233   2.349  0.3480 -0.5462  0.0325
 6372SOL     OW20014   6.950   2.543   2.066 -0.6126  0.1346  0.1411
 6372SOL    HW120015   7.039   2.509   2.038 -0.8015  0.0465 -0.3634
 6372SOL    HW220016   6.909   2.596   1.992 -1.5036 -0.8511 -0.0993
 6373SOL     OW20017   4.878   3.789   2.200 -0.1070  0.4426  0.0788
 6373SOL    HW120018   4.974   3.782   2.174 -0.1823 -0.1856 -0.0421
 6373SOL    HW220019   4.853   3.711   2.257 -0.6126  0.4768 -0.0915
 6374SOL     OW20020   2.611   2.079   1.967  0.3527  0.3297 -0.0196
 6374SOL    HW120021   2.710   2.090   1.957  0.1207  0.1999 -4.1557
 6374SOL    HW220022   2.563   2.149   1.913 -1.8297  0.0184  1.3883
 6375SOL     OW20023   1.660   1.999   0.506 -0.3671 -0.9918  0.3658
 6375SOL    HW120024   1.703   1.978   0.418  0.2576 -0.0889  0.4397
 6375SOL    HW220025   1.583   1.938   0.521  0.4171 -2.1404 -0.1281
 6376SOL     OW20026   3.476   2.949   5.656  0.2490  0.3494 -0.2993
 6376SOL    HW120027   3.509   2.860   5.687 -1.4507 -0.3994 -0.4954
 6376SOL    HW220028   3.395   2.936   5.598 -0.9371  2.0697  0.8540
 6377SOL     OW20029   6.778   2.194   3.792 -0.3052  0.3698 -0.1016
 6377SOL    HW120030   6.712   2.124   3.766  0.1719  0.2723 -1.1145
 6377SOL    HW220031   6.731   2.280   3.811 -0.8358 -0.0528  0.5408
 6378SOL     OW20032   3.164   6.993   3.826 -0.0011 -0.0085  0.8073
 6378SOL    HW120033   3.202   6.923   3.766  0.5509  1.0750 -0.1497
 6378SOL    HW220034   3.233   7.020   3.893  0.5132  1.0184 -0.0974
 6379SOL     OW20035   0.468   4.344   5.061  0.4390  0.4187 -0.2190
 6379SOL    HW120036   0.507   4.429   5.025  4.2422 -0.2551  1.8239
 6379SOL    HW220037   0.430   4.361   5.152 -0.2644  0.1877 -0.4614
 6380SOL     OW20038   6.504   3.275   6.114 -0.0716 -0.0626  0.1782
 6380SOL    HW120039   6.543   3.365   6.093  3.2346 -1.2229  0.6560
 6380SOL    HW220040   6.439   3.284   6.190  0.5986  1.8759  0.5954
 6381SOL     OW20041   2.512   2.751   0.178  0.0437 -0.3787 -0.3512
 6381SOL    HW120042   2.432   2.810   0.188 -1.1361 -2.1722  1.7202
 6381SOL    HW220043   2.483   2.660   0.148  1.2117 -1.1928  0.8654
 6382SOL     OW20044   3.097   1.649   0.107 -0.2103  0.2632  0.0711
 6382SOL    HW120045   3.054   1.562   0.131 -2.0572  1.3611  0.8861
 6382SOL    HW220046   3.172   1.632   0.042 -1.4253 -1.7899 -0.8972
 6383SOL     OW20047   3.012   2.202   1.361 -0.5276 -0.1655  0.3501
 6383SOL    HW120048   3.057   2.209   1.450 -0.8898 -1.7042  0.6805
 6383SOL    HW220049   2.913   2.211   1.373 -0.5941 -0.5826  0.1434
 6384SOL     OW20050   6.583   0.704   2.224 -0.3527 -0.4162 -0.2073
 6384SOL    HW120051   6.618   0.698   2.317  3.2280 -0.8470 -1.4281
 6384SOL    HW220052   6.543   0.616   2.197  1.1270 -1.2020  0.0668
 6385SOL     OW20053   5.152   3.748   2.188 -0.1264  0.0135  0.1538
 6385SOL    HW120054   5.116   3.694   2.263 -2.0303  0.1637 -0.5997
 6385SOL    HW220055   5.250   3.766   2.203 -0.7307  1.2618  3.3105
 6386SOL     OW20056   1.741   3.306   0.432  0.1532  0.0033 -0.0815
 6386SOL    HW120057   1.779   3.213   0.429 -0.5313 -0.3235  0.9739
 6386SOL    HW220058   1.754   3.345   0.523  1.0825  1.2502 -0.7111
 6387SOL     OW20059   5.775   1.316   2.190 -0.1531  0.0640 -0.1507
 6387SOL    HW120060   5.688   1.315   2.141  0.8817 -1.0676 -2.1139
 6387SOL    HW220061   5.845   1.360   2.134  1.2237 -1.7979  0.0019
 6388SOL     OW20062   5.424   5.354   3.121 -0.4108 -0.5797 -0.2533
 6388SOL    HW120063   5.360   5.293   3.167 -0.4462 -0.0517  0.4127
 6388SOL    HW220064   5.387   5.448   3.122  0.5611 -0.1890  0.5401
 6389SOL     OW20065   2.067   0.997   3.088 -0.0728 -0.2923 -0.4862
 6389SOL    HW120066   2.084   0.899   3.100  1.2413  0.1119  1.2799
 6389SOL    HW220067   1.989   1.024   3.146  0.8841  0.0587  0.6849
 6390SOL     OW20068   6.376   2.141   0.054 -0.6373 -0.3002 -0.1092
 6390SOL    HW120069   6.468   2.151   0.090 -0.8782  0.1893  0.3828
 6390SOL    HW220070   6.370   2.183  -0.037 -0.4015 -0.2401 -0.0955
 6391SOL     OW20071   1.499   1.797   0.550 -0.0574 -0.4249  0.7376
 6391SOL    HW120072   1.560   1.736   0.600 -0.4446 -1.0564  0.4464
 6391SOL    HW220073   1.433   1.743   0.497  0.6481  0.1854 -0.8468
 6392SOL     OW20074   2.363   0.343   4.263  0.1645 -0.5443 -0.0620
 6392SOL    HW120075   2.342   0.439   4.247  0.5007 -0.1580  1.6169
 6392SOL    HW220076   2.280   0.295   4.292  0.1637 -0.5723 -0.1113
 6393SOL     OW20077   6.399   4.614   1.642  0.3626  0.3266 -0.1571
 6393SOL    HW120078   6.488   4.621   1.596  0.3155  1.7538 -0.0837
 6393SOL    HW220079   6.329   4.590   1.575  0.4986  1.1640 -0.6219
 6394SOL     OW20080   1.381   5.336   0.847  0.7046  0.3973 -0.1185
 6394SOL    HW120081   1.318   5.260   0.831 -0.4466  1.5580 -1.3909
 6394SOL    HW220082   1.436   5.317   0.928 -0.2493 -1.3287  0.1778
 6395SOL     OW20083   6.816   2.047   2.763 -0.1638 -0.1180  0.0471
 6395SOL    HW120084   6.764   2.095   2.832  0.8068 -0.4651  1.0469
 6395SOL    HW220085   6.893   2.103   2.733 -2.1719  1.2729 -2.9365
 6396SOL     OW20086   5.800   4.616   0.833 -0.0192 -0.2265 -0.0216
 6396SOL    HW120087   5.810   4.605   0.734 -0.9422 -2.7053  0.1075
 6396SOL    HW220088   5.715   4.666   0.853 -0.0735 -0.1454 -0.4473
 6397SOL     OW20089   0.291   0.747   1.635  0.1143  0.0824  0.0915
 6397SOL    HW120090   0.293   0.658   1.681  1.2351  0.0230 -0.0441
 6397SOL    HW220091   0.371   0.755   1.575 -1.7989 -0.2610 -2.6847
 6398SOL     OW20092   1.708   0.940   1.572  0.2614  0.2965 -0.3373
 6398SOL    HW120093   1.780   0.990   1.524  1.0871 -0.2928  0.2487
 6398SOL    HW220094   1.738   0.921   1.666 -0.1239 -1.0688 -0.4696
 6399SOL     OW20095   1.293   6.434   5.433  0.6547  0.6164  0.3478
 6399SOL    HW120096   1.250   6.493   5.366  1.8039  1.4886  0.3530
 6399SOL    HW220097   1.223   6.383   5.483 -0.2314  0.1488 -1.3012
 6400SOL     OW20098   0.784   0.223   3.113 -0.0772  0.0354  0.0721
 6400SOL    HW120099   0.731   0.288   3.167 -0.6374 -1.1221  0.9606
 6400SOL    HW220100   0.871   0.265   3.085 -1.8713  2.4451 -2.5043
 6401SOL     OW20101   5.421   0.402   3.987 -0.7481  0.7591  0.0057
 6401SOL    HW120102   5.341   0.443   3.943 -0.4426  0.9005 -0.4208
 6401SOL    HW220103   5.393   0.356   4.071 -1.4848 -0.2813 -0.7896
 6402SOL     OW20104   0.189   4.329   3.938 -0.7860 -0.1753 -0.1277
 6402SOL    HW120105   0.166   4.330   3.840  0.9535  0.0879 -0.5613
 6402SOL    HW220106   0.151   4.410   3.981 -0.0090  0.6786 -0.9935
 6403SOL     OW20107   4.695   6.926   5.875 -0.4107 -0.1725  0.0083
 6403SOL    HW120108   4.627   6.853   5.865  0.1205 -0.6085 -0.4348
 6403SOL    HW220109   4.707   6.973   5.788  1.6103 -1.6659 -0.5846
 6404SOL     OW20110   2.868   2.148   2.105 -0.3596  0.5900  0.3554
 6404SOL    HW120111   2.874   2.232   2.051 -0.4569 -0.6169 -1.6329
 6404SOL    HW220112   2.957   2.103   2.107 -0.6641 -0.0436  0.0557
 6405SOL     OW20113   3.984   0.352   2.728 -0.3599 -0.2350 -0.0691
 6405SOL    HW120114   4.064   0.390   2.774 -1.0487 -0.2341  1.1721
 6405SOL    HW220115   3.915   0.327   2.796 -2.0321  1.1562 -1.1535
 6406SOL     OW20116   6.448   1.856   1.936  0.3586  0.2351 -0.3221
 6406SOL    HW120117   6.472   1.884   1.843 -0.6673  1.1141 -0.3394
 6406SOL    HW220118   6.492   1.917   2.002  0.4235  0.1268 -0.2662
 6407SOL     OW20119   2.464   0.835   2.058 -0.4505 -0.4344  0.5417
 6407SOL    HW120120   2.545   0.844   2.115 -1.3676 -0.4474  1.8845
 6407SOL    HW220121   2.382   0.831   2.116 -1.3978 -0.6576 -0.7642
 6408SOL     OW20122   6.907   1.044   1.696  0.0638  0.0278  0.0202
 6408SOL    HW120123   6.823   1.099   1.688 -1.7768 -2.0794  2.8103
 6408SOL    HW220124   6.964   1.081   1.769  0.9777  0.6513 -0.9726
 6409SOL     OW20125   6.973   6.013   1.495 -0.0166 -0.5120 -0.3296
 6409SOL    HW120126   7.069   5.989   1.479  0.1963  0.6628 -1.0146
 6409SOL    HW220127   6.965   6.062   1.582 -0.0962 -1.1173  0.0080
 6410SOL     OW20128   3.786   0.521   6.608 -0.0045  0.6281 -0.3159
 6410SOL    HW120129   3.687   0.518   6.597  0.0321  1.1340 -0.8413
 6410SOL    HW220130   3.810   0.585   6.680 -0.0132  1.5368 -1.0946
 6411SOL     OW20131   6.701   3.355   1.028 -0.0902  0.0183 -0.6307
 6411SOL    HW120132   6.691   3.306   1.115  2.4187 -2.0027 -1.3632
 6411SOL    HW220133   6.619   3.341   0.972 -1.3566  0.6081  1.0111
 6412SOL     OW20134   3.081   0.004   5.683  0.3773 -0.0708  0.3161
 6412SOL    HW120135   2.990   0.038   5.660  0.1009 -1.5448 -0.9144
 6412SOL    HW220136   3.127  -0.027   5.600  1.1656 -1.3293  1.2008
 6413SOL     OW20137   4.294   4.672   4.047  0.2238  0.2540  0.1040
 6413SOL    HW120138   4.216   4.734   4.038  1.4635  1.8422 -0.1517
 6413SOL    HW220139   4.317   4.635   3.957  0.7124  1.0125 -0.0912
 6414SOL     OW20140   7.018   4.225   6.167 -0.6803  0.1502  0.6238
 6414SOL    HW120141   7.080   4.290   6.124  0.2291 -1.2109 -0.1963
 6414SOL    HW220142   6.924   4.255   6.153 -0.3970  0.0472 -1.8875
 6415SOL     OW20143   0.250   3.503   5.577  0.1370 -0.3057  0.7175
 6415SOL    HW120144   0.199   3.427   5.619 -3.3793  1.8696  0.7664
 6415SOL    HW220145   0.259   3.486   5.479  0.9879 -1.5610  0.9868
 6416SOL     OW20146   3.139   2.119   0.317 -0.4386 -0.1660  0.6279
 6416SOL    HW120147   3.147   2.207   0.364  1.9181  0.0421 -0.0512
 6416SOL    HW220148   3.162   2.045   0.380  1.4170  0.0209  0.2201
 6417SOL     OW20149   5.096   2.878   0.284  0.1718 -0.0752  0.1817
 6417SOL    HW120150   5.154   2.884   0.203  0.1432  0.8547  0.2275
 6417SOL    HW220151   5.152   2.883   0.366 -0.0301  1.9351  0.2431
 6418SOL     OW20152   5.332   4.892   2.181  0.1281  0.0836 -0.0469
 6418SOL    HW120153   5.315   4.812   2.239 -0.7698  0.7538  0.6378
 6418SOL    HW220154   5.413   4.875   2.125  1.1402 -0.5026  1.5212
 6419SOL     OW20155   0.422   6.969   4.368 -0.0712  0.5834  0.1519
 6419SOL    HW120156   0.421   7.062   4.404  0.9553  1.8948 -2.9163
 6419SOL    HW220157   0.339   6.953   4.315  0.2420  0.1054 -0.2003
 6420SOL     OW20158   1.845   2.173   2.548 -0.5496 -0.2210  0.1011
 6420SOL    HW120159   1.809   2.085   2.579 -2.6303 -0.0453 -1.5626
 6420SOL    HW220160   1.863   2.169   2.449  1.8317  0.4842  0.4335
 6421SOL     OW20161   3.996   0.870   6.204 -0.5306  0.0645 -0.4711
 6421SOL    HW120162   3.958   0.803   6.268  0.4483  0.9858  1.1268
 6421SOL    HW220163   3.925   0.934   6.177 -0.9042 -0.2009 -0.1328
 6422SOL     OW20164   6.515   2.905   0.261  0.1021  0.9333  0.4086
 6422SOL    HW120165   6.482   2.919   0.167  1.5097  1.0487 -0.0945
 6422SOL    HW220166   6.607   2.866   0.258 -0.4150 -0.4818  1.7659
 6423SOL     OW20167   5.813   4.033   5.651 -0.1353  0.2602  0.3045
 6423SOL    HW120168   5.860   3.949   5.623  1.2501  0.7810  0.9728
 6423SOL    HW220169   5.873   4.085   5.711 -0.9885  1.7175 -0.0823
 6424SOL     OW20170   1.823   4.389   4.270 -0.2401  0.2136 -0.1797
 6424SOL    HW120171   1.911   4.401   4.317 -0.1742 -0.8987  0.0100
 6424SOL    HW220172   1.831   4.422   4.177  0.1602  0.8151  0.0638
 6425SOL     OW20173   5.477   3.637   2.488  0.1879 -0.3439  0.3799
 6425SOL    HW120174   5.440   3.569   2.551 -0.9799 -0.9370 -0.8989
 6425SOL    HW220175   5.575   3.649   2.506 -0.0138 -0.8615  1.9421
 6426SOL     OW20176   4.507   0.129   3.735 -0.1906 -0.0421  0.4147
 6426SOL    HW120177   4.488   0.217   3.692 -0.4859  0.4612  1.5206
 6426SOL    HW220178   4.470   0.129   3.828 -1.0446 -1.6911  0.1175
 6427SOL     OW20179   2.962   3.851   2.435  0.4780 -0.4161 -0.0935
 6427SOL    HW120180   2.890   3.889   2.377  1.7092  0.6822 -0.9627
 6427SOL    HW220181   2.953   3.887   2.528 -0.0377 -0.2109 -0.2207
 6428SOL     OW20182   6.905   2.952   0.903 -0.0465 -0.0413 -0.1810
 6428SOL    HW120183   6.818   2.998   0.918  0.4145  0.2343  2.1029
 6428SOL    HW220184   6.978   3.020   0.895  0.2360 -0.2975  0.1600
 6429SOL     OW20185   2.586   1.236   5.551 -0.3529  0.1802 -0.2620
 6429SOL    HW120186   2.504   1.201   5.505  0.0313 -1.0471 -0.0401
 6429SOL    HW220187   2.637   1.294   5.487 -0.6617 -0.1948 -0.8558
 6430SOL     OW20188   6.334   0.121   6.228 -0.1985  0.3332 -0.3430
 6430SOL    HW120189   6.266   0.130   6.301 -1.8994 -0.4729 -1.7538
 6430SOL    HW220190   6.402   0.193   6.237  0.0434 -0.1268  2.4010
 6431SOL     OW20191   5.344   0.857   3.508 -0.2351  0.1945  0.2384
 6431SOL    HW120192   5.381   0.790   3.572 -0.9409 -0.1632  0.2848
 6431SOL    HW220193   5.406   0.935   3.501  0.2208 -0.1171  0.7694
 6432SOL     OW20194   3.718   3.796   6.024  0.1660  0.5883  0.0477
 6432SOL    HW120195   3.685   3.860   5.955 -0.8214  0.2753  0.2072
 6432SOL    HW220196   3.721   3.841   6.113 -0.7501  0.3670  0.2020
 6433SOL     OW20197   4.332   3.332   0.614 -0.1872 -0.8732  0.0581
 6433SOL    HW120198   4.341   3.313   0.516 -1.0515 -1.2689  0.0464
 6433SOL    HW220199   4.355   3.427   0.631 -0.3638 -0.7072 -0.5861
 6434SOL     OW20200   0.387   1.193   5.905  0.6001 -0.4353  1.1950
 6434SOL    HW120201   0.306   1.220   5.853  4.1200  2.2677 -3.7326
 6434SOL    HW220202   0.404   1.095   5.892  0.2812 -0.2183 -1.4473
 6435SOL     OW20203   4.384   1.178   2.088 -0.3096 -0.3074 -0.3359
 6435SOL    HW120204   4.342   1.213   2.172 -0.9915  3.1682 -1.9421
 6435SOL    HW220205   4.317   1.183   2.013  0.7752 -1.7381 -1.4364
 6436SOL     OW20206   6.885   3.824   3.864 -0.0455  0.2405 -0.3170
 6436SOL    HW120207   6.919   3.731   3.849 -0.8783 -0.2424  0.5966
 6436SOL    HW220208   6.924   3.886   3.796  2.3027 -0.3253  0.4210
 6437SOL     OW20209   2.515   1.713   6.406 -0.0619 -0.7290  0.0679
 6437SOL    HW120210   2.522   1.614   6.413  0.2827 -0.7790 -0.8991
 6437SOL    HW220211   2.568   1.755   6.480 -1.4016 -1.2619  1.3761
 6438SOL     OW20212   0.225   3.036   6.710  0.1280  0.3085 -0.0186
 6438SOL    HW120213   0.176   3.063   6.793 -0.7713 -3.8762  1.0739
 6438SOL    HW220214   0.300   2.973   6.735  1.1192  0.4929 -2.2679
 6439SOL     OW20215   6.449   0.555   2.976  0.4056  0.2732  0.1580
 6439SOL    HW120216   6.523   0.539   2.912  0.7093  0.9657  0.3241
 6439SOL    HW220217   6.392   0.473   2.983 -0.6124  0.6951 -2.2276
 6440SOL     OW20218   4.118   1.370   5.700 -0.4608 -0.0527 -0.0175
 6440SOL    HW120219   4.066   1.365   5.785 -0.0769 -0.0086  0.2219
 6440SOL    HW220220   4.057   1.352   5.622 -1.0635  1.0655  0.1768
 6441SOL     OW20221   1.211   6.630   1.067  0.0898  0.2399 -0.1539
 6441SOL    HW120222   1.290   6.679   1.105 -0.1666  0.0608  0.6406
 6441SOL    HW220223   1.137   6.694   1.049 -0.0928  0.2205  0.4822
 6442SOL     OW20224   3.402   1.424   0.382 -0.1826 -0.1849 -0.0724
 6442SOL    HW120225   3.363   1.406   0.292  0.3896 -1.9189 -0.0032
 6442SOL    HW220226   3.352   1.372   0.452 -0.2789  0.7228  0.5607
 6443SOL     OW20227   2.961   2.664   5.380  0.2739  0.0640  0.4118
 6443SOL    HW120228   2.975   2.570   5.350 -1.0505 -0.2345  0.6819
 6443SOL    HW220229   3.021   2.725   5.329  0.9400 -0.8877  0.0345
 6444SOL     OW20230   0.471   2.316   4.467  0.1390  0.0003 -0.4429
 6444SOL    HW120231   0.567   2.294   4.487  0.0789  0.8870  0.9966
 6444SOL    HW220232   0.431   2.364   4.546 -1.1990  0.5593 -1.4276
 6445SOL     OW20233   4.025   3.898   2.975 -0.1921 -0.2117 -0.2415
 6445SOL    HW120234   3.945   3.918   3.032  0.3436 -1.0751  0.8673
 6445SOL    HW220235   4.081   3.980   2.967 -0.7951  0.1947 -0.3782
 6446SOL     OW20236   0.794   2.699   6.895 -0.1919 -0.6161 -0.2358
 6446SOL    HW120237   0.742   2.728   6.815 -1.7847 -1.1087  0.5852
 6446SOL    HW220238   0.758   2.612   6.930 -0.9384  0.5773  2.2290
 6447SOL     OW20239   6.589   5.613   2.324  0.0281 -0.0584 -0.2028
 6447SOL    HW120240   6.639   5.683   2.375  0.6634 -0.1421 -0.7049
 6447SOL    HW220241   6.613   5.522   2.360 -0.6677 -0.0363  0.3370
 6448SOL     OW20242   6.090   5.102   0.726 -0.1017  0.2802 -0.4594
 6448SOL    HW120243   6.022   5.169   0.695  0.1052  0.8943  0.3851
 6448SOL    HW220244   6.059   5.061   0.812  0.8955  1.0585  0.2962
 6449SOL     OW20245   3.565   5.663   1.442  0.1085  0.3697  0.8174
 6449SOL    HW120246   3.520   5.604   1.375 -0.0918  0.8637  0.5089
 6449SOL    HW220247   3.617   5.607   1.507  0.3758 -0.1082  0.2009
 6450SOL     OW20248   0.439   3.083   0.532  0.1629  0.1434 -0.2330
 6450SOL    HW120249   0.514   3.030   0.572  0.0293 -0.0025 -0.1715
 6450SOL    HW220250   0.433   3.172   0.577  1.4272  0.8699 -1.4505
 6451SOL     OW20251   3.510   2.059   5.700 -0.6644 -0.6992 -0.4434
 6451SOL    HW120252   3.421   2.044   5.745 -0.6350  1.8530  0.6393
 6451SOL    HW220253   3.497   2.117   5.620  0.1785  1.5728  0.9613
 6452SOL     OW20254   4.487   5.037   3.025  0.2696  0.1925  0.3721
 6452SOL    HW120255   4.507   5.131   3.053  1.8463 -0.2757  0.9095
 6452SOL    HW220256   4.399   5.008   3.065 -0.2340  1.4210  0.1926
 6453SOL     OW20257   1.173   1.691   2.500  0.1410  0.4635 -0.4333
 6453SOL    HW120258   1.179   1.771   2.560  1.9044 -1.1537  1.7062
 6453SOL    HW220259   1.078   1.662   2.493 -0.4756  2.4234 -0.8795
 6454SOL     OW20260   6.967   0.810   0.533  0.2896  0.1444  0.5507
 6454SOL    HW120261   6.880   0.814   0.582  0.6080 -1.2745  1.2729
 6454SOL    HW220262   7.038   0.858   0.586  0.3427 -0.2513  0.8378
 6455SOL     OW20263   0.136   1.982   4.378  0.3692  0.2222  0.1502
 6455SOL    HW120264   0.233   1.999   4.395  0.4619 -0.2100  0.0685
 6455SOL    HW220265   0.127   1.916   4.304  0.0636 -1.0700  1.2950
 6456SOL     OW20266   2.757   1.531   2.065 -0.4625  0.1118  0.5321
 6456SOL    HW120267   2.713   1.621   2.069  0.4522  0.5227  3.2568
 6456SOL    HW220268   2.758   1.491   2.156  2.1513 -1.1996  0.0097
 6457SOL     OW20269   3.374   0.032   1.133 -0.0425 -0.2418  0.0456
 6457SOL    HW120270   3.407  -0.034   1.202 -0.3713 -0.1474  0.2953
 6457SOL    HW220271   3.433   0.112   1.134  0.3615 -0.5308 -0.2608
 6458SOL     OW20272   2.087   5.332   4.987 -0.4311  0.1071  0.4230
 6458SOL    HW120273   2.020   5.405   4.978 -0.9371 -0.3263  0.6270
 6458SOL    HW220274   2.040   5.246   5.006  0.2989  0.2346  3.3039
 6459SOL     OW20275   6.878   1.010   2.590 -0.0894  0.1105  0.1070
 6459SOL    HW120276   6.841   0.990   2.680  1.8890 -1.5248  0.6407
 6459SOL    HW220277   6.869   0.929   2.532  1.3575  0.1071 -0.1588
 6460SOL     OW20278   4.808   6.233   5.443  0.0328  0.1029  0.3561
 6460SOL    HW120279   4.799   6.300   5.517 -1.9116  0.6336 -0.3006
 6460SOL    HW220280   4.743   6.255   5.370 -1.1902 -2.8813  0.3978
 6461SOL     OW20281   3.248   3.215   0.357 -0.2365  0.4426  0.4344
 6461SOL    HW120282   3.164   3.184   0.401  0.4480  0.6667  1.9687
 6461SOL    HW220283   3.264   3.311   0.379  0.8277  0.1849  0.8511
 6462SOL     OW20284   0.827   2.823   6.483  0.2129  0.1302  0.2796
 6462SOL    HW120285   0.912   2.874   6.478  1.2384 -1.4677  0.6798
 6462SOL    HW220286   0.829   2.747   6.419 -0.5323 -0.4661  0.9340
 6463SOL     OW20287   5.536   6.535   0.197  0.3126  0.4122  0.6059
 6463SOL    HW120288   5.592   6.552   0.116 -0.8440 -0.9847 -0.5446
 6463SOL    HW220289   5.523   6.437   0.209 -1.8471  0.6645  0.8133
 6464SOL     OW20290   1.524   4.417   5.977 -0.1649 -0.3438  0.1015
 6464SOL    HW120291   1.578   4.457   6.051 -0.0051 -1.7051  0.7502
 6464SOL    HW220292   1.583   4.398   5.898 -0.0033 -0.3973  0.2353
 6465SOL     OW20293   1.248   2.865   3.762  0.0929 -0.3162  0.3968
 6465SOL    HW120294   1.324   2.844   3.701 -1.3968 -2.0413 -0.9819
 6465SOL    HW220295   1.172   2.803   3.743 -2.6440  2.8937 -0.0668
 6466SOL     OW20296   4.478   2.477   5.976 -0.1465 -0.2823  0.2369
 6466SOL    HW120297   4.556   2.482   6.039 -0.6804 -0.4664  0.9273
 6466SOL    HW220298   4.428   2.392   5.992 -0.8923  0.1606  0.2871
 6467SOL     OW20299   2.990   5.994   0.468  0.1181  0.2815  0.0904
 6467SOL    HW120300   3.070   6.020   0.523 -0.2097 -0.2192  0.8131
 6467SOL    HW220301   3.019   5.933   0.395  0.4627  0.4407  0.0891
 6468SOL     OW20302   2.004   0.401   1.279 -0.1136  1.2385  0.3671
 6468SOL    HW120303   1.943   0.424   1.355 -0.7777  1.9601 -0.3692
 6468SOL    HW220304   2.022   0.302   1.279  0.1106  1.2652  1.6085
 6469SOL     OW20305   2.234   0.147   5.756 -0.1920 -0.4249 -0.4537
 6469SOL    HW120306   2.285   0.140   5.841 -1.0340  1.4283  0.2435
 6469SOL    HW220307   2.137   0.126   5.773 -0.8255  2.2320 -0.3911
 6470SOL     OW20308   5.473   3.955   4.883 -0.0491  0.0715 -1.2548
 6470SOL    HW120309   5.413   4.028   4.916  1.7783  0.0368  2.7135
 6470SOL    HW220310   5.418   3.883   4.842 -2.6668  0.6209  0.9785
 6471SOL     OW20311   0.744   6.315   4.818  0.3899  0.5081  0.5082
 6471SOL    HW120312   0.827   6.367   4.797  1.6739 -1.9127 -0.9436
 6471SOL    HW220313   0.751   6.277   4.910  1.1225 -0.0389  0.2377
 6472SOL     OW20314   4.741   4.868   3.261 -0.4377 -0.3604  0.5151
 6472SOL    HW120315   4.746   4.798   3.332  1.1590  0.3270  1.1405
 6472SOL    HW220316   4.734   4.825   3.172  1.0052 -1.3669  0.8581
 6473SOL     OW20317   1.893   0.979   5.974 -0.2168  0.5967 -0.8530
 6473SOL    HW120318   1.885   1.043   6.050  2.0586 -0.2103  0.1520
 6473SOL    HW220319   1.934   1.025   5.895  0.3373  0.6890 -0.5200
 6474SOL     OW20320   2.850   5.783   4.657 -0.1847  0.6446  0.7245
 6474SOL    HW120321   2.769   5.834   4.628 -0.1417 -0.0229 -0.6348
 6474SOL    HW220322   2.826   5.727   4.736 -0.7956  1.1515  0.9127
 6475SOL     OW20323   4.427   6.467   5.277 -0.3993 -0.5043  0.3032
 6475SOL    HW120324   4.451   6.525   5.356 -0.2666  0.5833 -0.5187
 6475SOL    HW220325   4.328   6.459   5.271 -0.4235 -0.2787  0.3728
 6476SOL     OW20326   3.816   2.638   5.808 -0.9875 -0.2701 -0.0198
 6476SOL    HW120327   3.817   2.553   5.861 -2.3663  0.9324  2.0842
 6476SOL    HW220328   3.725   2.651   5.768 -0.6914  0.0630 -0.5886
 6477SOL     OW20329   6.442   3.581   0.588 -0.0842  0.4707  0.3681
 6477SOL    HW120330   6.539   3.557   0.585 -0.4180 -1.3295  1.9793
 6477SOL    HW220331   6.432   3.675   0.618  1.1744  1.1016 -1.0715
 6478SOL     OW20332   4.768   6.360   2.828  0.2486  0.2158 -0.4410
 6478SOL    HW120333   4.815   6.282   2.786  1.7692  1.6656 -1.5536
 6478SOL    HW220334   4.783   6.359   2.927  0.7279 -0.5893 -0.5153
 6479SOL     OW20335   3.141   6.408   5.143  0.0375  0.2885  0.0369
 6479SOL    HW120336   3.144   6.329   5.204  0.2180 -0.3870 -0.8147
 6479SOL    HW220337   3.086   6.480   5.184 -2.6926 -1.3873 -0.4079
 6480SOL     OW20338   0.798   6.680   6.325  0.1600 -0.1214 -0.4684
 6480SOL    HW120339   0.748   6.624   6.391  1.6512 -0.3410  0.5203
 6480SOL    HW220340   0.887   6.706   6.363 -0.0114  2.0008 -1.3253
 6481SOL     OW20341   3.374   1.759   1.664 -0.0393 -0.4271  0.2539
 6481SOL    HW120342   3.337   1.812   1.741 -0.8977 -0.5745 -0.0439
 6481SOL    HW220343   3.347   1.663   1.673  0.8555 -0.6708  0.3827
 6482SOL     OW20344   5.732   2.780   6.751  0.1285 -0.2485 -0.5222
 6482SOL    HW120345   5.687   2.806   6.836  0.2414  1.8129 -1.0349
 6482SOL    HW220346   5.672   2.802   6.673  1.9416  2.6822 -1.2262
 6483SOL     OW20347   1.589   0.217   4.569  0.1090 -0.2928 -0.1341
 6483SOL    HW120348   1.611   0.294   4.510  0.6820 -0.3589 -0.0110
 6483SOL    HW220349   1.594   0.244   4.665 -0.0219 -0.3938 -0.0975
 6484SOL     OW20350   1.788   2.745   3.830  0.0462 -0.2260  0.1417
 6484SOL    HW120351   1.778   2.771   3.926  1.7327 -2.7415  1.1070
 6484SOL    HW220352   1.698   2.729   3.790 -0.6652  0.2483  1.4977
 6485SOL     OW20353   1.489   6.147   4.105 -0.0671 -0.5112  0.6451
 6485SOL    HW120354   1.505   6.220   4.037 -1.5938 -1.7932 -1.2017
 6485SOL    HW220355   1.443   6.186   4.185 -1.9216  0.4226 -0.8033
 6486SOL     OW20356   1.241   4.253   3.156  0.5253 -0.4619  0.8552
 6486SOL    HW120357   1.295   4.182   3.110 -0.6922 -1.5529  1.0556
 6486SOL    HW220358   1.286   4.341   3.144  0.8238 -0.8517 -1.5677
 6487SOL     OW20359   1.622   0.377   4.341  0.0612 -0.1958 -0.3521
 6487SOL    HW120360   1.585   0.443   4.406 -0.2127 -1.4679  0.8346
 6487SOL    HW220361   1.613   0.413   4.248  2.1724  2.4993  0.3688
 6488SOL     OW20362   2.780   4.579   5.588  0.4264  0.6249 -0.5664
 6488SOL    HW120363   2.698   4.607   5.638 -0.3912 -0.1902 -1.4286
 6488SOL    HW220364   2.837   4.521   5.647 -0.7414 -0.6890 -0.6721
 6489SOL     OW20365   3.351   4.762   5.842 -0.0950 -0.4336 -0.1799
 6489SOL    HW120366   3.354   4.729   5.937  0.0743  1.3045  0.4479
 6489SOL    HW220367   3.434   4.814   5.823 -1.2046  1.2625 -0.4991
 6490SOL     OW20368   1.647   1.830   6.710 -0.6119  0.5634  0.6135
 6490SOL    HW120369   1.643   1.924   6.742  1.5424  0.1727  2.2078
 6490SOL    HW220370   1.630   1.768   6.787 -1.2643 -0.3900 -0.2649
 6491SOL     OW20371   2.862   1.478   2.863 -0.5139 -0.2309  0.3639
 6491SOL    HW120372   2.916   1.420   2.802 -1.8337 -0.6789 -0.4249
 6491SOL    HW220373   2.816   1.420   2.930 -1.8765 -0.1428 -0.4548
 6492SOL     OW20374   3.578   2.932   4.957 -0.2093 -0.3027 -0.0465
 6492SOL    HW120375   3.674   2.925   4.930 -0.2451  0.9277 -0.5833
 6492SOL    HW220376   3.520   2.908   4.879 -0.3416 -0.8207  0.2089
 6493SOL     OW20377   1.330   4.532   6.544 -0.2052 -0.2157  0.3356
 6493SOL    HW120378   1.310   4.622   6.582 -0.5091 -0.8143  1.6638
 6493SOL    HW220379   1.421   4.533   6.502 -0.2438  0.7268  0.2530
 6494SOL     OW20380   6.252   5.933   2.154  0.4697 -0.1575  0.0140
 6494SOL    HW120381   6.337   5.978   2.127  0.4246  0.9255  1.5217
 6494SOL    HW220382   6.182   6.003   2.172 -0.3485 -0.9707  0.0397
 6495SOL     OW20383   0.523   0.975   6.218  0.1848  0.3696  0.0679
 6495SOL    HW120384   0.548   0.978   6.121 -0.4008  0.4419 -0.0859
 6495SOL    HW220385   0.430   1.011   6.229 -0.1871 -0.7008  0.5018
 6496SOL     OW20386   6.086   0.480   2.543 -0.3423  0.5178 -0.1962
 6496SOL    HW120387   6.149   0.550   2.577 -0.1916  0.2341  0.1155
 6496SOL    HW220388   6.074   0.409   2.613  2.2482 -1.6195 -1.7211
 6497SOL     OW20389   1.444   6.938   0.990  0.3147  0.1195 -0.4187
 6497SOL    HW120390   1.450   6.879   1.070 -0.2059  0.1082 -0.3797
 6497SOL    HW220391   1.495   6.898   0.914 -0.3666 -0.5841 -0.5105
 6498SOL     OW20392   0.999   3.724   3.420  0.1463  0.1878 -0.2230
 6498SOL    HW120393   1.057   3.783   3.476  1.8941  0.4830 -2.2205
 6498SOL    HW220394   0.908   3.765   3.413  1.5578  3.3674 -2.3656
 6499SOL     OW20395   4.583   4.897   4.485  0.1073  0.8672 -0.1905
 6499SOL    HW120396   4.618   4.987   4.457  0.6155  0.4863 -0.8112
 6499SOL    HW220397   4.656   4.847   4.532  0.1765  0.3553 -0.8250
 6500SOL     OW20398   6.139   3.117   1.208  0.0830  0.0611 -0.7057
 6500SOL    HW120399   6.065   3.065   1.250  0.6436  0.9557  1.5499
 6500SOL    HW220400   6.106   3.208   1.183  0.4976  0.6764  0.8552
 6501SOL     OW20401   0.470   1.789   2.132  0.3442 -0.3677 -0.3546
 6501SOL    HW120402   0.436   1.853   2.202  0.0506 -1.2938  0.3616
 6501SOL    HW220403   0.493   1.702   2.175  0.0122 -1.0067 -1.4481
 6502SOL     OW20404   6.651   2.811   1.170 -0.2927  0.3241  0.0371
 6502SOL    HW120405   6.642   2.886   1.105  1.2125  1.5648  1.1694
 6502SOL    HW220406   6.569   2.806   1.227 -0.8581  0.3880 -0.7484
 6503SOL     OW20407   6.328   0.353   4.814 -0.0663  0.4312  0.4297
 6503SOL    HW120408   6.250   0.299   4.782  1.0321 -0.2032 -1.2801
 6503SOL    HW220409   6.360   0.316   4.902 -1.7560  0.8183  1.2548
 6504SOL     OW20410   3.093   0.560   6.208  0.0867  0.4548 -0.0197
 6504SOL    HW120411   3.095   0.659   6.223 -0.1201  0.5034 -0.3031
 6504SOL    HW220412   3.017   0.520   6.259  1.3163  0.1656  1.6654
 6505SOL     OW20413   3.828   4.910   3.601 -0.0931  0.7566  0.6454
 6505SOL    HW120414   3.883   4.961   3.535  0.4339 -2.7328 -1.8944
 6505SOL    HW220415   3.740   4.885   3.559 -0.0395 -0.9514  1.4722
 6506SOL     OW20416   0.177   2.628   2.732  0.2927 -0.1434  0.1937
 6506SOL    HW120417   0.181   2.610   2.830 -1.5942 -0.5056  0.2367
 6506SOL    HW220418   0.123   2.711   2.716  1.0797  0.2446 -0.5219
 6507SOL     OW20419   3.389   4.709   6.123  0.0281 -0.6319  0.3046
 6507SOL    HW120420   3.402   4.784   6.187 -0.2971  0.8775 -1.3318
 6507SOL    HW220421   3.473   4.655   6.119  1.0217  0.8784 -0.0102
 6508SOL     OW20422   4.119   1.362   2.496  0.4369  1.0036  0.0937
 6508SOL    HW120423   4.096   1.299   2.571 -0.2617  0.0575 -0.8799
 6508SOL    HW220424   4.037   1.412   2.469  0.8045  1.7268  0.2906
 6509SOL     OW20425   3.645   1.537   5.703  0.3361  0.7923  0.1966
 6509SOL    HW120426   3.576   1.530   5.775 -0.1163 -0.8306 -0.3562
 6509SOL    HW220427   3.674   1.445   5.676 -0.5729  1.2609 -2.6899
 6510SOL     OW20428   5.594   4.869   6.460  0.3373  0.2589  0.3021
 6510SOL    HW120429   5.529   4.793   6.449  0.8027 -0.1150  0.0586
 6510SOL    HW220430   5.554   4.940   6.517  0.1293 -0.4627  1.0837
 6511SOL     OW20431   4.386   1.443   4.970  0.0616  0.2518  0.4695
 6511SOL    HW120432   4.439   1.524   4.994  0.9907 -0.1344 -0.2259
 6511SOL    HW220433   4.288   1.462   4.981  0.2288  1.6857 -0.3802
 6512SOL     OW20434   1.914   0.158   2.084 -0.2239  0.3650  0.3484
 6512SOL    HW120435   1.819   0.163   2.054 -1.0111 -0.7742  2.4681
 6512SOL    HW220436   1.973   0.136   2.005 -1.7634  0.4667 -0.8751
 6513SOL     OW20437   3.506   6.669   4.611  0.2217 -0.1889 -0.1087
 6513SOL    HW120438   3.534   6.764   4.621 -0.0842  0.1563 -2.1096
 6513SOL    HW220439   3.434   6.648   4.677 -0.1656  1.1572 -0.0686
 6514SOL     OW20440   5.695   6.834   4.045 -0.2636 -0.7014 -0.1301
 6514SOL    HW120441   5.714   6.864   3.952 -2.4906 -1.5126 -0.9260
 6514SOL    HW220442   5.623   6.891   4.084 -1.2045 -1.9731  0.0740
 6515SOL     OW20443   2.026   5.267   1.170 -0.5436 -0.4847  0.1185
 6515SOL    HW120444   2.072   5.338   1.116  0.3517 -0.7888  0.4542
 6515SOL    HW220445   2.055   5.275   1.265 -0.3859 -1.3400  0.1446
 6516SOL     OW20446   1.106   3.355   1.926 -0.3414  0.6366  0.0099
 6516SOL    HW120447   1.032   3.392   1.983 -2.1750 -0.3837 -1.5960
 6516SOL    HW220448   1.154   3.431   1.881 -0.5248  1.3000  0.8898
 6517SOL     OW20449   6.853   0.869   5.272  0.1600 -0.0642 -0.3776
 6517SOL    HW120450   6.765   0.827   5.249 -0.0717  0.9194 -1.3520
 6517SOL    HW220451   6.924   0.832   5.213  0.4254 -0.8929  0.4414
 6518SOL     OW20452   0.492   1.256   2.636  0.1145  0.2991  0.4776
 6518SOL    HW120453   0.408   1.277   2.686 -0.3582  0.2837 -0.2953
 6518SOL    HW220454   0.571   1.290   2.687 -0.3680  0.4359  1.1454
 6519SOL     OW20455   6.498   1.629   4.410  0.2597  0.4679 -0.0379
 6519SOL    HW120456   6.572   1.692   4.389  0.6392 -0.5599 -2.0161
 6519SOL    HW220457   6.410   1.677   4.405  0.6881  1.4056  1.1028
 6520SOL     OW20458   6.231   5.470   1.991  0.0087  0.1644  0.2119
 6520SOL    HW120459   6.206   5.543   2.056 -2.0995  1.5875 -2.0203
 6520SOL    HW220460   6.277   5.510   1.912  1.1010 -1.3140  0.0594
 6521SOL     OW20461   2.218   2.975   4.807 -0.0383 -0.4737 -0.6402
 6521SOL    HW120462   2.206   2.882   4.772 -0.2882 -1.0320  0.8650
 6521SOL    HW220463   2.276   2.972   4.889 -0.3657  0.6529 -0.3604
 6522SOL     OW20464   2.434   4.692   6.339 -0.3964 -0.5504  0.0081
 6522SOL    HW120465   2.404   4.627   6.270 -1.9421  1.3504 -1.2175
 6522SOL    HW220466   2.529   4.719   6.321 -1.3954  1.5324 -2.8183
 6523SOL     OW20467   3.604   5.728   6.964 -0.0641  1.0843  0.1209
 6523SOL    HW120468   3.565   5.703   7.052 -0.1484  1.1488  0.1022
 6523SOL    HW220469   3.591   5.826   6.949 -0.9526  0.9000 -0.4099
 6524SOL     OW20470   3.956   1.553   0.238  0.6709  0.1339 -0.5495
 6524SOL    HW120471   3.931   1.480   0.174 -1.5048  1.9291 -1.9236
 6524SOL    HW220472   4.055   1.558   0.246  0.9086 -2.4933 -0.9086
 6525SOL     OW20473   2.696   5.351   2.478 -0.1007  0.2965  0.6187
 6525SOL    HW120474   2.686   5.270   2.420  1.4604  0.2063  0.4299
 6525SOL    HW220475   2.682   5.433   2.423 -0.5514  0.1740  0.5514
 6526SOL     OW20476   1.152   2.028   6.856 -0.6205 -0.5839  0.4726
 6526SOL    HW120477   1.074   2.089   6.859  0.3821  0.7115  1.2636
 6526SOL    HW220478   1.212   2.054   6.780 -1.4718 -2.3012 -0.8832
 6527SOL     OW20479   6.582   0.728   6.130  0.4013  0.2838  0.0757
 6527SOL    HW120480   6.599   0.647   6.185 -0.1329  0.0472 -0.1004
 6527SOL    HW220481   6.516   0.787   6.176 -0.4173 -0.1458 -0.5153
 6528SOL     OW20482   5.936   0.888   5.055 -0.0089 -0.1452  0.1509
 6528SOL    HW120483   6.003   0.869   4.983 -0.5665 -2.4763  0.1473
 6528SOL    HW220484   5.963   0.969   5.106  1.0763  0.8343 -1.8673
 6529SOL     OW20485   1.665   0.652   2.847 -0.5016  0.5433  0.2975
 6529SOL    HW120486   1.645   0.623   2.753 -2.5976  0.1558  0.8259
 6529SOL    HW220487   1.744   0.600   2.881 -0.3403 -0.0414 -0.8985
 6530SOL     OW20488   0.418   0.585   6.967 -0.0353  0.5225 -0.2291
 6530SOL    HW120489   0.508   0.574   7.009  0.2136  1.6594 -0.4364
 6530SOL    HW220490   0.383   0.495   6.940 -0.1460 -0.2562  2.2565
 6531SOL     OW20491   4.716   5.626   4.539 -0.2267 -0.3319  0.2766
 6531SOL    HW120492   4.787   5.592   4.600 -0.7692  0.1788  1.2197
 6531SOL    HW220493   4.716   5.573   4.455  2.0129  0.3941 -0.2421
 6532SOL     OW20494   2.326   2.329   0.226  0.5598  0.6559  0.2018
 6532SOL    HW120495   2.337   2.414   0.175 -1.3486  0.1390 -1.1816
 6532SOL    HW220496   2.255   2.340   0.296 -1.7054 -0.4406 -1.7733
 6533SOL     OW20497   4.065   5.987   0.768 -0.1758 -0.0333 -0.2087
 6533SOL    HW120498   3.980   5.948   0.803 -0.2183 -0.3627 -0.6738
 6533SOL    HW220499   4.140   5.923   0.786 -0.1966 -0.1993 -0.7088
 6534SOL     OW20500   4.176   5.556   3.351 -0.4656 -0.8173  0.2810
 6534SOL    HW120501   4.256   5.499   3.336  0.4288 -0.1793  2.3019
 6534SOL    HW220502   4.202   5.637   3.403 -2.5378 -0.9691  1.6729
 6535SOL     OW20503   5.330   3.861   3.214 -0.6654 -0.1567 -0.8442
 6535SOL    HW120504   5.422   3.850   3.176 -0.6505 -0.4862 -0.7104
 6535SOL    HW220505   5.270   3.900   3.144 -1.0673 -2.3331 -1.7959
 6536SOL     OW20506   1.834   3.363   5.244 -0.2032 -0.0482 -0.3126
 6536SOL    HW120507   1.926   3.373   5.282 -0.6416 -1.6584  1.3084
 6536SOL    HW220508   1.835   3.389   5.148  1.7253  0.8775 -0.0936
 6537SOL     OW20509   6.335   5.856   5.804  0.2617 -0.3529  0.4950
 6537SOL    HW120510   6.332   5.829   5.900 -1.4725 -1.5390  0.1463
 6537SOL    HW220511   6.429   5.848   5.771  1.0023  0.6611  2.2180
 6538SOL     OW20512   2.522   3.176   6.860 -0.0368  0.0283 -0.1495
 6538SOL    HW120513   2.477   3.112   6.922  0.6526 -0.4521 -0.1373
 6538SOL    HW220514   2.603   3.215   6.905 -0.2471  0.6407 -0.2872
 6539SOL     OW20515   2.923   6.654   1.567 -0.3726  0.0297  0.2549
 6539SOL    HW120516   3.013   6.686   1.597 -0.4194  0.2745  0.1372
 6539SOL    HW220517   2.903   6.566   1.609  0.1150 -0.2372 -0.0612
 6540SOL     OW20518   1.871   2.438   6.977 -0.3919 -0.0350  0.2300
 6540SOL    HW120519   1.806   2.505   6.939 -0.5263 -0.1227  0.3053
 6540SOL    HW220520   1.934   2.409   6.905  0.5464  1.1947  0.5083
 6541SOL     OW20521   4.385   1.118   6.439 -0.3599 -0.8141  0.4683
 6541SOL    HW120522   4.467   1.115   6.382 -0.6370 -1.8697  0.1052
 6541SOL    HW220523   4.326   1.192   6.409 -1.7508 -2.9108 -2.4234
 6542SOL     OW20524   5.581   4.142   2.577  0.0524  0.0014 -0.1342
 6542SOL    HW120525   5.680   4.148   2.562  0.2674  2.6041  1.6622
 6542SOL    HW220526   5.561   4.057   2.626  1.0952 -1.4822 -2.1571
 6543SOL     OW20527   5.323   1.851   6.284 -0.1142  0.9467  0.1568
 6543SOL    HW120528   5.272   1.780   6.333  0.8510  2.1177  3.0456
 6543SOL    HW220529   5.419   1.848   6.310  0.7153  0.9961 -2.5681
 6544SOL     OW20530   6.922   6.229   3.236  0.0000  0.4382  0.4726
 6544SOL    HW120531   6.999   6.179   3.199  0.0308  0.2732  0.7533
 6544SOL    HW220532   6.893   6.299   3.171 -1.1689 -1.0781 -0.7164
 6545SOL     OW20533   4.561   6.168   6.293 -0.3290  0.2707  0.0920
 6545SOL    HW120534   4.511   6.092   6.252 -2.0393  1.8030 -0.7770
 6545SOL    HW220535   4.514   6.198   6.375 -1.2846  2.1333 -1.0744
 6546SOL     OW20536   3.368   3.202   4.465  0.0564 -0.0514 -0.3190
 6546SOL    HW120537   3.385   3.189   4.563 -0.3841 -0.2791 -0.2724
 6546SOL    HW220538   3.454   3.198   4.415  0.8809  3.6957  0.4486
 6547SOL     OW20539   6.776   1.759   6.508  0.2004 -0.2949  0.9941
 6547SOL    HW120540   6.793   1.683   6.446  1.4103  0.8485 -0.1137
 6547SOL    HW220541   6.708   1.820   6.467 -0.4876 -0.5413  1.7201
 6548SOL     OW20542   1.880   3.282   6.873  0.4947 -0.2033  0.2830
 6548SOL    HW120543   1.843   3.191   6.892  0.7764 -1.5659 -4.3284
 6548SOL    HW220544   1.980   3.276   6.865  0.4509  0.3061 -0.8014
 6549SOL     OW20545   3.840   0.027   1.847 -0.3717 -0.3578  0.1791
 6549SOL    HW120546   3.925  -0.021   1.866 -0.5357 -1.3324 -1.3125
 6549SOL    HW220547   3.859   0.123   1.828  0.2884 -0.3786  0.7209
 6550SOL     OW20548   1.284   2.106   3.875  0.4549 -0.6227 -0.3642
 6550SOL    HW120549   1.320   2.199   3.880 -0.9026 -0.0808 -0.1845
 6550SOL    HW220550   1.273   2.069   3.967  0.2205 -0.6529 -0.4042
 6551SOL     OW20551   1.253   3.937   1.621 -0.2111  0.4347  0.3256
 6551SOL    HW120552   1.255   3.960   1.524  0.0810 -0.3179  0.1541
 6551SOL    HW220553   1.316   3.862   1.640  0.7820  1.4680  1.3401
 6552SOL     OW20554   2.348   0.061   1.700  0.1375 -0.1440 -0.0382
 6552SOL    HW120555   2.328  -0.031   1.667  2.0567 -0.6217  0.0077
 6552SOL    HW220556   2.392   0.056   1.789  1.5557  0.7020 -0.6487
 6553SOL     OW20557   1.002   3.469   2.237 -0.2047  0.2797 -0.6710
 6553SOL    HW120558   0.913   3.432   2.211  0.7656 -2.5443 -0.2715
 6553SOL    HW220559   1.039   3.522   2.160 -0.7790 -1.3624 -2.1450
 6554SOL     OW20560   3.397   5.422   3.109  0.3217  0.4425 -0.0271
 6554SOL    HW120561   3.435   5.411   3.017  1.0042  0.5045  0.2423
 6554SOL    HW220562   3.360   5.335   3.140 -0.0907  0.4645 -0.4291
 6555SOL     OW20563   6.516   2.648   4.652 -0.0331 -0.6646  0.4136
 6555SOL    HW120564   6.532   2.568   4.709 -0.3680 -0.3686  0.9366
 6555SOL    HW220565   6.548   2.730   4.699 -0.9560 -0.3315  0.4907
 6556SOL     OW20566   5.083   3.879   1.943  0.0398 -0.0328  0.1332
 6556SOL    HW120567   5.108   3.843   2.032 -0.3528 -0.9734 -0.1296
 6556SOL    HW220568   5.070   3.978   1.950 -1.7595 -0.3098  1.5476
 6557SOL     OW20569   4.051   0.730   3.423  0.1549  0.2369 -0.2154
 6557SOL    HW120570   4.150   0.734   3.411  0.1545 -2.5719 -1.8374
 6557SOL    HW220571   4.030   0.720   3.520  1.4870  0.0518  0.0754
 6558SOL     OW20572   6.347   4.478   1.012  0.2833  1.1045 -0.0440
 6558SOL    HW120573   6.289   4.555   1.041 -1.6053  0.2143 -1.2759
 6558SOL    HW220574   6.308   4.436   0.931  2.0025 -0.3852 -0.1574
 6559SOL     OW20575   6.402   4.035   5.816  0.5234  0.5917 -0.0827
 6559SOL    HW120576   6.425   4.036   5.718  0.7469 -1.6906 -0.1034
 6559SOL    HW220577   6.311   3.997   5.829  0.9636 -0.2647  0.6419
 6560SOL     OW20578   4.213   4.762   2.183 -0.3996  0.1644  0.6825
 6560SOL    HW120579   4.180   4.763   2.089 -0.3074  0.6439  0.6548
 6560SOL    HW220580   4.264   4.678   2.199  0.5983  0.6136 -0.0516
 6561SOL     OW20581   2.881   6.480   7.005 -1.0242 -0.6859 -0.2270
 6561SOL    HW120582   2.980   6.481   6.994 -1.0238 -0.2314 -0.2090
 6561SOL    HW220583   2.852   6.390   7.037 -0.8250 -1.4410 -2.0555
 6562SOL     OW20584   6.848   2.488   6.951  0.2542  0.0750  1.4932
 6562SOL    HW120585   6.874   2.440   7.035 -1.0621 -1.2970  1.1726
 6562SOL    HW220586   6.818   2.421   6.883  1.5920  1.1274 -0.2099
 6563SOL     OW20587   5.728   0.656   5.960  0.6352  0.7178  0.3204
 6563SOL    HW120588   5.828   0.661   5.968  0.6616 -0.4679  0.9404
 6563SOL    HW220589   5.703   0.640   5.864  1.3065 -3.2247  0.6468
 6564SOL     OW20590   5.474   3.395   1.732  0.1530  0.0578  0.3901
 6564SOL    HW120591   5.435   3.303   1.730  0.3131 -0.0718  1.8951
 6564SOL    HW220592   5.415   3.455   1.786 -0.9552  1.3854 -2.0899
 6565SOL     OW20593   1.143   5.174   2.948  0.2811 -0.1292  0.0806
 6565SOL    HW120594   1.096   5.230   3.016 -0.7321 -0.8527 -0.0068
 6565SOL    HW220595   1.208   5.231   2.897  0.5133  0.5770  1.1452
 6566SOL     OW20596   2.622   5.675   2.957  0.3163 -0.1319 -0.5366
 6566SOL    HW120597   2.630   5.718   3.047  1.6058 -0.9696 -0.2196
 6566SOL    HW220598   2.643   5.742   2.886  0.0119  0.3488 -0.1786
 6567SOL     OW20599   5.478   3.608   5.949  0.0799  0.2660 -0.0505
 6567SOL    HW120600   5.419   3.642   6.022 -0.2098 -0.7317  0.2068
 6567SOL    HW220601   5.464   3.509   5.938 -0.0090  0.4179 -1.5702
 6568SOL     OW20602   3.106   1.857   4.215 -0.2631  0.2800  0.1548
 6568SOL    HW120603   3.082   1.929   4.280 -0.3485 -2.1802  3.1004
 6568SOL    HW220604   3.024   1.805   4.192  0.2440 -0.7484  0.5936
 6569SOL     OW20605   2.715   1.851   6.616  0.2932 -0.6196 -0.1334
 6569SOL    HW120606   2.722   1.931   6.556 -0.5193 -1.7096 -1.7399
 6569SOL    HW220607   2.749   1.875   6.707  0.1168  1.5380 -0.5756
 6570SOL     OW20608   2.870   1.787   3.667  0.1333 -0.0531  0.1488
 6570SOL    HW120609   2.946   1.722   3.660  0.6367  0.6290 -1.0681
 6570SOL    HW220610   2.839   1.792   3.762  0.8282 -1.2266  0.4553
 6571SOL     OW20611   4.137   0.204   2.959  0.3521 -0.6494  0.1610
 6571SOL    HW120612   4.044   0.238   2.945  0.0814 -1.0169  0.9915
 6571SOL    HW220613   4.202   0.277   2.940 -0.0672 -0.5578 -1.0005
 6572SOL     OW20614   6.580   5.401   5.434 -0.4348 -0.1385 -0.6354
 6572SOL    HW120615   6.571   5.383   5.532 -1.1382 -0.1245 -0.6953
 6572SOL    HW220616   6.551   5.495   5.415  0.7556  0.2388 -0.7054
 6573SOL     OW20617   0.870   1.542   1.289 -0.0650 -0.1067 -0.4543
 6573SOL    HW120618   0.944   1.518   1.353  0.3285  1.9943 -0.0438
 6573SOL    HW220619   0.892   1.506   1.198 -0.2666 -2.4907  0.3885
 6574SOL     OW20620   2.722   6.106   2.539 -0.2805 -0.1129  0.5295
 6574SOL    HW120621   2.732   6.125   2.637  0.0230 -0.0558  0.4853
 6574SOL    HW220622   2.641   6.048   2.525 -0.3717 -0.0528  0.8050
 6575SOL     OW20623   5.894   6.812   2.885 -0.7737  0.0769 -0.0938
 6575SOL    HW120624   5.843   6.761   2.955  1.7282 -0.8846  1.1393
 6575SOL    HW220625   5.924   6.749   2.813 -0.4849  0.4268 -0.2814
 6576SOL     OW20626   3.145   6.167   0.184 -0.2001 -0.6433  0.0881
 6576SOL    HW120627   3.142   6.267   0.194  1.9066 -0.6224  1.2355
 6576SOL    HW220628   3.053   6.130   0.191 -1.0765  1.2460 -0.7743
 6577SOL     OW20629   0.944   0.485   3.187 -0.3541  0.6273  0.4568
 6577SOL    HW120630   1.043   0.498   3.190 -0.3742  0.7974  0.3595
 6577SOL    HW220631   0.914   0.439   3.271 -0.3501  1.6374  1.0258
 6578SOL     OW20632   2.146   0.130   2.990  0.4885 -0.0811  0.5139
 6578SOL    HW120633   2.103   0.066   2.926  0.6702  0.8902 -0.6301
 6578SOL    HW220634   2.156   0.220   2.946  0.4582  0.6812  1.9877
 6579SOL     OW20635   5.757   2.582   2.072 -0.1460  0.4754 -0.4113
 6579SOL    HW120636   5.846   2.544   2.096  0.1406  1.9201  0.9526
 6579SOL    HW220637   5.751   2.593   1.972  1.1645  0.2823 -0.5264
 6580SOL     OW20638   6.018   2.481   6.513  0.0598 -0.1672 -0.3694
 6580SOL    HW120639   6.017   2.565   6.460  0.0891  0.6132  0.8223
 6580SOL    HW220640   6.106   2.435   6.500  0.6545  0.7825  0.1466
 6581SOL     OW20641   2.311   0.367   6.720  0.1342  0.1009  0.1503
 6581SOL    HW120642   2.272   0.454   6.691 -0.3364 -0.0694  0.2588
 6581SOL    HW220643   2.327   0.309   6.640 -1.7058 -0.5955  0.2245
 6582SOL     OW20644   1.645   5.929   3.374  0.2079  0.4110  0.3816
 6582SOL    HW120645   1.682   5.859   3.313  0.9648 -0.3486  1.6645
 6582SOL    HW220646   1.608   5.885   3.456 -0.0618  1.4588  0.8332
 6583SOL     OW20647   5.934   5.626   4.527 -0.5305 -0.0131 -0.3970
 6583SOL    HW120648   5.927   5.626   4.627 -0.2620  1.0765 -0.3643
 6583SOL    HW220649   5.992   5.550   4.498 -0.0349  0.0735  0.3346
 6584SOL     OW20650   2.488   1.714   0.308 -0.5548 -0.3514 -0.2834
 6584SOL    HW120651   2.449   1.626   0.334 -0.3858 -1.0825 -2.3329
 6584SOL    HW220652   2.440   1.750   0.228 -1.6999  2.2588  1.4036
 6585SOL     OW20653   5.007   4.264   6.366  0.2970  0.0320 -0.1209
 6585SOL    HW120654   4.995   4.165   6.375  2.3546 -0.1831  0.5764
 6585SOL    HW220655   4.987   4.291   6.272  0.9985 -1.2648 -0.6710
 6586SOL     OW20656   6.989   1.621   0.565  0.2215 -0.2896  0.1916
 6586SOL    HW120657   6.978   1.592   0.660  0.3018 -1.8105 -0.2430
 6586SOL    HW220658   7.062   1.689   0.560  0.1006 -0.0591  1.2342
 6587SOL     OW20659   0.961   4.947   5.863  0.6193 -0.5992 -0.3223
 6587SOL    HW120660   0.893   4.965   5.935  1.0540 -0.5401  0.0794
 6587SOL    HW220661   1.053   4.951   5.903  1.0584  2.2235 -1.3924
 6588SOL     OW20662   0.097   2.906   2.688  0.1373 -0.6365 -0.4101
 6588SOL    HW120663   0.123   3.001   2.707 -0.3937  0.1070 -2.9432
 6588SOL    HW220664   0.001   2.892   2.710  0.4479 -0.9128  0.8750
 6589SOL     OW20665   4.457   0.182   1.348 -0.7527 -0.2624  0.3920
 6589SOL    HW120666   4.498   0.151   1.262 -2.4812  0.6275 -0.8086
 6589SOL    HW220667   4.451   0.106   1.412  1.7870 -0.6517  0.2667
 6590SOL     OW20668   1.848   0.761   1.225  0.2313 -0.1630 -0.1848
 6590SOL    HW120669   1.948   0.754   1.225  0.1736 -1.1848 -0.9000
 6590SOL    HW220670   1.809   0.677   1.189 -0.9533 -0.2894  1.3117
 6591SOL     OW20671   6.702   6.969   4.325  0.2896  0.3377  0.0633
 6591SOL    HW120672   6.608   6.991   4.300  0.1351 -1.1313 -0.7667
 6591SOL    HW220673   6.756   7.053   4.332 -0.9647  1.1576  0.0825
 6592SOL     OW20674   3.983   6.522   2.921 -0.3707  0.2848 -0.3545
 6592SOL    HW120675   4.034   6.474   2.850  0.1421  0.5502 -0.1808
 6592SOL    HW220676   3.992   6.621   2.907  2.4659  0.4766  1.8417
 6593SOL     OW20677   3.221   1.484   3.932  0.1193 -0.5331  0.1299
 6593SOL    HW120678   3.307   1.440   3.956  1.1350  1.2599  0.0072
 6593SOL    HW220679   3.201   1.468   3.835  1.3584  0.6105 -0.3451
 6594SOL     OW20680   3.211   1.497   5.706  0.5769  0.8425 -0.5530
 6594SOL    HW120681   3.209   1.407   5.750 -1.8767  0.8231 -0.5531
 6594SOL    HW220682   3.150   1.497   5.627  1.3030  2.2421 -1.1589
 6595SOL     OW20683   0.553   3.604   2.022  0.2849 -0.1714  0.2927
 6595SOL    HW120684   0.505   3.572   1.941  0.1610  0.6438  0.0305
 6595SOL    HW220685   0.651   3.584   2.013  0.1339 -0.9844  0.4035
 6596SOL     OW20686   3.467   0.422   3.798  0.3495 -0.0379 -0.0332
 6596SOL    HW120687   3.435   0.350   3.860 -0.2638 -1.5988 -2.0420
 6596SOL    HW220688   3.523   0.487   3.849  0.0606 -1.3352  2.0855
 6597SOL     OW20689   3.226   5.406   1.646 -0.3076 -0.3583  0.6002
 6597SOL    HW120690   3.220   5.380   1.549 -2.2944  0.7945  0.3714
 6597SOL    HW220691   3.318   5.438   1.666 -0.0785  0.1456 -1.1221
 6598SOL     OW20692   2.462   6.221   3.106 -0.0811  0.5101 -0.5526
 6598SOL    HW120693   2.369   6.190   3.128  0.1145  1.2699  1.5624
 6598SOL    HW220694   2.521   6.141   3.091 -0.5160 -0.0610  0.6798
 6599SOL     OW20695   3.836   4.544   5.927  0.4809  0.3015  0.6897
 6599SOL    HW120696   3.888   4.629   5.939 -0.7402  1.4111 -1.3497
 6599SOL    HW220697   3.785   4.548   5.842  0.5048 -2.5882  0.4351
 6600SOL     OW20698   4.105   0.127   5.459  0.0980 -0.3999  0.8705
 6600SOL    HW120699   4.025   0.081   5.419  0.5098  0.8660 -1.5822
 6600SOL    HW220700   4.094   0.132   5.559 -1.4026 -2.9623  0.9313
 6601SOL     OW20701   6.953   1.623   4.409  0.2053  0.3197 -0.1212
 6601SOL    HW120702   7.049   1.626   4.437  0.7542 -2.2542 -1.3699
 6601SOL    HW220703   6.900   1.574   4.477  0.4726 -1.1488 -0.9282
 6602SOL     OW20704   1.859   0.898   0.084  0.3052  0.1637 -0.2362
 6602SOL    HW120705   1.817   0.850   0.161  0.3812  0.5992  0.0777
 6602SOL    HW220706   1.802   0.975   0.056  0.4912  0.2686 -0.3335
 6603SOL     OW20707   0.198   3.183   2.705  0.4877 -0.3958 -0.0025
 6603SOL    HW120708   0.196   3.279   2.735  1.4213  1.0432 -3.9407
 6603SOL    HW220709   0.292   3.153   2.697  0.2234 -1.2683  0.0925
 6604SOL     OW20710   3.493   0.897   3.206 -0.7344 -0.5451  0.5015
 6604SOL    HW120711   3.562   0.956   3.248  0.4112 -1.1899 -0.4134
 6604SOL    HW220712   3.434   0.952   3.147 -0.6811 -0.0624  0.8914
 6605SOL     OW20713   4.021   6.584   4.296 -0.1286 -0.0737  0.1751
 6605SOL    HW120714   4.009   6.500   4.349  1.3328  0.2358  1.0262
 6605SOL    HW220715   4.050   6.658   4.356  2.1597  0.1489 -1.1099
 6606SOL     OW20716   5.257   5.354   0.691 -0.4163 -0.6487  0.4866
 6606SOL    HW120717   5.322   5.312   0.755  0.1856 -0.9299 -0.2965
 6606SOL    HW220718   5.185   5.288   0.671  0.5502 -1.3646 -0.7727
 6607SOL     OW20719   0.298   2.635   2.977  0.1960 -0.4252  0.0437
 6607SOL    HW120720   0.378   2.582   3.005 -0.3014  0.3489  3.4243
 6607SOL    HW220721   0.327   2.724   2.943  0.8343  0.1006  1.8557
 6608SOL     OW20722   0.107   6.338   6.422 -0.3006  0.3828  0.3434
 6608SOL    HW120723   0.037   6.364   6.489 -0.1221 -0.5228  0.8907
 6608SOL    HW220724   0.197   6.348   6.463 -0.1091  1.2702 -0.2693
 6609SOL     OW20725   7.004   2.666   1.812  0.1962  1.0486  0.6604
 6609SOL    HW120726   7.095   2.626   1.821 -0.9723 -1.8517  1.0038
 6609SOL    HW220727   6.986   2.689   1.717  1.2346  1.5665  0.5822
 6610SOL     OW20728   3.605   5.915   6.515  0.1872 -0.1343  0.2533
 6610SOL    HW120729   3.647   5.838   6.468  0.1645 -0.5740  0.9441
 6610SOL    HW220730   3.511   5.891   6.541  0.2265  0.0750  0.5899
 6611SOL     OW20731   5.353   1.511   4.105 -0.6440 -0.5192 -0.3793
 6611SOL    HW120732   5.283   1.571   4.144 -0.2605  0.8765 -1.7381
 6611SOL    HW220733   5.415   1.481   4.177 -0.5329  1.1840  0.2858
 6612SOL     OW20734   5.798   4.447   5.901  0.1513  0.2869  0.0581
 6612SOL    HW120735   5.788   4.529   5.845  1.2964 -0.9652 -2.1360
 6612SOL    HW220736   5.712   4.397   5.904 -0.9208  2.0813  2.4402
 6613SOL     OW20737   0.333   0.116   4.807 -0.1270 -0.3196 -0.6209
 6613SOL    HW120738   0.432   0.107   4.805  0.0014  0.2656  1.0433
 6613SOL    HW220739   0.303   0.184   4.740  0.3706 -1.8866 -2.5119
 6614SOL     OW20740   3.981   6.904   0.054 -0.0392  0.1481  0.2004
 6614SOL    HW120741   3.954   6.853  -0.027  0.5620  1.8651 -1.1507
 6614SOL    HW220742   3.953   7.000   0.044 -1.3297  0.1158  2.7285
 6615SOL     OW20743   0.621   3.391   2.250 -0.6544  0.2059  0.1671
 6615SOL    HW120744   0.685   3.415   2.176 -0.0238  3.3110  1.5388
 6615SOL    HW220745   0.531   3.428   2.229 -0.7730  0.0350  0.3828
 6616SOL     OW20746   4.122   6.578   6.820 -0.3171  0.3054 -0.2222
 6616SOL    HW120747   4.188   6.570   6.895 -0.0276  0.5675 -0.4476
 6616SOL    HW220748   4.131   6.499   6.759  0.8854  1.0971 -1.1207
 6617SOL     OW20749   3.378   5.874   5.196  0.2730  0.3039 -0.4181
 6617SOL    HW120750   3.330   5.934   5.259  0.7658  0.3055 -0.0380
 6617SOL    HW220751   3.440   5.814   5.247  1.4901  1.0499 -0.9687
 6618SOL     OW20752   2.469   1.406   3.650 -0.2546 -0.4095 -0.2434
 6618SOL    HW120753   2.395   1.464   3.617 -0.4243 -1.0152 -0.9419
 6618SOL    HW220754   2.434   1.315   3.670 -0.0421 -0.2162  1.1059
 6619SOL     OW20755   6.643   0.487   5.065 -0.0779 -0.2074 -0.2460
 6619SOL    HW120756   6.561   0.429   5.061 -1.0063  1.1040 -2.6320
 6619SOL    HW220757   6.618   0.580   5.041  1.9467  0.4886  0.1869
 6620SOL     OW20758   2.877   3.383   5.771  0.0691 -0.2851  0.4949
 6620SOL    HW120759   2.962   3.364   5.819 -0.0468 -0.4436  0.6371
 6620SOL    HW220760   2.799   3.364   5.831 -0.0723  3.7769  1.9358
 6621SOL     OW20761   3.246   2.172   5.385  0.6415 -0.5148 -0.1801
 6621SOL    HW120762   3.155   2.162   5.425 -0.1048 -0.4682 -1.7968
 6621SOL    HW220763   3.240   2.227   5.302  2.5681  1.7762  1.0674
 6622SOL     OW20764   6.943   5.690   1.370  0.0114  0.1613 -0.3319
 6622SOL    HW120765   6.920   5.780   1.333  4.5662  2.0107  0.6017
 6622SOL    HW220766   6.998   5.640   1.302  0.0672 -0.6414  0.2925
 6623SOL     OW20767   6.486   3.017   6.006 -0.1651  0.5573 -0.3480
 6623SOL    HW120768   6.510   3.040   5.912 -1.3634  0.0035 -0.8082
 6623SOL    HW220769   6.524   3.086   6.068 -0.2574  1.5118 -1.3261
 6624SOL     OW20770   1.046   4.141   1.398  0.4335  0.3870 -0.0429
 6624SOL    HW120771   1.056   4.232   1.440  1.3926  1.0143 -1.5653
 6624SOL    HW220772   1.132   4.092   1.404  0.0282 -0.2902  0.4037
 6625SOL     OW20773   3.445   2.292   5.522  0.0345  0.1384  0.1836
 6625SOL    HW120774   3.495   2.367   5.479 -0.4888  0.5228  0.2228
 6625SOL    HW220775   3.373   2.260   5.459  0.4231 -0.5116  0.0614
 6626SOL     OW20776   2.678   0.002   5.166 -0.3748  0.1048 -0.6055
 6626SOL    HW120777   2.667  -0.092   5.133  1.1885 -0.2537 -0.1723
 6626SOL    HW220778   2.753   0.046   5.116 -0.3630  0.7564 -0.0228
 6627SOL     OW20779   2.423   0.727   3.124 -0.0256 -0.4928 -0.1305
 6627SOL    HW120780   2.434   0.801   3.190  1.0147 -1.2807  0.5845
 6627SOL    HW220781   2.431   0.765   3.031  2.4093  0.0309  0.2299
 6628SOL     OW20782   5.018   3.775   3.465  0.3402  0.3954  0.3173
 6628SOL    HW120783   5.066   3.697   3.424  0.6061  0.2422  0.9188
 6628SOL    HW220784   4.946   3.741   3.526 -1.3946  0.5904 -1.4896
 6629SOL     OW20785   4.049   6.312   6.409 -0.2023 -0.2459  0.1555
 6629SOL    HW120786   3.963   6.281   6.369  0.5121 -0.3969 -1.3346
 6629SOL    HW220787   4.101   6.363   6.340  0.5261  0.5920  1.2889
 6630SOL     OW20788   2.805   2.048   1.654 -0.0391 -0.1880 -0.0675
 6630SOL    HW120789   2.780   2.145   1.664 -1.8805 -0.5537 -0.8080
 6630SOL    HW220790   2.829   2.011   1.744 -2.2965  0.2174  0.7806
 6631SOL     OW20791   3.211   5.275   4.932 -0.2943  0.4666  0.1720
 6631SOL    HW120792   3.169   5.346   4.989 -0.1849  0.9722 -0.3652
 6631SOL    HW220793   3.189   5.185   4.969 -1.2404  0.7510  0.3270
 6632SOL     OW20794   1.162   6.360   0.394 -0.3955 -0.2802  0.3534
 6632SOL    HW120795   1.194   6.421   0.466  1.7132  0.4475 -1.0932
 6632SOL    HW220796   1.113   6.283   0.435  0.6881  0.1093  2.5626
 6633SOL     OW20797   2.967   5.889   4.028 -0.4104 -0.0708 -0.0552
 6633SOL    HW120798   2.887   5.887   3.968  0.7185  0.7443 -1.6467
 6633SOL    HW220799   3.033   5.821   3.997  0.3409  0.6086  0.0397
 6634SOL     OW20800   4.092   1.712   3.645  0.2668 -0.7281 -0.0597
 6634SOL    HW120801   4.175   1.660   3.629 -0.5138 -1.6567 -1.2868
 6634SOL    HW220802   4.086   1.787   3.579  0.7489  0.1638  0.8725
 6635SOL     OW20803   5.085   5.338   4.767  0.6140  0.5213  0.3860
 6635SOL    HW120804   5.134   5.353   4.853  1.9095 -1.2719  0.0009
 6635SOL    HW220805   5.129   5.265   4.715 -1.1138  0.4432 -1.0700
 6636SOL     OW20806   3.062   0.806   0.665 -0.1373  0.5779  0.5666
 6636SOL    HW120807   3.098   0.896   0.690  1.2203  0.6459 -1.3940
 6636SOL    HW220808   3.025   0.810   0.573 -2.3457 -0.3224  1.3501
 6637SOL     OW20809   1.559   5.736   5.588  0.7105  0.4626 -0.2971
 6637SOL    HW120810   1.484   5.774   5.533  0.1687  0.7071  0.5839
 6637SOL    HW220811   1.564   5.638   5.574 -0.0585  0.3770 -0.0537
 6638SOL     OW20812   3.130   3.344   1.926 -0.0106 -0.3108 -0.7251
 6638SOL    HW120813   3.144   3.439   1.954  0.3453 -0.0348 -1.7811
 6638SOL    HW220814   3.042   3.311   1.960  0.3133  0.0523  0.5193
 6639SOL     OW20815   6.602   4.358   5.566 -0.3547  0.6048  0.7620
 6639SOL    HW120816   6.528   4.306   5.523  0.2041  0.0884  0.3945
 6639SOL    HW220817   6.570   4.450   5.588 -0.7030  0.8413 -0.6427
 6640SOL     OW20818   6.788   3.106   5.021  0.4214  0.6589 -0.0781
 6640SOL    HW120819   6.707   3.073   5.070  1.6636 -0.8392  1.0552
 6640SOL    HW220820   6.816   3.037   4.954 -0.5587  2.1728 -2.1761
 6641SOL     OW20821   2.470   1.096   6.960  0.3908  0.4403 -0.7167
 6641SOL    HW120822   2.382   1.052   6.975  0.6217  0.5008  0.9607
 6641SOL    HW220823   2.486   1.105   6.862 -0.4750 -1.5663 -1.0949
 6642SOL     OW20824   4.078   5.817   6.856  0.4427 -0.7039 -0.2133
 6642SOL    HW120825   4.084   5.818   6.956 -0.1463 -1.0366 -0.1693
 6642SOL    HW220826   4.068   5.722   6.824 -1.9541 -0.4485 -0.4080
 6643SOL     OW20827   5.599   6.133   1.166  0.1173 -0.2324 -0.0432
 6643SOL    HW120828   5.696   6.152   1.180  0.1757 -1.2118  0.9811
 6643SOL    HW220829   5.587   6.073   1.087  0.2736  0.4878 -0.6236
 6644SOL     OW20830   2.137   6.755   1.826  0.2921  0.1395  0.3730
 6644SOL    HW120831   2.069   6.827   1.837  0.9311  0.5747  1.6790
 6644SOL    HW220832   2.092   6.666   1.834 -0.4957  0.3633 -1.2361
 6645SOL     OW20833   5.953   3.955   6.957  0.3241 -0.4746 -0.2468
 6645SOL    HW120834   5.870   3.940   6.903  0.1071  0.3977 -0.1576
 6645SOL    HW220835   5.929   3.997   7.044  0.9062  0.2562 -0.4295
 6646SOL     OW20836   4.732   2.678   5.314 -0.4408 -0.0231 -0.7393
 6646SOL    HW120837   4.776   2.588   5.310 -1.5221 -0.6342  0.2217
 6646SOL    HW220838   4.652   2.679   5.255 -1.3282 -0.2413  0.4267
 6647SOL     OW20839   3.311   6.476   4.718 -0.2294 -0.1454 -0.6450
 6647SOL    HW120840   3.319   6.510   4.812 -0.7515 -0.2561 -0.5550
 6647SOL    HW220841   3.351   6.384   4.712  0.5628  0.2020 -0.7292
 6648SOL     OW20842   2.360   5.754   4.121  0.0660 -0.0274 -0.1765
 6648SOL    HW120843   2.367   5.835   4.063  2.2366 -0.9712 -1.3617
 6648SOL    HW220844   2.346   5.782   4.216  1.1056  1.7381 -0.5023
 6649SOL     OW20845   6.029   2.475   5.142  0.6367  0.1090 -0.0879
 6649SOL    HW120846   6.074   2.403   5.195  1.6141  1.1982  0.6025
 6649SOL    HW220847   6.003   2.550   5.203 -0.2800  0.4045 -0.8137
 6650SOL     OW20848   4.004   2.586   5.419  0.3932  0.2887  0.1114
 6650SOL    HW120849   3.974   2.516   5.484 -0.0539  0.7222  0.3887
 6650SOL    HW220850   4.040   2.543   5.337 -0.1715 -0.2627  0.1451
 6651SOL     OW20851   0.720   6.384   6.811  0.0460 -0.2254 -0.3442
 6651SOL    HW120852   0.743   6.391   6.908 -1.1704  1.6934 -0.1485
 6651SOL    HW220853   0.782   6.319   6.767  1.6322  0.0278  1.3886
 6652SOL     OW20854   6.619   6.517   0.048  0.1980  0.0248 -0.1618
 6652SOL    HW120855   6.680   6.439   0.038  1.0213  0.7585 -1.0909
 6652SOL    HW220856   6.591   6.525   0.144  1.8618 -0.1308  0.3721
 6653SOL     OW20857   4.452   0.430   0.764  0.1304  0.5609  0.2685
 6653SOL    HW120858   4.516   0.433   0.687 -0.1566 -0.0135 -0.0073
 6653SOL    HW220859   4.499   0.452   0.849  0.8711 -0.5855  0.1723
 6654SOL     OW20860   1.175   4.729   2.504  0.0121 -0.5065 -0.2509
 6654SOL    HW120861   1.151   4.701   2.411  0.3153 -0.6415 -0.2898
 6654SOL    HW220862   1.229   4.657   2.547  1.1689  0.1925 -0.5035
 6655SOL     OW20863   5.506   0.746   1.833 -0.3058  0.1572 -0.8775
 6655SOL    HW120864   5.473   0.769   1.925  1.0768  0.1941 -0.3612
 6655SOL    HW220865   5.431   0.752   1.768 -0.7415  3.0938 -0.2564
 6656SOL     OW20866   5.283   2.404   2.214  0.6641  0.2036 -0.5890
 6656SOL    HW120867   5.368   2.357   2.238  1.2782  1.1951 -0.7386
 6656SOL    HW220868   5.253   2.461   2.291  0.1920 -0.0585 -0.5749
 6657SOL     OW20869   0.768   3.465   0.767  0.3743 -0.0078 -0.1659
 6657SOL    HW120870   0.713   3.514   0.835  1.4116 -0.1944  0.8469
 6657SOL    HW220871   0.785   3.372   0.800  0.5183 -0.2425 -0.9017
 6658SOL     OW20872   4.457   0.561   6.335  0.2729  0.1976  0.0323
 6658SOL    HW120873   4.382   0.511   6.291  1.1214 -0.6205 -0.5245
 6658SOL    HW220874   4.517   0.496   6.382  1.0741  0.7424 -0.2109
 6659SOL     OW20875   2.895   2.855   0.775 -0.0446 -0.0867  0.2282
 6659SOL    HW120876   2.936   2.842   0.684 -1.2517  1.0536 -0.5211
 6659SOL    HW220877   2.914   2.775   0.832  1.4259 -0.4789 -0.7486
 6660SOL     OW20878   1.378   3.901   2.556  0.2387  0.4351 -0.1421
 6660SOL    HW120879   1.350   3.991   2.591 -0.5842  0.4946 -0.8983
 6660SOL    HW220880   1.334   3.885   2.467 -0.1467 -0.9908  0.2770
 6661SOL     OW20881   2.781   0.752   5.085 -0.0281 -0.2594  0.3576
 6661SOL    HW120882   2.717   0.810   5.035  0.6520  0.8871  0.7754
 6661SOL    HW220883   2.744   0.659   5.091 -1.5996  0.3449  0.4989
 6662SOL     OW20884   0.512   1.008   0.169 -0.1634  0.5790  0.4078
 6662SOL    HW120885   0.583   1.077   0.173 -1.0825  1.5860 -0.0810
 6662SOL    HW220886   0.431   1.040   0.218 -1.2989  0.7470 -1.4495
 6663SOL     OW20887   0.635   6.210   3.635  1.0915  0.2966 -0.6752
 6663SOL    HW120888   0.689   6.126   3.627  1.3580  0.5249 -1.3646
 6663SOL    HW220889   0.642   6.262   3.550  1.4496  1.3298 -0.0307
 6664SOL     OW20890   0.631   0.386   3.622  0.2046 -0.0149  0.3067
 6664SOL    HW120891   0.587   0.334   3.695 -1.9125 -3.2578 -2.9542
 6664SOL    HW220892   0.581   0.472   3.608 -1.8072 -1.1311  0.2492
 6665SOL     OW20893   3.077   5.886   6.161 -0.7941 -0.5183  0.6287
 6665SOL    HW120894   2.986   5.914   6.129 -0.8040 -0.4764  0.6957
 6665SOL    HW220895   3.120   5.961   6.211 -1.0062 -0.7749  1.1992
 6666SOL     OW20896   0.695   6.320   5.887  0.3812 -0.2303 -0.3684
 6666SOL    HW120897   0.658   6.412   5.884  0.2716 -0.2580  0.0304
 6666SOL    HW220898   0.727   6.293   5.796  0.9514  0.4189 -0.3678
 6667SOL     OW20899   0.711   5.644   2.726  0.6350  0.3198 -0.0858
 6667SOL    HW120900   0.792   5.688   2.688  1.6272 -0.3877  1.1192
 6667SOL    HW220901   0.678   5.574   2.662  1.0002  0.5777 -0.5641
 6668SOL     OW20902   5.123   5.740   6.430 -0.3210 -0.0163 -0.2456
 6668SOL    HW120903   5.136   5.701   6.339 -0.5729  1.1343 -0.7960
 6668SOL    HW220904   5.108   5.839   6.422 -2.4208 -0.1905  0.8550
 6669SOL     OW20905   1.972   1.764   2.031 -0.1024 -0.1073 -0.2418
 6669SOL    HW120906   1.991   1.745   2.127 -1.7638 -1.2959 -0.1004
 6669SOL    HW220907   1.988   1.861   2.012  0.6020  0.0703  1.1264
 6670SOL     OW20908   4.040   1.246   4.669 -0.1051 -0.2961  0.3439
 6670SOL    HW120909   4.130   1.248   4.714  0.1114  0.5248 -0.1121
 6670SOL    HW220910   4.030   1.160   4.618  0.7960  0.0060 -0.3594
 6671SOL     OW20911   6.708   6.491   6.600  0.2425 -0.1999 -0.1215
 6671SOL    HW120912   6.631   6.449   6.649  1.0688 -0.2490  1.2036
 6671SOL    HW220913   6.701   6.470   6.503 -1.2704 -0.4141  0.0054
 6672SOL     OW20914   0.969   0.393   0.950 -0.3618 -0.2339  0.1871
 6672SOL    HW120915   1.031   0.315   0.955 -0.7289 -0.4449  3.4575
 6672SOL    HW220916   1.018   0.473   0.917  1.3570 -0.7002  1.4826
 6673SOL     OW20917   5.647   3.742   3.793 -0.2356 -0.2320 -0.2309
 6673SOL    HW120918   5.556   3.754   3.753 -0.2807 -0.6985 -0.2713
 6673SOL    HW220919   5.711   3.807   3.751 -0.4295 -0.2696 -0.5873
 6674SOL     OW20920   0.157   4.494   1.589 -1.1900 -0.4436  0.2967
 6674SOL    HW120921   0.244   4.458   1.554 -0.6953  0.1737  0.8513
 6674SOL    HW220922   0.081   4.454   1.539 -0.4981  0.9438 -1.9901
 6675SOL     OW20923   6.819   2.229   5.780  0.3292 -0.2883  0.4458
 6675SOL    HW120924   6.742   2.287   5.806 -0.0655 -0.8156  0.4746
 6675SOL    HW220925   6.799   2.134   5.804  0.8147 -0.4928  0.0657
 6676SOL     OW20926   5.438   5.056   5.281  1.0009 -0.3989 -0.6918
 6676SOL    HW120927   5.429   5.114   5.362  2.1100 -0.0385 -0.8152
 6676SOL    HW220928   5.423   5.111   5.199  1.0107 -0.5231 -0.7770
 6677SOL     OW20929   6.973   2.890   6.631  0.2004  0.0344 -0.0624
 6677SOL    HW120930   6.944   2.961   6.696 -0.0747  0.2123 -0.3786
 6677SOL    HW220931   6.896   2.866   6.571  0.6822  0.4636 -0.8643
 6678SOL     OW20932   3.012   4.015   0.628 -0.2136  0.2844  0.0297
 6678SOL    HW120933   3.069   3.940   0.660 -0.2011  0.0947 -0.4390
 6678SOL    HW220934   3.036   4.038   0.534  0.0242  1.1123  0.2840
 6679SOL     OW20935   2.941   5.576   4.428  0.4473  0.3333  0.3938
 6679SOL    HW120936   2.891   5.518   4.492  1.2547  0.1581  0.8864
 6679SOL    HW220937   2.887   5.657   4.407 -0.2379 -0.0788  0.5305
 6680SOL     OW20938   4.705   5.591   6.997  0.0731  1.2612 -0.2490
 6680SOL    HW120939   4.704   5.573   7.096 -1.1750  3.3991  0.1864
 6680SOL    HW220940   4.755   5.675   6.979 -0.5234  1.4009 -1.3410
 6681SOL     OW20941   3.289   4.577   6.490 -0.2583  0.5228  0.0386
 6681SOL    HW120942   3.355   4.586   6.564 -2.3509  2.0342  1.8422
 6681SOL    HW220943   3.208   4.529   6.522 -0.5423 -0.3161 -1.8072
 6682SOL     OW20944   0.449   6.572   6.048  0.3177 -0.4641 -0.0074
 6682SOL    HW120945   0.490   6.594   5.959 -0.3827  0.4350 -0.1260
 6682SOL    HW220946   0.447   6.655   6.105  2.3348 -1.3866  1.5354
 6683SOL     OW20947   6.624   4.029   4.648  0.3797 -0.4488  0.1041
 6683SOL    HW120948   6.596   4.084   4.726  0.2317 -0.8414  0.3288
 6683SOL    HW220949   6.617   4.084   4.564 -0.6434 -0.4062  0.2111
 6684SOL     OW20950   3.132   5.509   1.292 -0.5103 -0.0836 -0.7434
 6684SOL    HW120951   3.094   5.460   1.371  2.2041 -0.5275  0.3700
 6684SOL    HW220952   3.152   5.604   1.318  0.5003 -0.2621 -0.8442
 6685SOL     OW20953   4.206   2.806   6.261 -0.1202  0.2286 -0.4071
 6685SOL    HW120954   4.287   2.768   6.217  0.1411 -1.0542  1.0742
 6685SOL    HW220955   4.234   2.876   6.327 -0.3136  0.5376 -0.6518
 6686SOL     OW20956   5.334   0.546   4.323  0.0045  0.1008 -0.0471
 6686SOL    HW120957   5.388   0.489   4.262 -1.0855  0.3719 -1.3400
 6686SOL    HW220958   5.272   0.489   4.377  1.1474 -0.1618  1.0217
 6687SOL     OW20959   0.915   3.210   4.277 -0.1150 -0.1488  0.3040
 6687SOL    HW120960   0.845   3.228   4.345 -0.1922  2.1488 -0.3048
 6687SOL    HW220961   0.872   3.201   4.187  0.3886  2.6989 -0.3006
 6688SOL     OW20962   5.954   5.726   2.973  0.1719  0.2365  0.6083
 6688SOL    HW120963   5.964   5.636   2.929 -0.0721  0.1838  0.6593
 6688SOL    HW220964   5.957   5.715   3.072 -0.3903  0.2170  0.6261
 6689SOL     OW20965   5.493   3.412   0.294 -0.3369 -0.4018  0.2732
 6689SOL    HW120966   5.448   3.324   0.310  0.0140 -0.3859  1.4095
 6689SOL    HW220967   5.450   3.482   0.351  0.5679 -0.2065  0.7290
 6690SOL     OW20968   1.169   5.639   7.009  0.2119  0.0544 -0.6959
 6690SOL    HW120969   1.245   5.592   6.964  0.2083 -0.4988 -0.1339
 6690SOL    HW220970   1.187   5.645   7.107 -0.1946  0.4492 -0.6418
 6691SOL     OW20971   4.340   1.603   2.952 -0.1548 -0.0787  0.1310
 6691SOL    HW120972   4.404   1.555   2.892  1.9743  2.4526  0.1902
 6691SOL    HW220973   4.287   1.537   3.005  1.2962 -2.3099 -1.0592
 6692SOL     OW20974   3.228   2.932   3.548 -0.4786 -0.0093 -0.0021
 6692SOL    HW120975   3.284   2.925   3.631 -0.7119  0.2370  0.1739
 6692SOL    HW220976   3.162   3.006   3.557  0.1990  0.7293 -0.8263
 6693SOL     OW20977   5.652   2.290   4.733  0.5638 -0.0056  0.1647
 6693SOL    HW120978   5.721   2.309   4.802 -0.2441  2.1374  0.4505
 6693SOL    HW220979   5.696   2.267   4.646  1.6718  1.4990  0.2958
 6694SOL     OW20980   4.929   6.021   1.546  0.3809 -0.0316 -0.0986
 6694SOL    HW120981   4.892   6.082   1.475  0.5345 -0.5525 -0.6303
 6694SOL    HW220982   4.915   5.926   1.519  1.6946 -0.2433 -0.1046
 6695SOL     OW20983   2.141   0.156   6.793  0.0060 -0.2082  0.2296
 6695SOL    HW120984   2.146   0.096   6.713 -1.0122 -1.7763  1.2819
 6695SOL    HW220985   2.181   0.245   6.771  0.7176 -0.9544 -1.6767
 6696SOL     OW20986   3.138   3.779   2.838 -0.3543  0.1999 -0.1541
 6696SOL    HW120987   3.106   3.863   2.794  1.0556  0.0214 -1.6109
 6696SOL    HW220988   3.235   3.766   2.818 -0.1774 -1.0152  1.3096
 6697SOL     OW20989   4.569   0.893   3.220  0.3279 -0.4047 -0.0715
 6697SOL    HW120990   4.656   0.915   3.263 -0.4954  0.6562  1.1370
 6697SOL    HW220991   4.513   0.839   3.284 -0.4059  0.0481 -0.3241
 6698SOL     OW20992   3.502   1.864   0.247 -0.1477  0.6563  0.0541
 6698SOL    HW120993   3.541   1.833   0.160 -0.4908  0.0656  0.0998
 6698SOL    HW220994   3.564   1.928   0.291  0.2480  0.5948 -0.4029
 6699SOL     OW20995   2.033   0.688   5.165 -0.4058  0.2812  0.0065
 6699SOL    HW120996   2.075   0.774   5.194  0.4116 -0.3640  0.7815
 6699SOL    HW220997   2.104   0.621   5.145 -1.0213 -1.1337  2.2438
 6700SOL     OW20998   6.634   0.869   1.689  0.2369 -0.2477  0.1525
 6700SOL    HW120999   6.649   0.947   1.750 -1.9791  0.5885 -0.2681
 6700SOL    HW221000   6.598   0.792   1.742  2.3500 -1.0144  0.5544
 6701SOL     OW21001   3.399   4.826   1.448  0.3954  0.5904 -0.2487
 6701SOL    HW121002   3.413   4.741   1.499 -0.0274 -0.2142 -1.4380
 6701SOL    HW221003   3.383   4.900   1.513  0.1124 -0.3522  0.8058
 6702SOL     OW21004   1.507   2.091   2.463  0.2026 -0.0766  0.0776
 6702SOL    HW121005   1.587   2.033   2.445 -0.0540  0.0578 -1.7437
 6702SOL    HW221006   1.458   2.106   2.377 -2.7276 -1.4548  1.3841
 6703SOL     OW21007   0.209   6.824   1.023 -0.0216 -0.7795 -0.2055
 6703SOL    HW121008   0.136   6.804   0.958  0.4747  0.1026 -1.0566
 6703SOL    HW221009   0.232   6.922   1.019 -0.0625 -0.6760  1.3908
 6704SOL     OW21010   4.111   2.211   3.627 -0.1709 -1.0427 -0.3705
 6704SOL    HW121011   4.163   2.126   3.632 -0.0487 -1.2258 -3.0489
 6704SOL    HW221012   4.095   2.235   3.531 -0.4400  1.8307  0.2885
 6705SOL     OW21013   5.844   4.176   1.667 -0.0369 -0.0025  0.2444
 6705SOL    HW121014   5.848   4.129   1.578 -0.3297  1.2539 -0.4630
 6705SOL    HW221015   5.885   4.118   1.737 -0.4012 -1.3107 -0.5800
 6706SOL     OW21016   0.969   4.998   0.375  0.3586  0.2559 -0.3775
 6706SOL    HW121017   0.912   5.058   0.431  1.8841  0.0964  1.4500
 6706SOL    HW221018   1.040   5.052   0.330 -0.5721  0.3126 -1.8416
 6707SOL     OW21019   5.268   1.127   3.814 -0.2292 -0.2535  0.5105
 6707SOL    HW121020   5.189   1.079   3.776 -0.1449 -0.8225  1.0435
 6707SOL    HW221021   5.351   1.072   3.799 -0.0625 -0.0571  0.7061
 6708SOL     OW21022   5.519   6.109   3.502  0.3054  0.4518 -0.3165
 6708SOL    HW121023   5.577   6.033   3.473 -0.0499 -0.4816  1.3042
 6708SOL    HW221024   5.430   6.073   3.531  0.9305  1.1125  2.7864
 6709SOL     OW21025   0.200   6.603   3.977  0.0681  0.3317  0.2442
 6709SOL    HW121026   0.130   6.538   3.947  1.1175  0.4089 -2.7068
 6709SOL    HW221027   0.158   6.694   3.988 -0.3362  0.4300 -1.7139
 6710SOL     OW21028   3.795   0.921   5.585  0.2417  0.0427  0.3683
 6710SOL    HW121029   3.741   0.887   5.662  0.6887 -0.8941  0.2761
 6710SOL    HW221030   3.748   0.901   5.499  1.5251 -2.4521  0.1548
 6711SOL     OW21031   3.889   5.888   5.826  0.6104 -0.0858 -0.4680
 6711SOL    HW121032   3.812   5.826   5.841  0.9082 -0.6835 -1.3628
 6711SOL    HW221033   3.908   5.938   5.911 -1.4588  0.8862 -0.5065
 6712SOL     OW21034   6.236   2.365   1.051 -0.1400 -0.0764  0.0262
 6712SOL    HW121035   6.326   2.376   1.009  0.5692  0.6432  1.6490
 6712SOL    HW221036   6.212   2.268   1.054  0.8193 -0.3237  0.0144
 6713SOL     OW21037   1.831   0.610   5.790  0.2812 -0.1976  0.8997
 6713SOL    HW121038   1.870   0.519   5.774  1.6390  0.3815  0.7832
 6713SOL    HW221039   1.787   0.642   5.706  1.1305 -0.1377  0.4612
 6714SOL     OW21040   6.000   4.366   5.448 -0.3111 -0.0838  0.0805
 6714SOL    HW121041   5.963   4.274   5.459  1.4511 -0.9484 -0.7303
 6714SOL    HW221042   6.040   4.375   5.356  0.0889  1.2968  0.3602
 6715SOL     OW21043   0.322   0.667   0.328 -0.5479 -0.0403 -0.2656
 6715SOL    HW121044   0.304   0.669   0.426  1.1490 -1.7080  0.1324
 6715SOL    HW221045   0.269   0.739   0.283 -2.2150  0.0424  1.6985
 6716SOL     OW21046   0.735   5.940   3.557  0.2187 -0.5343  0.7840
 6716SOL    HW121047   0.715   5.871   3.487  0.5436 -0.0111  0.1623
 6716SOL    HW221048   0.798   5.903   3.625  0.8851 -0.6489  0.1091
 6717SOL     OW21049   2.673   4.509   6.781 -0.3422  0.3857  0.6676
 6717SOL    HW121050   2.605   4.481   6.713 -0.0411  1.9613 -0.3398
 6717SOL    HW221051   2.738   4.572   6.739  0.3059  0.8104  2.2392
 6718SOL     OW21052   4.846   6.112   0.557 -0.2075  0.7418 -0.2311
 6718SOL    HW121053   4.755   6.100   0.596 -0.8161  1.8994 -1.2197
 6718SOL    HW221054   4.881   6.202   0.583  1.4169 -0.3294  1.5610
 6719SOL     OW21055   0.775   0.436   6.663 -0.3262  0.5884 -0.3875
 6719SOL    HW121056   0.772   0.454   6.565 -0.8277 -0.9342 -0.6693
 6719SOL    HW221057   0.712   0.498   6.710 -3.0335 -1.1333 -1.4780
 6720SOL     OW21058   1.074   1.508   3.421  0.1892  0.4198  0.1020
 6720SOL    HW121059   1.160   1.492   3.374 -0.5754 -0.0324 -1.1861
 6720SOL    HW221060   1.052   1.430   3.479  1.1202  0.9696  1.2418
 6721SOL     OW21061   6.960   4.737   0.123  0.0598 -0.1759 -0.0467
 6721SOL    HW121062   6.981   4.754   0.220 -2.7246 -0.0966  0.6129
 6721SOL    HW221063   6.865   4.709   0.114  0.7809 -2.1858 -2.5951
 6722SOL     OW21064   6.348   2.985   0.443 -0.1926 -0.0379 -0.2257
 6722SOL    HW121065   6.424   2.976   0.378 -1.7674 -0.6603 -2.0899
 6722SOL    HW221066   6.365   3.062   0.504  1.2705  0.7277 -1.5239
 6723SOL     OW21067   0.343   1.083   4.551 -0.4958  0.1039  0.2564
 6723SOL    HW121068   0.347   1.029   4.467  0.0791  0.1527  0.2489
 6723SOL    HW221069   0.254   1.070   4.595 -0.9040  0.2768 -0.4942
 6724SOL     OW21070   3.321   2.100   1.315 -0.5164 -0.7722  0.0852
 6724SOL    HW121071   3.363   2.104   1.406  0.6523  0.5554 -0.4899
 6724SOL    HW221072   3.238   2.156   1.315  0.9994  1.5662 -0.3959
 6725SOL     OW21073   0.159   3.830   1.292  0.4414  0.4797  0.3716
 6725SOL    HW121074   0.166   3.913   1.347 -0.2115  0.5891  0.3081
 6725SOL    HW221075   0.228   3.764   1.321  0.1447  0.5581  1.2984
 6726SOL     OW21076   0.957   3.055   2.838 -0.7015 -0.0125 -0.2099
 6726SOL    HW121077   1.048   3.049   2.878 -0.0825 -0.3493 -1.6087
 6726SOL    HW221078   0.916   3.143   2.862 -0.1644 -0.0127  0.7455
 6727SOL     OW21079   6.944   5.455   3.807  0.0888  0.6858  0.4629
 6727SOL    HW121080   7.004   5.534   3.802 -0.3815  1.1300  1.5797
 6727SOL    HW221081   6.893   5.447   3.721  2.3726 -0.2752 -0.9030
 6728SOL     OW21082   4.131   2.113   2.581 -0.4541  0.3519 -0.0721
 6728SOL    HW121083   4.103   2.135   2.674 -0.8368  0.3119 -0.1744
 6728SOL    HW221084   4.228   2.132   2.570 -0.5140  0.8323  0.1931
 6729SOL     OW21085   0.454   1.595   1.136 -0.1066  0.5295 -0.2638
 6729SOL    HW121086   0.502   1.670   1.182 -0.4752  0.3876  0.3601
 6729SOL    HW221087   0.516   1.517   1.127 -1.1055 -0.9563  3.6848
 6730SOL     OW21088   1.200   1.148   1.348  0.1583  0.0428  0.5130
 6730SOL    HW121089   1.247   1.184   1.429 -1.0290 -1.7328  2.0676
 6730SOL    HW221090   1.254   1.075   1.307  0.1115 -0.0091  0.5440
 6731SOL     OW21091   2.766   6.742   6.989  0.2751  0.4774  0.1372
 6731SOL    HW121092   2.704   6.765   7.064 -0.1953 -1.3475  0.3439
 6731SOL    HW221093   2.796   6.648   6.998 -1.4010 -0.5247 -3.0239
 6732SOL     OW21094   6.425   5.145   3.657  0.2358 -0.8496  0.1302
 6732SOL    HW121095   6.499   5.085   3.685  0.0982 -1.3968 -0.6498
 6732SOL    HW221096   6.438   5.172   3.562  0.2317  0.2713  0.4358
 6733SOL     OW21097   4.812   3.202   6.374  0.2398 -0.3590 -0.5305
 6733SOL    HW121098   4.844   3.250   6.455  0.6828 -0.8005 -0.4391
 6733SOL    HW221099   4.794   3.268   6.301 -2.6878  0.3480  0.7003
 6734SOL     OW21100   6.379   3.074   4.635 -0.3836  0.6053  0.2424
 6734SOL    HW121101   6.401   3.084   4.538 -0.6278 -1.1632 -0.0234
 6734SOL    HW221102   6.285   3.041   4.645 -0.6367  1.5289  1.1255
 6735SOL     OW21103   5.639   3.055   3.581 -0.2784 -0.2206 -0.0221
 6735SOL    HW121104   5.588   3.117   3.521 -0.8382  0.4254  1.0918
 6735SOL    HW221105   5.676   2.980   3.527 -1.1215  0.1159 -1.1073
 6736SOL     OW21106   2.146   4.371   6.296 -0.5830  0.3767  0.4454
 6736SOL    HW121107   2.135   4.296   6.231 -0.3337  0.7790 -0.0654
 6736SOL    HW221108   2.243   4.380   6.320 -0.4890  1.1013 -0.1799
 6737SOL     OW21109   2.471   3.264   0.659  0.1608  0.4681 -0.1178
 6737SOL    HW121110   2.482   3.278   0.561 -0.0430  1.1288 -0.0541
 6737SOL    HW221111   2.531   3.327   0.708  2.5247 -1.8507  0.1918
 6738SOL     OW21112   0.894   6.301   4.331 -0.3572 -0.0084 -0.0192
 6738SOL    HW121113   0.806   6.254   4.325 -0.5931  0.2868  0.8666
 6738SOL    HW221114   0.940   6.298   4.243 -1.9137  1.0789 -0.9291
 6739SOL     OW21115   6.196   6.667   3.034  0.3442  0.2751 -0.0648
 6739SOL    HW121116   6.269   6.601   3.056  0.1351 -1.0478 -2.8349
 6739SOL    HW221117   6.110   6.636   3.075  0.7396  0.1644  0.6933
 6740SOL     OW21118   5.746   5.859   4.525 -0.2028 -0.1436  0.0037
 6740SOL    HW121119   5.734   5.918   4.445 -1.2014 -0.2616  0.0560
 6740SOL    HW221120   5.809   5.785   4.502  0.3822  0.4406 -0.3301
 6741SOL     OW21121   5.496   2.398   5.323 -0.1347  0.3126  0.3452
 6741SOL    HW121122   5.440   2.373   5.402 -0.5018 -0.0935 -0.0359
 6741SOL    HW221123   5.437   2.407   5.243  0.1875  1.0482  0.1806
 6742SOL     OW21124   5.244   3.468   2.335  0.3620  0.0090  0.3061
 6742SOL    HW121125   5.296   3.451   2.251  1.4612  0.6137  0.8496
 6742SOL    HW221126   5.303   3.510   2.403 -0.8209  0.6119  0.9943
 6743SOL     OW21127   4.813   3.009   0.805 -0.0136  0.7832 -0.5945
 6743SOL    HW121128   4.777   3.075   0.739 -0.3313  0.0894 -1.1289
 6743SOL    HW221129   4.897   3.045   0.845 -1.4671  2.6311  0.9928
 6744SOL     OW21130   6.553   5.665   5.473  0.0799 -0.8379  0.1788
 6744SOL    HW121131   6.638   5.691   5.519  0.0414  0.1782 -0.3085
 6744SOL    HW221132   6.504   5.747   5.443 -1.3505 -1.3774  0.9257
 6745SOL     OW21133   6.837   6.703   3.950 -0.3978  0.6480  1.1932
 6745SOL    HW121134   6.806   6.677   4.042 -0.0638 -1.3408  0.7857
 6745SOL    HW221135   6.758   6.729   3.894 -0.6794  1.1248  1.7875
 6746SOL     OW21136   1.444   0.954   5.225  0.4721 -0.5548  0.3714
 6746SOL    HW121137   1.394   0.973   5.140  0.9877 -0.9962 -0.0356
 6746SOL    HW221138   1.491   1.037   5.256  1.0876 -0.6400 -0.3149
 6747SOL     OW21139   0.156   3.253   5.638 -0.2962 -0.1845  0.3768
 6747SOL    HW121140   0.171   3.171   5.582 -1.3750  0.5026 -0.9976
 6747SOL    HW221141   0.109   3.228   5.722 -2.6471 -0.7762 -1.0188
 6748SOL     OW21142   4.292   1.152   1.212  0.3341  0.3381 -0.0985
 6748SOL    HW121143   4.366   1.110   1.265  0.5693  0.8928  0.0216
 6748SOL    HW221144   4.257   1.086   1.146  1.2127  0.1941 -0.4406
 6749SOL     OW21145   4.686   4.446   5.766 -0.3427  0.0249  0.2168
 6749SOL    HW121146   4.754   4.506   5.807 -0.2509 -0.3870  0.6929
 6749SOL    HW221147   4.639   4.396   5.839  0.7346 -1.7137 -0.2084
 6750SOL     OW21148   3.815   1.780   3.400  0.7826 -0.0349  0.0148
 6750SOL    HW121149   3.845   1.848   3.468  0.6772  0.4155 -0.3801
 6750SOL    HW221150   3.758   1.711   3.445 -2.0536  2.0376 -0.0883
 6751SOL     OW21151   1.028   1.887   4.757 -0.1400 -0.7119 -0.1061
 6751SOL    HW121152   1.088   1.954   4.801  0.0458 -1.5518  0.9723
 6751SOL    HW221153   1.029   1.802   4.810 -1.0552 -1.2721 -0.9557
 6752SOL     OW21154   2.552   0.413   3.365  0.2170  0.2303 -0.0528
 6752SOL    HW121155   2.586   0.319   3.377  0.9317  0.4208 -0.5317
 6752SOL    HW221156   2.563   0.440   3.270  0.2476  0.9002  0.1406
 6753SOL     OW21157   2.530   0.972   5.349 -0.6416 -0.5716  0.4241
 6753SOL    HW121158   2.592   0.995   5.275  0.9730 -1.9023  1.2847
 6753SOL    HW221159   2.477   1.053   5.376  0.7060  0.6009 -0.3505
 6754SOL     OW21160   6.824   0.326   0.863  0.2769  0.0894  0.3180
 6754SOL    HW121161   6.801   0.247   0.921  0.0743 -0.8961 -1.0607
 6754SOL    HW221162   6.746   0.351   0.807  0.3507  1.2887  0.7141
 6755SOL     OW21163   4.093   6.569   0.555  0.2521 -0.4081  0.7633
 6755SOL    HW121164   4.106   6.546   0.651 -3.4278  0.0099  1.4800
 6755SOL    HW221165   4.031   6.503   0.513  0.5308  0.3491 -0.9127
 6756SOL     OW21166   3.086   6.191   4.016 -0.0514 -0.3272 -0.0011
 6756SOL    HW121167   3.041   6.179   4.104  2.0585  1.9428  1.5284
 6756SOL    HW221168   3.121   6.284   4.009  1.3478 -0.9501 -2.5450
 6757SOL     OW21169   3.081   1.225   0.368 -0.2859  0.0784  0.8268
 6757SOL    HW121170   3.161   1.172   0.339  0.0485  0.4494  1.0618
 6757SOL    HW221171   3.068   1.302   0.306  0.1101  0.5636  1.3410
 6758SOL     OW21172   6.192   2.132   1.985 -0.2543  0.1362  0.0361
 6758SOL    HW121173   6.113   2.111   1.928  1.6766 -1.2216 -2.3492
 6758SOL    HW221174   6.250   2.199   1.938  0.9586 -0.3453  0.7932
 6759SOL     OW21175   1.039   5.653   2.915  0.3957  0.1937 -0.0263
 6759SOL    HW121176   1.060   5.713   2.991 -0.1042 -3.0559  2.9251
 6759SOL    HW221177   0.940   5.648   2.901  0.3045 -1.0154  0.8315
 6760SOL     OW21178   5.274   2.959   2.979 -0.9816  0.3327  0.1138
 6760SOL    HW121179   5.266   2.970   2.880 -1.8297  0.5689  0.1919
 6760SOL    HW221180   5.226   3.035   3.024 -2.1638 -0.7309  0.6971
 6761SOL     OW21181   0.336   1.643   4.236 -0.0332 -0.4642  0.0431
 6761SOL    HW121182   0.344   1.736   4.199  0.7795  0.2593  1.9348
 6761SOL    HW221183   0.298   1.583   4.166  0.7264  0.9817 -1.6878
 6762SOL     OW21184   6.996   4.039   4.805 -0.0589 -0.0242  0.1591
 6762SOL    HW121185   6.982   4.110   4.735 -2.5560  0.5492  1.1288
 6762SOL    HW221186   6.977   4.078   4.895  1.5325 -1.1770  1.0247
 6763SOL     OW21187   0.230   5.050   4.088 -0.7072 -0.4983 -0.0308
 6763SOL    HW121188   0.258   5.036   4.183  2.8242  1.2725 -0.6393
 6763SOL    HW221189   0.233   4.963   4.039  0.4932 -0.9479  0.7964
 6764SOL     OW21190   1.544   4.429   2.051  0.3347 -0.1990  0.3742
 6764SOL    HW121191   1.562   4.460   2.144  0.6975 -2.1115  1.0072
 6764SOL    HW221192   1.477   4.354   2.053  2.9036 -2.7255 -0.3985
 6765SOL     OW21193   5.400   3.871   4.102 -0.1776 -0.1950  0.3307
 6765SOL    HW121194   5.394   3.878   4.202 -0.0806  1.3340  0.2433
 6765SOL    HW221195   5.488   3.829   4.077 -0.5329 -1.3295  0.8888
 6766SOL     OW21196   4.304   5.375   5.414 -0.0861 -0.1883 -0.2436
 6766SOL    HW121197   4.346   5.465   5.427 -1.7344  0.7622 -1.1639
 6766SOL    HW221198   4.300   5.326   5.501 -0.1205  1.0790  0.4802
 6767SOL     OW21199   1.543   5.896   0.172 -0.7249  0.2230  0.4403
 6767SOL    HW121200   1.619   5.851   0.125 -1.0102 -0.3920  0.5502
 6767SOL    HW221201   1.537   5.992   0.143  0.4169  0.4264  0.8330
 6768SOL     OW21202   1.311   6.517   5.830  0.1731 -0.4115  0.4371
 6768SOL    HW121203   1.235   6.543   5.770 -0.0532 -0.1732  0.8275
 6768SOL    HW221204   1.397   6.550   5.790  0.1008 -0.8872 -0.1234
 6769SOL     OW21205   2.851   5.767   5.635  0.1381 -0.1034 -0.3868
 6769SOL    HW121206   2.768   5.713   5.626 -0.0746  0.2950 -0.8492
 6769SOL    HW221207   2.898   5.772   5.547  1.4786 -1.6171  0.1923
 6770SOL     OW21208   6.361   1.527   1.786 -0.0648  0.0406 -0.1285
 6770SOL    HW121209   6.445   1.525   1.732 -0.3091  0.7243 -0.5404
 6770SOL    HW221210   6.354   1.615   1.833 -1.3351  0.6314 -1.3634
 6771SOL     OW21211   4.096   2.267   3.368 -0.1371  0.1453  0.0530
 6771SOL    HW121212   4.088   2.266   3.268  0.4239 -2.5620 -0.0615
 6771SOL    HW221213   4.191   2.289   3.393 -0.2908  0.8798  0.0065
 6772SOL     OW21214   3.665   1.425   2.799  0.3239 -0.1371  0.0499
 6772SOL    HW121215   3.663   1.525   2.808 -0.1213 -0.0825 -0.6392
 6772SOL    HW221216   3.575   1.388   2.819  0.1759 -0.2956 -0.8945
 6773SOL     OW21217   0.195   6.469   4.756  0.3888  0.2665  0.9412
 6773SOL    HW121218   0.194   6.385   4.810  0.2294  0.9891  2.0962
 6773SOL    HW221219   0.196   6.446   4.659 -1.9073 -1.0856  1.1798
 6774SOL     OW21220   1.355   2.968   4.996 -0.9825 -0.3934  0.1268
 6774SOL    HW121221   1.367   2.872   4.971 -0.1217 -0.6011  1.2514
 6774SOL    HW221222   1.309   2.974   5.085  2.5651  0.0409  2.1264
 6775SOL     OW21223   2.542   2.084   2.255 -0.3954 -0.7081 -0.3971
 6775SOL    HW121224   2.553   2.072   2.156 -2.7078 -0.2694 -0.7793
 6775SOL    HW221225   2.582   2.172   2.282 -0.7599 -0.2849 -1.1774
 6776SOL     OW21226   4.343   5.461   5.849 -0.1620 -0.0619  0.1538
 6776SOL    HW121227   4.295   5.423   5.770 -0.0400 -0.4040  0.2427
 6776SOL    HW221228   4.385   5.387   5.901  0.9404  0.2725 -0.2317
 6777SOL     OW21229   6.050   3.954   0.635 -0.3648 -0.1595  0.2407
 6777SOL    HW121230   6.138   3.908   0.643 -0.5903 -0.6592 -0.0990
 6777SOL    HW221231   6.058   4.031   0.571 -0.1847 -0.2152  0.1953
 6778SOL     OW21232   0.077   5.142   1.002 -0.7628 -0.6776 -0.0976
 6778SOL    HW121233   0.073   5.190   0.914  0.7448  1.5463  0.9500
 6778SOL    HW221234  -0.012   5.146   1.047 -0.4461  2.2718  0.4428
 6779SOL     OW21235   4.505   6.179   1.817  0.5878  0.0275  0.5755
 6779SOL    HW121236   4.445   6.171   1.897  0.6822  0.9513  0.7524
 6779SOL    HW221237   4.598   6.156   1.842  0.9490  1.9751  1.1951
 6780SOL     OW21238   0.493   2.726   3.180  0.3312 -0.2983  0.2497
 6780SOL    HW121239   0.504   2.797   3.110 -0.1638  0.5388  1.0037
 6780SOL    HW221240   0.496   2.636   3.137 -2.8238  0.2013 -1.3097
 6781SOL     OW21241   6.006   0.725   3.435 -0.3961  0.0208 -0.4207
 6781SOL    HW121242   5.986   0.631   3.460 -0.9947 -0.1297 -1.4125
 6781SOL    HW221243   5.921   0.772   3.412 -0.1358  0.8942  0.3248
 6782SOL     OW21244   1.298   0.810   3.689  0.5414  0.2978  0.0860
 6782SOL    HW121245   1.324   0.739   3.754 -1.9904 -0.4796  0.3855
 6782SOL    HW221246   1.284   0.896   3.738 -0.5380 -0.0826  0.4832
 6783SOL     OW21247   5.375   0.893   6.862 -0.0972  0.0765 -0.0891
 6783SOL    HW121248   5.356   0.856   6.953  1.3054  0.7244  0.5024
 6783SOL    HW221249   5.419   0.823   6.806  0.7838  0.2317  0.3874
 6784SOL     OW21250   1.430   1.360   6.570  0.2728 -0.2664  0.3018
 6784SOL    HW121251   1.522   1.329   6.593  0.9580  1.1828 -0.3865
 6784SOL    HW221252   1.424   1.459   6.580 -0.8544 -0.1856 -0.8531
 6785SOL     OW21253   4.627   5.985   5.244  0.2652 -0.0397  0.4815
 6785SOL    HW121254   4.698   5.948   5.184 -0.6987  0.3324 -0.9413
 6785SOL    HW221255   4.631   6.085   5.243 -0.8611  0.0206 -0.4031
 6786SOL     OW21256   0.665   1.890   6.819 -0.1594 -0.7449  0.7087
 6786SOL    HW121257   0.580   1.908   6.769  0.2644  1.4810  0.6921
 6786SOL    HW221258   0.710   1.976   6.840  2.1099 -1.8580  0.7467
 6787SOL     OW21259   1.892   2.152   0.511 -0.0282 -0.1927 -0.4709
 6787SOL    HW121260   1.892   2.252   0.508 -0.4288 -0.1025  1.1589
 6787SOL    HW221261   1.799   2.119   0.522  0.1033 -0.7481 -1.0145
 6788SOL     OW21262   0.493   3.523   1.198  1.1984  0.1188 -0.2480
 6788SOL    HW121263   0.511   3.427   1.221  3.5552  0.5334 -0.0330
 6788SOL    HW221264   0.459   3.570   1.279  1.4425 -0.2448  0.0747
 6789SOL     OW21265   0.341   4.154   2.988 -0.6354 -0.0389 -0.4609
 6789SOL    HW121266   0.341   4.253   2.976  1.1762 -0.1727 -2.0438
 6789SOL    HW221267   0.424   4.127   3.038 -0.7485 -0.8044 -0.6718
 6790SOL     OW21268   6.999   3.086   1.643 -0.1037 -0.3839  0.3626
 6790SOL    HW121269   6.914   3.097   1.695 -0.6635 -0.2817 -0.5452
 6790SOL    HW221270   7.071   3.141   1.685 -0.6912  0.1293  0.7137
 6791SOL     OW21271   4.797   2.546   1.801  0.0053 -0.0035 -0.4825
 6791SOL    HW121272   4.854   2.499   1.868 -0.2749 -0.3149 -0.4598
 6791SOL    HW221273   4.842   2.543   1.712  0.9483  1.4450 -0.0880
 6792SOL     OW21274   6.871   0.090   5.507 -0.2739 -0.0987  0.0702
 6792SOL    HW121275   6.773   0.102   5.518 -0.1672  0.2699  0.6288
 6792SOL    HW221276   6.913   0.066   5.595  0.1331 -0.2781 -0.1669
 6793SOL     OW21277   1.786   0.336   3.008 -0.6768  0.2686  0.6641
 6793SOL    HW121278   1.877   0.307   2.978 -1.0521 -1.9192  1.5038
 6793SOL    HW221279   1.756   0.280   3.085 -2.5549  1.2816  0.7362
 6794SOL     OW21280   3.742   0.355   4.921  0.2886 -0.1469  0.0145
 6794SOL    HW121281   3.652   0.401   4.923  0.6363  0.5404  0.2554
 6794SOL    HW221282   3.772   0.344   4.827  0.0755 -0.1239 -0.0567
 6795SOL     OW21283   0.929   1.037   1.279 -0.8246  0.0892  0.1576
 6795SOL    HW121284   1.022   1.075   1.272 -0.8382  0.1144  0.1115
 6795SOL    HW221285   0.927   0.965   1.348 -0.4624 -0.8333 -0.7652
 6796SOL     OW21286   0.793   1.531   3.451 -0.1817  0.4436  0.4062
 6796SOL    HW121287   0.882   1.553   3.410 -1.7030  1.4620 -2.6957
 6796SOL    HW221288   0.762   1.443   3.416 -1.7236  1.5450 -1.1987
 6797SOL     OW21289   6.951   2.450   2.910 -0.4345 -0.6421 -0.3235
 6797SOL    HW121290   6.986   2.480   2.999  0.0814  1.5540 -1.2078
 6797SOL    HW221291   6.855   2.425   2.918 -0.6040  0.2740  0.7205
 6798SOL     OW21292   5.761   5.402   2.000  0.3798 -0.2642 -0.1224
 6798SOL    HW121293   5.781   5.314   2.042 -1.0513 -1.0311 -0.9571
 6798SOL    HW221294   5.831   5.423   1.931  1.1096 -0.3987  0.5671
 6799SOL     OW21295   0.681   0.452   0.580 -0.0824  0.4265 -0.1283
 6799SOL    HW121296   0.671   0.551   0.593 -1.6003  0.4646 -1.2636
 6799SOL    HW221297   0.681   0.406   0.668 -1.5871  1.2817  0.3586
 6800SOL     OW21298   1.216   4.982   2.567  0.1248 -0.3638  0.1800
 6800SOL    HW121299   1.271   5.031   2.500 -3.4980  0.6225 -2.3534
 6800SOL    HW221300   1.206   4.887   2.539  0.4086 -0.5181  0.5852
 6801SOL     OW21301   1.543   5.303   3.280  0.0304  0.1924  0.2149
 6801SOL    HW121302   1.619   5.362   3.307  0.5253 -0.7207  0.8632
 6801SOL    HW221303   1.492   5.275   3.362 -1.1309  0.9272 -0.2195
 6802SOL     OW21304   1.773   0.044   1.190  0.4702 -0.5119  0.2766
 6802SOL    HW121305   1.723   0.053   1.275 -0.1533 -1.5453  0.0317
 6802SOL    HW221306   1.712   0.061   1.113  0.8987 -0.1249  0.0162
 6803SOL     OW21307   5.438   3.551   4.172  0.0149  0.0798 -0.0894
 6803SOL    HW121308   5.453   3.514   4.264  1.3715 -0.7190 -0.5832
 6803SOL    HW221309   5.516   3.607   4.146  1.4704 -2.5810 -2.0449
 6804SOL     OW21310   4.408   4.652   3.753 -0.2028 -0.4105  0.4833
 6804SOL    HW121311   4.319   4.689   3.726 -0.4351  0.0387  1.7845
 6804SOL    HW221312   4.478   4.722   3.741 -0.3227 -0.1766  1.1064
 6805SOL     OW21313   0.395   5.346   0.342 -0.6171 -0.1528 -0.3768
 6805SOL    HW121314   0.340   5.306   0.269  0.4859 -0.9105 -0.8186
 6805SOL    HW221315   0.447   5.423   0.306 -1.4838  0.6596  0.0765
 6806SOL     OW21316   6.183   2.537   4.583  0.0150 -0.4448  0.5705
 6806SOL    HW121317   6.204   2.567   4.490 -0.8242  4.3581  1.6363
 6806SOL    HW221318   6.264   2.547   4.640 -0.5493  1.0154  1.1676
 6807SOL     OW21319   2.987   2.660   1.022 -0.1580 -0.7073  0.2992
 6807SOL    HW121320   3.077   2.651   0.979  0.6452  0.8199  1.5546
 6807SOL    HW221321   2.943   2.571   1.027  1.0652 -1.4089 -0.7738
 6808SOL     OW21322   6.865   2.553   5.198  0.1746  0.2321  0.0496
 6808SOL    HW121323   6.909   2.609   5.128 -0.8334  0.9488 -0.0311
 6808SOL    HW221324   6.766   2.559   5.188  0.0325 -0.9045  0.5785
 6809SOL     OW21325   0.968   1.673   2.841 -0.1215  0.0537  0.4371
 6809SOL    HW121326   0.888   1.731   2.830 -0.4898  0.0046  2.5376
 6809SOL    HW221327   1.045   1.728   2.874 -0.2235 -0.4612  1.5757
 6810SOL     OW21328   0.855   1.401   4.010  0.5500 -0.2148  0.4118
 6810SOL    HW121329   0.899   1.458   3.940  1.1949 -1.4033 -0.1638
 6810SOL    HW221330   0.757   1.422   4.012  0.3347 -0.8367 -1.5509
 6811SOL     OW21331   5.845   3.553   1.507 -0.0362 -0.0870 -0.5872
 6811SOL    HW121332   5.793   3.495   1.570 -0.0653  0.0827 -0.4537
 6811SOL    HW221333   5.817   3.649   1.520  0.1544 -0.0217 -0.6657
 6812SOL     OW21334   3.687   3.282   4.639  0.2290 -0.2216 -0.1475
 6812SOL    HW121335   3.737   3.197   4.658  1.7427  0.8835  1.0048
 6812SOL    HW221336   3.722   3.322   4.554  0.0852 -0.3183 -0.2537
 6813SOL     OW21337   6.117   2.904   3.249 -0.8653 -0.1061  0.7424
 6813SOL    HW121338   6.141   2.927   3.154  0.9116 -0.2263  1.1243
 6813SOL    HW221339   6.198   2.915   3.307 -1.6095 -1.2033  2.0416
 6814SOL     OW21340   2.689   2.717   5.303 -0.4739  0.3340  0.8705
 6814SOL    HW121341   2.636   2.788   5.349  0.8185  1.4476  0.6964
 6814SOL    HW221342   2.772   2.698   5.355 -0.3480 -0.3731  0.4194
 6815SOL     OW21343   2.981   6.879   1.944 -0.5237 -0.1947 -0.4517
 6815SOL    HW121344   2.910   6.898   1.877 -1.7325 -2.3134  0.1305
 6815SOL    HW221345   3.011   6.784   1.934 -0.3152 -0.3791  1.5879
 6816SOL     OW21346   6.497   6.076   0.016  0.1571 -0.1506  0.3951
 6816SOL    HW121347   6.445   6.156   0.043  0.6145  0.1456  0.4110
 6816SOL    HW221348   6.503   6.012   0.093 -3.2621 -1.9138 -0.6061
 6817SOL     OW21349   6.695   3.372   2.721 -0.2945 -0.0710  0.6457
 6817SOL    HW121350   6.774   3.427   2.693 -2.9484  3.9481  0.1578
 6817SOL    HW221351   6.704   3.348   2.818  0.9631  1.4494  0.9449
 6818SOL     OW21352   2.534   0.046   1.410  0.2612  0.2249 -0.4811
 6818SOL    HW121353   2.582   0.116   1.463  1.9428 -0.8068 -0.5997
 6818SOL    HW221354   2.558  -0.045   1.444 -1.5824 -0.3537 -0.5983
 6819SOL     OW21355   4.483   2.515   4.696  0.8088  0.4371 -0.2784
 6819SOL    HW121356   4.567   2.463   4.714  2.1967  2.7950  0.5328
 6819SOL    HW221357   4.404   2.461   4.725  2.0314 -1.7357 -0.7738
 6820SOL     OW21358   2.014   0.280   0.674 -0.4774 -0.2970  0.1730
 6820SOL    HW121359   2.021   0.350   0.602  3.0853 -0.3594  0.3021
 6820SOL    HW221360   1.962   0.318   0.751  0.9353  2.1247  0.0522
 6821SOL     OW21361   3.207   2.529   5.991  1.1466 -0.0204 -0.0280
 6821SOL    HW121362   3.186   2.472   6.071  0.5026 -2.1944 -1.6478
 6821SOL    HW221363   3.273   2.481   5.933 -0.2477  0.3302 -2.0036
 6822SOL     OW21364   2.460   0.607   6.607  0.3212 -0.0916 -0.4938
 6822SOL    HW121365   2.404   0.675   6.654 -2.2650 -1.8631 -0.8201
 6822SOL    HW221366   2.454   0.622   6.508  3.6011  1.9859 -0.5265
 6823SOL     OW21367   4.453   2.729   0.211  0.4435  0.0655 -0.0647
 6823SOL    HW121368   4.434   2.827   0.224  0.5729  0.2233 -1.0192
 6823SOL    HW221369   4.429   2.680   0.295 -0.3626  0.8083  0.1634
 6824SOL     OW21370   0.999   3.392   6.698 -0.0564 -0.6644  0.2987
 6824SOL    HW121371   0.914   3.374   6.747 -0.3680 -0.3781 -0.1403
 6824SOL    HW221372   1.076   3.384   6.762 -0.5348  0.7540  1.0931
 6825SOL     OW21373   4.807   5.248   2.511 -1.1821 -0.0117 -0.0116
 6825SOL    HW121374   4.748   5.177   2.550  0.4751 -2.5025 -1.7578
 6825SOL    HW221375   4.888   5.260   2.569 -0.1148 -1.6390 -1.0948
 6826SOL     OW21376   1.705   3.561   4.751  0.2995 -0.1582 -0.8985
 6826SOL    HW121377   1.610   3.531   4.740 -0.3633  0.9667  1.2431
 6826SOL    HW221378   1.706   3.652   4.791  2.2594 -0.9970  1.1666
 6827SOL     OW21379   2.987   5.074   6.543 -0.0015 -0.4117  0.0215
 6827SOL    HW121380   2.900   5.123   6.533 -0.0173 -0.5851 -0.7341
 6827SOL    HW221381   3.013   5.034   6.455  0.0684 -1.6578  0.5870
 6828SOL     OW21382   4.440   3.619   1.271  0.2418 -0.1456  0.1085
 6828SOL    HW121383   4.384   3.671   1.334  2.0943  0.4166  1.3860
 6828SOL    HW221384   4.442   3.523   1.300  2.0935  0.3215  1.7875
 6829SOL     OW21385   4.164   6.689   4.994 -0.5463  0.3320  0.1955
 6829SOL    HW121386   4.093   6.691   4.924 -1.0279  1.3086  0.6939
 6829SOL    HW221387   4.196   6.782   5.012  1.0718 -0.1079 -0.2102
 6830SOL     OW21388   5.441   6.454   4.774  0.1348 -0.5770 -0.6735
 6830SOL    HW121389   5.460   6.533   4.832 -0.1491  0.2536 -1.6836
 6830SOL    HW221390   5.453   6.370   4.827 -2.1859  0.1752  1.2275
 6831SOL     OW21391   2.316   1.616   0.930  0.2121 -0.2299  0.3386
 6831SOL    HW121392   2.351   1.616   0.836 -0.5567  3.1197 -0.0486
 6831SOL    HW221393   2.346   1.698   0.977 -1.1996 -0.8083  2.3559
 6832SOL     OW21394   0.083   3.486   0.876 -1.0344  0.8485  0.5854
 6832SOL    HW121395  -0.014   3.512   0.874 -0.7776  1.7350 -0.8029
 6832SOL    HW221396   0.089   3.386   0.883 -2.0331  0.8054  1.1500
 6833SOL     OW21397   2.261   5.494   6.171 -0.5788  0.6484 -0.1883
 6833SOL    HW121398   2.338   5.557   6.183 -1.1870  1.7921 -1.9163
 6833SOL    HW221399   2.188   5.518   6.235  0.0143  0.3404  0.6137
 6834SOL     OW21400   3.396   6.260   0.930 -0.2172  0.0293 -0.0245
 6834SOL    HW121401   3.477   6.208   0.956  0.4802  0.8419 -0.5236
 6834SOL    HW221402   3.380   6.333   0.997 -0.0288  0.4119 -0.3964
 6835SOL     OW21403   3.409   0.096   3.684  0.0211  0.5811  0.0606
 6835SOL    HW121404   3.317   0.057   3.678 -0.0660  0.5750  1.1837
 6835SOL    HW221405   3.414   0.178   3.627 -0.5826  0.3940 -0.2729
 6836SOL     OW21406   3.233   6.103   0.594  0.0528  0.0542  0.3678
 6836SOL    HW121407   3.322   6.112   0.549  0.4408 -0.3591  1.0283
 6836SOL    HW221408   3.240   6.036   0.668 -1.1578 -0.9987 -0.4400
 6837SOL     OW21409   6.186   1.851   1.907 -0.1081 -0.2017 -0.1371
 6837SOL    HW121410   6.153   1.918   1.842 -0.9137 -0.7855 -0.3469
 6837SOL    HW221411   6.285   1.858   1.916 -0.2119  1.2194  0.0918
 6838SOL     OW21412   4.507   5.499   5.248  0.2933 -0.3919 -0.1106
 6838SOL    HW121413   4.549   5.409   5.258  1.7455  0.2257 -0.5079
 6838SOL    HW221414   4.487   5.517   5.152  1.2005  0.2200 -0.1963
 6839SOL     OW21415   5.946   0.932   1.215  0.2178  0.0668  0.5642
 6839SOL    HW121416   5.945   0.919   1.314 -2.5570  0.3437  0.6362
 6839SOL    HW221417   5.937   1.029   1.193 -1.3547 -0.1662  0.0741
 6840SOL     OW21418   4.477   6.735   6.602  0.3030 -0.2524  0.3995
 6840SOL    HW121419   4.565   6.698   6.631  0.4720 -0.8669 -0.8011
 6840SOL    HW221420   4.481   6.834   6.601  1.2323 -0.2828 -0.3430
 6841SOL     OW21421   4.818   4.785   0.563  0.8355 -0.4725  0.3182
 6841SOL    HW121422   4.913   4.816   0.560  1.0899 -1.2641 -2.0259
 6841SOL    HW221423   4.768   4.822   0.485 -1.1679  0.9155  2.1510
 6842SOL     OW21424   1.184   5.089   1.387  0.3648 -0.1927  0.1251
 6842SOL    HW121425   1.149   5.157   1.452  0.3597 -1.1783  1.1906
 6842SOL    HW221426   1.224   5.013   1.438  0.4966 -0.9197 -1.0455
 6843SOL     OW21427   4.567   1.273   1.884  0.2443 -0.1115 -0.0462
 6843SOL    HW121428   4.635   1.342   1.861 -0.3091  0.2271 -0.6917
 6843SOL    HW221429   4.516   1.302   1.965 -2.0199  1.7656 -1.9729
 6844SOL     OW21430   4.544   0.918   4.581  0.2776  0.1578 -0.1389
 6844SOL    HW121431   4.637   0.940   4.551  0.1726  0.6663 -0.0902
 6844SOL    HW221432   4.545   0.828   4.625  0.8695  0.4424  0.4515
 6845SOL     OW21433   5.758   2.851   3.142  0.1228 -0.0182 -0.7468
 6845SOL    HW121434   5.667   2.889   3.125  0.1273 -0.0727 -0.9031
 6845SOL    HW221435   5.812   2.855   3.057  0.1861 -0.1993 -0.7174
 6846SOL     OW21436   4.500   2.886   6.499 -0.0924  0.6659 -0.1470
 6846SOL    HW121437   4.576   2.892   6.435  0.6408  3.5858  0.8409
 6846SOL    HW221438   4.528   2.924   6.587 -2.9380  2.8534 -0.0531
 6847SOL     OW21439   0.806   1.816   6.587  0.1086  0.0770 -0.2632
 6847SOL    HW121440   0.745   1.847   6.660  1.0684  1.9766 -0.2043
 6847SOL    HW221441   0.766   1.838   6.498 -0.0805 -0.2930 -0.2733
 6848SOL     OW21442   3.144   5.045   3.843  0.2411  0.2549 -0.0467
 6848SOL    HW121443   3.052   5.009   3.863  0.6178 -1.1817 -0.7621
 6848SOL    HW221444   3.208   5.010   3.911  0.1128  2.0903  1.0669
 6849SOL     OW21445   3.621   3.914   5.363  0.7320  0.1351  0.3337
 6849SOL    HW121446   3.556   3.973   5.315  0.9101  0.1833  0.1500
 6849SOL    HW221447   3.579   3.825   5.380  0.2202  0.5296  1.2103
 6850SOL     OW21448   5.324   4.670   3.305 -0.4164  0.9228  0.7957
 6850SOL    HW121449   5.386   4.642   3.232 -0.8107 -0.5990  1.0258
 6850SOL    HW221450   5.290   4.762   3.285 -1.1387  0.2422 -1.3920
 6851SOL     OW21451   0.114   1.166   1.600 -0.0735 -0.0451 -0.0458
 6851SOL    HW121452   0.060   1.248   1.586 -0.0090  0.2957  1.4914
 6851SOL    HW221453   0.055   1.086   1.597 -0.7306  0.3221  1.6258
 6852SOL     OW21454   2.288   1.068   6.337  0.4348 -0.6427  0.4805
 6852SOL    HW121455   2.213   1.066   6.270 -0.0229  1.2688  0.8781
 6852SOL    HW221456   2.335   1.155   6.331  2.1146 -1.4941  0.8404
 6853SOL     OW21457   4.434   5.415   0.806  0.1506  0.4540 -0.2147
 6853SOL    HW121458   4.410   5.447   0.714 -0.6542  0.8783  0.1239
 6853SOL    HW221459   4.379   5.466   0.873  1.4016  0.8159  0.5597
 6854SOL     OW21460   6.277   2.035   5.999  0.3615 -0.1767  0.1887
 6854SOL    HW121461   6.244   1.941   6.005 -1.6334  0.4586 -0.2165
 6854SOL    HW221462   6.229   2.092   6.066  1.6009  0.5557  0.4844
 6855SOL     OW21463   4.290   1.085   4.302  0.8000  0.2424  0.0853
 6855SOL    HW121464   4.321   1.132   4.384  2.1361 -0.4143 -0.0067
 6855SOL    HW221465   4.211   1.027   4.324  1.5582 -0.4493  1.0789
 6856SOL     OW21466   1.595   3.222   5.615 -0.2200 -0.3688  0.5589
 6856SOL    HW121467   1.542   3.304   5.593 -0.3993 -0.6715 -0.1803
 6856SOL    HW221468   1.646   3.236   5.700 -0.2479  0.5081  0.4366
 6857SOL     OW21469   4.487   1.394   6.361 -0.0659 -0.0535  0.1528
 6857SOL    HW121470   4.515   1.326   6.429 -0.2128 -0.1813  0.0858
 6857SOL    HW221471   4.395   1.373   6.330  0.6513 -1.0675 -1.4313
 6858SOL     OW21472   3.376   2.570   0.454  0.6041  0.4941  0.0918
 6858SOL    HW121473   3.283   2.551   0.483 -0.0986  1.2251 -1.5265
 6858SOL    HW221474   3.419   2.486   0.420 -0.1703  0.4942 -0.9472
 6859SOL     OW21475   1.453   1.825   1.926  0.0701  0.7352 -0.5521
 6859SOL    HW121476   1.395   1.762   1.978 -0.3902  0.6266 -1.1901
 6859SOL    HW221477   1.397   1.898   1.887  0.4955  1.1349 -0.4269
 6860SOL     OW21478   5.787   5.260   1.652 -0.3904 -0.0391  0.3399
 6860SOL    HW121479   5.775   5.332   1.720 -1.2546  0.3828 -0.2515
 6860SOL    HW221480   5.700   5.240   1.607  0.3411  0.4768 -1.4266
 6861SOL     OW21481   4.774   4.332   6.179 -0.1078  0.2541  0.8315
 6861SOL    HW121482   4.854   4.338   6.120 -0.2723 -0.5402  0.5094
 6861SOL    HW221483   4.770   4.242   6.221  0.4156  1.0537  2.6824
 6862SOL     OW21484   1.761   4.778   0.003  0.5925 -0.1333  0.2706
 6862SOL    HW121485   1.782   4.787  -0.094  0.4969 -2.2881  0.0119
 6862SOL    HW221486   1.805   4.696   0.039 -3.2407 -2.1375  0.8650
 6863SOL     OW21487   6.319   0.748   5.312 -0.7781  0.2711  0.2119
 6863SOL    HW121488   6.258   0.816   5.352 -0.0369  0.2500  1.4189
 6863SOL    HW221489   6.347   0.682   5.381  3.7283  2.5052  0.9393
 6864SOL     OW21490   2.391   5.942   5.682  0.2188 -0.0044  0.1214
 6864SOL    HW121491   2.297   5.976   5.674  0.6158  0.9120 -0.9016
 6864SOL    HW221492   2.391   5.842   5.673 -0.2371  0.1725 -5.4139
 6865SOL     OW21493   0.729   4.915   5.062 -0.6050 -0.1510 -0.1472
 6865SOL    HW121494   0.786   4.860   5.000 -0.6874 -0.1761 -0.2015
 6865SOL    HW221495   0.695   4.995   5.013 -0.3336  0.0478 -0.0149
 6866SOL     OW21496   4.484   6.402   4.583  0.6873 -0.2513  0.0845
 6866SOL    HW121497   4.473   6.405   4.682 -0.4109  0.7174 -0.0403
 6866SOL    HW221498   4.502   6.495   4.549 -0.5727 -0.2904 -0.7702
 6867SOL     OW21499   2.084   5.704   2.557  0.1157 -0.7648 -0.2890
 6867SOL    HW121500   2.175   5.664   2.566  0.9976  1.1210 -0.2129
 6867SOL    HW221501   2.077   5.784   2.617 -1.4903 -0.6778 -0.5395
 6868SOL     OW21502   0.426   5.411   4.760  0.4993  0.5184 -0.5734
 6868SOL    HW121503   0.447   5.436   4.665 -0.6620  2.3782 -0.3799
 6868SOL    HW221504   0.358   5.338   4.760  1.9372 -0.9064 -1.1339
 6869SOL     OW21505   4.289   0.826   6.895 -0.2540 -0.1750 -0.4734
 6869SOL    HW121506   4.244   0.784   6.817  0.6299 -0.2029 -0.9867
 6869SOL    HW221507   4.305   0.758   6.966  0.6004 -0.5848 -1.0410
 6870SOL     OW21508   6.803   4.410   0.600  0.0377 -0.0848  0.0971
 6870SOL    HW121509   6.822   4.459   0.515 -0.3988  1.4057  0.8121
 6870SOL    HW221510   6.869   4.337   0.612  0.0653 -0.3656 -1.5447
 6871SOL     OW21511   4.756   6.370   4.561  0.3267 -0.0895 -0.0616
 6871SOL    HW121512   4.774   6.433   4.485 -1.5385 -0.1923 -0.6437
 6871SOL    HW221513   4.657   6.366   4.578  0.2384 -3.5830 -0.7045
 6872SOL     OW21514   1.138   3.088   1.196  0.1517 -0.5243 -0.3417
 6872SOL    HW121515   1.110   3.167   1.142  1.0763  0.3674  0.4387
 6872SOL    HW221516   1.131   3.005   1.141  1.0818  0.3502 -1.8217
 6873SOL     OW21517   1.989   2.614   4.329 -0.1169  0.5714  0.4823
 6873SOL    HW121518   2.009   2.666   4.412  0.3467 -0.5617  1.1085
 6873SOL    HW221519   1.892   2.622   4.307 -0.2648  0.8042  1.2045
 6874SOL     OW21520   1.234   4.823   1.136  0.0011  0.0557 -0.4194
 6874SOL    HW121521   1.163   4.880   1.178 -0.8786 -1.2519 -0.0673
 6874SOL    HW221522   1.191   4.747   1.088  1.1665 -1.0236  0.1959
 6875SOL     OW21523   2.170   4.137   2.657  0.0124  0.4158  0.0188
 6875SOL    HW121524   2.136   4.052   2.616 -1.5312  0.1530  1.7288
 6875SOL    HW221525   2.209   4.195   2.585  0.1927 -1.3011 -1.3286
 6876SOL     OW21526   4.003   0.260   3.437 -0.2342 -0.1080  0.5162
 6876SOL    HW121527   3.919   0.284   3.389 -0.6486  1.4363  1.8922
 6876SOL    HW221528   3.991   0.172   3.483 -1.1159  0.0961  0.7018
 6877SOL     OW21529   0.210   5.590   1.815 -0.5823 -0.9654  0.3392
 6877SOL    HW121530   0.140   5.598   1.745 -0.3430 -2.2601 -0.0829
 6877SOL    HW221531   0.189   5.511   1.874 -0.1959 -0.5513  1.0488
 6878SOL     OW21532   4.104   6.451   3.583  0.6015 -0.1826  0.7984
 6878SOL    HW121533   4.084   6.375   3.644  1.6462  0.4635  1.9904
 6878SOL    HW221534   4.137   6.416   3.495 -1.1836 -1.1246  0.4705
 6879SOL     OW21535   0.820   3.383   1.308 -0.5740 -0.4389 -0.2900
 6879SOL    HW121536   0.763   3.347   1.234  0.6633 -0.0514 -1.4908
 6879SOL    HW221537   0.787   3.474   1.334 -0.8386 -0.4413 -0.6057
 6880SOL     OW21538   3.206   6.079   5.365  0.0964  0.0714 -0.2660
 6880SOL    HW121539   3.132   6.048   5.306 -1.2104  1.1030  0.7883
 6880SOL    HW221540   3.206   6.179   5.369  0.3692  0.0234  1.2339
 6881SOL     OW21541   1.851   3.106   0.840  0.3941 -0.4782 -0.3196
 6881SOL    HW121542   1.951   3.102   0.841  0.3841 -0.5410  0.3411
 6881SOL    HW221543   1.819   3.172   0.907 -0.0361 -1.0081  0.0015
 6882SOL     OW21544   3.448   6.518   0.288  0.4462  0.1019 -0.3630
 6882SOL    HW121545   3.378   6.512   0.359  1.4272  0.1432  0.6491
 6882SOL    HW221546   3.442   6.439   0.228 -1.3336  0.7958 -1.1468
 6883SOL     OW21547   5.280   1.170   6.443  0.6068  0.2834 -0.3756
 6883SOL    HW121548   5.270   1.128   6.352 -0.3682 -0.5274  0.0881
 6883SOL    HW221549   5.195   1.216   6.468  0.9347  0.6649  0.0564
 6884SOL     OW21550   6.588   5.340   2.996  0.4489  0.5149  0.3349
 6884SOL    HW121551   6.505   5.383   3.032  0.7865  2.6698 -1.2421
 6884SOL    HW221552   6.590   5.244   3.023 -2.7214  0.2874  0.1463
 6885SOL     OW21553   5.270   5.206   5.847  0.5530  0.0227 -0.0045
 6885SOL    HW121554   5.326   5.271   5.797 -1.5104  0.8912 -1.3535
 6885SOL    HW221555   5.220   5.253   5.920 -0.4517 -0.1149 -0.5711
 6886SOL     OW21556   6.446   3.113   3.832 -0.1285  0.5293  0.2274
 6886SOL    HW121557   6.347   3.122   3.836 -0.0897  1.3995 -0.3476
 6886SOL    HW221558   6.487   3.163   3.909 -0.1468 -0.2413  0.7463
 6887SOL     OW21559   6.313   6.942   0.226  0.1503  0.1575 -0.1645
 6887SOL    HW121560   6.230   6.904   0.265  0.2557 -0.0688 -0.1597
 6887SOL    HW221561   6.290   7.024   0.173 -0.0137  0.3639  0.2205
 6888SOL     OW21562   6.697   4.673   0.137  0.0758  0.9704  1.0860
 6888SOL    HW121563   6.612   4.633   0.171  0.2655  0.4931  0.9946
 6888SOL    HW221564   6.679   4.721   0.050 -0.1433  1.0684  1.1849
 6889SOL     OW21565   0.545   2.819   1.015  0.1864  0.7137 -0.1675
 6889SOL    HW121566   0.594   2.747   1.065  1.5814  1.9382  0.2947
 6889SOL    HW221567   0.512   2.783   0.928  1.1649 -0.3812 -0.1071
 6890SOL     OW21568   3.415   5.053   1.635  0.4098 -0.2467  0.1433
 6890SOL    HW121569   3.434   5.148   1.610 -1.0467 -0.2254 -1.0140
 6890SOL    HW221570   3.340   5.050   1.701  1.6250 -0.5241  1.5493
 6891SOL     OW21571   2.504   3.678   0.123  0.2025  0.6947 -0.5646
 6891SOL    HW121572   2.486   3.606   0.056  0.1221  1.6222 -1.5722
 6891SOL    HW221573   2.597   3.668   0.158 -0.0253 -0.2691 -0.2078
 6892SOL     OW21574   2.187   2.525   3.418 -0.1886 -0.7003 -0.3957
 6892SOL    HW121575   2.250   2.480   3.354  2.1205  1.6960 -0.0094
 6892SOL    HW221576   2.118   2.576   3.367  0.7638  0.0217 -0.9991
 6893SOL     OW21577   6.334   4.364   0.075  0.1450 -0.6307 -0.4243
 6893SOL    HW121578   6.365   4.428   0.145 -0.1388 -2.5700  1.5707
 6893SOL    HW221579   6.399   4.365  -0.001  0.5994  1.3426 -0.0878
 6894SOL     OW21580   6.382   4.379   0.602  0.1397 -0.2778 -0.5588
 6894SOL    HW121581   6.444   4.302   0.613  3.3405  2.1447  0.0672
 6894SOL    HW221582   6.347   4.407   0.692  0.0396 -0.2048 -0.6197
 6895SOL     OW21583   2.337   3.046   0.407  0.4334  0.4109 -0.4892
 6895SOL    HW121584   2.273   3.120   0.384 -1.2858 -1.4953 -2.3078
 6895SOL    HW221585   2.313   3.008   0.496  0.2681  0.9503 -0.2970
 6896SOL     OW21586   2.746   1.757   3.917 -0.2235 -0.0447 -0.0569
 6896SOL    HW121587   2.754   1.837   3.977  0.4573 -0.2379  0.1244
 6896SOL    HW221588   2.829   1.701   3.926 -1.0214 -1.1676  0.3915
 6897SOL     OW21589   5.745   2.662   3.718  0.2515  0.1669 -0.1940
 6897SOL    HW121590   5.660   2.689   3.764 -0.6609 -1.9462 -0.5088
 6897SOL    HW221591   5.820   2.662   3.785 -0.7075 -1.2090  0.9539
 6898SOL     OW21592   5.793   2.062   1.582  0.6427  0.5326 -0.3332
 6898SOL    HW121593   5.836   2.122   1.515 -0.2502  1.5052 -0.0709
 6898SOL    HW221594   5.795   1.967   1.549 -1.0348  1.1550 -2.4491
 6899SOL     OW21595   4.504   4.566   1.449 -0.0671 -0.3528  0.5906
 6899SOL    HW121596   4.458   4.488   1.490 -3.2118  0.7475 -0.5706
 6899SOL    HW221597   4.504   4.556   1.349  0.0964  0.7996  0.4565
 6900SOL     OW21598   5.071   0.232   3.999 -0.0400  0.5415 -0.8290
 6900SOL    HW121599   4.981   0.194   4.020 -0.7910  1.8306 -1.6066
 6900SOL    HW221600   5.139   0.159   4.004 -1.3900 -0.9038 -2.1071
 6901SOL     OW21601   6.090   6.400   2.015 -0.1814  0.0941 -0.3973
 6901SOL    HW121602   6.016   6.378   2.079 -0.6285  2.1100 -0.1525
 6901SOL    HW221603   6.059   6.382   1.921 -0.9761  0.8197 -0.2920
 6902SOL     OW21604   6.717   5.925   1.567 -0.4255 -0.4332 -0.3047
 6902SOL    HW121605   6.796   5.920   1.506 -0.8385 -0.1729 -0.8658
 6902SOL    HW221606   6.669   5.838   1.567 -0.4872 -0.3986 -0.4294
 6903SOL     OW21607   3.186   5.240   3.681 -0.1915  0.9084  0.2034
 6903SOL    HW121608   3.160   5.171   3.748 -1.5766  2.0504  0.8836
 6903SOL    HW221609   3.286   5.244   3.673 -0.0704 -2.1345 -0.9168
 6904SOL     OW21610   5.295   0.886   0.609 -0.3491  0.1429 -0.6338
 6904SOL    HW121611   5.350   0.931   0.679 -0.7924  1.9262 -1.3838
 6904SOL    HW221612   5.349   0.877   0.525 -0.4819 -0.1552 -0.6890
 6905SOL     OW21613   4.392   6.928   0.739  0.9532  0.8833 -0.2170
 6905SOL    HW121614   4.323   6.874   0.689 -0.7087  2.5384  0.1848
 6905SOL    HW221615   4.402   7.017   0.695 -1.0289  2.6492  2.6246
 6906SOL     OW21616   3.930   1.400   5.160  0.6893  0.0630 -0.0076
 6906SOL    HW121617   4.001   1.354   5.213  1.2328  2.7112  1.7593
 6906SOL    HW221618   3.845   1.400   5.211  0.0609 -0.8625 -1.0019
 6907SOL     OW21619   6.778   2.058   0.531 -0.7498  0.2341  0.4159
 6907SOL    HW121620   6.868   2.099   0.514 -0.6359 -0.5006 -0.8646
 6907SOL    HW221621   6.708   2.107   0.480 -0.5023 -1.5500 -1.8212
 6908SOL     OW21622   1.644   5.101   0.729  0.1240  0.8683 -0.4980
 6908SOL    HW121623   1.646   5.199   0.714 -0.4736  0.7929 -1.1127
 6908SOL    HW221624   1.552   5.066   0.711 -0.5732  0.6637  2.8090
 6909SOL     OW21625   4.528   1.637   0.452  0.0336  0.6104  0.7802
 6909SOL    HW121626   4.540   1.664   0.356  2.0902 -0.2674  0.7400
 6909SOL    HW221627   4.602   1.675   0.507  0.8018 -1.6347  1.3925
 6910SOL     OW21628   0.254   6.241   3.419  0.6680  0.1531  0.2609
 6910SOL    HW121629   0.267   6.339   3.399  1.5552 -0.5803 -3.3517
 6910SOL    HW221630   0.327   6.189   3.375 -1.9114 -2.4306 -1.2471
 6911SOL     OW21631   4.399   0.249   6.500  0.2405  0.0409 -0.0250
 6911SOL    HW121632   4.487   0.291   6.474 -0.0501  0.8898  0.3157
 6911SOL    HW221633   4.390   0.160   6.455  2.0169 -0.8352  1.2082
 6912SOL     OW21634   2.923   4.816   5.660  0.0113 -0.1143 -0.2179
 6912SOL    HW121635   2.888   4.722   5.662 -1.3884  0.2603 -2.4734
 6912SOL    HW221636   2.993   4.823   5.589 -1.7783  1.0446 -1.9583
 6913SOL     OW21637   5.624   6.835   5.927  0.7117 -0.6651 -0.2373
 6913SOL    HW121638   5.681   6.918   5.930 -0.3582  0.0722  0.5388
 6913SOL    HW221639   5.535   6.857   5.886  0.8197 -1.7119 -1.0722
 6914SOL     OW21640   5.819   3.813   1.534  0.0724  0.1962 -0.5502
 6914SOL    HW121641   5.891   3.879   1.512  0.3686  0.6614  1.5883
 6914SOL    HW221642   5.751   3.856   1.594 -0.7262 -0.9212 -0.6102
 6915SOL     OW21643   5.422   2.596   2.549 -0.2988  0.7395  0.3531
 6915SOL    HW121644   5.326   2.579   2.529 -0.2670 -0.4353  1.1106
 6915SOL    HW221645   5.479   2.532   2.497 -0.0701 -0.2719  1.7988
 6916SOL     OW21646   6.272   2.562   6.896 -0.2700 -0.3100  0.4236
 6916SOL    HW121647   6.269   2.600   6.988 -2.5285 -0.9435  0.6773
 6916SOL    HW221648   6.272   2.636   6.829  0.1096  0.1374  0.9103
 6917SOL     OW21649   2.974   6.937   2.825 -0.7818  0.3491 -0.0214
 6917SOL    HW121650   2.883   6.896   2.835 -0.0746 -1.0077  1.3153
 6917SOL    HW221651   2.965   7.036   2.815 -2.4442  0.1462 -1.0119
 6918SOL     OW21652   0.389   2.057   4.398  0.1694  0.0065  0.1517
 6918SOL    HW121653   0.436   2.142   4.375  1.4432 -0.5235  0.6843
 6918SOL    HW221654   0.430   2.018   4.481 -0.8053 -0.8097  0.2700
 6919SOL     OW21655   4.091   6.734   5.361 -0.2433 -0.5590  0.5210
 6919SOL    HW121656   4.008   6.788   5.373 -0.2891 -0.9174  1.9772
 6919SOL    HW221657   4.164   6.792   5.325 -0.9672 -0.1229 -0.2694
 6920SOL     OW21658   5.439   6.930   0.037  0.3975  0.2042 -0.5612
 6920SOL    HW121659   5.399   7.019   0.015 -1.5393 -0.4416  0.1180
 6920SOL    HW221660   5.537   6.941   0.052  0.4585  1.9607 -1.8653
 6921SOL     OW21661   6.156   5.185   4.073 -0.6923  0.1900  0.0986
 6921SOL    HW121662   6.191   5.138   3.992  0.7078 -0.0859  0.8169
 6921SOL    HW221663   6.189   5.280   4.072  0.3811 -0.1448  0.9146
 6922SOL     OW21664   3.533   5.120   2.969  0.9139 -0.3337 -0.5241
 6922SOL    HW121665   3.503   5.186   2.900  1.7972  1.7817  1.0433
 6922SOL    HW221666   3.603   5.060   2.929  0.2388 -0.2465 -1.9131
 6923SOL     OW21667   3.744   5.240   3.308  0.8066 -0.5975 -0.1509
 6923SOL    HW121668   3.795   5.189   3.378 -0.1959 -1.0624  0.2480
 6923SOL    HW221669   3.671   5.292   3.351  1.5848  0.9327 -0.5982
 6924SOL     OW21670   1.428   4.775   6.264  0.5843 -0.4557  0.1279
 6924SOL    HW121671   1.506   4.745   6.319  1.2170  1.9397  0.6206
 6924SOL    HW221672   1.461   4.823   6.183 -0.3978 -1.5477 -0.9636
 6925SOL     OW21673   4.648   0.358   5.517  0.2934  0.7576 -0.1986
 6925SOL    HW121674   4.648   0.396   5.424 -0.5501  0.4499 -0.3390
 6925SOL    HW221675   4.608   0.426   5.580  0.5310  0.8281 -0.1242
 6926SOL     OW21676   0.810   2.195   0.158 -0.4782  0.2787 -0.4158
 6926SOL    HW121677   0.763   2.282   0.144  0.1549  0.8182  0.6488
 6926SOL    HW221678   0.827   2.182   0.256  2.2202  0.4420 -0.8071
 6927SOL     OW21679   4.615   3.348   6.149  0.0452 -0.3109 -0.4226
 6927SOL    HW121680   4.533   3.297   6.123 -0.6197  0.5365 -0.0111
 6927SOL    HW221681   4.693   3.312   6.098 -0.5364 -1.2557 -0.6763
 6928SOL     OW21682   5.593   0.206   0.631  0.0187 -0.6204  0.3001
 6928SOL    HW121683   5.627   0.177   0.720 -0.9586 -0.8727  0.6051
 6928SOL    HW221684   5.648   0.164   0.559 -0.9515 -2.7551  0.7429
 6929SOL     OW21685   3.947   6.762   0.920 -0.3527 -0.0635  0.1165
 6929SOL    HW121686   3.940   6.682   0.860 -1.5183  1.3716 -1.8019
 6929SOL    HW221687   3.896   6.746   1.004  0.5030 -1.7776  0.3395
 6930SOL     OW21688   0.878   0.940   6.350  0.1322  0.3333 -0.3039
 6930SOL    HW121689   0.846   1.035   6.356  1.4511  0.7352  0.8933
 6930SOL    HW221690   0.975   0.939   6.328 -0.1147 -0.7941 -1.4605
 6931SOL     OW21691   1.125   0.565   1.545  0.2504 -0.2781 -0.5823
 6931SOL    HW121692   1.067   0.489   1.572  0.6965 -0.3159  0.3202
 6931SOL    HW221693   1.164   0.608   1.627 -0.6260  1.4324 -1.0185
 6932SOL     OW21694   5.630   6.586   6.952 -0.1530  0.1580 -0.6290
 6932SOL    HW121695   5.694   6.538   6.893  0.2822  1.6951 -1.4852
 6932SOL    HW221696   5.536   6.562   6.927  0.0274  0.8189 -2.0097
 6933SOL     OW21697   3.714   4.221   6.843  0.0049 -0.1347  0.7593
 6933SOL    HW121698   3.769   4.222   6.760  0.4263 -0.3752  1.0322
 6933SOL    HW221699   3.626   4.265   6.825 -0.1816 -0.7883  0.0034
 6934SOL     OW21700   4.534   2.137   6.625  0.1225 -0.1068 -0.2597
 6934SOL    HW121701   4.618   2.089   6.600 -0.5101 -0.4777 -1.7603
 6934SOL    HW221702   4.518   2.213   6.562 -0.4124  0.2868  0.3248
 6935SOL     OW21703   3.899   5.093   1.493 -0.0064 -0.1059  0.0806
 6935SOL    HW121704   3.825   5.157   1.473  0.3500  0.0595 -0.7330
 6935SOL    HW221705   3.983   5.123   1.448  0.6819 -0.0534  1.3558
 6936SOL     OW21706   5.750   1.477   5.140 -0.0959 -0.6394  0.3139
 6936SOL    HW121707   5.654   1.450   5.142 -0.4916  0.7243  0.5495
 6936SOL    HW221708   5.780   1.503   5.232  0.3327 -0.5156  0.1453
 6937SOL     OW21709   6.089   6.674   6.420  0.2310 -0.1943  0.2324
 6937SOL    HW121710   6.113   6.682   6.323  0.3341 -1.8060  0.0952
 6937SOL    HW221711   6.144   6.738   6.473  2.0773 -1.0591 -0.5137
 6938SOL     OW21712   0.513   3.276   5.389 -0.2734 -0.0646  0.6668
 6938SOL    HW121713   0.439   3.241   5.330 -0.6002  0.5774  0.6842
 6938SOL    HW221714   0.484   3.362   5.430  0.2985 -0.0666  1.0797
 6939SOL     OW21715   0.029   5.551   2.576 -0.4474  0.1308  0.5019
 6939SOL    HW121716   0.125   5.523   2.579 -0.1650  0.8002 -1.0063
 6939SOL    HW221717  -0.022   5.490   2.515 -0.8593  0.1146  0.8537
 6940SOL     OW21718   4.181   6.459   5.954  0.0246  0.0017 -0.0398
 6940SOL    HW121719   4.224   6.548   5.967  0.1862  0.1292 -1.3137
 6940SOL    HW221720   4.208   6.421   5.865 -0.4535 -1.0830  0.2577
 6941SOL     OW21721   3.945   3.095   1.137 -0.0669  0.0532 -0.6446
 6941SOL    HW121722   3.919   3.005   1.103  0.6378  0.0721 -1.2735
 6941SOL    HW221723   3.890   3.165   1.092  1.0517  0.0991 -2.0092
 6942SOL     OW21724   0.055   0.050   1.142 -0.2778 -0.2974 -0.0391
 6942SOL    HW121725  -0.041   0.022   1.151 -0.1168 -0.8178  0.0759
 6942SOL    HW221726   0.081   0.104   1.223 -0.6560  0.3977 -0.3726
 6943SOL     OW21727   4.364   4.071   6.936 -0.8049 -0.0438  0.0126
 6943SOL    HW121728   4.403   4.009   7.004  0.4498  1.2584  0.5230
 6943SOL    HW221729   4.300   4.134   6.980 -1.6036 -0.5513 -0.3972
 6944SOL     OW21730   0.854   3.035   0.304  0.5670  0.3160 -0.0257
 6944SOL    HW121731   0.868   3.126   0.344 -0.6986  0.4130  0.2144
 6944SOL    HW221732   0.844   3.044   0.205  1.6536  0.2882 -0.1584
 6945SOL     OW21733   1.369   1.636   0.324 -0.1929  0.7063  0.1005
 6945SOL    HW121734   1.269   1.640   0.319 -0.4283  1.9794  3.1331
 6945SOL    HW221735   1.398   1.541   0.337 -1.1038  0.4337  0.2159
 6946SOL     OW21736   3.497   5.818   2.340  0.5270 -0.1483 -0.4721
 6946SOL    HW121737   3.447   5.869   2.410  1.0803 -1.5316  0.9849
 6946SOL    HW221738   3.595   5.831   2.353  0.6349 -0.3196 -1.0796
 6947SOL     OW21739   3.476   3.953   0.211  1.1223  0.0215  0.2553
 6947SOL    HW121740   3.424   4.037   0.221 -2.1624 -1.8542  0.4548
 6947SOL    HW221741   3.498   3.917   0.302  0.4267 -0.4670  0.2417
 6948SOL     OW21742   6.353   6.991   1.503 -0.1960 -0.6269  0.1907
 6948SOL    HW121743   6.361   6.943   1.415  0.7597  0.5317 -0.3852
 6948SOL    HW221744   6.438   6.980   1.554 -0.8466 -1.5272  1.1313
 6949SOL     OW21745   3.705   0.827   2.563 -0.1979 -0.3156 -0.1192
 6949SOL    HW121746   3.680   0.914   2.521 -0.8443 -0.5326 -0.1861
 6949SOL    HW221747   3.750   0.844   2.651 -0.1999  0.0877 -0.1968
 6950SOL     OW21748   6.120   2.630   3.036 -0.1171  0.1083 -0.0815
 6950SOL    HW121749   6.212   2.591   3.033 -0.3248 -0.3957  0.0936
 6950SOL    HW221750   6.052   2.558   3.029 -0.5053  0.4128  0.4442
 6951SOL     OW21751   0.060   5.877   5.043  0.0063  0.4061 -0.4677
 6951SOL    HW121752  -0.030   5.848   5.012  0.6588 -4.0787  1.0353
 6951SOL    HW221753   0.054   5.912   5.137 -0.5224  3.7747 -1.6375
 6952SOL     OW21754   1.149   5.709   3.664  0.1118 -0.1124 -0.1046
 6952SOL    HW121755   1.100   5.792   3.691 -2.4440 -1.5612 -0.0288
 6952SOL    HW221756   1.220   5.733   3.597  0.1481  2.2360  0.6831
 6953SOL     OW21757   2.899   6.338   0.649  0.1637 -0.2085  0.2786
 6953SOL    HW121758   2.862   6.293   0.731 -0.0272  0.7328  0.7239
 6953SOL    HW221759   2.996   6.358   0.663  0.0565  0.2357  0.4092
 6954SOL     OW21760   5.822   5.126   2.172 -0.1125  0.1449 -0.3491
 6954SOL    HW121761   5.905   5.141   2.226 -0.0803  0.9972 -0.6167
 6954SOL    HW221762   5.845   5.133   2.074 -0.4300  0.0004 -0.4352
 6955SOL     OW21763   4.317   6.955   2.613  0.3767  0.0146 -0.3223
 6955SOL    HW121764   4.352   7.014   2.686 -0.7395 -0.6365  0.7894
 6955SOL    HW221765   4.230   6.916   2.642 -1.1864  1.3723 -2.8631
 6956SOL     OW21766   5.419   5.501   4.368  0.1219  0.2794  0.5649
 6956SOL    HW121767   5.361   5.440   4.314  0.6969 -0.4518  0.7438
 6956SOL    HW221768   5.378   5.513   4.459  0.0879  0.0078  0.5883
 6957SOL     OW21769   4.540   5.084   0.571 -0.0525 -0.2175 -0.6698
 6957SOL    HW121770   4.596   5.143   0.630 -0.2005 -0.1068 -0.6385
 6957SOL    HW221771   4.470   5.038   0.626  1.9626 -2.8627 -0.0994
 6958SOL     OW21772   3.492   3.549   4.793 -0.1324 -0.0306  0.4842
 6958SOL    HW121773   3.404   3.592   4.771 -1.0945 -1.1237  1.9869
 6958SOL    HW221774   3.546   3.540   4.710 -2.2726 -1.1453 -0.8770
 6959SOL     OW21775   1.583   4.140   3.318 -0.8858 -0.0108 -0.0954
 6959SOL    HW121776   1.639   4.116   3.398 -0.8999  0.9250  0.2010
 6959SOL    HW221777   1.582   4.062   3.255 -2.5287 -1.5664  1.7071
 6960SOL     OW21778   1.511   2.196   1.446 -0.4301  0.0776 -0.3558
 6960SOL    HW121779   1.491   2.255   1.368  2.7727 -0.3996 -1.7267
 6960SOL    HW221780   1.483   2.102   1.425 -0.3561  0.1082 -0.5989
 6961SOL     OW21781   6.828   2.313   5.035 -0.1274  0.4003 -0.1431
 6961SOL    HW121782   6.900   2.270   4.981 -1.4424  0.3186 -1.9236
 6961SOL    HW221783   6.869   2.379   5.098  1.8019 -2.1427  1.4834
 6962SOL     OW21784   4.496   4.904   3.389  0.1725  0.0708  0.2882
 6962SOL    HW121785   4.444   4.831   3.345  1.0704 -1.2300  1.2794
 6962SOL    HW221786   4.591   4.900   3.358  0.9829 -1.2796  2.6723
 6963SOL     OW21787   5.003   6.579   1.167 -0.1192  0.1254 -0.1642
 6963SOL    HW121788   5.076   6.515   1.189 -0.9945 -1.2231 -1.0060
 6963SOL    HW221789   5.039   6.672   1.165  1.3529 -0.4097  0.3583
 6964SOL     OW21790   2.574   0.568   5.206 -0.4656 -0.7368 -0.2381
 6964SOL    HW121791   2.510   0.642   5.227  4.1042  3.0932  2.0513
 6964SOL    HW221792   2.592   0.515   5.289 -0.4387 -1.6264 -0.8006
 6965SOL     OW21793   1.949   1.620   0.322  0.7682  0.3745 -0.0840
 6965SOL    HW121794   1.869   1.561   0.323  0.7570  0.3880 -0.2313
 6965SOL    HW221795   2.030   1.566   0.299  0.5981  0.6185 -1.2939
 6966SOL     OW21796   0.022   1.632   2.439 -0.2421 -0.2981 -0.3106
 6966SOL    HW121797  -0.070   1.669   2.426  0.1859  0.8576 -0.1550
 6966SOL    HW221798   0.052   1.586   2.356 -1.4714 -1.8707  0.0768
 6967SOL     OW21799   3.519   6.487   6.181 -0.0872  0.2043 -0.0832
 6967SOL    HW121800   3.569   6.427   6.243  0.1899  0.3636 -0.1494
 6967SOL    HW221801   3.577   6.510   6.103 -0.5045 -0.1627 -0.5097
 6968SOL     OW21802   4.064   1.267   4.306  0.2930  0.1115  0.6294
 6968SOL    HW121803   4.005   1.201   4.353 -0.0204  0.2077  0.3832
 6968SOL    HW221804   4.014   1.305   4.228 -0.0710  1.7036  1.5902
 6969SOL     OW21805   3.271   2.592   0.997  0.5909  0.1782 -0.9609
 6969SOL    HW121806   3.259   2.492   0.992  1.3904  0.1188 -2.3209
 6969SOL    HW221807   3.336   2.615   1.069  1.4928 -0.4071 -1.5704
 6970SOL     OW21808   3.025   3.427   6.183  0.1701  0.3678  0.2657
 6970SOL    HW121809   3.049   3.339   6.224 -0.5784  0.2347  0.4423
 6970SOL    HW221810   3.099   3.457   6.123 -0.3949 -1.4036 -1.4436
 6971SOL     OW21811   5.212   3.859   0.981 -0.3700 -0.1490 -0.2320
 6971SOL    HW121812   5.205   3.869   1.081  0.3326  0.4335 -0.2398
 6971SOL    HW221813   5.292   3.804   0.958 -1.1615 -1.2669 -0.4432
 6972SOL     OW21814   5.994   3.937   2.338 -0.3170 -0.4852 -0.2122
 6972SOL    HW121815   5.936   3.860   2.310 -0.8000 -0.7402  1.3372
 6972SOL    HW221816   6.016   3.927   2.436 -0.9783  1.6943  0.2059
 6973SOL     OW21817   1.263   2.764   4.492  0.4294 -0.1171 -0.3685
 6973SOL    HW121818   1.232   2.674   4.463 -0.1923  0.4555 -1.5319
 6973SOL    HW221819   1.240   2.778   4.588 -0.5175 -0.7347 -0.4968
 6974SOL     OW21820   3.822   2.960   1.833  0.0382  0.8384  0.1000
 6974SOL    HW121821   3.846   3.015   1.913 -0.5677  0.9477  0.2141
 6974SOL    HW221822   3.758   2.888   1.861  1.7195 -0.7016  0.1993
 6975SOL     OW21823   0.755   4.651   4.504 -0.0383 -0.1615  0.3809
 6975SOL    HW121824   0.818   4.576   4.523  0.9708  0.2699 -1.1617
 6975SOL    HW221825   0.661   4.621   4.523  0.4044 -1.6042  0.3643
 6976SOL     OW21826   6.568   5.549   0.471 -0.0106 -0.1895 -0.0409
 6976SOL    HW121827   6.660   5.534   0.509  0.0796  0.0936 -0.1434
 6976SOL    HW221828   6.519   5.615   0.528 -0.4144 -0.8747  0.4203
 6977SOL     OW21829   5.479   3.731   1.298 -0.2551 -0.5309 -0.6380
 6977SOL    HW121830   5.489   3.632   1.285 -0.9922 -0.8880  1.1766
 6977SOL    HW221831   5.517   3.757   1.387  0.3848  0.9259 -1.2971
 6978SOL     OW21832   6.841   1.331   2.858 -0.2309 -0.4768  0.0595
 6978SOL    HW121833   6.763   1.338   2.920  0.5582 -2.3671  1.3578
 6978SOL    HW221834   6.911   1.397   2.884 -1.6596  1.8489 -1.6498
 6979SOL     OW21835   0.965   6.044   1.021 -0.0691 -0.2755 -0.1850
 6979SOL    HW121836   1.018   5.960   1.032 -0.9221 -1.1321 -2.0735
 6979SOL    HW221837   1.022   6.114   0.976  0.7738  0.3498  1.7717
 6980SOL     OW21838   6.804   6.172   4.577 -0.5188 -0.4442 -0.5986
 6980SOL    HW121839   6.834   6.267   4.575  1.4542 -1.0015 -2.8262
 6980SOL    HW221840   6.794   6.141   4.671 -1.2618  1.9469  0.1577
 6981SOL     OW21841   4.980   3.821   6.135 -0.8450 -0.2652 -0.7483
 6981SOL    HW121842   5.016   3.754   6.199  0.7403 -0.4076 -1.7440
 6981SOL    HW221843   5.054   3.861   6.082 -1.7210  2.4021 -0.1253
 6982SOL     OW21844   0.398   1.680   6.265 -0.0369 -0.3237 -0.4178
 6982SOL    HW121845   0.463   1.607   6.248 -0.7472 -1.1100  0.1433
 6982SOL    HW221846   0.432   1.765   6.226  0.6820 -1.0031 -1.3014
 6983SOL     OW21847   5.236   1.218   3.146 -0.6575  0.1689 -0.6133
 6983SOL    HW121848   5.309   1.218   3.077  0.7825  0.6219  0.8279
 6983SOL    HW221849   5.204   1.312   3.160 -2.0859 -0.1202 -1.7685
 6984SOL     OW21850   1.819   1.064   4.714  0.1964 -0.2100 -0.5094
 6984SOL    HW121851   1.874   1.119   4.650  1.0474 -1.7833 -1.1977
 6984SOL    HW221852   1.722   1.084   4.700  0.3903 -0.1421 -1.9509
 6985SOL     OW21853   4.817   4.201   2.139 -0.1263  0.1780 -0.7802
 6985SOL    HW121854   4.719   4.213   2.159 -0.5611 -0.6111 -2.2364
 6985SOL    HW221855   4.850   4.121   2.188 -0.1381  0.5917 -0.0838
 6986SOL     OW21856   2.189   5.956   1.015  0.4478 -0.5942 -0.2196
 6986SOL    HW121857   2.102   5.905   1.015 -0.5640  0.8710  2.8487
 6986SOL    HW221858   2.258   5.903   1.065 -0.0160  0.0448  1.1676
 6987SOL     OW21859   6.651   3.013   6.291 -0.1397 -0.1177  0.5182
 6987SOL    HW121860   6.688   2.926   6.258 -0.6758  0.4371 -1.6779
 6987SOL    HW221861   6.552   3.007   6.296 -0.3098  0.8521 -1.2424
 6988SOL     OW21862   1.459   5.327   6.268  0.0785 -0.5411  0.1716
 6988SOL    HW121863   1.390   5.341   6.197  0.5926  0.2460 -0.1917
 6988SOL    HW221864   1.451   5.234   6.304  0.8158 -1.5239 -2.0068
 6989SOL     OW21865   0.770   3.586   4.746  0.0792  0.1325 -0.5009
 6989SOL    HW121866   0.675   3.614   4.760  0.0038  0.0700 -0.8970
 6989SOL    HW221867   0.800   3.533   4.826 -0.3120 -0.1055 -0.5056
 6990SOL     OW21868   4.772   0.520   0.170 -0.3970 -0.4044  0.7878
 6990SOL    HW121869   4.705   0.459   0.129 -1.0286  0.2336  0.8528
 6990SOL    HW221870   4.772   0.607   0.121 -0.5898  0.0847  1.6258
 6991SOL     OW21871   4.071   6.129   4.547 -0.2581 -0.4911 -0.3091
 6991SOL    HW121872   4.148   6.070   4.526  2.1977  2.7291 -1.0514
 6991SOL    HW221873   4.034   6.169   4.463 -0.1664  0.9640  0.3022
 6992SOL     OW21874   4.421   6.348   0.448 -0.6708  0.5542 -0.4865
 6992SOL    HW121875   4.514   6.377   0.469 -0.8415  1.1838 -0.5519
 6992SOL    HW221876   4.374   6.322   0.533 -0.0510 -1.0028 -0.5931
 6993SOL     OW21877   1.173   1.640   4.237  0.0060  0.3690 -0.4763
 6993SOL    HW121878   1.124   1.728   4.239 -0.5148  0.0639  0.3071
 6993SOL    HW221879   1.265   1.653   4.273 -0.2306  0.5051  0.0933
 6994SOL     OW21880   6.744   2.149   4.161  0.2551  0.5892  0.1556
 6994SOL    HW121881   6.830   2.202   4.167  1.0156 -0.4984 -0.7773
 6994SOL    HW221882   6.671   2.209   4.131  0.9607  1.2687 -0.2557
 6995SOL     OW21883   1.198   5.035   5.976 -0.7074  0.4247 -0.4320
 6995SOL    HW121884   1.291   5.068   5.991 -0.0064 -1.0429 -1.4113
 6995SOL    HW221885   1.141   5.111   5.943  0.1783  1.2785 -0.0535
 6996SOL     OW21886   1.388   0.066   5.572  0.6074  0.5447 -0.2206
 6996SOL    HW121887   1.375  -0.030   5.548 -0.8230  0.1287  1.9233
 6996SOL    HW221888   1.440   0.112   5.501  0.0243 -1.4611 -2.0244
 6997SOL     OW21889   0.988   5.655   5.417 -0.4475  0.3038 -0.3128
 6997SOL    HW121890   0.947   5.566   5.395 -0.1050  0.0034  0.2218
 6997SOL    HW221891   1.011   5.703   5.333  2.1121 -1.4014 -0.7138
 6998SOL     OW21892   1.902   6.946   2.622  0.4261  0.0781 -0.0699
 6998SOL    HW121893   1.850   7.019   2.577 -2.0918  2.0133  5.1317
 6998SOL    HW221894   1.848   6.862   2.619 -0.8430  0.8045  1.1523
 6999SOL     OW21895   1.428   1.630   6.562 -0.4432 -0.1668  0.2358
 6999SOL    HW121896   1.466   1.722   6.572  0.4298 -0.0116 -3.2660
 6999SOL    HW221897   1.331   1.637   6.541  0.2136  0.3003 -3.1862
 7000SOL     OW21898   4.644   0.679   1.958 -0.0255 -0.4952 -0.1701
 7000SOL    HW121899   4.549   0.654   1.943 -0.2124  0.1833 -0.1590
 7000SOL    HW221900   4.664   0.678   2.056 -0.1040 -0.3471 -0.1525
 7001SOL     OW21901   1.878   4.600   5.018  0.3058 -0.0485  0.3742
 7001SOL    HW121902   1.841   4.517   4.976  0.1404  0.2622 -0.0893
 7001SOL    HW221903   1.806   4.668   5.028  0.4209  0.0156  0.8365
 7002SOL     OW21904   2.652   5.893   4.151 -0.0638  0.1054  0.2708
 7002SOL    HW121905   2.655   5.821   4.220 -0.6771 -0.5646 -0.3861
 7002SOL    HW221906   2.700   5.862   4.069  0.9798  1.0321  0.5035
 7003SOL     OW21907   3.190   5.939   2.218  0.2946 -0.5053 -0.3028
 7003SOL    HW121908   3.145   5.903   2.300 -0.8370  1.1861 -0.1212
 7003SOL    HW221909   3.282   5.971   2.242  0.9221 -2.2167 -0.2595
 7004SOL     OW21910   6.066   5.510   2.438 -0.2053 -0.2625  0.1794
 7004SOL    HW121911   5.988   5.454   2.467 -0.0839 -1.3553 -1.4516
 7004SOL    HW221912   6.034   5.599   2.405 -1.0164 -1.2666 -1.9632
 7005SOL     OW21913   6.461   1.234   6.809 -0.0953 -0.0779 -0.0495
 7005SOL    HW121914   6.501   1.325   6.819 -1.4290  0.7399 -1.6084
 7005SOL    HW221915   6.509   1.184   6.737 -1.6527  0.8432 -1.8067
 7006SOL     OW21916   6.770   5.109   3.366  0.0107  0.1603  0.2139
 7006SOL    HW121917   6.793   5.023   3.411  1.8374  0.8954  0.7932
 7006SOL    HW221918   6.671   5.121   3.366 -0.2380 -1.6074  0.7160
 7007SOL     OW21919   4.757   1.101   5.299 -0.6264 -0.4296  0.4514
 7007SOL    HW121920   4.695   1.134   5.228 -2.3627  1.1563  2.5545
 7007SOL    HW221921   4.847   1.145   5.288 -1.3615  1.0608  0.1414
 7008SOL     OW21922   0.275   4.434   3.659 -0.1087  0.4676  0.1294
 7008SOL    HW121923   0.336   4.505   3.623 -0.5362  0.9016  0.2434
 7008SOL    HW221924   0.184   4.444   3.618  0.0165 -0.4841 -0.4184
 7009SOL     OW21925   5.006   5.537   4.125  0.4825 -0.3705  0.0585
 7009SOL    HW121926   5.015   5.470   4.051 -0.0195  0.7208 -1.0199
 7009SOL    HW221927   5.084   5.600   4.122  0.3409 -0.1837  0.3101
 7010SOL     OW21928   6.945   4.216   3.779 -0.4668 -0.2849 -0.3106
 7010SOL    HW121929   6.970   4.128   3.738 -2.9209 -0.8030 -0.8669
 7010SOL    HW221930   6.926   4.202   3.876  1.6060  0.1936  0.2167
 7011SOL     OW21931   1.833   0.013   3.995 -0.0533  0.1274  0.5525
 7011SOL    HW121932   1.835   0.076   3.917 -3.5943  0.1665  0.3174
 7011SOL    HW221933   1.796   0.061   4.075  0.6052 -0.7398  1.3875
 7012SOL     OW21934   1.085   1.583   1.059 -0.4067  0.0987 -0.7453
 7012SOL    HW121935   1.066   1.485   1.064 -0.2837  0.1172  1.9173
 7012SOL    HW221936   1.172   1.602   1.105 -0.9230  1.5494 -0.3130
 7013SOL     OW21937   1.358   5.059   0.374  0.2036  0.5101 -0.7619
 7013SOL    HW121938   1.319   5.108   0.296 -2.8671  0.8175  0.8079
 7013SOL    HW221939   1.321   4.966   0.376  1.7077 -0.1104 -0.6538
 7014SOL     OW21940   3.965   3.783   5.890  0.0230 -0.2257 -0.1290
 7014SOL    HW121941   3.882   3.791   5.944  0.8041  0.1253  1.0741
 7014SOL    HW221942   4.018   3.868   5.897  1.2264 -0.9881  0.4219
 7015SOL     OW21943   3.836   2.557   0.532 -0.1203  0.0504  0.1458
 7015SOL    HW121944   3.796   2.629   0.476 -0.9439 -0.8086 -0.3948
 7015SOL    HW221945   3.931   2.541   0.504  0.1054  0.9632  0.3369
 7016SOL     OW21946   4.752   4.956   2.732 -0.2824  0.6227  0.5321
 7016SOL    HW121947   4.693   4.889   2.778  0.3806  0.1698  0.7394
 7016SOL    HW221948   4.696   5.015   2.674 -0.7236 -1.0106 -0.7702
 7017SOL     OW21949   1.827   5.605   2.600  0.3547  0.0693  0.0305
 7017SOL    HW121950   1.854   5.609   2.696  2.2960 -1.9745 -0.3502
 7017SOL    HW221951   1.875   5.675   2.548 -1.2689  1.6828  0.6013
 7018SOL     OW21952   5.166   2.831   3.921  0.1301 -0.1536  0.1128
 7018SOL    HW121953   5.146   2.737   3.948  0.5777 -0.1505  0.4712
 7018SOL    HW221954   5.208   2.879   3.997 -2.0921  0.9969  0.6903
 7019SOL     OW21955   3.265   3.480   0.393  0.2140  0.4958  0.2729
 7019SOL    HW121956   3.224   3.533   0.467  0.5680  0.6707  0.3447
 7019SOL    HW221957   3.270   3.536   0.310  1.3370  0.8682  0.5654
 7020SOL     OW21958   1.644   3.483   5.429  0.2485  0.3487  0.0397
 7020SOL    HW121959   1.723   3.543   5.444 -0.2923  0.9073  0.7184
 7020SOL    HW221960   1.665   3.418   5.356  0.9174  1.2574 -0.6043
 7021SOL     OW21961   1.137   3.322   3.597  0.8169  0.5192  0.0080
 7021SOL    HW121962   1.171   3.299   3.688 -2.7661 -1.5947  1.0216
 7021SOL    HW221963   1.060   3.386   3.606  0.4328  0.3106 -1.5441
 7022SOL     OW21964   3.861   6.109   1.466  0.7821  0.4968  0.1695
 7022SOL    HW121965   3.945   6.091   1.517  1.1943  1.2284 -0.2262
 7022SOL    HW221966   3.884   6.148   1.376  0.0738 -0.7086 -0.5635
 7023SOL     OW21967   1.306   3.163   2.003 -0.3728  0.3812  0.0839
 7023SOL    HW121968   1.389   3.209   1.969 -0.3661 -1.4939 -2.6713
 7023SOL    HW221969   1.226   3.216   1.976 -0.3192 -0.6678 -2.2749
 7024SOL     OW21970   3.564   3.573   4.543  0.2492  0.6608  0.3409
 7024SOL    HW121971   3.656   3.546   4.513 -0.0307  1.0819 -0.9918
 7024SOL    HW221972   3.521   3.628   4.471 -1.1687  0.2186  0.8250
 7025SOL     OW21973   1.833   0.198   0.925 -0.0346 -0.6571  0.5832
 7025SOL    HW121974   1.910   0.134   0.924  0.8942  0.3758 -1.7798
 7025SOL    HW221975   1.858   0.279   0.978  1.0755  0.2318 -1.2120
 7026SOL     OW21976   5.241   2.555   1.971  0.6345 -0.1928  0.5318
 7026SOL    HW121977   5.238   2.512   2.061 -1.0441 -2.1217 -0.3667
 7026SOL    HW221978   5.230   2.654   1.980  0.2364 -0.3794  2.4000
 7027SOL     OW21979   2.301   5.382   2.763 -0.0030 -0.9452 -0.0538
 7027SOL    HW121980   2.212   5.396   2.719  0.4949  0.2630 -0.7246
 7027SOL    HW221981   2.374   5.408   2.700  0.7952 -0.8342  0.8871
 7028SOL     OW21982   3.602   1.837   2.335  0.0188 -0.4357  0.4122
 7028SOL    HW121983   3.618   1.929   2.372  0.5855 -0.4415  0.1884
 7028SOL    HW221984   3.634   1.833   2.240 -1.0815 -0.5274  0.0238
 7029SOL     OW21985   2.892   3.348   4.905 -0.5866 -0.1787 -0.0721
 7029SOL    HW121986   2.878   3.380   4.999  0.1179 -1.7868  0.6183
 7029SOL    HW221987   2.808   3.305   4.871 -1.6317  2.4432 -1.1048
 7030SOL     OW21988   1.419   0.865   6.077 -0.0333  0.0543 -0.5185
 7030SOL    HW121989   1.339   0.923   6.094  0.4166  0.9644 -1.4346
 7030SOL    HW221990   1.479   0.866   6.157 -0.1126  0.7170 -0.4676
 7031SOL     OW21991   3.824   6.033   0.022  0.2769  0.4410 -0.8460
 7031SOL    HW121992   3.884   5.956   0.043  0.6721  0.1864 -2.7227
 7031SOL    HW221993   3.861   6.085  -0.055 -2.2712 -0.2266 -2.6553
 7032SOL     OW21994   5.687   3.346   4.346  0.6372 -0.1463  0.1626
 7032SOL    HW121995   5.752   3.419   4.324  1.9819 -1.5906 -0.8981
 7032SOL    HW221996   5.628   3.375   4.421  1.3307  1.8995 -0.0367
 7033SOL     OW21997   1.410   1.774   2.215 -0.2148 -0.3213 -0.3015
 7033SOL    HW121998   1.493   1.718   2.214  0.5128  0.5955  1.8734
 7033SOL    HW221999   1.336   1.722   2.258 -0.6788 -0.9634 -1.8070
 7034SOL     OW22000   6.661   3.976   3.595  0.0034 -0.6820  0.0727
 7034SOL    HW122001   6.653   3.888   3.547  0.9992 -0.1561 -1.0994
 7034SOL    HW222002   6.628   3.965   3.689  0.0476 -2.2993 -0.0652
 7035SOL     OW22003   6.691   6.688   0.887 -0.2673 -0.0645 -0.0076
 7035SOL    HW122004   6.720   6.599   0.852  1.1743 -0.2854  1.5771
 7035SOL    HW222005   6.740   6.761   0.838 -0.3798 -0.2137 -0.3435
 7036SOL     OW22006   5.633   1.749   4.400  0.4247 -0.1284 -0.1131
 7036SOL    HW122007   5.577   1.764   4.481 -1.6816 -2.0858 -1.0927
 7036SOL    HW222008   5.615   1.822   4.334 -0.2510 -0.2325 -0.0465
 7037SOL     OW22009   0.388   0.640   1.222  0.0777 -0.0283 -0.2839
 7037SOL    HW122010   0.404   0.599   1.312  3.1884  0.4574 -0.5106
 7037SOL    HW222011   0.349   0.731   1.234  1.5970  0.5353  0.6766
 7038SOL     OW22012   0.299   4.516   4.430 -0.0273  0.0692 -0.7113
 7038SOL    HW122013   0.263   4.601   4.470  1.3830  1.4589 -2.2146
 7038SOL    HW222014   0.223   4.460   4.398 -0.9882  1.4619 -0.9876
 7039SOL     OW22015   0.776   4.474   2.610 -0.5653 -0.0265 -0.1262
 7039SOL    HW122016   0.861   4.446   2.655  0.2329 -1.1198 -2.1526
 7039SOL    HW222017   0.737   4.552   2.657  1.7272  0.7018  0.7066
 7040SOL     OW22018   5.270   1.813   4.918 -0.2020  0.2275  0.7372
 7040SOL    HW122019   5.257   1.813   4.819 -1.2200 -0.3472  0.8558
 7040SOL    HW222020   5.331   1.738   4.943  1.7872  1.6217  0.3839
 7041SOL     OW22021   4.737   0.705   6.987  0.4202  0.4485 -0.6990
 7041SOL    HW122022   4.777   0.793   7.013 -3.4355  2.1488  0.1804
 7041SOL    HW222023   4.680   0.717   6.905  2.4762 -2.1357 -2.7148
 7042SOL     OW22024   2.642   5.919   4.615  0.0562 -0.0928 -0.3332
 7042SOL    HW122025   2.589   5.961   4.689 -0.3885 -0.3757 -0.4853
 7042SOL    HW222026   2.655   5.985   4.541  0.5105  0.1949 -0.0056
 7043SOL     OW22027   0.921   5.039   3.608  0.2361 -0.0023 -0.1296
 7043SOL    HW122028   0.950   4.944   3.619  3.1434  0.8236  0.2669
 7043SOL    HW222029   0.876   5.070   3.692 -2.6765 -1.5129 -0.9839
 7044SOL     OW22030   5.154   5.316   5.520 -0.0014  0.4402  0.3161
 7044SOL    HW122031   5.143   5.250   5.595  0.1571 -0.0163 -0.0597
 7044SOL    HW222032   5.089   5.391   5.532 -2.6271 -1.4451 -1.0514
 7045SOL     OW22033   5.023   5.723   1.710 -0.1397  0.4306  0.1034
 7045SOL    HW122034   5.024   5.822   1.724 -3.0319  0.8131 -1.6162
 7045SOL    HW222035   5.051   5.701   1.617  1.2152 -0.4963  0.6877
 7046SOL     OW22036   3.198   2.135   4.531  0.3558  0.0725  0.0546
 7046SOL    HW122037   3.250   2.165   4.611 -0.6938 -1.4124  1.3848
 7046SOL    HW222038   3.156   2.046   4.551 -0.2780 -0.1458 -2.0268
 7047SOL     OW22039   0.255   2.638   1.886 -0.2636 -0.1162  0.5041
 7047SOL    HW122040   0.350   2.618   1.865 -0.1002  0.8232  0.2743
 7047SOL    HW222041   0.248   2.671   1.981 -0.3792 -0.3355  0.5708
 7048SOL     OW22042   6.379   2.562   3.170  0.2173  0.1104 -0.3622
 7048SOL    HW122043   6.444   2.489   3.148  0.8185  1.1589 -2.3711
 7048SOL    HW222044   6.423   2.628   3.232 -0.1797 -0.9373  1.0960
 7049SOL     OW22045   1.451   7.021   0.600 -0.1106  0.6759 -0.0002
 7049SOL    HW122046   1.501   6.952   0.547 -1.5853  0.0791 -0.6749
 7049SOL    HW222047   1.513   7.062   0.667  0.3950 -2.9264  2.0599
 7050SOL     OW22048   3.446   3.895   5.660 -0.1042 -0.0502 -0.0449
 7050SOL    HW122049   3.486   3.812   5.622  0.9002  0.2457  0.3341
 7050SOL    HW222050   3.387   3.937   5.591 -0.2852 -0.8429 -0.3887
 7051SOL     OW22051   0.718   5.566   1.088  0.2231  0.2597  0.3017
 7051SOL    HW122052   0.645   5.627   1.058  0.3558  1.4568  2.2225
 7051SOL    HW222053   0.757   5.518   1.009 -2.0377  0.2190 -0.8541
 7052SOL     OW22054   0.940   0.990   3.540  0.0523 -0.7079  0.1124
 7052SOL    HW122055   0.954   1.033   3.451  0.9454  0.2050  0.6666
 7052SOL    HW222056   0.994   0.906   3.546  1.5734  0.2563  0.4800
 7053SOL     OW22057   2.521   5.218   5.586  0.2319  0.3497  0.1874
 7053SOL    HW122058   2.523   5.306   5.635  0.5594  1.2510 -1.3726
 7053SOL    HW222059   2.614   5.187   5.569  0.1409  0.4413 -0.5192
 7054SOL     OW22060   1.313   5.296   2.779 -0.2741  0.4473 -0.6075
 7054SOL    HW122061   1.335   5.387   2.813  0.9127  0.5459 -1.5566
 7054SOL    HW222062   1.389   5.261   2.724 -0.7437 -1.0840 -0.3484
 7055SOL     OW22063   1.919   5.153   6.751 -0.4183  0.1493 -0.4027
 7055SOL    HW122064   1.912   5.157   6.851  0.8373  2.4533 -0.3254
 7055SOL    HW222065   1.884   5.065   6.718 -2.3332 -0.0652  1.9103
 7056SOL     OW22066   6.886   4.925   0.538  0.0615 -0.4251  0.8123
 7056SOL    HW122067   6.907   4.855   0.469 -0.1857 -0.2982  0.6064
 7056SOL    HW222068   6.896   4.886   0.629 -1.6335 -1.2080  0.6980
 7057SOL     OW22069   3.868   5.662   2.956 -0.3913 -0.3330  0.0524
 7057SOL    HW122070   3.949   5.707   2.993  0.1185 -1.6545  0.6135
 7057SOL    HW222071   3.800   5.651   3.028 -0.4285 -0.6260 -0.0253
 7058SOL     OW22072   5.652   3.070   5.239 -0.3540  0.1060  0.6743
 7058SOL    HW122073   5.558   3.102   5.229  0.1358  1.0876 -1.0526
 7058SOL    HW222074   5.682   3.025   5.155  1.1015  0.8537  0.7639
 7059SOL     OW22075   0.982   6.203   3.339  0.7760 -0.2465 -0.5522
 7059SOL    HW122076   0.928   6.125   3.308 -0.9326 -0.2707  2.1091
 7059SOL    HW222077   0.956   6.285   3.287 -1.0637 -0.4926 -0.0843
 7060SOL     OW22078   3.030   1.726   1.161  0.1651  0.0855  0.0720
 7060SOL    HW122079   3.035   1.629   1.188  2.6707  0.1906  0.2519
 7060SOL    HW222080   3.079   1.781   1.229  0.4650  1.2366 -1.0515
 7061SOL     OW22081   0.741   2.122   3.518 -0.3349 -0.0978  0.2439
 7061SOL    HW122082   0.774   2.077   3.602 -0.3972  0.9133  0.8236
 7061SOL    HW222083   0.669   2.067   3.477  0.2591 -1.0178  0.4015
 7062SOL     OW22084   3.900   3.029   6.542 -0.5426  0.1112 -0.2213
 7062SOL    HW122085   3.856   3.007   6.455 -0.0724 -0.0034 -0.4279
 7062SOL    HW222086   3.995   2.999   6.541 -1.0327 -1.6586  1.0168
 7063SOL     OW22087   1.297   0.908   3.010  0.2450 -0.0091 -0.3164
 7063SOL    HW122088   1.233   0.961   3.066 -0.1026  0.6750 -1.3241
 7063SOL    HW222089   1.386   0.954   3.010 -0.2383  0.9933 -1.7355
 7064SOL     OW22090   3.512   2.788   0.391  0.2150 -0.0033  0.1094
 7064SOL    HW122091   3.594   2.756   0.345  1.4765  1.3729  1.3298
 7064SOL    HW222092   3.463   2.709   0.429  0.3108 -0.9378 -1.5977
 7065SOL     OW22093   3.911   4.220   5.354  0.0783 -0.0009  0.0858
 7065SOL    HW122094   3.869   4.248   5.268  0.0578 -2.5622 -0.8184
 7065SOL    HW222095   3.840   4.189   5.417  0.3023 -0.8614 -0.0742
 7066SOL     OW22096   2.599   5.641   5.619 -0.0298  0.0021  0.1709
 7066SOL    HW122097   2.518   5.667   5.568 -0.8891  0.8597  1.9018
 7066SOL    HW222098   2.593   5.545   5.645 -1.6058  0.5863  2.1752
 7067SOL     OW22099   1.794   3.735   6.324  0.6710 -0.0654 -0.0457
 7067SOL    HW122100   1.727   3.716   6.395  0.8509  1.9853  0.7393
 7067SOL    HW222101   1.756   3.709   6.235 -0.2787 -0.9482  0.5865
 7068SOL     OW22102   7.012   5.458   4.074  0.8085 -0.3483 -0.0550
 7068SOL    HW122103   7.064   5.382   4.113  0.1422 -1.0182 -0.4316
 7068SOL    HW222104   6.976   5.431   3.985  0.0062  0.1801  0.0978
 7069SOL     OW22105   0.338   2.344   5.510 -0.2443  0.1431  0.0563
 7069SOL    HW122106   0.413   2.347   5.576 -1.4995 -0.7821  1.5938
 7069SOL    HW222107   0.289   2.258   5.519 -2.6265  1.4452  0.4212
 7070SOL     OW22108   0.801   6.147   5.067 -0.0161  0.7622 -0.0222
 7070SOL    HW122109   0.751   6.073   5.021  1.7140 -0.6247  0.1892
 7070SOL    HW222110   0.899   6.138   5.047  0.4305  1.9789  1.4301
 7071SOL     OW22111   2.563   6.023   4.838 -0.1673  0.2594  0.2858
 7071SOL    HW122112   2.632   6.024   4.910  1.7062  0.2619 -1.4175
 7071SOL    HW222113   2.484   6.078   4.866  1.3005  1.8061  1.5907
 7072SOL     OW22114   4.119   6.346   2.763  0.1000 -0.0452  0.1860
 7072SOL    HW122115   4.175   6.287   2.821  1.1844 -0.8331 -1.6053
 7072SOL    HW222116   4.177   6.396   2.699 -1.0540  0.9049 -0.1550
 7073SOL     OW22117   4.513   1.324   3.908  0.1453  0.4126 -0.4493
 7073SOL    HW122118   4.561   1.265   3.973 -1.8783 -3.1146 -1.8772
 7073SOL    HW222119   4.416   1.329   3.932  0.0177  2.1616 -1.1539
 7074SOL     OW22120   5.044   2.959   1.700  0.3505 -0.7436  0.4090
 7074SOL    HW122121   4.976   3.022   1.663  1.3476  0.6487  0.8897
 7074SOL    HW222122   4.999   2.895   1.762 -0.7140 -0.6612 -0.2537
 7075SOL     OW22123   2.224   4.161   3.202 -0.8618 -0.0621  0.1247
 7075SOL    HW122124   2.196   4.142   3.108 -0.5264  0.1751 -0.0272
 7075SOL    HW222125   2.261   4.254   3.207 -2.2407  0.4903  0.7890
 7076SOL     OW22126   3.322   1.332   0.154  0.2225 -0.1293  0.2150
 7076SOL    HW122127   3.280   1.244   0.176 -0.0510  0.3611  1.7195
 7076SOL    HW222128   3.390   1.319   0.082 -1.4414 -1.1817 -1.2634
 7077SOL     OW22129   2.711   4.923   3.016  0.3511  0.6462  0.5846
 7077SOL    HW122130   2.764   4.851   2.971 -1.1255 -0.0969 -0.0463
 7077SOL    HW222131   2.771   4.977   3.075  1.6154 -0.7148  0.6009
 7078SOL     OW22132   6.291   6.758   2.160 -0.0264 -0.1957 -0.2321
 7078SOL    HW122133   6.295   6.848   2.203 -0.8078  0.0721 -0.7013
 7078SOL    HW222134   6.356   6.697   2.204  0.1471  0.4576  0.4289
 7079SOL     OW22135   1.242   5.883   2.812 -0.1517  0.0777  0.0843
 7079SOL    HW122136   1.315   5.948   2.835 -0.0315 -0.1347  0.3149
 7079SOL    HW222137   1.257   5.798   2.862 -0.7037  0.1250  0.3365
 7080SOL     OW22138   1.573   1.115   6.247 -0.3659  0.2159 -0.1583
 7080SOL    HW122139   1.628   1.180   6.195 -2.2919  1.9302 -0.1378
 7080SOL    HW222140   1.625   1.030   6.259  1.5776  1.1338 -1.5881
 7081SOL     OW22141   1.061   6.410   6.328  0.3142  0.7517  0.0441
 7081SOL    HW122142   1.082   6.425   6.231  1.6469 -0.6477  0.0751
 7081SOL    HW222143   1.089   6.317   6.354 -1.6677  0.4627  1.3482
 7082SOL     OW22144   6.651   5.863   0.313  0.2853  0.0544 -0.1745
 7082SOL    HW122145   6.551   5.866   0.316  0.2643  0.2821 -0.8641
 7082SOL    HW222146   6.680   5.784   0.259  0.4179  1.3238 -2.0448
 7083SOL     OW22147   1.737   1.614   1.355 -0.4489 -0.7720 -0.2516
 7083SOL    HW122148   1.823   1.658   1.382 -1.0385 -0.7670  1.8054
 7083SOL    HW222149   1.731   1.524   1.398 -2.1987 -0.0824  1.0780
 7084SOL     OW22150   0.613   5.189   4.182 -0.3369 -0.5928  0.2430
 7084SOL    HW122151   0.689   5.253   4.186 -2.3878  1.9637  1.2557
 7084SOL    HW222152   0.631   5.112   4.244  1.0717  0.3368  1.0490
 7085SOL     OW22153   6.507   1.545   3.434  0.0626 -0.5101  0.3264
 7085SOL    HW122154   6.530   1.542   3.337 -0.1105 -1.3083  0.3035
 7085SOL    HW222155   6.422   1.495   3.450  0.5283 -1.1246  0.9973
 7086SOL     OW22156   3.977   1.083   0.942  0.2725  0.1259 -0.0248
 7086SOL    HW122157   3.990   1.131   1.028 -0.5998 -0.3970  0.4211
 7086SOL    HW222158   3.884   1.045   0.939  0.3480 -0.0156 -1.1178
 7087SOL     OW22159   5.067   5.652   4.463  0.2442  0.6370  0.8620
 7087SOL    HW122160   5.150   5.614   4.505 -0.1791 -1.2550  0.1032
 7087SOL    HW222161   5.093   5.723   4.397  1.2309  0.3120  0.8832
 7088SOL     OW22162   6.277   2.677   5.110 -0.6075 -0.2522 -0.0498
 7088SOL    HW122163   6.224   2.747   5.062  0.3319  1.0159  0.6653
 7088SOL    HW222164   6.301   2.603   5.047  0.1468  1.0984 -1.4291
 7089SOL     OW22165   2.162   3.140   3.729 -0.3149  0.0103 -0.7042
 7089SOL    HW122166   2.237   3.102   3.783 -0.2476  0.4709 -0.4709
 7089SOL    HW222167   2.177   3.120   3.632 -0.3689 -0.7056 -0.5730
 7090SOL     OW22168   3.637   0.120   1.400 -0.5796 -0.4012 -0.6127
 7090SOL    HW122169   3.633   0.049   1.470  0.4381  0.2754  0.1537
 7090SOL    HW222170   3.604   0.206   1.438 -1.7791 -0.4251 -1.5294
 7091SOL     OW22171   1.165   2.264   2.172  0.1815  0.6076  0.3685
 7091SOL    HW122172   1.093   2.246   2.104 -1.2365 -1.1461  2.2205
 7091SOL    HW222173   1.221   2.182   2.185  1.0302  1.2173  0.6739
 7092SOL     OW22174   5.599   2.689   5.184  0.8077 -0.6543 -0.4432
 7092SOL    HW122175   5.593   2.681   5.085 -0.9282 -0.5203 -0.3807
 7092SOL    HW222176   5.545   2.617   5.228  1.2421 -0.4892  0.3937
 7093SOL     OW22177   4.657   2.261   0.699 -0.0559 -0.8349  0.2628
 7093SOL    HW122178   4.751   2.230   0.687  0.1530  0.3350 -1.5559
 7093SOL    HW222179   4.597   2.212   0.636 -0.2882 -0.0405 -0.1453
 7094SOL     OW22180   6.748   6.083   6.489  0.3990  0.5704  0.1921
 7094SOL    HW122181   6.751   6.051   6.584 -0.4556  3.1069  1.1715
 7094SOL    HW222182   6.841   6.091   6.453  0.7205 -0.5649  0.7558
 7095SOL     OW22183   3.441   4.330   6.262 -0.7375 -0.5016 -0.0802
 7095SOL    HW122184   3.458   4.232   6.267 -2.3442 -0.9232 -1.6572
 7095SOL    HW222185   3.360   4.347   6.206 -0.7149  1.7207  0.4524
 7096SOL     OW22186   4.033   0.610   1.023 -0.0418  0.7316  0.2470
 7096SOL    HW122187   3.958   0.662   0.981  1.5041  0.3858 -3.3233
 7096SOL    HW222188   3.999   0.521   1.053 -0.7432 -0.8447 -4.3763
 7097SOL     OW22189   3.240   0.733   3.161  0.1941  0.2397 -0.2762
 7097SOL    HW122190   3.325   0.785   3.165  0.2784  0.0545  0.7855
 7097SOL    HW222191   3.164   0.791   3.191  0.5948 -0.7801  3.1316
 7098SOL     OW22192   0.680   5.624   5.640 -0.2484 -0.0744 -0.3859
 7098SOL    HW122193   0.676   5.577   5.552  0.9636 -1.0522  0.0603
 7098SOL    HW222194   0.707   5.719   5.626  0.9022 -0.4825 -0.9873
 7099SOL     OW22195   4.236   2.007   4.872 -0.1793  0.2251  0.2352
 7099SOL    HW122196   4.258   2.029   4.777  1.3382  1.4325  0.8147
 7099SOL    HW222197   4.145   2.043   4.895  0.5046  2.2697 -0.0654
 7100SOL     OW22198   6.017   2.506   2.129  0.0478 -0.7152  0.1085
 7100SOL    HW122199   6.035   2.414   2.162  3.0873 -0.0421  0.6256
 7100SOL    HW222200   6.020   2.570   2.206 -3.6834 -0.2570  0.0364
 7101SOL     OW22201   1.174   1.035   5.328 -0.3614 -0.3831 -0.5135
 7101SOL    HW122202   1.259   0.993   5.296 -1.8201 -3.6475 -0.5080
 7101SOL    HW222203   1.100   1.012   5.265 -2.0023 -1.1844  1.5805
 7102SOL     OW22204   0.434   1.012   6.686  0.0860  0.0420  0.5690
 7102SOL    HW122205   0.527   0.977   6.700 -0.1998 -0.7256  0.5968
 7102SOL    HW222206   0.399   1.050   6.771 -0.1205 -0.8993  0.9204
 7103SOL     OW22207   6.767   6.415   1.246 -0.1541  0.2107 -0.0881
 7103SOL    HW122208   6.670   6.397   1.261  0.0354  1.3801  3.5591
 7103SOL    HW222209   6.776   6.503   1.199 -0.8425 -0.3482 -1.3055
 7104SOL     OW22210   6.853   4.007   3.208 -0.0896  0.7763  0.6032
 7104SOL    HW122211   6.783   4.078   3.209  1.2253  2.1255  1.3145
 7104SOL    HW222212   6.943   4.049   3.223  0.7356 -1.0476  1.0199
 7105SOL     OW22213   4.051   3.678   4.635  0.0079  0.6520 -0.0083
 7105SOL    HW122214   3.997   3.621   4.698 -0.0999 -0.2402 -0.8795
 7105SOL    HW222215   4.031   3.774   4.651 -0.0609  0.4368  1.2770
 7106SOL     OW22216   3.745   3.475   1.827  0.0925  0.1783 -0.1472
 7106SOL    HW122217   3.715   3.379   1.829 -0.2860  0.2494 -1.5669
 7106SOL    HW222218   3.783   3.496   1.737 -0.4972  1.5632 -0.0955
 7107SOL     OW22219   5.852   5.780   1.319  0.3315  0.0969 -0.0375
 7107SOL    HW122220   5.893   5.721   1.250  0.3903 -0.5450  0.5323
 7107SOL    HW222221   5.762   5.811   1.288 -0.4964 -1.7384  0.3723
 7108SOL     OW22222   0.898   6.558   4.447  0.7620 -0.2532 -0.2431
 7108SOL    HW122223   0.906   6.481   4.383 -1.4203 -1.1088  0.4287
 7108SOL    HW222224   0.807   6.598   4.441  0.7135  0.0774  1.8514
 7109SOL     OW22225   2.151   6.794   6.168 -0.0025  0.0625 -0.0554
 7109SOL    HW122226   2.078   6.862   6.161  2.4748  2.9190  0.0795
 7109SOL    HW222227   2.113   6.703   6.152 -3.6341  1.3202  0.4678
 7110SOL     OW22228   2.629   5.345   4.296  0.0681  0.7067  0.1206
 7110SOL    HW122229   2.557   5.388   4.350  0.5459  0.5427  0.9138
 7110SOL    HW222230   2.663   5.264   4.344  0.2308  0.3225 -0.6260
 7111SOL     OW22231   0.278   2.844   3.875 -0.3128  0.4629 -0.1784
 7111SOL    HW122232   0.198   2.903   3.888 -1.3830 -0.6465 -1.4568
 7111SOL    HW222233   0.285   2.819   3.778  1.4707  0.3475 -0.0548
 7112SOL     OW22234   2.357   6.713   3.142 -0.2367  0.0878 -0.3773
 7112SOL    HW122235   2.386   6.804   3.111 -0.1895  0.3531  0.4177
 7112SOL    HW222236   2.414   6.685   3.220  0.3217 -0.9951 -1.1503
 7113SOL     OW22237   5.149   2.398   5.341 -0.2297  0.3079 -0.4028
 7113SOL    HW122238   5.224   2.441   5.291  0.2100 -0.8080 -0.7353
 7113SOL    HW222239   5.066   2.397   5.285 -0.3576  1.0565 -0.2402
 7114SOL     OW22240   5.102   4.967   0.195  0.2338 -0.0560  0.0756
 7114SOL    HW122241   5.022   5.021   0.171  1.1128  0.7068 -1.2432
 7114SOL    HW222242   5.076   4.871   0.203 -1.1303  0.3865  1.3679
 7115SOL     OW22243   2.851   2.536   6.648 -0.2670 -0.2919  0.1538
 7115SOL    HW122244   2.818   2.554   6.556  0.7904  0.4457 -0.1002
 7115SOL    HW222245   2.874   2.622   6.693 -2.0536 -0.5215  1.6298
 7116SOL     OW22246   5.483   4.648   3.908  0.5744  0.5083 -0.0487
 7116SOL    HW122247   5.482   4.743   3.878 -0.6677  0.9422  1.2588
 7116SOL    HW222248   5.570   4.606   3.882  0.5809  1.5440 -1.9408
 7117SOL     OW22249   6.268   6.346   5.334 -0.3523  0.0326  0.0925
 7117SOL    HW122250   6.206   6.296   5.272  0.3697  1.5827 -2.0124
 7117SOL    HW222251   6.218   6.419   5.380 -0.4454  0.3203 -0.4473
 7118SOL     OW22252   2.844   3.689   6.100 -0.3165 -0.2437  0.0695
 7118SOL    HW122253   2.802   3.605   6.134  1.8514 -0.8341  1.4708
 7118SOL    HW222254   2.913   3.666   6.032  0.4436  0.3834  0.6212
 7119SOL     OW22255   6.607   0.154   5.516 -0.5383  0.3492 -0.1277
 7119SOL    HW122256   6.564   0.227   5.570  0.2577 -0.7319  2.0817
 7119SOL    HW222257   6.545   0.077   5.507 -1.7632  1.5335 -3.3087
 7120SOL     OW22258   4.378   2.002   1.825 -0.4432 -0.1732 -0.0299
 7120SOL    HW122259   4.449   1.938   1.854  0.2314  0.8350  0.6159
 7120SOL    HW222260   4.347   1.979   1.732 -0.3299 -1.5006  0.2453
 7121SOL     OW22261   0.904   0.179   2.349  0.0716  0.5411 -0.4033
 7121SOL    HW122262   0.983   0.175   2.411 -0.5107 -0.1764  0.3124
 7121SOL    HW222263   0.936   0.177   2.254  0.9307  0.6928 -0.1248
 7122SOL     OW22264   2.226   6.529   0.229  0.2023  0.7273 -0.4343
 7122SOL    HW122265   2.294   6.520   0.157  0.8638 -1.5683  0.3578
 7122SOL    HW222266   2.205   6.625   0.245  1.3776  1.3562 -2.4141
 7123SOL     OW22267   0.130   4.677   3.195 -0.6639  0.0520 -0.3827
 7123SOL    HW122268   0.182   4.750   3.152 -0.1196 -1.1392 -1.8361
 7123SOL    HW222269   0.179   4.590   3.185 -2.9177 -1.1519 -1.9140
 7124SOL     OW22270   1.332   4.440   1.647 -0.5074  0.0611  0.1717
 7124SOL    HW122271   1.347   4.343   1.668 -2.6346  0.1425  2.6483
 7124SOL    HW222272   1.415   4.492   1.666  0.1527 -1.0635  0.4376
 7125SOL     OW22273   0.423   1.626   0.264 -0.0710 -0.0201  0.0467
 7125SOL    HW122274   0.377   1.661   0.346 -0.1704 -0.6983  0.2794
 7125SOL    HW222275   0.522   1.643   0.272 -0.1379  0.3864  0.0668
 7126SOL     OW22276   3.475   5.873   2.066  0.6507 -0.3292 -0.1817
 7126SOL    HW122277   3.466   5.829   2.155  0.2302 -1.0432 -0.5655
 7126SOL    HW222278   3.419   5.955   2.064  0.1728 -0.6461  0.0064
 7127SOL     OW22279   1.897   6.537   5.077  0.4751 -0.1222  0.3029
 7127SOL    HW122280   1.975   6.581   5.122  1.3134  0.8677 -1.9480
 7127SOL    HW222281   1.847   6.482   5.143  0.6682  2.4528  2.7895
 7128SOL     OW22282   2.556   4.225   1.221 -0.1304  0.3284 -0.1688
 7128SOL    HW122283   2.565   4.167   1.302 -0.0011  0.9089  0.2366
 7128SOL    HW222284   2.644   4.265   1.197 -0.4059  1.1482  0.1521
 7129SOL     OW22285   1.551   2.469   1.864  0.0810  0.1446  0.5458
 7129SOL    HW122286   1.610   2.470   1.783 -0.7710  0.0028 -0.0947
 7129SOL    HW222287   1.589   2.528   1.935 -0.3471  2.1532 -0.8190
 7130SOL     OW22288   2.916   4.937   3.896 -0.1358 -0.3608  0.3297
 7130SOL    HW122289   2.896   4.840   3.879  2.4674 -0.6259 -1.8572
 7130SOL    HW222290   2.853   4.994   3.843  0.8808 -0.9939 -1.6340
 7131SOL     OW22291   3.460   0.255   0.243  0.1517 -0.2709 -0.1393
 7131SOL    HW122292   3.506   0.244   0.332 -0.1580 -0.8961 -0.0490
 7131SOL    HW222293   3.446   0.352   0.225  0.3816 -0.1279  0.4159
 7132SOL     OW22294   3.778   3.768   0.837 -0.0283 -0.5601 -0.3436
 7132SOL    HW122295   3.748   3.826   0.760 -1.5875 -0.0223  0.6087
 7132SOL    HW222296   3.875   3.748   0.828  0.0042  0.1734 -2.0153
 7133SOL     OW22297   3.594   4.695   6.396  0.1168 -0.3547  0.0516
 7133SOL    HW122298   3.609   4.756   6.474  0.6019 -0.9189  0.4141
 7133SOL    HW222299   3.497   4.692   6.373 -0.0517 -0.3103  0.7408
 7134SOL     OW22300   3.695   0.465   0.466 -0.0476 -0.3350 -0.0540
 7134SOL    HW122301   3.764   0.529   0.499  0.0496  0.0167 -0.8917
 7134SOL    HW222302   3.706   0.377   0.511  0.5816 -0.1099  0.2444
 7135SOL     OW22303   1.536   4.599   1.730 -0.3995 -0.7507 -0.0172
 7135SOL    HW122304   1.550   4.562   1.822  0.8200  0.8681  0.4938
 7135SOL    HW222305   1.604   4.670   1.712 -1.5069 -0.0417 -1.6478
 7136SOL     OW22306   4.584   2.304   0.970  0.7473  0.6580 -0.2313
 7136SOL    HW122307   4.494   2.348   0.973  0.7304  0.7426 -1.4599
 7136SOL    HW222308   4.611   2.289   0.875  2.1447  0.8523  0.1088
 7137SOL     OW22309   2.632   1.507   1.011  0.2098  0.5743 -0.0430
 7137SOL    HW122310   2.717   1.549   0.979 -0.1493  1.1304 -0.2756
 7137SOL    HW222311   2.598   1.556   1.092  0.3063  0.1197  0.2791
 7138SOL     OW22312   1.631   0.731   6.908  0.5894 -0.1359 -0.0248
 7138SOL    HW122313   1.705   0.782   6.954  1.5999 -0.6217 -1.0711
 7138SOL    HW222314   1.664   0.641   6.882 -0.8738 -0.9644  0.8578
 7139SOL     OW22315   4.738   6.264   3.684  0.1580  0.5299  0.4162
 7139SOL    HW122316   4.832   6.269   3.719  0.4551 -1.4196 -0.0003
 7139SOL    HW222317   4.713   6.168   3.670 -0.6653  1.1011 -2.7332
 7140SOL     OW22318   6.391   2.270   2.197  0.2989 -0.0938 -0.0630
 7140SOL    HW122319   6.420   2.264   2.293 -0.0243  1.1716  0.1337
 7140SOL    HW222320   6.294   2.292   2.193 -0.1089 -1.8886 -0.7106
 7141SOL     OW22321   3.494   0.721   7.005  0.3320 -1.3299 -0.2103
 7141SOL    HW122322   3.512   0.794   6.939  0.6626  0.8048  2.0837
 7141SOL    HW222323   3.580   0.681   7.036  0.2372 -1.6249 -0.3227
 7142SOL     OW22324   5.063   0.703   5.271 -0.4484  0.3430 -0.1449
 7142SOL    HW122325   4.970   0.739   5.268 -0.7827 -0.5167 -0.1755
 7142SOL    HW222326   5.127   0.775   5.242 -0.8074  1.8288  2.4425
 7143SOL     OW22327   1.897   5.057   0.774 -0.6586 -0.2640  0.3190
 7143SOL    HW122328   1.908   5.032   0.870 -1.5457 -0.2894  0.4258
 7143SOL    HW222329   1.800   5.070   0.754 -0.9945 -4.2905 -1.5886
 7144SOL     OW22330   6.747   0.758   4.461  0.0144 -0.1252 -0.0935
 7144SOL    HW122331   6.769   0.722   4.370 -0.3155 -3.2127  0.9461
 7144SOL    HW222332   6.829   0.800   4.500  1.3518 -2.4228 -0.2624
 7145SOL     OW22333   6.501   0.753   6.860  0.2762  0.0831 -0.0998
 7145SOL    HW122334   6.486   0.830   6.922 -1.0037 -0.3757  0.1990
 7145SOL    HW222335   6.550   0.784   6.779 -0.0907  1.1805  0.0854
 7146SOL     OW22336   1.468   0.253   0.074  0.5593 -0.2659 -0.1609
 7146SOL    HW122337   1.422   0.236  -0.013  0.6721 -0.0358 -0.2685
 7146SOL    HW222338   1.458   0.174   0.134  0.4621 -0.4167 -0.3759
 7147SOL     OW22339   4.855   5.437   2.333  0.4563 -0.4032  0.0192
 7147SOL    HW122340   4.827   5.366   2.398 -0.5010 -0.1040 -0.0514
 7147SOL    HW222341   4.929   5.402   2.276  0.2119 -1.2357  0.1983
 7148SOL     OW22342   5.434   5.443   2.159  0.7090  0.3934  0.0495
 7148SOL    HW122343   5.447   5.407   2.251 -1.4731  1.6619  0.9409
 7148SOL    HW222344   5.402   5.371   2.098 -2.1248  0.3517  1.4229
 7149SOL     OW22345   1.216   5.834   4.333 -0.2223 -0.0067 -0.0356
 7149SOL    HW122346   1.236   5.930   4.314 -0.2325 -0.5150 -3.0585
 7149SOL    HW222347   1.117   5.819   4.330 -0.1785 -0.2421 -0.3214
 7150SOL     OW22348   1.641   2.049   6.068 -0.5489 -0.2006  0.2174
 7150SOL    HW122349   1.691   2.102   6.137  0.5600  0.6540 -1.1884
 7150SOL    HW222350   1.626   1.956   6.102 -0.3063  0.2691  1.7192
 7151SOL     OW22351   3.045   5.722   0.399  0.3975  0.4415 -0.0059
 7151SOL    HW122352   3.037   5.720   0.499  2.6230 -1.2369  0.2135
 7151SOL    HW222353   3.133   5.685   0.372  0.0290  1.2692 -2.6196
 7152SOL     OW22354   0.408   0.178   4.498 -0.1881  0.1470 -0.7027
 7152SOL    HW122355   0.339   0.247   4.514 -0.2744  0.1766 -1.1848
 7152SOL    HW222356   0.471   0.175   4.576 -0.3693  0.5402 -0.5378
 7153SOL     OW22357   3.655   4.446   1.684  0.8638  0.1028  0.4060
 7153SOL    HW122358   3.596   4.370   1.709 -0.0015  0.4640 -0.4678
 7153SOL    HW222359   3.640   4.523   1.746 -2.0835  1.3991 -1.6956
 7154SOL     OW22360   5.979   5.688   3.271  0.2658 -0.2062 -0.3335
 7154SOL    HW122361   6.076   5.687   3.244  0.3726  1.8881 -0.1915
 7154SOL    HW222362   5.971   5.719   3.366 -0.3547 -4.0852  1.0547
 7155SOL     OW22363   3.923   3.003   1.580 -1.1019  0.0527 -0.2075
 7155SOL    HW122364   3.896   3.003   1.676  0.3085  1.6639  0.2542
 7155SOL    HW222365   3.951   2.911   1.554  0.3099 -0.0756  1.5216
 7156SOL     OW22366   5.533   4.388   1.939  0.3141  0.3266 -0.1548
 7156SOL    HW122367   5.617   4.417   1.984 -0.1871  2.0333 -0.2569
 7156SOL    HW222368   5.533   4.419   1.844  0.1000 -0.7636 -0.5303
 7157SOL     OW22369   6.671   4.575   0.839 -0.2340 -0.6934 -0.1486
 7157SOL    HW122370   6.719   4.598   0.754 -1.1876  0.3627 -0.4376
 7157SOL    HW222371   6.734   4.532   0.903  0.9535  0.1440 -0.7227
 7158SOL     OW22372   2.221   5.700   2.091  0.1107  0.2865  0.1889
 7158SOL    HW122373   2.165   5.763   2.144 -1.0772 -0.9871  0.5140
 7158SOL    HW222374   2.273   5.751   2.023 -0.1209  1.6964  1.0199
 7159SOL     OW22375   3.477   5.486   2.569 -0.2195 -0.0632  0.2101
 7159SOL    HW122376   3.557   5.428   2.554 -0.3366 -0.0481 -0.5339
 7159SOL    HW222377   3.431   5.502   2.481 -1.1455 -0.2255  0.6527
 7160SOL     OW22378   5.817   2.248   2.676  0.4533 -0.9778 -0.5131
 7160SOL    HW122379   5.721   2.230   2.652  0.4472 -0.6209 -0.7704
 7160SOL    HW222380   5.829   2.345   2.693  0.3965 -1.2515  1.2574
 7161SOL     OW22381   3.769   3.932   1.351 -0.2264  0.3320  0.2335
 7161SOL    HW122382   3.739   3.919   1.256 -0.7974 -2.4232  0.6925
 7161SOL    HW222383   3.775   4.029   1.371 -2.1134  0.9976 -2.0010
 7162SOL     OW22384   0.729   5.586   6.469  0.2152 -0.2356  0.4688
 7162SOL    HW122385   0.775   5.510   6.512 -0.8622  0.1980  2.5076
 7162SOL    HW222386   0.647   5.610   6.522 -2.3527 -0.8873 -2.8215
 7163SOL     OW22387   1.854   2.152   2.912 -0.3284 -0.3015  0.1767
 7163SOL    HW122388   1.884   2.061   2.944 -0.0178 -0.4129 -0.4097
 7163SOL    HW222389   1.924   2.190   2.851  0.5731  1.2807  2.0796
 7164SOL     OW22390   1.173   0.579   5.244 -0.0088  0.8394  0.1235
 7164SOL    HW122391   1.105   0.648   5.269 -1.4263 -0.8871  1.3461
 7164SOL    HW222392   1.263   0.607   5.276 -0.3229  2.6469 -0.4861
 7165SOL     OW22393   4.340   5.529   1.447 -0.2849 -0.3040 -0.4617
 7165SOL    HW122394   4.386   5.589   1.381  0.1879  0.1721  0.2782
 7165SOL    HW222395   4.351   5.567   1.539 -1.9281 -0.3357 -0.2320
 7166SOL     OW22396   5.416   1.864   0.668 -0.3870 -0.7164 -0.2638
 7166SOL    HW122397   5.507   1.865   0.626 -0.1203 -2.5783  0.1549
 7166SOL    HW222398   5.348   1.893   0.601  0.6033  2.0551 -0.1919
 7167SOL     OW22399   5.198   3.563   4.043 -0.2053 -0.2538 -0.5338
 7167SOL    HW122400   5.286   3.565   4.092 -0.9954  1.1068  0.9100
 7167SOL    HW222401   5.178   3.654   4.008 -0.1544 -0.9861 -2.5813
 7168SOL     OW22402   2.252   2.948   2.745  0.5168  0.0743 -0.1575
 7168SOL    HW122403   2.189   3.025   2.751  3.3592  2.6667 -1.1240
 7168SOL    HW222404   2.212   2.868   2.790 -3.8295  1.1498 -1.6382
 7169SOL     OW22405   0.076   4.395   4.328 -0.2933  0.0779  0.7921
 7169SOL    HW122406   0.081   4.338   4.247  0.4994  0.8256  0.3045
 7169SOL    HW222407  -0.011   4.446   4.327  0.5748  1.6311 -0.6719
 7170SOL     OW22408   5.015   0.056   1.285 -0.0131 -0.1319  0.1488
 7170SOL    HW122409   5.043   0.027   1.377  1.4901  0.2880 -0.1556
 7170SOL    HW222410   5.054  -0.005   1.217  0.3956  0.6254 -0.3051
 7171SOL     OW22411   6.483   4.275   5.912 -0.0862 -0.1567  0.0262
 7171SOL    HW122412   6.440   4.197   5.866  1.2988 -0.8656 -0.1280
 7171SOL    HW222413   6.580   4.278   5.888  0.5203 -0.0625  2.2548
 7172SOL     OW22414   2.565   0.353   4.425 -0.2635 -0.5175 -0.3238
 7172SOL    HW122415   2.645   0.294   4.422 -1.3546 -2.3439  2.5318
 7172SOL    HW222416   2.511   0.340   4.341  1.1117 -1.1509 -1.1412
 7173SOL     OW22417   6.368   3.330   6.670  0.0570 -0.4890 -0.4869
 7173SOL    HW122418   6.457   3.368   6.648 -0.4418  0.0009 -1.7118
 7173SOL    HW222419   6.344   3.354   6.764  1.5581 -1.3371  0.1594
 7174SOL     OW22420   6.098   3.445   5.659 -0.2912 -0.4796 -0.3937
 7174SOL    HW122421   6.032   3.374   5.683  0.4010 -0.3561  2.1651
 7174SOL    HW222422   6.162   3.410   5.590 -0.7990 -1.8573 -0.1865
 7175SOL     OW22423   5.614   5.186   4.931 -0.0848  0.1155  0.0781
 7175SOL    HW122424   5.696   5.167   4.877 -0.7209 -2.0051 -0.2430
 7175SOL    HW222425   5.537   5.132   4.895 -1.3543  1.1899  1.0635
 7176SOL     OW22426   0.340   1.243   4.217  0.0510  0.5145 -0.3101
 7176SOL    HW122427   0.398   1.250   4.298  0.8054  0.0452 -0.7907
 7176SOL    HW222428   0.376   1.171   4.157 -1.6374 -0.5366 -0.1319
 7177SOL     OW22429   2.505   4.035   5.671 -0.7710 -0.4762 -0.8341
 7177SOL    HW122430   2.514   4.096   5.592  0.8268  1.4484  0.6938
 7177SOL    HW222431   2.413   4.043   5.709 -0.9679  0.0505 -1.4045
 7178SOL     OW22432   7.012   1.320   5.850  0.7693 -0.1326  0.0498
 7178SOL    HW122433   6.986   1.240   5.797 -0.2351 -0.5406  1.1155
 7178SOL    HW222434   7.077   1.375   5.798 -0.6367 -0.1810 -1.8719
 7179SOL     OW22435   0.265   3.461   5.298 -0.0375 -0.3013 -0.8870
 7179SOL    HW122436   0.282   3.434   5.203  0.3746 -0.1518 -0.8576
 7179SOL    HW222437   0.235   3.556   5.301  0.6576 -0.0831 -0.8083
 7180SOL     OW22438   0.376   4.760   6.958  0.6120  0.3539 -0.3054
 7180SOL    HW122439   0.412   4.779   7.049  0.0875  2.2881 -0.4440
 7180SOL    HW222440   0.291   4.811   6.945  0.5795 -0.0461 -1.8011
 7181SOL     OW22441   1.169   0.292   1.861  0.5324  0.2016  0.2166
 7181SOL    HW122442   1.112   0.336   1.931 -1.5490 -0.0836 -1.2000
 7181SOL    HW222443   1.133   0.314   1.770  0.6781 -2.6356 -0.6433
 7182SOL     OW22444   0.717   2.982   2.725 -0.0870 -0.2730  0.7337
 7182SOL    HW122445   0.815   2.998   2.732 -0.0114  0.6876 -1.4749
 7182SOL    HW222446   0.699   2.884   2.717  0.7219 -0.4243  0.6945
 7183SOL     OW22447   1.053   6.389   1.916  0.0196  0.9424 -0.2382
 7183SOL    HW122448   1.001   6.305   1.900  0.0883  0.7303  0.6233
 7183SOL    HW222449   1.146   6.366   1.943 -0.4901  1.2284  1.8978
 7184SOL     OW22450   6.596   0.897   3.640 -0.2002 -0.3213  0.0895
 7184SOL    HW122451   6.517   0.837   3.624 -0.0174 -0.0756 -2.0179
 7184SOL    HW222452   6.680   0.843   3.631 -0.0687 -0.0357 -0.3945
 7185SOL     OW22453   5.386   1.705   5.534 -0.5153  0.0994  0.0514
 7185SOL    HW122454   5.475   1.750   5.534 -0.6175  0.3121 -0.5879
 7185SOL    HW222455   5.344   1.714   5.625 -0.9008  2.0361 -0.2690
 7186SOL     OW22456   5.655   0.921   2.206  0.1904  0.1446 -0.0322
 7186SOL    HW122457   5.658   0.987   2.281  3.6361  1.6491 -1.2878
 7186SOL    HW222458   5.640   0.968   2.120 -1.3499 -1.2658 -0.5801
 7187SOL     OW22459   2.931   3.755   5.087  0.2349 -0.3018 -0.3256
 7187SOL    HW122460   2.944   3.788   4.994  0.5648  0.8156  0.1011
 7187SOL    HW222461   2.836   3.724   5.098  0.6124 -1.9963 -1.4781
 7188SOL     OW22462   4.224   5.057   1.363  0.2328  0.2652 -0.1090
 7188SOL    HW122463   4.240   4.966   1.401  2.3937 -0.2325 -1.9789
 7188SOL    HW222464   4.210   5.050   1.265 -1.9725  1.8009  0.0169
 7189SOL     OW22465   5.150   2.026   3.527  0.4871  0.3743  0.5609
 7189SOL    HW122466   5.182   2.008   3.434  0.8643 -1.7171  1.0580
 7189SOL    HW222467   5.213   2.089   3.572  1.1732  0.1620 -0.0871
 7190SOL     OW22468   5.756   6.435   1.595 -0.1479  0.4018 -0.5581
 7190SOL    HW122469   5.828   6.426   1.664 -0.0977 -0.7811 -0.7486
 7190SOL    HW222470   5.797   6.436   1.504 -0.4531 -2.4019 -0.7941
 7191SOL     OW22471   1.216   2.979   2.961 -0.1541 -0.0913 -0.1206
 7191SOL    HW122472   1.195   2.959   3.057  0.7933 -2.9094 -0.4210
 7191SOL    HW222473   1.314   2.973   2.946 -0.1749  1.3612 -1.1109
 7192SOL     OW22474   3.552   2.946   6.110  0.0973  0.4589  0.1270
 7192SOL    HW122475   3.515   2.868   6.059  1.6516 -0.4357  0.2916
 7192SOL    HW222476   3.477   3.003   6.143 -1.2499 -1.9400  1.5443
 7193SOL     OW22477   1.925   4.197   3.022 -0.2061  0.1344 -0.3692
 7193SOL    HW122478   1.987   4.139   2.970 -0.5577 -0.6568  0.0698
 7193SOL    HW222479   1.901   4.151   3.108 -0.2366  1.0750  0.1377
 7194SOL     OW22480   2.259   3.427   6.684 -0.7174 -0.3689 -0.2389
 7194SOL    HW122481   2.190   3.499   6.694  0.4807  0.9885 -1.2198
 7194SOL    HW222482   2.241   3.375   6.600  0.1744  0.8791 -1.2440
 7195SOL     OW22483   0.233   3.958   6.829 -0.4433 -0.9869  0.5126
 7195SOL    HW122484   0.299   4.029   6.805 -1.5466  0.1778  0.8580
 7195SOL    HW222485   0.194   3.918   6.746 -0.7826 -0.2719  0.3255
 7196SOL     OW22486   5.460   2.970   0.579  0.2607 -0.6414 -0.5997
 7196SOL    HW122487   5.547   2.922   0.590 -0.0704 -1.0867  0.1021
 7196SOL    HW222488   5.394   2.909   0.534  0.0166 -0.6441 -0.2374
 7197SOL     OW22489   3.310   3.683   6.200 -0.0486 -0.0328 -0.1621
 7197SOL    HW122490   3.258   3.670   6.284  0.4981 -0.4661  0.1169
 7197SOL    HW222491   3.403   3.715   6.222  0.2046 -0.4659 -0.5737
 7198SOL     OW22492   5.619   2.689   1.150 -0.1821 -0.8635  0.4851
 7198SOL    HW122493   5.621   2.593   1.177 -0.7961 -0.3489  2.5998
 7198SOL    HW222494   5.711   2.728   1.159 -0.1037 -1.0511  0.4939
 7199SOL     OW22495   2.617   6.386   3.290 -0.1739  0.2139 -0.7728
 7199SOL    HW122496   2.581   6.478   3.303 -1.4343 -0.4815  1.0699
 7199SOL    HW222497   2.554   6.334   3.231 -1.5190 -0.5377  1.2132
 7200SOL     OW22498   1.481   2.013   4.951 -0.1076  0.1283  0.2363
 7200SOL    HW122499   1.546   1.954   4.999 -0.3212 -0.2686  0.0369
 7200SOL    HW222500   1.455   2.089   5.011  1.5539  1.0465 -0.1514
 7201SOL     OW22501   0.050   4.813   2.851  0.6459 -0.1074 -0.2792
 7201SOL    HW122502   0.027   4.904   2.886  1.8742 -0.3295  1.2027
 7201SOL    HW222503  -0.026   4.750   2.869  0.6334  0.1502  0.6335
 7202SOL     OW22504   3.095   0.158   6.536  0.4769 -0.5374  0.1059
 7202SOL    HW122505   3.170   0.216   6.505 -0.2068 -0.3674 -1.2950
 7202SOL    HW222506   3.014   0.215   6.552 -0.1198 -1.0345 -1.0237
 7203SOL     OW22507   6.510   0.650   1.805  0.4959  0.1571 -0.5946
 7203SOL    HW122508   6.595   0.605   1.778  0.5089 -1.2590  1.5399
 7203SOL    HW222509   6.453   0.585   1.856 -0.6055  1.8529  0.4263
 7204SOL     OW22510   0.311   0.593   6.349  0.2462 -0.1279  0.5273
 7204SOL    HW122511   0.355   0.563   6.264  0.5038 -0.1753  0.6747
 7204SOL    HW222512   0.215   0.565   6.348 -0.3150  1.6879 -0.6589
 7205SOL     OW22513   1.303   3.521   5.777  0.0274  0.4355  0.8212
 7205SOL    HW122514   1.260   3.589   5.718 -1.0896  0.0395  1.1605
 7205SOL    HW222515   1.351   3.454   5.720 -0.8913  0.1548  0.3592
 7206SOL     OW22516   1.813   2.625   2.806 -0.6376  0.1025  0.0340
 7206SOL    HW122517   1.851   2.596   2.894  0.3829  0.3229 -0.3259
 7206SOL    HW222518   1.809   2.546   2.745 -4.3786 -0.8392  1.2597
 7207SOL     OW22519   4.626   0.750   4.782  0.0090 -0.1927 -0.6300
 7207SOL    HW122520   4.663   0.664   4.749 -0.2424 -0.4733 -0.1805
 7207SOL    HW222521   4.536   0.735   4.823 -0.4650  0.4269 -1.4048
 7208SOL     OW22522   5.866   1.235   4.257  0.6909  0.4724  0.2904
 7208SOL    HW122523   5.781   1.185   4.237 -0.5817  1.6207  2.4802
 7208SOL    HW222524   5.858   1.329   4.224  2.6023 -0.2987 -2.7171
 7209SOL     OW22525   2.226   3.263   1.452 -0.0850 -0.6428 -0.1023
 7209SOL    HW122526   2.185   3.176   1.427 -1.3150 -0.1543  0.1528
 7209SOL    HW222527   2.156   3.323   1.491  0.9539  0.0835  0.7042
 7210SOL     OW22528   4.874   2.223   3.896  0.3055 -0.2211  0.4848
 7210SOL    HW122529   4.912   2.131   3.890  1.6788  0.3279  0.4367
 7210SOL    HW222530   4.948   2.290   3.890 -0.6862  0.8934  0.3907
 7211SOL     OW22531   2.884   4.186   5.664  0.8814 -0.1353  0.0072
 7211SOL    HW122532   2.874   4.104   5.607  1.1613 -0.3686  0.2851
 7211SOL    HW222533   2.974   4.184   5.708  1.6369  1.1986 -1.3697
 7212SOL     OW22534   6.668   0.453   5.345  0.5883  0.0404 -0.3235
 7212SOL    HW122535   6.647   0.467   5.248  1.4922  0.3699 -0.4778
 7212SOL    HW222536   6.594   0.493   5.400  1.0972  1.8025 -0.8408
 7213SOL     OW22537   3.146   6.535   6.977  0.6916  0.0746 -0.2256
 7213SOL    HW122538   3.214   6.462   6.988  1.4515  0.5817 -1.3056
 7213SOL    HW222539   3.194   6.621   6.955 -0.1767  0.9188  1.0573
 7214SOL     OW22540   0.036   6.976   0.153  0.8717  0.3067  0.3394
 7214SOL    HW122541   0.031   7.071   0.185 -0.0704  0.1989  0.5438
 7214SOL    HW222542  -0.046   6.955   0.099  0.6349 -0.6544  1.0482
 7215SOL     OW22543   1.815   5.346   4.057  0.7378 -0.4824 -0.5038
 7215SOL    HW122544   1.848   5.402   4.134  1.3649 -1.0144 -0.3779
 7215SOL    HW222545   1.841   5.251   4.072 -2.4732 -1.3201  0.5287
 7216SOL     OW22546   1.316   0.381   2.786 -0.1149 -0.7213  0.3208
 7216SOL    HW122547   1.341   0.411   2.878 -1.2675  0.0109  0.4189
 7216SOL    HW222548   1.283   0.286   2.789  1.9456 -1.5007  0.2758
 7217SOL     OW22549   1.320   3.106   2.362  0.2754  0.4770  0.6034
 7217SOL    HW122550   1.321   3.128   2.460 -0.5992  0.5322  0.6063
 7217SOL    HW222551   1.333   3.190   2.309  0.0482  0.5508  0.6636
 7218SOL     OW22552   6.336   3.485   3.446  0.2165 -0.2631  0.1911
 7218SOL    HW122553   6.334   3.575   3.402 -0.8092 -0.2138  0.2986
 7218SOL    HW222554   6.424   3.471   3.491 -0.0276  1.1858  1.1828
 7219SOL     OW22555   5.233   1.546   4.692  0.0786 -0.6894  0.4107
 7219SOL    HW122556   5.260   1.496   4.610 -0.4220 -1.2593  0.5938
 7219SOL    HW222557   5.249   1.644   4.678 -1.5380 -0.5965 -0.9772
 7220SOL     OW22558   5.458   4.059   2.356  0.8126 -0.5257 -0.1177
 7220SOL    HW122559   5.496   4.094   2.441  0.8005  0.9395 -0.6933
 7220SOL    HW222560   5.364   4.090   2.346  0.2245 -2.1045  0.1184
 7221SOL     OW22561   3.752   6.094   4.474  0.0337  0.1714 -0.5931
 7221SOL    HW122562   3.810   6.028   4.426 -1.8170 -1.3860 -0.8227
 7221SOL    HW222563   3.784   6.187   4.456  1.9769 -0.5849 -1.2796
 7222SOL     OW22564   5.394   0.638   4.574 -0.8436  0.1481 -0.2774
 7222SOL    HW122565   5.335   0.583   4.633  0.9439 -1.8019 -0.1843
 7222SOL    HW222566   5.399   0.595   4.484  3.0382 -1.8450  0.6754
 7223SOL     OW22567   2.284   0.410   0.859  0.2416  0.2758  0.3437
 7223SOL    HW122568   2.252   0.503   0.839 -0.9611 -0.0270  0.7419
 7223SOL    HW222569   2.251   0.348   0.787  0.9014  0.1213  0.1674
 7224SOL     OW22570   4.655   2.272   3.425 -0.3192 -0.3081 -0.1811
 7224SOL    HW122571   4.723   2.335   3.463 -1.3009  1.3374 -1.0321
 7224SOL    HW222572   4.600   2.234   3.499  0.9804 -1.0363  0.4458
 7225SOL     OW22573   0.182   5.122   0.452 -0.0343 -0.0574  0.1567
 7225SOL    HW122574   0.152   5.205   0.405 -0.5104  0.4009  1.2270
 7225SOL    HW222575   0.242   5.147   0.529 -1.5982 -0.5403  1.5896
 7226SOL     OW22576   2.245   5.616   1.471  0.3369 -0.2121  0.4099
 7226SOL    HW122577   2.176   5.682   1.442 -0.0377 -1.1206 -0.8556
 7226SOL    HW222578   2.322   5.665   1.513  0.2699  1.0729 -0.8726
 7227SOL     OW22579   2.926   0.953   2.048  0.1508 -0.2238  0.4276
 7227SOL    HW122580   3.015   0.913   2.071  0.6378  0.8285  0.4220
 7227SOL    HW222581   2.918   0.961   1.949  0.8962  1.4946  0.4747
 7228SOL     OW22582   3.177   1.851   1.346 -0.3224  0.0840 -0.1620
 7228SOL    HW122583   3.134   1.844   1.437  0.1999  2.5166  0.3440
 7228SOL    HW222584   3.269   1.888   1.356 -0.0355 -0.1780 -1.6693
 7229SOL     OW22585   1.419   6.197   5.338  0.7141 -0.8218  0.3325
 7229SOL    HW122586   1.385   6.291   5.341  0.1680 -0.9715 -0.7695
 7229SOL    HW222587   1.510   6.197   5.296  0.2183 -0.9122 -0.7542
 7230SOL     OW22588   5.012   6.365   4.202  0.7388  0.1931 -0.2258
 7230SOL    HW122589   4.973   6.416   4.278  1.0619 -0.7258  0.5793
 7230SOL    HW222590   4.938   6.326   4.146  0.5022  0.1797  0.0948
 7231SOL     OW22591   4.015   5.519   6.247 -0.0665  0.1257 -0.0122
 7231SOL    HW122592   4.101   5.552   6.207 -0.6885  0.8084 -0.8253
 7231SOL    HW222593   3.944   5.518   6.177 -0.4161 -1.7310  0.3252
 7232SOL     OW22594   5.093   5.005   3.498 -0.2565 -0.8062 -0.6500
 7232SOL    HW122595   5.037   5.012   3.416  1.7739 -2.6286 -2.2923
 7232SOL    HW222596   5.065   4.925   3.551  0.0828 -1.0908 -0.9000
 7233SOL     OW22597   2.434   2.517   4.005  0.1142 -0.6346 -0.6625
 7233SOL    HW122598   2.361   2.576   3.972 -0.2777 -0.7652 -0.0519
 7233SOL    HW222599   2.433   2.515   4.105  0.6227 -1.0499 -0.6583
 7234SOL     OW22600   5.877   4.572   1.130 -0.0480 -0.4347 -0.2650
 7234SOL    HW122601   5.927   4.495   1.171  0.6012 -1.1506 -2.2826
 7234SOL    HW222602   5.929   4.656   1.144  0.3840 -0.7392  0.0140
 7235SOL     OW22603   0.369   5.072   0.686  0.2403  0.0856  0.2240
 7235SOL    HW122604   0.422   5.131   0.747  0.8087 -0.0011 -0.1785
 7235SOL    HW222605   0.282   5.048   0.730  0.4493  0.3846  0.8120
 7236SOL     OW22606   2.018   2.671   2.525 -0.3405  0.3180 -0.3997
 7236SOL    HW122607   1.946   2.734   2.494 -0.6991 -0.0125 -0.2498
 7236SOL    HW222608   1.976   2.591   2.568  0.0597 -0.4981 -1.4501
 7237SOL     OW22609   3.867   0.980   4.824  0.3516 -0.1383 -0.2577
 7237SOL    HW122610   3.864   1.016   4.918  0.8336 -1.2521  0.2055
 7237SOL    HW222611   3.962   0.970   4.795  0.1977  1.2578 -1.3089
 7238SOL     OW22612   4.762   1.501   6.557 -0.6805 -0.2016  0.6047
 7238SOL    HW122613   4.677   1.452   6.575 -0.9555 -0.6025 -1.5857
 7238SOL    HW222614   4.839   1.452   6.599 -1.1121 -1.8296 -0.4113
 7239SOL     OW22615   0.819   1.851   1.710 -0.2552  0.0292  0.7201
 7239SOL    HW122616   0.894   1.883   1.767 -0.8604  0.2610  1.4165
 7239SOL    HW222617   0.732   1.876   1.753 -0.7362 -0.9403  0.3496
 7240SOL     OW22618   5.819   2.436   6.305 -0.2417 -0.0261  0.1053
 7240SOL    HW122619   5.761   2.354   6.308 -2.2484  1.3228  0.3401
 7240SOL    HW222620   5.893   2.427   6.372  0.5174 -2.2605 -0.9492
 7241SOL     OW22621   2.719   1.775   3.125  0.2128  0.1591  0.6916
 7241SOL    HW122622   2.741   1.869   3.099  2.1786 -0.2690  0.6459
 7241SOL    HW222623   2.673   1.729   3.049 -0.5961  1.0039  0.6501
 7242SOL     OW22624   6.193   6.305   1.446  0.1266  0.0996  0.0460
 7242SOL    HW122625   6.220   6.385   1.500  0.3767  0.9781 -1.3088
 7242SOL    HW222626   6.140   6.242   1.503  0.2372  1.0588  1.2466
 7243SOL     OW22627   5.989   5.837   4.935 -0.0913  0.8293  0.0337
 7243SOL    HW122628   6.022   5.808   5.024  1.5530  1.2677 -0.3949
 7243SOL    HW222629   6.065   5.876   4.882 -0.5994 -0.9893 -2.2227
 7244SOL     OW22630   0.098   0.162   1.402  0.2605  0.5389 -0.7155
 7244SOL    HW122631   0.073   0.257   1.383  0.2038  1.3559  2.7288
 7244SOL    HW222632   0.034   0.123   1.468  0.8803 -1.5850 -1.2853
 7245SOL     OW22633   0.914   4.301   6.129 -0.2279 -0.1123  0.3528
 7245SOL    HW122634   0.830   4.352   6.111  0.1950  0.2215 -0.7077
 7245SOL    HW222635   0.973   4.355   6.188 -0.1432  0.2665 -0.0767
 7246SOL     OW22636   1.075   6.146   3.591  0.8006 -0.0247  0.0193
 7246SOL    HW122637   1.013   6.137   3.513  0.8115 -0.0003  0.0080
 7246SOL    HW222638   1.155   6.199   3.564  2.0397 -2.1399 -0.6998
 7247SOL     OW22639   1.682   1.287   4.372 -0.0048  0.2527  0.1114
 7247SOL    HW122640   1.735   1.216   4.325  0.7315 -1.1231  2.8628
 7247SOL    HW222641   1.587   1.257   4.379 -0.3437  0.9048 -1.2443
 7248SOL     OW22642   2.784   6.187   1.200  0.7192 -0.0387  0.1428
 7248SOL    HW122643   2.856   6.211   1.266 -0.2048  1.9680  0.4793
 7248SOL    HW222644   2.816   6.111   1.143  1.9020 -1.2682  2.2811
 7249SOL     OW22645   5.071   5.979   2.433  0.0842 -0.1735 -0.2962
 7249SOL    HW122646   5.123   5.918   2.493 -1.9029 -1.0992  0.5898
 7249SOL    HW222647   5.032   5.926   2.358  2.2767  0.9247 -2.3203
 7250SOL     OW22648   5.540   6.816   4.807  0.7270  0.0487  0.1630
 7250SOL    HW122649   5.569   6.760   4.730  1.4189  0.1304  0.3621
 7250SOL    HW222650   5.483   6.761   4.869  0.1895 -0.0216 -0.3832
 7251SOL     OW22651   6.575   6.714   4.373  0.2040  0.4838 -0.5720
 7251SOL    HW122652   6.627   6.790   4.334  1.7093 -0.1340  0.1419
 7251SOL    HW222653   6.633   6.633   4.377 -0.5856 -0.0460  0.9465
 7252SOL     OW22654   3.653   3.834   1.655 -0.3554 -0.4007  0.0853
 7252SOL    HW122655   3.722   3.853   1.585 -0.5446 -0.1319 -0.0307
 7252SOL    HW222656   3.608   3.747   1.634 -0.5920 -0.1947 -0.2752
 7253SOL     OW22657   3.127   5.992   6.689 -0.4154 -0.5662  0.5490
 7253SOL    HW122658   3.091   6.073   6.734 -0.4351 -0.7967  0.9542
 7253SOL    HW222659   3.132   5.917   6.755  1.5615 -0.3324  0.7059
 7254SOL     OW22660   5.776   4.569   4.187  0.2154 -0.2176 -0.2876
 7254SOL    HW122661   5.824   4.645   4.230 -0.3850 -0.2137  0.4047
 7254SOL    HW222662   5.677   4.587   4.190  0.1307 -0.5299 -1.0839
 7255SOL     OW22663   5.330   3.313   6.956 -0.1046 -0.3071  0.0661
 7255SOL    HW122664   5.319   3.290   7.053 -0.5521 -2.7660 -0.5030
 7255SOL    HW222665   5.240   3.315   6.912  0.2170 -0.9063 -0.6349
 7256SOL     OW22666   3.217   4.291   0.428 -0.2836  0.9902 -0.0440
 7256SOL    HW122667   3.136   4.314   0.483 -0.4540 -0.4762  0.3655
 7256SOL    HW222668   3.188   4.268   0.335 -0.3823  0.2510  0.1611
 7257SOL     OW22669   0.398   0.909   3.129  0.3766 -0.3588  0.3151
 7257SOL    HW122670   0.320   0.959   3.094  0.4172  0.6929  1.6309
 7257SOL    HW222671   0.374   0.813   3.140 -1.0488  0.0878  1.4973
 7258SOL     OW22672   4.497   1.720   3.184  0.2510  0.6512 -0.2574
 7258SOL    HW122673   4.434   1.684   3.116  0.4059  0.5885 -0.3675
 7258SOL    HW222674   4.588   1.679   3.171  0.1064  0.0898  0.4413
 7259SOL     OW22675   1.186   1.640   0.782 -0.2137 -0.1657 -0.3844
 7259SOL    HW122676   1.166   1.734   0.753 -1.3309 -0.6163 -1.1422
 7259SOL    HW222677   1.119   1.612   0.850 -0.8504 -0.9287 -1.2987
 7260SOL     OW22678   3.987   6.864   0.405  0.5389 -0.1359  0.1789
 7260SOL    HW122679   3.903   6.829   0.365 -0.3904 -0.4040  2.2453
 7260SOL    HW222680   4.053   6.884   0.332 -1.2796  0.0751 -1.4734
 7261SOL     OW22681   1.077   3.573   2.534  0.0611 -0.4095  0.5127
 7261SOL    HW122682   1.155   3.512   2.549  3.1158  2.9085 -0.1732
 7261SOL    HW222683   1.060   3.581   2.436  0.3128  0.4625  0.5316
 7262SOL     OW22684   5.116   1.511   6.047 -0.6635 -0.0917 -0.2989
 7262SOL    HW122685   5.196   1.508   6.106 -0.7287 -0.2619 -0.2181
 7262SOL    HW222686   5.060   1.590   6.072 -0.6782 -0.1486 -0.1491
 7263SOL     OW22687   0.825   1.159   0.533  0.8340  1.0518  0.2535
 7263SOL    HW122688   0.824   1.091   0.460 -0.5141 -0.4722  1.6108
 7263SOL    HW222689   0.918   1.168   0.568  1.1573  0.3949 -0.4009
 7264SOL     OW22690   3.619   1.368   0.534  0.4441  0.2027  0.1248
 7264SOL    HW122691   3.696   1.431   0.530  0.9882 -0.3213  1.5783
 7264SOL    HW222692   3.545   1.402   0.476  1.0799  1.6596  0.1215
 7265SOL     OW22693   6.113   4.638   4.379 -0.4617  0.8196  0.5271
 7265SOL    HW122694   6.034   4.698   4.390 -0.0295  1.6911 -0.8110
 7265SOL    HW222695   6.091   4.565   4.314 -0.7308 -0.0220  1.5438
 7266SOL     OW22696   3.920   1.467   2.922  0.0983  0.2294 -0.3309
 7266SOL    HW122697   3.836   1.423   2.891  0.4337 -0.5167 -0.1810
 7266SOL    HW222698   3.970   1.504   2.843 -0.6537  1.2150 -0.3722
 7267SOL     OW22699   6.963   6.255   3.758  0.1035  0.5528  0.5155
 7267SOL    HW122700   6.875   6.299   3.742  0.6144  1.6736  0.7106
 7267SOL    HW222701   6.949   6.166   3.800 -0.9099  1.0255  1.1896
 7268SOL     OW22702   0.569   4.779   1.583 -0.0463  0.2316 -0.6920
 7268SOL    HW122703   0.572   4.716   1.506  1.6936 -0.4377 -0.1193
 7268SOL    HW222704   0.659   4.820   1.596 -0.2343  0.1289  1.1637
 7269SOL     OW22705   2.033   5.460   5.255 -0.2194 -0.3219  0.3374
 7269SOL    HW122706   2.082   5.423   5.334  0.7751 -0.3058 -0.2581
 7269SOL    HW222707   1.984   5.387   5.208  0.6033 -0.6520 -0.0262
 7270SOL     OW22708   6.411   4.580   4.139 -0.5512  0.3138 -0.8783
 7270SOL    HW122709   6.406   4.598   4.041 -0.3220  1.8708 -0.6302
 7270SOL    HW222710   6.370   4.656   4.189  0.5818  0.2074  0.2670
 7271SOL     OW22711   0.154   5.322   4.222 -0.2056 -0.5514  0.2988
 7271SOL    HW122712   0.150   5.227   4.192 -0.7666 -0.3636 -0.2387
 7271SOL    HW222713   0.249   5.349   4.235 -0.0071 -0.9556 -0.2914
 7272SOL     OW22714   6.398   5.072   2.564  0.1961 -0.0347 -0.1722
 7272SOL    HW122715   6.355   5.150   2.518 -0.7023 -0.4553 -0.0650
 7272SOL    HW222716   6.366   4.987   2.522 -0.9090 -0.4488  1.4489
 7273SOL     OW22717   0.416   5.187   6.894  0.1630  0.0301 -0.5365
 7273SOL    HW122718   0.403   5.147   6.804 -1.8600 -0.4014 -0.0959
 7273SOL    HW222719   0.347   5.151   6.957  0.5452  1.5038  0.7870
 7274SOL     OW22720   1.021   5.881   7.014  0.2912  0.3524 -0.3513
 7274SOL    HW122721   1.097   5.817   7.014  0.9316  1.0430  1.6548
 7274SOL    HW222722   1.005   5.914   6.921 -0.0036 -2.5813 -1.4247
 7275SOL     OW22723   0.355   0.054   2.638  0.1700 -0.0815 -0.1735
 7275SOL    HW122724   0.263   0.069   2.672  1.1633 -1.4717  3.5938
 7275SOL    HW222725   0.418   0.118   2.681  1.3809 -1.1946 -0.2061
 7276SOL     OW22726   4.759   0.940   4.924 -0.5431 -0.0060 -0.6092
 7276SOL    HW122727   4.698   0.984   4.990 -1.8577 -0.0570 -1.7609
 7276SOL    HW222728   4.711   0.866   4.878  0.0331  0.6179 -2.2894
 7277SOL     OW22729   5.468   6.933   4.156 -0.2733 -0.3147  0.0692
 7277SOL    HW122730   5.482   6.996   4.232  2.0312 -0.2365 -0.3408
 7277SOL    HW222731   5.400   6.970   4.093 -0.9167  0.4542  1.1844
 7278SOL     OW22732   2.502   1.003   1.804  0.1073  0.4781  0.4280
 7278SOL    HW122733   2.481   0.950   1.886 -1.0268  0.6131  0.2366
 7278SOL    HW222734   2.456   1.092   1.808 -1.1613 -0.0726 -0.9938
 7279SOL     OW22735   5.119   4.764   6.969  0.2989  0.1073 -0.2712
 7279SOL    HW122736   5.051   4.806   6.908  0.9366 -1.2257 -1.9736
 7279SOL    HW222737   5.076   4.740   7.056 -0.6134  2.1732 -0.0852
 7280SOL     OW22738   6.991   1.917   6.174 -0.1798  0.3988  0.1818
 7280SOL    HW122739   6.913   1.854   6.184  0.1834 -0.9916 -3.8991
 7280SOL    HW222740   7.071   1.866   6.142  1.5601  2.2891  1.3180
 7281SOL     OW22741   2.018   6.252   0.717  0.5513  0.4889  0.1796
 7281SOL    HW122742   1.949   6.271   0.787 -0.1727 -0.6492 -0.2027
 7281SOL    HW222743   2.002   6.312   0.639  0.3758  0.6619  0.3439
 7282SOL     OW22744   4.572   6.427   3.822  0.0147  0.2993  0.1480
 7282SOL    HW122745   4.625   6.351   3.784 -0.1462  0.8256 -1.1946
 7282SOL    HW222746   4.630   6.480   3.885  0.7850  0.2914 -0.5334
 7283SOL     OW22747   3.896   0.642   2.071  0.3124  0.4486 -0.1851
 7283SOL    HW122748   3.836   0.659   2.149 -0.0018  0.7487 -0.4909
 7283SOL    HW222749   3.906   0.544   2.058 -0.6967  0.3845 -0.5735
 7284SOL     OW22750   0.620   2.140   5.520 -0.2007 -0.7659 -0.7659
 7284SOL    HW122751   0.574   2.067   5.470 -1.9196  0.1470 -0.5880
 7284SOL    HW222752   0.558   2.178   5.589  0.8061  0.5635 -0.5538
 7285SOL     OW22753   5.130   1.520   2.127 -0.0138 -0.3181 -0.2003
 7285SOL    HW122754   5.182   1.490   2.207 -1.0498 -0.0937  0.5728
 7285SOL    HW222755   5.101   1.615   2.139  0.6296  0.0416 -1.2800
 7286SOL     OW22756   2.615   5.456   5.990  0.3671  0.2407 -0.4342
 7286SOL    HW122757   2.592   5.402   6.071  0.3778 -0.1996 -0.7179
 7286SOL    HW222758   2.714   5.459   5.978  0.3861  0.7303 -0.1479
 7287SOL     OW22759   0.670   3.065   5.300 -0.1540  0.3708  0.7551
 7287SOL    HW122760   0.614   3.127   5.354 -0.8967 -0.9396  1.5414
 7287SOL    HW222761   0.765   3.096   5.301 -0.2261  0.6257  2.4482
 7288SOL     OW22762   2.211   1.837   1.282 -0.1882  0.0731 -0.4799
 7288SOL    HW122763   2.133   1.898   1.292 -0.0949 -0.1046  1.7289
 7288SOL    HW222764   2.180   1.750   1.244 -0.8137  0.4654 -0.8918
 7289SOL     OW22765   4.343   2.327   4.840  0.2074  0.5179  0.5346
 7289SOL    HW122766   4.295   2.278   4.767 -0.5852  3.6540 -1.2412
 7289SOL    HW222767   4.277   2.358   4.909  0.8185 -1.5132  2.1338
 7290SOL     OW22768   3.625   1.007   0.562  0.6527 -0.1389  0.5218
 7290SOL    HW122769   3.589   1.052   0.480 -0.2660 -0.8437  0.5206
 7290SOL    HW222770   3.724   0.998   0.555  0.7398  0.9993  0.0865
 7291SOL     OW22771   3.107   4.017   0.331  0.1134 -0.6334 -0.2519
 7291SOL    HW122772   3.169   4.072   0.275  2.1960 -1.4749  1.1001
 7291SOL    HW222773   3.025   4.070   0.354  0.3431  0.5378 -2.0358
 7292SOL     OW22774   3.324   1.871   4.485  0.3666  0.3410 -0.3962
 7292SOL    HW122775   3.385   1.894   4.410  0.6505  0.2483 -0.1956
 7292SOL    HW222776   3.328   1.773   4.503 -1.8222 -0.1566 -2.1160
 7293SOL     OW22777   1.919   3.170   6.154 -0.3369  0.0791 -0.6499
 7293SOL    HW122778   1.938   3.072   6.153 -1.0903 -0.0755 -1.1027
 7293SOL    HW222779   1.949   3.209   6.241  0.1306 -0.5174 -0.5342
 7294SOL     OW22780   2.674   3.845   5.781 -0.2319  0.3171 -0.0270
 7294SOL    HW122781   2.608   3.912   5.747  0.2408  0.4027 -0.8229
 7294SOL    HW222782   2.743   3.828   5.709 -0.1355 -0.7368  0.3091
 7295SOL     OW22783   6.994   2.246   2.690  0.1145  0.2389  0.2832
 7295SOL    HW122784   7.040   2.318   2.639  0.7450 -0.5709 -0.3323
 7295SOL    HW222785   7.028   2.246   2.784  1.4593 -0.3668 -0.1677
 7296SOL     OW22786   2.561   6.517   2.509  0.1266  0.2519 -0.2981
 7296SOL    HW122787   2.640   6.493   2.453 -0.8963 -1.4461 -1.1021
 7296SOL    HW222788   2.489   6.554   2.451 -1.0769 -1.8425 -0.2719
 7297SOL     OW22789   3.757   5.248   5.913  0.4653  0.0666  0.3264
 7297SOL    HW122790   3.664   5.253   5.876  1.0010  0.5317 -1.0213
 7297SOL    HW222791   3.776   5.155   5.943 -0.2054 -0.1854 -0.0049
 7298SOL     OW22792   5.240   6.581   5.943  0.8044  0.4419  0.3746
 7298SOL    HW122793   5.173   6.510   5.968  0.2651  0.6267 -0.5126
 7298SOL    HW222794   5.206   6.633   5.865  2.2223  0.1847 -0.4617
 7299SOL     OW22795   0.064   0.033   6.490  0.3126 -0.4828 -0.5149
 7299SOL    HW122796   0.087   0.101   6.421 -1.5924  0.4499 -0.3174
 7299SOL    HW222797   0.030  -0.050   6.446  2.0845 -1.1171 -0.7420
 7300SOL     OW22798   1.666   0.360   5.799 -0.3251  0.2948 -0.6349
 7300SOL    HW122799   1.629   0.269   5.779 -1.7916  0.5485  0.7660
 7300SOL    HW222800   1.684   0.408   5.713 -0.9430 -0.7694 -1.3784
 7301SOL     OW22801   5.118   6.637   5.472  0.4994  0.2456  0.2171
 7301SOL    HW122802   5.114   6.554   5.417  2.1308  0.0295  0.3625
 7301SOL    HW222803   5.052   6.704   5.436 -2.8935 -2.0057  1.7998
 7302SOL     OW22804   6.840   3.083   6.793  0.0056  0.8551 -0.8160
 7302SOL    HW122805   6.757   3.091   6.738 -0.6273  1.5243  0.2233
 7302SOL    HW222806   6.816   3.067   6.889  1.0948 -0.0302 -0.6617
 7303SOL     OW22807   4.153   0.481   7.007  0.2133  0.3173  0.1472
 7303SOL    HW122808   4.062   0.449   6.977  0.2087  1.2853 -0.9301
 7303SOL    HW222809   4.166   0.456   7.103 -1.0976 -0.0498  0.2619
 7304SOL     OW22810   4.515   5.353   2.737 -0.1945  0.7044 -0.2279
 7304SOL    HW122811   4.447   5.361   2.810  0.7161  0.0455  0.7241
 7304SOL    HW222812   4.607   5.366   2.775  0.2217  2.3508 -1.6101
 7305SOL     OW22813   1.602   5.160   5.541 -0.6623 -0.4963  0.2292
 7305SOL    HW122814   1.680   5.210   5.579  0.6160 -0.9807 -1.6209
 7305SOL    HW222815   1.519   5.186   5.590  0.6189  0.1076  2.2113
 7306SOL     OW22816   3.225   1.374   1.055  0.3537 -0.5920  0.2245
 7306SOL    HW122817   3.296   1.431   1.013  0.0691 -1.0858 -0.9675
 7306SOL    HW222818   3.266   1.288   1.087  0.3367 -0.7724 -0.2396
 7307SOL     OW22819   2.350   6.815   1.990  0.0153 -0.2005 -0.5496
 7307SOL    HW122820   2.325   6.874   2.066  0.4059  0.3497 -0.8464
 7307SOL    HW222821   2.267   6.786   1.941 -0.3995 -1.8057  0.9744
 7308SOL     OW22822   6.579   2.568   5.176 -0.5250  0.2290 -0.1592
 7308SOL    HW122823   6.522   2.494   5.142  0.0802  0.0520 -0.8004
 7308SOL    HW222824   6.563   2.581   5.274 -0.8231 -0.5703 -0.1031
 7309SOL     OW22825   5.055   5.555   0.881  0.0971 -0.0479 -0.5237
 7309SOL    HW122826   5.039   5.457   0.871  1.7357 -0.4051  0.0623
 7309SOL    HW222827   5.121   5.586   0.812 -1.4955  0.9612 -1.6449
 7310SOL     OW22828   2.124   4.170   1.863 -0.0516 -0.3150 -0.1547
 7310SOL    HW122829   2.194   4.234   1.830  0.5590 -0.1540  1.3571
 7310SOL    HW222830   2.086   4.204   1.949  0.0788 -1.8339  0.5389
 7311SOL     OW22831   1.727   1.383   1.508  0.2703 -0.6915  0.0710
 7311SOL    HW122832   1.633   1.391   1.541 -0.1441 -0.7950 -1.0485
 7311SOL    HW222833   1.785   1.349   1.582 -0.3964  0.2041  1.0337
 7312SOL     OW22834   0.488   5.533   5.833  0.6271 -0.3557 -0.3303
 7312SOL    HW122835   0.413   5.539   5.768  0.6387  0.5374 -0.2731
 7312SOL    HW222836   0.574   5.553   5.787  0.6095  0.5110  0.0034
 7313SOL     OW22837   1.296   6.626   0.034 -0.4392 -0.0157 -0.1352
 7313SOL    HW122838   1.208   6.598   0.072 -0.0502  0.0802  0.8762
 7313SOL    HW222839   1.337   6.695   0.093  0.1326  0.2384 -0.8184
 7314SOL     OW22840   0.043   3.683   6.373 -0.3183  0.7755  0.3669
 7314SOL    HW122841  -0.045   3.637   6.382 -0.0121  0.3070  0.9983
 7314SOL    HW222842   0.117   3.617   6.380  0.1305  1.3657  1.4341
 7315SOL     OW22843   5.223   0.220   3.022  0.4508  0.5899  0.5749
 7315SOL    HW122844   5.280   0.256   2.949 -1.4492  0.7020 -0.9383
 7315SOL    HW222845   5.141   0.178   2.983 -0.3283  0.0705  2.6216
 7316SOL     OW22846   2.505   2.488   6.850  0.1928 -1.0226  0.1937
 7316SOL    HW122847   2.542   2.580   6.837  0.1585 -0.8245  1.3753
 7316SOL    HW222848   2.442   2.467   6.776 -0.6511  0.3602  0.4718
 7317SOL     OW22849   4.523   1.146   2.322  0.0204 -0.2026 -0.1457
 7317SOL    HW122850   4.439   1.183   2.361 -0.5379 -2.1075  0.6056
 7317SOL    HW222851   4.523   1.161   2.224  1.0533  3.9435  0.3149
 7318SOL     OW22852   2.102   2.005   2.000  0.3678  0.0890  1.0184
 7318SOL    HW122853   2.153   2.005   2.086  0.5188 -0.0164  0.9282
 7318SOL    HW222854   2.152   2.057   1.931 -0.2193  1.0124  1.2677
 7319SOL     OW22855   0.004   4.480   0.059  0.0634  0.2750  0.2029
 7319SOL    HW122856   0.038   4.457  -0.033 -3.1167  0.4970 -1.1473
 7319SOL    HW222857   0.005   4.579   0.071  1.0690  0.2147  0.6839
 7320SOL     OW22858   5.949   2.969   1.944 -0.4208 -0.6766  0.0938
 7320SOL    HW122859   5.975   3.065   1.934  0.5599 -0.9717 -0.3879
 7320SOL    HW222860   5.925   2.931   1.855 -0.7758 -0.8843  0.2762
 7321SOL     OW22861   1.958   0.386   5.684 -0.0664 -0.0961  0.4187
 7321SOL    HW122862   1.973   0.393   5.586  2.5132  2.1779  0.8684
 7321SOL    HW222863   2.001   0.302   5.718  0.9193  0.1692 -0.1324
 7322SOL     OW22864   0.812   2.420   3.547 -0.3364 -0.3017 -0.3363
 7322SOL    HW122865   0.903   2.391   3.517 -0.3867 -0.4268 -0.3701
 7322SOL    HW222866   0.753   2.339   3.555 -0.3222 -0.2728  0.1072
 7323SOL     OW22867   2.092   3.238   2.175 -0.3769  0.0943  0.2014
 7323SOL    HW122868   2.058   3.254   2.083 -2.6221  1.1029  1.1355
 7323SOL    HW222869   2.152   3.159   2.175 -0.0379  0.2951 -2.1727
 7324SOL     OW22870   4.663   1.102   6.336 -0.5488 -0.0502 -0.4952
 7324SOL    HW122871   4.727   1.096   6.260 -0.6902  1.6577 -0.7871
 7324SOL    HW222872   4.713   1.122   6.421 -0.6431  0.9766 -0.6699
 7325SOL     OW22873   4.342   6.168   0.229 -0.9887  0.2894  0.2301
 7325SOL    HW122874   4.302   6.207   0.146  0.1623 -0.5896 -0.7859
 7325SOL    HW222875   4.357   6.240   0.296  0.2281  1.4887 -1.2414
 7326SOL     OW22876   2.440   4.865   5.440  0.3695 -0.8583  0.2361
 7326SOL    HW122877   2.348   4.860   5.403  1.1786  0.7545 -2.2352
 7326SOL    HW222878   2.494   4.788   5.408  0.3367 -0.9011  0.2837
 7327SOL     OW22879   6.577   1.850   0.377 -0.2143 -0.6576  0.5701
 7327SOL    HW122880   6.619   1.912   0.443 -0.7275 -0.8821  1.1192
 7327SOL    HW222881   6.479   1.870   0.370  0.0165  0.0976 -0.9545
 7328SOL     OW22882   3.890   1.808   6.921 -0.0094  0.7891 -0.0230
 7328SOL    HW122883   3.863   1.788   7.015  0.1458 -1.4474 -0.3961
 7328SOL    HW222884   3.989   1.800   6.913 -0.1147 -0.0402 -0.5742
 7329SOL     OW22885   5.388   3.603   6.887 -0.3124  0.3452 -0.4620
 7329SOL    HW122886   5.401   3.597   6.788 -0.2075  0.2730 -0.4446
 7329SOL    HW222887   5.374   3.511   6.924 -3.1346  0.5645 -0.7698
 7330SOL     OW22888   1.419   3.229   5.078  0.0840 -0.2058 -0.4979
 7330SOL    HW122889   1.396   3.219   5.175  1.7119 -0.4118 -0.1051
 7330SOL    HW222890   1.399   3.143   5.030 -1.3503  0.1026 -0.5201
 7331SOL     OW22891   4.959   0.798   3.038 -0.4550 -0.0895 -0.0490
 7331SOL    HW122892   4.991   0.875   3.094 -0.0426 -1.0608  1.0906
 7331SOL    HW222893   4.994   0.808   2.945 -0.6673  1.2585 -0.0050
 7332SOL     OW22894   2.826   4.841   0.205  0.0606 -0.0708  0.1666
 7332SOL    HW122895   2.873   4.924   0.177 -1.4200  0.5785 -0.5121
 7332SOL    HW222896   2.879   4.795   0.276  1.1968  1.1354  0.1342
 7333SOL     OW22897   1.311   3.194   1.363 -0.4498  0.0558 -0.5184
 7333SOL    HW122898   1.242   3.142   1.311 -0.5564  0.8306 -1.1660
 7333SOL    HW222899   1.291   3.292   1.356 -1.0742  0.1483  1.8497
 7334SOL     OW22900   2.300   5.115   5.478  0.2349 -0.1620  0.2892
 7334SOL    HW122901   2.382   5.143   5.529  0.4907  0.4770 -0.4484
 7334SOL    HW222902   2.320   5.033   5.425  0.8281  0.7396 -0.9291
 7335SOL     OW22903   2.257   2.345   4.717 -0.3163 -0.2731 -0.5950
 7335SOL    HW122904   2.175   2.374   4.766 -0.7509  0.7691 -1.8798
 7335SOL    HW222905   2.331   2.332   4.782 -1.0951  0.2406  0.4323
 7336SOL     OW22906   2.546   6.502   1.886 -0.5239 -0.3025 -0.4057
 7336SOL    HW122907   2.552   6.602   1.893  1.1629 -0.4400  0.6121
 7336SOL    HW222908   2.465   6.470   1.935 -0.4202  0.4845  0.3018
 7337SOL     OW22909   1.928   2.631   0.718  0.4112 -0.4828  0.4702
 7337SOL    HW122910   2.015   2.654   0.762  0.6215  1.3351 -0.7907
 7337SOL    HW222911   1.854   2.681   0.761  0.3531 -0.1505 -0.0029
 7338SOL     OW22912   6.329   1.340   0.346  0.3707  0.0504 -0.4874
 7338SOL    HW122913   6.417   1.351   0.394  1.1331 -3.0111 -0.9797
 7338SOL    HW222914   6.260   1.398   0.390  2.1196  0.9216  1.2882
 7339SOL     OW22915   5.091   6.303   2.876 -0.7811  0.7954 -0.2285
 7339SOL    HW122916   5.109   6.300   2.975  0.2410 -0.0692 -0.4299
 7339SOL    HW222917   5.011   6.246   2.855  0.5350 -1.1701 -0.1916
 7340SOL     OW22918   2.274   0.769   6.755  0.3797  0.3006 -0.3622
 7340SOL    HW122919   2.309   0.857   6.721  2.2805 -0.0232  0.6380
 7340SOL    HW222920   2.270   0.771   6.855  0.2711 -0.6734 -0.3366
 7341SOL     OW22921   2.012   5.272   6.543 -0.2861 -0.6519  0.1245
 7341SOL    HW122922   2.069   5.214   6.485  1.7943  0.1478  1.2700
 7341SOL    HW222923   1.975   5.219   6.619  2.4172 -0.4136  1.7380
 7342SOL     OW22924   0.196   2.344   1.808 -0.0162 -0.5042  0.1850
 7342SOL    HW122925   0.243   2.423   1.769 -0.9169 -0.7005 -1.3815
 7342SOL    HW222926   0.194   2.352   1.908 -0.1428  1.4745  0.0597
 7343SOL     OW22927   5.890   2.754   1.143 -0.4147 -0.0410 -0.3802
 7343SOL    HW122928   5.952   2.676   1.151 -2.4019 -1.8569 -1.6631
 7343SOL    HW222929   5.933   2.835   1.184  2.1984 -1.4931 -0.0243
 7344SOL     OW22930   0.941   1.348   6.491 -0.2638  0.1649  0.3391
 7344SOL    HW122931   0.943   1.257   6.532  0.4453 -0.4948 -1.0652
 7344SOL    HW222932   0.865   1.400   6.529  0.3779 -0.3603  2.4742
 7345SOL     OW22933   4.943   5.723   6.130 -0.3801  0.6036 -0.2143
 7345SOL    HW122934   5.002   5.685   6.058  1.4606  0.2943  1.3820
 7345SOL    HW222935   4.917   5.650   6.193 -0.8401  1.1320  0.2180
 7346SOL     OW22936   4.755   5.645   2.954  0.7902  0.2017 -0.2862
 7346SOL    HW122937   4.759   5.564   3.013 -0.4919 -0.6289 -1.2588
 7346SOL    HW222938   4.839   5.697   2.963  0.3069  0.6659  2.9924
 7347SOL     OW22939   0.421   3.204   6.962  0.0543 -0.2761 -0.2452
 7347SOL    HW122940   0.399   3.273   7.030  0.2900  0.0433 -0.4863
 7347SOL    HW222941   0.441   3.117   7.007  1.5209  0.2638  0.2027
 7348SOL     OW22942   2.122   3.470   4.388  0.9082  0.6037  0.5019
 7348SOL    HW122943   2.023   3.475   4.374  0.8189 -0.0275  0.8756
 7348SOL    HW222944   2.142   3.471   4.486  1.4431  3.5310  0.4291
 7349SOL     OW22945   3.444   1.724   0.996  0.1472  0.5884  0.5667
 7349SOL    HW122946   3.448   1.823   0.992  1.5192  0.5924  1.3703
 7349SOL    HW222947   3.504   1.691   1.070  0.8173 -0.8971 -0.5767
 7350SOL     OW22948   2.841   2.586   5.787 -0.0968  0.1075  0.7233
 7350SOL    HW122949   2.847   2.505   5.845  0.8764 -0.4311 -0.1182
 7350SOL    HW222950   2.744   2.606   5.769 -0.3557 -0.7405  1.0978
 7351SOL     OW22951   5.447   0.510   0.016 -0.0012  0.1101 -0.6216
 7351SOL    HW122952   5.492   0.420   0.011  0.6299  0.4554 -1.4411
 7351SOL    HW222953   5.359   0.505  -0.030 -0.3423 -0.2994  0.0619
 7352SOL     OW22954   1.686   2.020   3.400 -0.4936 -0.0960  0.5736
 7352SOL    HW122955   1.686   2.115   3.369  0.9469 -0.3071 -0.1251
 7352SOL    HW222956   1.672   1.959   3.322  3.3184 -0.6390  0.1410
 7353SOL     OW22957   6.553   6.318   5.685  0.2935  0.4723 -0.0512
 7353SOL    HW122958   6.556   6.329   5.585  1.1237 -0.1652 -0.1097
 7353SOL    HW222959   6.469   6.270   5.710  1.0932 -1.3557 -0.6845
 7354SOL     OW22960   2.125   2.952   5.620  0.1395  0.4610  0.3319
 7354SOL    HW122961   2.075   3.001   5.691 -1.2621  0.4582 -0.6168
 7354SOL    HW222962   2.142   3.013   5.542  0.0205 -0.0405 -0.0964
 7355SOL     OW22963   0.116   1.667   1.482 -0.7045  0.1884  0.0801
 7355SOL    HW122964   0.102   1.570   1.464  1.0056  0.1084 -0.9690
 7355SOL    HW222965   0.029   1.708   1.511 -1.0799 -2.0120  2.4655
 7356SOL     OW22966   2.833   3.750   6.820  0.6160  0.2867 -0.6123
 7356SOL    HW122967   2.793   3.660   6.836  2.7243 -0.5767  0.1992
 7356SOL    HW222968   2.872   3.755   6.728  1.2521  0.0427 -0.3621
 7357SOL     OW22969   4.686   6.823   1.536 -0.4237 -0.2413  0.0377
 7357SOL    HW122970   4.664   6.742   1.590  1.0305  0.0804  1.1726
 7357SOL    HW222971   4.746   6.796   1.460 -1.6632 -0.5388 -0.8551
 7358SOL     OW22972   0.966   4.468   3.638  0.4460  0.4772 -0.0188
 7358SOL    HW122973   1.010   4.510   3.559 -0.1405  0.9015 -0.1298
 7358SOL    HW222974   0.892   4.528   3.670  0.4739  0.1605  0.6549
 7359SOL     OW22975   4.631   2.612   6.287 -0.2111 -0.3002  0.0117
 7359SOL    HW122976   4.634   2.590   6.384  0.9596 -0.6321 -0.0777
 7359SOL    HW222977   4.703   2.561   6.239 -2.2758 -2.0315 -1.4471
 7360SOL     OW22978   0.894   4.906   0.109  0.1760 -0.3880 -0.2752
 7360SOL    HW122979   0.797   4.896   0.131  0.1174  0.4749 -0.0773
 7360SOL    HW222980   0.935   4.970   0.174  0.9427 -0.9601 -0.1891
 7361SOL     OW22981   5.157   6.498   2.487 -0.0920  0.1969 -0.0656
 7361SOL    HW122982   5.181   6.516   2.582  0.6710 -1.3641  0.0747
 7361SOL    HW222983   5.139   6.585   2.440  0.0458  1.0246  1.3468
 7362SOL     OW22984   1.078   3.482   3.986  0.0658  0.1102  0.4817
 7362SOL    HW122985   1.081   3.432   4.073 -0.0520  0.7325  0.8518
 7362SOL    HW222986   1.016   3.436   3.923  0.8226 -0.8472  0.3990
 7363SOL     OW22987   2.925   2.396   0.719  0.4511 -0.0486  0.1803
 7363SOL    HW122988   2.855   2.450   0.671  0.2455  0.8906  1.4836
 7363SOL    HW222989   3.016   2.428   0.692  0.5681 -2.4287 -2.8912
 7364SOL     OW22990   3.245   0.158   2.378  0.4661  0.3147 -0.0907
 7364SOL    HW122991   3.291   0.191   2.295  0.4390  0.4820 -0.0400
 7364SOL    HW222992   3.151   0.190   2.380  0.5171  0.4614  0.0902
 7365SOL     OW22993   0.505   5.774   0.994 -0.0077 -0.2434 -0.0859
 7365SOL    HW122994   0.410   5.743   1.000  0.1442 -0.7500 -0.2704
 7365SOL    HW222995   0.509   5.858   0.939 -0.2751 -0.5590 -0.6011
 7366SOL     OW22996   2.603   4.414   0.003  0.3718 -0.1364  0.2007
 7366SOL    HW122997   2.624   4.442  -0.091  1.0004  1.0482  0.6708
 7366SOL    HW222998   2.556   4.489   0.050  0.7129 -0.4457  1.0459
 7367SOL     OW22999   6.223   1.400   1.314 -0.3557 -0.4435  0.2121
 7367SOL    HW123000   6.234   1.344   1.396 -0.8671 -1.1098 -0.1676
 7367SOL    HW223001   6.190   1.343   1.239 -1.6833  0.5167  0.0396
 7368SOL     OW23002   3.919   3.400   2.733 -0.0467 -0.1021 -0.3844
 7368SOL    HW123003   3.993   3.367   2.793  0.5848  0.2882 -0.9295
 7368SOL    HW223004   3.933   3.497   2.715 -0.5702 -0.0826 -0.6862
 7369SOL     OW23005   3.888   1.775   0.950 -0.4420 -0.1300  0.6738
 7369SOL    HW123006   3.850   1.698   1.000  1.0464 -0.0694  2.0153
 7369SOL    HW223007   3.846   1.860   0.983 -1.7300 -0.2961 -0.4613
 7370SOL     OW23008   3.978   0.596   4.746  0.4457 -0.4502  0.1890
 7370SOL    HW123009   4.003   0.693   4.743  1.9123 -0.8013 -2.6223
 7370SOL    HW223010   3.884   0.587   4.778  0.2402  1.8919  0.4203
 7371SOL     OW23011   3.314   6.055   3.481  0.1822  0.2775 -0.0973
 7371SOL    HW123012   3.220   6.064   3.515 -0.0646 -0.2406 -0.6226
 7371SOL    HW223013   3.339   5.959   3.475  0.9148  0.4247  0.4572
 7372SOL     OW23014   4.766   1.126   3.045  0.1058  0.1909  0.2196
 7372SOL    HW123015   4.677   1.162   3.070  1.6284  2.9854  2.1653
 7372SOL    HW223016   4.808   1.184   2.976  0.6193 -0.8525 -0.3784
 7373SOL     OW23017   4.805   2.018   2.538 -0.1743 -0.5983 -0.1355
 7373SOL    HW123018   4.854   2.018   2.451 -1.0641 -0.2214 -0.6521
 7373SOL    HW223019   4.821   1.931   2.585 -0.6964 -1.3370 -1.2776
 7374SOL     OW23020   3.631   0.322   5.626  0.0850  0.2371 -1.1753
 7374SOL    HW123021   3.538   0.315   5.663  0.4813 -1.3445 -0.3839
 7374SOL    HW223022   3.670   0.231   5.617  1.6955  0.8936 -1.1569
 7375SOL     OW23023   2.124   3.180   2.464 -0.5363  0.2457  0.1276
 7375SOL    HW123024   2.115   3.206   2.368  0.2778  0.0650 -0.0031
 7375SOL    HW223025   2.147   3.083   2.471  1.8029  0.7726  0.3909
 7376SOL     OW23026   2.370   6.686   0.020  0.0971  0.4675  0.2868
 7376SOL    HW123027   2.433   6.755  -0.014  0.0489 -0.2660 -1.3730
 7376SOL    HW223028   2.276   6.719   0.010  0.1222  0.6389  0.6132
 7377SOL     OW23029   6.100   5.858   1.767  0.2315 -0.0020 -0.7436
 7377SOL    HW123030   6.039   5.876   1.844 -1.7234 -1.0304 -1.9790
 7377SOL    HW223031   6.160   5.937   1.753  0.2163  0.4394  1.4159
 7378SOL     OW23032   5.923   0.344   0.300  0.5295 -0.1284  0.2074
 7378SOL    HW123033   5.859   0.415   0.328  0.2330 -0.2005 -0.2739
 7378SOL    HW223034   5.973   0.310   0.380 -0.6514 -0.6789  0.7360
 7379SOL     OW23035   2.394   2.670   2.955 -0.1622  0.4103 -0.7408
 7379SOL    HW123036   2.439   2.587   2.925 -0.5747 -1.7562  3.8011
 7379SOL    HW223037   2.463   2.741   2.972  0.6373 -0.2570 -1.1266
 7380SOL     OW23038   0.007   4.189   3.363 -0.0113 -0.1910 -0.0057
 7380SOL    HW123039  -0.085   4.221   3.338 -1.1237 -2.9434  0.2615
 7380SOL    HW223040   0.051   4.258   3.421 -2.0228  1.0658  0.1242
 7381SOL     OW23041   4.709   1.536   1.802 -0.0415 -0.4113  0.2139
 7381SOL    HW123042   4.788   1.534   1.864 -0.3454 -1.9411  0.5780
 7381SOL    HW223043   4.695   1.630   1.770  1.9484 -0.1191  0.0883
 7382SOL     OW23044   2.512   6.860   4.269  0.1673 -0.6148 -0.6637
 7382SOL    HW123045   2.534   6.957   4.252  1.1724 -0.5255  0.8943
 7382SOL    HW223046   2.588   6.818   4.318 -0.8227 -1.8634 -0.1611
 7383SOL     OW23047   0.493   6.253   0.211  0.2031  0.9335  0.6831
 7383SOL    HW123048   0.475   6.177   0.274 -3.5381  0.9102 -0.1471
 7383SOL    HW223049   0.568   6.229   0.150  0.3815 -1.3068  1.6663
 7384SOL     OW23050   1.090   5.846   3.085  0.8043 -0.2288  0.3970
 7384SOL    HW123051   1.039   5.926   3.053  1.7479 -0.2380 -1.2460
 7384SOL    HW223052   1.182   5.875   3.114  0.7647 -0.5719  0.8825
 7385SOL     OW23053   4.876   5.784   1.428  0.3984 -0.1103 -0.6620
 7385SOL    HW123054   4.808   5.716   1.455 -0.0318  0.5608 -0.0088
 7385SOL    HW223055   4.968   5.746   1.440  0.2405  0.1478  1.8664
 7386SOL     OW23056   1.657   2.010   1.958  0.0810 -0.0864  0.1800
 7386SOL    HW123057   1.657   2.015   1.859 -0.6438  0.0070  0.1856
 7386SOL    HW223058   1.607   1.930   1.989  0.0895  0.0185  0.4791
 7387SOL     OW23059   5.984   0.209   6.299 -0.4357 -0.2873  0.3140
 7387SOL    HW123060   6.049   0.163   6.359 -0.0994 -0.8803 -0.5078
 7387SOL    HW223061   5.901   0.231   6.352 -0.4142 -1.3976  0.8318
 7388SOL     OW23062   2.109   4.705   2.226  0.0823  0.5997 -0.6458
 7388SOL    HW123063   2.194   4.758   2.234  1.0766 -1.0714  0.4208
 7388SOL    HW223064   2.043   4.738   2.293  0.4978  0.8285 -0.3417
 7389SOL     OW23065   5.252   4.654   0.432 -0.7035 -0.1044 -0.3590
 7389SOL    HW123066   5.267   4.657   0.333  1.2734 -0.4305 -0.1081
 7389SOL    HW223067   5.191   4.728   0.459 -0.2739  0.7455 -1.6643
 7390SOL     OW23068   0.988   2.578   2.400  0.0785 -0.5503  0.0523
 7390SOL    HW123069   1.013   2.589   2.496  1.7810 -0.3052 -0.3830
 7390SOL    HW223070   1.071   2.567   2.345 -0.8799 -1.0072 -1.3596
 7391SOL     OW23071   3.732   3.370   3.010 -0.2323 -0.0342 -0.4181
 7391SOL    HW123072   3.817   3.383   2.958 -0.0718 -2.4726 -0.8889
 7391SOL    HW223073   3.677   3.298   2.967 -0.5650 -1.4659  2.2003
 7392SOL     OW23074   3.818   5.027   4.949  0.2537  0.2245 -0.0869
 7392SOL    HW123075   3.888   4.965   4.915 -1.1513 -0.9813 -0.8729
 7392SOL    HW223076   3.730   5.006   4.907 -0.1680  3.2320 -0.9678
 7393SOL     OW23077   5.755   5.388   2.504 -0.0640 -0.1068  0.5563
 7393SOL    HW123078   5.657   5.375   2.515 -0.1932  0.5235  0.1718
 7393SOL    HW223079   5.797   5.303   2.472 -0.6331 -0.0899 -0.2477
 7394SOL     OW23080   2.015   2.391   6.232 -0.7098 -0.0551  0.1740
 7394SOL    HW123081   2.023   2.391   6.132  0.8399  0.2272  0.2773
 7394SOL    HW223082   2.099   2.356   6.272 -0.6005  1.5472  1.4229
 7395SOL     OW23083   1.828   2.231   2.003  0.2065  0.0664 -0.4203
 7395SOL    HW123084   1.881   2.243   1.919 -1.1784  0.9686 -1.2047
 7395SOL    HW223085   1.784   2.142   2.003  1.4347 -0.5759  0.1094
 7396SOL     OW23086   0.391   0.464   1.972 -0.5273 -0.2322 -0.0545
 7396SOL    HW123087   0.483   0.503   1.979  0.7699 -2.6094 -2.1699
 7396SOL    HW223088   0.394   0.367   1.995 -2.8823 -0.0563  1.3667
 7397SOL     OW23089   4.750   5.517   3.814 -0.0708  0.0587  0.3982
 7397SOL    HW123090   4.694   5.600   3.815 -1.0088 -0.5527 -0.1255
 7397SOL    HW223091   4.712   5.451   3.878 -1.0395 -1.0317 -1.2257
 7398SOL     OW23092   1.245   5.462   3.561 -0.5510 -0.3884 -0.0399
 7398SOL    HW123093   1.168   5.401   3.582 -0.0287 -1.5267 -1.3175
 7398SOL    HW223094   1.226   5.553   3.599 -2.0682 -0.9059  0.5344
 7399SOL     OW23095   6.389   3.591   3.947  0.4923  0.1556  0.4339
 7399SOL    HW123096   6.415   3.656   4.018  0.2475 -1.2953  1.8990
 7399SOL    HW223097   6.367   3.503   3.988  0.1078 -0.6735 -1.4305
 7400SOL     OW23098   4.409   2.271   5.331  0.4132 -0.0247  0.0035
 7400SOL    HW123099   4.482   2.225   5.281  0.0403 -1.5051  0.7813
 7400SOL    HW223100   4.435   2.278   5.427 -0.6489 -0.9444  0.3619
 7401SOL     OW23101   0.480   3.651   5.046  0.5274 -0.0246 -0.8479
 7401SOL    HW123102   0.487   3.571   5.104 -0.7057  0.3102 -0.2012
 7401SOL    HW223103   0.392   3.650   4.998  0.2985  1.1550 -0.4902
 7402SOL     OW23104   3.410   5.383   4.794  0.1652  1.2117 -0.0156
 7402SOL    HW123105   3.379   5.406   4.702  1.1758 -1.5743 -1.1315
 7402SOL    HW223106   3.341   5.325   4.839  1.9595 -2.0813 -1.2041
 7403SOL     OW23107   2.986   4.031   1.750  0.4149  0.0770 -0.3473
 7403SOL    HW123108   2.892   4.012   1.722  0.6674  0.4239 -1.4600
 7403SOL    HW223109   3.049   3.974   1.697  0.8340 -0.3507  0.5788
 7404SOL     OW23110   2.249   3.957   1.104  0.3589  0.0613  0.4623
 7404SOL    HW123111   2.281   3.892   1.173  0.3059  0.3923  0.8068
 7404SOL    HW223112   2.185   3.912   1.042  0.6688 -0.3286  0.4203
 7405SOL     OW23113   3.811   6.807   5.322  0.3802  0.2400 -0.0401
 7405SOL    HW123114   3.716   6.837   5.314 -0.5192 -1.8144  1.9561
 7405SOL    HW223115   3.822   6.716   5.281  0.9236 -0.5009  1.6664
 7406SOL     OW23116   6.859   3.519   3.355  0.1920 -0.4021  0.0882
 7406SOL    HW123117   6.926   3.562   3.294 -1.4449  0.4805 -1.1434
 7406SOL    HW223118   6.864   3.420   3.345  1.2207 -0.3528 -0.0597
 7407SOL     OW23119   1.082   0.151   6.013 -0.3142 -0.1193 -0.1428
 7407SOL    HW123120   1.155   0.172   6.078 -1.3416 -0.1521  1.0434
 7407SOL    HW223121   1.041   0.063   6.036  0.7148 -1.1885 -2.1507
 7408SOL     OW23122   3.849   4.780   0.553 -0.2156 -0.3251  0.3144
 7408SOL    HW123123   3.822   4.742   0.465  1.3662  2.7370 -1.6508
 7408SOL    HW223124   3.937   4.740   0.581 -0.2234 -0.5666  0.0001
 7409SOL     OW23125   4.885   0.696   6.388 -0.1214  0.4663 -0.6099
 7409SOL    HW123126   4.867   0.615   6.443 -0.6951  0.8848 -0.1615
 7409SOL    HW223127   4.807   0.714   6.328  0.4691  0.0564 -1.5134
 7410SOL     OW23128   6.307   1.245   5.969 -0.1423 -0.1079 -0.1414
 7410SOL    HW123129   6.288   1.192   6.053 -1.2642 -0.2500 -0.4691
 7410SOL    HW223130   6.224   1.291   5.939  0.2841  0.0518 -1.1148
 7411SOL     OW23131   1.304   0.284   0.458 -0.1463  0.2006 -0.0252
 7411SOL    HW123132   1.328   0.296   0.554  2.6872 -0.4063 -0.5522
 7411SOL    HW223133   1.264   0.193   0.445  0.1704 -0.0120  0.4598
 7412SOL     OW23134   2.688   1.370   0.506  0.2515 -0.3452 -0.8483
 7412SOL    HW123135   2.774   1.421   0.515  0.4875 -0.7783 -0.5967
 7412SOL    HW223136   2.641   1.369   0.594 -1.7342  2.8345 -1.7232
 7413SOL     OW23137   5.419   6.012   3.762  0.1918 -0.3164 -0.4353
 7413SOL    HW123138   5.481   6.090   3.758  1.9514 -1.5695  0.7861
 7413SOL    HW223139   5.445   5.953   3.838 -2.8466 -0.6821  0.4749
 7414SOL     OW23140   0.088   6.103   3.562 -0.0269  0.6657  0.5889
 7414SOL    HW123141   0.043   6.175   3.615 -0.3015  0.8100  0.1554
 7414SOL    HW223142   0.138   6.143   3.486 -0.0840  0.4066  0.4150
 7415SOL     OW23143   2.217   5.343   3.937  0.5083  0.0442 -0.1125
 7415SOL    HW123144   2.158   5.262   3.932 -0.8227  0.9837 -0.2216
 7415SOL    HW223145   2.308   5.316   3.969 -0.0250 -1.4217  0.2616
 7416SOL     OW23146   2.850   0.903   3.501  0.6595  0.1257 -0.0424
 7416SOL    HW123147   2.855   0.989   3.449 -0.8170  1.1860  1.4858
 7416SOL    HW223148   2.876   0.920   3.596 -0.2370 -0.9885  0.4169
 7417SOL     OW23149   3.354   0.580   3.429  0.8767  0.4080 -0.5461
 7417SOL    HW123150   3.406   0.657   3.391  0.4425  0.9351 -0.0738
 7417SOL    HW223151   3.260   0.583   3.395  1.5311 -1.5484 -2.8465
 7418SOL     OW23152   3.431   5.238   1.355  0.6005  0.0964  0.5124
 7418SOL    HW123153   3.332   5.244   1.361  0.4533  0.1577 -1.4956
 7418SOL    HW223154   3.457   5.150   1.314  1.5165 -0.8811  2.9444
 7419SOL     OW23155   0.114   3.280   4.580  0.2423  0.2429 -0.3438
 7419SOL    HW123156   0.035   3.337   4.558  0.1018  0.5133  0.8242
 7419SOL    HW223157   0.129   3.280   4.678  1.2613 -0.3962 -0.4863
 7420SOL     OW23158   0.498   0.007   0.644 -0.3360  0.4948  0.2057
 7420SOL    HW123159   0.488   0.000   0.743 -0.4023  0.8480  0.2256
 7420SOL    HW223160   0.408   0.013   0.601 -0.2995  0.7404  0.1577
 7421SOL     OW23161   3.005   4.370   1.132 -0.1212 -0.6889 -0.3471
 7421SOL    HW123162   2.996   4.470   1.131  0.0852 -0.6566  0.2609
 7421SOL    HW223163   3.097   4.345   1.163 -0.8387 -1.0738  1.6152
 7422SOL     OW23164   0.420   4.674   1.824 -0.3050 -0.7591 -0.3840
 7422SOL    HW123165   0.385   4.595   1.772 -0.2257 -0.1115 -1.4498
 7422SOL    HW223166   0.493   4.719   1.771  1.2039 -1.2516  1.1728
 7423SOL     OW23167   5.832   4.406   6.230  0.0264 -0.1504  0.4516
 7423SOL    HW123168   5.735   4.386   6.223  0.4952 -2.2285 -1.3813
 7423SOL    HW223169   5.848   4.474   6.302 -2.8000  0.7195  0.3505
 7424SOL     OW23170   1.783   0.409   4.939 -0.4117 -0.2250 -0.2176
 7424SOL    HW123171   1.771   0.488   4.878 -0.8327 -1.4624 -1.8053
 7424SOL    HW223172   1.829   0.438   5.023 -1.0427  1.7987 -0.5324
 7425SOL     OW23173   3.807   5.241   6.527 -0.0176  0.2055 -0.4651
 7425SOL    HW123174   3.746   5.230   6.605  1.3647 -0.3285  0.5805
 7425SOL    HW223175   3.834   5.151   6.493 -0.3027  0.4368 -1.3257
 7426SOL     OW23176   4.218   1.316   6.350 -0.4379 -0.0222  0.2269
 7426SOL    HW123177   4.174   1.381   6.287  1.2388  0.8350 -0.1363
 7426SOL    HW223178   4.206   1.348   6.444  0.0854  0.6769  0.0730
 7427SOL     OW23179   6.535   1.431   4.884  0.0332  0.1399 -0.6021
 7427SOL    HW123180   6.481   1.351   4.911  0.5920  0.0734  0.3756
 7427SOL    HW223181   6.515   1.454   4.789  0.0351 -1.3100 -0.9804
 7428SOL     OW23182   5.058   6.900   4.129  0.3314 -0.0339  0.2057
 7428SOL    HW123183   5.131   6.877   4.065 -0.5961 -0.7954 -0.6343
 7428SOL    HW223184   5.087   6.974   4.189  1.8380 -0.4459  0.0168
 7429SOL     OW23185   6.252   5.375   2.752 -0.3890  0.7819  0.5263
 7429SOL    HW123186   6.253   5.368   2.653 -0.3624  1.1649  0.4981
 7429SOL    HW223187   6.331   5.428   2.783 -0.0579  0.1344  0.7948
 7430SOL     OW23188   2.776   2.040   7.023  0.7991 -0.3554 -0.9157
 7430SOL    HW123189   2.696   2.098   7.007  0.1963 -1.3102 -1.4519
 7430SOL    HW223190   2.802   2.044   7.119 -0.0985 -0.2948 -0.6750
 7431SOL     OW23191   0.325   2.020   2.267 -0.1813  0.1963  0.1425
 7431SOL    HW123192   0.288   2.006   2.358  1.2266  1.4909  0.9728
 7431SOL    HW223193   0.416   2.062   2.274  1.4472 -2.6316 -1.7392
 7432SOL     OW23194   2.331   1.033   3.018 -0.3906  0.3262  0.0985
 7432SOL    HW123195   2.356   0.955   2.962  0.4557 -0.6747  1.7969
 7432SOL    HW223196   2.234   1.029   3.039 -0.0427 -1.3394  1.6559
 7433SOL     OW23197   4.765   5.332   6.955  0.4180  0.3517  0.2472
 7433SOL    HW123198   4.736   5.428   6.965 -0.6131 -0.0763  1.7689
 7433SOL    HW223199   4.864   5.326   6.963  0.4845  1.2839  0.2750
 7434SOL     OW23200   4.754   6.056   6.054 -0.2749  0.2193 -0.1075
 7434SOL    HW123201   4.668   6.036   6.101  0.0384  0.4231  0.5743
 7434SOL    HW223202   4.742   6.045   5.956 -1.1552  0.5314 -0.0444
 7435SOL     OW23203   3.147   5.223   1.119  0.9012 -0.3526  0.7128
 7435SOL    HW123204   3.061   5.174   1.106  0.5438  0.7488 -1.7227
 7435SOL    HW223205   3.128   5.311   1.164  0.5311  0.3919 -0.8375
 7436SOL     OW23206   2.810   5.230   5.191 -0.5139  0.0922  0.0730
 7436SOL    HW123207   2.753   5.228   5.109 -3.3974  0.1748  1.9611
 7436SOL    HW223208   2.787   5.152   5.250  1.3905  0.1134  0.9093
 7437SOL     OW23209   0.937   4.657   5.617 -0.3239 -0.3981 -0.1720
 7437SOL    HW123210   0.848   4.627   5.585 -1.0242 -0.3996  1.6403
 7437SOL    HW223211   0.937   4.661   5.717  1.7614 -0.5417 -0.1157
 7438SOL     OW23212   0.643   6.891   5.982  0.1008 -0.2168  0.1450
 7438SOL    HW123213   0.572   6.831   5.946  0.4713 -1.5133  1.4952
 7438SOL    HW223214   0.720   6.837   6.013  1.0195  1.0651  0.1774
 7439SOL     OW23215   0.991   5.973   5.967 -0.1383 -0.7986 -0.4094
 7439SOL    HW123216   1.010   5.985   5.869  0.2881  0.5064 -0.1851
 7439SOL    HW223217   0.927   5.896   5.979  0.1882 -1.3007 -1.6604
 7440SOL     OW23218   6.519   3.545   3.719 -0.0508  0.4829 -0.0118
 7440SOL    HW123219   6.475   3.556   3.808 -1.6274 -0.1752 -0.6692
 7440SOL    HW223220   6.499   3.454   3.683  1.6296  0.2681 -0.5047
 7441SOL     OW23221   4.654   0.246   5.208  0.3515 -0.3839  0.1452
 7441SOL    HW123222   4.665   0.157   5.251  1.7079 -0.2989  0.0360
 7441SOL    HW223223   4.574   0.292   5.245 -0.4557 -1.6982  0.0920
 7442SOL     OW23224   0.348   3.084   5.196  0.6050  0.4497 -0.0315
 7442SOL    HW123225   0.300   3.003   5.162  2.2903 -0.9819  0.8543
 7442SOL    HW223226   0.444   3.080   5.169  0.9103  1.7037  0.7760
 7443SOL     OW23227   6.156   6.541   1.610 -0.1862 -0.7345  0.2445
 7443SOL    HW123228   6.084   6.586   1.558  1.0526 -1.2769 -2.0937
 7443SOL    HW223229   6.233   6.605   1.622  0.6648 -1.4544 -1.1198
 7444SOL     OW23230   5.944   3.453   6.443 -0.3921 -0.0381 -0.4756
 7444SOL    HW123231   6.028   3.410   6.476  0.3971  1.8520  0.1100
 7444SOL    HW223232   5.965   3.518   6.371 -1.5517 -0.5565 -1.3180
 7445SOL     OW23233   5.012   5.882   6.700 -0.4536 -0.6239  0.4558
 7445SOL    HW123234   5.080   5.814   6.673  2.3932  2.3140 -0.4323
 7445SOL    HW223235   4.953   5.904   6.623  0.2138 -0.4026 -0.0034
 7446SOL     OW23236   5.439   2.767   2.121 -0.3263  0.1967  0.1278
 7446SOL    HW123237   5.378   2.766   2.200  0.4791  0.7788  0.7688
 7446SOL    HW223238   5.504   2.842   2.129 -0.8549  0.8822 -1.5904
 7447SOL     OW23239   6.767   2.756   6.924 -0.1897 -0.4242  0.6472
 7447SOL    HW123240   6.777   2.659   6.948  0.5539  0.1823  3.0850
 7447SOL    HW223241   6.845   2.807   6.961  0.6140  0.8627 -2.4930
 7448SOL     OW23242   6.218   6.023   4.530  0.1072  0.0195 -0.0299
 7448SOL    HW123243   6.199   5.989   4.622 -1.4408 -0.6697 -0.5763
 7448SOL    HW223244   6.195   5.953   4.463 -1.5819  1.5168 -1.0874
 7449SOL     OW23245   6.798   5.448   0.589  0.8064  0.1261  0.3706
 7449SOL    HW123246   6.797   5.440   0.688 -1.0182  0.6168  0.4164
 7449SOL    HW223247   6.808   5.357   0.548  0.8073 -0.1536  0.9931
 7450SOL     OW23248   0.756   1.164   4.052  0.2710  0.3072  0.0971
 7450SOL    HW123249   0.669   1.169   4.004  0.2129 -1.7954 -0.1090
 7450SOL    HW223250   0.810   1.245   4.032 -0.0891 -0.0859 -2.8354
 7451SOL     OW23251   0.539   6.476   1.593 -0.7207 -0.1373 -0.2221
 7451SOL    HW123252   0.579   6.392   1.556 -2.1926 -1.1634  0.4444
 7451SOL    HW223253   0.553   6.550   1.528 -0.1462 -1.0826 -1.2201
 7452SOL     OW23254   5.249   6.039   3.451  0.5748 -0.5262  0.1115
 7452SOL    HW123255   5.277   5.985   3.372  1.5795  0.0396  0.0740
 7452SOL    HW223256   5.225   6.131   3.421  1.1106 -0.2636  0.4897
 7453SOL     OW23257   5.757   6.205   6.335  0.0469 -0.4316  0.3432
 7453SOL    HW123258   5.676   6.183   6.389 -0.2281 -0.6675 -0.1569
 7453SOL    HW223259   5.840   6.177   6.384 -0.0119  1.7486  1.8558
 7454SOL     OW23260   1.818   1.578   1.856  0.0562 -0.1719  0.2302
 7454SOL    HW123261   1.752   1.640   1.814 -1.5990 -0.4099  2.2614
 7454SOL    HW223262   1.864   1.625   1.931  1.5588 -0.3055 -0.5755
 7455SOL     OW23263   6.831   1.803   1.009  0.1654 -0.0679  0.2038
 7455SOL    HW123264   6.826   1.735   0.937  0.2067  0.5361 -0.3754
 7455SOL    HW223265   6.755   1.790   1.073  0.2356 -0.7148  0.1606
 7456SOL     OW23266   1.521   0.039   4.943 -0.0131 -0.6284  0.4307
 7456SOL    HW123267   1.528   0.135   4.915 -0.8917 -0.9164 -0.8621
 7456SOL    HW223268   1.596   0.017   5.005  0.1508  0.9138  0.8151
 7457SOL     OW23269   2.596   0.881   4.960 -0.4784 -0.2591 -0.8999
 7457SOL    HW123270   2.506   0.839   4.968 -0.5331 -0.6627 -3.0349
 7457SOL    HW223271   2.625   0.879   4.864  1.8659 -0.2753 -0.2522
 7458SOL     OW23272   2.670   6.043   5.719  0.0996 -0.3016  0.4294
 7458SOL    HW123273   2.682   5.954   5.677 -1.1468 -0.6392  0.7444
 7458SOL    HW223274   2.589   6.087   5.681 -0.1141  0.0751  1.3040
 7459SOL     OW23275   5.312   0.494   1.400  0.1924 -0.0111 -0.5620
 7459SOL    HW123276   5.399   0.491   1.352  0.5534 -0.4187  0.0991
 7459SOL    HW223277   5.286   0.402   1.429 -0.5048  0.0917 -0.8178
 7460SOL     OW23278   6.607   4.323   0.200 -0.2188 -0.1134 -0.0938
 7460SOL    HW123279   6.593   4.235   0.245 -0.8595  0.5106  0.9789
 7460SOL    HW223280   6.538   4.334   0.128  0.4870 -0.8986 -0.9054
 7461SOL     OW23281   5.858   0.550   6.832 -0.5872  0.1117 -0.3439
 7461SOL    HW123282   5.884   0.533   6.927 -2.7053  0.3106  0.3272
 7461SOL    HW223283   5.917   0.621   6.794  1.4115 -1.1708  0.2301
 7462SOL     OW23284   0.149   3.466   2.820 -0.0843  0.5314 -0.2022
 7462SOL    HW123285   0.101   3.514   2.746 -0.2997  1.7039  0.6689
 7462SOL    HW223286   0.082   3.423   2.880  0.0761 -0.0796 -0.4547
 7463SOL     OW23287   0.442   5.423   0.018 -0.5047 -0.3128  0.2033
 7463SOL    HW123288   0.446   5.331  -0.022  1.5400  0.3136 -1.2065
 7463SOL    HW223289   0.520   5.436   0.080 -1.1551  0.2515  0.9223
 7464SOL     OW23290   4.082   0.543   0.607  0.1222  0.4771 -0.3644
 7464SOL    HW123291   4.104   0.506   0.697  2.4690 -1.0016 -1.4646
 7464SOL    HW223292   3.996   0.594   0.613 -1.7446 -2.5522  1.9324
 7465SOL     OW23293   3.445   5.511   6.430 -0.5155  0.5491 -0.0537
 7465SOL    HW123294   3.432   5.559   6.517 -2.4995 -0.6025  0.3483
 7465SOL    HW223295   3.366   5.530   6.370 -1.4805 -2.2733  0.1928
 7466SOL     OW23296   0.045   0.872   6.693 -0.4529 -0.4965  0.3803
 7466SOL    HW123297   0.040   0.971   6.705  2.5563 -0.2154  0.0505
 7466SOL    HW223298   0.013   0.827   6.776  0.7578  0.8531  1.6381
 7467SOL     OW23299   0.881   6.988   1.848 -0.0061 -0.6170 -0.1282
 7467SOL    HW123300   0.940   6.992   1.767 -1.0728 -1.0001 -0.9425
 7467SOL    HW223301   0.851   6.894   1.863 -1.8529 -0.1649 -0.8037
 7468SOL     OW23302   0.518   3.610   4.479 -0.4088 -0.2126 -0.0277
 7468SOL    HW123303   0.509   3.641   4.574 -2.1847 -0.4649 -0.0762
 7468SOL    HW223304   0.504   3.511   4.474 -0.4294 -0.1889 -0.5572
 7469SOL     OW23305   6.580   1.569   0.377 -0.0330 -0.7162 -0.0887
 7469SOL    HW123306   6.558   1.661   0.347 -0.5731 -1.2631 -1.4576
 7469SOL    HW223307   6.679   1.559   0.386  0.0754 -0.2107 -0.6716
 7470SOL     OW23308   4.919   4.006   2.361 -0.9748 -0.7005 -0.0224
 7470SOL    HW123309   4.924   3.983   2.458  0.2173 -0.9602 -0.1285
 7470SOL    HW223310   4.877   3.931   2.311 -0.7287 -0.9624  0.1631
 7471SOL     OW23311   4.413   0.850   5.918 -0.5532  0.0791  0.1707
 7471SOL    HW123312   4.397   0.876   5.823  1.0184  1.8788  0.3266
 7471SOL    HW223313   4.444   0.755   5.923  0.3773  0.2855 -1.2456
 7472SOL     OW23314   6.013   6.646   6.904  0.3759  0.0834  0.6480
 7472SOL    HW123315   5.929   6.653   6.851 -0.7356  0.0647  2.3298
 7472SOL    HW223316   6.048   6.552   6.899 -0.2382 -0.1526  0.7182
 7473SOL     OW23317   3.784   5.304   4.390  0.5015 -0.2537  0.0086
 7473SOL    HW123318   3.745   5.387   4.430  1.1479  0.3211 -0.5245
 7473SOL    HW223319   3.713   5.254   4.342  0.2169  0.2713 -0.1238
 7474SOL     OW23320   0.873   2.512   5.567 -0.4520  0.2615 -0.1475
 7474SOL    HW123321   0.965   2.508   5.527 -0.6637  0.8060 -0.7030
 7474SOL    HW223322   0.824   2.591   5.530 -0.5503  0.9653  1.4325
 7475SOL     OW23323   4.985   3.616   3.111  0.4370  0.0033  0.1126
 7475SOL    HW123324   4.942   3.686   3.169 -0.4664  0.0218 -0.5475
 7475SOL    HW223325   4.979   3.527   3.156 -1.7259 -0.2794 -0.5785
 7476SOL     OW23326   3.672   0.348   3.576 -0.5682  0.0501 -0.1394
 7476SOL    HW123327   3.718   0.317   3.492 -0.6664 -0.5075  0.0149
 7476SOL    HW223328   3.579   0.378   3.554 -0.0264  1.5320 -0.5171
 7477SOL     OW23329   5.106   2.015   5.456  0.4621 -0.5554 -0.2065
 7477SOL    HW123330   5.195   2.046   5.490  0.4926 -0.4741 -0.3609
 7477SOL    HW223331   5.108   1.917   5.440  0.3290 -0.6615  0.3993
 7478SOL     OW23332   0.157   2.677   5.254 -0.4298 -0.7304  0.2184
 7478SOL    HW123333   0.120   2.645   5.342 -0.4910 -1.3778 -0.0399
 7478SOL    HW223334   0.130   2.772   5.240 -0.0871 -0.4886  1.0883
 7479SOL     OW23335   4.384   0.586   1.932 -0.0964  0.5726  0.0241
 7479SOL    HW123336   4.342   0.608   2.020 -0.6777  0.8463 -0.3163
 7479SOL    HW223337   4.346   0.646   1.861  0.8077  0.7781 -0.3089
 7480SOL     OW23338   7.018   5.039   1.787  0.2886 -0.5004 -0.9626
 7480SOL    HW123339   7.084   5.114   1.787 -0.6707  0.4139  0.7970
 7480SOL    HW223340   6.995   5.015   1.693  0.2977  1.7182 -1.5880
 7481SOL     OW23341   5.183   0.288   0.278  0.1228  0.4976 -0.3262
 7481SOL    HW123342   5.137   0.229   0.345  0.6017 -0.0536 -0.4717
 7481SOL    HW223343   5.220   0.232   0.204 -0.2713  1.0913 -0.9766
 7482SOL     OW23344   4.776   2.830   2.223  0.5271 -0.7399 -0.3079
 7482SOL    HW123345   4.711   2.764   2.187 -1.4972  1.2520 -0.4944
 7482SOL    HW223346   4.770   2.915   2.171  0.8185  0.6717  1.8384
 7483SOL     OW23347   4.829   2.744   3.806 -0.2901  0.0540  0.0261
 7483SOL    HW123348   4.755   2.713   3.746  0.3908 -0.2542 -0.6700
 7483SOL    HW223349   4.867   2.829   3.771  0.3198 -0.2920 -0.1514
 7484SOL     OW23350   3.720   5.548   4.535  0.1419  0.1471 -0.2281
 7484SOL    HW123351   3.628   5.546   4.497 -0.0285  0.1607  0.1795
 7484SOL    HW223352   3.716   5.567   4.633  0.5871  0.2892 -0.2335
 7485SOL     OW23353   2.131   0.215   4.408 -0.0645 -0.1651 -0.4016
 7485SOL    HW123354   2.079   0.280   4.464  0.6648 -1.3662  1.8256
 7485SOL    HW223355   2.068   0.152   4.363 -0.6536 -1.3226  1.8974
 7486SOL     OW23356   6.887   5.210   0.491  0.8000  0.3455 -0.3180
 7486SOL    HW123357   6.871   5.112   0.502 -2.2359  0.8325  0.8065
 7486SOL    HW223358   6.935   5.227   0.406  0.0717 -2.0401 -1.2932
 7487SOL     OW23359   3.040   2.254   2.976  0.1497  0.2856 -0.3500
 7487SOL    HW123360   3.125   2.202   2.978 -0.4479 -0.6714  0.5020
 7487SOL    HW223361   2.988   2.231   2.893  0.4606  0.4612 -0.5938
 7488SOL     OW23362   4.047   4.769   3.386 -0.4021  0.0504  0.3166
 7488SOL    HW123363   4.018   4.784   3.291  1.4479  0.3216 -0.2376
 7488SOL    HW223364   4.114   4.695   3.390 -0.1938  0.2757  1.3680
 7489SOL     OW23365   6.281   3.401   4.157 -0.7101 -0.0958  0.2140
 7489SOL    HW123366   6.192   3.357   4.165 -1.0725  0.7106  0.6751
 7489SOL    HW223367   6.287   3.478   4.220 -0.1975  0.7113 -0.7867
 7490SOL     OW23368   3.193   6.418   2.102 -0.0371  0.5062  0.1703
 7490SOL    HW123369   3.168   6.321   2.101 -0.7223  0.6827 -0.1650
 7490SOL    HW223370   3.134   6.467   2.166 -0.7018  0.9635 -0.7686
 7491SOL     OW23371   4.788   1.288   5.991  0.1271 -0.2308  0.6155
 7491SOL    HW123372   4.762   1.233   5.910 -0.4042 -1.4626  1.5823
 7491SOL    HW223373   4.885   1.275   6.010 -0.1021 -1.3402  1.1596
 7492SOL     OW23374   3.486   1.466   4.832 -0.3594 -0.3864 -0.2198
 7492SOL    HW123375   3.403   1.507   4.870 -0.7863  0.7309 -2.2252
 7492SOL    HW223376   3.565   1.500   4.883 -0.9396  0.7492 -0.0231
 7493SOL     OW23377   0.670   2.802   0.350 -0.4334  0.1557 -0.0596
 7493SOL    HW123378   0.723   2.885   0.338 -2.5132  1.4540 -0.7100
 7493SOL    HW223379   0.732   2.725   0.369  1.8814  1.0704 -3.1149
 7494SOL     OW23380   6.887   0.476   1.541  0.1994  0.5002  0.0041
 7494SOL    HW123381   6.879   0.575   1.537  0.3661  0.4798 -2.0973
 7494SOL    HW223382   6.886   0.439   1.448 -1.6273 -1.6307  0.8019
 7495SOL     OW23383   2.149   1.435   0.221 -0.5325 -0.3439 -0.1588
 7495SOL    HW123384   2.229   1.441   0.281 -0.9740  0.0900  0.4079
 7495SOL    HW223385   2.178   1.440   0.126  0.3862 -3.0788 -0.1031
 7496SOL     OW23386   6.832   4.481   3.831  0.5137  0.2130 -0.3871
 7496SOL    HW123387   6.846   4.499   3.928  1.7410  1.1259 -0.6977
 7496SOL    HW223388   6.874   4.393   3.808 -0.3635 -0.3230  0.0258
 7497SOL     OW23389   1.059   1.743   2.224  0.8524  0.2274 -0.0865
 7497SOL    HW123390   1.104   1.806   2.286  0.3395 -0.1056  0.6454
 7497SOL    HW223391   0.964   1.772   2.210  0.3212 -0.8497  0.9986
 7498SOL     OW23392   3.025   6.801   5.816  0.0317 -0.0088 -0.5224
 7498SOL    HW123393   3.056   6.883   5.767 -0.7974 -0.1270 -1.2538
 7498SOL    HW223394   2.925   6.796   5.814 -0.0049 -0.2307  0.8525
 7499SOL     OW23395   3.543   0.426   3.130  0.0573  0.1740 -0.2291
 7499SOL    HW123396   3.583   0.503   3.080 -0.4064  0.6276  0.0859
 7499SOL    HW223397   3.445   0.440   3.140  0.0247 -0.2900  0.1338
 7500SOL     OW23398   4.754   5.266   3.349  0.2857  0.4899  0.2497
 7500SOL    HW123399   4.777   5.320   3.430  0.7188 -0.1859  0.5740
 7500SOL    HW223400   4.663   5.226   3.361 -0.6548  2.2221 -0.5585
 7501SOL     OW23401   5.868   3.105   2.704 -0.2251 -0.1534  0.6075
 7501SOL    HW123402   5.936   3.035   2.684 -0.0824 -0.4619  2.0496
 7501SOL    HW223403   5.824   3.084   2.792 -1.5073  0.5579  0.1529
 7502SOL     OW23404   1.620   0.850   4.820  0.0427  0.1501  0.3297
 7502SOL    HW123405   1.560   0.900   4.758  0.2495 -1.4924 -1.2959
 7502SOL    HW223406   1.671   0.914   4.877 -2.4968  1.6272  1.0874
 7503SOL     OW23407   1.968   0.694   2.718 -0.7722 -0.6035 -0.4090
 7503SOL    HW123408   1.957   0.671   2.814  2.0152 -1.3715 -0.1789
 7503SOL    HW223409   1.905   0.767   2.693 -2.6496 -1.4573  1.5473
 7504SOL     OW23410   6.658   4.184   3.124  0.3807  0.2477 -0.3720
 7504SOL    HW123411   6.711   4.231   3.054  0.0939 -0.8420 -1.3473
 7504SOL    HW223412   6.670   4.231   3.212 -0.8083  2.8498 -1.4827
 7505SOL     OW23413   1.804   1.447   5.406  0.2163 -0.3776 -0.2995
 7505SOL    HW123414   1.798   1.520   5.337 -0.2620 -0.8747 -0.7908
 7505SOL    HW223415   1.823   1.487   5.495 -2.3282  0.5931 -0.1104
 7506SOL     OW23416   6.026   2.127   3.153 -0.0980  0.6057 -0.2777
 7506SOL    HW123417   5.950   2.192   3.157  1.2168  2.2029 -0.2283
 7506SOL    HW223418   5.990   2.033   3.157 -1.9762  1.3224  0.8094
 7507SOL     OW23419   5.528   1.398   2.335 -0.6714 -0.3503 -0.6614
 7507SOL    HW123420   5.526   1.346   2.250 -0.3425  1.1325 -1.6106
 7507SOL    HW223421   5.594   1.357   2.398 -0.1000 -0.8189 -1.5508
 7508SOL     OW23422   1.906   5.708   0.876 -0.1878 -0.0562  0.1571
 7508SOL    HW123423   1.972   5.716   0.802  0.5797  0.8111  0.9097
 7508SOL    HW223424   1.851   5.625   0.863  0.7915 -0.5957 -0.6764
 7509SOL     OW23425   2.326   4.827   1.482 -0.5195 -0.5405  0.0071
 7509SOL    HW123426   2.359   4.921   1.476 -1.9990  0.0783  1.0583
 7509SOL    HW223427   2.400   4.764   1.458  0.7071  0.8510  0.0296
 7510SOL     OW23428   4.032   5.411   5.697  0.2295 -0.1102  0.3170
 7510SOL    HW123429   4.094   5.342   5.659  0.1586 -0.6603  1.1594
 7510SOL    HW223430   3.945   5.408   5.648  0.1112 -0.8598  0.5527
 7511SOL     OW23431   1.845   6.223   2.861 -0.3821 -0.1651 -0.2461
 7511SOL    HW123432   1.936   6.264   2.854  0.2401 -1.3907  0.2285
 7511SOL    HW223433   1.802   6.249   2.947  0.2696 -0.9705  0.3411
 7512SOL     OW23434   2.394   6.447   6.934 -0.7020 -0.1573  0.4693
 7512SOL    HW123435   2.393   6.538   6.977  1.5585 -0.6665  1.7222
 7512SOL    HW223436   2.351   6.454   6.844  1.6852  2.7915 -0.6198
 7513SOL     OW23437   1.114   0.654   2.919 -0.4208  0.9463  0.2422
 7513SOL    HW123438   1.055   0.635   2.998  0.2731  0.9944  0.7922
 7513SOL    HW223439   1.187   0.717   2.948  0.5811 -0.0336 -0.1168
 7514SOL     OW23440   2.668   5.549   2.025  0.3547  0.1785 -0.6837
 7514SOL    HW123441   2.766   5.561   2.042  0.0652 -1.5128  3.2825
 7514SOL    HW223442   2.652   5.458   1.988  0.2624  0.3459 -1.0561
 7515SOL     OW23443   6.156   5.014   5.336 -0.1990 -0.4461 -0.3712
 7515SOL    HW123444   6.096   5.062   5.399 -1.5324 -0.7281 -1.3892
 7515SOL    HW223445   6.156   4.916   5.359 -1.5010 -0.7141 -1.3927
 7516SOL     OW23446   6.805   5.426   5.291 -0.3203  0.0641  0.1764
 7516SOL    HW123447   6.732   5.400   5.355 -0.3955 -1.7500 -0.5950
 7516SOL    HW223448   6.891   5.384   5.319 -0.4306 -1.0629 -1.1023
 7517SOL     OW23449   1.207   4.215   1.044  0.8471 -0.3187 -0.3348
 7517SOL    HW123450   1.177   4.297   0.995  2.8918  0.2985 -0.6452
 7517SOL    HW223451   1.232   4.239   1.137  0.7449 -0.7411 -0.1949
 7518SOL     OW23452   6.261   3.944   4.621 -0.3715  0.0272 -0.1286
 7518SOL    HW123453   6.180   3.997   4.647 -0.4833  0.1786 -0.7504
 7518SOL    HW223454   6.301   3.902   4.702  0.1412  1.6478  0.4942
 7519SOL     OW23455   5.418   0.045   4.880  0.6952 -0.6478  0.2234
 7519SOL    HW123456   5.348   0.027   4.949 -1.9343  0.5674 -1.9545
 7519SOL    HW223457   5.459  -0.042   4.851  0.5235 -1.3336  1.9048
 7520SOL     OW23458   2.117   1.265   3.330 -0.0064  0.0544 -0.1066
 7520SOL    HW123459   2.092   1.312   3.245 -0.7551 -0.4143 -0.1516
 7520SOL    HW223460   2.036   1.221   3.369  0.4784 -0.3300  0.4844
 7521SOL     OW23461   4.199   1.576   5.934  0.3755  0.1687  0.1343
 7521SOL    HW123462   4.151   1.623   5.860  0.4390  1.9168  1.1361
 7521SOL    HW223463   4.141   1.572   6.015  0.2191 -1.9208 -0.0224
 7522SOL     OW23464   0.668   1.298   4.804  0.2165  0.1023  0.0662
 7522SOL    HW123465   0.642   1.203   4.786  0.7809 -0.1805  0.6937
 7522SOL    HW223466   0.710   1.337   4.722  1.8752 -0.8593  0.4268
 7523SOL     OW23467   5.306   6.714   6.601 -0.6157 -0.1017  0.1638
 7523SOL    HW123468   5.387   6.665   6.569 -0.2238  0.0132  0.9716
 7523SOL    HW223469   5.224   6.664   6.573 -0.2740 -0.2059 -0.6760
 7524SOL     OW23470   0.455   1.895   4.160  0.0464  0.0999 -0.3012
 7524SOL    HW123471   0.452   1.960   4.083 -1.8321 -0.0932 -0.4478
 7524SOL    HW223472   0.456   1.945   4.246 -1.4269  0.3583 -0.4136
 7525SOL     OW23473   2.924   5.796   6.963  0.1876 -0.0475 -0.2551
 7525SOL    HW123474   2.891   5.705   6.939  2.0925 -1.4660  2.0335
 7525SOL    HW223475   3.023   5.801   6.948  0.0202  1.9392 -1.0410
 7526SOL     OW23476   1.761   2.402   1.279  0.4297 -0.1592 -0.2944
 7526SOL    HW123477   1.853   2.363   1.270  0.2172 -0.4693 -1.1957
 7526SOL    HW223478   1.767   2.502   1.275  0.7179 -0.1801 -0.4391
 7527SOL     OW23479   2.894   0.059   3.717  0.3280  0.1191  0.2437
 7527SOL    HW123480   2.940   0.119   3.651 -0.9970  2.6598  1.4779
 7527SOL    HW223481   2.961   0.021   3.781  1.2090  0.2623 -0.5805
 7528SOL     OW23482   0.463   2.247   1.535  0.2231 -0.0031 -0.0409
 7528SOL    HW123483   0.464   2.265   1.437  0.5903 -0.0107 -0.0384
 7528SOL    HW223484   0.461   2.148   1.551  0.4164 -0.0068 -0.0391
 7529SOL     OW23485   6.831   0.677   4.878  0.1133  0.3745 -0.0915
 7529SOL    HW123486   6.777   0.745   4.827  0.4910  1.1735  0.5563
 7529SOL    HW223487   6.795   0.586   4.859 -0.4197  0.7503 -0.9628
 7530SOL     OW23488   1.486   3.088   2.820 -0.0432 -0.0328 -0.5215
 7530SOL    HW123489   1.496   3.086   2.721  1.4606 -1.5190 -0.3857
 7530SOL    HW223490   1.455   3.178   2.849 -0.0348  0.5703 -2.2960
 7531SOL     OW23491   6.448   2.813   5.697 -0.5099  0.2366 -0.2802
 7531SOL    HW123492   6.508   2.884   5.659 -0.1312  1.2768  2.0428
 7531SOL    HW223493   6.357   2.821   5.657 -0.1179  1.2062 -1.0213
 7532SOL     OW23494   4.250   4.918   0.364 -0.4313 -0.4622  0.2778
 7532SOL    HW123495   4.190   4.843   0.337  0.3683 -1.8687  2.1743
 7532SOL    HW223496   4.228   4.946   0.457  0.8666  0.0064  0.4608
 7533SOL     OW23497   4.297   0.171   1.026  0.0961 -0.0587  0.3510
 7533SOL    HW123498   4.384   0.181   0.978 -1.3290  0.6916 -2.2519
 7533SOL    HW223499   4.278   0.253   1.080  0.0618  0.6759 -0.7566
 7534SOL     OW23500   0.051   5.549   4.374  0.1619 -0.1582  0.2555
 7534SOL    HW123501   0.094   5.478   4.318 -1.0087 -0.6903  0.0127
 7534SOL    HW223502   0.039   5.632   4.318 -0.7251 -0.5877 -0.2075
 7535SOL     OW23503   1.892   6.282   4.470 -0.2686  0.0146  0.0748
 7535SOL    HW123504   1.886   6.186   4.444  1.3965 -0.2405  0.5472
 7535SOL    HW223505   1.816   6.305   4.531 -0.3186 -1.1631  0.4659
 7536SOL     OW23506   6.902   3.482   3.861  0.2977  0.0566  0.8337
 7536SOL    HW123507   6.853   3.408   3.814 -0.1619  0.1572  1.1565
 7536SOL    HW223508   6.859   3.500   3.949 -0.9076  2.1344 -0.1265
 7537SOL     OW23509   0.001   4.386   3.573 -0.5105  0.4857  0.6606
 7537SOL    HW123510  -0.014   4.319   3.646  1.3558 -0.6085  0.1083
 7537SOL    HW223511  -0.082   4.439   3.559 -2.0304 -1.6342  1.2043
 7538SOL     OW23512   4.106   3.207   0.220 -0.0674  0.7623 -0.2983
 7538SOL    HW123513   4.176   3.257   0.169  3.8196 -3.1656  0.5445
 7538SOL    HW223514   4.133   3.203   0.317 -1.4628 -0.9346  0.0629
 7539SOL     OW23515   1.602   0.569   4.170  0.2318 -0.1076  0.1157
 7539SOL    HW123516   1.536   0.621   4.224 -0.5057 -0.1752 -0.6955
 7539SOL    HW223517   1.628   0.622   4.089  0.7388 -0.3235  0.1290
 7540SOL     OW23518   5.643   0.530   3.866  0.6517  0.3842 -0.1732
 7540SOL    HW123519   5.572   0.478   3.914  0.8000 -0.1850 -0.5489
 7540SOL    HW223520   5.605   0.568   3.782  0.9531 -0.5215 -0.7403
 7541SOL     OW23521   1.305   3.792   6.002  0.9972  0.0439  0.5839
 7541SOL    HW123522   1.303   3.866   6.070  1.0005 -0.5982  1.2956
 7541SOL    HW223523   1.253   3.714   6.036 -1.7803  0.8275 -1.5164
 7542SOL     OW23524   7.000   5.783   6.484  0.1582 -0.9288 -0.3403
 7542SOL    HW123525   7.044   5.858   6.534  0.4397 -0.6256 -1.0373
 7542SOL    HW223526   7.033   5.696   6.520 -0.7110 -0.7526  0.9709
 7543SOL     OW23527   2.905   2.073   4.387  0.2988 -0.2662  0.6283
 7543SOL    HW123528   2.899   2.154   4.446  0.0155  0.1576  0.0319
 7543SOL    HW223529   2.898   2.102   4.291  1.2845 -0.8911  0.3624
 7544SOL     OW23530   6.091   2.779   4.435  0.5320 -0.3567  0.4243
 7544SOL    HW123531   6.141   2.700   4.400  1.1224 -0.0580  0.5972
 7544SOL    HW223532   6.016   2.747   4.494 -0.4964 -0.8649 -1.1167
 7545SOL     OW23533   6.110   4.986   6.436  0.0189  0.1219 -0.5675
 7545SOL    HW123534   6.035   5.030   6.485 -1.4228 -0.2799 -2.2710
 7545SOL    HW223535   6.144   4.908   6.488 -0.8185  0.2527  0.1866
 7546SOL     OW23536   5.212   2.601   1.083 -0.3558  0.0886  0.0475
 7546SOL    HW123537   5.164   2.555   1.157  1.0419 -1.1274  0.2552
 7546SOL    HW223538   5.147   2.649   1.025 -1.6502 -0.4079  1.0426
 7547SOL     OW23539   4.230   2.228   2.078 -0.1540 -0.3750  0.0120
 7547SOL    HW123540   4.138   2.266   2.073 -0.4244 -1.1089 -0.8750
 7547SOL    HW223541   4.235   2.146   2.021  1.1698 -0.0868 -0.3131
 7548SOL     OW23542   4.814   2.076   1.073 -0.5425  0.0661  0.6593
 7548SOL    HW123543   4.866   2.040   0.996  2.7769  0.8797  2.3285
 7548SOL    HW223544   4.828   2.175   1.079 -0.8905  0.0408  2.1840
 7549SOL     OW23545   4.241   2.981   6.501 -0.3341 -0.4494  0.3684
 7549SOL    HW123546   4.239   3.078   6.523 -0.7299 -0.0576 -1.3224
 7549SOL    HW223547   4.336   2.949   6.501 -0.1568  0.0731  0.3455
 7550SOL     OW23548   1.800   4.360   3.220 -0.3019 -0.2589  0.5527
 7550SOL    HW123549   1.862   4.327   3.150  0.3717 -0.8327  1.3930
 7550SOL    HW223550   1.778   4.286   3.284 -0.5480  0.3513  1.2027
 7551SOL     OW23551   0.344   2.950   3.483  0.9833  0.1630 -0.2765
 7551SOL    HW123552   0.360   2.897   3.566  0.9327  0.8181  0.1605
 7551SOL    HW223553   0.429   2.957   3.430  1.3906  0.9428  0.4421
 7552SOL     OW23554   2.138   6.086   2.535  0.0337  0.3706 -0.0427
 7552SOL    HW123555   2.039   6.090   2.525  0.0497 -1.3495 -1.2405
 7552SOL    HW223556   2.161   6.035   2.618 -0.0416  1.9877  1.0253
 7553SOL     OW23557   3.173   6.882   5.477  0.0662  0.1586 -0.1693
 7553SOL    HW123558   3.232   6.891   5.397 -0.4322  0.0274 -0.5530
 7553SOL    HW223559   3.213   6.816   5.541  0.4220  0.2030 -0.3452
 7554SOL     OW23560   2.802   0.818   6.228 -0.0016 -0.7643  0.6886
 7554SOL    HW123561   2.816   0.741   6.166 -1.7800 -1.3660  0.9697
 7554SOL    HW223562   2.857   0.896   6.198  0.4449 -1.5661 -0.6570
 7555SOL     OW23563   4.330   5.333   0.182 -0.4728  0.6454 -0.3039
 7555SOL    HW123564   4.384   5.264   0.231 -0.4731 -0.2131 -1.4743
 7555SOL    HW223565   4.380   5.361   0.100 -1.3386  0.6236 -0.8414
 7556SOL     OW23566   1.860   3.711   0.750  0.1872 -0.2735  0.0683
 7556SOL    HW123567   1.776   3.748   0.710  0.3676 -0.7744 -0.7990
 7556SOL    HW223568   1.929   3.702   0.679  0.9498  0.0467  0.7614
 7557SOL     OW23569   3.974   2.029   4.361  0.3116 -0.1964  0.2868
 7557SOL    HW123570   4.032   1.990   4.289 -0.5021 -0.2969 -0.3355
 7557SOL    HW223571   4.027   2.040   4.444  0.9147 -1.4179  0.0899
 7558SOL     OW23572   0.326   5.107   5.431  0.3763 -1.2950  0.0348
 7558SOL    HW123573   0.294   5.058   5.350  0.5279  0.7217 -1.3219
 7558SOL    HW223574   0.424   5.093   5.443  0.6788 -0.3072 -1.1278
 7559SOL     OW23575   3.508   1.940   6.961 -0.6548  0.0685  0.0834
 7559SOL    HW123576   3.431   1.957   7.022 -0.1497 -1.9378  1.3781
 7559SOL    HW223577   3.547   2.027   6.931 -2.5603  1.1160  0.4615
 7560SOL     OW23578   0.200   0.799   6.063 -0.4233 -0.4012 -0.1234
 7560SOL    HW123579   0.137   0.742   6.010  0.3072 -0.7401 -0.6509
 7560SOL    HW223580   0.247   0.742   6.131 -0.9436 -0.0788  0.5155
 7561SOL     OW23581   6.981   3.091   5.814  0.0823  0.3548 -0.1708
 7561SOL    HW123582   6.902   3.032   5.795  1.3762 -0.6578 -3.0782
 7561SOL    HW223583   7.021   3.066   5.902 -0.9917 -1.2977 -0.0985
 7562SOL     OW23584   0.827   5.675   4.828 -0.4659  0.2898  0.6646
 7562SOL    HW123585   0.751   5.716   4.878 -0.5006 -1.3648  2.0889
 7562SOL    HW223586   0.911   5.726   4.848 -0.5351 -0.1477  2.2633
 7563SOL     OW23587   3.422   0.639   1.687  0.1621  0.2196  0.1749
 7563SOL    HW123588   3.379   0.551   1.705  0.5445  0.0163  0.0904
 7563SOL    HW223589   3.509   0.645   1.735 -0.4884  1.0984  1.3060
 7564SOL     OW23590   3.467   1.278   5.520  0.2537 -0.6735 -0.2834
 7564SOL    HW123591   3.396   1.230   5.573  0.4117 -1.0251 -0.3863
 7564SOL    HW223592   3.441   1.280   5.424 -0.8469  1.4349  0.0151
 7565SOL     OW23593   6.100   5.973   5.236 -0.1052 -0.0567  0.1198
 7565SOL    HW123594   6.104   5.878   5.206 -1.9281 -0.2187  0.3060
 7565SOL    HW223595   6.090   5.976   5.336  1.4680  0.3919  0.2979
 7566SOL     OW23596   4.601   6.763   3.741 -0.2092  0.0097  0.2540
 7566SOL    HW123597   4.554   6.689   3.789 -1.8378  0.6664 -0.2179
 7566SOL    HW223598   4.692   6.734   3.714 -0.1822 -1.2069  1.5732
 7567SOL     OW23599   1.972   0.837   4.607 -0.1374 -0.6550 -0.4131
 7567SOL    HW123600   1.925   0.914   4.651 -1.5756 -2.1288  0.7249
 7567SOL    HW223601   2.070   0.842   4.628 -0.3643  0.2785  0.5129
 7568SOL     OW23602   4.847   3.859   0.926  0.3491 -0.4535 -0.2790
 7568SOL    HW123603   4.760   3.840   0.881  1.7062  0.8842 -3.7355
 7568SOL    HW223604   4.833   3.930   0.995 -1.3913 -0.7620 -0.2506
 7569SOL     OW23605   1.940   5.015   5.366 -0.5950  0.2789 -0.7546
 7569SOL    HW123606   1.904   5.100   5.328 -1.8954 -0.1987 -0.6251
 7569SOL    HW223607   1.883   4.938   5.337 -1.3890 -0.1685  1.7251
 7570SOL     OW23608   5.748   3.340   2.650 -0.2534 -0.2765  0.1305
 7570SOL    HW123609   5.657   3.340   2.608 -0.0950  0.1705 -0.2228
 7570SOL    HW223610   5.767   3.250   2.689 -0.8289 -0.3879  0.1684
 7571SOL     OW23611   5.524   5.555   3.461 -0.5201  0.2378 -0.3262
 7571SOL    HW123612   5.482   5.467   3.435 -0.0482  0.1227 -0.7200
 7571SOL    HW223613   5.610   5.566   3.411 -0.9361  1.2677 -0.8497
 7572SOL     OW23614   4.261   0.374   0.231  0.2271 -0.2348  0.6825
 7572SOL    HW123615   4.257   0.455   0.290 -1.1695 -0.0405  0.3523
 7572SOL    HW223616   4.255   0.292   0.287 -2.8910 -0.0477  0.8020
 7573SOL     OW23617   2.379   0.831   5.801 -0.1297  0.2510  0.1391
 7573SOL    HW123618   2.440   0.804   5.726 -0.4814 -0.0866 -0.0289
 7573SOL    HW223619   2.284   0.812   5.776 -0.2801  0.4735  0.5268
 7574SOL     OW23620   5.068   0.495   5.082  0.1582 -0.2680 -0.6374
 7574SOL    HW123621   5.166   0.503   5.062  0.1616 -1.1033 -1.0108
 7574SOL    HW223622   5.042   0.564   5.149  1.6111 -1.7755  1.6544
 7575SOL     OW23623   6.384   1.584   0.575 -0.5058  0.2215 -0.0005
 7575SOL    HW123624   6.471   1.548   0.541  0.0184  0.7072  0.7952
 7575SOL    HW223625   6.359   1.666   0.524  0.3534  1.0362  0.8559
 7576SOL     OW23626   3.770   2.302   1.118  0.0454 -0.6061 -0.0824
 7576SOL    HW123627   3.721   2.297   1.205  0.2149 -0.8863  0.0000
 7576SOL    HW223628   3.844   2.235   1.118  1.0906  0.5113  0.2021
 7577SOL     OW23629   1.306   6.445   0.598 -0.6294  0.0866  0.0922
 7577SOL    HW123630   1.298   6.346   0.616  0.8090 -0.2151 -0.8654
 7577SOL    HW223631   1.395   6.477   0.628 -0.4521  0.7584 -1.1059
 7578SOL     OW23632   1.874   6.119   2.566 -0.2560  0.4120  0.3387
 7578SOL    HW123633   1.834   6.170   2.490  1.6382  1.9566  0.3010
 7578SOL    HW223634   1.801   6.083   2.624 -1.6925  1.2228 -0.9012
 7579SOL     OW23635   0.774   6.046   3.261 -0.2055  0.3697 -0.3347
 7579SOL    HW123636   0.735   5.955   3.279  1.8772 -0.4680  0.2832
 7579SOL    HW223637   0.730   6.113   3.321 -0.6736 -0.5330  0.3725
 7580SOL     OW23638   0.876   4.807   1.308 -0.2934 -0.2536 -0.4028
 7580SOL    HW123639   0.828   4.832   1.392  0.2205 -0.7935  0.0616
 7580SOL    HW223640   0.945   4.876   1.287 -0.5400 -0.0276 -0.4882
 7581SOL     OW23641   0.199   4.273   1.345 -0.1056 -0.7471  0.1295
 7581SOL    HW123642   0.242   4.184   1.355 -1.5204 -1.4088  0.5761
 7581SOL    HW223643   0.100   4.262   1.336 -0.2128  0.7162 -0.9307
 7582SOL     OW23644   4.806   1.323   2.841 -0.4014 -0.0855  0.5304
 7582SOL    HW123645   4.706   1.322   2.836 -0.3453  0.2251 -1.0829
 7582SOL    HW223646   4.844   1.303   2.751  0.9770  2.1744  0.5480
 7583SOL     OW23647   5.596   1.381   3.903  0.4296  0.1101 -0.0535
 7583SOL    HW123648   5.509   1.389   3.854 -0.2084  0.6534  1.1143
 7583SOL    HW223649   5.641   1.296   3.877 -0.2790 -0.0122 -0.9475
 7584SOL     OW23650   3.274   6.665   3.305 -0.5749  0.1658  0.5021
 7584SOL    HW123651   3.226   6.577   3.296  0.5240 -0.2390 -2.1262
 7584SOL    HW223652   3.207   6.737   3.325 -1.8748 -0.8210 -0.1556
 7585SOL     OW23653   3.369   3.090   4.082 -0.8748 -0.7238  0.0464
 7585SOL    HW123654   3.429   3.023   4.124 -1.3651 -0.1605  1.7360
 7585SOL    HW223655   3.385   3.180   4.124 -0.6543  0.1076 -1.7422
 7586SOL     OW23656   2.689   6.648   3.879 -0.1865  0.6143  0.7608
 7586SOL    HW123657   2.608   6.590   3.870 -0.8146  1.7015 -1.2813
 7586SOL    HW223658   2.668   6.740   3.846  1.7871  1.0018  0.4641
 7587SOL     OW23659   2.771   6.612   6.136 -0.4993 -0.0514 -0.1481
 7587SOL    HW123660   2.836   6.551   6.182 -1.2363 -0.9981 -0.3152
 7587SOL    HW223661   2.807   6.637   6.046  1.5971  2.9236  1.3497
 7588SOL     OW23662   1.440   2.660   3.883 -0.2150 -0.5651  0.9581
 7588SOL    HW123663   1.434   2.727   3.957 -1.3147 -1.7523  2.0167
 7588SOL    HW223664   1.364   2.595   3.892 -0.7437 -0.4106 -1.5865
 7589SOL     OW23665   6.483   6.671   3.515  0.1036 -0.4256 -0.2224
 7589SOL    HW123666   6.434   6.651   3.430 -0.9349 -0.0724  0.2694
 7589SOL    HW223667   6.423   6.652   3.593 -0.6595  3.3788  0.3408
 7590SOL     OW23668   4.013   2.705   6.070 -0.1092 -0.1163  0.8382
 7590SOL    HW123669   3.930   2.700   6.126 -0.7994  0.4100 -0.1139
 7590SOL    HW223670   4.093   2.699   6.130 -0.8125  0.9714  1.9570
 7591SOL     OW23671   4.482   3.218   0.370 -0.1201  0.6207 -0.2269
 7591SOL    HW123672   4.537   3.214   0.453 -0.9032  0.0537  0.2835
 7591SOL    HW223673   4.497   3.305   0.323 -1.1836  1.8267  1.5685
 7592SOL     OW23674   0.723   5.597   4.235  0.3305 -0.2993 -0.7189
 7592SOL    HW123675   0.821   5.577   4.230  0.5038  0.6991 -1.8190
 7592SOL    HW223676   0.675   5.547   4.164  0.0537 -0.6998 -0.2523
 7593SOL     OW23677   6.260   2.831   6.687 -0.4134  0.5036  0.0693
 7593SOL    HW123678   6.298   2.798   6.601  0.4796 -0.1687  0.7030
 7593SOL    HW223679   6.160   2.830   6.683 -0.3780 -0.3118 -0.6612
 7594SOL     OW23680   1.701   3.315   0.047  0.1190  0.0804 -0.5527
 7594SOL    HW123681   1.673   3.411   0.046  0.5721  0.2512 -2.8350
 7594SOL    HW223682   1.764   3.298  -0.029 -0.0921 -2.0685 -0.3101
 7595SOL     OW23683   6.391   1.785   5.002  0.1025 -0.1587 -0.5992
 7595SOL    HW123684   6.491   1.789   4.997  0.1765  0.3003  0.8853
 7595SOL    HW223685   6.363   1.699   5.044 -0.0207  0.5999  0.9284
 7596SOL     OW23686   2.148   0.428   2.527 -0.5740  0.0444  0.5125
 7596SOL    HW123687   2.121   0.359   2.459 -2.4909 -1.3354  2.5339
 7596SOL    HW223688   2.233   0.399   2.571  0.7081  0.9717 -1.2329
 7597SOL     OW23689   1.666   6.636   3.242 -0.6306  0.2730 -0.1461
 7597SOL    HW123690   1.661   6.589   3.330  1.1709 -0.9064 -0.6167
 7597SOL    HW223691   1.627   6.728   3.251 -2.1899 -0.4704  1.3771
 7598SOL     OW23692   1.388   1.026   2.368 -0.0171  0.2852 -0.1501
 7598SOL    HW123693   1.356   1.086   2.295 -1.5134 -0.8863 -0.5188
 7598SOL    HW223694   1.436   1.080   2.437 -0.1768  1.6857 -1.0937
 7599SOL     OW23695   4.955   2.298   2.250 -0.1050 -0.0154  0.0020
 7599SOL    HW123696   5.007   2.227   2.298 -0.2016 -0.2944 -0.3051
 7599SOL    HW223697   4.883   2.332   2.309 -0.6334 -0.8128 -0.1697
 7600SOL     OW23698   0.276   0.601   2.428 -0.8496 -0.8594 -0.0820
 7600SOL    HW123699   0.185   0.619   2.466  0.1251  1.4191  1.4507
 7600SOL    HW223700   0.313   0.686   2.389  0.9530 -1.5077  0.1269
 7601SOL     OW23701   1.499   5.456   0.425  0.2381  0.5517 -0.7938
 7601SOL    HW123702   1.512   5.554   0.412  1.6551  0.2260 -2.1697
 7601SOL    HW223703   1.552   5.426   0.504  1.6153  0.5583 -1.6828
 7602SOL     OW23704   1.443   4.592   0.892  0.0307  0.1868  0.2075
 7602SOL    HW123705   1.499   4.625   0.816 -0.4459 -1.3622 -0.8624
 7602SOL    HW223706   1.357   4.554   0.857 -0.5149  0.0711  1.5837
 7603SOL     OW23707   0.707   4.632   6.342  0.4303 -0.0471 -0.4215
 7603SOL    HW123708   0.788   4.664   6.294  1.6455 -1.2262  0.7732
 7603SOL    HW223709   0.721   4.641   6.441 -0.8121 -0.4650 -0.1894
 7604SOL     OW23710   1.489   1.451   5.194  0.2092 -0.0103  0.2222
 7604SOL    HW123711   1.584   1.471   5.168 -0.0736 -0.7114 -1.4413
 7604SOL    HW223712   1.485   1.434   5.292  2.0735 -1.4383  0.0984
 7605SOL     OW23713   2.140   0.926   1.754 -0.6428  0.7774 -0.3305
 7605SOL    HW123714   2.122   0.841   1.805 -0.0808  1.2215  0.6366
 7605SOL    HW223715   2.130   0.908   1.656 -1.3816 -0.1936 -0.1043
 7606SOL     OW23716   5.360   4.154   4.235  0.0029 -0.3862 -0.0679
 7606SOL    HW123717   5.451   4.114   4.237  0.3054  0.2782 -0.3488
 7606SOL    HW223718   5.340   4.188   4.143 -0.0984  0.4257  0.2439
 7607SOL     OW23719   3.664   3.280   6.950 -0.1125 -0.1451  0.2493
 7607SOL    HW123720   3.591   3.314   7.008 -1.0918 -0.9692 -0.4532
 7607SOL    HW223721   3.738   3.243   7.007 -0.3508  0.4742  0.9651
 7608SOL     OW23722   6.466   3.483   0.844  0.4471  0.1620 -0.2773
 7608SOL    HW123723   6.466   3.559   0.779  0.0551  0.7328  0.3747
 7608SOL    HW223724   6.501   3.401   0.799 -2.0837 -0.1137 -1.9525
 7609SOL     OW23725   1.197   3.634   3.725 -0.5998  0.4448  0.3981
 7609SOL    HW123726   1.199   3.577   3.808 -1.7842 -0.5044 -0.1938
 7609SOL    HW223727   1.226   3.727   3.748 -0.9574  0.2181  1.8836
 7610SOL     OW23728   3.685   2.440   5.344 -0.4267 -0.0761  0.0444
 7610SOL    HW123729   3.668   2.539   5.341 -2.5056 -0.3214  1.7474
 7610SOL    HW223730   3.747   2.419   5.420 -0.7199 -0.1442  0.2694
 7611SOL     OW23731   5.819   4.854   0.621 -0.0424 -0.2898  0.0345
 7611SOL    HW123732   5.824   4.754   0.609 -0.3427 -0.3480  0.3768
 7611SOL    HW223733   5.755   4.892   0.555 -0.0718 -0.3444  0.0312
 7612SOL     OW23734   4.514   1.804   2.852 -0.2911  0.0606  0.1094
 7612SOL    HW123735   4.603   1.785   2.891  0.4854  1.6571 -0.7999
 7612SOL    HW223736   4.442   1.771   2.914  0.8724  1.5949  2.4087
 7613SOL     OW23737   1.355   0.770   0.031  0.2831 -0.2398 -0.3420
 7613SOL    HW123738   1.446   0.751  -0.006  2.0222  0.2502  3.1721
 7613SOL    HW223739   1.346   0.869   0.046 -0.0407 -0.4594  1.0383
 7614SOL     OW23740   5.566   1.556   0.748  0.0648 -0.1550  0.2223
 7614SOL    HW123741   5.580   1.466   0.789  0.1762  0.0687  0.6802
 7614SOL    HW223742   5.483   1.598   0.787 -1.2150 -0.9393 -1.5311
 7615SOL     OW23743   5.294   3.933   4.582  0.8764 -0.0294 -0.5014
 7615SOL    HW123744   5.200   3.917   4.610  1.0905 -0.0165  0.2247
 7615SOL    HW223745   5.304   4.027   4.550  0.6559 -0.0170 -0.5332
 7616SOL     OW23746   0.524   0.368   5.890 -0.4097 -0.7502 -0.2565
 7616SOL    HW123747   0.511   0.283   5.941  2.6333 -1.2300 -0.0982
 7616SOL    HW223748   0.604   0.416   5.925 -1.2417  1.5293 -1.2738
 7617SOL     OW23749   3.825   6.890   1.350 -0.1512 -0.3845  0.1649
 7617SOL    HW123750   3.750   6.854   1.406  0.2133 -0.9293  0.3060
 7617SOL    HW223751   3.813   6.989   1.339  0.0329 -0.1790  1.6230
 7618SOL     OW23752   0.209   2.082   0.213  0.2117  0.0694 -0.4127
 7618SOL    HW123753   0.211   2.109   0.117  2.1770 -1.2272 -0.7813
 7618SOL    HW223754   0.279   2.133   0.264  1.3196 -1.4494 -0.3425
 7619SOL     OW23755   0.720   0.498   4.813 -0.1370  0.3832  0.9378
 7619SOL    HW123756   0.738   0.445   4.896  2.1213  1.8719  1.4940
 7619SOL    HW223757   0.631   0.542   4.820  0.4603  1.3968  3.1469
 7620SOL     OW23758   5.574   5.629   2.863  0.0368 -0.3788 -0.1375
 7620SOL    HW123759   5.649   5.585   2.814  0.4127  0.8924 -0.7552
 7620SOL    HW223760   5.610   5.674   2.945  0.2199  1.3131 -1.0971
 7621SOL     OW23761   6.193   0.651   6.973  0.1705  0.3040 -0.0223
 7621SOL    HW123762   6.242   0.733   7.003  1.0357  0.3764 -1.5405
 7621SOL    HW223763   6.115   0.636   7.033 -0.5524  2.7523 -0.2349
 7622SOL     OW23764   4.393   4.553   0.149 -0.3289  0.3684  0.6208
 7622SOL    HW123765   4.391   4.574   0.051 -1.2361 -1.2481  0.2507
 7622SOL    HW223766   4.373   4.456   0.162 -0.0797  0.5325  2.4167
 7623SOL     OW23767   4.674   4.264   0.295  0.6726  0.4720 -0.5414
 7623SOL    HW123768   4.721   4.251   0.207 -1.0909 -2.5093 -1.1618
 7623SOL    HW223769   4.609   4.339   0.287  0.9142  0.5844 -1.6076
 7624SOL     OW23770   4.925   3.495   4.073  0.1392  0.4293  0.0382
 7624SOL    HW123771   4.863   3.573   4.066 -0.0744  0.5777  2.4867
 7624SOL    HW223772   5.017   3.527   4.096  0.5431  0.0627 -1.0358
 7625SOL     OW23773   6.265   1.763   0.997 -0.6258  0.5418 -0.1069
 7625SOL    HW123774   6.211   1.723   0.922 -0.0718 -0.4742  0.0231
 7625SOL    HW223775   6.362   1.761   0.973 -0.5223  1.0399  0.2659
 7626SOL     OW23776   5.512   6.541   0.622 -0.7049 -0.7868 -0.1231
 7626SOL    HW123777   5.422   6.499   0.609 -1.1339 -0.0460  0.3620
 7626SOL    HW223778   5.503   6.620   0.683  0.0918 -0.0521 -0.9182
 7627SOL     OW23779   2.697   0.894   6.708  0.2662  0.3601  0.0515
 7627SOL    HW123780   2.630   0.931   6.644 -0.2891 -0.2790  0.2451
 7627SOL    HW223781   2.653   0.880   6.798  0.1892 -1.5395 -0.2357
 7628SOL     OW23782   4.010   1.260   0.452  0.5036  0.1113 -1.1489
 7628SOL    HW123783   4.037   1.245   0.547  1.0999 -2.3832 -1.6290
 7628SOL    HW223784   3.968   1.350   0.442 -0.5718 -0.0017  1.6754
 7629SOL     OW23785   1.584   3.131   3.819  0.1518 -0.2080 -0.0018
 7629SOL    HW123786   1.574   3.052   3.759 -1.1416 -0.4898  0.5522
 7629SOL    HW223787   1.675   3.172   3.806  0.3602 -1.0163 -1.2061
 7630SOL     OW23788   0.684   0.923   6.690 -0.9871  0.0048  0.1704
 7630SOL    HW123789   0.716   0.971   6.771 -2.4754  1.7849 -0.2212
 7630SOL    HW223790   0.754   0.928   6.619 -1.2069  2.0108  0.0182
 7631SOL     OW23791   1.594   3.569   0.041 -0.0270  0.3933 -0.6154
 7631SOL    HW123792   1.541   3.652   0.027 -0.5710  0.0660 -0.5456
 7631SOL    HW223793   1.687   3.592   0.069  0.0688  0.9883 -1.3995
 7632SOL     OW23794   4.142   4.239   6.611 -0.2322 -0.2661 -0.3592
 7632SOL    HW123795   4.188   4.163   6.565 -0.1555 -0.4425  0.0049
 7632SOL    HW223796   4.155   4.322   6.557  0.0906 -0.4124 -0.5166
 7633SOL     OW23797   6.242   2.222   1.464  0.0012  0.2819  0.0117
 7633SOL    HW123798   6.312   2.293   1.468 -0.9527  1.4417 -2.2011
 7633SOL    HW223799   6.175   2.237   1.536  0.5232  0.8254  0.3927
 7634SOL     OW23800   1.290   0.734   1.208 -0.3805 -0.4229  0.3200
 7634SOL    HW123801   1.326   0.783   1.288  0.4719 -1.2607  0.4751
 7634SOL    HW223802   1.348   0.752   1.129  0.9479 -2.4216  0.7596
 7635SOL     OW23803   5.095   3.952   6.572 -0.1047 -0.1372 -1.0216
 7635SOL    HW123804   4.996   3.958   6.583  0.1002 -0.2171  1.3412
 7635SOL    HW223805   5.140   3.974   6.658  1.9745  0.1976 -2.1187
 7636SOL     OW23806   6.787   4.309   3.338  0.4929  0.1880  0.2800
 7636SOL    HW123807   6.748   4.269   3.420 -0.9134 -0.4801 -0.6828
 7636SOL    HW223808   6.809   4.405   3.355 -1.0926  0.4439  1.0369
 7637SOL     OW23809   1.963   4.985   2.206 -0.3623 -0.2380 -0.0209
 7637SOL    HW123810   1.959   4.918   2.280  0.7776  0.5516  0.7834
 7637SOL    HW223811   1.931   4.943   2.121 -1.9442 -1.0844  0.9513
 7638SOL     OW23812   4.781   5.890   2.613  0.0400 -1.3456  0.6101
 7638SOL    HW123813   4.852   5.821   2.627  2.8243  1.2409  0.3317
 7638SOL    HW223814   4.751   5.889   2.518  1.7067 -0.8210  0.0349
 7639SOL     OW23815   0.052   0.445   6.654 -0.3756  0.2185 -0.0644
 7639SOL    HW123816   0.014   0.353   6.643 -0.4252  0.2893 -0.5283
 7639SOL    HW223817  -0.002   0.495   6.721  0.2244 -0.4005  0.8988
 7640SOL     OW23818   1.711   2.941   5.135 -0.1395 -0.2403 -0.0059
 7640SOL    HW123819   1.730   2.849   5.102 -0.6929 -0.5262  0.4524
 7640SOL    HW223820   1.787   2.971   5.194  0.7594  0.2029 -1.3507
 7641SOL     OW23821   4.841   3.150   2.559  0.4205  0.2027  0.4044
 7641SOL    HW123822   4.930   3.168   2.518  0.4476 -1.2702 -0.2520
 7641SOL    HW223823   4.816   3.054   2.545 -2.4197  1.0884 -1.6930
 7642SOL     OW23824   2.567   1.664   1.253 -0.4875  0.3106 -0.4190
 7642SOL    HW123825   2.618   1.729   1.308 -2.2303  0.4699  1.1254
 7642SOL    HW223826   2.502   1.713   1.196 -2.7285  0.0152  1.7016
 7643SOL     OW23827   4.635   2.447   1.253  0.2144  0.5301  0.5726
 7643SOL    HW123828   4.572   2.445   1.330  1.2608 -2.4719  1.4995
 7643SOL    HW223829   4.597   2.395   1.177  0.8209  0.1475  0.5200
 7644SOL     OW23830   3.919   2.146   2.098  0.5125 -0.1600  0.3853
 7644SOL    HW123831   3.945   2.095   2.016 -0.5802 -0.1850  0.0427
 7644SOL    HW223832   3.825   2.177   2.090  0.6362  0.5118  1.3034
 7645SOL     OW23833   4.050   3.161   6.831  0.1993 -0.3701  0.1829
 7645SOL    HW123834   4.133   3.121   6.870  0.6770  0.4072 -0.0196
 7645SOL    HW223835   3.983   3.178   6.904  0.6540  0.0370  0.5088
 7646SOL     OW23836   0.547   3.924   5.517 -0.0973 -0.4863 -0.0798
 7646SOL    HW123837   0.457   3.881   5.527  0.4850 -1.5005  1.1164
 7646SOL    HW223838   0.562   3.948   5.421 -1.4887 -0.6261 -0.3564
 7647SOL     OW23839   6.155   3.645   5.862 -0.3945  0.7671  0.6179
 7647SOL    HW123840   6.137   3.551   5.834  0.7594  0.9356 -0.8459
 7647SOL    HW223841   6.216   3.688   5.795  1.8229  1.5273  2.9583
 7648SOL     OW23842   2.185   3.471   4.135 -0.5380  0.3167  0.4015
 7648SOL    HW123843   2.267   3.528   4.144 -0.8829  0.7390  0.9425
 7648SOL    HW223844   2.149   3.449   4.226 -1.8022  1.2927  0.1732
 7649SOL     OW23845   6.922   1.419   3.181 -0.2236  0.1136  0.0637
 7649SOL    HW123846   7.014   1.446   3.152 -0.2727 -1.5095 -1.7651
 7649SOL    HW223847   6.928   1.338   3.239 -0.5084  0.1832  0.1931
 7650SOL     OW23848   7.003   2.191   0.332  0.1540  0.0930 -0.2486
 7650SOL    HW123849   7.023   2.162   0.426 -1.8624 -0.5145  0.0510
 7650SOL    HW223850   7.040   2.124   0.268 -0.9948 -1.1093  0.2843
 7651SOL     OW23851   1.095   6.652   4.118 -0.0079  0.1262 -0.2336
 7651SOL    HW123852   1.115   6.695   4.030  0.1735  0.5129 -0.0055
 7651SOL    HW223853   1.000   6.623   4.121 -1.2273  3.7484  0.9421
 7652SOL     OW23854   4.949   3.605   5.700  0.5284  0.2959  0.4616
 7652SOL    HW123855   5.046   3.622   5.717  0.1526  3.0314  0.3732
 7652SOL    HW223856   4.938   3.569   5.607  1.5154 -1.4064  0.9601
 7653SOL     OW23857   0.906   2.933   1.367 -0.8196  0.3821 -0.6327
 7653SOL    HW123858   0.848   2.954   1.289 -0.5713 -2.3362 -1.6713
 7653SOL    HW223859   0.850   2.900   1.443 -0.8108 -0.2880 -0.9120
 7654SOL     OW23860   4.940   2.852   5.205 -0.0090  0.0906  0.1057
 7654SOL    HW123861   4.900   2.765   5.233 -0.3759  0.8537  2.0745
 7654SOL    HW223862   4.905   2.877   5.115 -0.1701 -1.6010 -0.3340
 7655SOL     OW23863   4.754   7.014   5.251 -0.7833 -0.1083  0.2675
 7655SOL    HW123864   4.712   6.927   5.225  1.6410 -1.0689 -0.8269
 7655SOL    HW223865   4.802   7.052   5.171  0.5310  0.7866  1.4430
 7656SOL     OW23866   3.443   4.074   6.184  0.5225 -0.0096 -0.1510
 7656SOL    HW123867   3.494   4.048   6.102  0.4247 -1.7486  0.3082
 7656SOL    HW223868   3.346   4.087   6.161  0.3645 -1.2050 -0.1870
 7657SOL     OW23869   2.055   1.739   3.884  0.1050  0.2636 -0.2111
 7657SOL    HW123870   2.132   1.683   3.854 -2.2666 -2.1101 -2.3303
 7657SOL    HW223871   2.010   1.695   3.962  0.4570  1.3202  0.6198
 7658SOL     OW23872   1.726   0.771   0.305 -1.0652  0.6170 -0.0121
 7658SOL    HW123873   1.663   0.703   0.343 -0.8917  0.0868 -0.6458
 7658SOL    HW223874   1.820   0.740   0.319 -0.9449  1.2257  0.5994
 7659SOL     OW23875   4.533   3.245   5.404  0.3325 -0.0096  0.5535
 7659SOL    HW123876   4.563   3.259   5.499 -0.4004 -0.5713  0.8850
 7659SOL    HW223877   4.587   3.303   5.343  0.2001  1.0656  1.4125
 7660SOL     OW23878   0.055   6.655   2.907 -0.2387  0.1764  0.2605
 7660SOL    HW123879   0.049   6.745   2.951  3.8603  1.4811 -1.4172
 7660SOL    HW223880   0.124   6.600   2.954 -0.2873 -0.8102 -0.7878
 7661SOL     OW23881   4.741   2.058   6.197 -0.2314  0.0982 -0.2117
 7661SOL    HW123882   4.695   2.074   6.110 -1.6040 -0.0555  0.4588
 7661SOL    HW223883   4.679   2.011   6.260  1.5040 -1.9430  0.0805
 7662SOL     OW23884   0.590   3.424   5.133  0.1818  0.0870  0.3204
 7662SOL    HW123885   0.682   3.455   5.107  0.5477  0.1900  1.6770
 7662SOL    HW223886   0.590   3.324   5.139 -0.8292 -0.2731 -3.4128
 7663SOL     OW23887   6.560   4.108   6.692  1.2034 -0.4047 -0.3331
 7663SOL    HW123888   6.523   4.145   6.606  0.2302 -0.2150  0.1595
 7663SOL    HW223889   6.487   4.062   6.743  1.3909  0.8312  1.1259
 7664SOL     OW23890   2.249   2.547   2.463  0.0021 -0.1677  0.4908
 7664SOL    HW123891   2.186   2.609   2.509 -0.3404 -0.0711 -0.0970
 7664SOL    HW223892   2.207   2.512   2.380  0.9678  0.4299 -0.2756
 7665SOL     OW23893   5.971   6.889   5.077 -0.3745  0.1274  0.2678
 7665SOL    HW123894   5.986   6.893   5.176  0.2238 -1.4772  0.2754
 7665SOL    HW223895   5.959   6.794   5.049 -0.3660  0.5456 -1.2377
 7666SOL     OW23896   5.974   4.373   2.644 -0.3618 -0.1410  0.6060
 7666SOL    HW123897   6.059   4.401   2.598 -0.4282 -0.5344  0.2386
 7666SOL    HW223898   5.945   4.445   2.706  0.3617 -0.0897  0.8931
 7667SOL     OW23899   4.167   0.838   2.073  0.1649  0.0460 -0.1847
 7667SOL    HW123900   4.104   0.901   2.119 -0.1493  0.0418 -0.6025
 7667SOL    HW223901   4.169   0.859   1.975 -2.5415 -2.6523 -0.9911
 7668SOL     OW23902   3.214   3.936   1.578  0.3877 -0.0902 -0.6484
 7668SOL    HW123903   3.285   3.974   1.637  0.0439  0.5746 -0.6498
 7668SOL    HW223904   3.174   4.009   1.522 -1.1854 -0.1896  0.2802
 7669SOL     OW23905   4.291   0.927   5.011  0.2455  0.0339 -0.4921
 7669SOL    HW123906   4.220   0.891   5.071  0.9378  0.7409  0.7852
 7669SOL    HW223907   4.249   0.985   4.941 -0.5056 -0.2022 -0.2434
 7670SOL     OW23908   1.585   6.458   0.594  0.0136 -0.4975  0.4348
 7670SOL    HW123909   1.665   6.511   0.624 -0.2530  1.3909 -1.8683
 7670SOL    HW223910   1.610   6.403   0.514 -1.0562  0.4392 -0.5729
 7671SOL     OW23911   2.208   6.290   1.839 -0.1041  0.1174 -0.7707
 7671SOL    HW123912   2.211   6.366   1.903  1.2546 -0.6104  0.0767
 7671SOL    HW223913   2.275   6.305   1.766  0.3380 -0.3654 -0.4706
 7672SOL     OW23914   0.140   6.148   3.124  0.2271  0.6868  0.2000
 7672SOL    HW123915   0.192   6.099   3.054 -0.7405  0.3434 -0.2911
 7672SOL    HW223916   0.202   6.176   3.197  0.8484 -1.0459  0.3834
 7673SOL     OW23917   2.224   5.031   2.305  0.5191  0.3193  0.1555
 7673SOL    HW123918   2.133   5.027   2.265  0.1898  1.3530  0.7566
 7673SOL    HW223919   2.218   5.060   2.400  1.5522  2.1179 -0.2769
 7674SOL     OW23920   4.727   0.846   4.024  0.6917 -0.5060  0.3544
 7674SOL    HW123921   4.789   0.913   3.982 -0.9987  1.6931  1.1635
 7674SOL    HW223922   4.775   0.798   4.098  1.4302  1.2648  1.0839
 7675SOL     OW23923   6.804   5.751   4.385  0.1047 -0.2454 -0.5528
 7675SOL    HW123924   6.840   5.679   4.444  0.3439  1.5297  1.5910
 7675SOL    HW223925   6.842   5.741   4.293 -1.0942 -3.7336 -0.8183
 7676SOL     OW23926   2.806   1.076   0.737  0.3938 -0.2260  0.5099
 7676SOL    HW123927   2.809   1.087   0.638  0.1569 -3.1272  0.0780
 7676SOL    HW223928   2.848   1.155   0.781 -0.3631  1.5904 -1.8245
 7677SOL     OW23929   0.050   3.324   1.486 -0.4712  0.4265  0.1201
 7677SOL    HW123930   0.032   3.230   1.516  1.4951 -0.0151  0.0738
 7677SOL    HW223931  -0.035   3.365   1.454 -0.9839 -2.2227 -2.3694
 7678SOL     OW23932   3.209   2.529   6.946 -0.0057  0.0142  0.7117
 7678SOL    HW123933   3.201   2.468   6.867 -0.6453  1.1834 -0.1512
 7678SOL    HW223934   3.214   2.474   7.030  0.7460 -1.2492 -0.1261
 7679SOL     OW23935   1.406   5.520   3.995  0.3431 -0.0350  0.2869
 7679SOL    HW123936   1.416   5.488   3.900 -1.1552 -2.0252  0.7387
 7679SOL    HW223937   1.412   5.442   4.057  0.4249  1.1215  1.7963
 7680SOL     OW23938   2.212   5.385   5.470  0.5590  0.1816  0.1101
 7680SOL    HW123939   2.216   5.285   5.471 -1.1784  0.0100 -1.8431
 7680SOL    HW223940   2.300   5.421   5.439  0.9374 -0.7958 -0.0059
 7681SOL     OW23941   2.949   0.277   6.887 -0.3884  0.1787  0.0824
 7681SOL    HW123942   2.965   0.293   6.790  0.7047  1.1437  0.3993
 7681SOL    HW223943   3.033   0.295   6.938 -0.9714 -0.2202  1.2224
 7682SOL     OW23944   3.206   6.600   2.795  0.2478 -0.5177 -0.2431
 7682SOL    HW123945   3.211   6.691   2.835 -1.0560 -0.3244 -0.4947
 7682SOL    HW223946   3.134   6.597   2.726  1.1028 -1.4059 -1.1259
 7683SOL     OW23947   0.180   2.858   4.389  0.0545  0.3773  0.8918
 7683SOL    HW123948   0.178   2.922   4.466 -2.4413  3.3371 -1.3506
 7683SOL    HW223949   0.092   2.860   4.341  1.5215 -1.0857 -2.1786
 7684SOL     OW23950   4.391   6.313   6.847  0.0110  0.2245 -0.0222
 7684SOL    HW123951   4.397   6.411   6.828 -1.1034  0.5116  1.0039
 7684SOL    HW223952   4.481   6.278   6.871  0.3184  1.1260  0.1751
 7685SOL     OW23953   3.464   1.953   6.130  0.2761  0.2647  0.2772
 7685SOL    HW123954   3.478   1.898   6.047 -1.2366 -1.8477  1.3236
 7685SOL    HW223955   3.518   1.913   6.205 -0.6490  0.3446  0.9998
 7686SOL     OW23956   6.955   0.528   4.329  0.1120 -0.5989 -0.6176
 7686SOL    HW123957   6.885   0.577   4.277 -0.0330 -1.4370 -1.2263
 7686SOL    HW223958   6.914   0.490   4.412  0.1464 -0.0031 -0.3206
 7687SOL     OW23959   4.500   5.893   5.499 -0.0544  0.2303  0.1639
 7687SOL    HW123960   4.566   5.920   5.429  1.4653 -0.5766  1.2352
 7687SOL    HW223961   4.455   5.808   5.472  0.2744  0.1062  0.0067
 7688SOL     OW23962   1.575   0.366   3.438 -0.3383  0.5684 -0.0102
 7688SOL    HW123963   1.606   0.388   3.531  0.7381 -0.2818 -0.1442
 7688SOL    HW223964   1.562   0.267   3.430  1.0458  0.4566 -1.1775
 7689SOL     OW23965   5.561   6.657   2.612  0.2923 -0.4653  0.4507
 7689SOL    HW123966   5.477   6.682   2.661  0.1057 -0.1577 -0.0203
 7689SOL    HW223967   5.628   6.622   2.678 -0.1139 -0.4807  0.8652
 7690SOL     OW23968   4.996   4.267   1.211  0.1361  0.0908 -0.2959
 7690SOL    HW123969   4.907   4.226   1.229  0.0219 -0.2474 -1.5330
 7690SOL    HW223970   5.032   4.308   1.295 -0.8879 -0.3302  0.3627
 7691SOL     OW23971   5.936   3.979   3.746  0.2267 -0.0259  0.0410
 7691SOL    HW123972   5.997   3.900   3.752 -0.8540 -0.9302 -0.4702
 7691SOL    HW223973   5.936   4.014   3.652  0.6764  0.5584  0.2597
 7692SOL     OW23974   1.561   0.955   2.844  0.0519  0.3815  0.4679
 7692SOL    HW123975   1.610   0.874   2.877  1.1608  0.4189 -0.9742
 7692SOL    HW223976   1.580   1.032   2.904  0.5072  0.0132  0.8073
 7693SOL     OW23977   1.290   1.505   2.328 -0.4025 -0.8998 -0.4660
 7693SOL    HW123978   1.226   1.562   2.380  0.2731  0.1239 -0.7196
 7693SOL    HW223979   1.337   1.443   2.390  0.4325  0.3454  0.1973
 7694SOL     OW23980   5.471   5.583   2.558 -0.2731 -0.3371  0.3901
 7694SOL    HW123981   5.494   5.571   2.655  0.2816 -1.0776  0.1736
 7694SOL    HW223982   5.421   5.668   2.546 -0.6108 -0.3852  1.3795
 7695SOL     OW23983   4.544   1.436   1.240 -0.2809 -0.0054  0.8707
 7695SOL    HW123984   4.514   1.367   1.305 -1.1118  0.0177  0.5243
 7695SOL    HW223985   4.538   1.399   1.147 -0.6537  0.4979  0.6893
 7696SOL     OW23986   6.120   3.093   5.759  0.2008  0.4268 -0.2788
 7696SOL    HW123987   6.174   3.080   5.842 -1.0834 -1.1243  0.3552
 7696SOL    HW223988   6.086   3.187   5.757  1.3811  0.8927  0.2200
 7697SOL     OW23989   1.519   6.337   3.885 -0.2210 -0.5654  0.5625
 7697SOL    HW123990   1.580   6.395   3.940 -0.5727 -0.5415  0.9275
 7697SOL    HW223991   1.561   6.321   3.796 -0.5534  1.0953  0.0713
 7698SOL     OW23992   6.307   6.966   3.591  0.2164  0.0254  0.0223
 7698SOL    HW123993   6.407   6.968   3.594  0.2848 -0.8219 -1.0433
 7698SOL    HW223994   6.277   6.957   3.496 -0.9199  1.9035  0.1561
 7699SOL     OW23995   1.837   5.770   6.601 -0.3605  0.0340  0.0990
 7699SOL    HW123996   1.792   5.697   6.652  0.8578 -1.0647 -0.3330
 7699SOL    HW223997   1.936   5.757   6.604 -0.0863  1.8206  0.2017
 7700SOL     OW23998   6.867   6.915   3.732  0.1651 -0.2236 -0.1586
 7700SOL    HW123999   6.787   6.889   3.677 -0.6899  1.2656  0.3362
 7700SOL    HW224000   6.915   6.832   3.761  0.1253 -1.0876 -2.3435
 7701SOL     OW24001   0.794   2.641   6.166  0.1061  0.2683 -0.1964
 7701SOL    HW124002   0.891   2.666   6.167  0.5810 -1.4643 -0.3668
 7701SOL    HW224003   0.774   2.584   6.086 -0.4601 -1.4818  1.1124
 7702SOL     OW24004   6.957   0.055   5.756 -0.4204  0.8984  0.2417
 7702SOL    HW124005   6.918  -0.035   5.776 -0.5738  1.0315  0.5422
 7702SOL    HW224006   6.949   0.113   5.836 -0.6175  1.2886 -0.0585
 7703SOL     OW24007   4.704   3.657   6.172  0.2380 -0.3376  0.9472
 7703SOL    HW124008   4.748   3.656   6.082  1.1153 -1.0037  1.3723
 7703SOL    HW224009   4.612   3.619   6.165 -0.0799  0.5595  0.1466
 7704SOL     OW24010   6.330   6.992   3.144  0.0266 -0.1299 -0.2849
 7704SOL    HW124011   6.288   7.041   3.067 -1.1304  1.0183  1.0208
 7704SOL    HW224012   6.429   7.010   3.144  0.0924 -0.3310 -1.6071
 7705SOL     OW24013   0.743   0.761   2.168  0.1558  0.0513 -0.5891
 7705SOL    HW124014   0.684   0.778   2.246 -0.8899  2.6597 -1.8285
 7705SOL    HW224015   0.797   0.843   2.148 -1.0733  0.2568 -3.7362
 7706SOL     OW24016   3.805   2.973   3.440 -0.1900  0.2629  0.0569
 7706SOL    HW124017   3.802   3.013   3.531  2.6739 -0.9335  0.7890
 7706SOL    HW224018   3.895   2.989   3.399 -0.9672 -0.3719 -2.0239
 7707SOL     OW24019   6.212   4.150   0.188  0.0160 -0.5271 -0.3826
 7707SOL    HW124020   6.250   4.240   0.166 -0.6668  0.6122  2.5266
 7707SOL    HW224021   6.116   4.146   0.157  0.4619 -0.8528 -1.7929
 7708SOL     OW24022   1.789   6.352   5.602  0.5268 -0.2997  0.3393
 7708SOL    HW124023   1.706   6.407   5.593  0.7239 -0.2101 -1.1711
 7708SOL    HW224024   1.765   6.256   5.614  0.1920 -0.2057  0.4107
 7709SOL     OW24025   0.842   6.203   0.640  0.0765 -0.1985 -0.0770
 7709SOL    HW124026   0.774   6.267   0.605  0.4661 -0.6902 -1.8426
 7709SOL    HW224027   0.826   6.188   0.737 -0.8593  1.5042  0.0787
 7710SOL     OW24028   2.101   2.023   0.384  0.5625 -0.3988 -0.1740
 7710SOL    HW124029   2.027   2.069   0.434 -1.9741 -1.3686 -2.7488
 7710SOL    HW224030   2.114   2.067   0.296  0.4716 -2.4432 -1.2705
 7711SOL     OW24031   6.176   7.002   4.973 -0.1099  0.1104  0.9804
 7711SOL    HW124032   6.089   6.968   5.007 -0.2816  0.9237  1.3690
 7711SOL    HW224033   6.231   6.925   4.939 -0.8491 -0.4372  1.0130
 7712SOL     OW24034   4.687   5.629   1.531 -0.3008  0.3527 -0.6833
 7712SOL    HW124035   4.684   5.616   1.630 -2.6446  1.2900 -0.5648
 7712SOL    HW224036   4.676   5.541   1.485 -0.4996  0.0636 -0.0893
 7713SOL     OW24037   1.010   2.227   1.934 -0.1354 -0.1467 -0.0900
 7713SOL    HW124038   1.044   2.296   1.871  0.9457  0.1947  0.8382
 7713SOL    HW224039   0.911   2.215   1.920  0.1636 -0.5051 -2.2109
 7714SOL     OW24040   6.231   4.842   4.083 -0.4898  0.6300 -0.2350
 7714SOL    HW124041   6.155   4.792   4.043 -0.0285  0.2591 -0.6650
 7714SOL    HW224042   6.251   4.923   4.028 -0.0916  0.3188 -0.5523
 7715SOL     OW24043   3.579   2.071   6.452  0.4591 -0.1861 -0.5992
 7715SOL    HW124044   3.539   2.145   6.397 -1.0960 -1.8519 -1.8351
 7715SOL    HW224045   3.515   2.045   6.524 -0.1417 -1.9159 -1.6971
 7716SOL     OW24046   0.857   2.675   1.668 -0.4967 -0.0382  0.3350
 7716SOL    HW124047   0.856   2.582   1.629  0.1368 -0.8983  2.2683
 7716SOL    HW224048   0.951   2.699   1.694 -0.4844  1.5794 -1.0478
 7717SOL     OW24049   1.112   1.740   5.357 -0.0934 -0.5893 -0.4714
 7717SOL    HW124050   1.029   1.713   5.310 -0.7576  1.5628 -0.6495
 7717SOL    HW224051   1.098   1.828   5.402  1.4827 -1.1161  1.1869
 7718SOL     OW24052   7.007   2.547   4.977  0.0375 -0.1959  0.2873
 7718SOL    HW124053   6.945   2.474   4.949 -0.1079 -0.0309  0.1816
 7718SOL    HW224054   7.094   2.507   5.008  0.5834 -0.3380 -1.3618
 7719SOL     OW24055   0.431   3.350   4.764  0.0817 -0.5150  0.0745
 7719SOL    HW124056   0.509   3.287   4.768  0.1418 -0.4541 -0.1070
 7719SOL    HW224057   0.465   3.444   4.768  0.0861 -0.4647 -0.8406
 7720SOL     OW24058   5.663   3.053   5.721  0.0252 -0.0965  0.2317
 7720SOL    HW124059   5.569   3.020   5.733 -0.3145  0.5524 -0.5567
 7720SOL    HW224060   5.668   3.109   5.639  0.2174  3.1899  2.3095
 7721SOL     OW24061   0.929   4.830   0.986 -0.2804  0.6330  0.4080
 7721SOL    HW124062   0.945   4.877   1.073 -0.7009  2.1887 -0.3187
 7721SOL    HW224063   0.965   4.737   0.992 -0.9366  0.4553  2.4741
 7722SOL     OW24064   2.321   6.451   2.046  0.3503  0.1567 -0.3190
 7722SOL    HW124065   2.256   6.386   2.086 -0.6856 -0.0620 -2.2254
 7722SOL    HW224066   2.360   6.508   2.119 -1.8837  0.1999  0.9519
 7723SOL     OW24067   3.274   4.547   0.460  0.6128  0.0570 -0.3053
 7723SOL    HW124068   3.310   4.571   0.550  2.0891 -2.0301 -0.2487
 7723SOL    HW224069   3.275   4.447   0.450 -4.0680 -0.1671 -0.8568
 7724SOL     OW24070   2.853   3.257   1.658 -0.0654  0.3812 -0.0919
 7724SOL    HW124071   2.892   3.218   1.574  1.6546  0.6763  0.5166
 7724SOL    HW224072   2.865   3.357   1.656 -1.3983  0.5603 -0.1444
 7725SOL     OW24073   6.691   6.905   5.226  0.4937  0.2109  0.1359
 7725SOL    HW124074   6.633   6.852   5.289  0.4869  0.1945  0.1160
 7725SOL    HW224075   6.675   6.873   5.133  0.0648  0.6380  0.0603
 7726SOL     OW24076   4.028   3.988   6.244  0.0917 -0.2110 -0.5595
 7726SOL    HW124077   3.999   3.894   6.260  1.2952 -0.7421 -1.4118
 7726SOL    HW224078   3.947   4.045   6.227 -0.5265 -1.5522 -2.4110
 7727SOL     OW24079   0.611   2.366   1.717  0.4354 -0.5178 -0.0675
 7727SOL    HW124080   0.556   2.323   1.646 -1.1650  0.2277  0.6553
 7727SOL    HW224081   0.704   2.382   1.683 -0.3696  0.1268 -2.1005
 7728SOL     OW24082   3.317   2.785   6.339  0.0156 -0.4813  0.2627
 7728SOL    HW124083   3.399   2.771   6.394  0.5136 -0.0783 -0.3664
 7728SOL    HW224084   3.261   2.858   6.380  2.2161  2.5587 -1.6938
 7729SOL     OW24085   2.233   1.872   0.726 -0.0576  0.2542 -0.2609
 7729SOL    HW124086   2.171   1.831   0.659  2.0798 -0.5204 -1.8827
 7729SOL    HW224087   2.310   1.811   0.742 -0.3235  0.5751  2.7464
 7730SOL     OW24088   5.710   3.553   5.032  0.8095 -0.0105  0.0660
 7730SOL    HW124089   5.684   3.504   4.949 -0.6625  0.6374  0.0939
 7730SOL    HW224090   5.746   3.489   5.099 -1.3417 -1.1672  0.2237
 7731SOL     OW24091   6.525   6.671   6.882 -0.5110  0.3842  0.0566
 7731SOL    HW124092   6.430   6.695   6.902 -0.8250 -0.7570 -0.0314
 7731SOL    HW224093   6.554   6.595   6.940  0.9275  1.8023  1.3267
 7732SOL     OW24094   4.828   4.550   0.390 -0.8214 -0.1708  0.8017
 7732SOL    HW124095   4.829   4.478   0.459 -0.0765 -0.6255  0.3310
 7732SOL    HW224096   4.832   4.639   0.435  0.2919 -0.4794  1.3389
 7733SOL     OW24097   5.720   5.463   1.291  0.0339 -0.7669  0.1669
 7733SOL    HW124098   5.760   5.415   1.369 -0.0257 -1.0860  0.0035
 7733SOL    HW224099   5.784   5.532   1.258 -0.4769  0.3110  1.3378
 7734SOL     OW24100   0.950   4.727   6.285 -0.5806  0.6201  0.2092
 7734SOL    HW124101   1.028   4.763   6.233 -1.2601  1.2768 -0.3771
 7734SOL    HW224102   0.983   4.660   6.351  0.3097 -0.2680 -1.0864
 7735SOL     OW24103   0.862   5.356   6.088 -0.1116 -0.2471  0.1011
 7735SOL    HW124104   0.784   5.296   6.069 -0.3427  0.2705 -0.6603
 7735SOL    HW224105   0.829   5.443   6.123  0.2944 -1.0019  2.5037
 7736SOL     OW24106   2.263   2.921   0.171 -0.3262 -0.2832  0.2557
 7736SOL    HW124107   2.177   2.872   0.185  0.5176 -2.0409 -0.5178
 7736SOL    HW224108   2.293   2.961   0.258 -1.6719 -0.0306  0.6262
 7737SOL     OW24109   4.688   0.687   3.482  0.5474 -0.1316 -0.3757
 7737SOL    HW124110   4.648   0.715   3.570  3.5891 -0.5751  1.2660
 7737SOL    HW224111   4.663   0.592   3.463  1.2969 -0.6328  0.9705
 7738SOL     OW24112   0.837   5.167   3.045  0.0440 -0.6540 -0.1174
 7738SOL    HW124113   0.769   5.168   3.119  1.0876 -1.2188  0.8661
 7738SOL    HW224114   0.916   5.222   3.072 -0.3270  0.7057 -1.5979
 7739SOL     OW24115   2.780   1.078   2.739 -0.6155 -0.6403 -0.0066
 7739SOL    HW124116   2.819   1.068   2.647 -0.1041 -0.9508  0.2375
 7739SOL    HW224117   2.840   1.134   2.795 -1.5088  0.5456 -0.1889
 7740SOL     OW24118   2.453   2.475   4.270  0.0520  0.0088 -0.1840
 7740SOL    HW124119   2.402   2.550   4.312 -0.1267 -0.5507  0.6138
 7740SOL    HW224120   2.477   2.407   4.340  0.3500 -0.6014 -0.8648
 7741SOL     OW24121   5.913   4.041   4.205 -0.1725 -0.6236 -0.5078
 7741SOL    HW124122   5.971   4.121   4.222  0.4299 -0.9864 -0.8379
 7741SOL    HW224123   5.872   4.012   4.291 -3.3996  2.2663 -0.8809
 7742SOL     OW24124   4.688   1.906   3.425 -0.5527 -0.1608 -0.0019
 7742SOL    HW124125   4.624   1.942   3.358  0.9433  0.0068 -1.4094
 7742SOL    HW224126   4.725   1.982   3.479 -0.1998 -0.0388 -0.4134
 7743SOL     OW24127   5.266   1.100   5.933 -0.1308  0.2311  0.3574
 7743SOL    HW124128   5.280   1.191   5.892  1.7223  0.3714  1.2125
 7743SOL    HW224129   5.326   1.034   5.888 -1.0295 -0.4607  0.1567
 7744SOL     OW24130   6.930   6.458   4.552  0.2952 -0.3888 -0.0243
 7744SOL    HW124131   7.029   6.453   4.536  0.7736 -1.1939  2.7164
 7744SOL    HW224132   6.911   6.528   4.620 -0.9360 -0.8678  0.1444
 7745SOL     OW24133   2.915   6.972   6.628  0.1417 -0.5052  0.1200
 7745SOL    HW124134   2.828   7.017   6.607  0.3787 -0.2158 -0.2532
 7745SOL    HW224135   2.990   7.034   6.605  0.4481 -0.7968  0.3404
 7746SOL     OW24136   0.281   6.911   2.239  0.1802 -0.0266  0.2621
 7746SOL    HW124137   0.249   6.818   2.227 -0.4256  0.3105 -0.8807
 7746SOL    HW224138   0.378   6.917   2.216  0.5233 -0.5867  1.4715
 7747SOL     OW24139   0.223   6.941   1.500 -0.1684  0.1647 -0.5670
 7747SOL    HW124140   0.192   7.029   1.462  1.2355  0.8119 -0.3034
 7747SOL    HW224141   0.193   6.933   1.595 -1.9984 -0.5659 -1.1673
 7748SOL     OW24142   3.797   3.146   4.174 -0.3545 -0.3681  0.0176
 7748SOL    HW124143   3.887   3.160   4.216 -1.0277  0.9255  1.1303
 7748SOL    HW224144   3.793   3.195   4.087 -0.6154  1.3790  0.9488
 7749SOL     OW24145   3.045   3.133   3.885  0.2611  0.0762  0.1544
 7749SOL    HW124146   3.070   3.227   3.861 -0.3782  0.6331  1.5607
 7749SOL    HW224147   2.973   3.102   3.822  0.5743  0.4641 -0.4123
 7750SOL     OW24148   5.568   0.326   1.680 -0.1303 -0.2078 -0.2911
 7750SOL    HW124149   5.483   0.286   1.645  1.0905 -1.8127 -1.5325
 7750SOL    HW224150   5.578   0.304   1.777 -1.5241  0.7634  0.1118
 7751SOL     OW24151   0.960   3.273   3.001  0.2294 -0.1154 -0.3681
 7751SOL    HW124152   1.053   3.281   2.966 -0.4450  1.0157 -2.0565
 7751SOL    HW224153   0.939   3.353   3.058 -0.1908  0.4701 -1.3068
 7752SOL     OW24154   4.144   5.791   6.027 -0.1237 -0.3265 -0.0411
 7752SOL    HW124155   4.128   5.727   5.952  0.2055 -1.1234  0.5422
 7752SOL    HW224156   4.058   5.839   6.049 -0.1900 -0.0060 -0.9858
 7753SOL     OW24157   2.679   0.134   2.732 -0.4748  0.0729 -0.1339
 7753SOL    HW124158   2.655   0.067   2.662  0.5713 -0.0274 -0.4127
 7753SOL    HW224159   2.739   0.203   2.692  1.1608 -0.6624  0.9441
 7754SOL     OW24160   4.269   6.912   1.528  0.0674 -0.0255 -0.4384
 7754SOL    HW124161   4.192   6.971   1.504 -0.0086  0.2345  0.4133
 7754SOL    HW224162   4.349   6.968   1.551 -0.4055 -0.1664  1.7661
 7755SOL     OW24163   1.916   6.349   0.456  0.2883  0.1713  0.2431
 7755SOL    HW124164   1.955   6.440   0.448  0.2291  0.0715 -1.5361
 7755SOL    HW224165   1.831   6.343   0.403  0.1128 -0.8137  0.6051
 7756SOL     OW24166   4.860   4.955   2.124 -0.0827  0.3912 -0.1185
 7756SOL    HW124167   4.937   4.898   2.151 -0.7283 -0.7538 -0.6080
 7756SOL    HW224168   4.778   4.927   2.175 -0.6669  0.0987 -1.1771
 7757SOL     OW24169   4.937   4.080   5.238 -0.0033  0.7187  0.1568
 7757SOL    HW124170   4.909   4.175   5.223 -0.0053  0.7223  0.1820
 7757SOL    HW224171   4.919   4.027   5.155 -0.6148  0.5944  0.3643
 7758SOL     OW24172   2.292   0.630   2.358  0.1749  0.0926 -0.4260
 7758SOL    HW124173   2.296   0.558   2.427 -0.6477  1.0996  0.7227
 7758SOL    HW224174   2.256   0.592   2.273 -3.7073 -0.2454  1.1632
 7759SOL     OW24175   1.322   3.068   4.736  0.4160  0.7537  0.2429
 7759SOL    HW124176   1.351   3.057   4.831  0.5755 -0.1373  0.0975
 7759SOL    HW224177   1.402   3.089   4.680  0.6749 -0.8254 -0.0179
 7760SOL     OW24178   5.158   4.983   1.356  0.3369 -0.7682 -0.1565
 7760SOL    HW124179   5.094   5.054   1.384  0.4994 -0.4488 -0.5828
 7760SOL    HW224180   5.206   5.012   1.273 -0.1977 -1.7320 -0.8209
 7761SOL     OW24181   2.890   6.099   0.228 -0.2955  0.4352  0.4415
 7761SOL    HW124182   2.921   6.139   0.314  3.5265 -1.4159  0.1517
 7761SOL    HW224183   2.836   6.017   0.246 -1.5412  1.3498  1.0083
 7762SOL     OW24184   4.363   6.731   4.796  0.0903 -0.5135  0.1594
 7762SOL    HW124185   4.407   6.819   4.811  1.4820 -1.3828  1.6521
 7762SOL    HW224186   4.283   6.723   4.855 -0.2775 -0.1009 -0.2811
 7763SOL     OW24187   1.330   0.927   0.429  0.1837  0.3017  0.3037
 7763SOL    HW124188   1.249   0.971   0.389 -0.0245 -0.2446  0.1224
 7763SOL    HW224189   1.350   0.969   0.517 -0.4400  0.2791  0.4620
 7764SOL     OW24190   2.895   3.260   3.177 -0.1667  0.0722 -0.1700
 7764SOL    HW124191   2.798   3.250   3.157 -0.2076 -0.0433  0.0866
 7764SOL    HW224192   2.908   3.281   3.274  0.0487  0.3312 -0.2539
 7765SOL     OW24193   0.776   2.012   4.690  0.5689 -0.3939  0.3812
 7765SOL    HW124194   0.871   1.989   4.713  0.1995 -0.2752  2.2576
 7765SOL    HW224195   0.773   2.098   4.639  1.4915 -0.6546 -0.1225
 7766SOL     OW24196   5.668   1.308   0.865  0.0904 -0.1444  0.4490
 7766SOL    HW124197   5.757   1.316   0.820 -1.3939  0.5793 -2.6275
 7766SOL    HW224198   5.611   1.242   0.814 -1.9810  1.3121  0.7545
 7767SOL     OW24199   3.992   0.717   3.675  0.0673  0.2234 -0.0230
 7767SOL    HW124200   3.894   0.698   3.681 -0.0374 -0.0460 -1.9541
 7767SOL    HW224201   4.008   0.815   3.688 -0.7514  0.6659 -1.9934
 7768SOL     OW24202   4.019   4.774   2.559 -0.2255  0.1504  0.3831
 7768SOL    HW124203   4.055   4.829   2.485  0.1298  1.4017  1.4484
 7768SOL    HW224204   4.091   4.758   2.627 -0.0529 -2.4141 -0.3094
 7769SOL     OW24205   5.690   2.967   2.480  0.5373 -0.0116 -0.0148
 7769SOL    HW124206   5.743   3.031   2.535  0.1548  1.0084 -0.8121
 7769SOL    HW224207   5.658   2.892   2.538  2.5259 -0.4794  0.5671
 7770SOL     OW24208   1.608   3.744   2.841 -0.1580 -0.2584  0.5529
 7770SOL    HW124209   1.607   3.674   2.769  0.9760 -1.6236  1.7894
 7770SOL    HW224210   1.517   3.750   2.882 -0.6204 -0.0043 -0.4861
 7771SOL     OW24211   3.114   1.990   5.034  0.1854  0.1296  0.1808
 7771SOL    HW124212   3.122   2.087   5.057  1.2349  0.1291 -0.1201
 7771SOL    HW224213   3.018   1.966   5.026 -0.0984  1.6056 -1.6167
 7772SOL     OW24214   4.652   2.169   5.152  0.0676  0.3938 -0.0479
 7772SOL    HW124215   4.575   2.190   5.091 -0.4173 -2.7304 -0.7303
 7772SOL    HW224216   4.711   2.101   5.109  0.1824 -1.3388  2.5784
 7773SOL     OW24217   2.631   5.449   4.729  0.2308  0.0842 -0.3623
 7773SOL    HW124218   2.540   5.476   4.697  0.2510  0.1264 -0.3837
 7773SOL    HW224219   2.664   5.515   4.797 -0.6739 -1.0901  1.2881
 7774SOL     OW24220   6.556   2.179   5.539 -0.1894  0.3332  0.0786
 7774SOL    HW124221   6.476   2.119   5.532 -0.9827  1.3986 -0.2651
 7774SOL    HW224222   6.625   2.152   5.472 -0.0013 -0.9524  0.7561
 7775SOL     OW24223   3.101   0.314   3.859  0.2220  0.3599 -0.1796
 7775SOL    HW124224   3.025   0.315   3.924  1.0641  1.0637  0.8412
 7775SOL    HW224225   3.070   0.278   3.772 -0.9096 -0.7857  0.6628
 7776SOL     OW24226   1.672   4.404   0.537  0.0092  0.3702  0.1120
 7776SOL    HW124227   1.706   4.413   0.630  0.5159 -1.0330  0.0869
 7776SOL    HW224228   1.749   4.400   0.473 -0.3122  0.5048 -0.2897
 7777SOL     OW24229   0.468   0.637   4.850 -0.1834  0.2896  0.5135
 7777SOL    HW124230   0.466   0.736   4.862  0.7403  0.2475  1.0975
 7777SOL    HW224231   0.399   0.594   4.908 -1.0167  0.6267 -0.2153
 7778SOL     OW24232   5.554   0.226   1.284  0.3461  0.0617 -0.6537
 7778SOL    HW124233   5.482   0.170   1.325 -1.5551  1.5548 -1.7680
 7778SOL    HW224234   5.607   0.269   1.357 -0.8686  0.1040  0.2413
 7779SOL     OW24235   2.242   2.428   1.626 -0.1856 -0.1340  0.4922
 7779SOL    HW124236   2.211   2.458   1.536  0.8631 -1.5235 -0.3667
 7779SOL    HW224237   2.311   2.492   1.661  1.7870 -1.2260 -1.1713
 7780SOL     OW24238   6.816   4.390   4.883  0.2563 -0.3846 -0.5672
 7780SOL    HW124239   6.751   4.314   4.889  0.0322 -0.1612 -0.0664
 7780SOL    HW224240   6.899   4.360   4.836  1.3596 -1.7639  2.0447
 7781SOL     OW24241   6.844   6.848   4.961 -0.6088 -0.1758  0.0168
 7781SOL    HW124242   6.931   6.828   4.917 -0.1345 -0.1910  0.9297
 7781SOL    HW224243   6.815   6.940   4.936 -1.0073 -0.6554 -1.3489
 7782SOL     OW24244   6.427   3.744   3.335 -0.3679 -0.3704  0.0744
 7782SOL    HW124245   6.471   3.719   3.248 -2.1388 -3.5414 -0.0671
 7782SOL    HW224246   6.492   3.731   3.410  0.3966 -0.1493 -0.5392
 7783SOL     OW24247   1.178   6.117   4.395 -0.1963  0.2955 -0.0631
 7783SOL    HW124248   1.172   6.189   4.464  0.8771 -0.6394  1.0453
 7783SOL    HW224249   1.088   6.076   4.382 -0.1010 -0.8169  2.2600
 7784SOL     OW24250   3.110   1.893   0.492 -0.3228  0.4064 -0.1244
 7784SOL    HW124251   3.141   1.910   0.586 -0.2376 -0.6897  0.0581
 7784SOL    HW224252   3.176   1.834   0.445  2.4578  4.9490 -2.6433
 7785SOL     OW24253   3.485   5.865   2.743  0.1576 -0.0483 -0.5338
 7785SOL    HW124254   3.449   5.910   2.661  0.5244  1.2658 -0.0010
 7785SOL    HW224255   3.583   5.847   2.730  0.0221 -0.6460 -0.7259
 7786SOL     OW24256   3.181   5.670   4.136  0.1530  0.3600  0.1573
 7786SOL    HW124257   3.125   5.711   4.208  2.5729  1.0462  1.8111
 7786SOL    HW224258   3.134   5.592   4.097 -2.4140  1.6140  0.5541
 7787SOL     OW24259   3.042   2.787   0.465 -0.8225 -0.2574 -0.2198
 7787SOL    HW124260   3.110   2.715   0.475  0.3595  1.0344  1.6843
 7787SOL    HW224261   3.014   2.793   0.369 -0.4046 -2.6881 -0.5683
 7788SOL     OW24262   2.637   6.923   3.522 -0.2923  0.0495  0.3902
 7788SOL    HW124263   2.647   6.895   3.618 -0.5999 -0.3258  0.3150
 7788SOL    HW224264   2.726   6.914   3.476  0.0690  1.0993  0.8609
 7789SOL     OW24265   3.341   0.155   6.268 -0.5856 -0.4204  0.2494
 7789SOL    HW124266   3.299   0.220   6.331 -1.1272  0.4136 -0.9340
 7789SOL    HW224267   3.333   0.062   6.306 -0.7216  0.0656  1.4733
 7790SOL     OW24268   5.429   2.148   3.586  0.5078 -0.1681 -0.5254
 7790SOL    HW124269   5.513   2.151   3.641 -0.6941  0.1211  1.4124
 7790SOL    HW224270   5.434   2.217   3.514  1.5145  0.6053  0.2372
 7791SOL     OW24271   2.871   6.478   3.261  0.0847 -0.3603 -0.5746
 7791SOL    HW124272   2.879   6.556   3.323 -0.6846  1.0819 -2.2151
 7791SOL    HW224273   2.791   6.424   3.286 -0.3074  0.2876 -0.3971
 7792SOL     OW24274   1.694   4.753   4.027 -0.3965 -0.2280 -0.0982
 7792SOL    HW124275   1.706   4.724   3.932  0.7105 -0.9616  0.2420
 7792SOL    HW224276   1.685   4.852   4.031 -0.1989 -0.1717 -0.9433
 7793SOL     OW24277   4.695   0.961   5.978 -0.1051 -0.7181 -0.4367
 7793SOL    HW124278   4.616   0.966   6.038 -0.4545 -2.3654 -0.7315
 7793SOL    HW224279   4.665   0.960   5.883  0.2103 -1.9978 -0.5375
 7794SOL     OW24280   5.792   5.215   4.338  0.8485  0.0033 -0.0815
 7794SOL    HW124281   5.848   5.298   4.327 -0.1829  0.8311  0.6849
 7794SOL    HW224282   5.846   5.145   4.386  1.6973  0.2510 -0.6389
 7795SOL     OW24283   1.746   3.246   4.539 -0.0986 -0.5102 -0.6467
 7795SOL    HW124284   1.773   3.340   4.518 -0.0699 -0.1189  1.0070
 7795SOL    HW224285   1.821   3.184   4.518  0.7052  0.1112  0.3225
 7796SOL     OW24286   2.941   3.563   2.533 -0.4152 -0.1134  0.2633
 7796SOL    HW124287   2.892   3.595   2.614 -0.4472 -0.9923  0.6056
 7796SOL    HW224288   2.979   3.641   2.484  2.0854  0.3639  2.6899
 7797SOL     OW24289   0.276   6.505   3.405  0.1453 -0.2790 -0.2973
 7797SOL    HW124290   0.351   6.556   3.362 -0.1032 -0.6886 -1.2356
 7797SOL    HW224291   0.256   6.545   3.495  2.1451 -0.7630  0.4120
 7798SOL     OW24292   2.379   4.496   4.860  0.1377 -0.5194  0.4206
 7798SOL    HW124293   2.344   4.407   4.888  0.4812 -1.8626 -2.9406
 7798SOL    HW224294   2.394   4.496   4.761  0.9421  3.0385  0.4142
 7799SOL     OW24295   1.671   6.193   1.044  0.1947  0.2412 -0.6379
 7799SOL    HW124296   1.652   6.230   0.953 -2.1092  1.4477  0.2539
 7799SOL    HW224297   1.660   6.265   1.112 -0.2434 -1.1319  0.7877
 7800SOL     OW24298   2.640   3.861   1.388 -0.4696  0.3006 -0.4323
 7800SOL    HW124299   2.597   3.854   1.298 -1.3832 -2.2522  0.0992
 7800SOL    HW224300   2.708   3.788   1.398  0.7461  1.5159  0.3938
 7801SOL     OW24301   1.842   3.800   1.831 -0.6845  0.2046 -0.2886
 7801SOL    HW124302   1.857   3.815   1.929 -0.3078 -0.0448 -0.3055
 7801SOL    HW224303   1.918   3.838   1.779 -0.1222 -0.9817 -0.3800
 7802SOL     OW24304   6.192   3.648   1.272 -0.3521  0.0912 -0.2290
 7802SOL    HW124305   6.199   3.709   1.351  0.1003  0.7139 -0.7409
 7802SOL    HW224306   6.278   3.649   1.221 -1.4969  1.8718 -2.2881
 7803SOL     OW24307   5.030   2.681   5.474 -0.6084 -0.2115 -0.3752
 7803SOL    HW124308   5.124   2.706   5.500 -0.5323  0.0749 -0.9083
 7803SOL    HW224309   5.018   2.582   5.484  0.0248 -0.3752 -1.1389
 7804SOL     OW24310   5.013   1.569   3.609  0.1216 -0.1002  0.4995
 7804SOL    HW124311   4.930   1.607   3.568  0.6336  1.3054  0.7050
 7804SOL    HW224312   5.093   1.622   3.579  0.8218 -0.7481  1.1555
 7805SOL     OW24313   4.736   0.476   1.188  0.4182  0.0767 -0.0176
 7805SOL    HW124314   4.728   0.376   1.183 -1.3614  0.2346 -1.4608
 7805SOL    HW224315   4.676   0.510   1.260  0.2405  0.1816 -0.2161
 7806SOL     OW24316   4.853   2.767   6.514 -0.2235 -0.3970 -0.4682
 7806SOL    HW124317   4.794   2.699   6.558 -0.0498 -0.7795 -0.8106
 7806SOL    HW224318   4.819   2.786   6.422 -1.1864  1.1782  0.1798
 7807SOL     OW24319   1.077   4.386   0.135 -0.0961  0.2749  0.5125
 7807SOL    HW124320   1.074   4.379   0.035 -1.9621 -0.9928  0.6187
 7807SOL    HW224321   1.089   4.296   0.175 -0.3010  0.6644  1.4775
 7808SOL     OW24322   0.028   2.257   4.873 -0.1506 -0.5186 -0.1407
 7808SOL    HW124323   0.122   2.235   4.898 -0.1238 -0.8657 -0.5272
 7808SOL    HW224324   0.005   2.211   4.787 -0.6067 -0.2730 -0.1543
 7809SOL     OW24325   2.119   3.950   4.056  0.1019 -0.7257 -0.0857
 7809SOL    HW124326   2.042   4.014   4.053  1.3861  0.8593 -1.1182
 7809SOL    HW224327   2.140   3.919   3.963  0.2691 -1.7308  0.2745
 7810SOL     OW24328   3.472   5.933   4.715  0.5248 -0.1129  0.2694
 7810SOL    HW124329   3.519   5.880   4.785  0.9336  0.3397  0.3437
 7810SOL    HW224330   3.414   5.873   4.660 -0.1734 -0.3991  1.3053
 7811SOL     OW24331   6.725   6.035   3.576  0.2080 -0.1085 -1.3099
 7811SOL    HW124332   6.781   5.958   3.607 -0.3150 -0.5941 -1.5565
 7811SOL    HW224333   6.632   6.023   3.610  0.1882  0.5595 -1.1214
 7812SOL     OW24334   0.233   3.780   4.435 -0.1149  0.0484 -0.3193
 7812SOL    HW124335   0.285   3.839   4.373  1.6406 -0.9504  0.1142
 7812SOL    HW224336   0.194   3.704   4.383 -1.5727  1.0217 -0.7169
 7813SOL     OW24337   4.521   3.029   6.749 -0.2704 -0.7769 -0.1742
 7813SOL    HW124338   4.544   3.121   6.717 -0.4981 -0.0901  1.5531
 7813SOL    HW224339   4.586   3.000   6.819 -1.7517 -0.7844  1.2683
 7814SOL     OW24340   0.838   3.623   4.226  0.2750  0.0465 -0.6091
 7814SOL    HW124341   0.814   3.582   4.314  1.8889  0.4115  0.0466
 7814SOL    HW224342   0.818   3.558   4.152  0.5268 -0.9570  0.1885
 7815SOL     OW24343   3.637   6.884   5.728 -0.2563 -0.1719  0.3157
 7815SOL    HW124344   3.718   6.831   5.704 -0.4499 -0.0004 -0.7591
 7815SOL    HW224345   3.558   6.848   5.680 -0.5020  0.7181  0.0260
 7816SOL     OW24346   3.417   2.007   6.638 -0.1564 -0.7952 -0.7623
 7816SOL    HW124347   3.322   2.018   6.667 -0.6538  2.9421 -3.1421
 7816SOL    HW224348   3.473   1.980   6.716 -2.5521  0.9252  1.7305
 7817SOL     OW24349   5.828   6.316   3.434  0.2075 -0.2557  0.0354
 7817SOL    HW124350   5.747   6.332   3.377  0.1110  1.0422  0.5006
 7817SOL    HW224351   5.884   6.398   3.436  0.0719 -0.1660  2.0065
 7818SOL     OW24352   4.743   1.548   3.121  0.3900 -0.4214  0.0174
 7818SOL    HW124353   4.692   1.479   3.071  1.7488 -0.5754 -1.2138
 7818SOL    HW224354   4.813   1.504   3.177  0.3862 -0.1170  0.2655
 7819SOL     OW24355   0.578   2.277   3.313 -0.9195  0.4294  0.1343
 7819SOL    HW124356   0.635   2.309   3.238 -0.0378  1.0744  1.0580
 7819SOL    HW224357   0.636   2.243   3.387 -1.7854 -1.1395  0.1384
 7820SOL     OW24358   2.395   3.564   5.748 -0.4480 -0.1070  0.1322
 7820SOL    HW124359   2.352   3.483   5.789  0.3157 -0.7925 -0.3973
 7820SOL    HW224360   2.351   3.584   5.661  0.4599 -0.9644 -0.5335
 7821SOL     OW24361   4.359   4.764   1.065  0.0336  0.2522 -0.1552
 7821SOL    HW124362   4.393   4.793   1.154 -1.4967  2.3994 -0.1817
 7821SOL    HW224363   4.429   4.711   1.018  0.6310 -1.5832  2.5535
 7822SOL     OW24364   2.726   1.475   0.193  0.4375  0.4878 -0.3572
 7822SOL    HW124365   2.719   1.500   0.290  1.9458 -0.2804 -0.0155
 7822SOL    HW224366   2.657   1.406   0.172 -1.3957  2.2619 -0.4270
 7823SOL     OW24367   2.839   3.157   5.533  0.2992 -0.3216  0.4240
 7823SOL    HW124368   2.774   3.170   5.458  1.2966  1.5854 -0.1996
 7823SOL    HW224369   2.875   3.247   5.560  0.5529 -1.0454  2.6807
 7824SOL     OW24370   5.670   0.524   4.246  0.3248  0.0475  0.4258
 7824SOL    HW124371   5.686   0.599   4.182  1.4640  0.5188  1.2147
 7824SOL    HW224372   5.663   0.561   4.339  1.4653 -0.8619  0.8950
 7825SOL     OW24373   1.132   3.015   2.179  0.6399 -0.2336  0.1901
 7825SOL    HW124374   1.167   3.023   2.272 -0.0357  2.6309  0.2778
 7825SOL    HW224375   1.208   3.024   2.114  1.0096 -1.5385  0.4046
 7826SOL     OW24376   5.691   2.341   0.683  0.1566  0.3404 -0.4357
 7826SOL    HW124377   5.642   2.338   0.770 -0.2345  0.2342 -0.6570
 7826SOL    HW224378   5.757   2.416   0.684 -0.2226  0.6749 -0.2440
 7827SOL     OW24379   2.032   3.594   1.782 -0.5038 -0.0676  0.0135
 7827SOL    HW124380   1.967   3.660   1.819 -1.3790 -1.1324  0.4558
 7827SOL    HW224381   2.065   3.535   1.855  1.5976  0.9333 -0.0672
 7828SOL     OW24382   2.671   5.733   6.715 -0.2310 -0.1266  0.2284
 7828SOL    HW124383   2.696   5.670   6.788 -0.9019 -0.8888 -0.1878
 7828SOL    HW224384   2.752   5.753   6.659 -0.2802 -1.7121 -0.4518
 7829SOL     OW24385   1.032   3.237   2.454 -0.3213  0.5280  0.6663
 7829SOL    HW124386   1.105   3.232   2.522  0.2409 -0.4016  0.0266
 7829SOL    HW224387   1.066   3.284   2.372 -0.7172  0.8685  0.6953
 7830SOL     OW24388   2.803   4.738   5.346  0.2053  0.4370  0.1531
 7830SOL    HW124389   2.810   4.660   5.284  0.4247  0.7661 -0.2386
 7830SOL    HW224390   2.803   4.704   5.441  0.6606 -0.0208 -0.0012
 7831SOL     OW24391   0.936   0.813   1.442  0.2454 -0.5381  0.2091
 7831SOL    HW124392   1.033   0.807   1.467  0.2753  0.6882  0.4592
 7831SOL    HW224393   0.884   0.747   1.496  1.1717 -2.6980 -1.3924
 7832SOL     OW24394   0.349   0.932   4.320 -0.2465  0.2590 -0.0600
 7832SOL    HW124395   0.396   0.936   4.231 -1.5281  2.3732 -0.6953
 7832SOL    HW224396   0.279   0.860   4.317  0.7460 -0.7414 -0.1838
 7833SOL     OW24397   2.185   0.300   0.110  0.1076  0.5391  0.1119
 7833SOL    HW124398   2.117   0.270   0.043 -1.4977 -1.1655  2.3530
 7833SOL    HW224399   2.247   0.365   0.067 -2.3936  1.5333 -2.3029
 7834SOL     OW24400   1.541   6.978   4.629 -0.0617  0.0176 -0.2942
 7834SOL    HW124401   1.577   7.056   4.578  1.8146 -0.8303 -0.3896
 7834SOL    HW224402   1.463   7.006   4.684 -0.3956  1.5844 -1.5086
 7835SOL     OW24403   2.662   3.538   5.643  0.1363 -0.0631 -0.2042
 7835SOL    HW124404   2.602   3.589   5.705  1.8860  2.1110 -0.1656
 7835SOL    HW224405   2.740   3.504   5.695  1.3236  1.2784 -1.0399
 7836SOL     OW24406   3.606   3.537   4.066 -0.0168  0.1761  0.7990
 7836SOL    HW124407   3.664   3.493   3.997 -0.6473  0.6074 -0.0170
 7836SOL    HW224408   3.548   3.468   4.108  0.5110 -0.1237  1.0505
 7837SOL     OW24409   5.104   6.755   2.348  0.4864  0.2049 -0.4345
 7837SOL    HW124410   5.010   6.788   2.354  0.1292 -0.2686 -2.5487
 7837SOL    HW224411   5.166   6.824   2.386 -0.6456  0.8231  0.3497
 7838SOL     OW24412   5.284   6.550   1.214  0.0893  0.5064  0.1781
 7838SOL    HW124413   5.295   6.632   1.270  1.9717  0.0316  0.5608
 7838SOL    HW224414   5.353   6.483   1.239 -1.3486 -1.1725 -0.2135
 7839SOL     OW24415   4.750   4.883   5.725 -0.0147  0.1429  0.0205
 7839SOL    HW124416   4.744   4.801   5.668  0.9712 -0.5592  0.8775
 7839SOL    HW224417   4.682   4.949   5.696 -1.0569 -1.1110 -0.4896
 7840SOL     OW24418   6.651   1.809   4.954  0.3229 -0.3836 -0.3153
 7840SOL    HW124419   6.732   1.752   4.945  0.5154 -0.2096  0.2727
 7840SOL    HW224420   6.673   1.891   5.006  0.0344  0.2166 -1.1179
 7841SOL     OW24421   5.010   2.905   6.160 -0.2464 -0.2089  0.0061
 7841SOL    HW124422   5.016   2.870   6.067 -2.0694 -0.6490  0.0070
 7841SOL    HW224423   5.077   2.858   6.218  0.8847  0.0570 -1.0700
 7842SOL     OW24424   2.329   2.724   4.275 -0.5027  0.0592 -0.0055
 7842SOL    HW124425   2.246   2.779   4.271  0.5731  1.6886 -0.7845
 7842SOL    HW224426   2.388   2.746   4.198  0.4861 -1.3939  0.2818
 7843SOL     OW24427   0.598   6.636   4.439 -0.3161 -0.1501 -0.2309
 7843SOL    HW124428   0.544   6.553   4.428 -1.0357  0.3723 -0.8583
 7843SOL    HW224429   0.566   6.686   4.519  0.0589 -0.4426  0.0976
 7844SOL     OW24430   4.292   1.091   3.557  0.0983 -0.0180 -0.5065
 7844SOL    HW124431   4.370   1.031   3.576 -0.2534 -1.1054 -2.2420
 7844SOL    HW224432   4.297   1.125   3.463 -2.2056 -1.2827 -1.1799
 7845SOL     OW24433   4.945   1.051   3.660 -0.1223 -0.5273  0.8470
 7845SOL    HW124434   4.936   1.150   3.647 -3.3349 -0.8595 -0.4173
 7845SOL    HW224435   4.979   1.010   3.576  1.1448 -0.5488  1.3503
 7846SOL     OW24436   6.960   2.748   2.350 -0.0574  0.2497 -0.2349
 7846SOL    HW124437   6.953   2.710   2.442  1.2959  1.8563  0.5810
 7846SOL    HW224438   7.014   2.685   2.293  0.3937 -0.0540  0.5053
 7847SOL     OW24439   6.166   1.718   4.310  0.2062 -0.0506  0.2048
 7847SOL    HW124440   6.177   1.645   4.243 -1.6116 -1.0641  0.9370
 7847SOL    HW224441   6.091   1.695   4.372  2.2942  0.4453  3.1153
 7848SOL     OW24442   3.779   2.287   0.467 -0.3493 -0.2293 -0.4293
 7848SOL    HW124443   3.844   2.277   0.391  0.4513  0.0124  0.2075
 7848SOL    HW224444   3.787   2.379   0.506 -0.0314 -0.6626  0.5771
 7849SOL     OW24445   6.400   3.456   2.983 -0.1548 -0.3940  0.0010
 7849SOL    HW124446   6.350   3.415   3.059  0.7063  0.0037  0.8097
 7849SOL    HW224447   6.464   3.524   3.019  0.0071  0.0626 -1.1207
 7850SOL     OW24448   6.935   1.664   5.493 -0.6176  1.1055 -0.6396
 7850SOL    HW124449   6.876   1.586   5.515  1.0512  0.0365  0.2179
 7850SOL    HW224450   7.012   1.667   5.557 -0.6945  3.5667 -0.5628
 7851SOL     OW24451   6.117   1.657   0.292  0.0418  0.3231  0.2575
 7851SOL    HW124452   6.031   1.639   0.244 -0.0599  0.1348  0.5135
 7851SOL    HW224453   6.130   1.590   0.364 -0.1537  1.0242  0.9608
 7852SOL     OW24454   2.517   1.958   0.886  0.8444  0.5848 -0.7136
 7852SOL    HW124455   2.511   1.908   0.800 -1.0845  2.2393 -1.6351
 7852SOL    HW224456   2.588   2.028   0.880  2.0528 -0.5518 -0.1999
 7853SOL     OW24457   6.176   2.103   1.106  0.7485 -0.1532  0.2104
 7853SOL    HW124458   6.267   2.085   1.068  1.0344  0.1783  0.7196
 7853SOL    HW224459   6.147   2.027   1.163  0.2634 -0.7082 -0.7604
 7854SOL     OW24460   3.000   3.164   1.436 -0.0634  1.0384  0.0422
 7854SOL    HW124461   2.956   3.135   1.350 -0.2517 -1.0674  0.7924
 7854SOL    HW224462   3.099   3.165   1.424  0.0118 -0.8696  0.2068
 7855SOL     OW24463   6.603   1.025   4.567 -0.4991  0.4764 -0.6599
 7855SOL    HW124464   6.590   0.945   4.509  0.5850  0.6247 -1.1269
 7855SOL    HW224465   6.580   1.107   4.516 -3.1077  0.4253  0.2855
 7856SOL     OW24466   0.411   6.744   5.783  0.0493  0.4439 -0.0698
 7856SOL    HW124467   0.318   6.728   5.815 -0.2911 -1.0080 -1.6863
 7856SOL    HW224468   0.412   6.824   5.723  0.5763  2.7636  2.7492
 7857SOL     OW24469   6.458   3.187   0.118  0.0749  0.4484 -0.0201
 7857SOL    HW124470   6.364   3.153   0.112  0.4067 -0.3416 -1.2654
 7857SOL    HW224471   6.464   3.277   0.073 -0.1979  0.7887  0.6113
 7858SOL     OW24472   7.015   6.230   5.233  0.0130  0.1217  0.4580
 7858SOL    HW124473   7.021   6.262   5.139 -0.1573  1.8978  1.0133
 7858SOL    HW224474   7.106   6.229   5.274 -0.0552  0.5019  0.6241
 7859SOL     OW24475   3.739   3.192   6.703  0.4961 -0.0739  0.0640
 7859SOL    HW124476   3.702   3.099   6.694 -1.1776  0.6737 -1.1370
 7859SOL    HW224477   3.718   3.227   6.794  1.0713 -0.8192  0.5015
 7860SOL     OW24478   3.924   1.328   1.608 -0.3988  0.1872 -0.1665
 7860SOL    HW124479   3.879   1.242   1.585 -0.9518  0.5560 -0.4662
 7860SOL    HW224480   3.855   1.397   1.631  0.0621 -0.0521  2.2929
 7861SOL     OW24481   3.973   3.309   6.403  0.3234  0.1230 -0.1742
 7861SOL    HW124482   3.976   3.247   6.324 -0.0534  0.6499 -0.6149
 7861SOL    HW224483   4.021   3.394   6.380  0.8420 -0.0054  0.4252
 7862SOL     OW24484   1.605   3.195   1.383  0.1035 -0.0777 -0.4891
 7862SOL    HW124485   1.511   3.229   1.382  0.0247 -0.2574  0.2548
 7862SOL    HW224486   1.655   3.239   1.457  0.5825 -0.0435 -0.8332
 7863SOL     OW24487   6.225   4.087   3.779 -0.4864 -0.5781 -0.1250
 7863SOL    HW124488   6.315   4.048   3.798  0.5154  0.7256 -1.9204
 7863SOL    HW224489   6.206   4.081   3.680 -1.4104  1.1364 -0.0858
 7864SOL     OW24490   6.591   0.140   5.215 -0.2670  0.0222  0.0040
 7864SOL    HW124491   6.620   0.050   5.182  0.7562  0.2733  0.2031
 7864SOL    HW224492   6.658   0.175   5.280 -0.8710  0.7558  0.2433
 7865SOL     OW24493   5.787   6.068   4.347 -0.1787  0.1056 -0.2690
 7865SOL    HW124494   5.885   6.077   4.331  0.0825  0.6720  1.4854
 7865SOL    HW224495   5.746   6.159   4.348 -0.8978 -0.1624 -1.7851
 7866SOL     OW24496   1.908   2.417   0.555  0.2253 -0.3878  0.5621
 7866SOL    HW124497   1.894   2.486   0.627  1.1043  0.5593 -0.1487
 7866SOL    HW224498   2.004   2.420   0.525  0.1872 -1.7011  0.2830
 7867SOL     OW24499   5.737   7.006   3.460 -0.7409  0.1362 -0.0551
 7867SOL    HW124500   5.716   7.080   3.524 -1.2238  0.0194 -0.0734
 7867SOL    HW224501   5.836   7.003   3.443 -0.3742 -0.9110  1.9988
 7868SOL     OW24502   5.289   0.578   2.130 -0.2890  0.2497 -0.0487
 7868SOL    HW124503   5.309   0.507   2.063 -0.5528  0.4143 -0.2997
 7868SOL    HW224504   5.318   0.667   2.095  1.6479  0.0853  0.9440
 7869SOL     OW24505   4.110   3.453   5.366  0.6136 -0.1717  0.6239
 7869SOL    HW124506   4.167   3.378   5.334  1.2575  0.6135 -0.1147
 7869SOL    HW224507   4.022   3.417   5.398 -0.2128 -1.0367 -2.3156
 7870SOL     OW24508   5.092   6.559   3.170 -0.3086 -0.2130  0.3683
 7870SOL    HW124509   5.061   6.618   3.095 -1.0099 -1.3170 -0.2275
 7870SOL    HW224510   5.088   6.610   3.256 -1.1090  0.5393 -0.1035
 7871SOL     OW24511   5.926   1.681   4.438  0.2706 -0.2211 -0.4217
 7871SOL    HW124512   5.832   1.694   4.405  0.3731  0.1601 -0.5741
 7871SOL    HW224513   5.937   1.728   4.526  1.8846  5.0708 -2.9948
 7872SOL     OW24514   2.603   4.572   1.837  0.0374  0.4326  0.2592
 7872SOL    HW124515   2.634   4.535   1.750  1.4623  0.5893  0.6629
 7872SOL    HW224516   2.683   4.600   1.891 -0.8054  0.1732  1.6850
 7873SOL     OW24517   5.458   6.663   0.871 -0.1031 -0.4720 -0.4030
 7873SOL    HW124518   5.472   6.565   0.883  0.2949 -0.3601  0.0707
 7873SOL    HW224519   5.451   6.707   0.960 -2.3740 -0.3406 -0.5716
 7874SOL     OW24520   5.345   2.594   0.762 -0.0854 -0.1761  0.5021
 7874SOL    HW124521   5.440   2.599   0.795 -0.3772 -1.4558  1.6642
 7874SOL    HW224522   5.284   2.636   0.829 -0.1980  2.8508 -1.3358
 7875SOL     OW24523   6.847   3.209   4.515  0.7405  0.0226  0.2080
 7875SOL    HW124524   6.777   3.171   4.454  1.9485 -0.5324 -0.8681
 7875SOL    HW224525   6.853   3.307   4.501 -1.2573  0.4471  1.8298
 7876SOL     OW24526   0.509   4.515   4.204  0.5333 -0.7578 -0.0136
 7876SOL    HW124527   0.531   4.503   4.301 -1.3890 -0.0534  0.5621
 7876SOL    HW224528   0.410   4.528   4.194  0.3188 -3.1948 -2.3028
 7877SOL     OW24529   0.562   1.692   1.883  0.2852  0.2334 -0.3769
 7877SOL    HW124530   0.565   1.743   1.969 -0.2833 -0.0883 -0.1542
 7877SOL    HW224531   0.466   1.680   1.856  0.2927 -2.0144  0.3837
 7878SOL     OW24532   5.219   3.258   4.384 -0.0515  0.5254  0.3668
 7878SOL    HW124533   5.182   3.190   4.448 -0.7560  1.7026  1.2583
 7878SOL    HW224534   5.145   3.295   4.328  0.1967  1.0636  0.3887
 7879SOL     OW24535   5.237   6.215   4.154 -0.2244 -0.3428  0.2490
 7879SOL    HW124536   5.156   6.273   4.159 -0.6694 -0.9792  0.6036
 7879SOL    HW224537   5.250   6.167   4.242  0.1973 -0.6917  0.0038
 7880SOL     OW24538   6.806   3.071   0.489  0.1352  0.4288 -0.2639
 7880SOL    HW124539   6.760   3.025   0.566 -1.3969 -0.6257 -1.7302
 7880SOL    HW224540   6.902   3.088   0.513  0.0744 -1.1599  1.3611
 7881SOL     OW24541   4.019   5.428   4.597 -0.1897  0.0753 -0.5487
 7881SOL    HW124542   4.058   5.359   4.535  1.2634  0.8549 -0.5498
 7881SOL    HW224543   3.992   5.509   4.544 -3.0138 -0.8777 -0.7226
 7882SOL     OW24544   1.382   1.439   2.098 -0.4877 -0.3022 -0.4642
 7882SOL    HW124545   1.349   1.491   2.020 -0.7125 -1.6139 -1.2776
 7882SOL    HW224546   1.346   1.479   2.182 -0.5375  0.9164 -1.0368
 7883SOL     OW24547   0.023   0.226   0.222 -0.0307 -0.0075  0.5099
 7883SOL    HW124548   0.019   0.294   0.149  0.3269 -0.1093  0.3919
 7883SOL    HW224549   0.117   0.218   0.254  0.0729 -1.0247 -0.0204
 7884SOL     OW24550   1.471   4.341   5.535 -0.7430  0.3347  0.3898
 7884SOL    HW124551   1.472   4.410   5.607  1.0395  1.0008 -0.2162
 7884SOL    HW224552   1.539   4.270   5.555  0.0201  0.7119 -0.7754
 7885SOL     OW24553   5.007   5.895   0.968  0.2795 -0.3897 -0.7211
 7885SOL    HW124554   5.093   5.921   1.012 -0.6407 -0.2483  1.1027
 7885SOL    HW224555   4.989   5.798   0.986 -0.0490 -0.3631 -0.9024
 7886SOL     OW24556   3.726   5.711   6.410  0.0734  0.6710 -0.5170
 7886SOL    HW124557   3.750   5.672   6.321  1.8281 -0.1604  0.2566
 7886SOL    HW224558   3.771   5.658   6.482 -3.0738 -0.0770  1.0519
 7887SOL     OW24559   3.223   3.367   5.195 -0.4976  0.2780 -0.1016
 7887SOL    HW124560   3.182   3.458   5.186 -1.7544 -0.3906 -1.6150
 7887SOL    HW224561   3.167   3.311   5.257 -0.1963  0.2709  0.1677
 7888SOL     OW24562   0.521   1.499   5.702  0.2302  0.4030  0.2630
 7888SOL    HW124563   0.474   1.579   5.740 -1.9846 -0.6804 -0.0276
 7888SOL    HW224564   0.525   1.507   5.602  0.3615  0.3289  0.2628
 7889SOL     OW24565   0.687   4.335   1.533 -0.0468 -0.3312  0.4989
 7889SOL    HW124566   0.733   4.247   1.534  1.1337  0.2279 -0.8073
 7889SOL    HW224567   0.752   4.406   1.506 -1.8546  0.3535 -2.5603
 7890SOL     OW24568   1.213   2.471   3.607  0.2436 -0.0011  0.3424
 7890SOL    HW124569   1.276   2.521   3.547 -0.5005 -0.1454 -0.5756
 7890SOL    HW224570   1.192   2.527   3.688 -0.5439  1.1848 -0.6456
 7891SOL     OW24571   6.783   4.624   5.037  0.2910 -0.3578  0.0455
 7891SOL    HW124572   6.763   4.610   5.134  1.3638 -0.0936  0.3217
 7891SOL    HW224573   6.780   4.536   4.989 -0.6967 -0.4311  0.2105
 7892SOL     OW24574   1.800   1.703   4.545  0.0140  0.7239  0.9998
 7892SOL    HW124575   1.849   1.787   4.520 -0.0869  0.4725 -0.1302
 7892SOL    HW224576   1.739   1.721   4.621 -0.7732  1.9542  0.1162
 7893SOL     OW24577   5.633   0.224   2.774 -0.3055  0.3679 -0.5766
 7893SOL    HW124578   5.676   0.309   2.743 -0.6545  0.4147 -0.9360
 7893SOL    HW224579   5.616   0.164   2.696  1.4287 -0.7443 -0.1611
 7894SOL     OW24580   3.482   6.379   5.857  0.0939 -0.1672  0.2330
 7894SOL    HW124581   3.530   6.465   5.868  0.7153 -0.2010 -1.8144
 7894SOL    HW224582   3.530   6.307   5.909  1.5275  0.0740 -0.6875
 7895SOL     OW24583   6.334   0.754   4.705  0.1658  0.0233  0.4197
 7895SOL    HW124584   6.434   0.745   4.705  0.2061  0.2047  1.8897
 7895SOL    HW224585   6.293   0.668   4.673  0.7922  0.1761 -0.8331
 7896SOL     OW24586   4.982   3.689   6.963 -0.7094  0.4236  0.6434
 7896SOL    HW124587   4.952   3.631   7.039 -0.1501  0.1255  0.6446
 7896SOL    HW224588   4.941   3.779   6.971  1.6347  1.3957  2.9813
 7897SOL     OW24589   1.101   4.114   6.019  0.3225 -0.2858  0.4362
 7897SOL    HW124590   1.040   4.069   5.954  0.6671  1.0750 -0.8908
 7897SOL    HW224591   1.048   4.176   6.077  0.2663 -0.0773  0.1630
 7898SOL     OW24592   4.754   2.181   2.072 -0.0400 -0.6197 -0.3048
 7898SOL    HW124593   4.742   2.179   1.973 -0.3610  2.1435 -0.4077
 7898SOL    HW224594   4.832   2.240   2.095 -0.5821 -0.4208  1.1147
 7899SOL     OW24595   6.245   0.764   1.319  0.3163 -0.0248  0.6027
 7899SOL    HW124596   6.298   0.715   1.388  2.4896  0.6058 -0.5261
 7899SOL    HW224597   6.168   0.811   1.363  1.9845  0.8833  2.7179
 7900SOL     OW24598   1.704   5.429   1.527  0.3651 -0.8712 -0.1373
 7900SOL    HW124599   1.705   5.454   1.430  1.8752 -0.7499 -0.1108
 7900SOL    HW224600   1.751   5.499   1.580 -4.0443  1.3181  1.3570
 7901SOL     OW24601   5.892   1.535   0.153 -0.0714  0.4979 -0.1194
 7901SOL    HW124602   5.877   1.437   0.163  0.5884  0.3133 -0.8390
 7901SOL    HW224603   5.807   1.584   0.174 -0.9648 -0.3439 -1.5952
 7902SOL     OW24604   5.944   0.290   3.738 -0.0631  0.9875 -0.0944
 7902SOL    HW124605   5.934   0.302   3.837  2.6968  1.2970  0.2403
 7902SOL    HW224606   5.945   0.193   3.717 -1.6253  0.9253  0.0177
 7903SOL     OW24607   0.917   1.117   6.697  0.1582  0.5353 -0.2363
 7903SOL    HW124608   0.951   1.037   6.746 -1.3198 -0.0166 -0.0626
 7903SOL    HW224609   0.842   1.158   6.748 -2.3842 -0.8565 -2.5634
 7904SOL     OW24610   4.340   6.798   3.978 -0.2033 -0.0574 -0.1940
 7904SOL    HW124611   4.299   6.747   3.903  0.3585 -1.3742  0.3780
 7904SOL    HW224612   4.272   6.810   4.052  0.2615 -1.8771  0.5780
 7905SOL     OW24613   5.347   3.157   0.357 -0.1003 -0.0428 -0.7566
 7905SOL    HW124614   5.414   3.084   0.345 -1.3222 -1.1583 -0.8650
 7905SOL    HW224615   5.349   3.188   0.452 -1.8157 -2.4927  0.1714
 7906SOL     OW24616   0.181   5.092   0.006  0.7817  0.0002  0.0723
 7906SOL    HW124617   0.126   5.012  -0.018  1.3372 -0.8704  1.5875
 7906SOL    HW224618   0.130   5.175  -0.016 -0.0058 -0.7579 -1.0784
 7907SOL     OW24619   6.215   2.533   4.307 -0.2718 -0.0083 -0.0355
 7907SOL    HW124620   6.195   2.565   4.215 -0.2547  0.1774  0.0245
 7907SOL    HW224621   6.296   2.475   4.305 -0.3370 -0.0950 -0.1538
 7908SOL     OW24622   0.836   3.504   5.835  0.2693  0.3770 -0.2542
 7908SOL    HW124623   0.893   3.505   5.753  1.1621 -1.1315  0.3131
 7908SOL    HW224624   0.756   3.446   5.821 -0.4825  1.4699 -0.6101
 7909SOL     OW24625   4.974   5.037   4.166  0.7097 -0.0558 -0.2557
 7909SOL    HW124626   4.946   5.090   4.086  0.6417 -0.3845 -0.4489
 7909SOL    HW224627   5.011   5.099   4.235 -2.6567  0.7517  1.0264
 7910SOL     OW24628   1.416   3.993   0.237 -0.1636  0.4633  0.7445
 7910SOL    HW124629   1.495   3.934   0.254 -0.0445 -0.0089 -1.1789
 7910SOL    HW224630   1.442   4.088   0.254  1.0973  0.3915 -0.5243
 7911SOL     OW24631   0.631   3.355   6.277 -0.1848  0.3501  0.2118
 7911SOL    HW124632   0.686   3.390   6.352 -1.7880 -0.0107  1.6241
 7911SOL    HW224633   0.689   3.337   6.198  1.6602  0.1144  1.5674
 7912SOL     OW24634   5.752   3.929   6.780  0.1700 -0.9647  0.5292
 7912SOL    HW124635   5.718   3.992   6.710  3.2114 -1.1299 -1.2800
 7912SOL    HW224636   5.676   3.900   6.839 -2.0137  1.3484 -0.9386
 7913SOL     OW24637   0.913   4.534   1.250 -0.1922 -0.4532 -0.0711
 7913SOL    HW124638   0.907   4.487   1.338  0.2993  0.2443  0.3437
 7913SOL    HW224639   0.876   4.627   1.259 -0.4679 -0.5007 -0.6909
 7914SOL     OW24640   6.474   5.382   6.962 -0.2519 -0.2419  0.1503
 7914SOL    HW124641   6.420   5.342   6.888 -2.0267 -1.5819  2.0550
 7914SOL    HW224642   6.420   5.452   7.009  0.7179  0.3437  0.4265
 7915SOL     OW24643   6.140   1.375   3.264  0.4006 -0.0514  0.0324
 7915SOL    HW124644   6.046   1.384   3.298 -0.0005 -1.7036 -0.5552
 7915SOL    HW224645   6.202   1.357   3.341 -0.1439 -1.4031  0.1793
 7916SOL     OW24646   6.761   4.469   6.088 -0.4960  0.0701 -0.1225
 7916SOL    HW124647   6.758   4.395   6.155  1.1549 -0.5104 -0.6429
 7916SOL    HW224648   6.761   4.431   5.996  0.6179  0.6608 -0.3938
 7917SOL     OW24649   3.745   4.011   3.962  0.2906 -0.0934  0.4262
 7917SOL    HW124650   3.825   4.008   4.021  2.1089  1.7250 -1.7847
 7917SOL    HW224651   3.771   3.989   3.868 -1.5449  1.6600 -0.5725
 7918SOL     OW24652   1.417   2.985   1.008  0.1882  0.1207  0.3257
 7918SOL    HW124653   1.409   3.076   0.966 -0.3343 -0.1732 -0.2131
 7918SOL    HW224654   1.331   2.961   1.052  0.5989  0.2428  1.2110
 7919SOL     OW24655   0.915   5.778   2.611 -0.0147  0.3851  0.0455
 7919SOL    HW124656   0.922   5.825   2.523 -2.5616 -0.5299 -0.7316
 7919SOL    HW224657   0.921   5.845   2.685 -2.0291  1.7955 -0.9830
 7920SOL     OW24658   6.997   6.246   6.849 -0.5295 -0.1857 -0.1625
 7920SOL    HW124659   7.004   6.313   6.775 -1.8079  0.7003  0.4780
 7920SOL    HW224660   7.018   6.291   6.937  1.9794 -1.4562 -0.0428
 7921SOL     OW24661   4.181   4.995   5.795  1.1330  0.8368  0.1734
 7921SOL    HW124662   4.168   5.008   5.893  0.3786  0.3165  0.1502
 7921SOL    HW224663   4.225   4.907   5.779 -1.4542 -0.5271 -0.0637
 7922SOL     OW24664   0.454   6.364   6.820 -0.0730  0.0821  0.7534
 7922SOL    HW124665   0.418   6.305   6.749  0.6092  0.6132 -0.0570
 7922SOL    HW224666   0.535   6.412   6.786 -0.2625  1.0332  1.5782
 7923SOL     OW24667   4.001   0.100   2.548  0.1442 -0.1644  0.0404
 7923SOL    HW124668   4.036   0.173   2.607 -0.4487  0.1984 -0.0454
 7923SOL    HW224669   3.912   0.128   2.510  0.8775 -0.0313 -1.6890
 7924SOL     OW24670   3.952   0.102   2.177 -0.1776 -0.1289 -0.0427
 7924SOL    HW124671   3.883   0.152   2.229  1.0063  0.4206  1.0868
 7924SOL    HW224672   4.032   0.085   2.235  1.2710  0.6059 -1.7003
 7925SOL     OW24673   1.451   2.703   0.701 -0.1181  0.5335 -0.4409
 7925SOL    HW124674   1.527   2.744   0.752  1.3680 -0.5166 -1.7070
 7925SOL    HW224675   1.456   2.733   0.606  0.4755 -1.7980 -1.1943
 7926SOL     OW24676   6.489   1.280   5.554  0.1238  0.0733 -0.3547
 7926SOL    HW124677   6.412   1.298   5.493  0.1372 -0.0376 -0.4050
 7926SOL    HW224678   6.505   1.360   5.612  0.4459  0.3777 -0.8555
 7927SOL     OW24679   2.905   0.126   5.076  0.3073  0.0898  0.0388
 7927SOL    HW124680   2.899   0.202   5.140  0.7522  0.3707 -0.2430
 7927SOL    HW224681   2.991   0.133   5.024  0.2656 -0.4981 -0.1191
 7928SOL     OW24682   2.960   2.292   4.575  0.1475 -0.0622 -0.2748
 7928SOL    HW124683   3.047   2.247   4.554 -0.3351 -1.4637  0.6483
 7928SOL    HW224684   2.962   2.326   4.669  1.1514  3.4873 -1.4008
 7929SOL     OW24685   3.134   3.635   5.501  0.6383  0.1562  0.6351
 7929SOL    HW124686   3.078   3.713   5.527  2.2583  0.7822  2.5089
 7929SOL    HW224687   3.159   3.643   5.404 -2.2568 -0.0827 -0.2458
 7930SOL     OW24688   2.972   0.698   5.524 -0.0778  0.1004 -0.2836
 7930SOL    HW124689   3.034   0.632   5.567 -0.7640  0.3401  1.1218
 7930SOL    HW224690   2.972   0.683   5.425  1.2009 -0.7692 -0.1778
 7931SOL     OW24691   0.189   1.861   6.042 -0.2418  0.0250  0.8114
 7931SOL    HW124692   0.285   1.868   6.068 -0.0413 -1.0189  0.3950
 7931SOL    HW224693   0.182   1.855   5.942 -0.7602  0.4498  0.8207
 7932SOL     OW24694   2.965   6.905   6.900  0.2942 -0.5257  0.5118
 7932SOL    HW124695   2.938   6.930   6.807  2.3269  1.0906  0.2705
 7932SOL    HW224696   2.888   6.864   6.948 -1.0050 -0.7276 -1.6460
 7933SOL     OW24697   5.510   6.396   1.282  0.2526  0.1696  0.4257
 7933SOL    HW124698   5.523   6.429   1.375  0.4795 -0.7549  0.7346
 7933SOL    HW224699   5.522   6.296   1.280 -2.3475 -0.2052 -0.1047
 7934SOL     OW24700   2.441   4.423   2.011 -0.3894 -0.3373 -0.6246
 7934SOL    HW124701   2.450   4.427   2.111 -1.1461  0.6815 -0.5798
 7934SOL    HW224702   2.510   4.482   1.969 -0.4764 -0.2666 -0.6697
 7935SOL     OW24703   4.244   0.165   0.425 -0.3059  1.1075  0.6761
 7935SOL    HW124704   4.317   0.158   0.493  1.0428 -0.5908 -0.8391
 7935SOL    HW224705   4.186   0.084   0.429  0.1891  0.6673 -0.6040
 7936SOL     OW24706   2.092   5.360   1.421  0.3424 -0.5415 -0.0496
 7936SOL    HW124707   2.113   5.365   1.519 -3.4208 -0.3473  0.8783
 7936SOL    HW224708   2.088   5.452   1.384 -2.7752 -0.1989  0.8546
 7937SOL     OW24709   0.054   5.210   4.958  0.0734  0.1796  0.7457
 7937SOL    HW124710  -0.045   5.217   4.971  0.1636  0.2483  1.4416
 7937SOL    HW224711   0.096   5.180   5.043  0.8591  2.0347  1.0543
 7938SOL     OW24712   6.247   6.731   4.007 -0.0409  0.5629 -0.2532
 7938SOL    HW124713   6.303   6.704   4.085  2.1407  0.8503 -1.6437
 7938SOL    HW224714   6.163   6.676   4.006  1.6058 -2.1597  0.2123
 7939SOL     OW24715   1.129   4.028   0.492  0.2873  0.0374 -0.1926
 7939SOL    HW124716   1.038   4.025   0.534 -0.1158 -1.4427 -1.0873
 7939SOL    HW224717   1.188   3.960   0.536  0.5351  0.0421 -0.5173
 7940SOL     OW24718   1.796   3.612   2.375  0.8747  0.3489 -0.0374
 7940SOL    HW124719   1.877   3.557   2.359  1.4092  1.2605 -0.5315
 7940SOL    HW224720   1.744   3.621   2.290  0.8249  0.6552  0.0226
 7941SOL     OW24721   1.608   6.771   6.876  0.2761  0.0292 -0.0434
 7941SOL    HW124722   1.618   6.816   6.965 -0.3573 -0.2116  0.1534
 7941SOL    HW224723   1.551   6.689   6.886 -0.3473  0.3623 -0.7901
 7942SOL     OW24724   5.523   1.972   2.923  0.0265  0.2778  0.0587
 7942SOL    HW124725   5.444   2.032   2.908 -1.0307 -0.3930  2.5441
 7942SOL    HW224726   5.492   1.884   2.958  1.8284 -0.3766  0.0917
 7943SOL     OW24727   6.118   4.538   1.528  0.4097 -0.6137  0.2761
 7943SOL    HW124728   6.173   4.454   1.526  1.3230 -0.0328 -0.4646
 7943SOL    HW224729   6.021   4.515   1.526  0.6408 -1.6606  0.6550
 7944SOL     OW24730   0.353   3.431   2.251 -0.0187 -0.3066 -0.1362
 7944SOL    HW124731   0.364   3.519   2.203  2.0593 -0.1265  0.5974
 7944SOL    HW224732   0.265   3.431   2.298  0.1164  1.5849  0.2115
 7945SOL     OW24733   5.651   6.579   2.177  0.2400 -0.3569  0.2978
 7945SOL    HW124734   5.645   6.482   2.201  0.4918 -0.1580  1.1892
 7945SOL    HW224735   5.726   6.622   2.227  0.3628  0.2284 -0.3583
 7946SOL     OW24736   3.750   0.084   5.560 -0.6216 -0.1344 -0.5912
 7946SOL    HW124737   3.775   0.064   5.465  0.0677 -1.2370 -0.1974
 7946SOL    HW224738   3.694   0.010   5.596  1.9468 -1.5142  0.8802
 7947SOL     OW24739   2.526   2.698   6.495  0.2289 -0.2453 -0.9181
 7947SOL    HW124740   2.565   2.608   6.515  0.8231 -0.1099 -1.4636
 7947SOL    HW224741   2.432   2.687   6.462  0.6769 -0.7431 -2.0548
 7948SOL     OW24742   0.205   6.937   6.692  0.2908 -0.2038 -0.4612
 7948SOL    HW124743   0.147   7.003   6.644 -1.7946 -0.8703  0.9934
 7948SOL    HW224744   0.254   6.983   6.766 -1.2502 -0.2092  0.6283
 7949SOL     OW24745   5.407   5.916   4.254 -0.0408  0.3353 -0.3995
 7949SOL    HW124746   5.350   5.839   4.282  0.3478  0.1610 -0.0854
 7949SOL    HW224747   5.392   5.994   4.315  0.1506  0.2462 -0.2365
 7950SOL     OW24748   4.823   0.249   3.468 -0.4545  0.6672  0.1458
 7950SOL    HW124749   4.919   0.275   3.479  0.0540 -0.5248 -1.2094
 7950SOL    HW224750   4.798   0.182   3.538  0.1396 -0.1160 -0.3726
 7951SOL     OW24751   3.032   3.031   0.926  0.5946 -0.2410  0.9388
 7951SOL    HW124752   3.001   2.973   0.851 -0.0024 -0.3000  1.2248
 7951SOL    HW224753   2.955   3.086   0.959  1.0514  0.3906  0.9622
 7952SOL     OW24754   0.216   3.211   0.395  0.3040 -0.7455 -0.3180
 7952SOL    HW124755   0.262   3.297   0.374 -0.7718  0.2264  1.1233
 7952SOL    HW224756   0.275   3.154   0.453  1.1093 -1.1116 -1.4659
 7953SOL     OW24757   2.185   1.838   5.219 -0.1460 -0.2678 -0.0738
 7953SOL    HW124758   2.175   1.920   5.276 -0.9906 -1.0176  0.9154
 7953SOL    HW224759   2.281   1.819   5.203  0.0494  1.1450 -0.6655
 7954SOL     OW24760   5.122   4.436   5.516 -0.2010 -0.9450  0.2134
 7954SOL    HW124761   5.143   4.431   5.614  0.7151 -1.8930 -0.0118
 7954SOL    HW224762   5.207   4.439   5.463 -0.6919  0.1624 -0.5404
 7955SOL     OW24763   1.649   0.087   5.454 -0.0302  0.5323 -0.4165
 7955SOL    HW124764   1.621   0.157   5.388  0.2087  0.5506 -0.5006
 7955SOL    HW224765   1.719   0.028   5.412 -0.2015  0.2651 -0.3343
 7956SOL     OW24766   4.779   6.528   2.511  0.5237 -0.1932  0.1923
 7956SOL    HW124767   4.810   6.585   2.435 -0.3157 -0.3038 -0.2445
 7956SOL    HW224768   4.767   6.434   2.480 -0.7358 -0.0559  0.1935
 7957SOL     OW24769   1.562   2.075   6.808  0.2815 -0.2301 -0.4710
 7957SOL    HW124770   1.626   2.126   6.866  0.0958 -0.6678  0.1275
 7957SOL    HW224771   1.494   2.030   6.865 -1.2712  1.1439 -1.1609
 7958SOL     OW24772   4.314   6.040   2.349 -0.2854  0.3594  0.5352
 7958SOL    HW124773   4.399   5.991   2.368 -0.2279  0.2417 -0.0240
 7958SOL    HW224774   4.260   5.989   2.283 -0.4964  0.7583  0.3986
 7959SOL     OW24775   4.966   5.958   0.327 -0.3329  0.4457  0.1278
 7959SOL    HW124776   4.950   5.872   0.279 -0.1153  0.2975  0.3220
 7959SOL    HW224777   4.880   6.011   0.330 -0.9524 -0.5840  1.6326
 7960SOL     OW24778   3.398   0.909   1.573  0.5767 -0.1676 -0.0848
 7960SOL    HW124779   3.416   0.908   1.475  0.2479 -0.6637 -0.1484
 7960SOL    HW224780   3.388   0.815   1.606  0.0118  0.0154  0.2940
 7961SOL     OW24781   0.656   0.581   1.984  0.5945  0.8697  0.0569
 7961SOL    HW124782   0.671   0.490   2.023 -0.6084  0.4804 -0.3193
 7961SOL    HW224783   0.683   0.651   2.050  0.9231  0.2341  0.6078
 7962SOL     OW24784   0.589   6.543   5.067  0.5445 -0.2845 -0.0498
 7962SOL    HW124785   0.575   6.500   4.977  2.0302 -0.9496  0.0007
 7962SOL    HW224786   0.586   6.643   5.057 -0.3601 -0.3586 -0.6390
 7963SOL     OW24787   6.956   6.900   3.177 -0.0859  0.1170  0.0559
 7963SOL    HW124788   6.982   6.943   3.091 -0.2472  2.4231  1.0953
 7963SOL    HW224789   7.038   6.871   3.226  0.2498  1.8532  0.5899
 7964SOL     OW24790   6.709   6.247   3.406 -0.1962  0.4147 -0.2015
 7964SOL    HW124791   6.719   6.162   3.457 -0.8232 -0.2174 -1.1169
 7964SOL    HW224792   6.786   6.257   3.343 -0.6729 -0.0153 -0.8603
 7965SOL     OW24793   2.192   2.124   6.690 -0.0270  0.0548 -0.0999
 7965SOL    HW124794   2.261   2.176   6.639 -1.4444  1.5876 -0.5546
 7965SOL    HW224795   2.237   2.072   6.763  1.6391  0.7117 -0.6014
 7966SOL     OW24796   1.071   4.031   4.750 -0.1388  0.2794 -0.1064
 7966SOL    HW124797   1.150   4.012   4.691 -0.7211  2.5978 -1.7907
 7966SOL    HW224798   1.096   4.103   4.815 -0.3294 -0.3175  0.6341
 7967SOL     OW24799   4.352   5.116   4.561 -0.1175 -0.1688  0.0427
 7967SOL    HW124800   4.295   5.186   4.517 -0.5067 -0.3447  0.2568
 7967SOL    HW224801   4.382   5.148   4.651  0.7408  0.2214 -0.3752
 7968SOL     OW24802   1.564   2.745   4.564 -0.4334 -0.1166  0.2427
 7968SOL    HW124803   1.560   2.836   4.524 -1.0559 -0.6590 -0.9634
 7968SOL    HW224804   1.650   2.735   4.615 -0.4957  1.2273  0.6446
 7969SOL     OW24805   2.904   6.968   1.298  0.4270  0.4100 -0.0638
 7969SOL    HW124806   2.871   7.023   1.222 -0.3334  0.8219  0.5473
 7969SOL    HW224807   3.000   6.991   1.317  0.8066 -0.1256 -1.2581
 7970SOL     OW24808   6.401   5.628   2.679 -0.3991  0.0616  0.0582
 7970SOL    HW124809   6.398   5.630   2.579 -0.3511 -1.7424 -0.0131
 7970SOL    HW224810   6.338   5.696   2.716 -0.3731  0.7907 -1.1956
 7971SOL     OW24811   3.302   0.688   0.498  0.6349  0.2364  0.1882
 7971SOL    HW124812   3.301   0.721   0.403  0.3892  0.6273  0.3221
 7971SOL    HW224813   3.218   0.718   0.544  0.4066 -0.5816  0.3190
 7972SOL     OW24814   0.812   4.078   1.511  0.2811  0.4369  0.5435
 7972SOL    HW124815   0.809   4.037   1.602  0.0142 -0.4643  0.1338
 7972SOL    HW224816   0.904   4.070   1.473  0.0759 -0.3562  0.2068
 7973SOL     OW24817   4.887   3.234   1.900  0.3003 -0.1653 -0.0917
 7973SOL    HW124818   4.863   3.176   1.978 -0.6089  1.9708  1.2997
 7973SOL    HW224819   4.838   3.202   1.819 -0.8271 -0.8467  0.8280
 7974SOL     OW24820   5.312   0.347   5.442 -0.0055 -0.2043 -0.1023
 7974SOL    HW124821   5.330   0.263   5.390 -1.2093  0.5543 -1.8446
 7974SOL    HW224822   5.214   0.355   5.460 -0.1997  1.7164 -1.6617
 7975SOL     OW24823   5.751   5.892   2.867 -0.9425 -0.2629 -0.1375
 7975SOL    HW124824   5.786   5.960   2.803 -1.6932  0.5584  0.3025
 7975SOL    HW224825   5.825   5.829   2.891 -0.0048  0.8330  0.0092
 7976SOL     OW24826   1.825   0.896   6.660 -0.3522 -0.1534 -0.1831
 7976SOL    HW124827   1.816   0.956   6.580 -1.1468 -0.0226 -0.0028
 7976SOL    HW224828   1.871   0.946   6.733 -1.8113  0.5664  0.2791
 7977SOL     OW24829   4.142   5.947   1.991  0.6105  0.0491 -0.0885
 7977SOL    HW124830   4.078   6.003   1.938  1.4622  0.9834 -0.1582
 7977SOL    HW224831   4.092   5.900   2.064  0.2305  3.0537  1.7380
 7978SOL     OW24832   5.220   3.386   5.561  0.7530  0.1079 -0.1926
 7978SOL    HW124833   5.265   3.454   5.503 -0.1404 -0.3477 -1.4481
 7978SOL    HW224834   5.121   3.400   5.559  0.6990  0.1607  1.3501
 7979SOL     OW24835   2.749   6.431   4.903  0.2153  0.2622  0.2654
 7979SOL    HW124836   2.681   6.505   4.904  0.6678  0.6995 -0.6154
 7979SOL    HW224837   2.710   6.350   4.947 -0.8718  0.5093 -0.2022
 7980SOL     OW24838   1.431   5.659   6.195 -0.8350  0.7817 -0.4331
 7980SOL    HW124839   1.518   5.616   6.219  0.0687  1.7206 -1.8989
 7980SOL    HW224840   1.357   5.613   6.244  0.6396  1.2940  2.5156
 7981SOL     OW24841   1.490   0.277   1.810  0.6217  0.1071 -0.7143
 7981SOL    HW124842   1.403   0.266   1.763  0.3587 -0.3486 -0.1257
 7981SOL    HW224843   1.536   0.359   1.775 -0.3091  0.6952 -0.6039
 7982SOL     OW24844   1.196   1.354   5.730  0.1518 -0.4796  0.2514
 7982SOL    HW124845   1.221   1.447   5.706 -2.8283 -0.1792 -2.4049
 7982SOL    HW224846   1.240   1.290   5.667  0.4488 -0.6699  0.6497
 7983SOL     OW24847   5.579   1.905   4.167 -0.5397  0.6620 -0.3492
 7983SOL    HW124848   5.539   1.996   4.171 -0.3255  0.8109 -1.3771
 7983SOL    HW224849   5.677   1.911   4.147 -0.6226  0.2039 -0.9500
 7984SOL     OW24850   2.462   1.980   3.266 -0.1687  0.6638 -0.4273
 7984SOL    HW124851   2.383   1.991   3.206  0.4857  1.0250 -1.2486
 7984SOL    HW224852   2.475   2.064   3.319 -1.4751 -0.0902  1.1603
 7985SOL     OW24853   4.099   5.224   4.451  0.1572 -0.6679  0.3395
 7985SOL    HW124854   4.071   5.172   4.370 -0.3653 -1.6463  1.1278
 7985SOL    HW224855   4.077   5.172   4.534 -1.1790  1.1530  1.1990
 7986SOL     OW24856   2.228   1.511   6.205 -0.1889  0.3561  0.1259
 7986SOL    HW124857   2.284   1.441   6.249  0.3665  0.5993 -0.1841
 7986SOL    HW224858   2.245   1.511   6.106 -1.5177 -0.2707 -0.1215
 7987SOL     OW24859   0.950   4.027   6.943 -0.3854 -0.1399 -0.1086
 7987SOL    HW124860   1.041   4.052   6.977  1.7632 -3.1303 -3.0162
 7987SOL    HW224861   0.912   4.103   6.890 -0.3136  1.6581  2.2520
 7988SOL     OW24862   2.415   2.693   5.029 -0.1138  0.4219 -0.4290
 7988SOL    HW124863   2.403   2.793   5.032  1.5061  0.7063 -1.9588
 7988SOL    HW224864   2.513   2.672   5.024 -0.4138 -1.2861  0.4509
 7989SOL     OW24865   3.772   3.678   4.260 -0.2809 -0.4359 -0.0146
 7989SOL    HW124866   3.757   3.767   4.303 -2.0378 -0.2541 -0.8994
 7989SOL    HW224867   3.689   3.650   4.212  0.2253 -2.5736  0.2432
 7990SOL     OW24868   5.174   4.337   3.046  0.3024 -0.8319  0.1834
 7990SOL    HW124869   5.205   4.312   3.138 -0.8723  1.1760  1.1846
 7990SOL    HW224870   5.081   4.304   3.031 -0.6410  1.3121  0.9046
 7991SOL     OW24871   6.725   6.734   5.458 -0.6546 -0.1991 -0.1078
 7991SOL    HW124872   6.689   6.738   5.551  0.3005  1.8856  0.2472
 7991SOL    HW224873   6.825   6.724   5.462 -0.6188 -0.1985 -0.8964
 7992SOL     OW24874   0.996   0.049   0.152  0.1725 -0.6095  0.2705
 7992SOL    HW124875   0.910   0.008   0.121  0.6201 -1.6974  0.4353
 7992SOL    HW224876   0.992   0.149   0.140 -1.6384 -0.4842  1.5973
 7993SOL     OW24877   3.168   4.922   5.735 -0.1008  0.0797 -0.5458
 7993SOL    HW124878   3.078   4.918   5.778 -0.7337 -1.7432 -1.9168
 7993SOL    HW224879   3.234   4.870   5.790 -0.6112 -1.1403 -1.0420
 7994SOL     OW24880   6.550   0.046   3.388 -0.0658  0.9106 -0.3710
 7994SOL    HW124881   6.628   0.055   3.327 -0.4614 -1.4303 -1.3567
 7994SOL    HW224882   6.490   0.125   3.379  0.3866  1.0726 -2.3128
 7995SOL     OW24883   3.982   5.092   3.423 -0.3055  0.1983  0.5897
 7995SOL    HW124884   3.967   5.034   3.343  1.0723  0.3223  0.2203
 7995SOL    HW224885   4.068   5.142   3.413 -0.6182  0.9940  1.6896
 7996SOL     OW24886   1.592   6.551   4.205 -0.0781  0.0042 -0.3057
 7996SOL    HW124887   1.620   6.628   4.147  0.4488 -1.3078 -1.8723
 7996SOL    HW224888   1.665   6.482   4.206  0.0742  0.1067  2.2307
 7997SOL     OW24889   5.739   0.944   3.061 -0.0089 -0.1555 -0.3598
 7997SOL    HW124890   5.818   0.883   3.062 -0.1959 -0.4821 -2.5576
 7997SOL    HW224891   5.771   1.039   3.061  0.2886 -0.1960  1.9283
 7998SOL     OW24892   4.150   6.770   1.075 -0.5514  0.0573 -0.5544
 7998SOL    HW124893   4.154   6.671   1.083  0.1494  0.1361  0.1874
 7998SOL    HW224894   4.072   6.796   1.018  0.3850 -0.9940 -2.4088
 7999SOL     OW24895   1.729   6.093   5.078 -0.4578  0.0052 -0.2221
 7999SOL    HW124896   1.715   6.117   5.174 -2.1621 -1.2907 -0.0817
 7999SOL    HW224897   1.796   6.019   5.072 -0.7156 -0.2516  0.0266
 8000SOL     OW24898   4.888   6.110   3.111  0.0373  0.0530 -0.3352
 8000SOL    HW124899   4.939   6.118   3.197 -0.1695  0.3563 -0.2383
 8000SOL    HW224900   4.934   6.045   3.051  0.2462 -0.0765 -0.0387
 8001SOL     OW24901   3.727   5.034   0.502 -0.3504 -0.4291  0.4103
 8001SOL    HW124902   3.744   4.936   0.514 -1.3417 -0.9644 -1.9801
 8001SOL    HW224903   3.794   5.071   0.438 -1.7589 -0.2669 -1.0318
 8002SOL     OW24904   2.174   2.693   4.762 -0.3763  0.1372 -0.6155
 8002SOL    HW124905   2.263   2.662   4.730 -1.0148 -2.5168 -0.1244
 8002SOL    HW224906   2.125   2.615   4.802 -2.5731  1.7005 -0.0950
 8003SOL     OW24907   1.651   4.626   3.797 -0.0704  0.2025 -0.3428
 8003SOL    HW124908   1.555   4.615   3.769 -0.0967 -3.2094  0.7407
 8003SOL    HW224909   1.710   4.619   3.716 -0.4738 -4.3598 -0.5126
 8004SOL     OW24910   0.601   4.388   3.715  0.1109  0.1986 -0.5679
 8004SOL    HW124911   0.666   4.312   3.718  1.2713  1.1946  1.8270
 8004SOL    HW224912   0.541   4.383   3.795 -0.0007  1.6158 -0.5431
 8005SOL     OW24913   3.475   1.393   3.973 -0.0389  0.8111  0.1022
 8005SOL    HW124914   3.498   1.481   4.015  2.0523 -0.5139  1.9589
 8005SOL    HW224915   3.558   1.351   3.936 -0.8433 -0.7226 -0.0503
 8006SOL     OW24916   2.976   0.157   6.219 -0.0332 -0.6054  0.6866
 8006SOL    HW124917   3.056   0.124   6.269  0.3484 -2.5691 -1.0782
 8006SOL    HW224918   2.893   0.138   6.271  0.5477  0.3893  2.0122
 8007SOL     OW24919   0.240   6.273   5.361  0.5022 -0.3100 -0.2514
 8007SOL    HW124920   0.293   6.194   5.389  0.5922 -0.9496 -2.0570
 8007SOL    HW224921   0.297   6.355   5.364  0.3825 -0.2510  1.7144
 8008SOL     OW24922   3.929   5.322   4.824  0.5998  0.1779  0.3151
 8008SOL    HW124923   3.833   5.304   4.802  0.0929  2.1087  0.7638
 8008SOL    HW224924   3.972   5.371   4.749  1.3083 -0.8507  0.0340
 8009SOL     OW24925   6.703   0.435   2.847 -0.1895  0.0660 -0.7455
 8009SOL    HW124926   6.726   0.493   2.925 -0.1093  0.2557 -0.9077
 8009SOL    HW224927   6.784   0.422   2.790 -0.5321  0.9476 -1.4545
 8010SOL     OW24928   0.893   2.149   0.418 -0.0646  0.1325  0.4300
 8010SOL    HW124929   0.922   2.054   0.431 -0.4727 -0.1172 -0.4224
 8010SOL    HW224930   0.972   2.206   0.397  0.3154  0.1630  1.8340
 8011SOL     OW24931   5.618   1.139   1.276  0.1028  0.0477  0.0677
 8011SOL    HW124932   5.556   1.166   1.349  0.7200  0.4647  0.4560
 8011SOL    HW224933   5.633   1.040   1.279  0.3383  0.0977  0.6831
 8012SOL     OW24934   0.994   5.983   5.281 -0.8325 -0.6532  0.3324
 8012SOL    HW124935   0.902   5.979   5.319 -0.1900 -1.5512  1.8857
 8012SOL    HW224936   0.989   6.008   5.184 -2.5473  1.3250  0.8626
 8013SOL     OW24937   0.672   4.437   6.103 -0.2103  0.1909  0.3301
 8013SOL    HW124938   0.607   4.440   6.027  1.0764  1.1152 -0.7716
 8013SOL    HW224939   0.662   4.520   6.159 -0.3990  0.0375  0.5253
 8014SOL     OW24940   0.061   0.481   6.073  0.1524  0.3001 -0.0547
 8014SOL    HW124941   0.120   0.503   5.995  0.8523  0.2727  0.4554
 8014SOL    HW224942  -0.028   0.451   6.040 -0.3960  2.5727 -0.7972
 8015SOL     OW24943   1.981   1.613   6.202  0.5686  0.3512 -0.1355
 8015SOL    HW124944   1.971   1.711   6.183 -0.8138  0.3327  0.3812
 8015SOL    HW224945   2.075   1.594   6.229  0.6720  1.6745  0.5251
 8016SOL     OW24946   4.919   0.215   6.540 -0.3925  0.3841 -0.0087
 8016SOL    HW124947   4.902   0.148   6.468  1.0007  1.1814 -1.1198
 8016SOL    HW224948   4.864   0.191   6.621  0.8443 -2.7164  0.0437
 8017SOL     OW24949   6.366   6.909   1.254  0.0720 -0.0354 -0.4057
 8017SOL    HW124950   6.366   6.994   1.200 -2.5643 -0.2437 -0.8826
 8017SOL    HW224951   6.433   6.846   1.216  0.9016  1.2124 -1.0934
 8018SOL     OW24952   2.129   3.517   5.033 -0.2191 -0.0130  0.3910
 8018SOL    HW124953   2.056   3.547   4.971  0.5201 -0.1251 -0.5534
 8018SOL    HW224954   2.214   3.508   4.982  0.7000  1.0528  1.6681
 8019SOL     OW24955   2.518   4.251   6.534 -0.2000 -0.7131  0.4307
 8019SOL    HW124956   2.480   4.248   6.441  0.6777 -0.3994  0.0535
 8019SOL    HW224957   2.443   4.242   6.600 -1.1192  1.1223 -0.2709
 8020SOL     OW24958   0.339   0.055   1.879  0.0490 -0.3750 -1.0878
 8020SOL    HW124959   0.344  -0.044   1.867 -1.3449 -0.3937 -1.7284
 8020SOL    HW224960   0.302   0.077   1.969 -0.7168 -0.4763 -1.3679
 8021SOL     OW24961   0.564   1.120   2.164 -0.0908  0.2436  0.2748
 8021SOL    HW124962   0.503   1.055   2.118  1.5925 -0.0721 -1.6730
 8021SOL    HW224963   0.538   1.128   2.260 -2.5553 -0.5826 -0.2490
 8022SOL     OW24964   2.267   0.493   0.432  0.2467  0.5586 -0.2135
 8022SOL    HW124965   2.209   0.417   0.402  0.9758  0.5419 -1.6693
 8022SOL    HW224966   2.351   0.457   0.472 -0.0175  0.6013  0.3954
 8023SOL     OW24967   4.681   5.076   1.117 -0.0014  0.3801 -0.3460
 8023SOL    HW124968   4.600   5.083   1.058  0.9684  1.1939 -1.6503
 8023SOL    HW224969   4.653   5.062   1.211 -1.6679  0.7969 -0.7468
 8024SOL     OW24970   4.525   4.641   0.585  0.4347 -0.4743  0.7065
 8024SOL    HW124971   4.555   4.728   0.625 -0.9894 -0.6009  2.1081
 8024SOL    HW224972   4.436   4.653   0.542  0.4555 -1.1383  0.4678
 8025SOL     OW24973   1.731   4.942   6.666  0.2238  0.1143  0.2005
 8025SOL    HW124974   1.755   4.850   6.695  0.0379 -0.0698 -0.2145
 8025SOL    HW224975   1.631   4.953   6.668  0.2720  0.4884  0.7843
 8026SOL     OW24976   0.984   4.627   0.750 -0.1462 -0.1238 -0.3964
 8026SOL    HW124977   0.921   4.606   0.675  1.4661  0.3305 -1.9255
 8026SOL    HW224978   1.050   4.695   0.720  2.0644 -1.7090  0.6192
 8027SOL     OW24979   4.815   1.578   4.357  0.1792 -0.0082 -0.2481
 8027SOL    HW124980   4.811   1.676   4.374  2.0226 -0.0284  0.4918
 8027SOL    HW224981   4.879   1.535   4.420 -0.9291 -1.7832 -0.2481
 8028SOL     OW24982   0.175   4.342   6.877 -0.1645 -0.3107 -0.0547
 8028SOL    HW124983   0.100   4.307   6.820 -0.6960  0.0490  0.4099
 8028SOL    HW224984   0.231   4.266   6.909 -0.5986 -0.6304 -0.0425
 8029SOL     OW24985   3.803   3.466   4.437  0.5640 -0.0517 -0.0743
 8029SOL    HW124986   3.887   3.495   4.483 -1.4109  2.1278  2.5870
 8029SOL    HW224987   3.783   3.528   4.361  0.5106  0.5369  0.4105
 8030SOL     OW24988   5.562   3.932   5.141  0.0030 -0.2243  0.0324
 8030SOL    HW124989   5.580   4.030   5.147 -0.8255 -0.0916  0.5441
 8030SOL    HW224990   5.528   3.910   5.049 -2.0376  0.3818  0.5906
 8031SOL     OW24991   4.976   6.232   2.521 -0.0506 -0.0623 -0.0468
 8031SOL    HW124992   5.032   6.154   2.493  0.5075  0.0725  0.6521
 8031SOL    HW224993   5.035   6.312   2.535 -0.1301 -0.3478  2.3270
 8032SOL     OW24994   5.599   3.848   0.218 -0.1368  0.5240 -0.0694
 8032SOL    HW124995   5.569   3.929   0.269 -0.8425  0.7428 -0.8024
 8032SOL    HW224996   5.621   3.775   0.282 -0.4551  0.9761  0.5720
 8033SOL     OW24997   4.305   3.687   0.896  0.0838 -0.1094  0.6999
 8033SOL    HW124998   4.285   3.601   0.942 -0.0094  0.8196  2.4796
 8033SOL    HW224999   4.373   3.738   0.950  1.1983  0.3343 -1.0441
 8034SOL     OW25000   0.989   0.407   5.917  0.4957 -0.4968  0.0739
 8034SOL    HW125001   1.041   0.329   5.883  1.0404 -1.0248  1.9743
 8034SOL    HW225002   1.052   0.476   5.952 -0.0335 -0.0276  0.1081
 8035SOL     OW25003   6.231   3.125   6.015 -0.0417  0.1450  0.1297
 8035SOL    HW125004   6.198   3.176   6.094 -1.6401 -1.2594  0.4229
 8035SOL    HW225005   6.330   3.113   6.022 -0.0329  0.7748  1.4617
 8036SOL     OW25006   6.210   1.959   2.717 -0.0860  0.0623  0.2703
 8036SOL    HW125007   6.290   1.929   2.771  0.0674 -0.3620 -0.1890
 8036SOL    HW225008   6.129   1.960   2.776  0.0662 -0.4789  0.4945
 8037SOL     OW25009   0.729   3.411   4.055 -0.6751  0.4167 -0.0444
 8037SOL    HW125010   0.653   3.346   4.043  0.0014 -0.2694 -0.8358
 8037SOL    HW225011   0.773   3.426   3.966 -1.3629  2.6847 -0.0517
 8038SOL     OW25012   3.351   2.381   1.507 -0.2268 -0.0511  0.0964
 8038SOL    HW125013   3.348   2.437   1.590  1.3241 -1.7407  1.3633
 8038SOL    HW225014   3.264   2.332   1.497 -0.7986  0.9123  0.1168
 8039SOL     OW25015   1.087   5.689   5.169 -0.3232 -0.1536 -0.6814
 8039SOL    HW125016   1.157   5.757   5.193  0.6860 -2.0536  2.3395
 8039SOL    HW225017   1.125   5.624   5.104  0.0606 -0.0671 -0.5478
 8040SOL     OW25018   1.609   6.174   0.768  0.1411  0.2606 -0.0510
 8040SOL    HW125019   1.643   6.084   0.795 -0.8076 -0.1951 -0.3363
 8040SOL    HW225020   1.546   6.164   0.691  1.3938  1.3561 -1.2585
 8041SOL     OW25021   1.983   2.782   3.536 -0.3306 -0.0558 -0.2579
 8041SOL    HW125022   1.943   2.711   3.593 -2.2682 -0.8044 -2.4022
 8041SOL    HW225023   1.975   2.756   3.440  0.0629  2.4968 -1.0536
 8042SOL     OW25024   2.924   3.579   4.667 -0.6573  0.4067 -0.0975
 8042SOL    HW125025   2.889   3.659   4.715 -1.7810 -0.1593  0.0490
 8042SOL    HW225026   2.925   3.501   4.729 -1.8871 -0.2700 -0.9088
 8043SOL     OW25027   3.598   6.142   1.580 -0.5184 -0.2077 -0.0395
 8043SOL    HW125028   3.559   6.202   1.651  0.0568  0.9789 -0.6854
 8043SOL    HW225029   3.681   6.185   1.543  0.1876 -1.6484 -0.2067
 8044SOL     OW25030   3.490   3.007   0.628 -0.5027 -0.0716 -0.2423
 8044SOL    HW125031   3.495   2.966   0.537  1.4656 -1.7098  0.5130
 8044SOL    HW225032   3.471   2.936   0.696 -1.3524  1.0268  0.7175
 8045SOL     OW25033   6.113   6.491   1.241 -0.2185  0.0519 -0.4650
 8045SOL    HW125034   6.156   6.505   1.152  1.2562  1.1305  0.3642
 8045SOL    HW225035   6.135   6.400   1.276 -1.6776 -0.7915 -1.6134
 8046SOL     OW25036   0.693   5.989   0.547 -0.0356 -0.0587  0.3119
 8046SOL    HW125037   0.727   6.068   0.598  1.3565  0.6757 -1.6270
 8046SOL    HW225038   0.737   5.906   0.582  2.3093  0.6435 -0.7741
 8047SOL     OW25039   2.924   4.845   3.448 -0.1425 -0.1429  0.1353
 8047SOL    HW125040   2.843   4.813   3.497 -0.4428  0.5726  0.1265
 8047SOL    HW225041   2.983   4.768   3.426 -0.8105 -0.6691  0.1653
 8048SOL     OW25042   3.348   1.088   6.442 -0.8838 -0.3059  0.3427
 8048SOL    HW125043   3.323   1.035   6.523 -0.0555 -0.0421  0.7778
 8048SOL    HW225044   3.409   1.163   6.468 -0.2899 -0.4544 -0.5766
 8049SOL     OW25045   2.132   1.399   0.907  0.1156 -0.0199  0.2981
 8049SOL    HW125046   2.071   1.388   0.828 -1.0203  0.9390  0.9998
 8049SOL    HW225047   2.207   1.460   0.882  0.3901 -0.6148 -0.3626
 8050SOL     OW25048   0.308   1.597   1.830  0.2869  0.1714  0.4554
 8050SOL    HW125049   0.271   1.519   1.779 -0.6022  0.1540  1.1066
 8050SOL    HW225050   0.236   1.636   1.887  1.2349  0.2497  1.6286
 8051SOL     OW25051   1.838   5.870   3.980  0.6121  0.1472 -0.0949
 8051SOL    HW125052   1.820   5.899   4.074  1.3677 -0.9578  0.4159
 8051SOL    HW225053   1.758   5.821   3.944 -0.1985  1.7498 -0.5326
 8052SOL     OW25054   4.755   1.756   4.038  0.1397 -0.3438 -0.4972
 8052SOL    HW125055   4.726   1.669   4.077 -0.5822  0.3666  0.6006
 8052SOL    HW225056   4.823   1.799   4.097 -0.7081  0.5830 -0.1617
 8053SOL     OW25057   3.344   3.824   4.700 -0.4453  0.9355  0.1436
 8053SOL    HW125058   3.335   3.912   4.653 -0.7649  1.3269  0.9156
 8053SOL    HW225059   3.328   3.750   4.635  1.4041  1.3801 -0.9034
 8054SOL     OW25060   5.432   0.340   4.750  0.2370  0.3886  0.2919
 8054SOL    HW125061   5.416   0.253   4.798  0.1855  1.1199  1.6543
 8054SOL    HW225062   5.466   0.321   4.658 -2.2970 -1.1379 -0.4438
 8055SOL     OW25063   5.992   0.483   6.515 -0.7877 -0.5689 -0.5868
 8055SOL    HW125064   5.986   0.383   6.515 -0.7943 -0.5911 -1.9519
 8055SOL    HW225065   5.901   0.522   6.497 -1.1322 -0.2464  1.6179
 8056SOL     OW25066   3.937   1.628   4.508  0.1489 -0.2513  0.4768
 8056SOL    HW125067   3.901   1.555   4.566  0.2585  0.0987  0.9985
 8056SOL    HW225068   3.885   1.632   4.422  0.1230 -0.9151  0.4592
 8057SOL     OW25069   1.658   2.396   4.039  0.2816  0.0588 -0.4106
 8057SOL    HW125070   1.654   2.492   4.010  0.2134  0.1040 -0.2514
 8057SOL    HW225071   1.751   2.361   4.025  0.2066  0.0311 -0.8420
 8058SOL     OW25072   4.154   0.716   1.278  0.1235  0.5863  0.5254
 8058SOL    HW125073   4.054   0.726   1.273 -0.0249 -0.8619  0.1104
 8058SOL    HW225074   4.187   0.678   1.191  0.6823 -1.5469  1.6147
 8059SOL     OW25075   4.835   2.461   3.540 -0.1068 -0.3419 -0.2402
 8059SOL    HW125076   4.926   2.491   3.571 -0.3596 -0.0036  0.1885
 8059SOL    HW225077   4.785   2.539   3.503 -0.9587 -0.0937  1.3412
 8060SOL     OW25078   0.713   1.637   4.407  0.0635  0.1474  0.7742
 8060SOL    HW125079   0.738   1.548   4.370  0.9753  0.3945  0.7526
 8060SOL    HW225080   0.616   1.638   4.432 -0.9895  0.3991 -2.8600
 8061SOL     OW25081   0.147   0.177   2.450 -0.1857  0.2230 -0.0589
 8061SOL    HW125082   0.147   0.243   2.375 -0.8854 -0.2415 -0.4832
 8061SOL    HW225083   0.229   0.120   2.445 -1.2517 -1.2911 -1.8405
 8062SOL     OW25084   3.056   5.204   4.374  0.2841 -0.2625  0.0975
 8062SOL    HW125085   3.021   5.290   4.339  2.2580  0.6625  0.2983
 8062SOL    HW225086   2.988   5.164   4.436 -1.0447  0.6520 -0.7133
 8063SOL     OW25087   0.467   3.814   6.933 -0.2855 -0.1744  0.2558
 8063SOL    HW125088   0.504   3.858   7.015 -0.0639  2.8899 -1.3503
 8063SOL    HW225089   0.374   3.848   6.915 -0.7454 -1.5990 -0.2248
 8064SOL     OW25090   6.809   6.323   0.381 -0.1390  0.2894 -0.1010
 8064SOL    HW125091   6.785   6.252   0.316 -1.4208 -0.4742  1.1492
 8064SOL    HW225092   6.906   6.314   0.407  0.8224  1.4932 -2.8928
 8065SOL     OW25093   4.783   0.420   5.012 -0.0027 -0.2891  0.3129
 8065SOL    HW125094   4.881   0.432   5.027  0.1255 -1.3654  0.3723
 8065SOL    HW225095   4.753   0.336   5.056 -0.1443 -2.2270 -3.1514
 8066SOL     OW25096   0.419   1.550   6.846  0.2102 -0.2879 -0.2068
 8066SOL    HW125097   0.507   1.598   6.846 -0.3011  0.6695  0.4048
 8066SOL    HW225098   0.369   1.571   6.930  0.7176 -3.3001  0.9883
 8067SOL     OW25099   4.886   2.519   0.507 -0.3109 -0.2105  0.7095
 8067SOL    HW125100   4.930   2.448   0.452 -2.4593 -3.0662  2.3972
 8067SOL    HW225101   4.955   2.582   0.542  1.2935  1.0615 -4.0592
 8068SOL     OW25102   4.756   4.237   0.016  0.0544 -0.1646  0.1563
 8068SOL    HW125103   4.777   4.140   0.009 -1.2163 -0.4862  0.6473
 8068SOL    HW225104   4.779   4.282  -0.071  4.0956 -0.1441  1.0295
 8069SOL     OW25105   2.735   5.130   6.894  0.2221 -0.4726  0.2091
 8069SOL    HW125106   2.725   5.183   6.978  0.0637  0.1650 -0.2083
 8069SOL    HW225107   2.672   5.052   6.897  0.0155 -0.2973  0.5621
 8070SOL     OW25108   3.443   1.792   0.682  0.2689  0.2972 -0.1703
 8070SOL    HW125109   3.445   1.751   0.774  1.9204  0.9163  0.0914
 8070SOL    HW225110   3.460   1.721   0.614  0.3748  0.0721  0.0892
 8071SOL     OW25111   1.806   6.155   3.427  0.0211  0.2397 -0.1406
 8071SOL    HW125112   1.824   6.170   3.524  0.7505  1.0103 -0.3827
 8071SOL    HW225113   1.757   6.069   3.415  0.6827 -0.2901  0.8330
 8072SOL     OW25114   2.898   0.323   6.624  0.0529 -0.3753 -0.0151
 8072SOL    HW125115   2.957   0.399   6.597 -0.4276  0.2712  0.6977
 8072SOL    HW225116   2.808   0.335   6.583 -0.1558 -0.3257  0.4550
 8073SOL     OW25117   3.632   5.487   5.445  0.2934 -0.6039  0.3682
 8073SOL    HW125118   3.684   5.414   5.489 -0.2304 -0.5847  1.0417
 8073SOL    HW225119   3.587   5.451   5.363  0.7489 -0.8104  0.2075
 8074SOL     OW25120   3.788   2.271   6.653  0.0781 -0.4813 -0.3795
 8074SOL    HW125121   3.799   2.178   6.688  0.2039 -0.0284  0.8357
 8074SOL    HW225122   3.693   2.301   6.667  0.5282  0.3088  1.1759
 8075SOL     OW25123   1.983   0.615   1.812 -0.3070  0.3538  0.3424
 8075SOL    HW125124   1.951   0.612   1.717 -0.4018 -2.2957  0.3660
 8075SOL    HW225125   1.910   0.648   1.871 -0.2920  1.9049 -0.4592
 8076SOL     OW25126   6.551   1.764   0.742 -0.2460 -0.5332 -0.8928
 8076SOL    HW125127   6.641   1.769   0.699 -0.5135  2.7567 -1.3185
 8076SOL    HW225128   6.482   1.799   0.679 -1.5486 -1.1721  0.1340
 8077SOL     OW25129   2.152   4.920   0.737  0.2162 -0.0710 -0.0316
 8077SOL    HW125130   2.121   4.878   0.822 -0.3648  1.0765  0.3370
 8077SOL    HW225131   2.081   4.979   0.700  0.8763  0.3176 -0.7211
 8078SOL     OW25132   5.950   2.616   0.336  0.1557 -0.3636 -0.4639
 8078SOL    HW125133   6.029   2.668   0.370 -1.4072  0.1803  2.6243
 8078SOL    HW225134   5.955   2.522   0.370 -1.9062  0.4308  2.4068
 8079SOL     OW25135   3.714   0.145   3.752  0.3176 -0.3472  0.1426
 8079SOL    HW125136   3.718   0.230   3.700  1.9975 -0.7807 -0.5016
 8079SOL    HW225137   3.635   0.147   3.814  0.1365  1.5229 -0.1012
 8080SOL     OW25138   1.642   5.047   0.412 -0.2022  0.4098 -0.4134
 8080SOL    HW125139   1.690   5.132   0.431 -1.8818  1.5164 -0.8938
 8080SOL    HW225140   1.546   5.067   0.394 -0.2108 -1.3360 -2.6990
 8081SOL     OW25141   4.033   0.347   5.069 -0.2861 -0.3938 -0.3118
 8081SOL    HW125142   3.937   0.339   5.042  0.2240 -2.1848 -1.7888
 8081SOL    HW225143   4.063   0.442   5.060 -1.5521 -0.0532 -1.1297
 8082SOL     OW25144   5.752   0.736   1.158 -0.0758  0.2417  0.0461
 8082SOL    HW125145   5.672   0.783   1.195  0.6602  2.3128 -0.8165
 8082SOL    HW225146   5.831   0.798   1.158  0.6699 -0.5693 -2.2379
 8083SOL     OW25147   5.482   3.088   2.729 -0.2966 -0.0892  0.5712
 8083SOL    HW125148   5.384   3.086   2.710 -0.0905 -1.7763 -0.5135
 8083SOL    HW225149   5.515   2.996   2.747  1.1304  0.4252  0.7205
 8084SOL     OW25150   4.745   6.061   6.962  0.0895 -0.1636 -0.5337
 8084SOL    HW125151   4.813   6.135   6.965  0.2696 -0.2891 -1.2386
 8084SOL    HW225152   4.700   6.053   7.051  1.8340 -0.8758  0.3160
 8085SOL     OW25153   0.285   6.487   1.699  0.5124 -0.0428  0.8259
 8085SOL    HW125154   0.242   6.403   1.665 -1.2058  1.4985 -1.0962
 8085SOL    HW225155   0.377   6.496   1.661 -0.1995  0.0633 -1.0013
 8086SOL     OW25156   4.760   1.485   4.118  0.1927 -0.1802 -0.7355
 8086SOL    HW125157   4.779   1.511   4.212 -0.6223 -0.7983 -0.3855
 8086SOL    HW225158   4.710   1.398   4.117 -1.3894  0.6987 -1.6389
 8087SOL     OW25159   2.700   2.438   0.054 -0.3888  0.1190  0.4777
 8087SOL    HW125160   2.769   2.496   0.098  1.8396 -0.5265 -1.8794
 8087SOL    HW225161   2.638   2.495  -0.000 -0.6217  0.5654  1.1976
 8088SOL     OW25162   4.855   1.519   2.010 -0.3295 -0.0037  0.1969
 8088SOL    HW125163   4.944   1.550   2.044 -1.4996  1.1070  2.4765
 8088SOL    HW225164   4.834   1.429   2.048 -0.8011  0.3909  0.8929
 8089SOL     OW25165   5.529   2.035   2.124  0.1550 -0.2187  0.0989
 8089SOL    HW125166   5.583   2.118   2.105 -0.2441  0.2046  0.7710
 8089SOL    HW225167   5.586   1.954   2.109  1.3288  0.2339  1.8152
 8090SOL     OW25168   4.618   0.864   0.591  0.6175  0.2397  0.2762
 8090SOL    HW125169   4.700   0.854   0.534  1.8249  1.5790  1.7060
 8090SOL    HW225170   4.580   0.955   0.578 -1.0601 -0.5744 -0.8411
 8091SOL     OW25171   3.448   3.740   6.950 -0.0889  0.0751 -0.0763
 8091SOL    HW125172   3.544   3.732   6.922  1.1367  1.2915  3.2823
 8091SOL    HW225173   3.418   3.835   6.938 -0.2380  0.1194  0.6073
 8092SOL     OW25174   1.363   2.635   5.476  0.4775  1.0689  0.3358
 8092SOL    HW125175   1.329   2.729   5.472  0.0407  0.8682 -1.1508
 8092SOL    HW225176   1.436   2.622   5.409  0.8803  0.4648  0.8727
 8093SOL     OW25177   3.997   5.232   2.493 -0.4421  0.4491  0.1966
 8093SOL    HW125178   4.089   5.201   2.469 -0.2620 -0.2099  1.5903
 8093SOL    HW225179   3.995   5.331   2.499  0.0085  0.5016 -0.4990
 8094SOL     OW25180   1.056   4.355   6.615 -0.6424 -0.2676 -0.4975
 8094SOL    HW125181   1.151   4.325   6.618 -0.0451  1.5432  0.3918
 8094SOL    HW225182   0.996   4.276   6.622  0.8042 -1.2621  2.1391
 8095SOL     OW25183   5.847   3.877   4.883  0.5710 -0.9423  0.2028
 8095SOL    HW125184   5.788   3.802   4.910  0.3357 -1.0992 -0.7488
 8095SOL    HW225185   5.794   3.947   4.836  0.5613  0.3805  2.0777
 8096SOL     OW25186   4.800   0.163   4.084 -0.4294  0.4535 -0.0566
 8096SOL    HW125187   4.746   0.147   4.166 -0.9310 -0.8275 -0.6165
 8096SOL    HW225188   4.759   0.236   4.030 -1.0864  0.1198 -0.0149
 8097SOL     OW25189   3.704   5.497   4.069 -0.6321  0.7226 -0.0913
 8097SOL    HW125190   3.654   5.444   4.138  1.1623 -0.7658  0.1371
 8097SOL    HW225191   3.717   5.591   4.103  0.1403  0.0507  1.5792
 8098SOL     OW25192   4.048   1.848   4.615  0.4523 -0.1368  0.0793
 8098SOL    HW125193   3.991   1.786   4.561  0.3255 -1.7316  1.9140
 8098SOL    HW225194   4.131   1.800   4.643  0.9711  0.9644  0.4660
 8099SOL     OW25195   6.367   0.235   5.309  0.4632  0.2819  0.7776
 8099SOL    HW125196   6.439   0.166   5.303  1.2272  0.8927  2.3152
 8099SOL    HW225197   6.313   0.234   5.226  2.1965 -0.2581 -0.4034
 8100SOL     OW25198   5.991   6.615   5.028  0.1159 -0.3485  0.3815
 8100SOL    HW125199   6.060   6.575   4.968  1.6097  1.2667  0.9462
 8100SOL    HW225200   5.901   6.610   4.984  1.4111  2.8465 -3.1556
 8101SOL     OW25201   2.872   0.431   4.089 -0.1888  0.2134  0.1871
 8101SOL    HW125202   2.836   0.394   4.004 -0.0362 -0.8478  0.5607
 8101SOL    HW225203   2.925   0.360   4.136  1.7929  1.4845 -0.0099
 8102SOL     OW25204   1.328   3.708   5.274 -0.2080  0.4566 -0.1627
 8102SOL    HW125205   1.369   3.662   5.195  0.8169 -2.7057  2.0612
 8102SOL    HW225206   1.398   3.731   5.341 -1.2474  1.6169  0.5842
 8103SOL     OW25207   4.195   1.458   0.776  0.1136  0.2141 -0.2558
 8103SOL    HW125208   4.144   1.536   0.741  0.1383  0.8303  1.0485
 8103SOL    HW225209   4.293   1.478   0.772  0.0730  1.0800  1.8641
 8104SOL     OW25210   2.434   4.548   6.610  0.3790 -0.1482 -0.1283
 8104SOL    HW125211   2.345   4.585   6.638  0.8878  0.0395  1.3655
 8104SOL    HW225212   2.444   4.557   6.511 -2.4940 -2.9488 -0.8476
 8105SOL     OW25213   1.504   3.478   3.237 -0.1950  0.6990 -0.3140
 8105SOL    HW125214   1.564   3.405   3.268 -1.1123 -0.5106 -1.2480
 8105SOL    HW225215   1.447   3.510   3.313 -1.4545 -1.2535 -0.3537
 8106SOL     OW25216   2.688   5.635   3.876 -0.0785  0.3982  0.5659
 8106SOL    HW125217   2.753   5.568   3.910 -0.0149 -0.1470 -0.5573
 8106SOL    HW225218   2.595   5.611   3.906 -0.0259 -0.0807  0.3597
 8107SOL     OW25219   1.860   4.116   4.346  0.4560  0.1927  0.6488
 8107SOL    HW125220   1.808   4.038   4.379  1.3743 -0.2166  1.1543
 8107SOL    HW225221   1.799   4.177   4.294 -0.3808 -0.5713  0.7097
 8108SOL     OW25222   7.001   3.167   6.597 -0.5701  0.1351 -0.2197
 8108SOL    HW125223   7.042   3.253   6.626 -1.1253  0.0152  1.0036
 8108SOL    HW225224   6.933   3.138   6.665 -1.6147 -0.4128 -1.4475
 8109SOL     OW25225   0.462   3.671   4.203  0.1812  0.0851  0.4371
 8109SOL    HW125226   0.491   3.657   4.298 -0.6957 -0.1236  0.6805
 8109SOL    HW225227   0.542   3.670   4.143  0.6716 -0.4848  1.0913
 8110SOL     OW25228   3.543   1.600   2.168  0.3176  0.1385 -0.1503
 8110SOL    HW125229   3.623   1.642   2.125 -0.1995  1.2045 -0.0936
 8110SOL    HW225230   3.542   1.623   2.265 -0.3654  0.6172 -0.2667
 8111SOL     OW25231   6.212   0.988   4.461 -0.5697 -0.8308 -0.6500
 8111SOL    HW125232   6.204   0.944   4.550 -1.4263 -0.4907 -0.5521
 8111SOL    HW225233   6.301   0.966   4.421 -0.6604 -1.9735 -0.2479
 8112SOL     OW25234   3.096   0.138   4.880 -0.5648 -0.4923 -0.3267
 8112SOL    HW125235   3.125   0.070   4.812  0.5413 -0.5704  0.1998
 8112SOL    HW225236   3.042   0.209   4.835 -0.3203 -0.8367 -1.1826
 8113SOL     OW25237   3.904   2.431   6.842  0.2237  0.6379 -0.6682
 8113SOL    HW125238   3.951   2.515   6.812 -1.2260  0.9107 -2.3825
 8113SOL    HW225239   3.835   2.407   6.774  0.2834 -1.7115  0.0470
 8114SOL     OW25240   2.724   2.182   1.424 -0.0503  0.2518  0.2878
 8114SOL    HW125241   2.695   2.129   1.344  0.2635  1.6748 -0.8042
 8114SOL    HW225242   2.750   2.119   1.497  0.4311 -1.1165 -0.9921
 8115SOL     OW25243   3.803   0.678   2.344  0.0153 -0.1957 -0.1653
 8115SOL    HW125244   3.771   0.720   2.429 -0.7516 -1.2720  0.1046
 8115SOL    HW225245   3.826   0.582   2.361  0.4777 -0.2497 -1.0376
 8116SOL     OW25246   5.787   0.632   6.423 -0.3516  0.2181 -0.0781
 8116SOL    HW125247   5.833   0.708   6.378 -0.8139  0.6864  0.2436
 8116SOL    HW225248   5.689   0.650   6.428 -0.6885 -1.0458 -1.3044
 8117SOL     OW25249   1.388   0.566   5.513 -0.1225  0.1038 -0.0939
 8117SOL    HW125250   1.385   0.508   5.595 -0.1483  0.5235  0.2059
 8117SOL    HW225251   1.309   0.627   5.512  0.4958  0.9395  0.2064
 8118SOL     OW25252   0.217   3.141   6.330 -0.7269  0.1126  0.0024
 8118SOL    HW125253   0.193   3.191   6.247 -0.9911  1.0971  0.6652
 8118SOL    HW225254   0.315   3.120   6.330  0.0332  3.2158  1.0477
 8119SOL     OW25255   5.306   6.818   3.916 -0.2402 -0.0497 -0.0766
 8119SOL    HW125256   5.286   6.912   3.941 -0.2036 -0.1842  0.4619
 8119SOL    HW225257   5.386   6.816   3.856 -0.4803  0.2918 -0.4118
 8120SOL     OW25258   2.954   3.404   0.429  0.4326 -0.0353  0.2061
 8120SOL    HW125259   2.952   3.409   0.329 -0.3973 -0.3357  0.1942
 8120SOL    HW225260   2.954   3.308   0.457  0.7888  0.0470  0.4969
 8121SOL     OW25261   1.034   5.010   1.191  0.1700  0.1173  0.5500
 8121SOL    HW125262   1.089   5.023   1.274  1.4793 -2.2986  0.1392
 8121SOL    HW225263   1.000   5.099   1.160  3.4048  1.6966  1.1382
 8122SOL     OW25264   2.551   6.577   0.931 -0.0064 -0.1790  0.0861
 8122SOL    HW125265   2.526   6.631   1.011 -1.0161  1.2376 -1.1147
 8122SOL    HW225266   2.555   6.480   0.955 -0.7474  0.1720  1.7292
 8123SOL     OW25267   6.728   6.150   6.116  0.4145  0.3703  0.1773
 8123SOL    HW125268   6.797   6.211   6.075 -0.4069  0.1105 -1.6731
 8123SOL    HW225269   6.685   6.196   6.193  0.7960  1.5832 -0.3117
 8124SOL     OW25270   5.784   6.861   0.680 -0.3806 -0.2117 -0.0084
 8124SOL    HW125271   5.843   6.780   0.680  0.9591  0.7070  1.1271
 8124SOL    HW225272   5.839   6.942   0.660 -1.3754  0.6230  0.5220
 8125SOL     OW25273   1.976   0.562   3.500  0.1038  0.4524  0.3115
 8125SOL    HW125274   1.931   0.559   3.411 -1.1311  2.2735  0.8075
 8125SOL    HW225275   2.048   0.631   3.498 -0.3672  0.9696  0.8884
 8126SOL     OW25276   4.807   4.522   3.098 -0.1378 -0.3522 -0.3720
 8126SOL    HW125277   4.831   4.481   3.009  1.3248  1.0938 -0.6809
 8126SOL    HW225278   4.790   4.620   3.086 -1.8106 -0.4684  0.6623
 8127SOL     OW25279   2.224   5.593   0.331 -0.1324  0.1105  0.2778
 8127SOL    HW125280   2.222   5.493   0.339  0.5448  0.0632  0.0074
 8127SOL    HW225281   2.287   5.630   0.399  0.4466  0.2548 -0.3250
 8128SOL     OW25282   2.681   3.697   1.770 -0.0822 -0.1894  0.1698
 8128SOL    HW125283   2.722   3.610   1.743 -1.8165 -0.3341 -2.3371
 8128SOL    HW225284   2.585   3.699   1.741 -0.4695  2.0545  1.3684
 8129SOL     OW25285   3.877   1.644   5.831 -0.4277 -0.2659 -0.2760
 8129SOL    HW125286   3.850   1.681   5.920 -1.2363 -0.6203 -0.3589
 8129SOL    HW225287   3.795   1.626   5.777  0.0623  0.0026 -1.1204
 8130SOL     OW25288   0.796   4.719   5.859  0.0271 -0.2366  0.5095
 8130SOL    HW125289   0.707   4.764   5.861 -0.9547 -2.0358  2.9856
 8130SOL    HW225290   0.868   4.787   5.873 -0.8148  1.3314 -2.0973
 8131SOL     OW25291   2.978   1.407   0.169  0.0863  0.4773 -0.2530
 8131SOL    HW125292   2.979   1.316   0.128 -0.9870  0.1287  0.4316
 8131SOL    HW225293   2.883   1.438   0.179  0.4128  1.4276  0.0568
 8132SOL     OW25294   5.705   6.475   6.246 -0.4922 -0.4433  0.1980
 8132SOL    HW125295   5.757   6.391   6.260  0.6802  0.3874  0.9470
 8132SOL    HW225296   5.640   6.487   6.320 -0.2876 -0.4225  0.3745
 8133SOL     OW25297   2.882   2.378   1.076 -0.5692 -0.2577  0.0996
 8133SOL    HW125298   2.941   2.304   1.045  0.1755  1.2604 -2.4597
 8133SOL    HW225299   2.801   2.383   1.018 -2.1908 -0.9279  2.1892
 8134SOL     OW25300   0.981   0.491   5.653 -0.3402 -0.4526 -0.1211
 8134SOL    HW125301   1.032   0.576   5.640 -2.3831  1.1355  1.4736
 8134SOL    HW225302   0.986   0.463   5.748 -0.9769 -1.2536 -0.3082
 8135SOL     OW25303   6.962   6.383   1.461 -0.1020 -0.7873  0.8925
 8135SOL    HW125304   6.886   6.415   1.405 -1.1908 -0.9189  2.2591
 8135SOL    HW225305   7.010   6.461   1.500  0.1183 -0.7232  0.5028
 8136SOL     OW25306   4.684   5.119   4.325  0.0590  0.2892  0.0101
 8136SOL    HW125307   4.765   5.149   4.376  1.4823  0.1495 -2.0184
 8136SOL    HW225308   4.707   5.115   4.228 -2.6458  0.9766 -0.7273
 8137SOL     OW25309   3.105   1.326   3.698  0.5145  0.3719  0.0440
 8137SOL    HW125310   3.067   1.400   3.643 -0.9253 -0.7858 -0.6163
 8137SOL    HW225311   3.195   1.300   3.662  1.4045  2.2635  0.7754
 8138SOL     OW25312   5.160   3.019   6.741  0.0382  0.3600  0.0087
 8138SOL    HW125313   5.137   2.922   6.736  2.6615 -0.2719 -1.9219
 8138SOL    HW225314   5.086   3.073   6.700  0.2155 -1.1999 -2.5792
 8139SOL     OW25315   1.997   2.572   3.811  0.7056  0.4875  0.0127
 8139SOL    HW125316   2.084   2.618   3.824  1.0719 -0.6308  1.9818
 8139SOL    HW225317   1.924   2.626   3.853  1.2530 -0.9362  3.1169
 8140SOL     OW25318   2.632   0.018   6.595  0.3989  0.0090 -0.1433
 8140SOL    HW125319   2.627  -0.035   6.680 -0.1681 -0.6873 -0.6058
 8140SOL    HW225320   2.543   0.020   6.551  0.7330  0.1966 -0.8302
 8141SOL     OW25321   4.916   1.701   6.059 -0.0225 -0.6355  0.0467
 8141SOL    HW125322   4.897   1.784   6.007  0.0846 -0.3874  0.3963
 8141SOL    HW225323   4.830   1.665   6.095 -0.1846 -1.1973 -0.8676
 8142SOL     OW25324   2.247   5.165   0.033  0.5977  0.3046 -0.2145
 8142SOL    HW125325   2.273   5.068   0.032 -1.1427 -0.1899 -0.9960
 8142SOL    HW225326   2.256   5.203  -0.059  1.0627  0.8503  0.0479
 8143SOL     OW25327   5.238   6.172   1.792 -0.5658  0.3630 -0.0218
 8143SOL    HW125328   5.290   6.161   1.707  0.9106 -0.5686  0.9558
 8143SOL    HW225329   5.182   6.091   1.808 -0.4896  0.3424  0.1356
 8144SOL     OW25330   1.348   5.815   5.433 -0.1404 -0.3723 -0.9611
 8144SOL    HW125331   1.355   5.811   5.333 -3.1243  1.9504 -1.4162
 8144SOL    HW225332   1.313   5.904   5.461  0.0536 -1.1453  2.1721
 8145SOL     OW25333   6.073   5.927   1.388 -0.2141  0.4324  0.6629
 8145SOL    HW125334   5.982   5.886   1.400 -0.7046  1.8560  2.2432
 8145SOL    HW225335   6.142   5.867   1.429 -0.2184 -1.2275 -1.5622
 8146SOL     OW25336   5.664   1.533   6.579  0.3421 -0.3433  0.4994
 8146SOL    HW125337   5.613   1.449   6.560 -3.4227  1.7711  0.2043
 8146SOL    HW225338   5.632   1.572   6.665  1.0523  1.4300  0.0023
 8147SOL     OW25339   5.299   2.359   0.970 -0.4469  0.5081  0.7580
 8147SOL    HW125340   5.214   2.323   0.933  0.0317 -1.3982  1.3943
 8147SOL    HW225341   5.281   2.443   1.021 -1.8356  0.4927  0.3089
 8148SOL     OW25342   4.234   5.380   5.172  0.2368  0.2950 -0.5483
 8148SOL    HW125343   4.273   5.383   5.264 -1.4276 -1.0514  0.2634
 8148SOL    HW225344   4.187   5.293   5.159 -0.2698  0.7979 -2.4029
 8149SOL     OW25345   3.291   0.272   2.146  0.0039  0.2237  0.3027
 8149SOL    HW125346   3.379   0.234   2.117  0.1071  1.3337 -0.9222
 8149SOL    HW225347   3.219   0.239   2.085 -0.3027 -0.0082  0.7861
 8150SOL     OW25348   1.714   5.171   1.624  0.2974 -0.1787  0.1378
 8150SOL    HW125349   1.718   5.269   1.603 -0.6583 -0.1192  0.1869
 8150SOL    HW225350   1.716   5.119   1.539 -4.3223  0.0831 -0.3813
 8151SOL     OW25351   5.150   5.070   3.899  0.5333 -0.2159  0.9846
 8151SOL    HW125352   5.061   5.104   3.932  0.1775 -0.6153  0.4593
 8151SOL    HW225353   5.203   5.036   3.976 -0.1230 -0.7655  1.2075
 8152SOL     OW25354   6.143   2.579   4.046 -0.2362  0.3060 -0.0058
 8152SOL    HW125355   6.087   2.528   3.980 -1.1121 -1.1940  1.8109
 8152SOL    HW225356   6.157   2.672   4.012  0.4479 -0.7247 -2.9085
 8153SOL     OW25357   1.535   2.483   2.595  0.7169  0.0143  0.3825
 8153SOL    HW125358   1.487   2.495   2.509  0.4112  0.3529  0.5981
 8153SOL    HW225359   1.557   2.573   2.634  1.8364 -0.1203  0.1174
 8154SOL     OW25360   4.734   0.493   4.747  0.2659  0.4757  0.0282
 8154SOL    HW125361   4.752   0.410   4.694 -1.2716 -0.4747  0.9553
 8154SOL    HW225362   4.745   0.474   4.844 -0.0516  1.3794  0.2532
 8155SOL     OW25363   7.015   2.463   3.181 -0.0668 -0.2614  0.1373
 8155SOL    HW125364   6.952   2.488   3.255 -0.0137  1.2732 -0.3143
 8155SOL    HW225365   7.094   2.416   3.219 -0.6299 -0.6075  0.9058
 8156SOL     OW25366   3.477   6.158   0.417 -0.1605  0.2518 -0.3490
 8156SOL    HW125367   3.475   6.240   0.474  1.2939 -0.1474  0.3244
 8156SOL    HW225368   3.572   6.134   0.396 -0.5359 -1.4324 -0.2689
 8157SOL     OW25369   4.838   3.508   6.355 -0.2748  0.0273 -0.1190
 8157SOL    HW125370   4.770   3.576   6.328  0.1712  0.6940  0.4278
 8157SOL    HW225371   4.930   3.544   6.339 -0.0103 -1.2952 -1.9345
 8158SOL     OW25372   5.863   4.360   6.899  0.0128  0.4196  0.0881
 8158SOL    HW125373   5.789   4.403   6.846 -0.5811 -0.1003  0.4790
 8158SOL    HW225374   5.861   4.261   6.884  0.2219  0.3350  0.6020
 8159SOL     OW25375   3.244   4.906   2.876 -0.3793  0.1591 -0.6203
 8159SOL    HW125376   3.304   4.916   2.955  0.5001  0.8754 -1.3627
 8159SOL    HW225377   3.297   4.917   2.792 -1.2531 -0.8449 -1.3240
 8160SOL     OW25378   6.085   6.525   3.756 -0.4788 -0.5753  0.4410
 8160SOL    HW125379   6.136   6.611   3.747 -0.4941 -0.5069  0.9500
 8160SOL    HW225380   6.147   6.448   3.741 -0.3237 -0.4833  0.5977
 8161SOL     OW25381   4.289   5.813   0.803  0.2709 -0.2042  0.3399
 8161SOL    HW125382   4.326   5.811   0.710  1.7508 -1.8096  0.9094
 8161SOL    HW225383   4.259   5.721   0.828 -1.5854  0.5220  0.9211
 8162SOL     OW25384   0.081   4.840   6.931  0.4148 -0.0858  0.5585
 8162SOL    HW125385   0.063   4.785   6.850 -1.1404  1.2410 -0.0516
 8162SOL    HW225386   0.023   4.807   7.006  1.3879 -0.9026  0.9780
 8163SOL     OW25387   1.976   3.098   5.817  0.4147 -0.0611  0.0906
 8163SOL    HW125388   1.993   3.194   5.838 -0.8925 -0.0605  1.3146
 8163SOL    HW225389   2.039   3.041   5.870 -0.9172  0.0536  1.9003
 8164SOL     OW25390   3.705   1.791   5.629 -0.0777  0.1799  0.0146
 8164SOL    HW125391   3.653   1.707   5.641  0.6340 -0.0995  1.3662
 8164SOL    HW225392   3.710   1.814   5.532 -1.8229 -0.3367 -0.2220
 8165SOL     OW25393   6.234   5.236   6.137 -0.5155 -0.2230 -0.7804
 8165SOL    HW125394   6.234   5.232   6.237 -1.9226 -3.3432 -0.7863
 8165SOL    HW225395   6.148   5.276   6.105 -0.2146  0.4453 -0.7732
 8166SOL     OW25396   3.045   1.600   4.432 -0.2935 -0.5086  0.4799
 8166SOL    HW125397   3.092   1.685   4.410 -0.3728 -0.9969 -1.8837
 8166SOL    HW225398   2.955   1.599   4.389  0.0057 -2.0508 -0.1935
 8167SOL     OW25399   0.650   0.480   4.486  0.0410 -0.1054  0.1693
 8167SOL    HW125400   0.600   0.406   4.442  1.2193 -0.4961 -0.5829
 8167SOL    HW225401   0.602   0.566   4.471  0.2631 -0.2671 -1.7086
 8168SOL     OW25402   2.375   0.918   1.304 -0.3125  0.1160 -0.0491
 8168SOL    HW125403   2.418   0.849   1.362  2.3653  1.3585 -0.4395
 8168SOL    HW225404   2.361   1.002   1.357 -1.3060  0.0840 -0.2358
 8169SOL     OW25405   5.055   1.875   6.993  0.0204 -0.4340  0.0933
 8169SOL    HW125406   5.040   1.973   6.979  0.4533 -0.3627  0.1114
 8169SOL    HW225407   5.058   1.857   7.092 -0.6019 -0.5550  0.0966
 8170SOL     OW25408   1.050   5.572   1.567  0.4988  0.6121  0.2791
 8170SOL    HW125409   0.951   5.580   1.574  0.6449  1.9181  1.3676
 8170SOL    HW225410   1.092   5.662   1.583  1.9688 -0.3864  2.4283
 8171SOL     OW25411   2.734   6.479   6.773  0.2493 -0.0150  0.1729
 8171SOL    HW125412   2.771   6.496   6.864 -1.3649  2.3697  0.4650
 8171SOL    HW225413   2.749   6.559   6.715 -1.3282 -0.3443 -0.7460
 8172SOL     OW25414   1.744   2.151   3.736  0.1103 -0.4847  0.1364
 8172SOL    HW125415   1.793   2.066   3.718  0.4515 -0.1862 -0.3593
 8172SOL    HW225416   1.805   2.229   3.721 -0.0872 -0.1587  0.9498
 8173SOL     OW25417   5.511   0.952   2.460  0.1291  0.6513  0.6651
 8173SOL    HW125418   5.465   0.867   2.486 -0.0769 -0.6935 -3.3576
 8173SOL    HW225419   5.596   0.961   2.512 -0.7275 -1.0051  2.4955
 8174SOL     OW25420   0.700   0.308   2.063 -0.3238  0.4400  0.2007
 8174SOL    HW125421   0.663   0.334   2.153 -0.4248  1.1787 -0.0457
 8174SOL    HW225422   0.680   0.212   2.045 -0.7624  0.4256  0.7419
 8175SOL     OW25423   1.078   2.925   6.470 -0.6104 -0.0045 -0.7483
 8175SOL    HW125424   1.119   2.865   6.401 -1.6500  0.5019 -1.8418
 8175SOL    HW225425   1.147   2.991   6.501  0.4407 -1.4544  0.1923
 8176SOL     OW25426   1.719   6.708   1.367  0.0485  0.2200  0.0457
 8176SOL    HW125427   1.760   6.631   1.416  3.6588  1.0101 -1.4114
 8176SOL    HW225428   1.711   6.787   1.428 -1.1562 -0.4815  0.8366
 8177SOL     OW25429   5.587   6.501   3.801 -0.0784 -0.3848 -0.2118
 8177SOL    HW125430   5.512   6.440   3.773 -1.1537  0.0550  1.5525
 8177SOL    HW225431   5.575   6.526   3.897  1.1940  1.3692 -0.4707
 8178SOL     OW25432   2.269   6.717   6.641  0.5503 -1.0551 -0.3020
 8178SOL    HW125433   2.273   6.621   6.667  0.6749 -0.7266  0.9479
 8178SOL    HW225434   2.284   6.774   6.722 -2.1592  0.0609 -0.5053
 8179SOL     OW25435   6.248   1.978   5.323 -0.3575 -0.6706  0.3564
 8179SOL    HW125436   6.330   2.027   5.293 -1.9535  2.8560  1.2318
 8179SOL    HW225437   6.197   1.947   5.243 -0.4219  1.2221 -0.3754
 8180SOL     OW25438   3.496   1.350   6.981  0.3537  0.3936 -0.0344
 8180SOL    HW125439   3.573   1.286   6.982  0.3483  0.3904  0.8002
 8180SOL    HW225440   3.528   1.442   6.961  0.4965  0.2987 -0.2430
 8181SOL     OW25441   0.727   1.730   0.592  0.4239 -0.0485 -0.0073
 8181SOL    HW125442   0.747   1.632   0.583 -0.5660 -0.6095  2.7517
 8181SOL    HW225443   0.699   1.767   0.503  1.8027 -1.9966 -1.3321
 8182SOL     OW25444   3.799   3.670   3.266 -0.2905 -0.3515  0.0580
 8182SOL    HW125445   3.898   3.659   3.257 -0.3977 -0.8196 -0.6059
 8182SOL    HW225446   3.754   3.581   3.258 -0.7149 -0.2566  1.1568
 8183SOL     OW25447   6.842   3.023   5.430  0.4997  0.0731  0.2965
 8183SOL    HW125448   6.879   3.114   5.408  0.3045  0.1190  0.1502
 8183SOL    HW225449   6.792   2.988   5.351 -0.1739  0.2171  0.6473
 8184SOL     OW25450   0.632   5.989   0.290 -0.6832 -1.0993  0.3076
 8184SOL    HW125451   0.645   5.988   0.389 -0.1600 -1.4912  0.2411
 8184SOL    HW225452   0.586   5.906   0.261 -1.6647 -0.5666  0.3218
 8185SOL     OW25453   0.635   5.511   5.396 -0.6784  0.3900  0.5719
 8185SOL    HW125454   0.541   5.477   5.404 -0.3654 -0.7407 -0.3874
 8185SOL    HW225455   0.694   5.440   5.358  0.5017  1.2143  0.7938
 8186SOL     OW25456   4.420   4.556   5.401  0.2193  0.0902 -0.2552
 8186SOL    HW125457   4.439   4.470   5.447  1.7705 -0.2963 -1.5310
 8186SOL    HW225458   4.324   4.560   5.375  0.8305 -3.1235 -3.7362
 8187SOL     OW25459   3.744   0.547   6.047  0.7098  0.2585 -0.0787
 8187SOL    HW125460   3.766   0.450   6.043 -1.6630 -0.3145 -0.7387
 8187SOL    HW225461   3.780   0.593   5.966  1.5336 -0.1321  0.0614
 8188SOL     OW25462   4.871   3.209   3.029 -0.0790  0.5437  0.2244
 8188SOL    HW125463   4.839   3.114   3.024  1.1771  0.1290 -0.4781
 8188SOL    HW225464   4.869   3.240   3.124 -0.9484 -0.0153  0.4007
 8189SOL     OW25465   5.657   0.420   2.405 -0.8253 -0.0202  0.7452
 8189SOL    HW125466   5.681   0.509   2.367 -0.3623  0.5110  2.1896
 8189SOL    HW225467   5.563   0.397   2.380 -0.8220  0.6933  0.0364
 8190SOL     OW25468   4.836   3.941   2.940 -0.0911  0.2156  0.2856
 8190SOL    HW125469   4.900   3.874   2.902  0.8231  1.1636  0.1184
 8190SOL    HW225470   4.833   3.931   3.039  0.3747  0.2169  0.3025
 8191SOL     OW25471   3.573   5.244   2.011 -0.0346  0.4261 -0.4429
 8191SOL    HW125472   3.575   5.148   2.042  0.0283  0.8213  0.8420
 8191SOL    HW225473   3.615   5.251   1.921  1.9654 -0.4467  0.3714
 8192SOL     OW25474   2.090   4.696   1.513 -0.0082 -0.3733  0.4783
 8192SOL    HW125475   2.163   4.763   1.502 -1.1739  0.8904  0.2683
 8192SOL    HW225476   2.124   4.620   1.569  1.5502  0.0294  0.1400
 8193SOL     OW25477   6.956   5.631   5.810  0.0474 -0.2491  0.3510
 8193SOL    HW125478   7.041   5.649   5.861  0.7015 -2.7931  0.2967
 8193SOL    HW225479   6.899   5.568   5.862 -0.3237 -1.0877 -1.0322
 8194SOL     OW25480   3.644   6.091   0.962  0.6784 -0.2745  0.2211
 8194SOL    HW125481   3.693   6.157   0.905 -1.9016  0.8905 -0.7965
 8194SOL    HW225482   3.628   6.131   1.052 -0.3804  0.3159 -0.2088
 8195SOL     OW25483   0.088   1.726   1.992 -0.2622 -0.1580  0.0305
 8195SOL    HW125484   0.102   1.825   1.994  0.3214 -0.2447  0.9609
 8195SOL    HW225485   0.001   1.703   2.037 -0.2637 -0.0862  0.0640
 8196SOL     OW25486   3.505   5.432   5.717 -0.0269 -0.0187 -0.2020
 8196SOL    HW125487   3.428   5.493   5.733  0.6388  0.7027  0.3570
 8196SOL    HW225488   3.577   5.482   5.667 -0.7130 -1.2649 -2.5792
 8197SOL     OW25489   2.749   0.715   1.608 -0.4752 -0.5454  0.1113
 8197SOL    HW125490   2.757   0.666   1.694 -1.3403 -2.1453 -0.6788
 8197SOL    HW225491   2.839   0.717   1.563  0.5412  2.2931  2.0062
 8198SOL     OW25492   2.503   6.709   2.159 -0.6653  0.1336 -0.0006
 8198SOL    HW125493   2.449   6.755   2.088 -0.3491  0.5929  0.0510
 8198SOL    HW225494   2.442   6.670   2.228 -0.9140  2.6806  1.3299
 8199SOL     OW25495   5.386   3.382   3.602 -0.5799 -0.3142 -0.3699
 8199SOL    HW125496   5.454   3.334   3.547  1.2706  0.3127  1.2220
 8199SOL    HW225497   5.381   3.477   3.572  2.1582  0.6702  1.8035
 8200SOL     OW25498   6.209   2.634   1.141 -0.0251 -0.3145 -0.5602
 8200SOL    HW125499   6.292   2.675   1.178 -0.2153 -1.2268  0.9521
 8200SOL    HW225500   6.230   2.546   1.100 -0.2594 -0.6015 -0.0691
 8201SOL     OW25501   1.218   1.039   3.852 -0.0689  0.2138  0.2021
 8201SOL    HW125502   1.144   1.042   3.920 -0.2049  0.5554  0.0401
 8201SOL    HW225503   1.295   1.095   3.885  0.0708 -0.0463  0.3165
 8202SOL     OW25504   0.698   4.680   4.035  0.0393 -0.1198  0.2227
 8202SOL    HW125505   0.722   4.761   4.087  0.4097 -0.3273  0.3756
 8202SOL    HW225506   0.652   4.614   4.094  1.4543 -0.8247  0.5749
 8203SOL     OW25507   4.591   2.573   0.031 -0.1171 -0.5728  0.2313
 8203SOL    HW125508   4.665   2.552   0.096  0.1464  1.7946  0.7667
 8203SOL    HW225509   4.523   2.630   0.076 -3.0224 -3.6399  0.1176
 8204SOL     OW25510   3.077   5.043   0.860  0.1338 -0.7221  0.7399
 8204SOL    HW125511   2.985   5.052   0.900 -0.8024  0.9826 -1.6060
 8204SOL    HW225512   3.090   4.949   0.829 -0.8132 -0.9888  1.0929
 8205SOL     OW25513   6.437   4.780   4.502  0.0082 -0.0392 -0.3059
 8205SOL    HW125514   6.483   4.802   4.416 -0.0043 -0.1809 -0.3485
 8205SOL    HW225515   6.421   4.682   4.507  1.7201 -0.3053  0.7148
 8206SOL     OW25516   3.736   7.003   0.546  0.1097 -0.1184  0.3224
 8206SOL    HW125517   3.665   6.933   0.540  0.1809 -0.2635  1.1359
 8206SOL    HW225518   3.826   6.960   0.536  0.1641 -0.1800  1.0327
 8207SOL     OW25519   3.475   2.944   4.679  0.0353 -0.1611  0.3583
 8207SOL    HW125520   3.478   3.042   4.699  0.6059 -0.0710 -0.1306
 8207SOL    HW225521   3.400   2.925   4.617  0.4006  0.0876 -0.1622
 8208SOL     OW25522   0.191   0.858   1.850 -0.0835 -0.3470 -0.7063
 8208SOL    HW125523   0.091   0.861   1.853 -0.1077 -0.2656 -1.3860
 8208SOL    HW225524   0.220   0.831   1.758  0.5160 -0.6083 -0.4420
 8209SOL     OW25525   1.619   2.433   5.308 -0.2525 -0.6174  0.2220
 8209SOL    HW125526   1.707   2.478   5.293 -0.7363  0.3603  0.1970
 8209SOL    HW225527   1.608   2.412   5.405  0.4090 -1.6170  0.0869
 8210SOL     OW25528   2.087   1.195   0.359 -0.0118 -0.8802  0.3119
 8210SOL    HW125529   2.098   1.259   0.283  0.5027 -0.0657  1.0554
 8210SOL    HW225530   2.143   1.114   0.342 -1.0975 -1.4232 -0.9046
 8211SOL     OW25531   3.472   4.174   0.491 -0.7686 -0.3515  0.3354
 8211SOL    HW125532   3.394   4.223   0.451 -2.3282 -1.5930  1.7107
 8211SOL    HW225533   3.467   4.180   0.590 -0.3871 -2.3226  0.5126
 8212SOL     OW25534   1.380   2.270   1.941  0.6052 -0.6920  0.6338
 8212SOL    HW125535   1.433   2.354   1.928 -1.1679  0.4398  0.4689
 8212SOL    HW225536   1.337   2.271   2.031 -0.2977 -0.9236  0.2115
 8213SOL     OW25537   5.455   4.193   1.236  0.2903 -0.1232 -0.4619
 8213SOL    HW125538   5.371   4.168   1.285  0.8960 -1.3815 -0.0411
 8213SOL    HW225539   5.505   4.111   1.210  0.6392  0.5622 -2.0825
 8214SOL     OW25540   5.628   4.321   2.297 -0.5901 -0.2407 -0.1800
 8214SOL    HW125541   5.617   4.223   2.316 -0.3807 -0.9888 -3.4110
 8214SOL    HW225542   5.539   4.361   2.277 -0.5521 -0.0054  0.1211
 8215SOL     OW25543   5.800   5.158   5.778 -0.1311 -0.1240 -0.2325
 8215SOL    HW125544   5.832   5.249   5.803  0.6076  0.0335 -1.6172
 8215SOL    HW225545   5.710   5.165   5.734 -1.2010 -0.3503  1.8048
 8216SOL     OW25546   4.427   4.688   4.855  0.2005 -0.0203  0.5298
 8216SOL    HW125547   4.524   4.706   4.869 -0.3593  1.3476  3.3230
 8216SOL    HW225548   4.402   4.603   4.902  0.1691 -0.8852 -0.9800
 8217SOL     OW25549   3.103   4.807   0.720 -0.3722 -0.1034  0.0659
 8217SOL    HW125550   3.078   4.847   0.632 -0.6479 -0.7952 -0.1746
 8217SOL    HW225551   3.040   4.733   0.742  0.6058 -0.9414  0.1256
 8218SOL     OW25552   6.063   6.232   5.614  0.4419  0.1054  0.1919
 8218SOL    HW125553   6.000   6.245   5.690  1.1889  0.2620  0.7856
 8218SOL    HW225554   6.064   6.314   5.557  0.9134  0.5212  0.7878
 8219SOL     OW25555   5.337   1.697   0.861 -0.7271  0.5374 -0.0578
 8219SOL    HW125556   5.377   1.755   0.791 -1.2877  0.3049 -0.5797
 8219SOL    HW225557   5.328   1.748   0.947 -0.2385  0.8865 -0.2125
 8220SOL     OW25558   3.148   4.044   2.977  0.2013 -0.4190  0.0313
 8220SOL    HW125559   3.144   4.099   3.060 -1.0284  1.1458 -1.0068
 8220SOL    HW225560   3.211   4.085   2.912 -0.7301 -0.2140 -0.7593
 8221SOL     OW25561   5.685   6.215   3.679 -0.1943  0.3852  0.2547
 8221SOL    HW125562   5.751   6.272   3.630 -0.4286  0.3339 -0.1186
 8221SOL    HW225563   5.614   6.184   3.616 -0.1158 -0.2543  0.4743
 8222SOL     OW25564   6.233   2.397   1.782  0.4643  0.1457 -0.8795
 8222SOL    HW125565   6.307   2.464   1.791  1.2380 -0.8215  0.3610
 8222SOL    HW225566   6.147   2.438   1.811  1.4853 -0.2870  3.3813
 8223SOL     OW25567   1.282   3.123   6.542  0.5635 -0.1186 -0.9733
 8223SOL    HW125568   1.335   3.130   6.626 -0.3441  0.2171 -0.4208
 8223SOL    HW225569   1.273   3.213   6.500  0.7776 -0.2425 -1.2914
 8224SOL     OW25570   6.389   1.748   2.318 -0.4593 -0.1525  0.0673
 8224SOL    HW125571   6.365   1.684   2.390 -0.0844 -0.8587 -0.4294
 8224SOL    HW225572   6.426   1.699   2.240 -1.0811  0.5745 -0.7119
 8225SOL     OW25573   3.902   0.624   6.286  0.3506 -0.4312 -0.1393
 8225SOL    HW125574   3.846   0.588   6.212  0.6894 -2.8347  0.7093
 8225SOL    HW225575   3.983   0.567   6.299  0.2228 -0.1945  2.1767
 8226SOL     OW25576   4.193   0.400   0.822  0.5271  0.1908 -0.5564
 8226SOL    HW125577   4.177   0.305   0.847  1.2303  0.3701  0.6214
 8226SOL    HW225578   4.285   0.410   0.785  1.0724  0.6863  0.8830
 8227SOL     OW25579   0.098   1.034   4.084 -0.0152  0.2476  0.0433
 8227SOL    HW125580   0.054   1.090   4.014  0.1781  1.3499  0.7802
 8227SOL    HW225581   0.184   0.998   4.048 -0.0069  0.6573 -0.3558
 8228SOL     OW25582   5.612   2.338   5.056  0.2649  0.2252  0.6639
 8228SOL    HW125583   5.546   2.296   4.993  2.0779  0.5658 -1.5720
 8228SOL    HW225584   5.626   2.278   5.135 -0.6151 -1.1637 -0.2031
 8229SOL     OW25585   6.061   4.372   1.152 -0.1217 -0.0270  0.7339
 8229SOL    HW125586   6.076   4.415   1.063  0.8282 -1.7187  0.0298
 8229SOL    HW225587   6.026   4.279   1.138 -2.9267  0.7018  2.2162
 8230SOL     OW25588   5.544   1.879   6.005  0.4223 -0.6349  0.4455
 8230SOL    HW125589   5.509   1.816   5.936 -0.1090 -0.2227  0.3368
 8230SOL    HW225590   5.475   1.894   6.075  0.8079 -0.7213  0.8469
 8231SOL     OW25591   4.041   3.831   0.501  0.6713 -0.3133  0.1494
 8231SOL    HW125592   4.052   3.769   0.579  1.0225 -0.5461 -0.0807
 8231SOL    HW225593   4.128   3.875   0.482  0.8904 -1.1438 -0.8439
 8232SOL     OW25594   5.096   2.409   1.292  0.1079  0.2403 -0.4566
 8232SOL    HW125595   5.061   2.423   1.385  0.0038  0.3973 -0.5184
 8232SOL    HW225596   5.167   2.339   1.293  0.3934  0.5303 -0.1891
 8233SOL     OW25597   2.365   4.526   5.538  0.6796  0.4558 -0.2135
 8233SOL    HW125598   2.268   4.548   5.533  0.2813 -0.8956  0.8513
 8233SOL    HW225599   2.408   4.541   5.449 -0.5101  1.0095 -0.7060
 8234SOL     OW25600   3.068   4.539   5.321  0.0117 -0.0811 -0.8571
 8234SOL    HW125601   2.988   4.532   5.263  1.1496 -2.1724 -2.3014
 8234SOL    HW225602   3.044   4.514   5.415 -1.1612  0.1015 -1.0989
 8235SOL     OW25603   0.826   3.879   0.833 -0.3890 -0.0304  0.3982
 8235SOL    HW125604   0.855   3.802   0.890 -0.4990  0.3045  0.9182
 8235SOL    HW225605   0.727   3.884   0.833 -0.3912 -0.0872  0.0957
 8236SOL     OW25606   5.513   5.089   6.263 -0.5026 -0.1102 -0.1541
 8236SOL    HW125607   5.565   5.012   6.299  0.4367  0.2916 -0.6309
 8236SOL    HW225608   5.482   5.068   6.170  1.1815  0.7131 -0.9324
 8237SOL     OW25609   2.638   6.160   4.502 -0.1040  0.4911 -0.4301
 8237SOL    HW125610   2.626   6.252   4.538 -0.0929  0.5993 -0.6971
 8237SOL    HW225611   2.561   6.136   4.442 -0.3740  0.1222  0.0600
 8238SOL     OW25612   5.977   4.591   6.912  0.1919  0.0059 -0.7552
 8238SOL    HW125613   5.955   4.494   6.913 -0.8397  0.1900  1.5261
 8238SOL    HW225614   5.900   4.642   6.875 -1.1892  0.2056  2.0780
 8239SOL     OW25615   0.696   0.674   5.198  0.5058  0.4500  0.9202
 8239SOL    HW125616   0.716   0.592   5.144  2.3290  0.3831  1.6231
 8239SOL    HW225617   0.627   0.653   5.267  1.5803 -0.7609  1.6661
 8240SOL     OW25618   4.007   3.689   2.775 -0.3077  0.1088  0.5268
 8240SOL    HW125619   3.909   3.697   2.789 -0.2713  2.6129 -0.1567
 8240SOL    HW225620   4.055   3.750   2.839  0.6527  0.4862 -0.5207
 8241SOL     OW25621   5.543   1.323   6.121 -0.1510 -0.0140  0.2872
 8241SOL    HW125622   5.619   1.324   6.056  1.4768  0.5296  2.0901
 8241SOL    HW225623   5.538   1.233   6.165  0.0463  0.2126  0.7905
 8242SOL     OW25624   6.108   5.184   4.830 -0.4162 -0.4858  0.1993
 8242SOL    HW125625   6.121   5.164   4.927  0.8479  1.2161  0.4168
 8242SOL    HW225626   6.129   5.103   4.776  2.4993 -0.4478  1.1407
 8243SOL     OW25627   5.855   4.266   0.406  0.2126 -0.0494  0.2709
 8243SOL    HW125628   5.762   4.269   0.441 -0.6405 -0.5472 -1.8349
 8243SOL    HW225629   5.883   4.170   0.395  1.2750  0.0813  1.5586
 8244SOL     OW25630   0.269   6.587   6.843  0.6585  0.2412  0.3895
 8244SOL    HW125631   0.350   6.533   6.864  1.1808  1.0631  0.5226
 8244SOL    HW225632   0.193   6.556   6.900  1.1435  0.1494  0.9976
 8245SOL     OW25633   3.311   1.825   2.306  0.4991  0.1441  0.1130
 8245SOL    HW125634   3.285   1.763   2.232 -0.8581 -0.8892  1.3808
 8245SOL    HW225635   3.395   1.793   2.349  0.1109 -0.5079  0.3979
 8246SOL     OW25636   1.209   3.327   4.706 -0.2598 -0.0172  0.3785
 8246SOL    HW125637   1.224   3.232   4.735  0.7493  0.4037  1.3073
 8246SOL    HW225638   1.284   3.384   4.740 -2.2522  1.6536  2.2936
 8247SOL     OW25639   0.300   0.253   1.238  0.4201 -0.2028  0.2300
 8247SOL    HW125640   0.378   0.299   1.281  0.2034 -0.3420  0.7893
 8247SOL    HW225641   0.233   0.230   1.309 -1.0910  1.7705 -0.4644
 8248SOL     OW25642   4.774   5.523   4.254 -0.4533 -0.1515 -0.0703
 8248SOL    HW125643   4.691   5.549   4.204 -1.0265 -1.5995  0.0497
 8248SOL    HW225644   4.854   5.533   4.195 -0.7672  0.8649 -0.3266
 8249SOL     OW25645   3.341   3.139   6.179 -0.0335 -0.4411 -0.3298
 8249SOL    HW125646   3.280   3.183   6.244 -1.1349 -2.3285 -0.0491
 8249SOL    HW225647   3.350   3.198   6.098 -0.3094  0.9460  0.6054
 8250SOL     OW25648   3.240   3.772   2.422  0.9264  0.7748 -0.3465
 8250SOL    HW125649   3.168   3.831   2.460  0.3499 -0.1184 -0.0073
 8250SOL    HW225650   3.206   3.727   2.339  1.2049  0.5840 -0.3595
 8251SOL     OW25651   5.944   3.990   3.264 -0.0281 -0.1118  0.5385
 8251SOL    HW125652   5.960   4.033   3.353  2.2038 -0.5437  0.4038
 8251SOL    HW225653   6.030   3.983   3.214 -0.9791 -1.2580 -1.0543
 8252SOL     OW25654   0.841   1.180   5.465 -0.2092 -0.3763 -0.6110
 8252SOL    HW125655   0.868   1.268   5.502 -0.5761 -0.7426  0.5666
 8252SOL    HW225656   0.855   1.180   5.366 -0.8631  1.2374 -0.7311
 8253SOL     OW25657   4.618   4.663   6.551  0.5819  0.2515 -0.0883
 8253SOL    HW125658   4.664   4.689   6.636 -0.0431 -0.3820  0.4518
 8253SOL    HW225659   4.655   4.575   6.520 -0.3891 -0.3599  0.4556
 8254SOL     OW25660   4.435   4.798   6.008 -0.5900  0.2855  0.4952
 8254SOL    HW125661   4.498   4.723   6.026  1.3666  1.5403 -0.7393
 8254SOL    HW225662   4.405   4.794   5.912 -0.5092  1.0540  0.4350
 8255SOL     OW25663   1.999   5.133   3.707 -0.2900  0.4018  0.2529
 8255SOL    HW125664   2.064   5.132   3.631  1.2145 -0.6772  1.4984
 8255SOL    HW225665   1.907   5.112   3.672  0.1182  1.2609 -1.4325
 8256SOL     OW25666   5.176   0.777   2.505  0.5519  0.0906  0.0522
 8256SOL    HW125667   5.078   0.770   2.483  0.5312 -0.6059  0.3494
 8256SOL    HW225668   5.191   0.749   2.600  1.2299 -1.2880 -0.4276
 8257SOL     OW25669   5.203   3.351   3.812 -0.0365 -0.7927 -0.3287
 8257SOL    HW125670   5.283   3.385   3.763 -0.1121 -0.2715 -0.0997
 8257SOL    HW225671   5.129   3.418   3.804  0.3141 -0.1468  1.4536
 8258SOL     OW25672   6.991   2.558   0.809  0.1171 -0.4466  0.2916
 8258SOL    HW125673   6.960   2.463   0.802 -4.2042  0.6089  1.8776
 8258SOL    HW225674   7.015   2.579   0.903 -1.0894  0.5136  0.4109
 8259SOL     OW25675   3.429   2.088   4.068  0.0603 -0.1035  0.1745
 8259SOL    HW125676   3.365   2.087   3.990 -1.1860 -0.5207  1.1657
 8259SOL    HW225677   3.490   2.166   4.059 -1.0844  0.7601 -0.4279
 8260SOL     OW25678   2.620   1.770   2.098  0.4332 -0.3615  0.3621
 8260SOL    HW125679   2.601   1.803   2.190 -0.5683  2.9552 -0.8841
 8260SOL    HW225680   2.649   1.846   2.040  1.2374 -2.3500 -2.0625
 8261SOL     OW25681   3.499   0.139   0.519  0.4786 -0.3885  0.1258
 8261SOL    HW125682   3.552   0.057   0.493  0.1502 -0.6613  0.3079
 8261SOL    HW225683   3.540   0.180   0.600  1.6077  0.5622 -0.8910
 8262SOL     OW25684   2.081   3.557   0.540  0.2697  0.3660 -0.4634
 8262SOL    HW125685   2.159   3.601   0.496  0.0353  1.8952  0.5787
 8262SOL    HW225686   2.032   3.502   0.472  2.0163 -0.3588 -1.2190
 8263SOL     OW25687   2.244   3.998   6.376 -0.5843 -0.1348 -0.3674
 8263SOL    HW125688   2.213   4.078   6.325  0.9914  1.3827  0.9394
 8263SOL    HW225689   2.243   4.017   6.474  2.6736 -0.5242 -0.1280
 8264SOL     OW25690   1.968   1.119   2.626  0.2456 -0.3442  0.3735
 8264SOL    HW125691   2.049   1.113   2.569  1.2978  0.9348  1.6488
 8264SOL    HW225692   1.991   1.164   2.713 -1.2583 -2.2547  1.8633
 8265SOL     OW25693   1.683   5.870   6.902 -0.0043  0.3637 -0.4023
 8265SOL    HW125694   1.716   5.800   6.839  0.5974  0.0514  0.2560
 8265SOL    HW225695   1.586   5.886   6.885  0.3994  1.2125 -2.2869
 8266SOL     OW25696   0.943   1.261   5.159 -0.0203 -0.4965 -0.0165
 8266SOL    HW125697   1.016   1.327   5.176  2.0378 -2.7672  0.4664
 8266SOL    HW225698   0.889   1.291   5.080  0.5043  1.9644  0.4873
 8267SOL     OW25699   0.033   2.870   1.983  0.1476  0.0173  0.4896
 8267SOL    HW125700   0.094   2.840   2.056 -0.0501  0.7131  0.9552
 8267SOL    HW225701  -0.004   2.791   1.936  0.3897 -0.4385  1.0547
 8268SOL     OW25702   0.396   6.584   6.361 -0.1284 -0.5015  0.0490
 8268SOL    HW125703   0.426   6.629   6.277 -2.4149 -2.5902 -2.0234
 8268SOL    HW225704   0.470   6.527   6.397  0.3161 -0.9849 -1.5728
 8269SOL     OW25705   6.153   1.255   2.657 -0.4923 -0.0796  0.1707
 8269SOL    HW125706   6.102   1.329   2.613 -1.9066 -1.2264 -0.2201
 8269SOL    HW225707   6.249   1.281   2.667 -0.8287  1.5254 -0.5508
 8270SOL     OW25708   2.959   5.116   3.610 -0.3276 -0.6547  0.0707
 8270SOL    HW125709   2.990   5.035   3.560 -0.0308 -2.1714  2.5041
 8270SOL    HW225710   3.034   5.183   3.615 -0.9868  0.4784 -3.0825
 8271SOL     OW25711   0.306   0.187   1.661 -0.2613  0.1097 -0.6615
 8271SOL    HW125712   0.308   0.144   1.751 -1.7860  1.8874  0.3034
 8271SOL    HW225713   0.396   0.181   1.618  0.6656 -0.2232  1.2625
 8272SOL     OW25714   6.010   2.294   1.653 -0.3713  0.6013  0.8276
 8272SOL    HW125715   6.104   2.313   1.681 -0.0673 -2.0963  1.9636
 8272SOL    HW225716   5.947   2.333   1.720 -0.0347  1.5984  0.5786
 8273SOL     OW25717   1.680   6.360   0.339 -0.0277 -0.1901 -0.1065
 8273SOL    HW125718   1.712   6.307   0.261 -1.7323 -0.7024 -0.4933
 8273SOL    HW225719   1.589   6.395   0.321  0.6529  2.0951  0.5514
 8274SOL     OW25720   5.414   6.004   4.865  0.2981  0.5166  0.7905
 8274SOL    HW125721   5.407   5.980   4.768 -1.4502  0.7894  0.8175
 8274SOL    HW225722   5.365   6.090   4.881  0.8649  0.6532  1.8583
 8275SOL     OW25723   5.554   0.974   5.511  0.0543  0.4733 -0.7527
 8275SOL    HW125724   5.469   0.942   5.470 -0.3058 -1.3030  1.1697
 8275SOL    HW225725   5.544   1.069   5.540 -1.0392  0.4988 -1.1805
 8276SOL     OW25726   6.776   3.381   4.954 -0.5082  0.2504 -0.2200
 8276SOL    HW125727   6.771   3.282   4.967 -0.1052 -0.0931 -2.3614
 8276SOL    HW225728   6.689   3.414   4.916 -0.1723  0.4951 -0.7806
 8277SOL     OW25729   0.582   5.571   6.726 -0.1523  0.1855  0.2081
 8277SOL    HW125730   0.516   5.635   6.766  0.1971  0.7463 -0.0861
 8277SOL    HW225731   0.606   5.500   6.792 -2.2061 -0.9319 -0.1915
 8278SOL     OW25732   1.601   2.928   5.656  0.9174 -0.7129  0.2928
 8278SOL    HW125733   1.578   3.016   5.615 -2.2734 -1.1550  0.8713
 8278SOL    HW225734   1.639   2.942   5.747  1.0966  0.0886  0.1014
 8279SOL     OW25735   1.451   6.533   5.118  0.1554 -0.1944  0.9638
 8279SOL    HW125736   1.355   6.559   5.127 -0.3400 -1.4953 -0.2465
 8279SOL    HW225737   1.481   6.548   5.024  1.0870 -0.0528  1.2657
 8280SOL     OW25738   1.927   5.035   0.416  0.1605  0.3949 -0.1682
 8280SOL    HW125739   1.913   5.131   0.438 -2.0936  0.7667 -2.7224
 8280SOL    HW225740   1.850   4.981   0.452  0.6713 -0.2525 -0.0168
 8281SOL     OW25741   2.513   5.342   0.500 -0.5278  0.0861 -0.8803
 8281SOL    HW125742   2.549   5.393   0.578 -1.3445 -2.4701  1.3043
 8281SOL    HW225743   2.587   5.292   0.455 -0.6897 -2.4213  1.4608
 8282SOL     OW25744   5.361   2.058   5.580  0.4838 -0.4583 -0.6196
 8282SOL    HW125745   5.417   1.978   5.560 -0.8949 -1.7595  0.4332
 8282SOL    HW225746   5.419   2.130   5.619  1.6458 -1.1953 -0.9199
 8283SOL     OW25747   1.894   4.620   6.020 -0.7292  0.4700 -0.0564
 8283SOL    HW125748   1.979   4.671   6.031 -0.9277  0.9213 -0.5587
 8283SOL    HW225749   1.914   4.522   6.017 -0.2339  0.5700 -0.0917
 8284SOL     OW25750   0.746   2.983   1.121  0.4682 -0.0038 -0.2168
 8284SOL    HW125751   0.827   2.956   1.069  1.0204  1.9551 -0.4424
 8284SOL    HW225752   0.665   2.943   1.078  1.2564 -1.9327 -0.0293
 8285SOL     OW25753   3.215   3.303   3.401  0.4758 -0.5189 -0.0462
 8285SOL    HW125754   3.209   3.286   3.500  1.7245  1.3517  0.3999
 8285SOL    HW225755   3.204   3.216   3.352 -1.0767 -1.3624  1.6623
 8286SOL     OW25756   6.709   0.520   1.256 -0.4523 -0.1006 -0.2902
 8286SOL    HW125757   6.781   0.567   1.205  0.4451  0.1141  1.1299
 8286SOL    HW225758   6.622   0.568   1.242 -0.2245 -0.0099 -1.5410
 8287SOL     OW25759   2.195   6.183   3.128  0.5019 -0.0759 -0.4157
 8287SOL    HW125760   2.145   6.117   3.072  2.7842 -1.9516 -0.3963
 8287SOL    HW225761   2.148   6.194   3.216 -0.9209 -0.1751 -1.1261
 8288SOL     OW25762   1.849   3.406   1.002 -0.1522  0.2843 -0.5208
 8288SOL    HW125763   1.904   3.351   1.065 -0.6510  0.6305  0.2420
 8288SOL    HW225764   1.873   3.503   1.012 -0.7948  0.4247 -0.2752
 8289SOL     OW25765   1.088   5.752   1.869  0.8422 -0.5046 -0.9513
 8289SOL    HW125766   1.141   5.801   1.938 -0.6383  0.1520 -0.2205
 8289SOL    HW225767   1.100   5.796   1.780  2.6813 -1.2925 -1.1329
 8290SOL     OW25768   6.701   1.642   1.247  0.2182 -0.6239 -0.0628
 8290SOL    HW125769   6.614   1.635   1.198  1.2967  1.9465 -2.6075
 8290SOL    HW225770   6.708   1.731   1.290  1.5147 -0.8535  0.2425
 8291SOL     OW25771   6.386   6.480   4.762  0.1143 -0.1410 -0.6190
 8291SOL    HW125772   6.417   6.392   4.798  0.4562  0.3574  0.3552
 8291SOL    HW225773   6.464   6.531   4.726  0.2176  0.4558  0.3869
 8292SOL     OW25774   2.891   0.707   6.693 -0.1689  0.1839  0.4743
 8292SOL    HW125775   2.856   0.624   6.736 -0.9075  0.4476  0.3921
 8292SOL    HW225776   2.820   0.777   6.693  0.7050  1.0895  1.2660
 8293SOL     OW25777   3.847   5.019   6.759  0.1076  0.3231  0.2691
 8293SOL    HW125778   3.940   5.047   6.735  0.0684 -0.3722 -0.7211
 8293SOL    HW225779   3.848   4.926   6.794 -0.3389 -0.0317 -0.6476
 8294SOL     OW25780   5.363   4.202   5.983  0.1509  0.4033  0.1536
 8294SOL    HW125781   5.351   4.215   6.081  0.5845  2.5860 -0.0283
 8294SOL    HW225782   5.459   4.179   5.964  0.1618  0.4070  0.2024
 8295SOL     OW25783   3.747   5.865   3.414  0.0455 -0.1407  0.1345
 8295SOL    HW125784   3.781   5.916   3.335 -0.1658  1.4605  1.0584
 8295SOL    HW225785   3.676   5.917   3.460 -4.4126 -3.5132 -2.0711
 8296SOL     OW25786   1.832   5.763   0.087  0.7591  0.3588 -0.2848
 8296SOL    HW125787   1.804   5.823   0.011 -0.0167 -1.1502 -1.2291
 8296SOL    HW225788   1.796   5.671   0.072  1.9304 -0.3687  1.1344
 8297SOL     OW25789   6.132   2.278   5.300 -0.1907  0.1656  0.1105
 8297SOL    HW125790   6.196   2.332   5.354  0.8161  1.3114 -2.0951
 8297SOL    HW225791   6.144   2.180   5.321  1.4269  0.4456  0.6236
 8298SOL     OW25792   6.345   1.832   3.207 -0.4179 -0.7465  0.4401
 8298SOL    HW125793   6.441   1.845   3.184 -0.7204 -0.4835 -0.7766
 8298SOL    HW225794   6.336   1.808   3.303  0.7830  0.3087  0.8448
 8299SOL     OW25795   7.001   2.290   2.224 -0.0334  0.7951  0.0209
 8299SOL    HW125796   6.924   2.342   2.261 -0.8738  0.2791 -0.9780
 8299SOL    HW225797   7.046   2.241   2.299 -1.0081  0.6572  0.5303
 8300SOL     OW25798   6.244   5.850   5.545  0.5921 -0.5639  0.1904
 8300SOL    HW125799   6.280   5.839   5.638  0.4682 -2.3121  0.0524
 8300SOL    HW225800   6.209   5.763   5.512  0.1534  0.1535 -1.3194
 8301SOL     OW25801   3.360   1.523   0.847  0.3583 -0.4850 -0.0291
 8301SOL    HW125802   3.410   1.584   0.908  0.5410 -1.4221  0.7672
 8301SOL    HW225803   3.265   1.553   0.841  0.1213 -0.9105  1.4248
 8302SOL     OW25804   6.101   2.160   6.525 -0.5968 -0.3034 -0.6577
 8302SOL    HW125805   6.148   2.238   6.484  0.1264 -0.0584  0.5868
 8302SOL    HW225806   6.075   2.182   6.619  0.4137 -1.8456  0.0326
 8303SOL     OW25807   0.073   1.184   4.328  0.5265 -0.0899 -0.0370
 8303SOL    HW125808   0.154   1.235   4.297  0.3778 -0.3082 -0.8082
 8303SOL    HW225809   0.064   1.100   4.274 -0.1726 -0.1013  0.0910
 8304SOL     OW25810   1.367   3.352   2.205  0.0552  0.3509  0.2794
 8304SOL    HW125811   1.383   3.449   2.186 -1.3593  0.4329 -0.6734
 8304SOL    HW225812   1.333   3.307   2.122  0.4746 -0.9211  0.7688
 8305SOL     OW25813   5.770   5.913   5.397 -0.0749  0.1376  0.0303
 8305SOL    HW125814   5.840   5.932   5.466  0.1039  0.0048 -0.1144
 8305SOL    HW225815   5.757   5.994   5.340 -0.6708  0.4619  0.6128
 8306SOL     OW25816   5.177   1.512   5.186 -0.0040  0.2278 -0.1345
 8306SOL    HW125817   5.164   1.494   5.089  1.1789 -1.9053  0.0482
 8306SOL    HW225818   5.270   1.546   5.201  0.1239 -0.3166  0.3378
 8307SOL     OW25819   3.918   4.080   0.580  0.0543  0.4515  0.4531
 8307SOL    HW125820   3.975   4.142   0.635  3.3066  0.2217 -2.3821
 8307SOL    HW225821   3.965   3.993   0.568 -1.4383 -0.1857 -1.0706
 8308SOL     OW25822   3.303   5.643   0.971  0.3473 -0.3550  0.1684
 8308SOL    HW125823   3.340   5.588   1.046 -0.1263  1.2352  1.6293
 8308SOL    HW225824   3.374   5.708   0.940  0.8693 -1.6352 -1.4696
 8309SOL     OW25825   6.560   5.975   3.246 -0.1483 -0.1119  0.3160
 8309SOL    HW125826   6.658   5.972   3.224  0.1099 -0.5610  1.4668
 8309SOL    HW225827   6.509   5.924   3.178  0.3165  0.7992 -0.7622
 8310SOL     OW25828   1.071   5.729   0.900  0.5522  0.5471  0.4788
 8310SOL    HW125829   1.060   5.740   0.999 -0.6941  2.5035  0.2017
 8310SOL    HW225830   1.088   5.634   0.878  0.7106  0.0497  2.5719
 8311SOL     OW25831   6.558   0.153   3.929  0.0620 -0.8690  0.5041
 8311SOL    HW125832   6.651   0.142   3.894  0.1498  0.0768  0.4202
 8311SOL    HW225833   6.514   0.063   3.935  0.0820 -1.1141 -1.8976
 8312SOL     OW25834   3.868   0.634   1.289 -0.1702 -0.1065 -0.6500
 8312SOL    HW125835   3.841   0.619   1.194 -0.9089 -0.9319 -0.3307
 8312SOL    HW225836   3.862   0.548   1.339 -1.0073  0.5507  0.4311
 8313SOL     OW25837   6.262   0.166   2.012 -0.5483  0.1801 -0.2780
 8313SOL    HW125838   6.165   0.181   2.030 -0.7000 -1.0113 -0.0409
 8313SOL    HW225839   6.275   0.076   1.970  0.3394  0.8177 -1.4420
 8314SOL     OW25840   3.926   1.777   2.299  0.1994 -0.0699 -0.1656
 8314SOL    HW125841   3.941   1.704   2.366 -1.8015 -1.1119 -0.7927
 8314SOL    HW225842   3.907   1.863   2.347  0.1822 -0.4926  0.5981
 8315SOL     OW25843   5.625   2.043   2.586  0.1735  0.3430 -0.1794
 8315SOL    HW125844   5.569   1.965   2.614  0.3966  0.4066  0.4649
 8315SOL    HW225845   5.719   2.013   2.572 -0.2031 -0.0110 -2.4146
 8316SOL     OW25846   1.443   3.385   2.989 -0.5750  0.3296 -0.0627
 8316SOL    HW125847   1.501   3.426   2.919 -0.9289  0.9260 -0.0173
 8316SOL    HW225848   1.480   3.408   3.080  0.2774 -1.0229 -0.0477
 8317SOL     OW25849   1.779   2.684   5.054 -0.0115 -0.2670 -0.1820
 8317SOL    HW125850   1.878   2.687   5.067 -0.0248 -0.8220  0.0728
 8317SOL    HW225851   1.751   2.591   5.033 -0.5495 -0.2251  0.3076
 8318SOL     OW25852   5.639   1.672   3.988 -0.4303  0.3394 -0.3128
 8318SOL    HW125853   5.587   1.743   4.036 -0.6807  0.2477 -0.4447
 8318SOL    HW225854   5.594   1.584   4.001 -0.3891  0.2837 -0.5550
 8319SOL     OW25855   1.559   6.829   6.236 -0.4343 -0.1856  0.4277
 8319SOL    HW125856   1.468   6.860   6.261 -0.8444 -0.1506 -1.0151
 8319SOL    HW225857   1.568   6.827   6.136  0.1342 -3.0064  0.4472
 8320SOL     OW25858   4.746   3.389   1.218 -0.4712  0.1254  0.5762
 8320SOL    HW125859   4.807   3.457   1.260  1.3528 -1.0029 -0.1087
 8320SOL    HW225860   4.730   3.415   1.122 -0.4064  0.0138  0.5345
 8321SOL     OW25861   5.810   6.379   0.954 -0.0515  0.5273 -0.3705
 8321SOL    HW125862   5.818   6.315   1.031 -0.3898  0.1556 -0.6383
 8321SOL    HW225863   5.901   6.404   0.921  0.1612 -2.1494 -2.1577
 8322SOL     OW25864   0.955   0.210   6.654 -0.5769 -0.0829  0.3591
 8322SOL    HW125865   0.907   0.127   6.681 -1.5748 -0.2244 -1.6363
 8322SOL    HW225866   0.899   0.289   6.675 -1.9456 -0.2657 -2.2504
 8323SOL     OW25867   5.132   6.786   2.993  0.2269  0.1724 -0.0390
 8323SOL    HW125868   5.133   6.806   2.895 -1.4932  1.6721  0.2065
 8323SOL    HW225869   5.226   6.786   3.028  0.8208  0.1221 -1.5854
 8324SOL     OW25870   4.893   6.878   2.595 -0.1534 -0.2098  0.1396
 8324SOL    HW125871   4.842   6.864   2.510 -1.8519 -0.2524  1.1266
 8324SOL    HW225872   4.844   6.944   2.653  0.9949 -0.1469  1.0682
 8325SOL     OW25873   3.234   3.804   0.429  0.6373 -0.4216 -0.1942
 8325SOL    HW125874   3.272   3.804   0.521 -0.0418  0.0351  0.0849
 8325SOL    HW225875   3.185   3.889   0.412  0.0412 -0.8534 -0.6798
 8326SOL     OW25876   4.103   4.480   6.479  0.5988  0.1976  0.3580
 8326SOL    HW125877   4.135   4.568   6.514  1.8938 -0.3184  0.5536
 8326SOL    HW225878   4.065   4.491   6.388  2.3526  0.7224 -0.3517
 8327SOL     OW25879   6.094   3.301   5.298 -0.5681 -0.3745  0.2088
 8327SOL    HW125880   6.063   3.242   5.373 -1.9823  0.6721  0.4803
 8327SOL    HW225881   6.183   3.340   5.322  0.9177 -3.1376 -0.4184
 8328SOL     OW25882   2.885   5.923   3.346 -0.0988  0.7247  0.1106
 8328SOL    HW125883   2.822   5.876   3.285 -0.5841  1.3748  0.1102
 8328SOL    HW225884   2.909   5.862   3.422 -1.8961  0.9739  0.9214
 8329SOL     OW25885   6.542   1.929   6.866  0.6130  0.3658 -0.3295
 8329SOL    HW125886   6.582   1.898   6.952  0.0131  3.2061  1.0737
 8329SOL    HW225887   6.605   1.992   6.821  0.3263 -0.0292 -1.3204
 8330SOL     OW25888   1.920   1.436   0.711 -0.5847  0.0855  0.0286
 8330SOL    HW125889   2.008   1.433   0.663 -0.9235 -0.4099 -0.5760
 8330SOL    HW225890   1.891   1.532   0.720  0.3310  0.3050  0.8445
 8331SOL     OW25891   2.700   1.253   1.102  0.4007  0.0570 -0.3443
 8331SOL    HW125892   2.672   1.349   1.098 -0.2826  0.0225  2.1085
 8331SOL    HW225893   2.792   1.245   1.063 -0.0647  1.4294 -1.8658
 8332SOL     OW25894   5.224   6.390   2.138 -0.6037 -0.7668 -0.1588
 8332SOL    HW125895   5.270   6.405   2.226 -1.8849 -0.9986  0.5828
 8332SOL    HW225896   5.290   6.353   2.072  0.7904  0.9726  0.1733
 8333SOL     OW25897   7.020   1.156   5.098  0.2118 -0.3599  0.1841
 8333SOL    HW125898   7.047   1.117   5.187  0.5474 -2.1826 -0.6706
 8333SOL    HW225899   7.100   1.161   5.039  0.0155  0.9890  0.0046
 8334SOL     OW25900   4.893   1.055   3.911 -0.6698  0.2079 -0.2625
 8334SOL    HW125901   4.922   1.032   3.818 -0.4488 -0.1368 -0.1085
 8334SOL    HW225902   4.885   1.154   3.920  1.3757  0.3822 -0.0321
 8335SOL     OW25903   6.502   4.318   6.893  0.1709  0.5463 -0.1428
 8335SOL    HW125904   6.576   4.256   6.866 -1.3044 -0.9636 -0.9061
 8335SOL    HW225905   6.448   4.344   6.813 -2.9486 -2.2403  0.8164
 8336SOL     OW25906   6.034   4.723   3.914  0.8183  0.1374 -1.0588
 8336SOL    HW125907   6.041   4.624   3.903  3.0580  0.3325 -1.8637
 8336SOL    HW225908   5.941   4.752   3.893 -0.1635 -1.8739  0.1779
 8337SOL     OW25909   4.950   4.954   2.916  0.2461  0.8313 -0.3247
 8337SOL    HW125910   5.024   5.021   2.921  1.7982 -0.6309 -2.0819
 8337SOL    HW225911   4.899   4.967   2.831  0.0514  0.2928 -0.2932
 8338SOL     OW25912   4.937   6.616   2.752 -0.5464 -0.0162  0.5782
 8338SOL    HW125913   5.002   6.542   2.771 -0.6800 -0.7001 -1.4143
 8338SOL    HW225914   4.987   6.700   2.731 -0.1131 -0.8798 -2.3785
 8339SOL     OW25915   6.577   1.262   2.095 -0.5175  0.0012 -0.3311
 8339SOL    HW125916   6.675   1.283   2.094 -0.3383 -0.6384 -2.8863
 8339SOL    HW225917   6.560   1.186   2.157  0.4574  0.6728  0.8012
 8340SOL     OW25918   5.224   0.544   6.917 -0.7376 -0.7802 -0.0809
 8340SOL    HW125919   5.129   0.520   6.898 -1.2998  0.2611  1.2625
 8340SOL    HW225920   5.227   0.629   6.969  0.9525 -0.7094 -0.2421
 8341SOL     OW25921   2.210   6.119   1.380 -0.1174  0.1501  0.2740
 8341SOL    HW125922   2.209   6.214   1.413  0.6814  1.1233 -2.2145
 8341SOL    HW225923   2.171   6.116   1.288  0.3200 -1.8574  0.1109
 8342SOL     OW25924   4.545   6.711   0.377  0.1971  0.1833 -0.3117
 8342SOL    HW125925   4.545   6.680   0.472 -1.5054 -1.1254 -0.6994
 8342SOL    HW225926   4.456   6.750   0.354  0.0651 -0.9215 -1.7867
 8343SOL     OW25927   1.635   6.503   5.320  0.3212  0.1652 -0.1212
 8343SOL    HW125928   1.576   6.506   5.239 -1.0712 -1.2312  0.7890
 8343SOL    HW225929   1.586   6.540   5.399  0.9430 -0.2952  0.4955
 8344SOL     OW25930   4.932   6.653   3.812 -0.2483 -0.4367  0.2344
 8344SOL    HW125931   4.893   6.737   3.850 -0.5121 -1.1830  1.6903
 8344SOL    HW225932   5.000   6.617   3.876  1.3014 -0.3044 -1.2764
 8345SOL     OW25933   4.354   2.335   2.294 -0.1052  0.3210  0.3042
 8345SOL    HW125934   4.278   2.289   2.249  0.4184 -1.4147  1.1232
 8345SOL    HW225935   4.440   2.310   2.250 -0.0265  3.4740 -1.6190
 8346SOL     OW25936   3.375   5.865   1.175 -0.1419  0.7802 -0.1113
 8346SOL    HW125937   3.462   5.884   1.221 -0.0510  2.7392 -1.0167
 8346SOL    HW225938   3.393   5.831   1.083 -0.3492 -1.5246  0.6424
 8347SOL     OW25939   2.528   5.451   2.657 -0.2131 -0.0255  0.0099
 8347SOL    HW125940   2.584   5.444   2.740 -0.3873  1.8019  0.3218
 8347SOL    HW225941   2.570   5.396   2.584  1.7525  0.8752  0.3842
 8348SOL     OW25942   1.664   3.090   1.758 -0.0733  0.0710  0.0918
 8348SOL    HW125943   1.687   3.025   1.685  0.5694  1.0119 -0.5572
 8348SOL    HW225944   1.693   3.052   1.846 -0.1978 -0.7585 -0.2134
 8349SOL     OW25945   6.408   5.860   3.044 -0.0950 -0.1705 -0.3286
 8349SOL    HW125946   6.333   5.879   2.980  0.5739 -0.3876 -1.2013
 8349SOL    HW225947   6.472   5.795   3.002  0.5532 -0.0335  0.4220
 8350SOL     OW25948   2.741   6.258   6.171  0.3130 -0.4297 -0.3871
 8350SOL    HW125949   2.678   6.224   6.241  0.6491  0.2755  0.2640
 8350SOL    HW225950   2.692   6.267   6.084 -0.3618 -0.3588 -0.0029
 8351SOL     OW25951   5.041   6.064   5.362 -0.3317  0.0770 -0.5335
 8351SOL    HW125952   5.056   5.993   5.431  0.4708  0.0278 -0.7530
 8351SOL    HW225953   4.996   6.142   5.405  1.7254  0.7785  0.5036
 8352SOL     OW25954   1.224   6.362   3.503  0.1164  0.0836 -0.0744
 8352SOL    HW125955   1.282   6.428   3.551  1.0963 -0.3558 -0.6183
 8352SOL    HW225956   1.201   6.397   3.412 -0.2086  0.1139  0.0181
 8353SOL     OW25957   1.326   4.295   1.306  0.2290 -0.4151  0.0045
 8353SOL    HW125958   1.296   4.390   1.320  1.4548  0.2714 -1.6323
 8353SOL    HW225959   1.422   4.287   1.330  0.0085 -1.3948  0.6145
 8354SOL     OW25960   2.905   6.017   4.861 -0.1568  0.1139 -0.8471
 8354SOL    HW125961   2.977   6.066   4.813 -2.5154  1.2244 -3.5299
 8354SOL    HW225962   2.879   5.937   4.808 -0.5135 -0.6377  0.4160
 8355SOL     OW25963   3.163   1.462   6.758  0.5771  0.1832 -0.2150
 8355SOL    HW125964   3.160   1.545   6.703  0.6935  0.1044 -0.3392
 8355SOL    HW225965   3.072   1.420   6.760  1.0562 -1.0519 -2.2321
 8356SOL     OW25966   0.258   5.387   0.572 -0.0355  0.4523 -0.1138
 8356SOL    HW125967   0.295   5.471   0.610 -0.9022  0.9957 -0.4578
 8356SOL    HW225968   0.300   5.370   0.482  2.0093 -0.8329  0.9909
 8357SOL     OW25969   2.407   0.043   5.202  0.1341  0.7998 -0.0165
 8357SOL    HW125970   2.388   0.101   5.123  2.2116  2.6325  0.7465
 8357SOL    HW225971   2.505   0.036   5.215 -0.1423 -0.5363  1.6764
 8358SOL     OW25972   6.995   6.268   5.922  0.0815  0.1917  0.2860
 8358SOL    HW125973   7.086   6.304   5.902 -0.2023 -0.0827 -1.6226
 8358SOL    HW225974   6.926   6.324   5.876 -0.7677  0.5395  1.8969
 8359SOL     OW25975   3.843   2.235   5.797 -0.4547 -0.0507  0.4535
 8359SOL    HW125976   3.934   2.222   5.835 -1.1494 -1.8704  1.6718
 8359SOL    HW225977   3.779   2.254   5.872 -0.6387  4.8490 -0.6380
 8360SOL     OW25978   1.585   0.271   0.441  0.1999  0.7709  0.0708
 8360SOL    HW125979   1.622   0.251   0.532  1.3152  1.3648 -0.2352
 8360SOL    HW225980   1.490   0.300   0.449 -0.4990 -1.4921  0.8213
 8361SOL     OW25981   3.761   0.333   1.982  0.1673 -0.2481  0.0829
 8361SOL    HW125982   3.737   0.430   1.989  0.1669 -0.2479  0.0791
 8361SOL    HW225983   3.857   0.325   1.956  0.7485 -0.2406  2.0574
 8362SOL     OW25984   3.711   1.937   5.916  0.4649  0.5021  0.3689
 8362SOL    HW125985   3.626   1.885   5.905  1.4618 -1.0307 -0.4728
 8362SOL    HW225986   3.743   1.928   6.010 -1.2240  2.6810  1.2619
 8363SOL     OW25987   5.996   3.784   5.997  0.5842  0.2185 -0.5852
 8363SOL    HW125988   6.060   3.721   5.954  0.6808 -0.7395  0.8869
 8363SOL    HW225989   5.902   3.759   5.971  0.7384  0.8947 -1.8108
 8364SOL     OW25990   1.402   3.614   2.287 -0.0275 -1.1271  0.3219
 8364SOL    HW125991   1.489   3.634   2.243 -0.4490 -1.4073 -0.6862
 8364SOL    HW225992   1.341   3.693   2.278  0.2148 -0.8192  1.2877
 8365SOL     OW25993   2.722   3.492   1.135  0.0023  0.0168 -0.0597
 8365SOL    HW125994   2.759   3.476   1.043 -0.0826 -0.1406 -0.0667
 8365SOL    HW225995   2.758   3.423   1.198 -0.2848 -0.1449 -0.0688
 8366SOL     OW25996   1.688   5.623   6.752  0.2520  0.0398  0.4572
 8366SOL    HW125997   1.746   5.546   6.778  0.5342  0.5975  1.5238
 8366SOL    HW225998   1.598   5.589   6.727  0.6207 -0.7093  0.0909
 8367SOL     OW25999   3.753   5.830   2.456  0.1704  0.3550  0.1969
 8367SOL    HW126000   3.805   5.822   2.542  2.4072  0.1414 -1.0845
 8367SOL    HW226001   3.755   5.742   2.408  0.0520  0.8002 -0.6430
 8368SOL     OW26002   3.758   5.506   6.079 -0.6681 -0.0962 -0.4535
 8368SOL    HW126003   3.762   5.416   6.035  0.7568 -0.5302  0.5270
 8368SOL    HW226004   3.728   5.495   6.174  1.4424  0.1724  0.3019
 8369SOL     OW26005   1.486   5.266   5.200  0.0328 -0.5039 -0.2096
 8369SOL    HW126006   1.427   5.198   5.243 -0.1361 -1.1561 -1.4267
 8369SOL    HW226007   1.556   5.295   5.265 -1.3246 -0.0466  1.1064
 8370SOL     OW26008   3.011   0.263   5.443 -0.3431  0.2485 -0.0158
 8370SOL    HW126009   2.952   0.313   5.379  1.1264 -0.0068 -1.6396
 8370SOL    HW226010   3.015   0.167   5.416  0.5873  0.2089  0.2432
 8371SOL     OW26011   1.143   5.111   0.177 -0.2364 -0.2439 -0.1985
 8371SOL    HW126012   1.229   5.161   0.166 -1.0312  1.4709  0.9069
 8371SOL    HW226013   1.130   5.049   0.100  1.9510 -0.5020 -0.4070
 8372SOL     OW26014   1.789   6.367   0.835  0.0238  0.0963 -0.0521
 8372SOL    HW126015   1.768   6.448   0.781  0.9500  0.3232 -0.0935
 8372SOL    HW226016   1.724   6.294   0.813  0.7073  0.0064 -1.8695
 8373SOL     OW26017   4.078   6.302   3.323  0.0548 -0.5983  0.1229
 8373SOL    HW126018   4.102   6.359   3.244  0.5495 -1.3278 -0.2664
 8373SOL    HW226019   4.087   6.206   3.298  0.3170 -0.8352  1.1058
 8374SOL     OW26020   0.050   1.169   6.638  0.5382  0.1274 -0.0718
 8374SOL    HW126021   0.000   1.251   6.608  2.3222  2.2284  2.2925
 8374SOL    HW226022   0.145   1.175   6.607  0.8503 -0.7228  0.6909
 8375SOL     OW26023   4.645   1.519   5.791  0.0279  0.3633 -0.0398
 8375SOL    HW126024   4.641   1.532   5.890 -2.9252  1.1811 -0.1882
 8375SOL    HW226025   4.655   1.422   5.770  0.6917  0.1875  1.0308
 8376SOL     OW26026   1.552   0.296   4.843  0.5391 -0.5327 -0.2900
 8376SOL    HW126027   1.464   0.343   4.854  1.8231  1.6392  1.2574
 8376SOL    HW226028   1.620   0.336   4.904  2.6086 -2.2742 -1.3135
 8377SOL     OW26029   3.744   5.862   1.169  0.0499  0.1173 -0.0985
 8377SOL    HW126030   3.715   5.922   1.243  0.0287 -1.2367  1.0275
 8377SOL    HW226031   3.838   5.832   1.186  0.2460  0.2337 -0.9243
 8378SOL     OW26032   4.249   6.197   2.988  0.6888  0.0069 -0.4114
 8378SOL    HW126033   4.308   6.120   2.961  0.8313  0.7122 -2.3236
 8378SOL    HW226034   4.307   6.274   3.014  0.5549 -0.2414  0.6472
 8379SOL     OW26035   4.749   1.789   1.151  0.1805  0.6637  0.6978
 8379SOL    HW126036   4.738   1.888   1.144  1.6401  0.7769 -0.4624
 8379SOL    HW226037   4.825   1.768   1.212 -1.0728  0.1784  2.1493
 8380SOL     OW26038   6.358   6.534   0.652  0.1917  0.1692  0.2950
 8380SOL    HW126039   6.271   6.486   0.638 -0.5615  1.0315  1.7444
 8380SOL    HW226040   6.427   6.497   0.590 -0.8018 -1.5916  0.1646
 8381SOL     OW26041   6.728   1.163   3.552 -0.1927 -0.3601 -0.1759
 8381SOL    HW126042   6.743   1.225   3.629 -0.6814  0.2336 -0.5472
 8381SOL    HW226043   6.642   1.113   3.566 -1.0476  0.8026 -0.9886
 8382SOL     OW26044   2.741   6.963   1.762  0.1940 -0.7073 -0.2110
 8382SOL    HW126045   2.731   7.062   1.756  1.7625 -0.5564 -1.0390
 8382SOL    HW226046   2.748   6.924   1.670  3.3346 -1.0803  0.0768
 8383SOL     OW26047   1.837   1.208   6.183  0.6297 -0.2850  0.5281
 8383SOL    HW126048   1.936   1.200   6.187  0.7686  0.8599 -0.1808
 8383SOL    HW226049   1.809   1.299   6.213  0.1061  0.6391 -2.4047
 8384SOL     OW26050   6.940   0.212   6.008  0.5484  0.0086 -0.1637
 8384SOL    HW126051   6.911   0.125   6.047 -0.4234 -0.4201 -1.7288
 8384SOL    HW226052   6.905   0.287   6.063  2.2883 -0.5493  1.8120
 8385SOL     OW26053   6.955   0.839   5.759  0.4477 -0.6462  0.0013
 8385SOL    HW126054   6.912   0.793   5.836  0.9864 -1.5915 -0.2429
 8385SOL    HW226055   6.926   0.796   5.673  0.7892 -0.3888 -0.2489
 8386SOL     OW26056   0.838   6.941   2.538  0.4635 -0.0134 -0.5575
 8386SOL    HW126057   0.903   7.008   2.573  0.0331  0.0469  0.1416
 8386SOL    HW226058   0.826   6.956   2.439  2.5442 -0.9161 -1.0007
 8387SOL     OW26059   2.716   0.406   5.646 -0.2067  0.3280 -0.3449
 8387SOL    HW126060   2.642   0.417   5.712 -0.5221  0.4912 -0.7217
 8387SOL    HW226061   2.802   0.433   5.688 -0.2693 -0.3870  0.2785
 8388SOL     OW26062   1.915   6.518   2.169 -0.0395  0.1950 -0.1054
 8388SOL    HW126063   1.969   6.575   2.231 -0.3310  1.7356 -1.2185
 8388SOL    HW226064   1.818   6.524   2.194  0.0098 -0.4209  0.2388
 8389SOL     OW26065   6.471   4.768   3.527  0.4233  1.0414 -0.3487
 8389SOL    HW126066   6.528   4.687   3.542 -0.6558  0.2454 -0.4279
 8389SOL    HW226067   6.485   4.803   3.435  0.2209  0.3867 -0.6300
 8390SOL     OW26068   2.834   2.249   5.687 -0.0375 -0.2653 -0.4187
 8390SOL    HW126069   2.748   2.300   5.697 -0.3052  0.1287 -3.5277
 8390SOL    HW226070   2.910   2.303   5.722 -0.7629  0.5192 -0.0256
 8391SOL     OW26071   6.348   5.480   0.894  0.0921 -0.2606  0.9997
 8391SOL    HW126072   6.441   5.466   0.860  0.1659  0.6111  0.7998
 8391SOL    HW226073   6.345   5.460   0.992  0.3110 -1.0058  0.8599
 8392SOL     OW26074   6.106   3.633   4.072  0.3294  0.3619  0.0932
 8392SOL    HW126075   6.062   3.544   4.079  2.1344 -0.5068  0.8108
 8392SOL    HW226076   6.171   3.633   3.996 -1.1366  1.7802 -1.2585
 8393SOL     OW26077   1.841   2.445   2.605 -0.5883 -0.2830  0.2987
 8393SOL    HW126078   1.775   2.488   2.543  0.6929 -0.7903 -1.4836
 8393SOL    HW226079   1.855   2.350   2.579  1.7955  0.1505 -0.2347
 8394SOL     OW26080   0.232   2.783   1.612 -0.3277  0.4083  0.1816
 8394SOL    HW126081   0.233   2.775   1.712 -1.2933 -2.2257  0.0619
 8394SOL    HW226082   0.316   2.742   1.575 -1.5260 -1.9284 -0.1527
 8395SOL     OW26083   4.701   0.171   4.380  0.3429 -0.0549 -0.2832
 8395SOL    HW126084   4.646   0.253   4.396  0.7419  0.1445  0.0875
 8395SOL    HW226085   4.702   0.114   4.462  0.6555 -0.0766 -0.3015
 8396SOL     OW26086   5.458   1.151   2.942 -0.2423 -0.3597 -0.4513
 8396SOL    HW126087   5.488   1.136   3.036 -0.7673  1.0976 -0.0156
 8396SOL    HW226088   5.464   1.066   2.891  2.0167 -0.7364  0.3269
 8397SOL     OW26089   3.324   2.078   2.401  0.3876 -0.0412 -0.0577
 8397SOL    HW126090   3.333   1.981   2.381 -0.4844 -0.2237  0.3926
 8397SOL    HW226091   3.329   2.130   2.316  2.0759 -0.3607 -0.1936
 8398SOL     OW26092   4.157   1.090   5.853 -0.0090 -0.1956  0.6636
 8398SOL    HW126093   4.229   1.041   5.804 -0.1771 -1.2421  1.4216
 8398SOL    HW226094   4.100   1.140   5.787  0.9114 -0.0107 -0.0136
 8399SOL     OW26095   4.705   0.942   5.675  0.3134  0.1089  0.7827
 8399SOL    HW126096   4.653   0.920   5.592  2.0132 -0.0785 -0.2770
 8399SOL    HW226097   4.794   0.979   5.650  2.1224 -2.7495  2.4443
 8400SOL     OW26098   1.342   1.265   4.806  0.2327 -0.0396  0.1823
 8400SOL    HW126099   1.315   1.303   4.718  1.0169  1.0201  0.3876
 8400SOL    HW226100   1.326   1.332   4.878  1.1045 -0.3006  0.6328
 8401SOL     OW26101   3.178   0.990   0.866 -0.2362 -0.3517 -0.5816
 8401SOL    HW126102   3.158   0.974   0.963 -1.1970  1.0619 -0.5177
 8401SOL    HW226103   3.277   0.991   0.852 -0.0788 -0.1221  0.4652
 8402SOL     OW26104   4.151   0.903   0.739  0.3770 -0.1058 -0.2450
 8402SOL    HW126105   4.085   0.939   0.805 -0.0932 -0.2611 -0.6253
 8402SOL    HW226106   4.107   0.891   0.651  0.6608 -1.1114 -0.2638
 8403SOL     OW26107   0.332   3.056   4.830 -0.2027 -0.0659  0.1061
 8403SOL    HW126108   0.249   3.091   4.874 -0.0110  0.5890 -0.0472
 8403SOL    HW226109   0.358   3.116   4.754  0.0846 -0.5881 -0.2168
 8404SOL     OW26110   3.758   6.136   0.260  0.0288  0.3952 -0.5349
 8404SOL    HW126111   3.845   6.174   0.293  0.4078 -0.2236 -0.8008
 8404SOL    HW226112   3.772   6.094   0.170 -0.4853  0.0600 -0.4606
 8405SOL     OW26113   2.460   0.851   4.704 -0.1454 -0.2529  0.0492
 8405SOL    HW126114   2.469   0.862   4.605 -0.6467  1.0342  0.1399
 8405SOL    HW226115   2.365   0.865   4.731 -0.1009 -1.0691  0.6746
 8406SOL     OW26116   4.196   1.017   0.020  0.5782 -0.2546 -0.3286
 8406SOL    HW126117   4.236   0.944  -0.036  2.1214  0.1225  0.2332
 8406SOL    HW226118   4.242   1.020   0.109 -1.3318 -0.3674  0.7291
 8407SOL     OW26119   2.999   6.745   4.806  0.3042  0.0869  0.3069
 8407SOL    HW126120   2.943   6.754   4.888 -1.1474  0.2629 -0.6766
 8407SOL    HW226121   3.014   6.649   4.786 -2.8827 -0.1696 -1.4794
 8408SOL     OW26122   5.683   2.683   1.517  0.5987 -0.3658  0.3666
 8408SOL    HW126123   5.598   2.647   1.479  1.0656 -0.1619 -0.9187
 8408SOL    HW226124   5.716   2.759   1.460  1.7794 -0.6195  0.6781
 8409SOL     OW26125   5.008   1.598   2.552 -0.1275 -0.4495 -0.7370
 8409SOL    HW126126   5.074   1.575   2.624 -1.4582  0.4510  0.8462
 8409SOL    HW226127   4.946   1.521   2.538 -0.6920 -0.1550  0.0673
 8410SOL     OW26128   5.899   6.110   2.436  0.2742  0.2097 -0.2626
 8410SOL    HW126129   5.799   6.109   2.433  0.2442  1.5706 -0.2632
 8410SOL    HW226130   5.935   6.064   2.354 -0.3770  1.7054 -1.4465
 8411SOL     OW26131   0.366   6.660   0.417 -0.1614 -0.2782  0.9836
 8411SOL    HW126132   0.464   6.679   0.420 -0.2985  0.3633  1.6317
 8411SOL    HW226133   0.329   6.686   0.328  0.0315  0.6360  1.1639
 8412SOL     OW26134   4.774   2.011   6.607  0.2276  0.2115  0.3612
 8412SOL    HW126135   4.739   1.993   6.515  1.6070 -0.1828 -0.1122
 8412SOL    HW226136   4.862   1.966   6.618  1.0435  1.9477  1.1879
 8413SOL     OW26137   5.289   5.690   4.085 -0.1215 -0.0155  0.6047
 8413SOL    HW126138   5.372   5.745   4.082 -0.3961  0.4084  0.6452
 8413SOL    HW226139   5.311   5.594   4.067  0.2947  0.1865  0.0131
 8414SOL     OW26140   3.257   6.803   3.635 -0.1642 -0.5005  0.5058
 8414SOL    HW126141   3.212   6.713   3.639  0.6838 -0.9186  0.9302
 8414SOL    HW226142   3.325   6.802   3.561 -0.3139 -0.1363  0.3662
 8415SOL     OW26143   6.697   5.539   3.915 -0.2026 -0.0358 -0.0367
 8415SOL    HW126144   6.793   5.527   3.942 -0.5182 -2.2374  0.2449
 8415SOL    HW226145   6.691   5.615   3.849  1.9619 -0.8060 -1.2435
 8416SOL     OW26146   5.381   4.925   1.527  0.7680 -0.3908  0.2240
 8416SOL    HW126147   5.465   4.976   1.508  0.5814  1.4244  3.5327
 8416SOL    HW226148   5.306   4.963   1.474  1.8300 -1.8462 -2.5503
 8417SOL     OW26149   1.711   3.329   5.856 -0.8481 -0.0734 -0.7458
 8417SOL    HW126150   1.662   3.414   5.871  1.1577  1.0511 -0.2969
 8417SOL    HW226151   1.803   3.336   5.893 -0.7389 -2.5902 -0.3612
 8418SOL     OW26152   5.976   4.570   1.804  0.1729 -0.0367  0.0265
 8418SOL    HW126153   6.074   4.563   1.822  0.5523 -2.8373 -2.3648
 8418SOL    HW226154   5.956   4.657   1.758  2.0276 -0.4678 -1.7449
 8419SOL     OW26155   5.236   4.929   0.970 -0.5831  0.8704  0.1741
 8419SOL    HW126156   5.287   4.975   1.043  1.2215 -1.6048  0.5947
 8419SOL    HW226157   5.191   4.848   1.006 -0.3810  0.0760 -1.2682
 8420SOL     OW26158   3.918   6.250   6.804 -0.6821 -0.0612 -0.1155
 8420SOL    HW126159   3.991   6.298   6.756 -0.5883 -1.3952 -1.3624
 8420SOL    HW226160   3.845   6.227   6.740 -1.3676 -0.3452  0.7445
 8421SOL     OW26161   2.004   6.413   6.552  0.1931  1.0671  0.3252
 8421SOL    HW126162   1.994   6.511   6.534 -1.8294  0.8260 -0.0629
 8421SOL    HW226163   1.974   6.361   6.472  1.2448  0.1149  0.5299
 8422SOL     OW26164   4.831   2.143   1.717  0.3267 -0.0757 -0.7301
 8422SOL    HW126165   4.731   2.148   1.714  0.3827  0.9110 -1.5111
 8422SOL    HW226166   4.870   2.223   1.671  1.4828 -1.0656 -1.5330
 8423SOL     OW26167   3.050   3.648   7.006  0.1126 -0.5521  0.2547
 8423SOL    HW126168   2.966   3.689   6.968 -1.5270 -1.4902  2.6387
 8423SOL    HW226169   3.107   3.720   7.045  0.2530  0.0550 -1.0090
 8424SOL     OW26170   1.329   3.020   4.364  0.4125  0.2713  0.1600
 8424SOL    HW126171   1.273   2.943   4.396  0.4652  0.3525  0.4485
 8424SOL    HW226172   1.419   2.986   4.334  0.2284  0.1460 -0.2670
 8425SOL     OW26173   4.426   3.589   6.141  0.1359  0.2406  0.6654
 8425SOL    HW126174   4.460   3.537   6.063  0.0987  0.7197  0.3202
 8425SOL    HW226175   4.394   3.679   6.109 -1.5724 -0.2351  0.9543
 8426SOL     OW26176   3.626   3.437   2.673  0.1734  0.0894  0.6246
 8426SOL    HW126177   3.571   3.491   2.610  1.0450  2.0793  1.4930
 8426SOL    HW226178   3.702   3.395   2.623 -0.3347 -0.1101  0.0010
 8427SOL     OW26179   4.164   3.555   3.451  0.5391 -0.1491  0.1942
 8427SOL    HW126180   4.154   3.464   3.490  1.9000 -0.2400  0.3892
 8427SOL    HW226181   4.172   3.623   3.524 -1.7490  0.3338  0.0700
 8428SOL     OW26182   1.126   5.281   1.596  0.0301 -0.1649 -0.2722
 8428SOL    HW126183   1.060   5.280   1.672  1.3079 -0.1368  0.8666
 8428SOL    HW226184   1.140   5.375   1.565  1.1399  0.0827  0.9349
 8429SOL     OW26185   0.930   5.985   4.360  0.0978  0.2201  0.1442
 8429SOL    HW126186   0.944   6.007   4.264 -0.5413  1.5050  0.3190
 8429SOL    HW226187   0.833   5.996   4.383 -0.0567 -1.7167  0.5541
 8430SOL     OW26188   3.351   5.040   5.522 -0.4039 -0.2143 -0.4408
 8430SOL    HW126189   3.296   4.959   5.543 -1.3241  0.6690  0.7220
 8430SOL    HW226190   3.296   5.104   5.468 -0.1815  0.2474 -0.1268
 8431SOL     OW26191   5.111   2.670   1.429  0.2224 -0.0980  0.0240
 8431SOL    HW126192   5.168   2.693   1.507  0.6220 -0.5879 -0.1173
 8431SOL    HW226193   5.061   2.751   1.399  1.4702  0.5555 -0.3759
 8432SOL     OW26194   4.492   6.676   4.558 -0.5595 -0.2830 -0.5978
 8432SOL    HW126195   4.425   6.687   4.631  0.1513 -0.3929  0.0881
 8432SOL    HW226196   4.466   6.733   4.480 -0.2938  1.4101  0.4887
 8433SOL     OW26197   4.072   1.563   1.229 -0.2089  0.2947 -0.0771
 8433SOL    HW126198   4.140   1.575   1.157  0.2592 -1.2949  0.0667
 8433SOL    HW226199   4.037   1.652   1.257 -3.2397  0.9988 -4.9083
 8434SOL     OW26200   2.598   0.844   3.579  0.3800 -0.5292 -0.4810
 8434SOL    HW126201   2.594   0.812   3.674 -0.2387 -1.7698 -0.9034
 8434SOL    HW226202   2.694   0.853   3.551  0.5731 -1.1469 -0.0444
 8435SOL     OW26203   6.279   0.458   1.300  0.0429 -0.5932  0.8253
 8435SOL    HW126204   6.289   0.393   1.375 -0.6391 -2.1195 -0.3510
 8435SOL    HW226205   6.182   0.470   1.277  0.0403  1.8333  1.8055
 8436SOL     OW26206   3.346   7.012   4.271  0.3867  0.0570  0.6328
 8436SOL    HW126207   3.374   7.032   4.177 -0.3682  1.9782  0.7950
 8436SOL    HW226208   3.401   7.066   4.334  0.9417 -1.2814  1.3499
 8437SOL     OW26209   2.639   6.975   2.492 -0.5742  0.6865 -0.3405
 8437SOL    HW126210   2.736   6.959   2.473 -0.1052  0.9534  1.6115
 8437SOL    HW226211   2.597   6.890   2.524 -0.6630  0.8710  0.0386
 8438SOL     OW26212   2.760   4.507   1.631  0.5564 -0.5682  0.1050
 8438SOL    HW126213   2.825   4.508   1.707  0.5869  0.0508  0.0813
 8438SOL    HW226214   2.782   4.581   1.567  0.2854 -0.8289 -0.2954
 8439SOL     OW26215   5.435   5.330   5.468 -0.0546  0.3505 -0.1327
 8439SOL    HW126216   5.337   5.318   5.482  0.2599  0.0536  2.2814
 8439SOL    HW226217   5.452   5.419   5.425 -1.3002  1.5003  1.6111
 8440SOL     OW26218   0.965   1.531   3.799 -0.2781  0.2606  0.1525
 8440SOL    HW126219   1.005   1.468   3.733  1.0553  1.7965 -0.5634
 8440SOL    HW226220   0.905   1.595   3.753  0.6473  1.3346  0.3908
 8441SOL     OW26221   4.292   0.460   1.089  0.1180  0.3582 -0.0180
 8441SOL    HW126222   4.374   0.490   1.039  0.6233 -2.8519 -1.4273
 8441SOL    HW226223   4.215   0.454   1.025  0.6877 -3.4852 -0.5799
 8442SOL     OW26224   4.265   4.206   5.348  0.1473  0.4009 -0.2352
 8442SOL    HW126225   4.357   4.169   5.354 -0.8897 -2.2766  0.6281
 8442SOL    HW226226   4.260   4.271   5.272  2.6126  0.3177 -0.5391
 8443SOL     OW26227   2.367   3.700   1.739 -0.5815  0.1639 -0.2963
 8443SOL    HW126228   2.298   3.767   1.768  0.0379  0.9490 -0.5822
 8443SOL    HW226229   2.349   3.612   1.783 -1.6965  0.3838 -0.2885
 8444SOL     OW26230   3.111   1.344   3.301 -0.3781 -0.3007  0.0828
 8444SOL    HW126231   3.177   1.415   3.323 -2.6364  0.9576  3.7363
 8444SOL    HW226232   3.145   1.255   3.332 -0.2206  0.3118  1.7926
 8445SOL     OW26233   2.820   6.821   0.552 -0.3011  0.3592  0.3907
 8445SOL    HW126234   2.869   6.797   0.468  1.3853 -0.1107  1.4778
 8445SOL    HW226235   2.806   6.739   0.607 -2.8182  0.3745 -0.0869
 8446SOL     OW26236   5.683   0.678   0.119  0.0118 -0.0871  0.3599
 8446SOL    HW126237   5.612   0.626   0.072 -0.8048  1.6435 -0.4165
 8446SOL    HW226238   5.730   0.737   0.054  0.6741  0.3921  1.2459
 8447SOL     OW26239   5.356   0.152   2.236 -0.4832 -0.0668  0.3358
 8447SOL    HW126240   5.256   0.151   2.237 -0.4809 -0.1411  0.4319
 8447SOL    HW226241   5.390   0.064   2.202 -0.3887 -1.3178  3.3665
 8448SOL     OW26242   3.882   6.066   4.711 -0.1089  0.1033  0.2985
 8448SOL    HW126243   3.813   6.054   4.640  0.3957 -0.8257 -0.0422
 8448SOL    HW226244   3.968   6.095   4.669  0.1679 -0.3679  0.5406
 8449SOL     OW26245   6.192   2.419   2.533  0.3233 -0.5336  0.6280
 8449SOL    HW126246   6.129   2.350   2.569  0.7041 -1.8360 -1.0549
 8449SOL    HW226247   6.286   2.385   2.538  0.3700 -1.0021 -1.8268
 8450SOL     OW26248   1.634   5.555   1.852  0.1027 -0.5023 -0.7743
 8450SOL    HW126249   1.697   5.532   1.926  0.2604  1.8609 -0.0755
 8450SOL    HW226250   1.540   5.547   1.885  0.1617  0.1201 -0.4430
 8451SOL     OW26251   4.169   3.147   1.495  0.0831  0.7665  0.3913
 8451SOL    HW126252   4.073   3.141   1.520  0.1417 -1.4540  0.2322
 8451SOL    HW226253   4.222   3.080   1.548  0.5665 -2.4865 -3.7234
 8452SOL     OW26254   4.904   1.351   3.274  0.1707  0.5441  0.5760
 8452SOL    HW126255   4.809   1.321   3.265  0.7128 -0.5855 -3.8456
 8452SOL    HW226256   4.965   1.274   3.258  1.9477  1.3099  3.0583
 8453SOL     OW26257   0.294   4.713   5.958 -0.6045 -0.3217  0.1417
 8453SOL    HW126258   0.208   4.663   5.967 -1.3645  0.9487  0.2386
 8453SOL    HW226259   0.311   4.766   6.041  0.6998 -1.1515  0.4446
 8454SOL     OW26260   6.746   0.057   3.203 -0.1744 -0.5316  0.5425
 8454SOL    HW126261   6.699   0.016   3.125  0.1247 -0.4058  0.2960
 8454SOL    HW226262   6.830   0.007   3.221  0.7629  0.6351 -0.4566
 8455SOL     OW26263   6.423   3.441   2.706  0.6025 -0.1131 -0.1754
 8455SOL    HW126264   6.415   3.439   2.806  1.7822 -2.0656 -0.0678
 8455SOL    HW226265   6.513   3.406   2.679 -0.3393 -1.2969 -1.9681
 8456SOL     OW26266   3.170   5.892   3.221 -0.7960 -0.1171 -0.0517
 8456SOL    HW126267   3.202   5.935   3.136 -0.8620 -1.5292 -0.8377
 8456SOL    HW226268   3.073   5.914   3.235 -0.2784  1.8260  0.8067
 8457SOL     OW26269   0.616   6.167   4.621  0.3907 -0.3875  0.5415
 8457SOL    HW126270   0.563   6.092   4.659  1.1603 -1.6648 -0.8333
 8457SOL    HW226271   0.674   6.206   4.693 -0.9162 -0.2628  1.5675
 8458SOL     OW26272   2.461   6.088   1.590 -0.0795 -0.5863  0.1193
 8458SOL    HW126273   2.461   6.053   1.496  1.2090 -1.2351  0.3333
 8458SOL    HW226274   2.504   6.178   1.592  3.0159 -1.9303  0.4679
 8459SOL     OW26275   2.296   5.119   2.580 -0.4794  0.3252 -0.6759
 8459SOL    HW126276   2.368   5.050   2.578 -0.1513  0.6602 -0.5062
 8459SOL    HW226277   2.256   5.122   2.671  0.5901  1.4606 -0.2220
 8460SOL     OW26278   3.953   4.350   5.658  0.1169  0.3808 -0.0624
 8460SOL    HW126279   3.921   4.445   5.656 -1.3122 -0.0369  1.2526
 8460SOL    HW226280   3.887   4.294   5.707  0.3686 -1.5411 -1.8164
 8461SOL     OW26281   1.589   2.915   6.852 -0.7335  0.2714  0.5289
 8461SOL    HW126282   1.571   2.958   6.763 -0.7519 -1.5224 -0.3857
 8461SOL    HW226283   1.526   2.839   6.865  1.4755 -1.6736  0.4671
 8462SOL     OW26284   1.652   1.182   6.615  0.0547  0.1640  0.3423
 8462SOL    HW126285   1.578   1.129   6.573  1.6766 -1.1854 -0.9521
 8462SOL    HW226286   1.619   1.222   6.701 -2.9158  1.7740 -1.4086
 8463SOL     OW26287   6.603   6.652   3.089 -0.1356  0.5152  0.2167
 8463SOL    HW126288   6.678   6.645   3.155  0.1739 -0.3209 -0.2091
 8463SOL    HW226289   6.614   6.582   3.019 -1.6318 -0.0046  0.4692
 8464SOL     OW26290   6.185   5.532   5.716  0.3229  0.1880  0.2197
 8464SOL    HW126291   6.187   5.571   5.625 -1.2560  0.1668  0.1480
 8464SOL    HW226292   6.175   5.432   5.710 -1.4942  0.3229  0.3711
 8465SOL     OW26293   0.075   3.407   6.634  0.0669 -0.0931 -0.2044
 8465SOL    HW126294   0.145   3.419   6.564 -0.1398  0.6903 -0.2838
 8465SOL    HW226295   0.118   3.410   6.725 -0.0373  2.0362 -0.1791
 8466SOL     OW26296   1.848   1.088   3.215  0.0566  0.0047  0.4918
 8466SOL    HW126297   1.835   1.157   3.286 -0.9826  1.0833 -0.6682
 8466SOL    HW226298   1.766   1.086   3.157 -0.3385 -2.9002  1.0277
 8467SOL     OW26299   3.233   0.043   0.523 -0.2950  0.2358  0.5443
 8467SOL    HW126300   3.328   0.072   0.538  0.0242 -0.6717  0.3636
 8467SOL    HW226301   3.180   0.120   0.487  1.0652  0.0842 -2.1003
 8468SOL     OW26302   4.761   2.744   1.290 -0.4997  0.2406 -0.0014
 8468SOL    HW126303   4.793   2.667   1.344 -0.8176  0.7068  0.8685
 8468SOL    HW226304   4.838   2.786   1.241 -0.1770 -0.0507  0.2619
 8469SOL     OW26305   4.657   1.577   0.993 -0.1174 -0.0726 -0.4044
 8469SOL    HW126306   4.723   1.601   0.922  0.1252  0.4207 -0.0167
 8469SOL    HW226307   4.678   1.627   1.077 -0.0947 -1.0270  0.1761
 8470SOL     OW26308   1.548   3.902   1.076 -0.6252 -0.0342 -0.1957
 8470SOL    HW126309   1.495   3.827   1.115  0.7787 -0.2686  1.3879
 8470SOL    HW226310   1.636   3.867   1.044  0.0385  0.9138  0.5515
 8471SOL     OW26311   2.633   2.517   4.792 -0.3722 -0.1835  0.2288
 8471SOL    HW126312   2.672   2.492   4.703  1.0286  1.3863  0.3421
 8471SOL    HW226313   2.708   2.539   4.856 -1.3806 -0.2609  1.4708
 8472SOL     OW26314   6.813   6.948   4.606 -0.0205  0.5595 -0.0877
 8472SOL    HW126315   6.750   6.946   4.529  1.6026 -0.9679 -1.4582
 8472SOL    HW226316   6.778   7.011   4.676 -2.9818 -0.1686 -0.7700
 8473SOL     OW26317   6.119   5.880   0.271 -0.4176 -0.0388  0.4258
 8473SOL    HW126318   6.090   5.854   0.364 -0.5087 -0.1281  0.3731
 8473SOL    HW226319   6.085   5.812   0.206  0.8422 -0.7579  0.4866
 8474SOL     OW26320   3.237   3.390   1.693 -0.4695  0.4084 -0.5892
 8474SOL    HW126321   3.160   3.449   1.668 -0.0006  1.0507 -0.5306
 8474SOL    HW226322   3.230   3.364   1.789  1.4931  3.7946  0.6310
 8475SOL     OW26323   6.511   0.437   4.607 -0.4056  0.4330  0.2787
 8475SOL    HW126324   6.471   0.390   4.529 -0.4040  1.8850 -0.6304
 8475SOL    HW226325   6.449   0.430   4.685 -0.8440 -0.2291 -0.1185
 8476SOL     OW26326   0.794   1.178   2.021  0.4109  0.0758 -0.0856
 8476SOL    HW126327   0.875   1.136   2.063 -0.4974 -0.5617  1.0657
 8476SOL    HW226328   0.716   1.169   2.082 -0.4124  1.2190 -0.9243
 8477SOL     OW26329   3.071   0.341   1.010 -0.0837 -0.0706  0.0895
 8477SOL    HW126330   3.093   0.409   0.941 -1.2740  0.3003  0.0623
 8477SOL    HW226331   3.088   0.379   1.101  3.6265 -1.2787  0.0703
 8478SOL     OW26332   0.900   6.260   6.626 -0.5471 -0.3844  0.1597
 8478SOL    HW126333   0.992   6.289   6.598 -0.0291 -1.2705  0.8943
 8478SOL    HW226334   0.850   6.226   6.546  0.2304 -1.0971 -0.0383
 8479SOL     OW26335   6.723   1.883   1.388  0.1197  0.2718  0.0130
 8479SOL    HW126336   6.632   1.883   1.347  0.1546  0.8369 -0.0698
 8479SOL    HW226337   6.742   1.972   1.428 -0.4343 -0.6177  2.4438
 8480SOL     OW26338   2.695   0.800   5.881  0.3334  0.5413  0.2889
 8480SOL    HW126339   2.611   0.854   5.886  0.2323  0.5770 -1.4543
 8480SOL    HW226340   2.754   0.836   5.809  1.6388  0.1974  1.1450
 8481SOL     OW26341   6.131   2.628   3.683 -0.3491 -0.3135  0.8892
 8481SOL    HW126342   6.222   2.654   3.714  0.6572 -2.0792 -0.3913
 8481SOL    HW226343   6.137   2.583   3.594 -2.4760 -0.5664  0.8013
 8482SOL     OW26344   4.415   0.890   1.371 -0.0652 -0.4073  0.1474
 8482SOL    HW126345   4.455   0.909   1.282 -1.8337  2.4664 -0.1536
 8482SOL    HW226346   4.319   0.864   1.360 -0.1563 -0.5728  1.1781
 8483SOL     OW26347   3.980   6.872   3.395 -0.6174 -0.1804  0.0967
 8483SOL    HW126348   3.990   6.882   3.494 -1.4769  0.0632  0.1668
 8483SOL    HW226349   3.926   6.789   3.376  0.5383 -0.8790 -0.2186
 8484SOL     OW26350   5.852   4.488   2.341  0.0537 -0.1351  0.0112
 8484SOL    HW126351   5.776   4.424   2.325  1.0058 -1.1002 -0.7979
 8484SOL    HW226352   5.934   4.437   2.365  0.5407  0.8807  0.5745
 8485SOL     OW26353   4.445   3.152   6.058  0.0461 -0.3787 -0.2722
 8485SOL    HW126354   4.510   3.132   5.985 -0.7066 -0.8251 -0.8307
 8485SOL    HW226355   4.370   3.086   6.055 -1.4414  1.2562 -0.8648
 8486SOL     OW26356   4.810   1.810   2.703 -0.3336 -0.6684  0.3321
 8486SOL    HW126357   4.805   1.793   2.802  1.1957  0.0564  0.5652
 8486SOL    HW226358   4.869   1.743   2.661 -2.0784 -1.8413 -0.3651
 8487SOL     OW26359   0.475   1.958   6.652  0.0486 -0.6833 -0.0486
 8487SOL    HW126360   0.392   2.010   6.676 -0.3135 -1.4169  0.3204
 8487SOL    HW226361   0.450   1.880   6.594  0.5612 -0.5700 -0.4294
 8488SOL     OW26362   5.417   6.446   5.784 -0.1519 -0.5039 -0.2361
 8488SOL    HW126363   5.366   6.426   5.701  0.1983 -0.0952 -0.5563
 8488SOL    HW226364   5.375   6.524   5.831  0.2326 -0.0926 -0.5612
 8489SOL     OW26365   4.304   0.768   0.968  0.1823  0.0042  0.1989
 8489SOL    HW126366   4.237   0.699   0.995 -0.2646  0.6923  0.8821
 8489SOL    HW226367   4.278   0.809   0.881  0.0762 -0.1908  0.1391
 8490SOL     OW26368   2.407   0.017   3.830  0.3262  0.0718 -0.1395
 8490SOL    HW126369   2.371   0.087   3.891 -0.7562  0.2946 -1.0065
 8490SOL    HW226370   2.389  -0.074   3.869  1.4984  0.2536  0.8575
 8491SOL     OW26371   1.879   5.773   0.381 -0.2346  0.9353 -0.1437
 8491SOL    HW126372   1.862   5.695   0.441 -0.6589  1.3113  0.2311
 8491SOL    HW226373   1.881   5.858   0.435  1.4343  1.0823 -0.3583
 8492SOL     OW26374   5.788   3.849   0.549 -0.5088 -0.6592  0.0015
 8492SOL    HW126375   5.735   3.930   0.573  0.9715  1.2369 -2.6459
 8492SOL    HW226376   5.878   3.853   0.592  0.3382  0.2608 -1.7481
 8493SOL     OW26377   2.677   1.139   6.534  0.0944 -0.2655 -0.4559
 8493SOL    HW126378   2.769   1.137   6.573 -0.1696 -2.4426  0.2001
 8493SOL    HW226379   2.678   1.094   6.445 -0.2332  0.2230 -0.7073
 8494SOL     OW26380   2.969   5.051   0.160 -0.4881 -0.1590  0.6139
 8494SOL    HW126381   3.048   5.005   0.201  0.0654  0.3151  0.1046
 8494SOL    HW226382   2.991   5.147   0.144 -1.2854  0.0586  0.7558
 8495SOL     OW26383   0.931   4.203   0.814 -0.3375 -0.1772 -0.2466
 8495SOL    HW126384   0.898   4.131   0.754 -1.3312  1.1380 -1.3347
 8495SOL    HW226385   0.870   4.211   0.893  0.8655 -1.7802  0.9152
 8496SOL     OW26386   1.128   2.848   1.053  0.6858  0.8492 -0.1082
 8496SOL    HW126387   1.041   2.840   1.004  0.8270  0.9893 -0.3848
 8496SOL    HW226388   1.123   2.796   1.138 -0.0708  1.7766  0.4392
 8497SOL     OW26389   6.810   0.119   3.845 -0.1865 -0.1496  1.1122
 8497SOL    HW126390   6.898   0.154   3.876 -0.3705  1.8617 -0.4187
 8497SOL    HW226391   6.824   0.037   3.788  0.9820  1.4288 -1.0126
 8498SOL     OW26392   5.409   4.455   2.215  0.0368 -0.0178  0.1914
 8498SOL    HW126393   5.413   4.402   2.131  1.8155 -0.3518  0.4323
 8498SOL    HW226394   5.400   4.552   2.194  0.6801 -0.0804 -0.4115
 8499SOL     OW26395   1.190   5.570   6.325 -0.3966  0.0649 -0.3733
 8499SOL    HW126396   1.177   5.471   6.333  1.0129 -0.0748  0.6327
 8499SOL    HW226397   1.125   5.618   6.384 -1.4785 -0.2191 -1.3131
 8500SOL     OW26398   1.715   5.483   3.362  0.0349  0.0900 -0.1601
 8500SOL    HW126399   1.703   5.561   3.300  1.1017 -0.5968 -1.2712
 8500SOL    HW226400   1.803   5.439   3.344  0.2602 -0.3038  1.6756
 8501SOL     OW26401   0.848   2.594   0.624  0.3862 -0.0750 -0.5476
 8501SOL    HW126402   0.878   2.579   0.529  1.2008 -0.7400 -0.2000
 8501SOL    HW226403   0.917   2.559   0.686 -0.2019  0.2489  0.3030
 8502SOL     OW26404   3.521   4.588   0.298  0.1036  0.3104 -0.1950
 8502SOL    HW126405   3.592   4.600   0.367  0.8882 -2.5663 -0.3602
 8502SOL    HW226406   3.433   4.571   0.344 -0.4519  3.2494  0.0044
 8503SOL     OW26407   1.066   6.035   2.371 -0.0567 -0.2215 -0.2066
 8503SOL    HW126408   1.133   6.108   2.359 -2.6000  2.5590  1.1766
 8503SOL    HW226409   1.100   5.970   2.439  1.6055  0.6049 -0.2000
 8504SOL     OW26410   2.434   4.825   2.052  0.0866  0.0953 -0.0869
 8504SOL    HW126411   2.512   4.845   1.993 -0.0251 -1.3227 -0.7783
 8504SOL    HW226412   2.350   4.826   1.997 -0.8190  3.9558  1.0558
 8505SOL     OW26413   5.855   3.931   2.855  0.1381 -0.0012  0.2088
 8505SOL    HW126414   5.926   3.905   2.790 -0.2121 -2.0402  0.5832
 8505SOL    HW226415   5.878   4.020   2.896  1.3092  0.4189 -1.2892
 8506SOL     OW26416   4.568   1.103   0.022 -0.2218 -0.0124  0.1853
 8506SOL    HW126417   4.541   1.044  -0.054 -0.3547  0.3515 -0.0511
 8506SOL    HW226418   4.549   1.199  -0.001 -0.5486  0.0753  0.7953
 8507SOL     OW26419   4.231   0.951   3.930 -0.0297 -0.2076  0.5076
 8507SOL    HW126420   4.217   0.852   3.918 -2.0415  0.1567 -0.5456
 8507SOL    HW226421   4.163   1.001   3.876 -2.0006  1.7160  4.3799
 8508SOL     OW26422   6.045   0.555   5.524  0.8182 -0.4496 -0.2452
 8508SOL    HW126423   6.112   0.482   5.518  2.3971  0.8647  0.6871
 8508SOL    HW226424   6.040   0.603   5.437  4.3082  2.0713  0.7201
 8509SOL     OW26425   6.311   3.116   2.009 -0.0267 -0.2016  0.0696
 8509SOL    HW126426   6.231   3.173   2.025  0.2733  0.7910 -1.6686
 8509SOL    HW226427   6.293   3.023   2.041 -1.2912  0.3649  1.0870
 8510SOL     OW26428   5.379   5.075   3.285  0.3613 -0.2247 -0.1025
 8510SOL    HW126429   5.317   5.148   3.311  0.7242 -0.3986  1.3645
 8510SOL    HW226430   5.329   5.006   3.232 -1.1607 -1.1358  2.3356
 8511SOL     OW26431   5.025   4.088   0.994 -0.4768  0.2919 -0.3318
 8511SOL    HW126432   5.021   4.154   1.069 -1.8296  1.0213 -1.0012
 8511SOL    HW226433   5.086   4.013   1.019 -2.2791 -0.4626  2.3160
 8512SOL     OW26434   2.054   1.929   6.933 -0.1408  0.4636 -0.2061
 8512SOL    HW126435   1.996   1.945   6.853 -0.1611  2.4186  0.1644
 8512SOL    HW226436   2.003   1.875   7.001 -0.4793 -0.3156 -1.0467
 8513SOL     OW26437   4.051   2.734   1.654 -0.7346 -0.2479  0.5826
 8513SOL    HW126438   3.955   2.706   1.653 -0.4540 -1.2709 -0.2763
 8513SOL    HW226439   4.108   2.656   1.682 -0.1727  0.4140  1.2982
 8514SOL     OW26440   4.069   1.019   5.526  0.3928 -0.1599  0.3333
 8514SOL    HW126441   4.111   0.928   5.520 -0.0178 -0.3720  0.6193
 8514SOL    HW226442   3.969   1.009   5.528  0.3710  0.2413  1.3305
 8515SOL     OW26443   5.310   1.186   0.326 -0.2699 -0.3484 -0.3123
 8515SOL    HW126444   5.319   1.280   0.359 -0.1980  0.1425 -1.6746
 8515SOL    HW226445   5.219   1.151   0.346 -0.9751  0.7274 -1.5214
 8516SOL     OW26446   6.899   1.753   1.563 -0.1724 -0.1944 -0.2637
 8516SOL    HW126447   6.917   1.818   1.637 -1.2051 -0.5560  0.3213
 8516SOL    HW226448   6.831   1.791   1.502 -1.0750 -0.8697  0.2998
 8517SOL     OW26449   1.804   1.188   1.343 -0.3163 -0.1631  0.0828
 8517SOL    HW126450   1.778   1.247   1.420  0.3395 -0.0525  0.2231
 8517SOL    HW226451   1.796   1.240   1.258  2.2920  0.8583  0.3695
 8518SOL     OW26452   5.330   0.382   6.257  0.2051  0.5240 -0.1185
 8518SOL    HW126453   5.397   0.365   6.185  0.4443 -0.9006  0.4116
 8518SOL    HW226454   5.285   0.470   6.241  0.5992  0.4560 -1.7243
 8519SOL     OW26455   1.785   3.617   3.284 -0.0535  0.0528  0.2622
 8519SOL    HW126456   1.700   3.565   3.275 -0.2340  0.4678 -0.5809
 8519SOL    HW226457   1.820   3.639   3.192  0.2079  1.1048  0.6055
 8520SOL     OW26458   4.787   2.460   0.867  0.1970  0.4457  0.0390
 8520SOL    HW126459   4.765   2.390   0.935 -1.7185  1.0156  0.0703
 8520SOL    HW226460   4.790   2.550   0.911 -1.8957  0.9341 -0.6708
 8521SOL     OW26461   2.867   5.283   6.186 -0.0299 -0.0064  0.1253
 8521SOL    HW126462   2.848   5.381   6.192 -0.0856 -0.0272  0.2766
 8521SOL    HW226463   2.964   5.269   6.165 -0.3502  0.1244 -1.5701
 8522SOL     OW26464   2.533   6.359   1.642 -0.4441  0.4967  0.2769
 8522SOL    HW126465   2.555   6.409   1.725  2.9373  0.3405 -0.4083
 8522SOL    HW226466   2.509   6.424   1.569  0.2748  0.9005  0.3919
 8523SOL     OW26467   1.192   6.071   5.483  0.2562 -0.0144 -0.1060
 8523SOL    HW126468   1.122   6.046   5.416  0.7780  1.2523 -1.1805
 8523SOL    HW226469   1.268   6.116   5.436  0.8436  0.5270  1.2961
 8524SOL     OW26470   6.114   3.294   6.233 -0.1827  0.0827 -0.0199
 8524SOL    HW126471   6.052   3.239   6.290 -0.1484 -0.4392 -0.4758
 8524SOL    HW226472   6.059   3.351   6.171 -0.2337  1.2272  1.0496
 8525SOL     OW26473   0.107   5.389   1.982 -0.0105 -0.1351  0.2963
 8525SOL    HW126474   0.100   5.349   2.074 -1.5191 -0.6828 -0.0364
 8525SOL    HW226475   0.020   5.430   1.957  0.5958  0.6093 -0.6389
 8526SOL     OW26476   3.812   6.519   0.771 -0.4528 -0.1166 -0.0510
 8526SOL    HW126477   3.830   6.533   0.673  0.3910 -1.1210 -0.0567
 8526SOL    HW226478   3.714   6.528   0.788 -0.7129 -0.7082 -1.1263
 8527SOL     OW26479   2.341   1.543   5.950 -0.3838  0.1057  0.1920
 8527SOL    HW126480   2.365   1.447   5.964  2.3419  0.6143 -0.4778
 8527SOL    HW226481   2.329   1.560   5.852  1.1612  0.8177  0.0969
 8528SOL     OW26482   4.527   0.115   0.107  0.4086  0.2601 -0.0364
 8528SOL    HW126483   4.575   0.073   0.184 -1.5904 -0.0068  1.1275
 8528SOL    HW226484   4.508   0.045   0.037 -0.8063 -0.3134  0.8275
 8529SOL     OW26485   2.149   0.993   7.020 -0.5354 -1.1411 -0.1369
 8529SOL    HW126486   2.127   1.090   7.011  0.1008 -1.1373 -2.1326
 8529SOL    HW226487   2.068   0.944   7.053 -2.1333 -0.4390 -2.6397
 8530SOL     OW26488   4.779   4.530   0.128  0.1208  0.4160  0.0653
 8530SOL    HW126489   4.789   4.443   0.080 -1.5164 -0.1710  0.7074
 8530SOL    HW226490   4.797   4.517   0.226 -0.9405  0.5987  0.2964
 8531SOL     OW26491   5.895   5.917   1.949 -0.6418  0.4457  0.0157
 8531SOL    HW126492   5.817   5.941   1.891 -0.4051  0.2010 -0.4142
 8531SOL    HW226493   5.878   5.830   1.993 -1.0669  0.9039  0.7730
 8532SOL     OW26494   4.581   4.639   5.193 -0.1402 -0.3065  0.3522
 8532SOL    HW126495   4.515   4.620   5.265 -0.9218  1.4203  0.1490
 8532SOL    HW226496   4.537   4.630   5.104  0.4661 -1.1472  0.1260
 8533SOL     OW26497   1.299   6.314   6.037  0.0352  0.1049 -0.6743
 8533SOL    HW126498   1.379   6.293   6.094 -0.8937 -0.0883  0.6097
 8533SOL    HW226499   1.320   6.391   5.977  1.7547 -1.0461 -1.6458
 8534SOL     OW26500   5.342   3.715   4.770 -0.3772  0.1735 -0.0046
 8534SOL    HW126501   5.260   3.718   4.712 -0.4901 -0.0087  0.1459
 8534SOL    HW226502   5.317   3.682   4.861 -0.4381  1.6559  0.5443
 8535SOL     OW26503   6.638   6.877   3.560 -0.3821 -0.5014  0.1247
 8535SOL    HW126504   6.601   6.787   3.535 -0.7864  0.0793 -1.4253
 8535SOL    HW226505   6.606   6.946   3.495  1.8951  0.3656 -0.1661
 8536SOL     OW26506   4.643   1.234   5.739 -0.4209 -0.1725 -0.1524
 8536SOL    HW126507   4.663   1.137   5.730 -0.2846 -0.1939  0.3671
 8536SOL    HW226508   4.549   1.246   5.772 -0.4225 -0.1299 -0.1712
 8537SOL     OW26509   6.411   0.806   2.847  0.0090 -0.1654  0.4669
 8537SOL    HW126510   6.396   0.731   2.912  1.1242 -0.5172  0.3474
 8537SOL    HW226511   6.375   0.780   2.758 -1.8809  0.4755  1.0075
 8538SOL     OW26512   2.587   2.399   1.552  0.2369  0.4028 -0.2873
 8538SOL    HW126513   2.683   2.375   1.541  0.3525 -0.1712  1.5555
 8538SOL    HW226514   2.532   2.349   1.485  1.0319 -0.8216 -0.0596
 8539SOL     OW26515   1.699   1.591   3.317 -0.2281 -0.4291 -0.2502
 8539SOL    HW126516   1.790   1.612   3.281  0.0145 -1.0577 -0.0073
 8539SOL    HW226517   1.632   1.653   3.275  0.3269  0.1524 -0.3013
 8540SOL     OW26518   5.470   1.258   5.648  0.3896  0.0057  0.0385
 8540SOL    HW126519   5.397   1.301   5.700  1.3034  1.7139 -0.0193
 8540SOL    HW226520   5.531   1.208   5.709  1.3803  1.8845  0.6475
 8541SOL     OW26521   3.811   1.832   3.143 -0.4850 -0.0825 -0.2433
 8541SOL    HW126522   3.789   1.750   3.090  2.0052 -0.3550 -0.9516
 8541SOL    HW226523   3.818   1.808   3.240  1.1189 -0.9369 -0.5494
 8542SOL     OW26524   4.254   3.783   6.494 -0.1518 -0.1185 -0.1682
 8542SOL    HW126525   4.322   3.715   6.469 -0.5846 -0.7303  0.2763
 8542SOL    HW226526   4.273   3.819   6.586  0.1513  0.4654 -0.4530
 8543SOL     OW26527   1.024   6.723   0.278  0.6550  0.3302  0.0801
 8543SOL    HW126528   1.003   6.630   0.247 -1.5658  0.4783  0.9185
 8543SOL    HW226529   1.119   6.728   0.307  0.6860 -1.8408  0.5374
 8544SOL     OW26530   6.134   3.528   4.625  0.3445 -0.3928  0.4850
 8544SOL    HW126531   6.123   3.434   4.593 -0.9498 -0.1993  0.3147
 8544SOL    HW226532   6.045   3.570   4.636  0.7721  0.0860  2.8035
 8545SOL     OW26533   4.387   6.158   3.896  0.4015  0.3315 -0.3726
 8545SOL    HW126534   4.477   6.119   3.915 -0.1574 -0.8444 -0.0117
 8545SOL    HW226535   4.389   6.257   3.912  1.8256  0.4594 -1.1397
 8546SOL     OW26536   0.194   3.038   5.486  0.0916 -0.3735  0.0448
 8546SOL    HW126537   0.208   3.058   5.389 -0.8391 -1.6428 -0.3772
 8546SOL    HW226538   0.139   2.955   5.496  0.0648 -0.2044  1.6652
 8547SOL     OW26539   2.102   6.731   1.368 -0.0989 -0.3195  0.5469
 8547SOL    HW126540   2.194   6.716   1.334  0.4227 -0.0518  1.7804
 8547SOL    HW226541   2.055   6.643   1.377  0.5110 -0.5856  1.1846
 8548SOL     OW26542   4.651   2.026   5.560  0.1670  0.1080  0.5480
 8548SOL    HW126543   4.746   2.021   5.592 -0.0288 -1.5162  0.9681
 8548SOL    HW226544   4.644   1.985   5.469  0.0238  1.1270  0.0857
 8549SOL     OW26545   6.356   3.312   6.343 -0.1385  0.2858  0.3271
 8549SOL    HW126546   6.279   3.329   6.281 -0.0749 -0.7791 -0.0574
 8549SOL    HW226547   6.343   3.364   6.427  0.0248  2.1478 -0.7550
 8550SOL     OW26548   2.359   6.174   6.630  0.1249 -0.0672 -0.3075
 8550SOL    HW126549   2.435   6.178   6.695  0.3314 -0.0637 -0.5452
 8550SOL    HW226550   2.396   6.161   6.538 -0.2428 -1.8139 -0.2350
 8551SOL     OW26551   5.292   5.392   0.028 -0.3110  0.1782 -0.3529
 8551SOL    HW126552   5.269   5.294   0.031  0.0053  0.1040 -0.3074
 8551SOL    HW226553   5.376   5.404  -0.025  1.0460  0.1564  1.6921
 8552SOL     OW26554   3.748   0.719   4.899 -0.1272 -0.0361 -0.3024
 8552SOL    HW126555   3.733   0.728   4.998  1.4405  0.1883 -0.0581
 8552SOL    HW226556   3.740   0.808   4.856 -0.1831 -0.0273 -0.2732
 8553SOL     OW26557   6.107   3.318   6.616 -0.0326 -0.2739 -0.0384
 8553SOL    HW126558   6.202   3.320   6.646  0.1384  0.5444 -0.5943
 8553SOL    HW226559   6.057   3.247   6.666  0.3833  0.5989  1.7213
 8554SOL     OW26560   6.765   5.904   6.236 -0.3101 -0.3126 -0.2237
 8554SOL    HW126561   6.847   5.923   6.290 -1.2896 -0.4183  1.3641
 8554SOL    HW226562   6.743   5.984   6.180  0.9225 -0.3259 -0.7488
 8555SOL     OW26563   2.805   0.440   0.452  0.6918  0.1849 -0.1736
 8555SOL    HW126564   2.841   0.351   0.423 -2.1190 -1.3781  0.8028
 8555SOL    HW226565   2.781   0.437   0.549 -0.6285  1.6217 -0.4182
 8556SOL     OW26566   1.213   6.852   3.560  0.0199 -0.0021 -0.3325
 8556SOL    HW126567   1.127   6.902   3.571  0.9986  1.8209 -0.5788
 8556SOL    HW226568   1.276   6.876   3.633  0.8945 -0.0618 -1.0440
 8557SOL     OW26569   5.775   0.217   1.530  0.1461 -0.3319  0.8153
 8557SOL    HW126570   5.705   0.258   1.589  0.2747 -0.3033  0.9487
 8557SOL    HW226571   5.832   0.289   1.492 -0.9280 -0.2047 -0.6291
 8558SOL     OW26572   4.188   0.419   3.608  0.2224  0.8607 -0.2961
 8558SOL    HW126573   4.133   0.379   3.534 -0.7337  0.8819  0.3927
 8558SOL    HW226574   4.136   0.418   3.693  1.9259 -0.7673  0.8059
 8559SOL     OW26575   1.033   6.684   3.179 -0.5820  0.6095 -0.2035
 8559SOL    HW126576   1.076   6.762   3.134 -1.6013  2.2478  1.5317
 8559SOL    HW226577   0.937   6.677   3.150 -0.9224  0.9665  0.7950
 8560SOL     OW26578   0.094   6.784   1.282 -0.0007 -0.4228  0.0278
 8560SOL    HW126579   0.129   6.828   1.199 -2.7787  1.4129 -0.2768
 8560SOL    HW226580   0.107   6.846   1.360  0.1749 -1.0271  0.4842
 8561SOL     OW26581   2.702   2.035   2.797 -0.2665  0.5031 -0.4100
 8561SOL    HW126582   2.795   2.072   2.800  0.3178 -0.9813  0.7075
 8561SOL    HW226583   2.671   2.014   2.890 -0.5592 -1.7986 -0.9719
 8562SOL     OW26584   3.521   5.827   4.949 -0.8007  0.2215  0.7974
 8562SOL    HW126585   3.453   5.870   5.009  0.0139  2.4789  0.1976
 8562SOL    HW226586   3.613   5.846   4.982 -0.3828 -0.3039 -0.0058
 8563SOL     OW26587   1.846   4.240   6.976 -0.3325  0.0935  0.0541
 8563SOL    HW126588   1.888   4.156   6.943 -1.1469 -0.8184  1.2353
 8563SOL    HW226589   1.909   4.287   7.038  0.2357  0.5214 -0.8334
 8564SOL     OW26590   3.302   1.667   4.126 -0.6821 -0.3552  0.0064
 8564SOL    HW126591   3.239   1.731   4.169  0.6228  0.2246  1.1426
 8564SOL    HW226592   3.252   1.607   4.063 -2.4542 -0.3594  1.3416
 8565SOL     OW26593   4.476   6.955   1.952 -0.4703  0.2777  0.4639
 8565SOL    HW126594   4.433   6.881   2.004  0.2136  0.7015  1.6597
 8565SOL    HW226595   4.414   6.985   1.880 -1.2558 -0.6271  0.7418
 8566SOL     OW26596   1.473   1.071   1.253  0.3920 -0.5556 -0.4871
 8566SOL    HW126597   1.554   1.018   1.228  0.9119  0.5519 -1.2907
 8566SOL    HW226598   1.493   1.169   1.240 -1.5976 -0.3370 -2.2848
 8567SOL     OW26599   5.956   1.996   3.679  0.2468 -0.6977 -0.2114
 8567SOL    HW126600   5.918   2.077   3.634 -0.5766 -0.9892 -0.0445
 8567SOL    HW226601   6.020   1.950   3.617 -0.9700 -1.1734 -1.1328
 8568SOL     OW26602   0.773   2.478   5.934  0.1632  0.3983  0.0917
 8568SOL    HW126603   0.820   2.407   5.882  1.9158  0.3932  1.5552
 8568SOL    HW226604   0.682   2.447   5.959  0.1306 -0.4796 -1.0316
 8569SOL     OW26605   3.017   6.445   4.895 -0.6490  0.1884 -0.5373
 8569SOL    HW126606   2.917   6.446   4.902 -0.6556 -1.0884 -0.2614
 8569SOL    HW226607   3.056   6.405   4.978  0.0349 -0.5330 -1.2012
 8570SOL     OW26608   1.721   2.995   5.919  0.9923 -0.0781 -0.2737
 8570SOL    HW126609   1.797   3.059   5.912 -0.1177  1.4341  0.7837
 8570SOL    HW226610   1.635   3.046   5.917 -0.0268 -1.7612 -1.6960
 8571SOL     OW26611   0.273   5.213   5.682 -0.4150  0.1417  1.0508
 8571SOL    HW126612   0.332   5.208   5.602  0.1126  2.5208  1.2141
 8571SOL    HW226613   0.207   5.137   5.681  0.0581 -0.2848 -1.2156
 8572SOL     OW26614   2.288   3.878   0.162 -0.7184 -0.0745  0.1543
 8572SOL    HW126615   2.371   3.823   0.168 -0.1518  0.8080  0.7558
 8572SOL    HW226616   2.303   3.953   0.098 -0.3166  1.2448  1.7077
 8573SOL     OW26617   3.156   3.865   0.100  0.1545 -0.7123 -0.6494
 8573SOL    HW126618   3.106   3.876   0.185  0.7178 -2.1387 -0.0976
 8573SOL    HW226619   3.254   3.876   0.117  0.1523  1.0080 -1.5192
 8574SOL     OW26620   5.367   6.191   0.125  0.4017  0.0956 -0.0086
 8574SOL    HW126621   5.462   6.181   0.152  0.3083 -1.6050 -0.2002
 8574SOL    HW226622   5.308   6.158   0.199  0.0242 -0.4784 -0.5571
 8575SOL     OW26623   3.585   4.115   4.913  0.5174  0.5845  0.4109
 8575SOL    HW126624   3.493   4.129   4.950  0.0152  0.1226 -0.6145
 8575SOL    HW226625   3.604   4.017   4.907  0.9208  0.6692  0.2431
 8576SOL     OW26626   2.179   5.069   6.475 -0.4286  0.3958 -0.1044
 8576SOL    HW126627   2.274   5.045   6.495 -0.5905 -0.3996 -0.2441
 8576SOL    HW226628   2.171   5.094   6.379 -0.4940 -0.2936 -0.2859
 8577SOL     OW26629   0.872   5.413   4.744  0.0968 -0.5238 -0.2229
 8577SOL    HW126630   0.851   5.510   4.760 -0.9428 -0.5741 -1.1857
 8577SOL    HW226631   0.802   5.373   4.685  0.8092 -1.7380 -0.2703
 8578SOL     OW26632   5.403   2.208   4.948  0.3909  0.4549  0.2119
 8578SOL    HW126633   5.335   2.253   4.890 -0.1812  0.8059  1.1218
 8578SOL    HW226634   5.357   2.148   5.013  0.5221  3.2002  3.1141
 8579SOL     OW26635   2.295   6.786   3.492  0.2633  0.0504  0.6435
 8579SOL    HW126636   2.318   6.880   3.469  1.0936  0.0405  1.4153
 8579SOL    HW226637   2.199   6.769   3.469  0.5619  0.5623 -1.1077
 8580SOL     OW26638   2.390   6.384   2.724 -0.1762  0.1743  0.0736
 8580SOL    HW126639   2.472   6.374   2.667 -0.4494  4.2978 -1.3488
 8580SOL    HW226640   2.414   6.430   2.809 -1.0097  2.1189 -0.6860
 8581SOL     OW26641   4.309   2.773   1.310  0.3726  0.0954  0.2278
 8581SOL    HW126642   4.329   2.724   1.395  3.3014 -1.1695 -1.0598
 8581SOL    HW226643   4.387   2.830   1.285 -0.2137  0.0607 -1.8551
 8582SOL     OW26644   3.078   6.216   4.773  0.2600 -0.1375 -0.6418
 8582SOL    HW126645   3.045   6.301   4.814  1.0516  0.9151 -2.1052
 8582SOL    HW226646   3.067   6.220   4.674  0.4662 -1.6955 -0.7560
 8583SOL     OW26647   1.016   0.595   4.987  0.0637 -0.2442  0.6542
 8583SOL    HW126648   1.038   0.610   5.084 -1.1493 -1.9327  1.2369
 8583SOL    HW226649   1.047   0.504   4.960  0.9519  0.4499 -0.7461
 8584SOL     OW26650   0.694   3.724   6.627 -0.5878  0.0258 -0.4251
 8584SOL    HW126651   0.712   3.703   6.723 -0.6307 -2.9521 -0.9828
 8584SOL    HW226652   0.637   3.806   6.621 -1.2815 -0.1826  2.1334
 8585SOL     OW26653   0.405   4.176   0.027  0.1529  0.0244 -0.0098
 8585SOL    HW126654   0.450   4.096   0.067  1.0512  1.0580  1.1210
 8585SOL    HW226655   0.371   4.234   0.100 -1.5319  0.1199 -0.8417
 8586SOL     OW26656   2.792   0.525   1.900 -0.4557  0.1149  0.3959
 8586SOL    HW126657   2.774   0.591   1.974  0.8483  1.2188 -0.2212
 8586SOL    HW226658   2.888   0.497   1.903 -0.8929 -1.4290  0.3626
 8587SOL     OW26659   6.827   6.925   2.267  0.1739 -0.6739  0.2563
 8587SOL    HW126660   6.902   6.919   2.333  1.8060 -0.0418 -1.4429
 8587SOL    HW226661   6.846   6.999   2.202 -1.7167 -0.8157 -0.5200
 8588SOL     OW26662   2.003   6.533   1.924  0.3236  0.0713  0.3631
 8588SOL    HW126663   1.967   6.538   2.017 -1.8998  0.5867 -0.4694
 8588SOL    HW226664   1.957   6.460   1.874 -0.0013  1.1049 -0.9045
 8589SOL     OW26665   6.103   3.417   0.434  0.3848 -0.2589  0.3892
 8589SOL    HW126666   6.047   3.336   0.452 -0.1665  0.3485  1.5195
 8589SOL    HW226667   6.199   3.390   0.427  0.2754 -0.9465  1.3314
 8590SOL     OW26668   0.143   5.239   3.537 -0.1316  0.4787 -0.0540
 8590SOL    HW126669   0.107   5.152   3.503 -1.2433  0.6712  0.5598
 8590SOL    HW226670   0.170   5.230   3.633  2.0340  0.2029 -0.6392
 8591SOL     OW26671   5.042   5.139   0.687 -0.0531 -0.4450 -0.7844
 8591SOL    HW126672   4.971   5.164   0.621  0.4694 -1.1142 -1.6116
 8591SOL    HW226673   5.012   5.163   0.779 -1.4477 -0.9456 -1.1000
 8592SOL     OW26674   1.586   3.706   1.335 -0.2147 -0.1538 -0.0574
 8592SOL    HW126675   1.574   3.802   1.358  0.4242 -0.0754 -0.0623
 8592SOL    HW226676   1.641   3.661   1.405 -0.6312 -0.5504  0.0198
 8593SOL     OW26677   0.988   1.839   1.102  0.3707  0.0274  0.2207
 8593SOL    HW126678   1.022   1.759   1.052 -1.3298 -0.7525  0.2257
 8593SOL    HW226679   0.930   1.809   1.178 -1.2374  1.2279 -0.4626
 8594SOL     OW26680   3.162   4.168   5.105  0.2854 -0.9545  1.2143
 8594SOL    HW126681   3.063   4.175   5.093  0.3856 -0.6479  0.5153
 8594SOL    HW226682   3.205   4.148   5.017  1.1294  2.0015  0.8735
 8595SOL     OW26683   0.114   3.246   4.082 -0.0523 -0.0662 -0.1048
 8595SOL    HW126684   0.174   3.168   4.064  1.0352 -0.1210  3.1656
 8595SOL    HW226685   0.169   3.325   4.108 -1.3072  0.4714  1.0453
 8596SOL     OW26686   5.713   6.616   1.891  0.6558 -0.2564 -0.3865
 8596SOL    HW126687   5.788   6.674   1.861 -0.2340  0.0892 -2.0499
 8596SOL    HW226688   5.716   6.606   1.991  1.6484  1.4810 -0.2117
 8597SOL     OW26689   4.304   1.323   2.306 -0.0822 -0.1044  0.0203
 8597SOL    HW126690   4.341   1.408   2.269 -1.2460  0.8906  1.0637
 8597SOL    HW226691   4.239   1.343   2.379  1.6181 -1.9812  2.2022
 8598SOL     OW26692   0.189   5.663   0.395 -0.3480 -0.2575 -0.0101
 8598SOL    HW126693   0.104   5.630   0.436 -1.5112  0.1555 -1.9716
 8598SOL    HW226694   0.198   5.625   0.303  1.5833 -0.2270  0.1253
 8599SOL     OW26695   0.877   3.992   3.601  0.1970  0.2395  0.4316
 8599SOL    HW126696   0.892   4.076   3.653  1.8865  1.4667 -1.8406
 8599SOL    HW226697   0.784   3.991   3.565 -0.6628 -0.1470  2.5264
 8600SOL     OW26698   5.860   6.207   5.855 -0.0363 -0.2100 -0.3997
 8600SOL    HW126699   5.769   6.248   5.849 -0.2265 -0.5135  0.2786
 8600SOL    HW226700   5.899   6.225   5.946  0.0811 -1.0963 -0.2641
 8601SOL     OW26701   6.858   2.669   0.602 -0.0018 -0.5634 -0.5683
 8601SOL    HW126702   6.911   2.697   0.522 -0.7090  0.6319 -0.6396
 8601SOL    HW226703   6.918   2.627   0.669  0.8657 -0.1283 -1.0630
 8602SOL     OW26704   3.664   6.476   2.890 -0.0590  0.2016 -0.1222
 8602SOL    HW126705   3.625   6.473   2.798 -1.9384  0.6450  0.6108
 8602SOL    HW226706   3.758   6.509   2.885 -0.5387  1.4858 -1.7634
 8603SOL     OW26707   3.545   5.990   7.016  0.1681  0.1288 -0.1039
 8603SOL    HW126708   3.639   6.007   7.047 -0.5064  0.9616  1.6118
 8603SOL    HW226709   3.481   6.012   7.090 -1.2445 -3.7390  0.0684
 8604SOL     OW26710   0.905   3.117   4.024 -0.5762  0.5857 -0.2927
 8604SOL    HW126711   0.886   3.105   3.926 -0.1882  0.1782 -0.3202
 8604SOL    HW226712   0.993   3.075   4.046 -1.0421 -0.0645  0.3927
 8605SOL     OW26713   4.293   5.382   3.634 -0.0748 -0.1067  0.6959
 8605SOL    HW126714   4.285   5.389   3.534 -0.2762  1.3851  0.7937
 8605SOL    HW226715   4.257   5.294   3.664 -0.3214 -0.4406 -0.5171
 8606SOL     OW26716   1.337   2.815   1.297 -0.0881 -0.0049  0.4083
 8606SOL    HW126717   1.387   2.891   1.256  0.9256 -0.6682  0.3617
 8606SOL    HW226718   1.360   2.730   1.247 -0.5615 -0.4621  0.9612
 8607SOL     OW26719   3.267   5.222   0.771  0.1919  0.1263  0.3081
 8607SOL    HW126720   3.186   5.180   0.812  0.3942  1.0768  1.7507
 8607SOL    HW226721   3.347   5.165   0.786 -0.0797 -0.5147 -0.5826
 8608SOL     OW26722   5.589   5.146   4.550  0.3597 -0.0178 -0.2333
 8608SOL    HW126723   5.663   5.190   4.498  0.9649  1.1975  1.5254
 8608SOL    HW226724   5.538   5.217   4.600  1.9017 -1.2522  3.4133
 8609SOL     OW26725   6.203   2.273   3.948  0.0132 -0.4996  0.1716
 8609SOL    HW126726   6.123   2.309   3.899  0.7207 -1.6509 -2.0000
 8609SOL    HW226727   6.220   2.328   4.030 -1.3147  1.5249 -0.8214
 8610SOL     OW26728   2.171   1.802   2.295  0.2435 -0.1959  0.0766
 8610SOL    HW126729   2.229   1.871   2.338 -1.1542 -0.0512  1.8109
 8610SOL    HW226730   2.228   1.741   2.239  1.4228  2.8048 -2.2263
 8611SOL     OW26731   1.822   2.008   4.699 -0.2797 -0.2061  0.2226
 8611SOL    HW126732   1.875   1.969   4.623 -1.4236  0.7994 -1.1553
 8611SOL    HW226733   1.726   1.987   4.687 -0.3243 -1.5508  2.4126
 8612SOL     OW26734   3.358   1.336   0.658  0.3481  0.2044 -0.0732
 8612SOL    HW126735   3.454   1.323   0.631  0.5808 -3.0063  1.7838
 8612SOL    HW226736   3.354   1.393   0.740  0.7962 -0.5560  0.4871
 8613SOL     OW26737   2.952   1.833   6.231  0.1097 -0.0627  0.3163
 8613SOL    HW126738   3.001   1.748   6.213 -0.8090 -0.7269  0.8855
 8613SOL    HW226739   3.018   1.908   6.238  1.1356 -1.0319  1.7495
 8614SOL     OW26740   0.675   4.328   2.186  0.1718  0.2424 -0.2447
 8614SOL    HW126741   0.636   4.236   2.179  0.2616  0.1848  0.0107
 8614SOL    HW226742   0.687   4.352   2.282 -0.2099  0.6741 -0.2990
 8615SOL     OW26743   6.228   1.735   5.937  0.0376  0.4075 -0.4617
 8615SOL    HW126744   6.257   1.681   5.858  1.7225 -0.0275  0.4229
 8615SOL    HW226745   6.132   1.763   5.924  0.9887  2.7436 -3.9690
 8616SOL     OW26746   1.970   6.051   2.158 -0.4162 -0.0593  0.4811
 8616SOL    HW126747   1.996   5.976   2.220  0.8253 -0.2286 -0.2158
 8616SOL    HW226748   1.879   6.033   2.121 -1.2229  0.0875  2.3020
 8617SOL     OW26749   1.978   0.110   5.749 -0.4217 -0.1071 -0.6992
 8617SOL    HW126750   1.915   0.119   5.826  0.9570 -1.0962  0.5906
 8617SOL    HW226751   1.947   0.036   5.689  1.0469 -2.7984  1.5992
 8618SOL     OW26752   4.210   4.779   1.474  0.2982  0.0781 -0.7617
 8618SOL    HW126753   4.145   4.712   1.440 -1.3514  2.4034 -2.4799
 8618SOL    HW226754   4.289   4.783   1.413 -0.6577  1.2171 -1.9748
 8619SOL     OW26755   2.952   6.542   1.121  0.0437  0.1384  0.8642
 8619SOL    HW126756   2.952   6.624   1.063 -2.5414  0.7377  1.5715
 8619SOL    HW226757   2.951   6.460   1.064  1.8935  0.5808  0.1399
 8620SOL     OW26758   0.972   0.130   4.152 -0.2100 -0.4848 -0.0810
 8620SOL    HW126759   0.978   0.229   4.143 -0.9655 -0.2639  1.3928
 8620SOL    HW226760   0.927   0.108   4.239 -0.6748 -2.1102 -0.7046
 8621SOL     OW26761   0.795   2.525   2.726 -0.2161 -0.2035 -0.2542
 8621SOL    HW126762   0.866   2.594   2.714 -1.4314  1.2934  0.7786
 8621SOL    HW226763   0.705   2.567   2.717 -1.0070 -1.5929  0.6938
 8622SOL     OW26764   5.818   3.324   6.850  0.0779 -0.0557  0.4763
 8622SOL    HW126765   5.760   3.255   6.893  0.6731 -0.5092  0.5641
 8622SOL    HW226766   5.761   3.392   6.804 -0.4971 -1.0911 -0.3717
 8623SOL     OW26767   0.767   0.230   1.779 -0.1907  0.2029 -0.0376
 8623SOL    HW126768   0.784   0.134   1.801 -0.8906  0.3583  1.2370
 8623SOL    HW226769   0.756   0.283   1.863  1.5229  1.6775 -0.6711
 8624SOL     OW26770   1.447   2.732   6.434 -0.9990 -0.2924 -0.0675
 8624SOL    HW126771   1.504   2.720   6.353  0.5259 -0.6493  1.0095
 8624SOL    HW226772   1.468   2.820   6.477  1.0631 -1.6905  2.0169
 8625SOL     OW26773   4.220   0.170   5.014  0.0021  0.2430  0.2508
 8625SOL    HW126774   4.154   0.245   5.021  0.2943  0.4309  1.1556
 8625SOL    HW226775   4.184   0.100   4.953 -0.6755  0.7066  0.0984
 8626SOL     OW26776   2.769   4.077   5.351 -0.1783  0.2142  0.5068
 8626SOL    HW126777   2.689   4.020   5.334  0.1288 -0.0311 -0.1727
 8626SOL    HW226778   2.741   4.173   5.354 -0.2680  0.3080 -1.6359
 8627SOL     OW26779   0.109   0.763   4.379 -0.1209  0.0383  0.1014
 8627SOL    HW126780   0.041   0.696   4.349 -0.0236 -0.0814  0.1468
 8627SOL    HW226781   0.145   0.736   4.468  1.8732 -1.3452 -1.0263
 8628SOL     OW26782   3.731   0.662   1.689  0.1663 -0.1850  0.3791
 8628SOL    HW126783   3.722   0.720   1.608 -0.0981  0.5539  0.9201
 8628SOL    HW226784   3.819   0.680   1.733  0.5978 -1.0711 -0.1053
 8629SOL     OW26785   0.885   4.258   5.299 -0.4493 -0.1799  0.7034
 8629SOL    HW126786   0.933   4.178   5.335 -0.1409 -0.2712  0.0880
 8629SOL    HW226787   0.789   4.256   5.330 -0.4457 -0.7831  0.6809
 8630SOL     OW26788   3.411   6.488   3.754  0.3507 -0.7110 -0.1002
 8630SOL    HW126789   3.438   6.576   3.793 -1.0423  0.0065 -0.6789
 8630SOL    HW226790   3.484   6.454   3.695  0.7082  0.3258 -0.2860
 8631SOL     OW26791   2.938   4.246   0.311 -0.2163  0.5368  0.7684
 8631SOL    HW126792   2.952   4.344   0.328  0.8584  0.3616  0.9436
 8631SOL    HW226793   2.844   4.231   0.280 -0.1007  1.7540 -0.2660
 8632SOL     OW26794   3.125   6.340   4.425 -0.4006 -0.1862 -0.5577
 8632SOL    HW126795   3.218   6.303   4.418 -0.5134 -0.2260 -2.1493
 8632SOL    HW226796   3.064   6.269   4.461  0.2514  0.0096  1.0381
 8633SOL     OW26797   0.657   2.260   5.220  0.0683 -0.2768 -0.1004
 8633SOL    HW126798   0.654   2.329   5.148 -1.0253 -1.5022 -1.2679
 8633SOL    HW226799   0.635   2.303   5.308 -2.0201  0.6416 -0.9978
 8634SOL     OW26800   5.998   2.512   1.303  0.2730  0.1732 -0.2336
 8634SOL    HW126801   6.073   2.543   1.245  0.4472 -1.2375 -0.7844
 8634SOL    HW226802   5.916   2.498   1.247  0.2275 -0.4649 -0.0097
 8635SOL     OW26803   6.119   3.622   5.428 -0.7562 -0.3235 -1.0624
 8635SOL    HW126804   6.165   3.535   5.442 -0.6907 -0.4226 -1.8499
 8635SOL    HW226805   6.152   3.664   5.343  0.7853  1.4702  0.3147
 8636SOL     OW26806   5.972   0.200   2.674 -0.1144  0.4501 -1.1081
 8636SOL    HW126807   5.916   0.126   2.637  1.0930 -0.3871 -1.3038
 8636SOL    HW226808   6.057   0.163   2.711 -1.1369  1.2625  2.3711
 8637SOL     OW26809   0.749   1.433   0.571 -0.6099 -0.1930 -0.5990
 8637SOL    HW126810   0.655   1.402   0.580 -0.3143 -0.5151  1.9798
 8637SOL    HW226811   0.804   1.361   0.529 -1.3196 -0.3437 -1.2907
 8638SOL     OW26812   4.366   4.090   1.122  0.1585  0.3429 -0.6220
 8638SOL    HW126813   4.333   4.057   1.211 -1.0485  0.6462 -0.9298
 8638SOL    HW226814   4.316   4.042   1.049  0.1929  1.0422 -1.1079
 8639SOL     OW26815   5.104   1.534   1.168  0.5388 -0.5096 -0.1492
 8639SOL    HW126816   5.076   1.447   1.209 -0.3618 -0.3348 -0.3580
 8639SOL    HW226817   5.195   1.525   1.129  0.0701 -1.6595 -1.0424
 8640SOL     OW26818   5.622   5.400   0.264  0.0192  0.1818  0.5485
 8640SOL    HW126819   5.711   5.423   0.223 -1.4802  2.4322 -1.7051
 8640SOL    HW226820   5.590   5.478   0.318 -0.1784 -1.0269  2.2580
 8641SOL     OW26821   5.817   4.682   5.781  0.4526  0.3571 -0.4109
 8641SOL    HW126822   5.822   4.636   5.692 -0.1699  0.3496 -0.4489
 8641SOL    HW226823   5.861   4.772   5.775  1.6553 -0.2078 -0.3439
 8642SOL     OW26824   2.573   0.387   2.482  0.0626 -0.1327  0.2112
 8642SOL    HW126825   2.596   0.400   2.386 -1.5011  0.9108 -0.0636
 8642SOL    HW226826   2.645   0.425   2.540 -0.4650  2.2279 -0.5920
 8643SOL     OW26827   3.335   0.968   6.717  0.9229 -0.1905 -0.0245
 8643SOL    HW126828   3.260   0.904   6.730  1.1533 -0.4190  0.2033
 8643SOL    HW226829   3.306   1.060   6.745  0.1915  0.0594 -1.5225
 8644SOL     OW26830   5.725   0.942   1.538  0.8686  0.1040  0.2630
 8644SOL    HW126831   5.645   0.884   1.525  1.6488 -1.0656  0.4998
 8644SOL    HW226832   5.793   0.893   1.593  2.1423  0.6810 -0.7421
 8645SOL     OW26833   5.224   5.440   0.316 -0.1595  0.0012  0.1538
 8645SOL    HW126834   5.291   5.507   0.350 -1.0775  1.0870 -0.1173
 8645SOL    HW226835   5.239   5.424   0.219  0.1751 -0.3320  0.2585
 8646SOL     OW26836   6.667   2.462   2.943  0.2753 -0.1964  0.1829
 8646SOL    HW126837   6.656   2.560   2.961 -0.3062 -0.4235  1.1619
 8646SOL    HW226838   6.587   2.413   2.977  1.1354 -1.1510  0.8940
 8647SOL     OW26839   3.621   5.129   6.184  0.4912  0.1049 -0.2555
 8647SOL    HW126840   3.550   5.136   6.114  0.5595  0.7506 -0.2703
 8647SOL    HW226841   3.655   5.221   6.206 -0.0298 -0.0118  1.1281
 8648SOL     OW26842   1.863   6.707   5.347 -0.0684 -0.0253 -0.4396
 8648SOL    HW126843   1.808   6.623   5.350  0.2796 -0.2368  0.0125
 8648SOL    HW226844   1.946   6.691   5.294 -0.6690  0.4353 -1.5504
 8649SOL     OW26845   6.646   5.057   5.227 -0.0934 -0.9109  0.0250
 8649SOL    HW126846   6.637   5.000   5.146  1.1061 -0.8368 -0.1716
 8649SOL    HW226847   6.739   5.051   5.263  0.2251  1.2809 -0.2902
 8650SOL     OW26848   3.026   3.886   5.578  0.6295 -0.2507  0.5759
 8650SOL    HW126849   3.056   3.960   5.518  0.9383 -1.8337 -1.3171
 8650SOL    HW226850   2.933   3.858   5.551  0.5207 -0.5732  1.2703
 8651SOL     OW26851   1.348   1.179   0.563 -0.0649 -0.4503  0.0334
 8651SOL    HW126852   1.255   1.195   0.595  0.2253  1.3375  0.0534
 8651SOL    HW226853   1.410   1.176   0.642 -0.1207 -2.0271  0.0553
 8652SOL     OW26854   1.431   4.321   3.787 -0.4443 -0.1972  0.8170
 8652SOL    HW126855   1.368   4.398   3.787  1.5650  1.5769 -0.6248
 8652SOL    HW226856   1.435   4.281   3.695  2.7523  1.8317 -0.1128
 8653SOL     OW26857   6.227   1.801   1.266 -0.3295 -0.8650  0.2791
 8653SOL    HW126858   6.254   1.781   1.172 -1.0831 -1.0824  0.1032
 8653SOL    HW226859   6.165   1.729   1.299  1.6632 -2.0267  1.7129
 8654SOL     OW26860   1.454   5.619   1.038  0.0201 -0.2915 -0.1810
 8654SOL    HW126861   1.514   5.542   1.018 -0.9311 -0.8585 -0.9598
 8654SOL    HW226862   1.360   5.586   1.050 -0.8983  0.9647 -3.0961
 8655SOL     OW26863   5.948   2.478   1.850 -0.2004  0.5566 -0.7737
 8655SOL    HW126864   5.880   2.549   1.828 -0.6417  0.3525 -0.0815
 8655SOL    HW226865   5.985   2.493   1.941  0.5645  0.5575 -1.0728
 8656SOL     OW26866   5.667   0.365   0.924 -0.4639 -0.0107 -0.1271
 8656SOL    HW126867   5.684   0.408   1.012 -0.0903 -0.2059 -0.1032
 8656SOL    HW226868   5.623   0.277   0.937 -1.1022  0.2956 -0.1705
 8657SOL     OW26869   4.448   3.882   0.081 -0.2182  0.2669  0.3145
 8657SOL    HW126870   4.400   3.797   0.059  0.5481 -0.2069  0.4145
 8657SOL    HW226871   4.544   3.861   0.100 -0.3432  0.9783  1.7945
 8658SOL     OW26872   4.539   0.168   6.193  0.2167 -0.1129  0.2912
 8658SOL    HW126873   4.610   0.205   6.253  0.4205 -1.3007  0.8142
 8658SOL    HW226874   4.531   0.069   6.208 -1.1330 -0.0940 -0.2008
 8659SOL     OW26875   5.386   1.080   2.260 -0.2473  0.1741  0.4683
 8659SOL    HW126876   5.291   1.087   2.290 -1.4792 -0.7609 -2.7946
 8659SOL    HW226877   5.441   1.038   2.332 -2.2912  0.5858  2.3742
 8660SOL     OW26878   6.850   4.409   6.432 -0.1719  0.1100 -0.3865
 8660SOL    HW126879   6.890   4.341   6.494 -0.3973 -1.1110 -1.5454
 8660SOL    HW226880   6.784   4.365   6.372 -0.6094  1.4420 -0.9283
 8661SOL     OW26881   5.484   3.432   5.684 -0.0907 -0.0739 -0.9343
 8661SOL    HW126882   5.515   3.391   5.770  0.3541 -0.8267 -1.4454
 8661SOL    HW226883   5.401   3.384   5.653  0.4094 -0.5778 -1.5133
 8662SOL     OW26884   2.697   0.737   1.276 -0.7178  0.2077 -0.0606
 8662SOL    HW126885   2.666   0.703   1.187 -1.7166 -0.4074  0.5038
 8662SOL    HW226886   2.619   0.739   1.340 -0.5075  2.6703  0.2120
 8663SOL     OW26887   3.185   5.634   2.109 -0.3800 -0.2596 -0.5130
 8663SOL    HW126888   3.148   5.543   2.089 -1.0693 -0.2295  0.5788
 8663SOL    HW226889   3.118   5.704   2.083 -1.8516 -0.2547  2.8425
 8664SOL     OW26890   2.933   6.055   1.649 -0.3073  0.2865  0.0532
 8664SOL    HW126891   3.004   6.034   1.716 -1.0180  1.3696  1.1750
 8664SOL    HW226892   2.929   5.981   1.581  2.5143  0.6184 -0.6258
 8665SOL     OW26893   5.646   6.301   4.407  0.3256  0.7777 -0.9935
 8665SOL    HW126894   5.692   6.313   4.495  0.6235  1.9689 -1.3001
 8665SOL    HW226895   5.667   6.378   4.348 -0.1291  0.1383 -2.0055
 8666SOL     OW26896   5.608   2.622   3.171  0.1669  0.0835 -0.6034
 8666SOL    HW126897   5.540   2.630   3.099 -0.7714 -0.3947  0.2059
 8666SOL    HW226898   5.671   2.700   3.167  1.1553 -0.7489 -2.9483
 8667SOL     OW26899   4.594   2.262   3.763 -0.7927  0.3888 -0.3279
 8667SOL    HW126900   4.686   2.245   3.798 -0.8634 -0.3011 -0.4649
 8667SOL    HW226901   4.560   2.180   3.717 -1.0369  0.9980 -1.2704
 8668SOL     OW26902   3.320   1.940   1.878  0.3640  0.3346  0.0680
 8668SOL    HW126903   3.284   2.032   1.861 -0.3423  0.1424  0.4868
 8668SOL    HW226904   3.378   1.942   1.959 -0.5888  0.1797  0.7550
 8669SOL     OW26905   2.624   0.127   2.240  0.3246  0.6717  0.1179
 8669SOL    HW126906   2.544   0.187   2.234 -0.5245 -0.5745 -2.1869
 8669SOL    HW226907   2.606   0.054   2.307 -0.6956  0.1347 -0.7179
 8670SOL     OW26908   1.318   4.600   5.875  0.5334 -0.4253 -0.3094
 8670SOL    HW126909   1.323   4.692   5.913 -1.5149  0.4588 -1.9922
 8670SOL    HW226910   1.400   4.549   5.901  0.9324  1.2588  2.1097
 8671SOL     OW26911   5.461   2.472   4.698  0.1047  0.2986  0.2433
 8671SOL    HW126912   5.539   2.413   4.719  0.9702  1.3406  0.0937
 8671SOL    HW226913   5.376   2.422   4.711  0.8093 -1.9885 -2.7191
 8672SOL     OW26914   1.957   5.240   3.089  0.1610 -0.0000  0.3377
 8672SOL    HW126915   2.045   5.279   3.061  0.4721 -0.5182  0.5853
 8672SOL    HW226916   1.954   5.143   3.066  0.4741 -0.4815  2.1472
 8673SOL     OW26917   1.844   2.821   6.441 -0.1490 -0.0786 -0.4098
 8673SOL    HW126918   1.764   2.851   6.491 -0.2531  0.0761 -0.6682
 8673SOL    HW226919   1.850   2.721   6.444  0.3347 -0.0326  0.6520
 8674SOL     OW26920   5.686   0.121   3.029 -0.5525 -0.0942 -0.0934
 8674SOL    HW126921   5.700   0.159   2.937  0.6468 -1.3929 -0.4707
 8674SOL    HW226922   5.622   0.045   3.024 -0.0093 -0.5631  0.0429
 8675SOL     OW26923   3.225   0.875   5.985 -0.1804  0.0939  0.0472
 8675SOL    HW126924   3.214   0.777   5.973 -0.6836 -0.2231  2.4763
 8675SOL    HW226925   3.160   0.924   5.926 -0.2825 -1.0282 -0.7975
 8676SOL     OW26926   3.629   6.939   2.054  0.7601  0.5983 -0.4651
 8676SOL    HW126927   3.655   6.851   2.096 -1.2994 -1.2784 -2.8031
 8676SOL    HW226928   3.695   6.962   1.983  2.6649  2.3184  1.7248
 8677SOL     OW26929   2.598   0.644   4.794 -0.5456  0.3735  0.2926
 8677SOL    HW126930   2.540   0.604   4.865  0.5672  0.3143  1.1975
 8677SOL    HW226931   2.552   0.723   4.754 -2.6126 -1.4591 -1.2227
 8678SOL     OW26932   0.303   0.788   6.604  0.0330  0.4395 -0.2024
 8678SOL    HW126933   0.356   0.863   6.645 -0.6915  1.1920 -0.6306
 8678SOL    HW226934   0.206   0.807   6.613 -0.1551 -0.3263 -0.5663
 8679SOL     OW26935   6.448   1.906   2.559 -0.2100 -0.1746 -1.0286
 8679SOL    HW126936   6.359   1.918   2.604  0.6017  0.2189  0.5350
 8679SOL    HW226937   6.435   1.856   2.473 -1.9809  0.1949 -1.0298
 8680SOL     OW26938   1.146   3.758   1.229  0.1483  0.1994 -0.4621
 8680SOL    HW126939   1.143   3.766   1.129  0.5066 -0.5201 -0.5378
 8680SOL    HW226940   1.186   3.670   1.254 -0.8685 -0.0592  0.3163
 8681SOL     OW26941   5.844   5.046   6.925  0.6697  0.2928 -0.3398
 8681SOL    HW126942   5.889   5.128   6.961  1.7979 -0.0322 -0.9739
 8681SOL    HW226943   5.911   4.973   6.913 -0.4333 -0.9799  0.8655
 8682SOL     OW26944   5.328   0.038   0.678  0.3631  0.6733 -0.3193
 8682SOL    HW126945   5.243  -0.014   0.670  1.0468 -0.5450  0.1811
 8682SOL    HW226946   5.399  -0.020   0.717  1.6390  1.4469 -1.4035
 8683SOL     OW26947   0.547   1.754   2.451  0.2218 -0.4701  0.2015
 8683SOL    HW126948   0.519   1.683   2.386 -3.6168  0.5631  0.4866
 8683SOL    HW226949   0.530   1.722   2.545 -1.0435  0.5378  0.3500
 8684SOL     OW26950   5.602   4.719   4.681 -0.5064  0.0339 -0.1274
 8684SOL    HW126951   5.544   4.640   4.701  0.7438 -0.4970  1.6291
 8684SOL    HW226952   5.658   4.741   4.761 -0.1776  2.1718 -0.8763
 8685SOL     OW26953   5.830   2.513   6.720 -0.1918 -0.7820 -0.2117
 8685SOL    HW126954   5.896   2.497   6.647 -1.5268 -1.0413 -1.4033
 8685SOL    HW226955   5.792   2.605   6.711 -0.5378 -0.9025  0.0116
 8686SOL     OW26956   5.804   1.358   1.455  0.3913 -0.0952  0.0582
 8686SOL    HW126957   5.714   1.361   1.498  0.4752 -1.3284  0.3424
 8686SOL    HW226958   5.813   1.436   1.392 -1.2712 -0.5402 -0.7744
 8687SOL     OW26959   3.193   6.372   2.959  0.3959  0.5238  0.6285
 8687SOL    HW126960   3.195   6.451   2.899 -1.3214 -1.4460 -2.2799
 8687SOL    HW226961   3.282   6.327   2.958  1.2879  2.1540  2.0675
 8688SOL     OW26962   3.044   4.110   5.415  0.1548  0.0361  0.0847
 8688SOL    HW126963   3.078   4.203   5.398  1.2935 -0.1820  1.0538
 8688SOL    HW226964   2.951   4.102   5.379  0.5828  1.0919 -1.3569
 8689SOL     OW26965   3.783   3.844   1.088  0.5463  0.0123 -0.8988
 8689SOL    HW126966   3.818   3.765   1.137 -2.2590 -1.3047 -0.8440
 8689SOL    HW226967   3.780   3.824   0.990 -0.6127 -0.1520 -0.8362
 8690SOL     OW26968   0.156   3.362   3.233  0.6484  0.4456 -0.1616
 8690SOL    HW126969   0.181   3.368   3.330 -0.1519 -1.0951  0.1605
 8690SOL    HW226970   0.213   3.292   3.188 -0.8593 -0.8504 -0.1351
 8691SOL     OW26971   2.841   1.644   6.484  0.0094 -0.3294 -0.9534
 8691SOL    HW126972   2.828   1.742   6.502 -0.6675 -0.2788 -1.6465
 8691SOL    HW226973   2.908   1.632   6.412 -0.3560 -0.3397 -1.2979
 8692SOL     OW26974   0.897   1.653   4.617  0.0992 -0.3419  0.3658
 8692SOL    HW126975   0.936   1.743   4.640 -2.3392  0.5425  1.3587
 8692SOL    HW226976   0.846   1.660   4.532 -2.1782 -0.0382  1.6687
 8693SOL     OW26977   6.373   2.853   1.220  0.0076 -0.1177 -0.3953
 8693SOL    HW126978   6.411   2.856   1.128 -0.3497  0.8013 -0.5260
 8693SOL    HW226979   6.334   2.943   1.243 -0.2285 -0.4396  0.5113
 8694SOL     OW26980   4.037   0.349   5.350 -0.3881  0.2023  0.3797
 8694SOL    HW126981   4.024   0.336   5.252 -0.9154 -0.3937  0.5235
 8694SOL    HW226982   4.080   0.268   5.389 -0.9751  0.0801  0.7854
 8695SOL     OW26983   2.501   2.132   6.649 -0.3200 -0.0948  0.1845
 8695SOL    HW126984   2.479   2.092   6.738 -0.3509 -0.7913 -0.1273
 8695SOL    HW226985   2.475   2.068   6.577 -0.4849  0.5532 -0.3350
 8696SOL     OW26986   2.854   0.323   1.311  0.5035  0.7468  0.0725
 8696SOL    HW126987   2.788   0.337   1.384 -0.7082  3.1096 -1.3421
 8696SOL    HW226988   2.824   0.248   1.252 -0.1519  0.8488  0.2753
 8697SOL     OW26989   0.211   2.144   6.971 -0.4734  0.3537 -0.2456
 8697SOL    HW126990   0.301   2.189   6.970 -0.1189 -0.3406 -0.2841
 8697SOL    HW226991   0.219   2.053   6.929 -1.1751  0.2456 -0.1532
 8698SOL     OW26992   6.267   0.375   5.527 -0.3136  0.1599  0.2817
 8698SOL    HW126993   6.268   0.335   5.619 -1.2103  1.8428  1.0912
 8698SOL    HW226994   6.301   0.309   5.461  2.7608 -0.3051  2.1305
 8699SOL     OW26995   2.035   2.781   4.538  0.0475  0.2971  0.0942
 8699SOL    HW126996   2.086   2.764   4.622 -0.0054 -0.2031  0.0258
 8699SOL    HW226997   2.002   2.876   4.539 -1.0527 -0.0600  1.2411
 8700SOL     OW26998   1.355   0.336   5.159 -0.4442 -0.5939 -0.1978
 8700SOL    HW126999   1.286   0.393   5.113  0.8453  0.7029 -0.6159
 8700SOL    HW227000   1.315   0.248   5.183 -2.0967 -0.0684 -0.8703
 8701SOL     OW27001   2.476   1.464   1.694 -0.2736 -0.1963 -0.4033
 8701SOL    HW127002   2.443   1.504   1.609  2.1971  1.8683 -0.4849
 8701SOL    HW227003   2.575   1.473   1.700 -0.1474 -2.0028  1.8722
 8702SOL     OW27004   6.942   4.657   6.162 -0.1950 -0.2559 -0.2259
 8702SOL    HW127005   6.850   4.623   6.148 -0.2308 -1.9003  2.9720
 8702SOL    HW227006   6.939   4.741   6.217  0.2196 -0.2821 -0.1563
 8703SOL     OW27007   3.283   4.997   6.743 -0.4445 -0.4498  0.0718
 8703SOL    HW127008   3.292   5.021   6.646  1.0794  0.3273  0.3694
 8703SOL    HW227009   3.222   5.062   6.788 -0.1151 -0.0011 -0.1139
 8704SOL     OW27010   6.979   3.731   3.232  0.2256 -0.1554  0.2408
 8704SOL    HW127011   6.919   3.804   3.197  1.0408  0.4051 -0.0172
 8704SOL    HW227012   7.011   3.756   3.324 -2.9485 -2.2107  2.0928
 8705SOL     OW27013   5.988   1.185   1.558 -0.4105 -0.0896  0.3801
 8705SOL    HW127014   5.910   1.237   1.523  0.1420  0.6494  0.2072
 8705SOL    HW227015   5.991   1.095   1.514 -0.3381  0.4242 -0.7154
 8706SOL     OW27016   2.417   1.815   1.088 -0.8950  0.6913  0.5297
 8706SOL    HW127017   2.354   1.873   1.139 -0.2589  0.5313  1.5261
 8706SOL    HW227018   2.460   1.869   1.015  0.5913  1.8597  2.1862
 8707SOL     OW27019   6.668   3.665   5.493  0.2840  0.6447 -0.2477
 8707SOL    HW127020   6.740   3.705   5.437  0.3053  0.5508 -0.2870
 8707SOL    HW227021   6.678   3.695   5.588  0.5457  0.3987 -0.1970
 8708SOL     OW27022   4.684   1.377   2.361  0.2140 -0.1037  0.7625
 8708SOL    HW127023   4.612   1.315   2.390  0.1594  0.5188  2.0403
 8708SOL    HW227024   4.708   1.360   2.265 -2.2315  0.2793  0.0310
 8709SOL     OW27025   5.774   0.458   1.153  0.3016 -0.2054 -0.4633
 8709SOL    HW127026   5.843   0.422   1.215 -1.2353 -0.1635  1.3628
 8709SOL    HW227027   5.787   0.556   1.142  0.4245 -0.1668  0.0169
 8710SOL     OW27028   2.075   3.303   5.548 -0.3419  0.2756 -0.0494
 8710SOL    HW127029   2.097   3.339   5.457 -2.2564  0.4122 -0.5024
 8710SOL    HW227030   1.994   3.244   5.541  0.7710 -1.4976  1.2282
 8711SOL     OW27031   0.809   1.845   4.225 -0.3721 -0.2015 -0.3828
 8711SOL    HW127032   0.904   1.866   4.246  0.7807 -1.6896 -3.4508
 8711SOL    HW227033   0.779   1.767   4.279 -0.5751  1.4147  1.9824
 8712SOL     OW27034   3.040   2.717   5.655 -0.2274  0.6174 -0.1580
 8712SOL    HW127035   3.004   2.687   5.567  0.3578  0.0408 -0.2157
 8712SOL    HW227036   2.979   2.687   5.728  0.1242 -0.3591 -0.2517
 8713SOL     OW27037   1.172   3.808   4.293 -0.3678  0.5785 -0.2149
 8713SOL    HW127038   1.156   3.717   4.330  0.1114  0.6901  0.2773
 8713SOL    HW227039   1.250   3.850   4.339  0.5393  0.5409 -1.6738
 8714SOL     OW27040   0.606   1.720   5.527 -0.3294 -0.0056 -0.6459
 8714SOL    HW127041   0.563   1.742   5.439 -2.1048  0.5018  0.2971
 8714SOL    HW227042   0.554   1.763   5.601  0.4786 -1.3342  0.7468
 8715SOL     OW27043   5.170   6.785   6.303 -0.4044 -0.1085 -0.4255
 8715SOL    HW127044   5.235   6.839   6.250  0.2010 -0.9476 -0.5667
 8715SOL    HW227045   5.219   6.716   6.356 -1.0714  0.1511  0.5693
 8716SOL     OW27046   1.914   5.543   0.553 -0.1949 -0.0563 -0.1109
 8716SOL    HW127047   1.959   5.612   0.610 -0.4875  1.1563 -1.3092
 8716SOL    HW227048   1.977   5.468   0.536  0.2297  0.0321  0.9650
 8717SOL     OW27049   3.400   2.940   3.274 -0.2001  0.3858 -0.4371
 8717SOL    HW127050   3.468   2.922   3.346  0.3708  0.8560 -0.8433
 8717SOL    HW227051   3.309   2.916   3.307  0.3749 -2.4887 -0.6726
 8718SOL     OW27052   6.493   4.313   4.172  0.0027 -0.5238  0.0901
 8718SOL    HW127053   6.438   4.249   4.118  1.3780 -1.1182 -0.6381
 8718SOL    HW227054   6.461   4.406   4.156 -3.2874 -1.0272  2.5692
 8719SOL     OW27055   3.077   5.372   5.593 -0.0359 -0.3286 -0.4854
 8719SOL    HW127056   3.114   5.439   5.529  0.0733 -0.7079 -0.8277
 8719SOL    HW227057   2.982   5.394   5.613  0.1125  0.1460 -0.2927
 8720SOL     OW27058   1.159   5.578   5.874  0.2868  0.1357  0.1155
 8720SOL    HW127059   1.109   5.618   5.951  0.5777 -0.2826  0.5281
 8720SOL    HW227060   1.204   5.651   5.822 -1.5230  0.6250 -0.8370
 8721SOL     OW27061   0.617   1.564   3.202  0.3646 -0.1415  0.0258
 8721SOL    HW127062   0.712   1.583   3.224  0.5553 -0.8169 -0.1942
 8721SOL    HW227063   0.561   1.575   3.285  0.4873  1.1273 -0.0455
 8722SOL     OW27064   4.869   1.614   0.291  0.2217  0.3994 -0.9288
 8722SOL    HW127065   4.886   1.690   0.354 -0.2749 -1.6867  1.9315
 8722SOL    HW227066   4.827   1.649   0.207 -0.1479  3.2336  0.3221
 8723SOL     OW27067   5.959   5.604   1.612  0.0995  0.4463  0.3708
 8723SOL    HW127068   5.873   5.635   1.570 -0.2070  1.0636  1.4304
 8723SOL    HW227069   6.016   5.683   1.635  0.9820  0.0389 -0.3525
 8724SOL     OW27070   5.620   0.044   5.125 -0.3633  0.0531 -0.1978
 8724SOL    HW127071   5.559   0.056   5.047  0.4401  0.5956 -0.7490
 8724SOL    HW227072   5.676   0.125   5.137 -0.2433 -0.1576  0.7472
 8725SOL     OW27073   1.638   0.109   5.722 -0.0363 -0.0046  0.2372
 8725SOL    HW127074   1.647   0.100   5.623  1.6038  2.5691  0.0922
 8725SOL    HW227075   1.650   0.019   5.764 -1.6067 -1.3169 -1.8758
 8726SOL     OW27076   6.322   6.978   2.387 -0.7422  0.2200  0.6115
 8726SOL    HW127077   6.408   7.027   2.381 -2.1441  2.7311 -0.7260
 8726SOL    HW227078   6.320   6.922   2.470  1.6843  0.9793  1.2408
 8727SOL     OW27079   0.748   6.827   3.713  0.2936 -0.6148  0.3756
 8727SOL    HW127080   0.690   6.771   3.772  0.8798  0.7859  2.3629
 8727SOL    HW227081   0.840   6.788   3.709 -0.2577 -1.9041 -1.4442
 8728SOL     OW27082   6.713   1.756   4.317 -0.0819  0.2987  0.0714
 8728SOL    HW127083   6.783   1.698   4.359  2.1766  0.7564 -2.7229
 8728SOL    HW227084   6.735   1.852   4.336 -1.2513  0.4044  0.9740
 8729SOL     OW27085   4.864   1.221   4.362  0.4620  0.6186  0.2142
 8729SOL    HW127086   4.896   1.233   4.455  0.9044  0.9090  0.0259
 8729SOL    HW227087   4.925   1.269   4.298  1.9272 -2.0194 -0.5181
 8730SOL     OW27088   6.321   5.059   1.834 -0.2818  0.1405  1.0036
 8730SOL    HW127089   6.367   4.972   1.851 -0.3473  0.0059  0.5098
 8730SOL    HW227090   6.373   5.134   1.876  1.5482  0.2537 -1.2492
 8731SOL     OW27091   0.832   2.358   2.306  0.1130 -0.3506  0.1078
 8731SOL    HW127092   0.895   2.414   2.359  1.2625 -1.2878 -0.2451
 8731SOL    HW227093   0.853   2.261   2.319 -1.3010 -0.6896  0.0403
 8732SOL     OW27094   5.751   3.392   1.727 -0.5259  0.1149 -0.5717
 8732SOL    HW127095   5.652   3.400   1.726 -0.8495 -2.8030 -0.7060
 8732SOL    HW227096   5.777   3.300   1.756  2.1331  0.4837 -1.4644
 8733SOL     OW27097   3.072   5.037   0.493  0.9373  0.2872 -0.6997
 8733SOL    HW127098   3.093   5.004   0.401  0.7913  0.1925 -0.6987
 8733SOL    HW227099   3.147   5.095   0.525  2.8378 -2.6704  0.6300
 8734SOL     OW27100   0.932   4.575   2.077  0.7975  0.0576 -0.6459
 8734SOL    HW127101   0.849   4.619   2.111  0.4278 -1.0104 -0.1007
 8734SOL    HW227102   0.912   4.479   2.055  2.2425 -0.7172  1.1172
 8735SOL     OW27103   0.487   2.999   0.115  0.0870 -0.6078 -0.0707
 8735SOL    HW127104   0.504   3.004   0.213  0.1575  0.9708 -0.1516
 8735SOL    HW227105   0.482   2.903   0.088 -1.8445 -1.1087  1.7944
 8736SOL     OW27106   0.298   0.204   5.083 -0.0098 -0.5601  0.1029
 8736SOL    HW127107   0.199   0.213   5.081  0.0725  0.5372 -1.9447
 8736SOL    HW227108   0.328   0.147   5.006  0.9147 -1.9056  1.3795
 8737SOL     OW27109   1.668   6.154   5.819  0.1891  0.2571  0.0063
 8737SOL    HW127110   1.726   6.119   5.893  1.9558  0.7428 -1.0715
 8737SOL    HW227111   1.641   6.248   5.841  0.4821  0.3061  0.1764
 8738SOL     OW27112   2.630   4.629   2.145 -0.5880  0.3530  0.1388
 8738SOL    HW127113   2.571   4.692   2.094 -0.5631  0.7357  0.5671
 8738SOL    HW227114   2.710   4.606   2.090  1.7298  4.1879  1.4488
 8739SOL     OW27115   5.483   6.876   0.492  0.1032  0.4921 -0.8690
 8739SOL    HW127116   5.394   6.834   0.473  0.8887 -1.2516 -0.8906
 8739SOL    HW227117   5.473   6.946   0.563 -0.9844 -1.1081  0.6364
 8740SOL     OW27118   6.529   3.679   3.091  0.2578  0.2200 -0.1076
 8740SOL    HW127119   6.597   3.646   3.025  1.0563 -0.1168  0.8495
 8740SOL    HW227120   6.511   3.776   3.075 -0.9502 -0.2735 -1.9731
 8741SOL     OW27121   2.632   0.186   6.077  0.1324  0.8213 -0.0237
 8741SOL    HW127122   2.700   0.155   6.144 -0.3839 -0.2226  0.0395
 8741SOL    HW227123   2.638   0.285   6.067 -0.2210  1.0915  2.0428
 8742SOL     OW27124   6.857   6.528   2.277 -0.4913  0.1415  0.0573
 8742SOL    HW127125   6.948   6.495   2.299 -0.4142  1.0839  1.2536
 8742SOL    HW227126   6.788   6.469   2.318 -0.4070 -0.0339 -0.0542
 8743SOL     OW27127   1.874   3.836   2.520 -0.6974 -0.5322  0.4689
 8743SOL    HW127128   1.822   3.770   2.466 -0.3928 -0.8929  0.6112
 8743SOL    HW227129   1.813   3.909   2.551 -1.1242 -0.9643  0.6618
 8744SOL     OW27130   3.326   2.570   5.671 -0.0927 -0.2085  0.4915
 8744SOL    HW127131   3.318   2.570   5.572 -0.2807 -2.6119  0.4597
 8744SOL    HW227132   3.265   2.640   5.709 -0.4916  0.3227 -1.0430
 8745SOL     OW27133   6.368   6.107   6.185 -0.2616 -0.8551  0.6527
 8745SOL    HW127134   6.295   6.102   6.254 -0.0192 -1.2074  0.8875
 8745SOL    HW227135   6.444   6.161   6.221 -0.4939 -0.2972  0.3221
 8746SOL     OW27136   4.832   4.412   4.937 -0.6275  0.3208 -0.6434
 8746SOL    HW127137   4.841   4.415   5.036  0.7688 -0.2712 -0.7394
 8746SOL    HW227138   4.735   4.407   4.913 -0.9284 -1.0526  0.7250
 8747SOL     OW27139   1.037   2.710   3.681 -0.3642  0.2276  0.1385
 8747SOL    HW127140   1.046   2.679   3.586 -1.8186  1.1516 -0.3403
 8747SOL    HW227141   0.970   2.654   3.728  0.6758 -0.5087  0.7771
 8748SOL     OW27142   5.787   0.452   6.180 -0.1308 -0.1122 -0.3004
 8748SOL    HW127143   5.760   0.506   6.260  1.3833  0.9129 -0.4313
 8748SOL    HW227144   5.775   0.507   6.097  1.4852  0.1007 -0.4296
 8749SOL     OW27145   3.129   5.264   6.265  0.2666  0.0832 -0.0697
 8749SOL    HW127146   3.095   5.342   6.318 -0.6022  1.2901 -2.2621
 8749SOL    HW227147   3.160   5.296   6.176 -0.1567 -2.0955 -1.0439
 8750SOL     OW27148   3.832   3.068   3.713 -0.5603 -0.3338  0.1004
 8750SOL    HW127149   3.890   3.149   3.707 -1.4311  0.3036  0.1618
 8750SOL    HW227150   3.858   3.014   3.794 -0.1936  0.0474  0.2391
 8751SOL     OW27151   1.417   0.134   3.383 -0.4446 -0.3443 -0.2465
 8751SOL    HW127152   1.397   0.140   3.480  0.3432  2.0055 -0.1694
 8751SOL    HW227153   1.335   0.106   3.333 -0.2437 -4.1927  1.2372
 8752SOL     OW27154   2.409   5.802   1.108 -0.4532  0.3712 -0.0191
 8752SOL    HW127155   2.363   5.714   1.120  0.7573 -0.4542 -1.2012
 8752SOL    HW227156   2.478   5.795   1.036  0.7962  1.8629  0.9522
 8753SOL     OW27157   5.817   0.924   5.445  0.6365 -0.7080 -0.3916
 8753SOL    HW127158   5.784   0.981   5.370  0.1305 -0.6196 -0.1051
 8753SOL    HW227159   5.740   0.895   5.501  0.7380 -2.5208 -1.1060
 8754SOL     OW27160   1.870   1.679   4.278 -0.5400 -0.4092  0.1481
 8754SOL    HW127161   1.918   1.764   4.256 -0.6778 -0.7292 -1.5604
 8754SOL    HW227162   1.830   1.686   4.369  0.4881  0.8767  0.5341
 8755SOL     OW27163   1.954   5.875   5.937  0.6307  0.4754  0.3048
 8755SOL    HW127164   1.995   5.903   5.850  2.9577  1.5328  1.6572
 8755SOL    HW227165   1.885   5.942   5.965  0.9819  0.9695  0.0037
 8756SOL     OW27166   1.322   1.046   4.989 -0.2357  0.1478  0.4635
 8756SOL    HW127167   1.243   0.985   4.976  0.0836 -0.3639  0.8573
 8756SOL    HW227168   1.329   1.109   4.912 -1.6238  0.8798  0.8911
 8757SOL     OW27169   4.051   6.767   6.073  0.4726  0.0850  0.6333
 8757SOL    HW127170   4.092   6.853   6.106  0.4895 -0.7349  2.9531
 8757SOL    HW227171   4.052   6.700   6.147 -0.8929 -1.4599 -0.6832
 8758SOL     OW27172   5.173   6.986   2.036 -0.2824 -0.0692  0.4301
 8758SOL    HW127173   5.133   6.996   2.127  0.6372  1.0867  0.7356
 8758SOL    HW227174   5.246   6.918   2.038  1.0462  1.3035  1.0580
 8759SOL     OW27175   4.744   2.716   0.662  0.1679  0.3164 -0.4387
 8759SOL    HW127176   4.832   2.738   0.619 -0.4613  0.1656 -1.8716
 8759SOL    HW227177   4.740   2.757   0.753  1.9497 -0.1559 -0.1001
 8760SOL     OW27178   1.485   2.521   0.020 -0.6273 -0.7309  0.1684
 8760SOL    HW127179   1.436   2.579  -0.045 -1.2511 -0.4975  0.8323
 8760SOL    HW227180   1.509   2.574   0.101 -1.0867 -1.3612  0.7261
 8761SOL     OW27181   5.681   2.240   1.996 -0.1315  0.0751 -0.3552
 8761SOL    HW127182   5.765   2.191   2.019  0.0166 -0.3367 -1.6588
 8761SOL    HW227183   5.689   2.335   2.024  0.6314 -0.0377 -0.1590
 8762SOL     OW27184   1.607   5.383   0.701 -0.0576  0.1215  0.3424
 8762SOL    HW127185   1.680   5.412   0.762  0.5821 -3.2134  1.3408
 8762SOL    HW227186   1.522   5.375   0.752 -0.2396  0.2641  0.0673
 8763SOL     OW27187   6.538   5.533   4.831 -0.8876 -0.8013  0.6813
 8763SOL    HW127188   6.460   5.557   4.773  0.8090 -0.0837 -1.4302
 8763SOL    HW227189   6.578   5.616   4.870  0.7805 -0.7506 -0.9785
 8764SOL     OW27190   4.735   6.847   4.914  0.5528 -0.3796  0.5383
 8764SOL    HW127191   4.756   6.808   5.004  0.0214 -0.7958  0.4877
 8764SOL    HW227192   4.803   6.816   4.848  0.6771 -0.4547  0.6999
 8765SOL     OW27193   6.668   6.766   6.645  0.1018  0.5581  0.2700
 8765SOL    HW127194   6.731   6.689   6.652 -0.4405  0.1556  0.9029
 8765SOL    HW227195   6.595   6.755   6.712 -1.2136  0.4895 -1.1250
 8766SOL     OW27196   6.028   5.982   5.488 -0.3484  0.0767  0.4066
 8766SOL    HW127197   6.118   5.947   5.513 -0.9739 -0.3243  2.2445
 8766SOL    HW227198   6.010   6.068   5.536 -1.0866 -0.0321  0.3415
 8767SOL     OW27199   4.948   0.604   2.020  0.0774  0.1471 -0.2012
 8767SOL    HW127200   5.025   0.623   1.960  0.4081  0.1870  0.2346
 8767SOL    HW227201   4.863   0.625   1.972  0.3242 -0.0872 -0.7528
 8768SOL     OW27202   1.321   2.932   1.836  0.1219  0.4515  0.0416
 8768SOL    HW127203   1.309   3.005   1.902 -3.1191  1.0122 -0.9946
 8768SOL    HW227204   1.310   2.968   1.743  2.2750 -0.7181 -0.7343
 8769SOL     OW27205   4.239   6.779   3.122 -0.6483  0.1068  0.0137
 8769SOL    HW127206   4.159   6.822   3.082 -0.2480 -1.1468 -2.3401
 8769SOL    HW227207   4.256   6.816   3.213 -2.4151  2.1833 -0.4392
 8770SOL     OW27208   5.673   1.093   2.630 -0.0620  0.4501 -0.0392
 8770SOL    HW127209   5.620   1.175   2.653  1.2087  1.5890 -1.0228
 8770SOL    HW227210   5.768   1.106   2.657  0.1684 -0.6787 -0.2674
 8771SOL     OW27211   1.317   1.919   1.034  0.0755  0.1782 -0.0541
 8771SOL    HW127212   1.380   1.966   0.973 -0.1663  1.4660  0.6730
 8771SOL    HW227213   1.263   1.985   1.085 -2.1105 -0.8550 -0.8658
 8772SOL     OW27214   5.071   6.582   0.226  0.1057 -0.1071 -0.2674
 8772SOL    HW127215   5.003   6.640   0.180  0.4177 -0.1593 -0.8063
 8772SOL    HW227216   5.162   6.617   0.205  0.3173 -1.0257 -0.9269
 8773SOL     OW27217   5.266   1.841   4.650 -0.2804 -0.0626  0.6962
 8773SOL    HW127218   5.362   1.859   4.672 -0.1029 -0.1306  0.0127
 8773SOL    HW227219   5.245   1.878   4.560 -0.4007 -1.5957  0.0572
 8774SOL     OW27220   3.968   2.760   6.368  0.0605  0.5828 -0.2274
 8774SOL    HW127221   4.056   2.808   6.371 -0.7595  2.2562 -1.3047
 8774SOL    HW227222   3.897   2.823   6.335 -2.0276 -0.0439  2.6970
 8775SOL     OW27223   5.992   0.068   5.648  0.4498  0.3371  0.0586
 8775SOL    HW127224   5.926   0.117   5.591  0.3231 -0.3194 -0.3688
 8775SOL    HW227225   6.059   0.133   5.684  1.0221  0.6490 -1.5098
 8776SOL     OW27226   2.570   2.386   6.139 -0.2479  0.1958 -0.4748
 8776SOL    HW127227   2.664   2.371   6.108 -0.0640 -1.4580  0.7133
 8776SOL    HW227228   2.509   2.389   6.060  0.2327 -3.5963 -1.2119
 8777SOL     OW27229   0.873   2.764   2.217 -0.3357  0.1017 -0.5852
 8777SOL    HW127230   0.867   2.840   2.282  0.3628 -0.3685  0.0494
 8777SOL    HW227231   0.904   2.682   2.265 -1.0559 -0.5793 -1.2677
 8778SOL     OW27232   6.304   2.210   3.686 -0.0573 -0.1528 -0.3963
 8778SOL    HW127233   6.210   2.194   3.657  0.2634 -2.6237 -0.2292
 8778SOL    HW227234   6.306   2.225   3.785 -0.0696 -2.6178  0.0238
 8779SOL     OW27235   2.637   4.635   2.467  0.0476 -0.2863 -0.2210
 8779SOL    HW127236   2.594   4.719   2.437  0.8817  0.7047  1.2185
 8779SOL    HW227237   2.730   4.629   2.429 -0.4902 -1.2874 -1.4619
 8780SOL     OW27238   6.478   4.820   1.837  0.1801 -0.2489 -0.2304
 8780SOL    HW127239   6.545   4.879   1.793 -0.3203  0.1725 -0.4319
 8780SOL    HW227240   6.439   4.757   1.770 -2.4830  2.0941 -1.0814
 8781SOL     OW27241   0.003   0.793   3.797 -0.5822  0.0995 -0.4256
 8781SOL    HW127242  -0.042   0.855   3.733  1.2593  1.6065 -0.3509
 8781SOL    HW227243  -0.011   0.699   3.767 -1.6145  0.6350 -1.7766
 8782SOL     OW27244   4.067   0.953   4.485 -0.3446 -0.0147  0.0776
 8782SOL    HW127245   3.989   0.978   4.429 -1.2520 -1.0826  0.8143
 8782SOL    HW227246   4.109   0.870   4.450  0.0478  0.1813  0.0752
 8783SOL     OW27247   6.180   3.628   2.522  0.3316  0.1678 -0.0580
 8783SOL    HW127248   6.273   3.634   2.487  0.3348 -0.3077 -0.1360
 8783SOL    HW227249   6.174   3.679   2.608  0.7853 -0.1985  0.1959
 8784SOL     OW27250   0.430   5.805   6.774  0.1799 -0.0433  0.3085
 8784SOL    HW127251   0.458   5.874   6.708 -1.6399 -0.2820 -0.7747
 8784SOL    HW227252   0.488   5.811   6.855  0.8164  1.9593 -0.2394
 8785SOL     OW27253   5.477   3.595   6.619  0.0002 -0.4344  0.1586
 8785SOL    HW127254   5.481   3.497   6.599 -0.6559 -0.3650 -0.3634
 8785SOL    HW227255   5.462   3.646   6.534  0.8941  0.1680  0.3436
 8786SOL     OW27256   0.557   6.519   0.160  0.1700 -0.2838 -0.1630
 8786SOL    HW127257   0.586   6.555   0.248 -2.2859  0.2006  0.5278
 8786SOL    HW227258   0.523   6.426   0.172 -1.1767  0.1632 -0.3577
 8787SOL     OW27259   2.170   3.610   3.159  0.2511 -0.7253 -0.6067
 8787SOL    HW127260   2.206   3.546   3.226 -0.9980  0.2193  1.0213
 8787SOL    HW227261   2.096   3.567   3.108  0.8329 -1.2545 -1.0323
 8788SOL     OW27262   1.096   2.517   5.430 -0.0248  0.7471  0.0630
 8788SOL    HW127263   1.175   2.550   5.482 -0.0552  0.9535 -0.0206
 8788SOL    HW227264   1.126   2.490   5.338  0.4413 -1.6784  0.8475
 8789SOL     OW27265   6.305   6.770   4.851  0.0126  0.1079 -0.1471
 8789SOL    HW127266   6.336   6.675   4.840 -3.0261 -1.0314  0.1169
 8789SOL    HW227267   6.212   6.779   4.815 -0.8250  2.3091  2.2826
 8790SOL     OW27268   6.366   2.013   6.519  0.2091 -0.2738  0.3804
 8790SOL    HW127269   6.351   1.918   6.547 -0.0205 -0.4774 -0.4126
 8790SOL    HW227270   6.278   2.061   6.514  0.2210 -0.2940 -0.1532
 8791SOL     OW27271   0.002   6.431   3.962 -0.0799  0.2536  0.1173
 8791SOL    HW127272  -0.087   6.460   3.996 -0.5440  0.6594 -1.3877
 8791SOL    HW227273  -0.009   6.351   3.903  0.5551  0.3229 -0.1056
 8792SOL     OW27274   2.900   6.487   2.671 -1.3002 -0.8156  0.0560
 8792SOL    HW127275   2.846   6.454   2.748  1.2146 -1.8628  1.5154
 8792SOL    HW227276   2.922   6.583   2.685  1.9066 -1.7314  2.5992
 8793SOL     OW27277   0.350   5.703   1.290  0.6065 -0.0501 -0.2086
 8793SOL    HW127278   0.443   5.739   1.297  0.8532 -0.9117  1.7002
 8793SOL    HW227279   0.288   5.776   1.263  1.4045  1.3403  1.4574
 8794SOL     OW27280   3.256   4.307   1.500 -0.4726  0.0369 -0.1247
 8794SOL    HW127281   3.342   4.274   1.539  0.1219 -0.0842 -1.4973
 8794SOL    HW227282   3.181   4.284   1.563  0.4917  0.3188  1.1838
 8795SOL     OW27283   0.198   3.722   5.324  0.3668 -0.0387  0.1390
 8795SOL    HW127284   0.208   3.779   5.242  2.7276  1.2469  1.2028
 8795SOL    HW227285   0.251   3.763   5.399  2.0762 -3.5170  1.0453
 8796SOL     OW27286   5.629   2.046   4.922 -1.0155  0.1842  0.0621
 8796SOL    HW127287   5.540   2.091   4.907  0.6508  3.8855  0.2158
 8796SOL    HW227288   5.702   2.106   4.889  1.6248 -1.3450  2.6934
 8797SOL     OW27289   1.084   6.347   5.579 -0.2871  0.0869  0.0889
 8797SOL    HW127290   1.013   6.399   5.626  1.0812  1.1990  1.0155
 8797SOL    HW227291   1.113   6.271   5.638  0.4796  0.6760  0.4964
 8798SOL     OW27292   5.677   0.475   4.771  0.9267 -0.6850 -0.1072
 8798SOL    HW127293   5.591   0.451   4.816 -0.7964  0.5431 -2.5361
 8798SOL    HW227294   5.714   0.558   4.812 -0.3816  0.1796 -0.6408
 8799SOL     OW27295   0.250   5.603   2.813 -0.7041  0.3327  0.1155
 8799SOL    HW127296   0.206   5.689   2.788  1.1900  1.7345  1.3113
 8799SOL    HW227297   0.286   5.560   2.730 -1.8386  0.5725 -0.5223
 8800SOL     OW27298   5.431   4.668   6.422 -0.0500  0.3256  0.0840
 8800SOL    HW127299   5.337   4.634   6.421  0.0706 -0.0874  1.0699
 8800SOL    HW227300   5.494   4.593   6.403  0.0896  0.5883 -0.5076
 8801SOL     OW27301   1.216   1.270   6.426  0.1815 -0.1355 -0.0768
 8801SOL    HW127302   1.285   1.304   6.491 -1.2515  2.2558  0.2983
 8801SOL    HW227303   1.127   1.308   6.450 -0.9870 -1.8276 -1.5531
 8802SOL     OW27304   3.203   1.104   2.589 -0.2201  0.1682 -0.4746
 8802SOL    HW127305   3.288   1.054   2.571 -0.3871  0.7689 -3.3909
 8802SOL    HW227306   3.220   1.202   2.581 -1.4224  0.2505 -2.5241
 8803SOL     OW27307   0.329   6.878   6.062  0.2945 -0.5371  0.3025
 8803SOL    HW127308   0.335   6.967   6.016 -1.3853 -0.2735  0.5331
 8803SOL    HW227309   0.398   6.873   6.134 -0.1072  0.9237  0.8311
 8804SOL     OW27310   4.061   2.137   0.827 -0.1983  0.2582 -0.2475
 8804SOL    HW127311   3.970   2.112   0.794  0.0759  1.5271 -2.1523
 8804SOL    HW227312   4.125   2.062   0.811 -0.9798 -0.9132  1.7265
 8805SOL     OW27313   3.467   1.269   4.628  0.1638  0.4723  0.3300
 8805SOL    HW127314   3.492   1.343   4.691  0.8852  0.2144  0.3544
 8805SOL    HW227315   3.375   1.285   4.594  0.0310  0.9921  0.9052
 8806SOL     OW27316   2.740   0.212   1.792 -0.3811  0.1249  0.0290
 8806SOL    HW127317   2.810   0.234   1.723 -1.9206  1.0076 -1.3173
 8806SOL    HW227318   2.766   0.253   1.879  0.0802  1.7568 -0.8193
 8807SOL     OW27319   4.726   6.517   6.092  0.0810  0.2864 -0.2253
 8807SOL    HW127320   4.681   6.477   6.171  0.4125  0.4419  0.0447
 8807SOL    HW227321   4.825   6.503   6.099  0.0416 -0.5906 -1.1064
 8808SOL     OW27322   6.086   2.135   6.170 -0.0916 -0.2974  0.0737
 8808SOL    HW127323   6.042   2.064   6.225 -2.1096  0.2367 -0.7854
 8808SOL    HW227324   6.101   2.216   6.227  0.0563 -0.5796  0.4450
 8809SOL     OW27325   4.154   6.632   3.790  0.0251  0.3720 -0.6738
 8809SOL    HW127326   4.139   6.567   3.716  0.5642 -0.0340 -0.4327
 8809SOL    HW227327   4.076   6.628   3.853  0.3441 -0.5242 -0.3156
 8810SOL     OW27328   5.733   0.193   5.508  0.6345 -0.2880 -0.3174
 8810SOL    HW127329   5.719   0.237   5.419 -0.2148 -0.6379 -0.3676
 8810SOL    HW227330   5.708   0.255   5.581  3.1360  0.7141 -0.1987
 8811SOL     OW27331   1.491   0.933   4.192 -0.1023 -0.5195 -0.3756
 8811SOL    HW127332   1.590   0.925   4.197  0.3319  3.0453 -0.1359
 8811SOL    HW227333   1.466   0.972   4.103 -1.0995 -0.0224  0.1027
 8812SOL     OW27334   1.121   6.778   4.565 -0.5388  0.3356 -0.1017
 8812SOL    HW127335   1.213   6.761   4.602  0.2856 -0.5678 -2.3496
 8812SOL    HW227336   1.054   6.727   4.618  0.3575  0.3362  1.0715
 8813SOL     OW27337   7.012   3.481   3.039  0.1105  0.5205  0.1542
 8813SOL    HW127338   7.008   3.580   3.048  1.3575  0.6281 -0.3634
 8813SOL    HW227339   7.074   3.444   3.108  0.6614  0.2300 -0.4904
 8814SOL     OW27340   6.240   1.083   1.842  0.5630  0.2351  0.0920
 8814SOL    HW127341   6.218   1.002   1.896  2.2439 -0.1397  0.2871
 8814SOL    HW227342   6.289   1.148   1.900  0.5744  0.7157 -0.4584
 8815SOL     OW27343   6.680   4.996   0.345 -0.2087  0.6072 -0.4117
 8815SOL    HW127344   6.727   4.964   0.427 -0.0354 -0.3558 -0.8780
 8815SOL    HW227345   6.611   4.929   0.318  0.6258  0.2774 -1.8042
 8816SOL     OW27346   1.706   6.390   6.989  0.1290 -0.3934 -0.7316
 8816SOL    HW127347   1.629   6.447   6.962  0.4100  0.4437  0.1662
 8816SOL    HW227348   1.768   6.380   6.912 -1.0553 -1.3992 -1.5760
 8817SOL     OW27349   1.064   5.411   4.544  0.3856  0.6314 -0.3328
 8817SOL    HW127350   1.001   5.395   4.621 -0.4244  1.4514 -0.7967
 8817SOL    HW227351   1.041   5.498   4.501  1.3125  0.5314 -1.0557
 8818SOL     OW27352   0.323   2.198   3.206 -0.4693 -0.2121 -0.4258
 8818SOL    HW127353   0.407   2.225   3.253 -0.8336 -0.6222  0.4818
 8818SOL    HW227354   0.244   2.220   3.264 -1.0013  0.2247 -1.2932
 8819SOL     OW27355   3.937   0.067   3.612 -0.1535 -0.3102 -0.1928
 8819SOL    HW127356   3.850   0.090   3.657  0.2603  0.5996  0.1629
 8819SOL    HW227357   3.993   0.013   3.673 -0.4429 -0.8656 -0.4081
 8820SOL     OW27358   1.857   0.493   5.188  0.6450  0.4614 -0.4825
 8820SOL    HW127359   1.761   0.521   5.194  0.6455  1.0761 -2.4689
 8820SOL    HW227360   1.914   0.575   5.180  1.4397  0.1298  1.3434
 8821SOL     OW27361   3.540   5.649   0.194  0.1531  0.0031  0.4542
 8821SOL    HW127362   3.558   5.564   0.243  3.5668  0.6331  0.5830
 8821SOL    HW227363   3.554   5.726   0.255  2.1501  0.7256 -0.7994
 8822SOL     OW27364   1.111   2.618   4.774  0.2536 -0.2695  0.4132
 8822SOL    HW127365   1.096   2.520   4.782  1.3685 -0.5190 -0.3225
 8822SOL    HW227366   1.030   2.667   4.806 -0.6793 -1.4452 -0.0803
 8823SOL     OW27367   2.322   5.872   6.936 -0.4746  0.3515 -0.0740
 8823SOL    HW127368   2.330   5.971   6.949  0.5682  0.3996 -0.9317
 8823SOL    HW227369   2.368   5.846   6.851  0.1048 -0.9857  0.6192
 8824SOL     OW27370   1.118   2.786   1.450 -0.3305  0.1887 -0.1205
 8824SOL    HW127371   1.202   2.817   1.406 -0.7739  0.8958 -0.4788
 8824SOL    HW227372   1.043   2.847   1.427 -0.8061 -0.0452  0.7439
 8825SOL     OW27373   0.786   1.516   5.449 -0.1612 -0.7351 -0.2863
 8825SOL    HW127374   0.839   1.472   5.522  1.0706  0.3834 -0.4796
 8825SOL    HW227375   0.710   1.566   5.489  0.0341 -0.7859  0.1579
 8826SOL     OW27376   6.822   3.194   6.386  0.1827 -0.3083 -0.4629
 8826SOL    HW127377   6.866   3.149   6.463  0.9377 -1.5782 -1.5848
 8826SOL    HW227378   6.750   3.134   6.349 -0.4494  0.4593 -0.4939
 8827SOL     OW27379   2.728   6.538   4.139  0.6463  0.7630 -0.2383
 8827SOL    HW127380   2.812   6.555   4.191  0.6617 -0.3411  0.1102
 8827SOL    HW227381   2.727   6.598   4.059  2.2002  0.1653 -0.7509
 8828SOL     OW27382   3.968   5.217   4.209 -0.2293 -0.0545 -0.2181
 8828SOL    HW127383   3.917   5.267   4.278  1.2409  1.4686 -0.1473
 8828SOL    HW227384   3.944   5.252   4.118 -0.0379 -0.0086 -0.2520
 8829SOL     OW27385   5.695   3.509   6.355  0.0797  0.1129  0.2794
 8829SOL    HW127386   5.783   3.470   6.383 -0.3483 -0.8091  0.3968
 8829SOL    HW227387   5.668   3.469   6.267 -0.5405 -0.1236  0.5720
 8830SOL     OW27388   2.334   1.507   1.928 -0.6503  0.0898  0.5716
 8830SOL    HW127389   2.392   1.477   1.852  2.1405  3.4081  1.1442
 8830SOL    HW227390   2.255   1.557   1.892  1.5196  3.0983 -0.3162
 8831SOL     OW27391   6.898   1.879   5.808  0.4130  0.0286  0.2204
 8831SOL    HW127392   6.876   1.801   5.867  1.3217  0.0374  0.5945
 8831SOL    HW227393   6.815   1.909   5.761  0.4312 -2.6330 -1.7751
 8832SOL     OW27394   1.213   5.793   1.582 -0.0180  0.1732  1.1034
 8832SOL    HW127395   1.302   5.768   1.621  0.2579  0.1077  0.4377
 8832SOL    HW227396   1.218   5.887   1.546 -0.2617  0.2181  1.1845
 8833SOL     OW27397   4.127   5.616   4.207  0.1543  0.9128  0.2478
 8833SOL    HW127398   4.060   5.619   4.281 -1.1140 -3.0851 -0.4959
 8833SOL    HW227399   4.080   5.596   4.120  1.9504  2.1204 -1.0792
 8834SOL     OW27400   6.887   3.231   3.272 -0.3617 -0.5308  0.1248
 8834SOL    HW127401   6.983   3.248   3.248 -0.4652 -0.0785  0.0230
 8834SOL    HW227402   6.836   3.208   3.189 -0.4498 -0.2360  0.0939
 8835SOL     OW27403   5.009   1.023   4.904 -0.0044 -0.2675 -0.0916
 8835SOL    HW127404   4.915   0.991   4.901  0.3023 -1.3652  1.0895
 8835SOL    HW227405   5.011   1.120   4.926 -0.8411 -0.4522  0.8717
 8836SOL     OW27406   4.552   2.898   1.262 -0.0542 -0.1658  0.2204
 8836SOL    HW127407   4.611   2.821   1.287  0.1631  0.0539  0.3954
 8836SOL    HW227408   4.588   2.941   1.179 -0.5074 -0.6066 -0.2102
 8837SOL     OW27409   5.473   6.444   2.465 -0.0889 -0.4540 -0.3385
 8837SOL    HW127410   5.518   6.514   2.520 -0.7718 -0.2219 -0.0571
 8837SOL    HW227411   5.375   6.466   2.456 -0.5041 -1.8397  0.5148
 8838SOL     OW27412   2.505   5.185   3.744  0.2961  0.2432 -0.2820
 8838SOL    HW127413   2.484   5.207   3.839  1.9275  0.2957  0.0937
 8838SOL    HW227414   2.577   5.246   3.710  0.5444 -0.5271 -1.1862
 8839SOL     OW27415   5.085   5.031   2.411  0.0983 -0.3561 -0.4860
 8839SOL    HW127416   5.121   5.034   2.318  0.8126  1.5135 -0.2034
 8839SOL    HW227417   5.042   5.119   2.433  1.7722  0.0351  1.6162
 8840SOL     OW27418   6.561   2.118   2.038 -0.1359 -0.9214  0.0245
 8840SOL    HW127419   6.494   2.160   2.099  1.3620 -0.8078  1.7025
 8840SOL    HW227420   6.622   2.188   2.001  1.3452 -1.3264  1.5307
 8841SOL     OW27421   0.793   0.362   5.050 -0.6622  0.6506 -0.0326
 8841SOL    HW127422   0.884   0.388   5.083 -0.2504  0.9443 -1.3686
 8841SOL    HW227423   0.753   0.294   5.113  0.2444  0.9148  0.8538
 8842SOL     OW27424   3.843   2.790   1.403 -0.6769  0.6138 -0.3371
 8842SOL    HW127425   3.798   2.727   1.339  2.2703 -1.8002 -0.2512
 8842SOL    HW227426   3.825   2.761   1.497 -0.1103  0.5018 -0.2619
 8843SOL     OW27427   2.663   3.172   5.316  0.2340  0.1340  0.5609
 8843SOL    HW127428   2.677   3.262   5.276 -0.9564 -0.4623 -1.3593
 8843SOL    HW227429   2.588   3.126   5.269  1.6968 -2.4022  0.4923
 8844SOL     OW27430   5.599   3.186   6.981  0.6681 -0.7990 -0.1056
 8844SOL    HW127431   5.592   3.242   7.064 -2.9637 -1.2308  0.0475
 8844SOL    HW227432   5.592   3.090   7.006  2.4872 -1.1323 -0.7444
 8845SOL     OW27433   3.557   3.822   0.448 -0.1027 -0.0388  0.3547
 8845SOL    HW127434   3.590   3.874   0.527  2.0088 -1.3598  0.4375
 8845SOL    HW227435   3.544   3.726   0.475 -0.3225 -0.3045 -0.6589
 8846SOL     OW27436   4.103   4.918   1.668  0.4604 -0.3407 -0.0259
 8846SOL    HW127437   4.173   4.989   1.677 -0.0489  0.1008  0.5745
 8846SOL    HW227438   4.134   4.848   1.605  1.3522 -0.0332  0.0619
 8847SOL     OW27439   2.180   2.519   5.125 -0.6223  0.3097  0.4884
 8847SOL    HW127440   2.239   2.568   5.061 -2.3760  0.6216 -0.9707
 8847SOL    HW227441   2.131   2.585   5.182 -0.5363  0.1098  0.7957
 8848SOL     OW27442   2.101   1.529   1.597  0.2719 -0.3950  0.3387
 8848SOL    HW127443   2.133   1.597   1.663 -0.3400  0.7521 -0.5165
 8848SOL    HW227444   2.069   1.448   1.646  2.8360 -0.9190  1.2919
 8849SOL     OW27445   2.292   2.144   2.938 -0.3654 -0.2208  0.4559
 8849SOL    HW127446   2.361   2.186   2.880 -0.6413  0.5819  0.7003
 8849SOL    HW227447   2.204   2.142   2.891 -0.6103  0.5127  0.8604
 8850SOL     OW27448   1.680   0.230   0.691  0.2917 -0.0025  0.3386
 8850SOL    HW127449   1.758   0.208   0.749  1.3813 -0.0120 -1.0573
 8850SOL    HW227450   1.661   0.328   0.696  1.9769  0.4484 -1.1095
 8851SOL     OW27451   2.398   4.475   3.009  0.3841 -0.2178 -0.7348
 8851SOL    HW127452   2.386   4.392   2.955 -1.8186 -0.7611  0.4891
 8851SOL    HW227453   2.409   4.451   3.105  0.8659  0.8899 -0.4909
 8852SOL     OW27454   0.261   2.674   5.604 -0.3946 -0.8008 -0.1381
 8852SOL    HW127455   0.324   2.728   5.548 -1.1257  0.6582  0.3918
 8852SOL    HW227456   0.195   2.627   5.545  0.4374 -1.3738 -0.6265
 8853SOL     OW27457   3.533   1.159   1.022  0.7006  0.0621  1.1018
 8853SOL    HW127458   3.455   1.131   1.078  0.1859  2.1226  1.5138
 8853SOL    HW227459   3.511   1.147   0.925 -0.0331  0.3516  1.2230
 8854SOL     OW27460   2.578   3.642   0.431  0.1834 -0.5915 -0.2970
 8854SOL    HW127461   2.487   3.679   0.412  0.7303  0.4397 -0.9726
 8854SOL    HW227462   2.642   3.672   0.361  1.2482 -0.5403  0.6739
 8855SOL     OW27463   6.488   6.161   1.808  0.1516  0.1464  0.2218
 8855SOL    HW127464   6.543   6.235   1.770  2.5782 -1.3221  0.6370
 8855SOL    HW227465   6.442   6.193   1.891  2.6305  0.7929  1.4643
 8856SOL     OW27466   0.063   6.292   0.218 -0.2325 -0.0759  0.1275
 8856SOL    HW127467   0.052   6.390   0.206  0.0761 -0.0325  0.1953
 8856SOL    HW227468   0.119   6.255   0.144 -1.5062 -0.4372 -0.6994
 8857SOL     OW27469   4.302   0.054   6.349 -0.2474  0.0135 -0.7095
 8857SOL    HW127470   4.273   0.128   6.289  0.2505 -0.5025 -1.6180
 8857SOL    HW227471   4.238  -0.023   6.340 -1.4115  0.7036  1.0728
 8858SOL     OW27472   6.121   4.228   4.288 -0.0727 -0.1253  0.5762
 8858SOL    HW127473   6.208   4.182   4.307 -0.5127 -1.1301  0.2138
 8858SOL    HW227474   6.138   4.313   4.238  0.6853 -0.3915  0.3711
 8859SOL     OW27475   1.561   1.996   4.698  0.1306 -0.3041  0.3312
 8859SOL    HW127476   1.533   2.036   4.785  1.2100 -0.5086  0.7889
 8859SOL    HW227477   1.509   1.912   4.682 -0.4370  0.0039  0.5222
 8860SOL     OW27478   1.903   2.918   1.153  0.0684 -0.0149 -0.1653
 8860SOL    HW127479   1.931   2.838   1.099  0.7339  0.2867 -0.2775
 8860SOL    HW227480   1.805   2.932   1.142 -0.4090 -1.8407  1.2278
 8861SOL     OW27481   3.673   1.795   4.409 -0.0413  0.3350  0.3783
 8861SOL    HW127482   3.597   1.795   4.343  0.4111 -0.6961 -0.1536
 8861SOL    HW227483   3.709   1.888   4.417  0.7388  0.2725 -1.8257
 8862SOL     OW27484   0.449   1.980   5.377  0.2971 -0.6622 -0.0784
 8862SOL    HW127485   0.459   1.885   5.350  1.1192 -0.6829  0.2610
 8862SOL    HW227486   0.433   2.037   5.296  0.0766 -1.0489 -0.3074
 8863SOL     OW27487   0.701   4.494   5.211 -0.1982  0.0116  0.0341
 8863SOL    HW127488   0.730   4.522   5.120  0.2378  1.4336  0.5921
 8863SOL    HW227489   0.671   4.398   5.208  1.3679 -0.4907 -1.2613
 8864SOL     OW27490   3.563   6.599   6.734  0.0144 -0.5804  0.5800
 8864SOL    HW127491   3.601   6.513   6.769  1.0122 -0.5409 -0.3683
 8864SOL    HW227492   3.530   6.654   6.810  0.2366 -1.3891  1.2776
 8865SOL     OW27493   2.683   6.834   4.713  0.1788  0.0874  0.2570
 8865SOL    HW127494   2.722   6.917   4.752 -3.4426  1.2172  1.9308
 8865SOL    HW227495   2.692   6.759   4.779  0.6481 -0.0137  0.0808
 8866SOL     OW27496   6.171   6.256   3.718  0.0879 -0.6074 -0.4001
 8866SOL    HW127497   6.256   6.258   3.666  0.2178 -0.5383 -0.1865
 8866SOL    HW227498   6.097   6.220   3.660  0.2499 -0.6186 -0.6010
 8867SOL     OW27499   6.529   5.719   4.408  0.0239 -0.1908  0.1078
 8867SOL    HW127500   6.519   5.686   4.314  0.0713  1.0086 -0.3362
 8867SOL    HW227501   6.624   5.745   4.424 -0.0123 -0.2665  0.4535
 8868SOL     OW27502   6.593   4.176   1.985 -0.4370 -0.2874  0.0392
 8868SOL    HW127503   6.554   4.267   1.999  0.5693  0.1033  0.3948
 8868SOL    HW227504   6.663   4.179   1.914  1.2201 -0.2707  1.5944
 8869SOL     OW27505   5.216   4.597   6.748  0.2080  0.0216  0.0186
 8869SOL    HW127506   5.138   4.589   6.811 -1.7639  1.9886 -1.9808
 8869SOL    HW227507   5.258   4.687   6.757 -0.5677  0.6270 -1.8583
 8870SOL     OW27508   2.787   7.023   0.277 -0.1526  0.0138  0.1386
 8870SOL    HW127509   2.736   7.088   0.334 -0.0130 -0.2248  0.5386
 8870SOL    HW227510   2.875   7.062   0.252 -1.2757  1.2842 -2.2344
 8871SOL     OW27511   2.374   6.452   0.754 -0.5954  0.1270  0.3359
 8871SOL    HW127512   2.447   6.496   0.805 -0.3776 -0.6900  0.7358
 8871SOL    HW227513   2.291   6.450   0.810 -0.9990  1.2052 -0.1777
 8872SOL     OW27514   0.938   5.671   0.437 -0.0600 -0.0811  0.1010
 8872SOL    HW127515   0.948   5.747   0.502 -1.2266  1.4387 -1.4093
 8872SOL    HW227516   0.993   5.593   0.468 -0.7044  0.4918  2.9876
 8873SOL     OW27517   2.371   0.412   3.702  0.4291 -0.2124  0.1281
 8873SOL    HW127518   2.397   0.464   3.621  0.5566  1.2887  1.0929
 8873SOL    HW227519   2.351   0.317   3.676  1.3918 -0.0051 -1.4840
 8874SOL     OW27520   2.550   6.718   1.588 -0.2009 -0.6977 -0.1737
 8874SOL    HW127521   2.550   6.724   1.688 -0.0665 -2.7790  0.0075
 8874SOL    HW227522   2.622   6.775   1.550  0.8654 -1.1898  1.0570
 8875SOL     OW27523   5.122   3.705   5.298 -0.2638 -0.0449 -0.1613
 8875SOL    HW127524   5.212   3.669   5.321  0.3110  0.1457 -1.9427
 8875SOL    HW227525   5.106   3.791   5.347  0.6892  0.1204 -0.1356
 8876SOL     OW27526   2.950   0.444   4.452  0.2560  0.6693  0.3980
 8876SOL    HW127527   2.962   0.477   4.546  0.5932 -1.9362  1.3438
 8876SOL    HW227528   2.976   0.517   4.388  2.2526  1.7729  2.3121
 8877SOL     OW27529   1.759   3.880   4.435 -0.0259 -0.2488  0.5693
 8877SOL    HW127530   1.819   3.821   4.382 -0.7198 -1.7563  1.4025
 8877SOL    HW227531   1.785   3.876   4.531 -1.7655 -1.3898  1.0380
 8878SOL     OW27532   5.096   3.111   6.371  0.0419  0.0876  0.2005
 8878SOL    HW127533   5.115   3.063   6.285 -1.3604  1.5636 -1.0024
 8878SOL    HW227534   5.002   3.092   6.400  0.5118 -0.4293  1.4713
 8879SOL     OW27535   4.537   4.883   2.195  0.3108 -0.3737 -0.9140
 8879SOL    HW127536   4.542   4.801   2.137 -1.6285 -0.8802 -0.4443
 8879SOL    HW227537   4.567   4.861   2.287  1.4251 -0.0968 -1.2001
 8880SOL     OW27538   4.717   5.807   6.272 -0.1359  0.4969  0.0686
 8880SOL    HW127539   4.641   5.845   6.220 -1.1488 -0.6150  0.6605
 8880SOL    HW227540   4.783   5.766   6.210  0.6107  2.4922 -0.5279
 8881SOL     OW27541   3.601   6.625   1.905  0.2290 -0.5406 -0.3790
 8881SOL    HW127542   3.626   6.658   1.996 -0.9397 -0.1514 -0.1686
 8881SOL    HW227543   3.669   6.559   1.872  1.5898  0.6126  0.0276
 8882SOL     OW27544   3.552   0.742   0.585  0.4411  0.3026  0.9175
 8882SOL    HW127545   3.460   0.740   0.545  0.9314 -0.4994 -0.2382
 8882SOL    HW227546   3.590   0.834   0.577  0.6528  0.1066 -0.8388
 8883SOL     OW27547   1.697   6.156   5.334 -0.0649 -0.1531 -0.3139
 8883SOL    HW127548   1.756   6.237   5.343 -0.2960  0.3799 -2.8807
 8883SOL    HW227549   1.700   6.103   5.419 -0.1827  2.7110  1.6382
 8884SOL     OW27550   6.542   3.115   5.727 -0.4485  0.5299  0.1169
 8884SOL    HW127551   6.632   3.089   5.692 -1.0957 -0.5186 -0.8376
 8884SOL    HW227552   6.543   3.212   5.750  0.8862  0.5740  0.0101
 8885SOL     OW27553   5.312   4.521   0.850 -0.3227  0.0580 -0.3536
 8885SOL    HW127554   5.244   4.584   0.813 -1.2183 -0.4693  0.3427
 8885SOL    HW227555   5.268   4.459   0.915  0.9315  0.0939  0.5784
 8886SOL     OW27556   1.583   4.546   4.255  0.2896 -0.5207 -0.5785
 8886SOL    HW127557   1.591   4.646   4.252 -0.7817 -0.4170 -0.3080
 8886SOL    HW227558   1.674   4.505   4.253  0.7351  0.4576 -0.7817
 8887SOL     OW27559   2.277   1.898   1.683 -0.4889  0.3802 -0.1449
 8887SOL    HW127560   2.199   1.935   1.633 -0.4927 -1.2923 -1.4714
 8887SOL    HW227561   2.355   1.889   1.621 -0.2812 -1.1000  0.2757
 8888SOL     OW27562   1.943   0.577   3.996  0.1967  0.2074 -0.0643
 8888SOL    HW127563   1.991   0.523   3.928 -0.3862 -0.4563  0.0406
 8888SOL    HW227564   1.936   0.526   4.082 -3.0906 -0.9804 -0.8573
 8889SOL     OW27565   5.997   5.768   6.323 -0.1822  0.1796  0.2368
 8889SOL    HW127566   6.041   5.708   6.256 -0.7723 -1.1685  1.0186
 8889SOL    HW227567   5.927   5.824   6.277 -3.3032 -3.3916  0.1602
 8890SOL     OW27568   6.893   4.712   3.634 -0.2983 -0.8589 -0.3982
 8890SOL    HW127569   6.984   4.706   3.593  0.5159 -0.8073  1.3387
 8890SOL    HW227570   6.892   4.663   3.721 -1.2832  1.0107  0.7025
 8891SOL     OW27571   1.521   2.386   0.751 -0.7606  0.3080  0.1991
 8891SOL    HW127572   1.547   2.444   0.673 -0.2562 -0.7492 -0.4441
 8891SOL    HW227573   1.431   2.348   0.734 -1.0292  0.7741  0.5547
 8892SOL     OW27574   4.154   6.528   3.168 -0.7904  0.2036 -0.0693
 8892SOL    HW127575   4.182   6.623   3.152 -2.6759  0.8691  0.3429
 8892SOL    HW227576   4.067   6.511   3.123  0.8498 -2.2515 -2.5991
 8893SOL     OW27577   1.621   3.460   2.788  0.6913  0.1589  0.1467
 8893SOL    HW127578   1.619   3.501   2.696  2.0510  0.0118  0.0340
 8893SOL    HW227579   1.704   3.404   2.798 -0.2386 -1.1472  0.9092
 8894SOL     OW27580   4.245   2.095   5.710  0.0474  0.3114  0.1066
 8894SOL    HW127581   4.306   2.154   5.657 -0.3965  0.9148  0.2472
 8894SOL    HW227582   4.256   2.000   5.681  1.2307  0.3700  0.3046
 8895SOL     OW27583   6.988   0.470   3.686  0.1717 -0.4954  0.1211
 8895SOL    HW127584   7.073   0.447   3.639 -0.6276 -2.1179 -0.6078
 8895SOL    HW227585   7.002   0.466   3.785  1.5912  1.8860  0.0883
 8896SOL     OW27586   1.951   4.185   4.604 -0.1797  0.9160 -0.0451
 8896SOL    HW127587   2.033   4.240   4.622  0.6558 -0.4082  0.3128
 8896SOL    HW227588   1.951   4.155   4.509  0.6267 -0.4235  0.3449
 8897SOL     OW27589   1.361   3.291   4.437 -0.4547 -0.0667 -0.2068
 8897SOL    HW127590   1.283   3.326   4.489  0.7111  0.4934  1.2292
 8897SOL    HW227591   1.356   3.192   4.432 -1.8663  0.0233 -1.1709
 8898SOL     OW27592   5.144   3.013   0.668  0.2328 -0.1080 -0.5566
 8898SOL    HW127593   5.240   3.038   0.654 -0.0228 -0.1473 -2.6875
 8898SOL    HW227594   5.111   3.053   0.754  2.4410 -1.0361  0.7938
 8899SOL     OW27595   0.693   6.268   1.517 -0.1434 -0.4328  0.0295
 8899SOL    HW127596   0.780   6.291   1.473  0.4782  1.0572  1.9300
 8899SOL    HW227597   0.700   6.177   1.559  0.0423 -0.8493 -0.8692
 8900SOL     OW27598   4.679   2.735   2.725  0.1313 -0.2684  0.3183
 8900SOL    HW127599   4.672   2.784   2.639 -0.9233  0.4818  0.8105
 8900SOL    HW227600   4.592   2.691   2.746  0.7961 -1.6580  0.3219
 8901SOL     OW27601   0.929   2.241   6.237 -0.4274 -0.6509  0.3086
 8901SOL    HW127602   1.001   2.290   6.187 -0.0021 -0.7700  0.7947
 8901SOL    HW227603   0.951   2.240   6.335 -1.5696  0.1375  0.5936
 8902SOL     OW27604   0.618   5.212   6.084  0.1293 -0.0949  0.5002
 8902SOL    HW127605   0.544   5.257   6.033 -0.4465 -0.4870  0.9805
 8902SOL    HW227606   0.584   5.180   6.172  0.4842 -1.6255  0.1088
 8903SOL     OW27607   6.876   2.345   4.436  0.0892 -0.0375  0.2680
 8903SOL    HW127608   6.821   2.265   4.458  2.4212 -1.0738  2.9293
 8903SOL    HW227609   6.972   2.327   4.457  0.7652  3.3510  0.6764
 8904SOL     OW27610   0.448   0.937   4.929 -0.0451 -0.3123 -0.7366
 8904SOL    HW127611   0.498   0.960   4.845  1.4468  0.7373  0.3892
 8904SOL    HW227612   0.509   0.945   5.007 -1.5581 -0.7331  0.5352
 8905SOL     OW27613   6.671   2.234   3.460 -0.2501 -0.2447 -0.3580
 8905SOL    HW127614   6.591   2.278   3.501  0.0641 -2.1246  2.6391
 8905SOL    HW227615   6.754   2.270   3.502  0.5257  1.1602 -2.9180
 8906SOL     OW27616   1.730   6.172   1.520  0.0342  0.1053  0.0147
 8906SOL    HW127617   1.777   6.091   1.487  0.9528 -0.0431  1.5556
 8906SOL    HW227618   1.646   6.145   1.569 -0.5480  0.2183 -0.9056
 8907SOL     OW27619   2.212   4.744   4.694 -0.2948  0.3194  0.1095
 8907SOL    HW127620   2.233   4.810   4.766 -1.8024 -0.0953  0.9626
 8907SOL    HW227621   2.163   4.666   4.732  2.7949 -2.1778 -0.5649
 8908SOL     OW27622   2.865   4.560   0.256  0.5974  0.6672  0.4521
 8908SOL    HW127623   2.849   4.521   0.165  0.4213 -2.1686  1.6185
 8908SOL    HW227624   2.777   4.568   0.304  0.9637 -0.4499  1.3372
 8909SOL     OW27625   2.850   1.112   6.874 -0.2767  0.1013  0.0265
 8909SOL    HW127626   2.803   1.110   6.962 -0.7103 -1.8215 -0.2043
 8909SOL    HW227627   2.839   1.023   6.828  1.7953  0.2978 -0.9757
 8910SOL     OW27628   6.691   4.281   6.294  0.5579 -0.0453  0.0464
 8910SOL    HW127629   6.689   4.190   6.335  0.8560  0.4436  1.1948
 8910SOL    HW227630   6.603   4.299   6.249  0.4930 -0.8869 -0.1708
 8911SOL     OW27631   4.863   2.140   4.283  0.0890  0.1605  0.3961
 8911SOL    HW127632   4.826   2.168   4.372 -0.9882  0.7220 -0.1979
 8911SOL    HW227633   4.799   2.167   4.211  1.6717  1.1631 -0.6959
 8912SOL     OW27634   1.638   3.942   5.849 -0.0735  0.2494  0.0633
 8912SOL    HW127635   1.624   4.015   5.917  1.1946 -1.0758  1.8534
 8912SOL    HW227636   1.569   3.871   5.862  0.6720 -0.3952  0.5184
 8913SOL     OW27637   4.524   5.704   5.031  0.9239 -0.1242 -0.1415
 8913SOL    HW127638   4.476   5.702   4.943 -0.5399  0.7183  0.5933
 8913SOL    HW227639   4.474   5.764   5.095  1.4476 -1.4016  1.5386
 8914SOL     OW27640   6.225   0.482   3.578 -0.2142 -0.2085 -0.0377
 8914SOL    HW127641   6.125   0.489   3.583 -0.1723  0.3034  0.2641
 8914SOL    HW227642   6.257   0.417   3.646 -0.4658 -1.7847 -1.3747
 8915SOL     OW27643   0.603   2.948   3.843  0.5246  0.3948 -0.3424
 8915SOL    HW127644   0.561   2.882   3.781 -0.1511 -0.2394  0.7589
 8915SOL    HW227645   0.699   2.962   3.816  0.1575  0.3992 -1.7151
 8916SOL     OW27646   0.682   1.443   0.959  0.0663  0.0222 -0.0326
 8916SOL    HW127647   0.676   1.376   0.885  0.7038  0.1772 -0.2308
 8916SOL    HW227648   0.655   1.533   0.926  0.2293  0.0668 -0.0467
 8917SOL     OW27649   4.840   2.333   6.566  0.1541 -0.6600  0.0600
 8917SOL    HW127650   4.932   2.306   6.594 -0.0023  0.1663  1.4839
 8917SOL    HW227651   4.822   2.299   6.474  2.4870  0.5030 -0.9224
 8918SOL     OW27652   2.640   5.534   1.294  0.0797 -0.0194 -0.6331
 8918SOL    HW127653   2.638   5.525   1.194  0.2663  0.0653 -0.6440
 8918SOL    HW227654   2.576   5.469   1.334 -1.5171  1.3146 -0.9051
 8919SOL     OW27655   7.019   4.074   0.326  0.5221  0.0658  0.1302
 8919SOL    HW127656   6.981   4.111   0.241 -2.0282 -0.9355  0.7170
 8919SOL    HW227657   7.096   4.014   0.305  0.2742  0.2527 -1.4382
 8920SOL     OW27658   0.393   2.128   6.405  0.2215  0.2254  0.0550
 8920SOL    HW127659   0.318   2.090   6.459 -0.9298 -0.5814 -2.0050
 8920SOL    HW227660   0.480   2.112   6.452 -0.8207  0.9824  2.3973
 8921SOL     OW27661   1.070   4.097   1.740  0.1271 -0.2528  0.1102
 8921SOL    HW127662   1.003   4.025   1.753  0.2458 -0.0274  2.3748
 8921SOL    HW227663   1.149   4.061   1.690 -1.3732 -0.6661 -2.0652
 8922SOL     OW27664   5.163   5.122   2.967  0.4013  0.5261  0.1069
 8922SOL    HW127665   5.261   5.105   2.963  0.2474 -0.4014 -0.0492
 8922SOL    HW227666   5.145   5.207   3.016  1.3001  0.8994 -0.1984
 8923SOL     OW27667   2.108   0.718   4.876 -0.5610  0.0377 -0.0379
 8923SOL    HW127668   2.122   0.629   4.833  0.4189  0.8221 -1.4104
 8923SOL    HW227669   2.030   0.713   4.938 -1.5667 -1.3324 -1.3460
 8924SOL     OW27670   3.613   4.835   6.634  0.0119  0.3921 -0.3719
 8924SOL    HW127671   3.692   4.791   6.676 -0.7939 -1.5257 -0.7805
 8924SOL    HW227672   3.530   4.811   6.685 -0.3877  2.0644 -0.1692
 8925SOL     OW27673   1.444   6.052   2.924  0.6943  0.1864 -0.1569
 8925SOL    HW127674   1.470   6.107   2.845 -1.7285  2.6009  0.5542
 8925SOL    HW227675   1.478   6.094   3.008 -1.1442  0.6813  0.4053
 8926SOL     OW27676   6.234   3.744   5.196  0.9874  0.0114  0.2755
 8926SOL    HW127677   6.168   3.795   5.141  0.5679  0.5641  1.2692
 8926SOL    HW227678   6.325   3.782   5.182  0.9697 -0.2051 -0.4499
 8927SOL     OW27679   4.920   1.944   3.826  0.3719 -0.3647 -0.0095
 8927SOL    HW127680   4.850   1.888   3.871  2.2687 -1.8739  1.1875
 8927SOL    HW227681   5.002   1.890   3.812  2.1999  1.9985  0.8631
 8928SOL     OW27682   6.131   0.159   4.682 -0.6649 -0.1639  0.1644
 8928SOL    HW127683   6.157   0.072   4.640  0.5186  0.2379  0.0067
 8928SOL    HW227684   6.114   0.145   4.779  2.5824 -0.1136  0.8546
 8929SOL     OW27685   5.904   1.604   4.976 -0.5705  0.2567 -0.1090
 8929SOL    HW127686   5.992   1.570   4.943  0.8967  0.8579  2.7879
 8929SOL    HW227687   5.876   1.551   5.056 -2.0965  1.0152 -0.1087
 8930SOL     OW27688   6.481   1.530   5.667 -0.0785 -0.1222  0.6120
 8930SOL    HW127689   6.474   1.531   5.767  0.3656  1.0976  0.6496
 8930SOL    HW227690   6.496   1.623   5.634  1.2079 -0.6934 -0.4958
 8931SOL     OW27691   3.570   4.329   0.225 -0.1657  0.0051  0.4642
 8931SOL    HW127692   3.647   4.302   0.282 -0.0907  0.7657  0.7438
 8931SOL    HW227693   3.552   4.427   0.238 -0.4443  0.0861 -0.4652
 8932SOL     OW27694   5.626   2.428   1.164  0.5523 -0.6143  0.1707
 8932SOL    HW127695   5.627   2.362   1.089 -1.9503  0.6569 -1.0961
 8932SOL    HW227696   5.555   2.403   1.229 -0.4520  0.7718 -0.3394
 8933SOL     OW27697   1.727   2.401   5.971  0.3868  0.1883  0.1363
 8933SOL    HW127698   1.673   2.483   5.988  0.5637  0.3909 -0.2875
 8933SOL    HW227699   1.805   2.423   5.912  1.4184  0.0792  1.3945
 8934SOL     OW27700   4.267   5.214   4.107  0.2845  0.8052 -0.9291
 8934SOL    HW127701   4.317   5.248   4.187 -0.2398 -2.2188  0.8685
 8934SOL    HW227702   4.169   5.220   4.123  0.1250  1.8758 -2.1849
 8935SOL     OW27703   2.045   5.284   0.684 -0.0883  0.1653 -0.1648
 8935SOL    HW127704   2.029   5.197   0.731 -0.1528 -0.4362 -1.2760
 8935SOL    HW227705   2.107   5.270   0.608 -0.1054  1.1016 -0.3629
 8936SOL     OW27706   0.386   3.515   3.133  0.3463  0.0074  0.3656
 8936SOL    HW127707   0.338   3.560   3.058 -1.2900  0.2221  1.4806
 8936SOL    HW227708   0.319   3.469   3.192  1.6251 -0.4954  1.4719
 8937SOL     OW27709   1.624   6.399   6.619 -0.0069  0.1151 -0.4986
 8937SOL    HW127710   1.600   6.496   6.632 -1.0740 -0.2384  0.2844
 8937SOL    HW227711   1.542   6.343   6.627  0.9117 -1.0701  1.3926
 8938SOL     OW27712   0.599   3.966   6.530 -0.0381  0.4732  0.3948
 8938SOL    HW127713   0.613   3.995   6.435  1.0180  3.5367  1.3654
 8938SOL    HW227714   0.502   3.950   6.546 -0.4077  1.3255 -0.8411
 8939SOL     OW27715   3.669   1.667   4.644 -0.4270  0.3101  0.2914
 8939SOL    HW127716   3.689   1.713   4.557 -0.3189 -0.8561 -0.3215
 8939SOL    HW227717   3.731   1.589   4.655 -0.6672  0.2506  1.2617
 8940SOL     OW27718   6.796   0.696   2.063  0.2081  0.2384  0.1413
 8940SOL    HW127719   6.708   0.720   2.105 -0.2096 -0.1492 -0.5018
 8940SOL    HW227720   6.855   0.654   2.133 -0.6884 -0.9221  0.2403
 8941SOL     OW27721   5.871   0.911   4.001  0.3964  0.0863  0.3671
 8941SOL    HW127722   5.881   0.903   3.902 -1.3958  0.6177  0.0952
 8941SOL    HW227723   5.961   0.909   4.044  1.1470 -1.4836 -1.1393
 8942SOL     OW27724   5.600   6.342   5.952 -0.5218 -0.6333  0.0478
 8942SOL    HW127725   5.608   6.409   6.026 -1.4430  0.0739 -0.4790
 8942SOL    HW227726   5.531   6.373   5.886  3.0146  0.8586 -3.3189
 8943SOL     OW27727   3.480   4.273   5.385 -0.1021  0.6659  0.1164
 8943SOL    HW127728   3.477   4.184   5.432  0.1015  1.3264  1.4378
 8943SOL    HW227729   3.387   4.305   5.370 -0.2185  1.5515  2.3315
 8944SOL     OW27730   4.048   6.138   5.015 -0.1148 -0.6416 -0.2647
 8944SOL    HW127731   4.053   6.127   5.114  2.7129  0.9848 -0.0970
 8944SOL    HW227732   4.118   6.081   4.971 -0.2588 -0.1628 -1.1604
 8945SOL     OW27733   1.080   0.743   3.272  0.1443  0.0403 -0.0514
 8945SOL    HW127734   1.034   0.722   3.358  0.7774  2.7331  1.0323
 8945SOL    HW227735   1.013   0.778   3.206 -0.3040 -1.8305 -0.6541
 8946SOL     OW27736   3.495   0.504   4.187 -0.6159 -0.1418 -0.3559
 8946SOL    HW127737   3.404   0.462   4.196  0.2049 -1.6303  1.7263
 8946SOL    HW227738   3.565   0.437   4.209  1.0244  1.0462 -1.7270
 8947SOL     OW27739   0.238   4.137   4.118  0.5806 -0.1950  0.4215
 8947SOL    HW127740   0.152   4.112   4.163  1.2884 -3.0239  0.3772
 8947SOL    HW227741   0.220   4.211   4.052 -1.9712 -1.2069 -0.1467
 8948SOL     OW27742   0.220   0.570   2.865  0.8050  0.3459  0.3009
 8948SOL    HW127743   0.209   0.572   2.964  0.9436  0.1010  0.3225
 8948SOL    HW227744   0.296   0.509   2.841  1.4014  1.1629  0.0921
 8949SOL     OW27745   2.519   6.658   3.366 -0.1198  0.1778  0.1880
 8949SOL    HW127746   2.602   6.683   3.414  0.3045 -1.0093  0.0892
 8949SOL    HW227747   2.439   6.694   3.415  0.2950 -0.9880  1.7803
 8950SOL     OW27748   5.218   2.846   6.364 -0.1574  0.1947  0.3575
 8950SOL    HW127749   5.242   2.749   6.374  1.4416  0.6345  1.2389
 8950SOL    HW227750   5.202   2.885   6.454 -0.8332  0.7463  0.0008
 8951SOL     OW27751   2.291   1.633   4.473  0.1724  0.3673  0.1642
 8951SOL    HW127752   2.222   1.561   4.464  1.2351 -0.5786 -0.8028
 8951SOL    HW227753   2.326   1.657   4.382 -0.0766  2.0572  0.4742
 8952SOL     OW27754   1.808   6.949   2.960  0.0733 -0.6590  0.5346
 8952SOL    HW127755   1.850   6.859   2.950  1.5666  0.0743 -0.2076
 8952SOL    HW227756   1.824   7.003   2.876  0.4174  0.7514  1.4609
 8953SOL     OW27757   3.388   4.014   6.926 -0.3103  0.0893 -0.0881
 8953SOL    HW127758   3.419   4.090   6.869  3.5365 -1.3766 -0.2372
 8953SOL    HW227759   3.395   4.041   7.023  0.6106  0.0968 -0.1487
 8954SOL     OW27760   0.594   0.651   6.730 -0.0513 -0.1073 -0.3615
 8954SOL    HW127761   0.570   0.638   6.826 -0.0137 -0.5701 -0.4105
 8954SOL    HW227762   0.655   0.730   6.721 -0.7763  0.4810 -0.1232
 8955SOL     OW27763   6.775   4.495   0.310 -0.5304  0.2755 -0.1851
 8955SOL    HW127764   6.726   4.418   0.270  3.2525 -1.0669 -2.9080
 8955SOL    HW227765   6.787   4.566   0.241  1.0832  0.6024  0.3834
 8956SOL     OW27766   6.884   1.114   5.369  0.0093 -0.1534 -0.2033
 8956SOL    HW127767   6.836   1.124   5.456  0.3087 -0.4761 -0.0009
 8956SOL    HW227768   6.892   1.018   5.345 -1.7819 -0.0029 -1.5545
 8957SOL     OW27769   3.023   3.210   0.686 -0.5699 -0.5098 -0.6616
 8957SOL    HW127770   3.019   3.180   0.782 -3.1210 -1.3493 -0.9596
 8957SOL    HW227771   3.091   3.283   0.677  1.1776 -1.7542  1.3667
 8958SOL     OW27772   0.295   0.288   5.589 -0.4385  0.0328  0.2765
 8958SOL    HW127773   0.267   0.224   5.661 -0.5963  0.2190  0.3789
 8958SOL    HW227774   0.215   0.317   5.536 -0.4367  0.5386  0.5487
 8959SOL     OW27775   0.568   6.244   2.690  0.0891  0.1705 -0.4804
 8959SOL    HW127776   0.520   6.162   2.659 -1.4402  2.0018 -3.3697
 8959SOL    HW227777   0.667   6.229   2.682 -0.1288 -1.5095 -0.5131
 8960SOL     OW27778   3.865   5.911   2.196  0.5268 -0.0400 -0.2552
 8960SOL    HW127779   3.947   5.864   2.228  1.2554  1.4314  0.1170
 8960SOL    HW227780   3.801   5.922   2.272  1.0947  1.0596  0.0794
 8961SOL     OW27781   4.427   1.666   6.075 -0.0893 -0.0304 -0.0120
 8961SOL    HW127782   4.484   1.584   6.073 -0.9347 -0.7592  2.4383
 8961SOL    HW227783   4.346   1.652   6.018  1.5627  0.6357 -2.7015
 8962SOL     OW27784   0.087   6.938   2.955  0.0925 -0.5003 -0.3133
 8962SOL    HW127785   0.179   6.911   2.928  0.9397  2.0434 -0.1931
 8962SOL    HW227786   0.060   7.019   2.904 -0.6019  0.9687  2.2459
 8963SOL     OW27787   3.195   6.721   1.657  0.5439 -0.0080 -0.0310
 8963SOL    HW127788   3.232   6.634   1.625  0.1472 -0.6536  1.2006
 8963SOL    HW227789   3.256   6.759   1.727  2.3411  2.2513 -2.6129
 8964SOL     OW27790   4.787   2.978   2.924  0.0742 -0.0242 -0.5312
 8964SOL    HW127791   4.695   2.940   2.934  0.1823  0.0981  1.4433
 8964SOL    HW227792   4.840   2.921   2.861 -0.6942 -1.4071  0.0186
 8965SOL     OW27793   3.193   3.976   1.176 -0.1788 -0.6934  0.0418
 8965SOL    HW127794   3.193   3.882   1.212 -0.0273 -0.4416  0.7119
 8965SOL    HW227795   3.288   4.006   1.164 -0.2283 -0.6291 -0.1892
 8966SOL     OW27796   5.210   4.519   6.459 -0.0273 -0.1862  0.1010
 8966SOL    HW127797   5.205   4.540   6.557 -0.7348 -1.0049  0.2601
 8966SOL    HW227798   5.126   4.472   6.431  0.7487 -1.2173 -0.5914
 8967SOL     OW27799   3.289   6.493   1.569 -0.2612 -0.0703  0.3815
 8967SOL    HW127800   3.271   6.404   1.610 -2.2770 -0.1058 -0.4778
 8967SOL    HW227801   3.264   6.491   1.472  0.8812  1.0755  0.0310
 8968SOL     OW27802   5.969   6.618   2.286 -0.1670 -0.0536  0.3174
 8968SOL    HW127803   5.957   6.702   2.338 -0.5447  0.7295 -0.9965
 8968SOL    HW227804   6.050   6.626   2.228 -1.2268  0.1760 -1.1983
 8969SOL     OW27805   0.264   6.814   5.515  0.1308  0.2587  0.5105
 8969SOL    HW127806   0.330   6.889   5.519 -1.1813  1.4069  1.2980
 8969SOL    HW227807   0.229   6.795   5.607  1.2797 -2.1404  0.5437
 8970SOL     OW27808   3.228   3.682   1.487  0.2812  0.2150 -0.1321
 8970SOL    HW127809   3.298   3.627   1.532 -1.2596 -0.8480  1.0409
 8970SOL    HW227810   3.234   3.776   1.519  0.4514 -0.1085  0.8144
 8971SOL     OW27811   3.553   6.659   1.115  0.4543 -0.5115  0.2098
 8971SOL    HW127812   3.652   6.666   1.132  0.6536 -1.5900 -0.4079
 8971SOL    HW227813   3.521   6.745   1.074  1.5696 -0.8496 -1.5322
 8972SOL     OW27814   5.452   5.079   6.845  0.3779 -0.1824  0.5231
 8972SOL    HW127815   5.455   5.134   6.929 -0.4744  1.7105 -0.6172
 8972SOL    HW227816   5.383   5.007   6.854  1.8802 -1.4896  2.2456
 8973SOL     OW27817   1.876   4.719   3.075  0.3684  0.5244  0.3222
 8973SOL    HW127818   1.833   4.692   3.161 -0.0488  0.3774  0.0663
 8973SOL    HW227819   1.806   4.750   3.011  0.5835 -0.2237 -0.2819
 8974SOL     OW27820   2.256   3.784   5.253 -0.5833 -0.5207  0.1614
 8974SOL    HW127821   2.228   3.723   5.179 -0.9194 -0.0369 -0.1133
 8974SOL    HW227822   2.337   3.836   5.224 -1.0720  0.1109 -0.1106
 8975SOL     OW27823   1.608   6.292   4.915 -0.2096 -0.1035 -0.0533
 8975SOL    HW127824   1.664   6.230   4.971 -0.5020 -1.3359 -1.0634
 8975SOL    HW227825   1.528   6.242   4.881 -1.8803  1.5799  1.2392
 8976SOL     OW27826   4.007   6.041   5.641 -0.1967  0.3805  0.3207
 8976SOL    HW127827   3.989   6.015   5.546  2.7900  0.2302 -0.3190
 8976SOL    HW227828   3.969   5.973   5.702  1.6557 -2.0364 -1.0337
 8977SOL     OW27829   5.825   3.164   6.150  0.2112 -0.5999 -0.2174
 8977SOL    HW127830   5.844   3.137   6.244 -0.3295 -0.3915 -0.0458
 8977SOL    HW227831   5.832   3.264   6.142  0.3210 -0.6220 -0.4139
 8978SOL     OW27832   6.481   6.859   4.602 -0.0136  0.6250 -0.2538
 8978SOL    HW127833   6.474   6.794   4.678 -2.5620  2.2182  1.0027
 8978SOL    HW227834   6.519   6.812   4.522  1.0387 -1.5947  1.4061
 8979SOL     OW27835   0.772   4.295   6.969 -0.2532  0.3027  0.4507
 8979SOL    HW127836   0.728   4.342   6.892 -0.2032 -0.5667 -0.1225
 8979SOL    HW227837   0.824   4.361   7.023  2.8724  0.5023 -2.4044
 8980SOL     OW27838   3.490   2.519   7.022  0.3634 -0.1343 -0.2104
 8980SOL    HW127839   3.516   2.614   7.005  0.8853 -0.2061  0.1409
 8980SOL    HW227840   3.392   2.507   7.005  0.3783  0.3639 -0.6668
 8981SOL     OW27841   2.849   1.923   5.296  0.6233  0.2892 -0.1333
 8981SOL    HW127842   2.815   2.002   5.245 -0.2724  0.7838  1.1887
 8981SOL    HW227843   2.787   1.846   5.285  0.6861  0.2468 -0.1891
 8982SOL     OW27844   0.967   0.606   6.856 -0.1111 -0.0302  0.2301
 8982SOL    HW127845   1.035   0.548   6.901 -1.3761 -0.7016  1.3292
 8982SOL    HW227846   0.913   0.551   6.793  0.2146  0.4672 -0.5007
 8983SOL     OW27847   2.128   4.772   6.034  0.1208  0.5450 -0.1704
 8983SOL    HW127848   2.151   4.805   5.943 -0.1550 -0.1604 -0.5075
 8983SOL    HW227849   2.201   4.713   6.068 -1.0137 -1.5744 -1.1789
 8984SOL     OW27850   0.459   0.511   4.244 -0.2988 -0.4810  0.6982
 8984SOL    HW127851   0.372   0.535   4.287 -0.9413  1.9171 -1.6520
 8984SOL    HW227852   0.481   0.416   4.263 -4.0986 -1.5918  0.3384
 8985SOL     OW27853   4.284   2.629   0.808 -0.3658  0.0244 -0.2572
 8985SOL    HW127854   4.213   2.597   0.747 -0.8664 -1.0355  0.8342
 8985SOL    HW227855   4.283   2.729   0.811 -0.9452  0.0580 -1.2326
 8986SOL     OW27856   6.233   5.421   3.707  0.0151  0.4071  0.5629
 8986SOL    HW127857   6.237   5.450   3.802 -0.5422 -0.4246  0.8461
 8986SOL    HW227858   6.307   5.357   3.688 -0.7796 -0.6106  0.8522
 8987SOL     OW27859   4.969   0.604   0.823 -0.6583 -0.1061 -0.7152
 8987SOL    HW127860   4.984   0.541   0.899 -0.3445  1.8703  0.9539
 8987SOL    HW227861   4.875   0.638   0.826 -0.3682  0.6964 -0.6439
 8988SOL     OW27862   1.030   3.460   6.203 -0.1762 -0.2673 -0.5148
 8988SOL    HW127863   1.067   3.464   6.111  0.0870  0.9722 -0.3651
 8988SOL    HW227864   0.968   3.537   6.218 -2.2895 -1.8582 -0.5140
 8989SOL     OW27865   5.795   3.387   1.020 -0.5598  0.1523 -0.4074
 8989SOL    HW127866   5.707   3.342   1.035 -0.3399  0.2507  1.3151
 8989SOL    HW227867   5.849   3.385   1.104  0.3648  1.6595 -0.9222
 8990SOL     OW27868   1.163   6.529   2.175 -0.1652  0.3417 -0.0378
 8990SOL    HW127869   1.237   6.539   2.242 -1.0950  1.9692  0.7955
 8990SOL    HW227870   1.195   6.471   2.099  1.4041 -0.3174  1.0638
 8991SOL     OW27871   2.520   2.016   6.185  0.3211  0.4409 -0.0296
 8991SOL    HW127872   2.557   1.947   6.123  0.0065 -0.1574  0.4416
 8991SOL    HW227873   2.444   2.064   6.141 -0.2782 -0.3787  0.1019
 8992SOL     OW27874   3.843   0.383   1.403 -0.0113  0.2236 -0.3164
 8992SOL    HW127875   3.864   0.293   1.364  1.1726  1.1532 -1.9546
 8992SOL    HW227876   3.791   0.371   1.488 -0.4288 -1.9725 -0.8060
 8993SOL     OW27877   5.066   2.959   1.390  0.3343 -0.5424  0.1282
 8993SOL    HW127878   5.040   3.056   1.386 -0.2549 -0.7014  0.0216
 8993SOL    HW227879   5.153   2.950   1.440  0.5116  0.0601 -0.0614
 8994SOL     OW27880   1.802   3.467   3.700 -0.1154  0.3060  0.4623
 8994SOL    HW127881   1.888   3.517   3.714  1.7064 -2.5387  0.3355
 8994SOL    HW227882   1.806   3.380   3.750 -1.6421 -1.2641 -1.9433
 8995SOL     OW27883   1.423   4.105   6.830 -0.0469 -0.0795  0.2162
 8995SOL    HW127884   1.369   4.029   6.795 -2.0151  0.4521  1.9122
 8995SOL    HW227885   1.416   4.183   6.767 -1.0445 -0.1144  0.2685
 8996SOL     OW27886   6.703   5.886   0.686 -0.3251 -0.9013 -0.6857
 8996SOL    HW127887   6.629   5.821   0.699 -2.6764  1.6131 -0.7084
 8996SOL    HW227888   6.679   5.950   0.613  1.9697 -0.0945 -0.8163
 8997SOL     OW27889   4.278   1.139   0.423  0.8560  0.8887 -0.1894
 8997SOL    HW127890   4.191   1.182   0.447  0.9339  0.0957  1.6397
 8997SOL    HW227891   4.260   1.051   0.379  0.6728 -0.2495  2.0361
 8998SOL     OW27892   6.463   4.507   2.726  0.7495 -0.0726  0.1158
 8998SOL    HW127893   6.472   4.504   2.825 -1.0228 -0.4479  0.2888
 8998SOL    HW227894   6.516   4.433   2.685  0.3007 -0.8183  0.8821
 8999SOL     OW27895   3.529   0.950   0.218 -0.1704  0.4143 -0.1424
 8999SOL    HW127896   3.606   0.888   0.201 -0.0873  1.0437 -2.4229
 8999SOL    HW227897   3.564   1.043   0.233 -0.4198  1.0901 -3.0670
 9000SOL     OW27898   2.235   0.845   0.572 -0.7603 -0.4773  0.2841
 9000SOL    HW127899   2.270   0.762   0.613  0.1191  0.3454  1.2543
 9000SOL    HW227900   2.195   0.904   0.643 -2.6540 -0.6473 -0.5615
 9001SOL     OW27901   2.261   4.737   2.526  0.8154 -0.0710  0.5293
 9001SOL    HW127902   2.306   4.759   2.440 -1.6134 -0.4502 -0.9505
 9001SOL    HW227903   2.320   4.678   2.581  2.5356  0.4143 -0.7247
 9002SOL     OW27904   6.926   3.967   3.606 -0.1448 -0.2287  0.3347
 9002SOL    HW127905   6.829   3.972   3.582 -0.4333  1.0000  1.5973
 9002SOL    HW227906   6.973   3.907   3.542 -1.3317  0.8383 -1.6381
 9003SOL     OW27907   1.327   3.862   2.837 -0.5607  1.0260  0.3435
 9003SOL    HW127908   1.305   3.776   2.883  2.0090 -0.2084 -0.5292
 9003SOL    HW227909   1.296   3.857   2.742 -0.4135  1.0707  0.2934
 9004SOL     OW27910   3.563   5.813   0.638 -0.1003 -0.1275  0.2721
 9004SOL    HW127911   3.630   5.887   0.630 -1.0420  0.6589 -0.6856
 9004SOL    HW227912   3.608   5.725   0.621  1.0644  0.1954  1.5486
 9005SOL     OW27913   5.721   2.681   5.693 -0.2756 -0.0925 -0.0033
 9005SOL    HW127914   5.727   2.780   5.700 -0.9824 -0.0719  0.4660
 9005SOL    HW227915   5.812   2.641   5.697 -0.0342  0.4954  0.4725
 9006SOL     OW27916   2.172   5.312   2.411  0.0304  0.8051  1.1310
 9006SOL    HW127917   2.231   5.248   2.460 -0.7193 -0.4527  0.4342
 9006SOL    HW227918   2.226   5.365   2.346  0.2413 -1.1851 -0.3819
 9007SOL     OW27919   1.761   0.947   4.168  0.4201  0.4854  0.0956
 9007SOL    HW127920   1.800   0.896   4.091  1.6639  1.5718 -0.0288
 9007SOL    HW227921   1.824   1.019   4.196  0.1625 -0.1020  2.3967
 9008SOL     OW27922   3.101   6.025   3.671 -0.1014  0.9397  0.3025
 9008SOL    HW127923   3.007   6.033   3.705 -0.0857 -0.7370  0.7962
 9008SOL    HW227924   3.165   6.034   3.748 -0.0138 -1.3862  0.5655
 9009SOL     OW27925   2.532   2.390   0.400 -0.6629  1.0817  0.1369
 9009SOL    HW127926   2.471   2.356   0.328  0.6761 -1.7928  0.2321
 9009SOL    HW227927   2.596   2.318   0.427  0.0697  2.6293  2.9833
 9010SOL     OW27928   1.176   0.066   3.839 -0.0102 -0.1718 -1.0766
 9010SOL    HW127929   1.093   0.026   3.801 -0.1405  1.0778 -2.1737
 9010SOL    HW227930   1.153   0.149   3.889  0.5741  0.1829 -1.3880
 9011SOL     OW27931   6.857   1.148   2.348  0.4745  0.3134 -0.5446
 9011SOL    HW127932   6.823   1.240   2.329  2.8419  1.7537  1.6492
 9011SOL    HW227933   6.854   1.130   2.446  2.0163 -1.1166 -0.6989
 9012SOL     OW27934   3.158   4.012   1.993  0.1874 -0.5336  0.0664
 9012SOL    HW127935   3.091   4.044   1.926  1.4232 -0.1726 -1.0417
 9012SOL    HW227936   3.250   4.015   1.953  1.3518  2.1300  2.5343
 9013SOL     OW27937   1.663   5.971   4.198 -0.1012  0.0512 -0.2826
 9013SOL    HW127938   1.611   6.047   4.159 -1.4630 -0.2806  0.7865
 9013SOL    HW227939   1.604   5.891   4.206  0.2962 -0.1018  1.7469
 9014SOL     OW27940   0.077   2.541   1.086  0.1326 -0.1959 -0.1174
 9014SOL    HW127941   0.137   2.588   1.151  0.3027 -1.0260  0.3412
 9014SOL    HW227942  -0.010   2.589   1.081 -0.9428 -1.5892  2.8391
 9015SOL     OW27943   4.358   2.095   1.055  0.3831  0.1815  0.3858
 9015SOL    HW127944   4.364   2.151   0.973 -2.2654 -0.5423 -0.4132
 9015SOL    HW227945   4.371   2.152   1.136  1.7719  1.1404 -0.4660
 9016SOL     OW27946   1.305   0.261   6.876 -0.8643 -0.2617 -0.4283
 9016SOL    HW127947   1.301   0.162   6.861 -1.0279  0.0333 -2.6305
 9016SOL    HW227948   1.253   0.308   6.805 -0.3483  1.4465  0.2640
 9017SOL     OW27949   4.334   2.340   3.471 -0.1445 -0.5762 -0.4836
 9017SOL    HW127950   4.341   2.399   3.552 -0.4516  1.4028 -1.8399
 9017SOL    HW227951   4.401   2.266   3.479 -0.1150 -0.4058  1.5367
 9018SOL     OW27952   4.279   3.365   0.065  0.2916  0.4097  0.0976
 9018SOL    HW127953   4.286   3.416  -0.021  0.8693  0.2254  0.0288
 9018SOL    HW227954   4.351   3.395   0.127 -1.6464  2.3811  1.5238
 9019SOL     OW27955   1.445   5.016   6.663  0.1685 -0.0937 -0.2240
 9019SOL    HW127956   1.461   5.109   6.695 -0.0282 -0.4044  0.7922
 9019SOL    HW227957   1.356   5.011   6.618  0.1042  0.1662 -0.1263
 9020SOL     OW27958   0.612   4.383   0.552  0.1871 -0.4048  0.6392
 9020SOL    HW127959   0.603   4.366   0.650  2.0126 -0.4554  0.8264
 9020SOL    HW227960   0.708   4.375   0.525 -0.4648 -2.3118 -1.5076
 9021SOL     OW27961   1.510   0.021   2.978 -0.3767 -0.2830  0.3612
 9021SOL    HW127962   1.511   0.110   3.023  2.2910  0.7081 -1.3817
 9021SOL    HW227963   1.588  -0.033   3.010 -1.8246 -1.9837  1.2186
 9022SOL     OW27964   6.117   3.565   0.662  0.4222 -0.3134 -0.2235
 9022SOL    HW127965   6.124   3.664   0.659 -1.5791 -0.1510 -1.0343
 9022SOL    HW227966   6.118   3.528   0.569  1.4090 -1.0907  0.0792
 9023SOL     OW27967   4.386   3.197   1.740 -0.5048 -0.2019 -0.0191
 9023SOL    HW127968   4.331   3.230   1.818 -1.3662 -1.3534 -0.1163
 9023SOL    HW227969   4.348   3.111   1.707  1.6967 -1.3113  0.2232
 9024SOL     OW27970   0.744   6.286   5.468 -0.3468 -0.5143  0.4444
 9024SOL    HW127971   0.749   6.340   5.384  0.3107 -0.4399  0.5243
 9024SOL    HW227972   0.722   6.191   5.446  1.8840 -0.9936 -0.0464
 9025SOL     OW27973   0.370   5.683   0.627  0.2752  0.0008 -0.1272
 9025SOL    HW127974   0.330   5.680   0.536 -1.0437 -1.5157  0.4570
 9025SOL    HW227975   0.301   5.714   0.693  0.8783  0.0053  0.5167
 9026SOL     OW27976   5.086   2.423   6.369  0.2604  0.5379 -0.4725
 9026SOL    HW127977   5.009   2.485   6.386 -1.5577 -1.1233 -2.1826
 9026SOL    HW227978   5.052   2.329   6.361  2.3899 -0.1699 -2.0234
 9027SOL     OW27979   2.081   3.211   2.761 -0.4472 -0.2289 -0.6897
 9027SOL    HW127980   2.095   3.225   2.663 -0.9379  0.1658 -0.7053
 9027SOL    HW227981   2.125   3.285   2.811  1.0965 -1.2140 -0.5234
 9028SOL     OW27982   2.343   3.349   6.277 -0.6801  0.0507  0.0605
 9028SOL    HW127983   2.428   3.397   6.298 -1.8153  1.7373  0.9703
 9028SOL    HW227984   2.304   3.312   6.361 -0.9565 -0.5339 -0.3204
 9029SOL     OW27985   3.291   5.639   5.748  0.4725 -0.3724 -0.3359
 9029SOL    HW127986   3.340   5.724   5.730 -0.0770 -0.2153 -1.1476
 9029SOL    HW227987   3.257   5.639   5.842  0.4462  0.3162 -0.3409
 9030SOL     OW27988   2.709   2.428   4.505  0.4454  0.0641 -0.1702
 9030SOL    HW127989   2.773   2.364   4.546  2.6127  0.9067 -2.0716
 9030SOL    HW227990   2.732   2.443   4.409 -2.3685  0.7672 -0.8316
 9031SOL     OW27991   4.984   5.999   5.093  0.4740 -0.3533 -0.3009
 9031SOL    HW127992   4.907   5.936   5.084 -2.5309  2.8839  0.1343
 9031SOL    HW227993   5.008   6.008   5.190 -0.9004  0.9914 -0.0501
 9032SOL     OW27994   4.330   3.648   5.820 -0.1936 -0.3241 -0.1593
 9032SOL    HW127995   4.312   3.591   5.740 -0.7049  1.8029 -1.6436
 9032SOL    HW227996   4.245   3.666   5.868  0.2226 -2.3372  1.4916
 9033SOL     OW27997   6.873   2.812   2.736 -0.3784 -0.1831 -0.7152
 9033SOL    HW127998   6.873   2.713   2.719 -0.5830 -0.1432 -0.9449
 9033SOL    HW227999   6.781   2.848   2.728 -0.2501  0.0878 -0.9905
 9034SOL     OW28000   3.292   0.504   4.505  0.6554 -0.6415 -0.4185
 9034SOL    HW128001   3.234   0.585   4.498 -0.3832 -1.4299 -1.4507
 9034SOL    HW228002   3.383   0.530   4.537 -0.0940  0.7069  0.7178
 9035SOL     OW28003   1.953   5.810   6.240 -0.0258 -0.5678 -0.3518
 9035SOL    HW128004   1.958   5.889   6.301  0.5883 -1.2411  0.4949
 9035SOL    HW228005   1.953   5.841   6.145  0.0008  0.4541 -0.0310
 9036SOL     OW28006   1.653   1.404   5.807 -0.1330  0.3025 -0.3306
 9036SOL    HW128007   1.628   1.458   5.887  1.7438  1.9529 -0.7651
 9036SOL    HW228008   1.637   1.307   5.825 -4.1504  0.9068  0.2905
 9037SOL     OW28009   0.191   4.555   5.355  0.0522  0.2822 -0.6476
 9037SOL    HW128010   0.248   4.473   5.360 -0.1691  0.0964 -1.1123
 9037SOL    HW228011   0.170   4.575   5.259  0.8101  1.3723 -0.6025
 9038SOL     OW28012   3.902   6.524   4.779 -0.4297 -0.0438  0.3980
 9038SOL    HW128013   3.850   6.442   4.806 -1.3701  0.8048  1.2542
 9038SOL    HW228014   3.984   6.496   4.729 -1.2495 -1.4668 -0.2209
 9039SOL     OW28015   0.846   4.230   3.756 -0.5890 -0.1148 -0.4068
 9039SOL    HW128016   0.900   4.306   3.721  0.2030 -1.4276 -2.2141
 9039SOL    HW228017   0.902   4.174   3.817 -0.4139 -0.5236 -0.9302
 9040SOL     OW28018   4.621   1.415   3.396 -0.2582  0.2467 -0.7743
 9040SOL    HW128019   4.647   1.508   3.424 -1.4997  0.7000 -1.0522
 9040SOL    HW228020   4.620   1.356   3.477  1.5034  0.2036 -0.7366
 9041SOL     OW28021   1.203   2.785   6.268  0.6082  0.1237  0.5054
 9041SOL    HW128022   1.299   2.771   6.294  0.2559 -1.9134  0.8934
 9041SOL    HW228023   1.198   2.805   6.170  1.4854  1.4872  0.7031
 9042SOL     OW28024   1.658   5.685   4.625  0.2028  0.0628  0.5975
 9042SOL    HW128025   1.676   5.783   4.629  0.9490 -0.0632  0.5636
 9042SOL    HW228026   1.738   5.635   4.660 -0.1431 -0.5321  0.5526
 9043SOL     OW28027   2.968   6.417   5.903 -0.7695  0.2384  0.2839
 9043SOL    HW128028   2.964   6.498   5.844 -0.1035 -0.1491 -0.3123
 9043SOL    HW228029   2.954   6.445   5.998 -0.5934  1.0510  0.0849
 9044SOL     OW28030   0.368   1.114   1.498 -0.1429  0.5225  0.1077
 9044SOL    HW128031   0.302   1.051   1.540  0.5300 -1.1184 -1.1559
 9044SOL    HW228032   0.320   1.196   1.467 -1.0788  0.6003  1.6593
 9045SOL     OW28033   4.161   1.990   2.935  0.0810  0.6106  0.3430
 9045SOL    HW128034   4.138   1.944   3.021  0.6610 -0.9755 -0.3072
 9045SOL    HW228035   4.189   1.921   2.867 -0.1479  1.8450 -1.0474
 9046SOL     OW28036   2.900   3.307   2.740 -0.7219  0.1363 -0.5075
 9046SOL    HW128037   2.834   3.248   2.693 -0.5602 -0.4330 -0.0159
 9046SOL    HW228038   2.913   3.391   2.687 -1.7088  0.1746 -0.7061
 9047SOL     OW28039   1.741   4.292   5.752  0.1671 -0.8140  0.0687
 9047SOL    HW128040   1.773   4.326   5.664 -1.4729  1.2100  0.1786
 9047SOL    HW228041   1.713   4.196   5.743 -0.7259 -0.4235 -1.8423
 9048SOL     OW28042   5.566   2.620   6.312 -0.4129  0.5503  0.3275
 9048SOL    HW128043   5.662   2.601   6.331 -0.6188  0.6152  1.5045
 9048SOL    HW228044   5.529   2.548   6.253 -0.1187 -0.4875  1.3781
 9049SOL     OW28045   4.087   0.533   5.961 -0.2831  0.5110 -0.1189
 9049SOL    HW128046   4.097   0.631   5.942 -0.1367  0.3001 -1.2331
 9049SOL    HW228047   4.127   0.512   6.050 -0.5522  1.5040  0.2513
 9050SOL     OW28048   1.347   2.046   1.769 -0.3015 -0.0668 -0.7568
 9050SOL    HW128049   1.367   2.133   1.814  0.5556 -0.1553 -0.9433
 9050SOL    HW228050   1.430   2.012   1.724  0.0426 -2.0715  1.1770
 9051SOL     OW28051   3.708   5.604   0.802 -0.1222  0.2499 -0.1169
 9051SOL    HW128052   3.645   5.544   0.752 -1.2523 -0.4322  1.9776
 9051SOL    HW228053   3.674   5.617   0.895  2.3479  0.6787  0.8041
 9052SOL     OW28054   2.542   1.825   3.741  0.0574 -0.1260 -0.5623
 9052SOL    HW128055   2.576   1.916   3.716  0.7036 -0.8286 -2.3251
 9052SOL    HW228056   2.605   1.782   3.805 -0.6889  0.9643  0.9862
 9053SOL     OW28057   3.003   0.619   4.234  0.1001 -0.3753 -0.5879
 9053SOL    HW128058   2.937   0.570   4.177 -0.7869  1.1682 -0.9492
 9053SOL    HW228059   3.084   0.640   4.180  0.1462 -0.7262 -0.6611
 9054SOL     OW28060   2.629   6.746   5.179 -0.6066 -0.1804 -0.2876
 9054SOL    HW128061   2.555   6.756   5.246 -0.3223  1.3990 -0.1700
 9054SOL    HW228062   2.670   6.655   5.188  0.2167  0.3763  2.5256
 9055SOL     OW28063   0.815   4.115   5.615  0.7215 -0.2901 -0.1615
 9055SOL    HW128064   0.718   4.100   5.595  0.5439  2.1607 -1.5951
 9055SOL    HW228065   0.824   4.172   5.697  1.0459 -1.6185  0.7561
 9056SOL     OW28066   6.248   1.302   1.584 -0.2446 -0.5080 -0.1493
 9056SOL    HW128067   6.152   1.289   1.559  0.1173 -0.5605 -1.6321
 9056SOL    HW228068   6.255   1.368   1.659 -1.3825  0.5406 -0.9283
 9057SOL     OW28069   5.651   3.319   0.738 -0.3340 -0.4557 -0.1769
 9057SOL    HW128070   5.554   3.338   0.758 -0.1202 -0.0544  0.5194
 9057SOL    HW228071   5.698   3.294   0.823  0.4448  0.5556 -0.2937
 9058SOL     OW28072   2.086   1.052   5.650  0.0268  0.5999 -0.1758
 9058SOL    HW128073   2.026   1.094   5.581 -3.5063 -2.5594  0.6427
 9058SOL    HW228074   2.097   0.955   5.630  0.3468 -0.0630  2.7361
 9059SOL     OW28075   6.307   1.369   3.482 -0.2796 -0.2860 -0.2237
 9059SOL    HW128076   6.250   1.402   3.558  1.0513 -0.5954  0.9455
 9059SOL    HW228077   6.345   1.280   3.505  1.6778  0.4470 -0.4156
 9060SOL     OW28078   6.571   2.326   3.903  0.1483  0.6417  0.1693
 9060SOL    HW128079   6.508   2.307   3.979  0.6145  0.4763  0.5224
 9060SOL    HW228080   6.590   2.424   3.900 -1.0466  0.8670 -0.6826
 9061SOL     OW28081   1.370   4.233   1.962  0.0082 -0.5262  0.5245
 9061SOL    HW128082   1.274   4.218   1.984 -0.4461  2.7107  1.2471
 9061SOL    HW228083   1.382   4.231   1.863 -1.5887  2.4081  0.1678
 9062SOL     OW28084   1.923   6.872   1.529 -0.2943  0.4000 -0.3751
 9062SOL    HW128085   1.986   6.876   1.452 -0.6943  1.3154 -0.6733
 9062SOL    HW228086   1.947   6.795   1.588  0.9660  0.6003 -0.5941
 9063SOL     OW28087   2.970   0.234   2.332  0.5636  0.0715  0.5492
 9063SOL    HW128088   2.949   0.221   2.429  0.2430 -1.1346  0.3353
 9063SOL    HW228089   2.906   0.181   2.276  0.3852  1.1949 -0.3613
 9064SOL     OW28090   6.377   6.710   5.261  0.9646  0.2946  0.3226
 9064SOL    HW128091   6.425   6.622   5.261  0.3203 -0.1010 -1.3365
 9064SOL    HW228092   6.279   6.694   5.272  0.7882  0.7567 -0.4949
 9065SOL     OW28093   3.842   5.892   4.093  0.3278  0.0464  0.0465
 9065SOL    HW128094   3.777   5.820   4.069 -0.7152  0.9359  0.1757
 9065SOL    HW228095   3.898   5.914   4.013  0.9349 -1.1662  0.1078
 9066SOL     OW28096   5.970   0.057   0.770  0.5941  0.1248  0.0152
 9066SOL    HW128097   5.983   0.121   0.846  1.8365  2.3559 -1.9227
 9066SOL    HW228098   6.057   0.011   0.751  1.2988  2.0617 -2.0020
 9067SOL     OW28099   0.665   3.278   4.414  0.1173 -0.1020 -0.8622
 9067SOL    HW128100   0.577   3.303   4.455 -0.2896  0.8175 -2.2393
 9067SOL    HW228101   0.723   3.360   4.408  2.2621 -1.1365  2.6489
 9068SOL     OW28102   3.167   0.774   4.408 -0.5190  0.0177 -0.1333
 9068SOL    HW128103   3.245   0.800   4.350 -0.9626  1.1236 -0.2515
 9068SOL    HW228104   3.097   0.731   4.352 -0.8630  0.9061 -0.3968
 9069SOL     OW28105   1.369   3.511   0.743  0.3323 -0.2495 -0.0828
 9069SOL    HW128106   1.335   3.433   0.691  0.6143 -0.7656  0.4972
 9069SOL    HW228107   1.440   3.481   0.807  1.4746  0.6941 -0.8395
 9070SOL     OW28108   0.791   2.505   4.509  0.1242 -0.4174  0.0311
 9070SOL    HW128109   0.814   2.574   4.578 -2.8178  1.8981 -1.0598
 9070SOL    HW228110   0.852   2.514   4.431  0.8972 -0.2652  0.6477
 9071SOL     OW28111   5.102   6.884   0.637  0.0569  0.2024  0.1839
 9071SOL    HW128112   5.032   6.950   0.608 -0.4467 -0.1405  0.5884
 9071SOL    HW228113   5.120   6.820   0.562  0.0875  0.4180  0.0071
 9072SOL     OW28114   0.100   3.262   2.375 -0.6069 -0.6599  0.1458
 9072SOL    HW128115   0.054   3.185   2.330 -1.4433 -0.3367  0.4338
 9072SOL    HW228116   0.190   3.232   2.408 -0.2242 -1.0666 -1.1854
 9073SOL     OW28117   1.138   6.946   2.346 -0.1957  0.4886  0.0555
 9073SOL    HW128118   1.104   7.009   2.416  0.9657 -0.0753  1.1688
 9073SOL    HW228119   1.189   6.997   2.277  1.6153  0.7108  1.4893
 9074SOL     OW28120   3.092   2.144   1.869  0.2225  0.2253  0.0236
 9074SOL    HW128121   3.029   2.219   1.886 -0.3501 -0.1282 -0.4830
 9074SOL    HW228122   3.102   2.089   1.951 -2.4341 -1.4249 -0.6306
 9075SOL     OW28123   0.045   1.920   0.760  0.8115 -0.0554  0.3313
 9075SOL    HW128124   0.103   1.856   0.810  0.2421 -0.8384  0.0112
 9075SOL    HW228125  -0.038   1.873   0.730  0.7615  0.6257 -0.6248
 9076SOL     OW28126   5.626   4.190   5.180  0.0979  0.6152  0.0762
 9076SOL    HW128127   5.583   4.277   5.156 -0.4031  0.5208  0.5961
 9076SOL    HW228128   5.725   4.198   5.171 -0.0706  0.4369 -2.4178
 9077SOL     OW28129   4.674   6.893   0.574  0.2781 -0.2321  0.3224
 9077SOL    HW128130   4.676   6.795   0.594  1.2170 -0.1521  0.6944
 9077SOL    HW228131   4.679   6.945   0.659 -0.4116  0.1522  0.1397
 9078SOL     OW28132   6.200   2.546   5.777  0.3795 -0.5643  0.3062
 9078SOL    HW128133   6.179   2.631   5.827  1.3986  1.4518 -2.4093
 9078SOL    HW228134   6.298   2.527   5.785  0.6569  0.0727 -1.1900
 9079SOL     OW28135   2.942   0.193   4.649  0.3637 -0.3300 -0.5304
 9079SOL    HW128136   2.880   0.209   4.572  1.8312 -1.0977 -1.9158
 9079SOL    HW228137   2.891   0.149   4.723 -0.6780 -1.3475 -1.7958
 9080SOL     OW28138   5.585   1.328   1.596  0.1441 -0.1747 -0.0170
 9080SOL    HW128139   5.577   1.229   1.590 -0.3110 -0.2575  1.5096
 9080SOL    HW228140   5.560   1.358   1.688  1.6304  1.2301 -0.0197
 9081SOL     OW28141   3.385   6.003   0.221 -0.2524  0.4389  1.0820
 9081SOL    HW128142   3.303   6.057   0.202 -0.6152 -0.2526  0.6262
 9081SOL    HW228143   3.441   6.050   0.289  0.1535  2.0964 -0.3293
 9082SOL     OW28144   1.052   6.783   5.147 -0.0527  0.4521 -0.3086
 9082SOL    HW128145   0.969   6.806   5.197 -0.2034 -2.3045  0.9046
 9082SOL    HW228146   1.129   6.836   5.182 -0.5708  0.1291  1.4174
 9083SOL     OW28147   2.810   5.410   5.676 -0.2907 -0.6680  0.7272
 9083SOL    HW128148   2.808   5.453   5.766  1.1650 -0.1636  0.5468
 9083SOL    HW228149   2.781   5.314   5.684 -3.2316  0.1485  1.1894
 9084SOL     OW28150   3.681   3.404   3.257  0.1529 -0.0013  0.0439
 9084SOL    HW128151   3.705   3.382   3.162  0.3538  0.4074 -0.0042
 9084SOL    HW228152   3.650   3.322   3.304 -0.5861 -0.0858 -0.5673
 9085SOL     OW28153   2.267   6.128   0.810 -0.3265 -0.5492  0.2755
 9085SOL    HW128154   2.229   6.076   0.886 -1.8098  0.4436  0.2639
 9085SOL    HW228155   2.199   6.194   0.778  1.8570  2.2373  1.0606
 9086SOL     OW28156   0.230   4.220   6.570 -0.2395 -0.4245  0.0898
 9086SOL    HW128157   0.299   4.223   6.642 -0.9379  0.5912  0.7397
 9086SOL    HW228158   0.264   4.267   6.489  0.0546 -0.4469  0.2009
 9087SOL     OW28159   3.489   1.555   1.312 -0.5303 -0.1605 -0.1549
 9087SOL    HW128160   3.564   1.540   1.248 -1.2137 -1.4326 -0.6974
 9087SOL    HW228161   3.477   1.653   1.327 -0.1648  0.1559 -1.7320
 9088SOL     OW28162   0.558   0.241   3.363 -0.4375 -0.2132  0.1535
 9088SOL    HW128163   0.574   0.322   3.420 -0.2686 -1.0116  1.2834
 9088SOL    HW228164   0.596   0.160   3.410  1.2701 -0.6681 -1.8739
 9089SOL     OW28165   4.991   6.275   4.692  0.0838 -0.2375 -0.1692
 9089SOL    HW128166   4.938   6.229   4.763 -1.0286 -1.7085 -1.8761
 9089SOL    HW228167   4.930   6.307   4.619  1.3652 -0.5899 -1.4521
 9090SOL     OW28168   5.989   2.903   0.921  0.5877  0.5991  0.5202
 9090SOL    HW128169   6.069   2.847   0.898 -0.2587 -0.4026 -0.0916
 9090SOL    HW228170   5.924   2.848   0.972  0.2479  1.3855  0.9502
 9091SOL     OW28171   2.444   3.093   0.098  0.4894  0.3362 -0.9647
 9091SOL    HW128172   2.374   3.022   0.097  0.9708 -0.4431  3.4041
 9091SOL    HW228173   2.404   3.179   0.129  1.0277  0.4438 -0.5545
 9092SOL     OW28174   6.644   0.531   6.959 -0.6420 -0.2604 -0.0737
 9092SOL    HW128175   6.628   0.521   7.057 -1.8207 -2.1052 -0.4053
 9092SOL    HW228176   6.607   0.618   6.927  1.1363  1.0825  1.3416
 9093SOL     OW28177   1.118   6.239   4.842  0.2976  0.0464  1.0055
 9093SOL    HW128178   1.127   6.331   4.880  1.3654 -0.3945  1.8635
 9093SOL    HW228179   1.092   6.246   4.745 -0.1620  1.2260  1.1933
 9094SOL     OW28180   6.868   5.811   2.044 -0.1812 -0.5259  0.3269
 9094SOL    HW128181   6.884   5.910   2.041  0.9586 -0.6957  0.0552
 9094SOL    HW228182   6.775   5.793   2.075 -0.4164  0.6312  0.3540
 9095SOL     OW28183   6.206   6.843   5.924  0.1932  0.0813  0.4996
 9095SOL    HW128184   6.239   6.935   5.946 -1.0536  0.7519 -0.3264
 9095SOL    HW228185   6.285   6.782   5.911  1.0404  1.0665  0.8760
 9096SOL     OW28186   6.632   4.724   3.879 -0.0181 -0.1680  0.0989
 9096SOL    HW128187   6.541   4.726   3.922 -0.5129 -0.1151 -0.9195
 9096SOL    HW228188   6.643   4.638   3.830  1.2265 -0.9997  1.7277
 9097SOL     OW28189   1.355   2.115   6.648  0.3763  0.4689  0.6507
 9097SOL    HW128190   1.362   2.194   6.588  0.3131  0.3005  0.4238
 9097SOL    HW228191   1.435   2.113   6.709 -0.3181  1.5253  1.6550
 9098SOL     OW28192   1.534   1.110   4.664 -0.2733  0.8509 -0.5184
 9098SOL    HW128193   1.526   1.109   4.564 -1.0089 -1.7025 -0.5076
 9098SOL    HW228194   1.461   1.166   4.703 -1.9505 -0.6284 -1.3759
 9099SOL     OW28195   3.605   3.151   4.363  0.0937 -0.2719 -0.3060
 9099SOL    HW128196   3.669   3.169   4.288 -1.2553 -1.4296 -1.8113
 9099SOL    HW228197   3.653   3.104   4.437  0.8884 -1.7707 -1.7070
 9100SOL     OW28198   5.476   4.642   3.578 -0.7817 -0.6166 -0.0779
 9100SOL    HW128199   5.475   4.548   3.610 -1.5200 -0.5150  0.2244
 9100SOL    HW228200   5.435   4.647   3.487 -0.6264 -0.6000 -0.1481
 9101SOL     OW28201   2.975   1.750   2.077 -0.1378  0.4331 -0.4767
 9101SOL    HW128202   2.931   1.703   2.154 -1.2990 -0.1704 -1.4899
 9101SOL    HW228203   3.035   1.687   2.029  1.1750  1.0090  0.3413
 9102SOL     OW28204   2.229   0.583   1.469 -0.4846 -0.1689  0.5115
 9102SOL    HW128205   2.147   0.597   1.413 -0.4709 -0.6124  0.3776
 9102SOL    HW228206   2.211   0.615   1.563  0.1088  2.3914 -0.1516
 9103SOL     OW28207   5.326   2.404   6.957  0.2990  0.1767 -0.0684
 9103SOL    HW128208   5.322   2.306   6.977 -0.4945  0.4647  1.3261
 9103SOL    HW228209   5.392   2.421   6.883 -1.6390 -1.6910 -2.3941
 9104SOL     OW28210   1.522   6.012   1.286 -0.0621  0.3881 -0.2108
 9104SOL    HW128211   1.474   6.100   1.292  2.1262  1.8132 -1.9995
 9104SOL    HW228212   1.544   5.992   1.191  0.9948 -1.2746  0.3341
 9105SOL     OW28213   6.441   0.561   5.471 -0.1090  0.3322  0.4459
 9105SOL    HW128214   6.373   0.488   5.476 -0.9100  0.9817 -0.4509
 9105SOL    HW228215   6.443   0.612   5.557 -0.9091  0.4173  0.4245
 9106SOL     OW28216   6.592   3.231   0.773 -0.5629  0.2735 -0.2319
 9106SOL    HW128217   6.633   3.146   0.806  0.4999  1.2636  1.0909
 9106SOL    HW228218   6.663   3.290   0.735 -1.0851  1.1070  0.0613
 9107SOL     OW28219   3.263   5.712   6.304 -0.3437 -0.0394  0.0652
 9107SOL    HW128220   3.277   5.763   6.389  0.8283  0.1473 -0.2219
 9107SOL    HW228221   3.271   5.774   6.226  0.4034 -0.5150 -0.2534
 9108SOL     OW28222   5.501   3.992   6.225 -0.1301 -0.3130 -0.2453
 9108SOL    HW128223   5.525   3.914   6.283  1.3604 -1.0192 -1.7394
 9108SOL    HW228224   5.584   4.038   6.195 -0.9258  3.5714  2.6638
 9109SOL     OW28225   5.216   3.020   2.671  0.1019  0.3585  0.0046
 9109SOL    HW128226   5.162   3.075   2.607 -1.5188 -0.1103  0.8881
 9109SOL    HW228227   5.164   2.938   2.696  1.3493 -0.2334  0.7399
 9110SOL     OW28228   1.673   5.038   3.919  0.2202 -0.2047 -0.1334
 9110SOL    HW128229   1.607   5.080   3.856 -0.3537  1.0671  1.2453
 9110SOL    HW228230   1.745   4.993   3.866 -0.6498  0.1341 -1.6836
 9111SOL     OW28231   4.847   0.699   5.799  0.0560 -0.1933 -0.1045
 9111SOL    HW128232   4.813   0.766   5.734  0.3575 -0.0584 -0.1253
 9111SOL    HW228233   4.805   0.716   5.889  1.4209  1.1212  0.3245
 9112SOL     OW28234   0.277   6.538   1.109  0.5804  0.9098  0.5579
 9112SOL    HW128235   0.184   6.514   1.082  0.4473  0.8768  1.0291
 9112SOL    HW228236   0.277   6.628   1.152  0.5075  0.2841  1.9279
 9113SOL     OW28237   0.161   3.240   1.138  0.0564  0.3698  0.2283
 9113SOL    HW128238   0.118   3.324   1.170 -0.2030  0.2417  0.2169
 9113SOL    HW228239   0.124   3.162   1.189  3.0683  0.5953  3.0817
 9114SOL     OW28240   6.290   0.190   2.603 -0.4344 -0.2921  0.3740
 9114SOL    HW128241   6.290   0.162   2.699  0.7000 -1.8800 -0.0472
 9114SOL    HW228242   6.303   0.110   2.545 -0.4070  0.7322 -1.0912
 9115SOL     OW28243   6.613   5.990   5.889  0.7148  0.2897 -0.7271
 9115SOL    HW128244   6.634   6.045   5.969  2.3801  1.2147 -1.7289
 9115SOL    HW228245   6.619   5.893   5.913  0.5541  0.5425  0.3923
 9116SOL     OW28246   6.866   0.670   3.329  0.2138 -0.9051 -0.1795
 9116SOL    HW128247   6.877   0.769   3.341  2.6576 -1.2870  1.4339
 9116SOL    HW228248   6.821   0.632   3.409 -0.8397 -1.1232 -0.8555
 9117SOL     OW28249   4.118   2.505   5.881  0.9259  0.5306  0.1406
 9117SOL    HW128250   4.170   2.558   5.814  1.2997 -0.0085 -0.0049
 9117SOL    HW228251   4.045   2.561   5.919 -0.1107  0.4968 -1.6605
 9118SOL     OW28252   5.937   3.977   0.337 -0.5864 -0.4784 -0.8769
 9118SOL    HW128253   5.863   3.915   0.363 -1.8049  0.5531 -1.7748
 9118SOL    HW228254   6.025   3.929   0.343 -1.3354 -1.7993 -0.0293
 9119SOL     OW28255   3.838   1.393   2.370 -0.3685  0.6565 -0.1109
 9119SOL    HW128256   3.874   1.352   2.286  2.6177  1.7404  0.4867
 9119SOL    HW228257   3.748   1.355   2.390 -0.1592 -1.3845 -2.4970
 9120SOL     OW28258   5.072   3.850   4.709 -0.3368  0.1221  0.0079
 9120SOL    HW128259   5.017   3.932   4.701 -1.3857 -0.5464  0.2097
 9120SOL    HW228260   5.016   3.775   4.746 -0.1111 -1.3616 -2.4343
 9121SOL     OW28261   4.861   6.754   0.130 -0.0140  0.3035  0.2387
 9121SOL    HW128262   4.872   6.739   0.032 -0.2466 -1.2525  0.4183
 9121SOL    HW228263   4.875   6.850   0.151  2.6813  0.2593 -0.9422
 9122SOL     OW28264   1.416   4.348   0.635 -0.2297  0.4059  0.3552
 9122SOL    HW128265   1.436   4.256   0.669  1.1166  0.9214  1.0075
 9122SOL    HW228266   1.501   4.393   0.607 -1.0552  0.7958 -1.7424
 9123SOL     OW28267   2.775   0.763   4.057 -0.7260  0.5575  0.2220
 9123SOL    HW128268   2.758   0.672   4.095  0.5662  0.3183  0.2602
 9123SOL    HW228269   2.865   0.796   4.086 -0.6454  1.3134 -0.8088
 9124SOL     OW28270   4.969   5.724   2.730 -0.0869 -0.3158  0.3155
 9124SOL    HW128271   4.943   5.653   2.795 -1.0585 -0.4531 -0.2050
 9124SOL    HW228272   4.992   5.682   2.643 -1.4903  0.0281 -0.2541
 9125SOL     OW28273   4.089   6.164   0.958 -0.3257 -0.2397  0.0422
 9125SOL    HW128274   4.074   6.101   0.882 -0.9822  0.7854 -0.7062
 9125SOL    HW228275   4.187   6.177   0.972 -0.1874  0.5689 -1.5020
 9126SOL     OW28276   4.187   3.992   0.936  0.6495 -0.1639 -0.0696
 9126SOL    HW128277   4.116   4.052   0.901  1.2036  0.9090  0.6015
 9126SOL    HW228278   4.257   3.977   0.866 -0.1614 -1.1451 -0.6970
 9127SOL     OW28279   6.548   2.345   5.772 -0.6475 -0.2658  0.7762
 9127SOL    HW128280   6.555   2.314   5.676 -2.3582  2.4266 -0.3230
 9127SOL    HW228281   6.525   2.267   5.830 -1.6880 -1.6332 -1.3396
 9128SOL     OW28282   6.858   2.633   4.323  0.1395 -0.1288 -0.8395
 9128SOL    HW128283   6.847   2.607   4.227 -2.7410 -2.5198 -0.0063
 9128SOL    HW228284   6.935   2.583   4.362  0.3725 -0.3416 -1.5505
 9129SOL     OW28285   6.939   1.021   1.240 -0.0934 -1.3411  0.7609
 9129SOL    HW128286   6.947   1.117   1.268  1.4241 -1.1383 -0.2697
 9129SOL    HW228287   7.016   0.969   1.277 -0.5983 -2.0482  0.8323
 9130SOL     OW28288   6.918   4.643   5.643  0.1356 -0.1018 -0.2734
 9130SOL    HW128289   6.854   4.670   5.571  0.3604 -0.2395 -0.5210
 9130SOL    HW228290   6.907   4.705   5.721 -1.0413 -0.7456  0.1072
 9131SOL     OW28291   5.507   3.831   4.437  0.6373  0.1524 -0.0457
 9131SOL    HW128292   5.561   3.758   4.480  0.5394  0.9572  1.5458
 9131SOL    HW228293   5.428   3.851   4.495  0.2673  1.0144 -0.8442
 9132SOL     OW28294   2.403   4.510   3.939  0.3028 -0.5123 -0.2894
 9132SOL    HW128295   2.353   4.426   3.920  1.5303 -1.4188  0.3713
 9132SOL    HW228296   2.405   4.567   3.857 -0.0241 -1.3973 -0.9270
 9133SOL     OW28297   3.395   6.442   1.923  0.5204  0.4010 -0.1796
 9133SOL    HW128298   3.341   6.429   2.006  0.8761 -0.2428 -0.0454
 9133SOL    HW228299   3.456   6.520   1.935  1.4959 -0.4689  0.6579
 9134SOL     OW28300   3.229   6.560   0.438  0.7998 -0.8210  0.6778
 9134SOL    HW128301   3.235   6.659   0.428 -1.7011 -0.5703  1.0516
 9134SOL    HW228302   3.223   6.536   0.535 -1.7458 -1.0154  0.5363
 9135SOL     OW28303   1.708   6.072   1.939 -0.0165  0.3171 -0.4904
 9135SOL    HW128304   1.671   6.052   1.849  1.3534  2.3924 -1.5760
 9135SOL    HW228305   1.808   6.067   1.936  0.0928  1.3825  0.6466
 9136SOL     OW28306   4.661   4.651   5.538  0.2120  0.6602 -0.0548
 9136SOL    HW128307   4.675   4.571   5.597  2.3745 -0.4032 -1.8571
 9136SOL    HW228308   4.571   4.646   5.496 -1.1290  1.1217  2.5834
 9137SOL     OW28309   5.109   0.590   5.884  0.2766 -0.1368 -0.2001
 9137SOL    HW128310   5.015   0.585   5.851  0.1566 -2.0798  0.3279
 9137SOL    HW228311   5.109   0.624   5.978  0.0511 -0.6436 -0.0152
 9138SOL     OW28312   1.078   1.189   0.608  0.2580 -0.1895 -0.2679
 9138SOL    HW128313   1.095   1.145   0.696  1.3066  0.6209 -0.0356
 9138SOL    HW228314   1.061   1.287   0.622 -0.2728 -0.1847 -0.9102
 9139SOL     OW28315   1.255   1.716   1.422  0.1852 -0.1974  0.6537
 9139SOL    HW128316   1.167   1.669   1.427 -0.0659  0.2297  0.4177
 9139SOL    HW228317   1.329   1.650   1.429 -0.1582 -0.7406 -0.5554
 9140SOL     OW28318   0.837   6.729   1.947  0.2425  0.1084 -0.1310
 9140SOL    HW128319   0.785   6.647   1.924 -0.7837  0.4954  0.7150
 9140SOL    HW228320   0.904   6.708   2.018  0.3682 -0.1256 -0.3210
 9141SOL     OW28321   6.596   6.087   0.516  0.0187 -0.1399  0.0326
 9141SOL    HW128322   6.498   6.073   0.502 -0.2758 -0.0630  1.7524
 9141SOL    HW228323   6.641   6.104   0.428 -1.3545 -1.0692 -0.8754
 9142SOL     OW28324   6.069   2.174   2.877 -0.3364  0.0935  0.7552
 9142SOL    HW128325   5.981   2.127   2.878 -0.2352 -0.1287 -0.2929
 9142SOL    HW228326   6.140   2.112   2.911 -0.7119  0.5874  2.5519
 9143SOL     OW28327   2.365   4.316   2.490 -0.1728 -0.0287  0.0887
 9143SOL    HW128328   2.359   4.337   2.393  3.7426  0.3333 -0.2399
 9143SOL    HW228329   2.347   4.399   2.544 -0.1040  0.3345 -0.4440
 9144SOL     OW28330   2.497   4.372   5.880  0.0308  0.1100  0.0449
 9144SOL    HW128331   2.466   4.291   5.930  0.1540  0.6540  1.0331
 9144SOL    HW228332   2.597   4.374   5.877  0.1027  1.0399  1.4961
 9145SOL     OW28333   1.458   6.296   5.677 -0.0962  0.2922  0.0884
 9145SOL    HW128334   1.415   6.365   5.734  1.4951  0.8991  0.6025
 9145SOL    HW228335   1.415   6.295   5.586 -5.0898 -3.0034  2.0483
 9146SOL     OW28336   4.650   2.242   4.078 -0.2674  0.4962  0.0385
 9146SOL    HW128337   4.572   2.305   4.078 -0.7071 -0.0407 -0.6013
 9146SOL    HW228338   4.711   2.265   4.003 -0.6883 -0.1455 -0.5113
 9147SOL     OW28339   6.106   6.207   7.016 -0.1366 -0.5602  0.2999
 9147SOL    HW128340   6.194   6.230   7.057 -0.1371 -0.4442  0.2346
 9147SOL    HW228341   6.057   6.143   7.076 -0.3490 -0.0085  0.7158
 9148SOL     OW28342   6.519   5.960   1.198 -0.0356 -0.2797 -0.2927
 9148SOL    HW128343   6.614   5.938   1.219 -0.0365  0.6133  0.7437
 9148SOL    HW228344   6.478   6.008   1.276 -1.8183 -2.0700 -0.0271
 9149SOL     OW28345   0.770   2.403   3.146 -1.3511  0.4398 -0.2538
 9149SOL    HW128346   0.818   2.489   3.166 -1.5310  0.4612  0.0965
 9149SOL    HW228347   0.836   2.331   3.127 -1.1954  0.6265 -0.4102
 9150SOL     OW28348   4.026   5.267   7.009  0.2517 -0.0841 -0.3784
 9150SOL    HW128349   4.068   5.212   7.081 -1.2976 -0.5796  0.1914
 9150SOL    HW228350   3.930   5.240   6.998 -0.2404  1.7179 -0.8739
 9151SOL     OW28351   1.429   4.928   3.055 -0.3222 -0.1390  0.1760
 9151SOL    HW128352   1.388   4.931   2.964 -1.1920 -1.4043  0.5032
 9151SOL    HW228353   1.365   4.967   3.121 -1.0873 -2.1728  0.6982
 9152SOL     OW28354   1.186   4.768   3.943 -0.4363 -0.8395  0.0362
 9152SOL    HW128355   1.272   4.734   3.983  0.1704  0.8810  0.2453
 9152SOL    HW228356   1.198   4.862   3.912 -2.7787  0.1334  1.8159
 9153SOL     OW28357   1.941   4.548   6.365  0.3985 -0.4601  0.3249
 9153SOL    HW128358   1.993   4.473   6.325  0.9401 -0.1968  0.5225
 9153SOL    HW228359   2.000   4.628   6.375 -0.4837  0.4069 -1.0318
 9154SOL     OW28360   4.242   5.333   4.784  0.5125 -0.0600  0.9159
 9154SOL    HW128361   4.208   5.239   4.793  0.1818 -0.1996 -1.2254
 9154SOL    HW228362   4.236   5.361   4.689  2.8483  1.3129  1.1145
 9155SOL     OW28363   0.595   4.097   2.605 -0.7914  0.2935  0.0181
 9155SOL    HW128364   0.635   4.021   2.657 -2.5225  0.3951  1.6079
 9155SOL    HW228365   0.649   4.113   2.523 -1.0428 -3.5136 -1.0758
 9156SOL     OW28366   1.084   2.002   1.795 -0.0624 -0.2366  0.1180
 9156SOL    HW128367   1.038   2.085   1.826  0.6681  0.1763  0.1239
 9156SOL    HW228368   1.178   2.024   1.768 -0.7634 -0.4327 -2.8988
 9157SOL     OW28369   1.560   2.970   6.527  0.2899 -0.4639 -0.1545
 9157SOL    HW128370   1.486   3.015   6.577  0.9302 -0.5268  0.8732
 9157SOL    HW228371   1.590   3.028   6.451 -0.5978 -0.3124 -0.4045
 9158SOL     OW28372   6.475   4.009   3.824 -0.5576 -0.0732 -0.4624
 9158SOL    HW128373   6.422   3.925   3.811 -1.9957  0.4021  1.6437
 9158SOL    HW228374   6.519   4.008   3.914  1.4723  0.4082 -1.3918
 9159SOL     OW28375   1.653   0.796   3.479 -0.2825  0.9875  0.0622
 9159SOL    HW128376   1.729   0.861   3.473 -0.2332  0.7771 -2.7650
 9159SOL    HW228377   1.568   0.846   3.492 -0.0258  1.4558 -0.0277
 9160SOL     OW28378   6.718   2.761   6.210 -0.2104 -0.5946  0.0490
 9160SOL    HW128379   6.632   2.713   6.191 -0.3927 -0.0960 -0.4013
 9160SOL    HW228380   6.768   2.712   6.281 -0.7556 -1.0238  0.1452
 9161SOL     OW28381   5.557   5.960   3.082  0.1452 -0.2178 -0.1910
 9161SOL    HW128382   5.604   5.897   3.020 -0.9263 -0.0914 -1.1540
 9161SOL    HW228383   5.574   6.054   3.053 -1.3297 -0.1925 -1.0387
 9162SOL     OW28384   3.681   0.967   2.870 -0.2594 -0.2677  0.2790
 9162SOL    HW128385   3.729   1.050   2.840 -2.8965  1.1143 -0.3895
 9162SOL    HW228386   3.714   0.940   2.960  2.1839  0.1940 -0.4052
 9163SOL     OW28387   6.849   2.533   2.661 -0.4296 -0.5143 -0.2561
 9163SOL    HW128388   6.811   2.449   2.620  0.5679 -1.2380  0.2547
 9163SOL    HW228389   6.882   2.512   2.753 -0.7153  0.6030  0.1108
 9164SOL     OW28390   2.858   0.957   1.271  0.1310  0.7507 -0.4320
 9164SOL    HW128391   2.846   0.986   1.366 -1.0553 -0.4274 -0.1974
 9164SOL    HW228392   2.788   0.890   1.247 -0.8139  2.3940 -2.7326
 9165SOL     OW28393   3.867   1.824   5.394  0.1891  0.1391 -0.6050
 9165SOL    HW128394   3.822   1.911   5.415 -0.3683  0.3011 -2.3147
 9165SOL    HW228395   3.838   1.793   5.303  0.4481 -1.7969 -0.0674
 9166SOL     OW28396   3.400   3.888   0.849 -0.3449  0.1174  0.7500
 9166SOL    HW128397   3.425   3.975   0.806 -0.9195  0.1612  0.4962
 9166SOL    HW228398   3.412   3.894   0.948 -1.3160  0.8025  0.8311
 9167SOL     OW28399   1.125   3.377   4.254 -0.2993 -0.0619  0.4198
 9167SOL    HW128400   1.064   3.298   4.262  0.3881 -0.6705 -0.2835
 9167SOL    HW228401   1.214   3.347   4.221 -0.7610  1.3220 -2.3376
 9168SOL     OW28402   5.870   5.169   6.304 -0.3370  0.2648  0.4796
 9168SOL    HW128403   5.823   5.084   6.281 -1.2630  0.7488  0.5236
 9168SOL    HW228404   5.935   5.191   6.231 -1.1897  0.3036 -0.2879
 9169SOL     OW28405   6.227   0.981   5.593  0.4794 -0.0752  0.4830
 9169SOL    HW128406   6.176   0.951   5.513  2.1091  0.0496 -0.6520
 9169SOL    HW228407   6.179   0.952   5.676 -1.3555 -0.0309 -0.5030
 9170SOL     OW28408   6.889   1.477   1.136  0.3325  1.0868  0.0276
 9170SOL    HW128409   6.839   1.546   1.189 -2.6651 -0.4639 -0.5693
 9170SOL    HW228410   6.945   1.421   1.198 -0.4145  1.4768  1.0757
 9171SOL     OW28411   3.163   6.845   0.172 -0.0342  0.3053  0.1246
 9171SOL    HW128412   3.071   6.829   0.209 -0.3846  0.7527 -0.5421
 9171SOL    HW228413   3.165   6.931   0.122  0.3700 -0.3612 -1.0705
 9172SOL     OW28414   5.115   2.324   4.533  0.7355  0.1383 -0.2427
 9172SOL    HW128415   5.144   2.418   4.514  1.5272 -0.5959 -3.2700
 9172SOL    HW228416   5.025   2.308   4.494  0.7541 -0.4584 -0.0555
 9173SOL     OW28417   6.870   3.502   4.467 -0.8328  0.6006 -1.1127
 9173SOL    HW128418   6.771   3.502   4.476 -0.8556  0.5122 -1.3486
 9173SOL    HW228419   6.909   3.576   4.522 -0.9275 -0.1664  0.0192
 9174SOL     OW28420   6.685   7.013   6.539  0.1739 -0.6331  0.3582
 9174SOL    HW128421   6.691   6.921   6.575 -3.5617  0.0987  3.4737
 9174SOL    HW228422   6.701   7.079   6.613 -2.0585  1.0752 -0.5655
 9175SOL     OW28423   2.694   4.793   0.730  0.4528 -0.0836 -0.2152
 9175SOL    HW128424   2.610   4.839   0.757  1.2979  1.4331 -0.0480
 9175SOL    HW228425   2.688   4.764   0.635 -0.3579 -0.2783 -0.1141
 9176SOL     OW28426   1.164   0.832   2.189  0.1656 -0.1657  0.4133
 9176SOL    HW128427   1.200   0.922   2.215 -1.7486  1.2700 -1.5819
 9176SOL    HW228428   1.157   0.775   2.271  1.6679  1.3736  1.7087
 9177SOL     OW28429   2.146   2.094   3.180 -0.3495 -0.0593 -0.2101
 9177SOL    HW128430   2.188   2.138   3.101 -0.4900  0.8148  0.1988
 9177SOL    HW228431   2.084   2.158   3.225  0.6229 -0.1482  1.3057
 9178SOL     OW28432   3.825   4.607   6.740  0.2138 -0.2018 -0.4540
 9178SOL    HW128433   3.829   4.507   6.736  0.4051 -0.1565 -1.6891
 9178SOL    HW228434   3.918   4.643   6.745  0.2058 -0.0435 -1.4001
 9179SOL     OW28435   3.470   6.668   4.280 -0.0310  0.0776 -0.4362
 9179SOL    HW128436   3.382   6.702   4.246 -0.4267  1.4924  1.7650
 9179SOL    HW228437   3.458   6.635   4.374  1.2052 -2.6078 -1.1384
 9180SOL     OW28438   0.495   1.317   0.578 -0.0096 -0.0397  0.1996
 9180SOL    HW128439   0.434   1.366   0.517 -1.1965 -0.4110  1.0485
 9180SOL    HW228440   0.490   1.219   0.559  1.5466  0.0359 -0.7776
 9181SOL     OW28441   3.335   2.112   2.770  0.2369  0.1120 -0.4588
 9181SOL    HW128442   3.267   2.159   2.713  1.5490  2.1972 -0.4073
 9181SOL    HW228443   3.424   2.115   2.725  1.0521  0.7219  1.0943
 9182SOL     OW28444   3.000   6.656   3.086 -0.0079  0.2036 -1.0376
 9182SOL    HW128445   3.018   6.582   3.151 -0.2817  0.8040 -0.2620
 9182SOL    HW228446   3.087   6.693   3.052  0.1850  0.8789  0.1413
 9183SOL     OW28447   2.145   2.685   6.081 -0.5770  0.4158 -0.2887
 9183SOL    HW128448   2.213   2.660   6.150  0.9073 -1.6542 -2.3428
 9183SOL    HW228449   2.100   2.770   6.108  1.7329  1.0638  1.9221
 9184SOL     OW28450   2.603   1.380   0.760  0.4056 -0.1420  0.3433
 9184SOL    HW128451   2.559   1.292   0.778 -0.1544  0.2082  0.7474
 9184SOL    HW228452   2.627   1.423   0.847  0.6739  0.1046  0.1472
 9185SOL     OW28453   3.245   5.037   5.162  0.8006  0.3637  0.1759
 9185SOL    HW128454   3.340   5.004   5.168  0.7103  0.1853  0.6789
 9185SOL    HW228455   3.233   5.114   5.225  1.0497  1.4706 -1.0947
 9186SOL     OW28456   6.034   1.269   6.553  0.0175  0.0822 -0.3012
 9186SOL    HW128457   6.040   1.331   6.631 -0.2072  0.5352 -0.6363
 9186SOL    HW228458   6.066   1.316   6.471  2.2747 -1.0813 -0.1306
 9187SOL     OW28459   5.217   0.158   6.650 -0.0547 -0.1473 -0.1277
 9187SOL    HW128460   5.162   0.240   6.637 -1.2397 -1.0737 -1.2748
 9187SOL    HW228461   5.177   0.083   6.598  0.6612 -1.6089  1.3318
 9188SOL     OW28462   1.652   0.204   2.035 -0.4890 -0.2132 -0.4167
 9188SOL    HW128463   1.590   0.254   1.974 -0.5004  0.5602  0.2080
 9188SOL    HW228464   1.633   0.229   2.130  1.0793  0.4149 -0.2295
 9189SOL     OW28465   4.028   0.544   3.083  0.2294 -0.3269 -0.7828
 9189SOL    HW128466   4.074   0.632   3.095  0.9262 -0.7050 -0.6699
 9189SOL    HW228467   4.009   0.503   3.172  1.7538 -1.2386 -0.8493
 9190SOL     OW28468   0.460   3.239   3.821  0.7135  0.0950  0.4792
 9190SOL    HW128469   0.362   3.260   3.822  1.0034  1.5616  0.1733
 9190SOL    HW228470   0.478   3.162   3.883 -0.8969 -1.6027 -1.0484
 9191SOL     OW28471   4.839   0.952   0.013  0.0784 -0.0651 -0.0022
 9191SOL    HW128472   4.897   0.987  -0.061 -0.3389  1.3093  0.2827
 9191SOL    HW228473   4.766   1.018   0.032 -1.2242 -1.4635  0.0749
 9192SOL     OW28474   4.557   3.865   5.788 -0.5052 -0.2843 -0.5876
 9192SOL    HW128475   4.571   3.830   5.695 -2.6537  0.8579 -1.4308
 9192SOL    HW228476   4.476   3.823   5.828  0.4963 -0.8905  0.8857
 9193SOL     OW28477   3.265   4.147   3.582  0.0041  0.3661 -0.4673
 9193SOL    HW128478   3.318   4.062   3.583  0.5500  0.7057  0.1903
 9193SOL    HW228479   3.183   4.134   3.527 -1.4396 -1.5155  1.9098
 9194SOL     OW28480   4.623   0.623   2.788 -0.0851  0.2356 -0.0539
 9194SOL    HW128481   4.642   0.639   2.884 -0.0746  0.6077 -0.1173
 9194SOL    HW228482   4.626   0.525   2.769 -0.4027  0.1405  0.3887
 9195SOL     OW28483   0.488   3.878   3.067  0.1337  0.0966  0.1062
 9195SOL    HW128484   0.454   3.828   2.987  2.4076 -0.4118 -0.6198
 9195SOL    HW228485   0.565   3.936   3.039  1.1779 -0.3304  1.9658
 9196SOL     OW28486   4.441   6.622   5.505 -0.2306 -0.3413 -0.0347
 9196SOL    HW128487   4.369   6.661   5.562  0.1220  2.0988 -1.1232
 9196SOL    HW228488   4.529   6.629   5.553 -0.3387 -0.8674  0.2379
 9197SOL     OW28489   2.138   3.766   2.112 -0.1030  0.1719  0.3552
 9197SOL    HW128490   2.145   3.671   2.082 -1.1026 -0.2477  1.3700
 9197SOL    HW228491   2.182   3.777   2.201 -1.6082  0.2111  1.1265
 9198SOL     OW28492   5.812   3.491   0.586  0.0134  0.4891  0.0595
 9198SOL    HW128493   5.886   3.441   0.541  1.1192  1.1120  1.1308
 9198SOL    HW228494   5.747   3.426   0.624 -0.3693 -0.0589 -1.4647
 9199SOL     OW28495   3.136   2.759   6.111 -0.3095 -0.0527 -0.3556
 9199SOL    HW128496   3.171   2.687   6.052  0.6668  1.0479 -1.1834
 9199SOL    HW228497   3.202   2.778   6.184  0.1558  0.9739 -1.0110
 9200SOL     OW28498   1.488   6.511   6.908  0.7228 -0.7689 -0.6112
 9200SOL    HW128499   1.421   6.552   6.969  2.1041  1.9296 -0.7421
 9200SOL    HW228500   1.444   6.484   6.823 -0.5207 -0.9484  0.0609
 9201SOL     OW28501   1.632   3.982   1.408  0.0687  0.2922 -0.4123
 9201SOL    HW128502   1.587   4.068   1.432 -0.7382 -0.3122  0.3006
 9201SOL    HW228503   1.714   4.001   1.354  1.1601  1.6256  1.6131
 9202SOL     OW28504   1.456   4.542   3.020 -0.3900  0.5603  0.2737
 9202SOL    HW128505   1.443   4.459   2.966 -1.4914 -0.8397  2.5502
 9202SOL    HW228506   1.520   4.603   2.972  1.4008 -2.0863 -0.9404
 9203SOL     OW28507   6.513   1.525   0.105 -0.1085 -0.0158  0.3324
 9203SOL    HW128508   6.559   1.450   0.057 -1.6685  0.4675 -2.0556
 9203SOL    HW228509   6.526   1.514   0.204  1.9209 -1.9269 -0.0718
 9204SOL     OW28510   6.048   6.170   4.360 -0.1882 -0.2185 -0.5644
 9204SOL    HW128511   6.095   6.145   4.444 -3.1955 -2.7080  0.5591
 9204SOL    HW228512   6.103   6.237   4.310  1.5883  1.7202  3.4987
 9205SOL     OW28513   4.986   3.537   2.296  0.2468 -0.4489  0.2846
 9205SOL    HW128514   5.068   3.487   2.324 -0.6162 -1.9473  0.2648
 9205SOL    HW228515   4.967   3.520   2.199  1.3094  1.9703 -0.4226
 9206SOL     OW28516   2.425   2.606   3.497 -0.5312 -0.4659  0.1757
 9206SOL    HW128517   2.333   2.582   3.466 -1.4173  1.0006  1.4708
 9206SOL    HW228518   2.419   2.682   3.563  1.5985 -0.4586  0.4398
 9207SOL     OW28519   2.984   4.755   6.161  0.1681  0.1546  0.4866
 9207SOL    HW128520   3.017   4.667   6.127  0.6610  0.6901 -0.4464
 9207SOL    HW228521   2.891   4.744   6.196 -0.5688 -0.3309 -1.4908
 9208SOL     OW28522   6.534   2.809   1.542  1.0428 -0.7025  0.4102
 9208SOL    HW128523   6.578   2.804   1.632  0.6166 -0.5599  0.6274
 9208SOL    HW228524   6.540   2.903   1.507 -1.4356 -0.0102  1.6431
 9209SOL     OW28525   4.612   1.567   2.617  0.7887  0.1352 -0.0938
 9209SOL    HW128526   4.620   1.520   2.529  0.8268 -0.0675  0.0159
 9209SOL    HW228527   4.662   1.653   2.613  2.1613 -0.6059  0.2256
 9210SOL     OW28528   1.850   6.670   2.650 -0.1087  0.8584  0.6158
 9210SOL    HW128529   1.862   6.682   2.749  0.3667  0.1439  0.6518
 9210SOL    HW228530   1.862   6.574   2.627 -1.6614  0.7660  0.0534
 9211SOL     OW28531   4.951   1.719   1.325 -0.3091  0.2910  0.2408
 9211SOL    HW128532   4.962   1.627   1.290 -0.5040  0.5987 -0.6534
 9211SOL    HW228533   5.030   1.744   1.382 -0.1019 -0.2954  0.2083
 9212SOL     OW28534   4.315   5.104   3.853 -0.4782  0.4875 -0.5561
 9212SOL    HW128535   4.393   5.056   3.893  0.6458  1.8829 -0.9827
 9212SOL    HW228536   4.274   5.165   3.921 -1.2720 -0.3039 -0.3079
 9213SOL     OW28537   5.169   0.463   3.927  0.5436  0.4681 -0.2057
 9213SOL    HW128538   5.125   0.379   3.955 -0.0226  0.8093 -0.0584
 9213SOL    HW228539   5.113   0.541   3.954  0.2393  0.8374 -1.7854
 9214SOL     OW28540   2.562   1.451   3.916  0.4273 -0.1931 -0.0109
 9214SOL    HW128541   2.621   1.526   3.887 -1.5879  1.2700 -0.5357
 9214SOL    HW228542   2.501   1.425   3.841  0.0843 -1.3424  0.6462
 9215SOL     OW28543   6.955   3.026   2.311 -0.1488  0.0249  0.1287
 9215SOL    HW128544   6.906   3.061   2.232 -0.4211  1.0264  0.7214
 9215SOL    HW228545   6.947   2.926   2.314 -1.4386  0.1000 -0.2519
 9216SOL     OW28546   1.446   5.672   4.943  0.1369 -0.2189 -0.3574
 9216SOL    HW128547   1.407   5.680   4.851 -0.7347  0.7569  0.0819
 9216SOL    HW228548   1.505   5.591   4.947  0.5960  0.0099 -1.9204
 9217SOL     OW28549   6.445   0.920   6.265 -0.2853  0.2586  0.8486
 9217SOL    HW128550   6.388   0.988   6.219 -0.9820 -0.6961  0.2729
 9217SOL    HW228551   6.391   0.877   6.338 -0.7275 -1.4987 -0.4735
 9218SOL     OW28552   4.359   0.951   5.675 -0.4171  0.2327  0.1393
 9218SOL    HW128553   4.347   0.865   5.626  0.3365  0.1031  0.1641
 9218SOL    HW228554   4.389   1.022   5.611 -0.0814  0.2305  0.2930
 9219SOL     OW28555   4.238   2.983   6.044 -0.7405 -0.4028  0.0705
 9219SOL    HW128556   4.214   2.915   6.113  0.7388 -2.6465 -1.4940
 9219SOL    HW228557   4.176   2.974   5.966 -0.5969  0.1631 -0.1160
 9220SOL     OW28558   0.575   5.743   3.757 -0.3411  0.2480 -0.2458
 9220SOL    HW128559   0.580   5.842   3.771 -1.8646  0.0514  2.4235
 9220SOL    HW228560   0.511   5.723   3.682 -2.0316  1.2824  0.8551
 9221SOL     OW28561   2.375   6.734   5.945  0.2142 -0.6266 -0.6634
 9221SOL    HW128562   2.425   6.654   5.980  0.2240 -0.5371 -0.4721
 9221SOL    HW228563   2.335   6.784   6.022  1.5957  0.4813 -0.6332
 9222SOL     OW28564   2.124   4.957   4.527  0.0342  0.5199 -0.4065
 9222SOL    HW128565   2.169   4.890   4.586 -0.0159  0.8803  0.0516
 9222SOL    HW228566   2.120   4.922   4.433  0.6008  0.1676 -0.3058
 9223SOL     OW28567   1.218   3.224   3.352  0.3040  0.1344  0.0467
 9223SOL    HW128568   1.175   3.242   3.440  0.7201 -0.8679  0.4637
 9223SOL    HW228569   1.189   3.294   3.286  1.2591  1.8433  1.3720
 9224SOL     OW28570   6.637   3.646   2.846 -0.0002  0.0399 -0.6868
 9224SOL    HW128571   6.717   3.697   2.815 -1.2336  1.7456 -1.2385
 9224SOL    HW228572   6.589   3.609   2.767  1.2695 -2.7393 -0.2666
 9225SOL     OW28573   2.236   4.824   5.795 -0.4278 -0.0850  0.0058
 9225SOL    HW128574   2.241   4.724   5.796  0.4333 -0.0440  0.3639
 9225SOL    HW228575   2.326   4.862   5.774 -0.3410  0.6421  1.6034
 9226SOL     OW28576   1.234   6.974   0.021 -0.1136 -0.2523  0.0897
 9226SOL    HW128577   1.283   6.956   0.106 -0.3681 -0.5170  0.1827
 9226SOL    HW228578   1.140   7.000   0.042  0.2998  1.4749 -0.0270
 9227SOL     OW28579   2.071   5.425   2.651  0.2371 -0.4722  0.1447
 9227SOL    HW128580   2.036   5.517   2.638 -1.7253 -1.4522 -2.3069
 9227SOL    HW228581   2.091   5.384   2.562 -0.3732 -2.9258  1.0540
 9228SOL     OW28582   1.288   2.895   5.555  0.0159 -0.6729  0.1768
 9228SOL    HW128583   1.306   2.943   5.641  0.1896 -1.8781  0.8365
 9228SOL    HW228584   1.190   2.876   5.549  0.0544 -0.9122  0.2906
 9229SOL     OW28585   0.879   5.398   5.406 -0.0366 -0.5643  0.1931
 9229SOL    HW128586   0.934   5.379   5.324  0.2063  0.5544  0.0771
 9229SOL    HW228587   0.895   5.327   5.474  0.0785 -1.2878 -0.5666
 9230SOL     OW28588   5.535   3.236   2.946 -0.0922 -0.2720  0.1098
 9230SOL    HW128589   5.536   3.183   2.861  1.3672 -0.2309  0.0826
 9230SOL    HW228590   5.503   3.329   2.926  1.4137  0.1210 -0.6690
 9231SOL     OW28591   6.914   3.685   4.680  0.1485  0.5600 -0.1934
 9231SOL    HW128592   6.978   3.761   4.697 -0.2575  0.8540  0.0601
 9231SOL    HW228593   6.874   3.655   4.767  0.6222 -0.2323 -0.2437
 9232SOL     OW28594   1.161   6.017   2.081 -0.4381 -0.1878 -0.4223
 9232SOL    HW128595   1.141   5.949   2.152 -1.5412  1.0576  0.5094
 9232SOL    HW228596   1.257   6.046   2.089 -0.2827 -0.7754 -0.0833
 9233SOL     OW28597   0.694   5.475   1.346  0.3196 -0.1242 -0.4275
 9233SOL    HW128598   0.672   5.489   1.250  0.7652 -1.9136 -0.8151
 9233SOL    HW228599   0.752   5.395   1.356  0.7029  0.3241  1.2986
 9234SOL     OW28600   3.422   4.903   2.662 -0.1036 -0.2844 -0.0531
 9234SOL    HW128601   3.490   4.945   2.603 -0.9517 -0.5307 -1.2456
 9234SOL    HW228602   3.464   4.827   2.712  0.7437  0.2235  0.0257
 9235SOL     OW28603   2.209   4.284   3.630  0.2145  0.1719  0.0035
 9235SOL    HW128604   2.221   4.257   3.725 -0.3336  0.0426  0.0386
 9235SOL    HW228605   2.216   4.203   3.571 -0.0451  0.1606 -0.0126
 9236SOL     OW28606   2.292   2.778   6.314 -0.0382 -0.0012  0.3358
 9236SOL    HW128607   2.354   2.840   6.267 -1.2208 -0.3031 -1.7850
 9236SOL    HW228608   2.259   2.820   6.399  0.1318  1.7381 -0.4280
 9237SOL     OW28609   2.102   0.659   1.246  0.2894 -0.0044  0.0716
 9237SOL    HW128610   2.100   0.560   1.236 -0.2711  0.1211 -1.2371
 9237SOL    HW228611   2.185   0.695   1.205 -0.5581  0.2399 -1.5174
 9238SOL     OW28612   2.259   1.746   6.352  1.1567  0.1349 -0.3583
 9238SOL    HW128613   2.351   1.743   6.391  0.9531 -1.3464  0.0607
 9238SOL    HW228614   2.249   1.672   6.284 -0.1752 -0.6945  0.6850
 9239SOL     OW28615   4.541   3.731   6.582 -0.3051 -0.1845  0.1737
 9239SOL    HW128616   4.561   3.790   6.505 -1.9805 -0.6829 -0.6874
 9239SOL    HW228617   4.513   3.641   6.549 -2.8148  0.1163  1.2311
 9240SOL     OW28618   5.513   5.163   1.540  0.1938  0.3107 -0.0602
 9240SOL    HW128619   5.511   5.162   1.640 -2.4143 -1.7453 -0.0037
 9240SOL    HW228620   5.449   5.232   1.506  0.9859  0.9212 -0.3494
 9241SOL     OW28621   0.096   6.005   6.975 -0.2808 -0.3079 -0.2894
 9241SOL    HW128622   0.174   6.031   7.032 -0.4003 -0.3033 -0.1260
 9241SOL    HW228623   0.057   6.087   6.932 -0.7814 -0.1888  0.3854
 9242SOL     OW28624   1.666   3.113   3.075 -0.0356  0.1587 -0.1548
 9242SOL    HW128625   1.702   3.023   3.102 -1.3164 -0.0496  0.9399
 9242SOL    HW228626   1.588   3.101   3.014 -0.6828  0.4947  0.5930
 9243SOL     OW28627   1.507   2.361   2.828  0.3312  0.1520 -0.2394
 9243SOL    HW128628   1.412   2.391   2.826  0.0684 -0.7120 -1.7197
 9243SOL    HW228629   1.547   2.369   2.737  1.7120  0.5440  0.3665
 9244SOL     OW28630   4.261   5.153   6.470  0.0385  0.4099  0.1269
 9244SOL    HW128631   4.339   5.214   6.483  1.7790 -1.8983  1.1489
 9244SOL    HW228632   4.179   5.207   6.451  1.5285  3.0010  0.6660
 9245SOL     OW28633   0.829   5.656   2.189 -0.2438 -0.7813 -0.5207
 9245SOL    HW128634   0.871   5.566   2.195 -0.2736 -0.9614 -2.3706
 9245SOL    HW228635   0.820   5.683   2.093  0.1764  1.3928 -0.0244
 9246SOL     OW28636   5.937   0.173   5.301 -0.3758  0.0695 -0.5850
 9246SOL    HW128637   5.870   0.167   5.374 -0.1509  0.1208 -0.3713
 9246SOL    HW228638   5.895   0.214   5.220 -0.7170 -0.3029 -0.5984
 9247SOL     OW28639   4.263   5.026   2.771 -0.0259  0.1410 -0.3541
 9247SOL    HW128640   4.288   5.010   2.676 -0.9462 -0.9264 -0.4474
 9247SOL    HW228641   4.221   5.116   2.780  1.9922  1.1425 -0.5377
 9248SOL     OW28642   3.109   2.612   6.423 -0.0601  0.0968  0.0597
 9248SOL    HW128643   3.188   2.662   6.389  0.6776 -0.7826  0.4531
 9248SOL    HW228644   3.027   2.668   6.411  0.8466  1.7806  1.3547
 9249SOL     OW28645   2.964   3.547   6.445 -0.1455 -0.4218  0.5190
 9249SOL    HW128646   2.965   3.501   6.356  0.5923  0.6829 -0.0693
 9249SOL    HW228647   3.033   3.620   6.445 -1.1988  0.5998  1.4505
 9250SOL     OW28648   0.433   4.950   3.578  0.5403  0.4235 -0.3829
 9250SOL    HW128649   0.436   5.050   3.582  0.5844  0.4370 -0.7269
 9250SOL    HW228650   0.527   4.914   3.582  0.4736  0.3388  0.9708
 9251SOL     OW28651   4.089   2.024   1.891 -0.1587  0.1938  0.1341
 9251SOL    HW128652   4.181   2.017   1.852  0.1793 -0.2492  0.9980
 9251SOL    HW228653   4.036   2.089   1.838  0.1924 -0.6164 -1.2743
 9252SOL     OW28654   6.443   0.947   5.946 -0.1923 -0.6310  0.6624
 9252SOL    HW128655   6.479   0.862   5.984 -0.6189 -0.4817  1.4064
 9252SOL    HW228656   6.499   0.974   5.867  0.4153 -1.1906  0.8915
 9253SOL     OW28657   3.188   5.621   5.030 -1.3289 -0.2048 -0.3953
 9253SOL    HW128658   3.282   5.609   4.997 -1.8792 -0.1669 -2.1143
 9253SOL    HW228659   3.182   5.704   5.086 -0.4096 -0.0171 -0.5566
 9254SOL     OW28660   6.625   6.178   2.653  0.5920 -0.3926  0.3247
 9254SOL    HW128661   6.605   6.272   2.625  0.6755 -0.1775  0.9736
 9254SOL    HW228662   6.540   6.126   2.657  0.5255 -0.3009  0.1259
 9255SOL     OW28663   5.660   4.065   4.731 -0.2626 -0.2304  0.3704
 9255SOL    HW128664   5.617   4.131   4.670  0.5041 -1.1134 -1.1812
 9255SOL    HW228665   5.590   4.016   4.782 -1.0970 -1.1137 -1.5519
 9256SOL     OW28666   2.797   6.422   2.436 -0.6064  0.1399  0.2102
 9256SOL    HW128667   2.757   6.331   2.444  1.4368 -0.8883 -0.6996
 9256SOL    HW228668   2.837   6.449   2.524 -1.0829  0.1134  0.4396
 9257SOL     OW28669   5.292   0.390   1.949  0.4012  0.3563  0.0347
 9257SOL    HW128670   5.241   0.449   1.887  1.4419  0.5123 -0.7030
 9257SOL    HW228671   5.232   0.319   1.985  0.0334 -0.5024 -2.1266
 9258SOL     OW28672   4.111   2.573   0.093  0.3710 -0.0529  0.3419
 9258SOL    HW128673   4.122   2.521   0.009 -1.0007 -0.0252  0.1119
 9258SOL    HW228674   4.126   2.670   0.075  0.1469 -0.0551  0.1440
 9259SOL     OW28675   2.351   0.811   0.000 -0.5299 -0.3292 -0.0284
 9259SOL    HW128676   2.351   0.740   0.071 -1.3528  0.9251  1.2948
 9259SOL    HW228677   2.296   0.889   0.032  1.2250  1.3582 -0.9527
 9260SOL     OW28678   5.703   2.061   5.819  0.3050 -0.2701 -0.0110
 9260SOL    HW128679   5.659   2.021   5.899 -1.0204 -0.0731 -0.6110
 9260SOL    HW228680   5.795   2.091   5.843  0.5223 -1.6371  1.0221
 9261SOL     OW28681   4.454   2.562   6.808 -0.5545 -0.1755  0.0064
 9261SOL    HW128682   4.507   2.553   6.892  1.0352 -0.5012 -0.9915
 9261SOL    HW228683   4.413   2.653   6.803 -2.1564 -0.7168  1.9354
 9262SOL     OW28684   1.187   6.561   5.186 -0.2738  0.0914 -0.0887
 9262SOL    HW128685   1.122   6.493   5.219 -0.1677 -0.4778 -1.0211
 9262SOL    HW228686   1.137   6.640   5.151 -0.4609 -0.2274 -0.5518
 9263SOL     OW28687   3.255   6.584   4.469 -0.4726  0.1931 -0.2564
 9263SOL    HW128688   3.284   6.567   4.563 -0.9550 -0.5110 -0.2209
 9263SOL    HW228689   3.205   6.504   4.435 -2.4519  1.3570 -0.2573
 9264SOL     OW28690   4.951   3.328   5.046 -0.0443  0.5617  0.2805
 9264SOL    HW128691   4.910   3.418   5.039  0.6278  0.7987 -1.1533
 9264SOL    HW228692   5.051   3.337   5.049  0.0030 -0.1014  0.8115
 9265SOL     OW28693   5.834   1.973   0.595 -0.1409  0.1575  0.5148
 9265SOL    HW128694   5.884   1.942   0.676 -1.4599  0.6878  1.5458
 9265SOL    HW228695   5.736   1.972   0.613 -0.4656  0.3077 -1.0771
 9266SOL     OW28696   2.145   5.165   6.236  0.1269  0.0504 -0.3776
 9266SOL    HW128697   2.132   5.243   6.176 -3.0845  0.3550  0.5274
 9266SOL    HW228698   2.079   5.094   6.214  0.2428 -0.6901  1.4481
 9267SOL     OW28699   0.516   1.184   3.926 -0.2129  0.0868 -0.4344
 9267SOL    HW128700   0.530   1.282   3.939 -1.1166  0.0049  1.5812
 9267SOL    HW228701   0.475   1.168   3.836  0.8031  1.4353 -1.1813
 9268SOL     OW28702   0.764   0.492   1.123  0.3507  0.6769  0.0740
 9268SOL    HW128703   0.829   0.552   1.171  1.2113  1.4133 -1.9263
 9268SOL    HW228704   0.814   0.429   1.064 -0.6960  0.2064 -0.3313
 9269SOL     OW28705   6.666   0.447   1.705 -0.1152 -0.0468  0.1208
 9269SOL    HW128706   6.743   0.488   1.657  1.0440 -2.2264  0.0044
 9269SOL    HW228707   6.622   0.380   1.645  0.7923 -2.1587  1.6953
 9270SOL     OW28708   1.978   1.592   6.868  0.2727 -0.0077  0.0325
 9270SOL    HW128709   1.905   1.524   6.875 -0.1540  0.4949  0.5539
 9270SOL    HW228710   1.951   1.663   6.803  0.1498  0.3638  0.4921
 9271SOL     OW28711   2.417   6.816   6.268  0.1309 -0.2979  0.0551
 9271SOL    HW128712   2.323   6.806   6.233  0.1471  0.5115 -0.2216
 9271SOL    HW228713   2.443   6.731   6.314 -0.6198 -0.6541 -0.1457
 9272SOL     OW28714   1.197   6.843   5.953  0.3980 -0.2991 -0.0204
 9272SOL    HW128715   1.207   6.909   5.879  0.3411  0.2626  0.4639
 9272SOL    HW228716   1.119   6.868   6.010 -1.6554 -2.6173 -1.6742
 9273SOL     OW28717   5.604   1.269   3.154 -0.1385 -0.2157 -0.0466
 9273SOL    HW128718   5.691   1.251   3.108  1.1305  1.3152  1.6104
 9273SOL    HW228719   5.618   1.332   3.230 -2.8770  0.8287 -0.2678
 9274SOL     OW28720   0.149   2.675   0.643 -0.1844 -0.4872  0.1701
 9274SOL    HW128721   0.164   2.774   0.645  0.0845 -0.5198 -0.1701
 9274SOL    HW228722   0.075   2.651   0.706  0.0949 -0.1312  0.6368
 9275SOL     OW28723   2.101   6.154   6.695 -0.1796  0.2554 -0.5075
 9275SOL    HW128724   2.056   6.073   6.731 -1.1071  1.1977  0.5487
 9275SOL    HW228725   2.197   6.134   6.676  0.1292 -0.5821  1.6398
 9276SOL     OW28726   4.401   3.560   6.403 -0.0762  0.4218 -0.7377
 9276SOL    HW128727   4.419   3.463   6.417 -1.8117  0.1380 -0.2754
 9276SOL    HW228728   4.407   3.582   6.306  1.9085  0.2204 -0.6931
 9277SOL     OW28729   4.788   3.932   3.257 -0.2750  0.5575 -0.0775
 9277SOL    HW128730   4.881   3.915   3.289 -0.8194 -0.3414  1.1331
 9277SOL    HW228731   4.733   3.966   3.334 -1.6367 -1.6591 -0.0148
 9278SOL     OW28732   1.128   1.051   6.981 -0.1912  0.0522  0.0972
 9278SOL    HW128733   1.078   1.137   6.993 -0.5164 -0.1405  0.1322
 9278SOL    HW228734   1.212   1.053   7.035 -0.5689  0.0521  0.6926
 9279SOL     OW28735   3.442   6.892   2.247  0.1522 -0.2053 -0.0729
 9279SOL    HW128736   3.350   6.898   2.207  0.1443  1.0953  0.0927
 9279SOL    HW228737   3.510   6.907   2.175  0.2260 -0.6539 -0.0999
 9280SOL     OW28738   1.144   1.464   2.753  0.1757  0.2706 -0.0495
 9280SOL    HW128739   1.170   1.495   2.661 -0.5097 -1.3719 -0.8277
 9280SOL    HW228740   1.085   1.533   2.796  2.2435  2.0649  0.0680
 9281SOL     OW28741   4.867   3.305   6.006 -0.1296  0.2967  0.1174
 9281SOL    HW128742   4.892   3.249   5.928  0.7054 -0.0496  0.6237
 9281SOL    HW228743   4.843   3.397   5.976  0.1741  0.1599 -0.5418
 9282SOL     OW28744   6.935   3.068   4.728  0.3046 -0.7920  0.2071
 9282SOL    HW128745   6.930   3.124   4.645 -0.5139  0.2125  0.9141
 9282SOL    HW228746   6.890   2.980   4.712 -1.3182  0.0371  0.0839
 9283SOL     OW28747   5.347   0.253   4.182 -0.3178 -0.0772 -0.1691
 9283SOL    HW128748   5.259   0.213   4.209  0.1864 -1.3084 -0.2870
 9283SOL    HW228749   5.418   0.226   4.247  0.3470 -0.7314 -1.1320
 9284SOL     OW28750   3.787   4.090   4.681  0.0474 -0.4192 -0.0370
 9284SOL    HW128751   3.711   4.036   4.646  0.4167 -0.9767  0.0058
 9284SOL    HW228752   3.758   4.140   4.763  0.2104 -2.0405  1.0538
 9285SOL     OW28753   3.711   3.858   1.931  0.3883  0.0147  0.5976
 9285SOL    HW128754   3.706   3.840   1.833  2.9668  0.6457  0.2764
 9285SOL    HW228755   3.777   3.796   1.973 -0.1171  0.2596  1.7964
 9286SOL     OW28756   5.387   5.701   0.703  0.3810 -0.1820 -0.1443
 9286SOL    HW128757   5.391   5.791   0.659  1.2432 -1.0814 -2.0186
 9286SOL    HW228758   5.302   5.656   0.678  0.0685 -0.0186  0.5862
 9287SOL     OW28759   5.711   3.200   5.478  0.5148  0.3695  0.4559
 9287SOL    HW128760   5.710   3.170   5.383  4.1896  1.0869  0.0594
 9287SOL    HW228761   5.715   3.300   5.481  1.6055  0.3169  1.2821
 9288SOL     OW28762   5.667   3.285   3.186  0.2779  0.1373 -0.4585
 9288SOL    HW128763   5.750   3.229   3.183  0.0274 -0.2157 -1.5758
 9288SOL    HW228764   5.617   3.274   3.100  0.2769  2.1973 -0.7638
 9289SOL     OW28765   5.566   0.916   6.427 -0.8652 -0.1045 -0.1560
 9289SOL    HW128766   5.567   0.818   6.407  2.7366 -0.3169  0.4127
 9289SOL    HW228767   5.624   0.935   6.506 -0.5702  2.5991 -0.9083
 9290SOL     OW28768   0.286   1.493   4.679 -0.1344  0.2978 -0.0667
 9290SOL    HW128769   0.211   1.559   4.683 -1.4588 -0.9447 -2.0067
 9290SOL    HW228770   0.349   1.519   4.605  1.0866  1.0200  1.1825
 9291SOL     OW28771   0.642   0.020   4.903 -0.0505  0.0952  0.6945
 9291SOL    HW128772   0.626  -0.003   4.807  0.3685  0.1206  0.6164
 9291SOL    HW228773   0.699   0.102   4.909 -1.5660  1.1728  0.9746
 9292SOL     OW28774   1.103   1.105   0.300 -0.4658 -1.2048 -0.2365
 9292SOL    HW128775   1.006   1.078   0.300 -1.7519  2.6570 -1.5522
 9292SOL    HW228776   1.119   1.168   0.376  0.5537 -0.4988 -1.0181
 9293SOL     OW28777   3.472   1.925   5.378 -0.5515  0.3073  0.3977
 9293SOL    HW128778   3.397   1.990   5.368  0.9265  2.4890  2.3800
 9293SOL    HW228779   3.444   1.851   5.439 -1.5874  0.1877 -0.2048
 9294SOL     OW28780   4.684   0.321   0.593 -0.6073  0.4103  0.7652
 9294SOL    HW128781   4.716   0.336   0.686  2.1063  0.1240 -0.0522
 9294SOL    HW228782   4.730   0.384   0.530 -2.7727  0.9756 -0.3887
 9295SOL     OW28783   1.924   0.650   6.769 -0.5372  0.0195 -0.4172
 9295SOL    HW128784   1.971   0.592   6.702  1.2242  1.3491 -0.4052
 9295SOL    HW228785   1.880   0.726   6.722  1.0793  1.2043 -0.0867
 9296SOL     OW28786   2.262   4.233   0.456  0.3826 -0.0105  0.0474
 9296SOL    HW128787   2.265   4.263   0.361 -2.0937 -0.7102 -0.3293
 9296SOL    HW228788   2.328   4.159   0.470  0.4878 -0.1844 -1.2346
 9297SOL     OW28789   7.014   1.153   1.928  0.4984  0.9047  0.0619
 9297SOL    HW128790   7.002   1.088   2.003  0.6477  1.8935  0.9718
 9297SOL    HW228791   7.108   1.189   1.930  0.3316  1.3617 -0.2361
 9298SOL     OW28792   2.082   5.076   5.883 -0.2879  0.3004  0.5347
 9298SOL    HW128793   2.064   5.013   5.959  0.5708 -1.3788 -0.6105
 9298SOL    HW228794   2.165   5.049   5.835  0.3584  2.5890  0.2468
 9299SOL     OW28795   0.218   0.952   3.766  0.7664  0.4150  0.1096
 9299SOL    HW128796   0.146   0.885   3.783  0.4236  1.2912  2.4936
 9299SOL    HW228797   0.183   1.043   3.787  2.7109  0.7995  1.9674
 9300SOL     OW28798   6.866   4.556   4.416 -0.0995  0.0652 -0.0832
 9300SOL    HW128799   6.824   4.565   4.507 -1.4964  0.6663 -0.7534
 9300SOL    HW228800   6.898   4.646   4.386 -0.6450  0.0783 -0.6350
 9301SOL     OW28801   1.072   5.268   5.950 -0.0130  0.0973  0.2067
 9301SOL    HW128802   1.048   5.311   5.863 -1.4499 -1.1903 -0.0843
 9301SOL    HW228803   1.003   5.291   6.019 -1.2289 -2.1789 -0.1402
 9302SOL     OW28804   1.885   3.864   5.961 -0.1711 -0.4240 -0.2685
 9302SOL    HW128805   1.819   3.915   5.906  0.0709  0.3763  0.1701
 9302SOL    HW228806   1.972   3.859   5.912  0.3683  1.2063  0.4602
 9303SOL     OW28807   3.798   2.978   0.781 -0.1466  0.2495  0.0770
 9303SOL    HW128808   3.711   2.950   0.822 -1.1340  2.0062 -0.7190
 9303SOL    HW228809   3.807   2.937   0.690  0.0204 -0.1630  0.2733
 9304SOL     OW28810   6.007   5.351   0.605 -0.0691 -0.2164  0.1248
 9304SOL    HW128811   5.995   5.430   0.665 -1.1310 -0.1848 -0.0988
 9304SOL    HW228812   6.093   5.360   0.554  0.5623  0.0321  1.2093
 9305SOL     OW28813   4.657   1.164   0.898 -0.2432 -0.8797 -0.6687
 9305SOL    HW128814   4.559   1.147   0.888 -0.5187 -0.3668  0.9029
 9305SOL    HW228815   4.694   1.200   0.812 -1.2337 -1.9293 -1.5486
 9306SOL     OW28816   0.238   3.135   4.411 -0.5714  0.0266  0.4310
 9306SOL    HW128817   0.172   3.185   4.466 -0.6173  1.0449 -0.5018
 9306SOL    HW228818   0.191   3.091   4.334 -0.3592 -0.3992  0.5459
 9307SOL     OW28819   3.878   3.191   0.063  0.3731 -0.0287 -0.2063
 9307SOL    HW128820   3.965   3.178   0.111  0.0374 -0.6450  0.2569
 9307SOL    HW228821   3.802   3.185   0.129 -0.0160  0.6335 -0.5838
 9308SOL     OW28822   0.998   2.871   6.942  0.1653 -0.7982 -0.0777
 9308SOL    HW128823   0.992   2.960   6.897 -0.0836 -2.1803 -3.0307
 9308SOL    HW228824   0.914   2.819   6.925  0.6527 -1.9216  0.8174
 9309SOL     OW28825   5.156   6.920   0.079  0.1548  0.5967  0.2667
 9309SOL    HW128826   5.224   6.895   0.148 -0.6217 -0.4074  0.6943
 9309SOL    HW228827   5.172   6.868  -0.005 -0.0641  0.3831  0.3565
 9310SOL     OW28828   6.528   0.469   6.452 -0.2651 -0.1242 -0.3037
 9310SOL    HW128829   6.596   0.474   6.524  1.3162 -1.9253 -1.5874
 9310SOL    HW228830   6.436   0.465   6.493  0.5557 -0.8066  1.5710
 9311SOL     OW28831   3.778   5.323   2.960  0.6049  0.2695  0.1714
 9311SOL    HW128832   3.691   5.343   2.915 -1.1101 -1.7544  2.3212
 9311SOL    HW228833   3.770   5.343   3.058  2.5165 -0.1204  0.4466
 9312SOL     OW28834   1.594   1.497   0.570 -0.6247  0.1853  0.2216
 9312SOL    HW128835   1.549   1.505   0.658 -0.9030  0.6276  0.0412
 9312SOL    HW228836   1.534   1.451   0.505 -0.7579  0.6195  0.0303
 9313SOL     OW28837   6.833   2.076   0.988 -0.3144 -0.5742 -0.5073
 9313SOL    HW128838   6.847   2.114   1.079 -2.1663 -1.1282  0.0535
 9313SOL    HW228839   6.847   1.977   0.990  1.0082 -0.4270 -1.1724
 9314SOL     OW28840   6.379   3.105   0.699  0.2694  0.2583  0.2424
 9314SOL    HW128841   6.299   3.154   0.735 -0.0524  0.7534 -1.0757
 9314SOL    HW228842   6.462   3.157   0.717  0.2657 -0.0676  1.2712
 9315SOL     OW28843   5.057   1.237   6.051  0.2635 -0.7261  0.0115
 9315SOL    HW128844   5.130   1.197   5.996  0.0222 -1.1922  0.0266
 9315SOL    HW228845   5.074   1.335   6.063  1.0649 -0.8975  0.3069
 9316SOL     OW28846   6.152   6.414   0.498  0.6910  0.6103 -0.1965
 9316SOL    HW128847   6.103   6.328   0.511  2.1168  0.1537  4.0402
 9316SOL    HW228848   6.091   6.483   0.460 -1.7714 -1.1392  0.3526
 9317SOL     OW28849   4.407   5.597   3.759  0.2929 -0.8520 -0.0212
 9317SOL    HW128850   4.486   5.622   3.704  0.7391  0.2469  1.0725
 9317SOL    HW228851   4.354   5.526   3.712  0.7316 -0.0689 -1.7546
 9318SOL     OW28852   4.768   4.861   0.296 -0.0281  0.0471 -0.9482
 9318SOL    HW128853   4.828   4.827   0.224  1.5278 -0.8456  0.6710
 9318SOL    HW228854   4.678   4.820   0.287  0.9793 -2.3959 -0.7152
 9319SOL     OW28855   4.020   2.855   0.868 -0.2982 -0.2737  0.0224
 9319SOL    HW128856   4.016   2.825   0.963 -1.6572 -1.0715 -0.2755
 9319SOL    HW228857   3.943   2.915   0.848 -0.7389 -1.1294 -0.9119
 9320SOL     OW28858   4.893   5.819   6.938  0.1606 -0.4450  0.1148
 9320SOL    HW128859   4.846   5.907   6.948  1.0635 -0.1807  2.7918
 9320SOL    HW228860   4.955   5.823   6.859  0.2367  1.3449  0.2257
 9321SOL     OW28861   0.077   2.641   6.937 -0.1654  0.4608 -0.2454
 9321SOL    HW128862   0.059   2.737   6.958 -1.2633  0.8528 -2.6355
 9321SOL    HW228863  -0.008   2.596   6.909  0.5619 -0.8555 -0.4443
 9322SOL     OW28864   6.700   5.651   6.254  0.0288 -0.0408  0.6761
 9322SOL    HW128865   6.606   5.622   6.238  0.9319 -2.1676 -1.4444
 9322SOL    HW228866   6.706   5.751   6.248 -1.8168  0.0260 -0.9403
 9323SOL     OW28867   3.095   1.831   3.928 -0.3498 -0.7138  0.2248
 9323SOL    HW128868   3.041   1.748   3.912 -0.0199 -0.6030 -1.7120
 9323SOL    HW228869   3.104   1.847   4.026 -1.3669 -2.3436  0.6135
 9324SOL     OW28870   5.197   3.286   0.178  0.0277 -0.5835 -1.0369
 9324SOL    HW128871   5.137   3.363   0.199 -0.9200 -1.3279 -0.9238
 9324SOL    HW228872   5.239   3.253   0.262  0.4016 -0.2161 -1.0797
 9325SOL     OW28873   0.818   5.756   1.921 -0.0567  0.1300 -0.2232
 9325SOL    HW128874   0.786   5.687   1.856 -1.1204  1.7552 -1.4967
 9325SOL    HW228875   0.917   5.767   1.912 -0.0466 -0.3946 -0.8352
 9326SOL     OW28876   4.176   4.661   0.279  0.1410  0.3202  0.3759
 9326SOL    HW128877   4.257   4.632   0.228 -0.3374  0.2301 -0.3444
 9326SOL    HW228878   4.158   4.596   0.353 -0.7382 -1.0802 -1.0225
 9327SOL     OW28879   5.988   1.257   4.692  0.0207  0.0852  0.8081
 9327SOL    HW128880   6.028   1.270   4.601  0.7017 -0.4625  1.0239
 9327SOL    HW228881   5.936   1.339   4.717 -0.1405  0.2569 -0.0537
 9328SOL     OW28882   2.073   4.611   5.220 -0.4667  0.7145 -0.0324
 9328SOL    HW128883   1.978   4.597   5.191 -0.3805 -0.3463  0.1461
 9328SOL    HW228884   2.080   4.601   5.319 -0.0948  0.2950 -0.0944
 9329SOL     OW28885   6.902   4.244   0.110 -0.4637  0.3765  0.1450
 9329SOL    HW128886   6.803   4.258   0.115 -0.3529  1.3297 -0.1014
 9329SOL    HW228887   6.948   4.333   0.102  0.5838  0.1863  2.8751
 9330SOL     OW28888   0.939   1.394   5.653  0.4245  0.1107  0.2092
 9330SOL    HW128889   1.034   1.373   5.676  0.2082 -0.2555  0.7821
 9330SOL    HW228890   0.908   1.473   5.705 -0.4491 -1.4519  2.2120
 9331SOL     OW28891   2.645   0.430   6.641 -0.4525  0.0831 -0.1671
 9331SOL    HW128892   2.592   0.356   6.683 -1.7152 -0.3494 -2.3682
 9331SOL    HW228893   2.583   0.498   6.603  0.6804  1.4261  0.2954
 9332SOL     OW28894   5.425   6.353   6.366  0.8631  0.1499 -0.3381
 9332SOL    HW128895   5.443   6.373   6.463  1.7726  1.0282 -0.6826
 9332SOL    HW228896   5.401   6.437   6.318 -1.0232 -0.4797 -0.6120
 9333SOL     OW28897   4.004   6.487   0.168  0.0918  0.6096  0.1546
 9333SOL    HW128898   4.065   6.450   0.098 -0.4041  0.5041 -0.2241
 9333SOL    HW228899   3.987   6.417   0.238 -1.0687  0.0173 -0.7066
 9334SOL     OW28900   5.316   6.312   5.574  0.2219  0.5602 -0.1408
 9334SOL    HW128901   5.317   6.276   5.481  1.3556  0.7980 -0.2418
 9334SOL    HW228902   5.329   6.236   5.639  0.7425  0.5445 -0.2558
 9335SOL     OW28903   1.281   2.193   3.012 -0.1691 -0.1006  0.0928
 9335SOL    HW128904   1.289   2.220   3.108  2.2891 -0.4173  0.0528
 9335SOL    HW228905   1.305   2.271   2.953  2.3959 -0.9697 -0.1186
 9336SOL     OW28906   5.060   6.604   5.746 -0.3481 -0.0502  0.6627
 9336SOL    HW128907   5.052   6.614   5.647  1.1249 -0.3032  0.4856
 9336SOL    HW228908   5.006   6.675   5.791  1.1277  1.8579 -0.3788
 9337SOL     OW28909   5.739   0.548   0.367  0.4331  0.4977  0.4690
 9337SOL    HW128910   5.673   0.533   0.440  0.2355  0.5624  0.3024
 9337SOL    HW228911   5.694   0.588   0.287  0.5265 -0.1585  0.0745
 9338SOL     OW28912   5.425   5.587   0.426  0.5013  0.2230  0.3086
 9338SOL    HW128913   5.484   5.549   0.498  2.7319  0.8602 -1.0761
 9338SOL    HW228914   5.418   5.686   0.436 -2.4508 -0.0306  1.8684
 9339SOL     OW28915   4.496   4.716   1.750 -0.7307 -0.3271 -0.7588
 9339SOL    HW128916   4.441   4.637   1.776 -1.2381  0.7314  1.7666
 9339SOL    HW228917   4.481   4.738   1.654 -1.5943 -2.4732 -1.1591
 9340SOL     OW28918   3.292   4.861   2.200 -0.7917  0.1607 -0.0364
 9340SOL    HW128919   3.280   4.852   2.299 -1.3368  0.0654 -0.1116
 9340SOL    HW228920   3.203   4.860   2.155 -0.5961  0.9642 -0.4641
 9341SOL     OW28921   5.681   4.255   6.584  0.4104 -0.4720 -0.1116
 9341SOL    HW128922   5.609   4.186   6.588  0.3143 -0.3829 -0.2956
 9341SOL    HW228923   5.751   4.235   6.654 -0.3475  0.0671  0.8297
 9342SOL     OW28924   2.388   0.746   5.293  0.3467  0.3420  0.1968
 9342SOL    HW128925   2.334   0.788   5.220  1.2998 -0.2402 -0.8849
 9342SOL    HW228926   2.434   0.817   5.346 -0.6591  0.7915  0.4964
 9343SOL     OW28927   4.940   3.560   2.623 -1.1027  0.1179 -0.1407
 9343SOL    HW128928   4.913   3.467   2.648 -1.0263  0.0335 -0.3600
 9343SOL    HW228929   4.905   3.581   2.532 -0.4242 -0.0027 -0.4389
 9344SOL     OW28930   5.018   4.701   0.194 -0.2129  0.8297 -0.2031
 9344SOL    HW128931   4.920   4.690   0.208 -0.2859  0.5967 -0.8461
 9344SOL    HW228932   5.060   4.612   0.177  0.4018  0.7049  1.7148
 9345SOL     OW28933   5.603   3.941   5.503 -0.2399 -0.0973 -0.3081
 9345SOL    HW128934   5.692   3.937   5.549 -0.5296  0.5345  0.3263
 9345SOL    HW228935   5.614   3.911   5.408  0.6551 -0.0117 -0.2475
 9346SOL     OW28936   3.585   4.884   3.459  0.2597  0.4533 -0.3437
 9346SOL    HW128937   3.549   4.977   3.469  1.5405  1.0358 -0.9331
 9346SOL    HW228938   3.525   4.831   3.398 -1.6016  0.2167  1.5797
 9347SOL     OW28939   4.539   4.548   1.180  0.1242  0.2821 -0.0242
 9347SOL    HW128940   4.522   4.568   1.083 -0.0806 -2.4004 -0.6324
 9347SOL    HW228941   4.637   4.551   1.198  0.5899 -2.8254 -1.3526
 9348SOL     OW28942   2.619   5.714   2.476 -0.4454  0.3078 -0.2758
 9348SOL    HW128943   2.662   5.800   2.503  1.5377 -0.9766  0.9109
 9348SOL    HW228944   2.579   5.670   2.556 -0.0454 -0.6104 -0.5666
 9349SOL     OW28945   0.239   0.613   3.154  0.0385 -0.4407  0.2844
 9349SOL    HW128946   0.301   0.619   3.232 -0.4836  1.3640  0.5963
 9349SOL    HW228947   0.173   0.540   3.170 -0.9206  0.7674  2.1922
 9350SOL     OW28948   6.132   1.876   7.024 -0.8348 -0.0463  0.0687
 9350SOL    HW128949   6.153   1.780   7.038  0.4677  0.3156  0.8349
 9350SOL    HW228950   6.184   1.910   6.945 -1.0964  0.0943 -0.0451
 9351SOL     OW28951   1.527   6.685   6.609 -0.1519  0.1650  0.3028
 9351SOL    HW128952   1.489   6.756   6.550  0.2820 -0.7566 -1.1195
 9351SOL    HW228953   1.541   6.723   6.701 -0.7472  1.6549 -0.1891
 9352SOL     OW28954   2.324   1.778   0.074  0.2781  0.2706  0.1266
 9352SOL    HW128955   2.335   1.738  -0.017  0.4962  0.9665 -0.1569
 9352SOL    HW228956   2.231   1.814   0.084  0.5760  1.1527 -0.2141
 9353SOL     OW28957   2.652   4.586   2.954 -0.0295  0.2580  0.3546
 9353SOL    HW128958   2.560   4.551   2.966  0.7774 -1.9475  0.5596
 9353SOL    HW228959   2.655   4.646   2.874 -1.4582 -0.3413 -0.1788
 9354SOL     OW28960   0.156   1.825   0.207 -0.0416 -0.1209  0.3378
 9354SOL    HW128961   0.056   1.824   0.201  0.0257 -0.4307 -1.1238
 9354SOL    HW228962   0.187   1.919   0.219 -0.5142 -0.0350  0.9268
 9355SOL     OW28963   6.417   6.364   4.140 -0.5417 -0.2560 -0.0491
 9355SOL    HW128964   6.464   6.277   4.153 -1.3396 -0.5861  0.7012
 9355SOL    HW228965   6.400   6.407   4.229 -0.5783  0.4407 -0.3829
 9356SOL     OW28966   4.879   6.127   2.792  0.1332 -0.2508 -0.4541
 9356SOL    HW128967   4.915   6.102   2.703 -1.5651 -1.5711 -0.8250
 9356SOL    HW228968   4.848   6.044   2.840 -0.9661  0.6392  0.4423
 9357SOL     OW28969   3.111   3.868   6.065  0.5244  0.2440  0.7441
 9357SOL    HW128970   3.147   3.802   6.131  2.4183  0.1075 -0.3562
 9357SOL    HW228971   3.132   3.838   5.972 -1.4883  0.7797  0.0557
 9358SOL     OW28972   6.226   1.092   2.168  0.2354 -0.0472  0.4950
 9358SOL    HW128973   6.214   1.166   2.102  1.7752  1.6475  1.9949
 9358SOL    HW228974   6.283   1.020   2.128 -1.9014 -0.8914 -1.2520
 9359SOL     OW28975   0.397   4.618   5.611  0.6664 -0.3404  0.0907
 9359SOL    HW128976   0.303   4.645   5.633 -0.0415 -2.5098 -0.0359
 9359SOL    HW228977   0.456   4.699   5.610 -1.3225  1.1637 -0.5297
 9360SOL     OW28978   0.975   0.999   5.124 -0.5007 -0.5304 -0.1350
 9360SOL    HW128979   1.004   0.978   5.031 -0.7806 -0.1171 -0.3203
 9360SOL    HW228980   0.952   1.096   5.130 -2.8877 -1.0171 -0.3001
 9361SOL     OW28981   3.751   6.129   2.782  0.5779  0.0089  0.5262
 9361SOL    HW128982   3.777   6.212   2.732  1.3977 -0.6824 -0.2118
 9361SOL    HW228983   3.657   6.140   2.816  1.2911  2.0151  2.1116
 9362SOL     OW28984   1.314   1.441   3.293  0.0063 -0.1736  0.5582
 9362SOL    HW128985   1.410   1.460   3.314 -0.0440 -0.5832  1.1814
 9362SOL    HW228986   1.299   1.342   3.294 -0.8216 -0.0653  2.3142
 9363SOL     OW28987   4.481   6.299   2.604 -0.2169 -0.1965 -0.2318
 9363SOL    HW128988   4.568   6.305   2.553 -1.2451 -1.0979 -2.2278
 9363SOL    HW228989   4.486   6.358   2.684  2.0037  0.2824 -0.6298
 9364SOL     OW28990   4.993   1.917   6.512  0.5770  0.2744 -0.1795
 9364SOL    HW128991   5.066   1.909   6.579 -0.1694 -1.8377  0.4646
 9364SOL    HW228992   4.981   1.830   6.464 -1.4208  0.5840 -0.3454
 9365SOL     OW28993   2.952   1.411   4.104  0.5987 -0.0352  0.0272
 9365SOL    HW128994   2.966   1.365   4.192  2.3387 -0.3764 -0.4091
 9365SOL    HW228995   2.929   1.343   4.034 -1.9904  0.3511  0.4030
 9366SOL     OW28996   2.453   2.190   5.837 -0.7040 -0.0779  0.4734
 9366SOL    HW128997   2.474   2.096   5.812 -2.7918  0.0020 -1.9654
 9366SOL    HW228998   2.425   2.194   5.933 -0.4006 -1.8704  0.6685
 9367SOL     OW28999   0.703   5.779   5.994  0.5395  0.6053 -0.3608
 9367SOL    HW129000   0.763   5.716   6.044 -0.2255 -0.9907 -1.3505
 9367SOL    HW229001   0.607   5.758   6.014  0.2669  1.7089 -0.4404
 9368SOL     OW29002   2.906   2.289   4.851 -0.3256  0.2270  0.5800
 9368SOL    HW129003   2.823   2.251   4.893 -1.5057  0.9394 -1.0116
 9368SOL    HW229004   2.978   2.295   4.920 -1.0539 -1.9326  1.6222
 9369SOL     OW29005   1.089   1.419   6.744  0.5222 -0.3873  0.1064
 9369SOL    HW129006   1.023   1.361   6.698  2.1425 -2.1164 -0.1414
 9369SOL    HW229007   1.110   1.498   6.687 -0.3831 -0.4648 -0.3473
 9370SOL     OW29008   6.798   6.733   2.839  0.0971  0.0478 -0.0206
 9370SOL    HW129009   6.831   6.824   2.813  0.0922 -0.1171 -0.6321
 9370SOL    HW229010   6.873   6.681   2.881  0.2015  0.2059 -0.0087
 9371SOL     OW29011   2.886   4.414   7.016  0.6109 -0.1315 -0.3814
 9371SOL    HW129012   2.791   4.407   6.986  0.4785  1.4122 -0.3885
 9371SOL    HW229013   2.931   4.490   6.970  1.8425 -0.7907 -0.3240
 9372SOL     OW29014   5.647   3.957   1.693  0.0269  0.0196 -0.1602
 9372SOL    HW129015   5.645   4.019   1.771 -2.0796 -0.0876 -0.0766
 9372SOL    HW229016   5.566   3.973   1.636  0.0408 -1.8736 -0.7594
 9373SOL     OW29017   4.149   1.507   1.984 -0.6153  0.0584 -0.1688
 9373SOL    HW129018   4.190   1.553   2.063 -0.6407  0.4082 -0.3555
 9373SOL    HW229019   4.217   1.500   1.911 -0.8236  0.4582 -0.4066
 9374SOL     OW29020   0.987   3.295   0.362 -0.2394  0.0755  0.1901
 9374SOL    HW129021   1.069   3.256   0.322  0.5161  0.6750  1.1093
 9374SOL    HW229022   1.006   3.323   0.457 -0.9657  1.8934 -0.1488
 9375SOL     OW29023   1.460   2.873   2.058  0.3934 -0.6015  0.0042
 9375SOL    HW129024   1.508   2.960   2.062 -0.9434  0.1401  0.4565
 9375SOL    HW229025   1.398   2.871   1.980  0.7107 -1.3165 -0.2431
 9376SOL     OW29026   3.041   3.479   1.376 -0.0334  0.1573 -0.1147
 9376SOL    HW129027   3.114   3.540   1.407  0.6621 -0.8251  0.2556
 9376SOL    HW229028   3.053   3.389   1.418 -2.0625  0.2402  0.7818
 9377SOL     OW29029   1.356   6.689   3.372  0.2002 -0.0073  0.5293
 9377SOL    HW129030   1.304   6.755   3.427  1.2388  0.7309  0.6455
 9377SOL    HW229031   1.428   6.650   3.429  0.9038  0.3150 -0.1342
 9378SOL     OW29032   0.833   2.231   4.569  0.3998 -0.0102  0.1665
 9378SOL    HW129033   0.931   2.213   4.572  0.6356  1.2988  1.6563
 9378SOL    HW229034   0.817   2.328   4.549 -0.6250 -0.3744 -0.8839
 9379SOL     OW29035   3.769   4.893   6.190 -0.3045  0.2600 -0.3721
 9379SOL    HW129036   3.713   4.975   6.189  0.3454  0.7171 -1.5581
 9379SOL    HW229037   3.717   4.817   6.230 -1.8709  0.5947 -1.6704
 9380SOL     OW29038   5.593   5.123   3.671  0.1341 -0.4576 -0.0119
 9380SOL    HW129039   5.498   5.112   3.643 -0.3434 -0.4429  1.5289
 9380SOL    HW229040   5.606   5.084   3.762  1.2171  0.9422  0.4749
 9381SOL     OW29041   3.296   2.187   6.155 -0.4830 -0.3253 -0.1925
 9381SOL    HW129042   3.350   2.270   6.145 -0.2136 -0.4479  0.1819
 9381SOL    HW229043   3.349   2.108   6.123 -0.0755 -0.5614  0.9912
 9382SOL     OW29044   3.381   0.300   2.707 -0.2486 -0.3592 -0.0601
 9382SOL    HW129045   3.301   0.360   2.717  0.8036  1.0138  0.5063
 9382SOL    HW229046   3.461   0.344   2.749  1.2603 -0.8076 -2.2826
 9383SOL     OW29047   3.463   5.126   3.492  0.1687 -0.4654  0.1076
 9383SOL    HW129048   3.387   5.159   3.436 -1.4186 -0.0330  2.3799
 9383SOL    HW229049   3.428   5.059   3.558  2.0214 -1.1939  0.3979
 9384SOL     OW29050   2.281   5.166   2.056  0.0419  0.5186 -0.0980
 9384SOL    HW129051   2.298   5.099   2.128 -1.1728  0.6272  0.3052
 9384SOL    HW229052   2.284   5.258   2.094 -1.3719  0.5451  0.0002
 9385SOL     OW29053   4.755   0.688   2.222 -0.5258  0.3183 -0.3942
 9385SOL    HW129054   4.846   0.715   2.193 -0.8041  3.2938  1.1795
 9385SOL    HW229055   4.721   0.751   2.292 -2.8003 -2.1760  0.9551
 9386SOL     OW29056   2.915   6.090   5.466  0.0029  0.6875 -0.2875
 9386SOL    HW129057   2.874   6.180   5.452 -0.6104  0.2717 -1.2609
 9386SOL    HW229058   2.946   6.082   5.560 -0.6031  1.6472  0.0066
 9387SOL     OW29059   2.389   0.436   7.009  0.4858 -0.0381 -0.4293
 9387SOL    HW129060   2.383   0.425   6.910 -0.9590 -1.6413 -0.2185
 9387SOL    HW229061   2.474   0.395   7.042  1.3369  1.1701 -1.0486
 9388SOL     OW29062   2.210   5.530   3.730  0.4862 -0.1004 -0.6426
 9388SOL    HW129063   2.228   5.616   3.777  1.1907  0.7091 -2.2838
 9388SOL    HW229064   2.203   5.455   3.796  1.0250  1.0378  0.7332
 9389SOL     OW29065   0.608   0.261   4.690  0.3481  0.9561 -0.5049
 9389SOL    HW129066   0.687   0.200   4.680  1.2924  1.6650  1.9856
 9389SOL    HW229067   0.640   0.355   4.697 -1.0069  1.6887 -2.9514
 9390SOL     OW29068   3.668   3.961   0.650 -0.4177  0.3032  0.5725
 9390SOL    HW129069   3.762   3.975   0.619 -0.4084 -0.8719  0.0204
 9390SOL    HW229070   3.629   4.048   0.679  0.5906  0.9264  0.0984
 9391SOL     OW29071   2.857   0.640   6.016 -0.4006 -0.3100  0.4327
 9391SOL    HW129072   2.899   0.573   5.955 -2.4743 -0.3866 -0.9899
 9391SOL    HW229073   2.785   0.690   5.968 -1.4647  0.3390  2.5417
 9392SOL     OW29074   6.319   3.088   5.310 -0.2187  0.0943  0.3305
 9392SOL    HW129075   6.410   3.130   5.304  0.3167 -1.0685  0.0842
 9392SOL    HW229076   6.284   3.097   5.404  1.1630 -1.4396  1.0504
 9393SOL     OW29077   4.192   2.217   6.197 -0.1643  0.1998 -0.3383
 9393SOL    HW129078   4.128   2.191   6.269 -0.2356 -0.6341 -0.6906
 9393SOL    HW229079   4.181   2.314   6.177 -1.2501  0.1013 -0.3175
 9394SOL     OW29080   5.394   2.389   4.076  0.0933  0.3364  0.3514
 9394SOL    HW129081   5.298   2.389   4.104 -0.0303  1.2002 -0.0420
 9394SOL    HW229082   5.432   2.480   4.088  1.5029 -0.4817  2.5946
 9395SOL     OW29083   2.640   2.650   0.792  0.0875 -0.1215  0.4124
 9395SOL    HW129084   2.637   2.564   0.843 -2.6549 -0.6620 -0.4610
 9395SOL    HW229085   2.721   2.651   0.733  1.1820 -1.2287  1.8152
 9396SOL     OW29086   1.421   5.291   4.198 -0.4359  0.6209 -0.4249
 9396SOL    HW129087   1.322   5.300   4.190 -0.5718  0.2954  0.7798
 9396SOL    HW229088   1.447   5.285   4.294  0.7077  0.1058 -0.7468
 9397SOL     OW29089   4.573   5.749   0.463 -0.0266  0.3040 -0.0998
 9397SOL    HW129090   4.624   5.752   0.549 -2.7083 -0.6028  1.6384
 9397SOL    HW229091   4.501   5.819   0.464 -1.2586 -0.9156 -0.7973
 9398SOL     OW29092   0.840   0.177   4.850  0.4558 -0.0003  0.0020
 9398SOL    HW129093   0.852   0.246   4.922 -1.3959  0.5472 -0.1447
 9398SOL    HW229094   0.921   0.175   4.791  0.6407  1.9645  0.1191
 9399SOL     OW29095   6.409   1.455   0.826  0.3632 -0.2768 -0.2646
 9399SOL    HW129096   6.437   1.495   0.739 -0.6145 -0.3057 -0.6037
 9399SOL    HW229097   6.488   1.445   0.886  0.9786  0.0851 -1.0154
 9400SOL     OW29098   5.660   1.654   0.245  0.3475 -0.3273  0.2744
 9400SOL    HW129099   5.632   1.600   0.324 -3.5138  0.6543 -0.1988
 9400SOL    HW229100   5.707   1.737   0.276 -0.6585 -0.2056  1.5934
 9401SOL     OW29101   4.501   0.645   4.188  0.4232  0.1149 -0.2860
 9401SOL    HW129102   4.505   0.743   4.206 -1.6309  0.1887  0.0785
 9401SOL    HW229103   4.466   0.629   4.096  1.9255 -0.3011 -0.8103
 9402SOL     OW29104   0.194   4.905   5.220  0.1626  0.3975 -0.3362
 9402SOL    HW129105   0.176   4.904   5.122 -0.1696 -0.8342 -0.2756
 9402SOL    HW229106   0.278   4.854   5.239 -1.2936 -1.8736  0.2753
 9403SOL     OW29107   6.126   3.350   2.717  0.3357 -0.2777  0.5819
 9403SOL    HW129108   6.220   3.383   2.703  0.2024 -0.2263 -0.2462
 9403SOL    HW229109   6.124   3.250   2.710  0.2034 -0.2277 -0.2558
 9404SOL     OW29110   0.753   2.129   6.521  0.2943 -0.1214 -0.3066
 9404SOL    HW129111   0.745   2.109   6.424 -0.8696  0.0112 -0.2486
 9404SOL    HW229112   0.828   2.075   6.560  1.5128  0.6754 -1.4838
 9405SOL     OW29113   0.650   6.818   1.716  0.5328 -0.2498 -0.0237
 9405SOL    HW129114   0.686   6.737   1.762  0.9468  0.2852  0.6051
 9405SOL    HW229115   0.702   6.899   1.744 -0.7897  0.4592  0.4509
 9406SOL     OW29116   0.199   2.008   4.810  0.1656  0.1107  0.0749
 9406SOL    HW129117   0.207   1.962   4.899 -0.0544 -0.7429 -0.3416
 9406SOL    HW229118   0.145   1.952   4.748  2.3031 -0.4630 -1.3734
 9407SOL     OW29119   2.831   0.153   1.094  0.0213  0.8444  0.0555
 9407SOL    HW129120   2.905   0.192   1.039  0.0219  1.6099  0.5892
 9407SOL    HW229121   2.770   0.101   1.034 -0.3286  2.1753 -0.8124
 9408SOL     OW29122   5.584   6.987   6.303 -0.0043  0.1312  0.1661
 9408SOL    HW129123   5.611   7.052   6.232  1.5033  0.2891  0.8304
 9408SOL    HW229124   5.565   7.036   6.388 -2.1357 -0.0224 -0.1778
 9409SOL     OW29125   5.442   3.028   6.139  0.0022 -0.4427  0.2934
 9409SOL    HW129126   5.406   2.936   6.125 -1.0633  0.2932 -2.5776
 9409SOL    HW229127   5.539   3.030   6.118 -0.2500 -0.6958 -0.9719
 9410SOL     OW29128   4.337   5.692   2.212 -0.3398 -0.7155  0.0114
 9410SOL    HW129129   4.410   5.687   2.280  0.8690  0.7063 -1.1210
 9410SOL    HW229130   4.347   5.618   2.146 -1.5502 -2.1348  1.3435
 9411SOL     OW29131   4.924   2.915   1.170  0.3572  0.1632 -0.4878
 9411SOL    HW129132   4.847   2.980   1.165 -1.8388 -2.2542 -0.4757
 9411SOL    HW229133   4.980   2.936   1.250 -1.5763  0.7842  0.7887
 9412SOL     OW29134   6.632   3.317   1.685 -0.1640 -0.2718  0.1472
 9412SOL    HW129135   6.662   3.341   1.593  0.0728  0.2357  0.3541
 9412SOL    HW229136   6.574   3.390   1.722 -1.3997 -1.0831 -0.1187
 9413SOL     OW29137   3.539   6.768   3.917 -0.0624 -0.5372 -0.1425
 9413SOL    HW129138   3.631   6.733   3.931 -0.0129 -0.7048 -0.8340
 9413SOL    HW229139   3.529   6.799   3.822 -0.0896  1.3972  0.4593
 9414SOL     OW29140   4.293   6.542   4.189  0.0361 -0.1619 -1.0768
 9414SOL    HW129141   4.195   6.537   4.208  0.3987 -0.5010  0.9595
 9414SOL    HW229142   4.313   6.498   4.101 -1.7554  0.9916 -2.1091
 9415SOL     OW29143   1.999   1.395   3.141  0.1516 -0.0377  0.2958
 9415SOL    HW129144   1.919   1.337   3.158  0.5556 -0.7919 -0.3629
 9415SOL    HW229145   1.970   1.491   3.140 -0.7152 -0.2892  0.2497
 9416SOL     OW29146   0.152   1.378   0.664 -1.3234  0.0553 -0.8783
 9416SOL    HW129147   0.057   1.378   0.632 -1.1553  2.8145 -1.6040
 9416SOL    HW229148   0.154   1.380   0.764 -2.1670  2.5521 -0.8430
 9417SOL     OW29149   3.379   1.075   4.884  0.3540  0.0638 -0.0860
 9417SOL    HW129150   3.401   1.126   4.967  1.6242 -0.4352 -0.0972
 9417SOL    HW229151   3.459   1.023   4.855 -0.4899 -0.8256 -0.8705
 9418SOL     OW29152   1.075   0.188   1.424  0.2887  0.5456  0.0956
 9418SOL    HW129153   1.093   0.198   1.326  0.6261 -0.5872  0.0283
 9418SOL    HW229154   1.116   0.103   1.457 -1.0011  0.2170  0.9287
 9419SOL     OW29155   3.222   6.698   5.933 -0.1563  0.2643  0.3436
 9419SOL    HW129156   3.147   6.739   5.881  0.3092  0.1688 -0.4115
 9419SOL    HW229157   3.185   6.631   5.997 -0.6523 -0.4599 -0.6661
 9420SOL     OW29158   0.258   3.521   6.420 -0.3580 -0.5784  0.2767
 9420SOL    HW129159   0.299   3.540   6.331 -3.7576  1.1144 -1.0883
 9420SOL    HW229160   0.328   3.530   6.491  2.0191  0.1374 -1.9897
 9421SOL     OW29161   2.973   5.322   2.464  0.1864 -0.0369  0.0449
 9421SOL    HW129162   2.972   5.230   2.424  0.4824  0.8808 -2.2207
 9421SOL    HW229163   2.882   5.344   2.499  0.0903 -1.1398  0.5353
 9422SOL     OW29164   5.970   6.857   2.424  0.2023  0.5696 -0.9946
 9422SOL    HW129165   6.011   6.921   2.359  3.2424  1.6858  1.7269
 9422SOL    HW229166   5.917   6.907   2.491 -0.7409 -0.2649 -1.0962
 9423SOL     OW29167   3.632   1.385   3.373  0.0594  0.2512 -0.1141
 9423SOL    HW129168   3.674   1.433   3.451 -1.0795 -0.0420  0.7002
 9423SOL    HW229169   3.562   1.443   3.332  1.4522  0.8980 -1.7244
 9424SOL     OW29170   2.996   1.736   4.900  0.1065 -0.3480 -0.3845
 9424SOL    HW129171   3.038   1.789   4.827  2.7017  1.1246  2.0052
 9424SOL    HW229172   2.922   1.789   4.942  0.8007  0.2202  0.1460
 9425SOL     OW29173   1.214   4.065   7.014 -0.6127 -0.3521  0.0711
 9425SOL    HW129174   1.189   4.058   7.111 -0.6226 -3.3531 -0.0506
 9425SOL    HW229175   1.313   4.052   7.004 -0.4981  0.6965 -0.2974
 9426SOL     OW29176   1.533   0.752   2.308 -0.2244  0.8723  0.2979
 9426SOL    HW129177   1.567   0.738   2.402  3.0275  1.0407 -0.7162
 9426SOL    HW229178   1.529   0.850   2.288  0.1622  0.8159 -0.0701
 9427SOL     OW29179   4.339   4.697   3.288 -0.4472  0.1013 -0.4234
 9427SOL    HW129180   4.389   4.638   3.351 -2.1756 -1.3475 -0.3436
 9427SOL    HW229181   4.343   4.658   3.196  1.2084  1.6762 -1.0869
 9428SOL     OW29182   3.746   0.740   1.003  0.3572  0.1418  0.2347
 9428SOL    HW129183   3.767   0.825   1.051 -0.1981 -0.6291  1.9029
 9428SOL    HW229184   3.654   0.745   0.964  0.3893  0.3704  0.1895
 9429SOL     OW29185   2.900   4.778   2.856  0.7677  0.1080 -0.2834
 9429SOL    HW129186   2.960   4.710   2.813 -0.3895 -1.0097 -0.1718
 9429SOL    HW229187   2.951   4.828   2.926  1.2920 -1.5610  0.5658
 9430SOL     OW29188   4.437   4.578   2.317  0.4506  0.4984 -0.0983
 9430SOL    HW129189   4.406   4.505   2.377  0.8521 -0.5319 -1.1036
 9430SOL    HW229190   4.490   4.539   2.242  1.0441  1.8711 -0.4249
 9431SOL     OW29191   5.288   2.601   6.422  0.2082 -0.1693  0.0949
 9431SOL    HW129192   5.376   2.557   6.404  0.3743  0.4095 -0.5289
 9431SOL    HW229193   5.215   2.533   6.414  0.4624 -0.3509 -0.8752
 9432SOL     OW29194   0.495   0.717   3.902  0.1995 -0.2052  0.1055
 9432SOL    HW129195   0.488   0.709   3.803  0.3281 -0.2895  0.1030
 9432SOL    HW229196   0.580   0.675   3.933 -0.7285 -1.9565  0.4502
 9433SOL     OW29197   4.447   5.307   4.309  0.0318  0.6031 -0.0283
 9433SOL    HW129198   4.449   5.350   4.399  0.7650 -0.6644  0.5881
 9433SOL    HW229199   4.504   5.225   4.310  1.3540  1.4018 -2.0801
 9434SOL     OW29200   4.799   5.069   3.668 -0.3647  0.0997 -0.4347
 9434SOL    HW129201   4.711   5.056   3.623 -0.8127  1.9407 -0.1745
 9434SOL    HW229202   4.796   5.028   3.759 -0.9943  0.2392 -0.3870
 9435SOL     OW29203   0.022   2.952   6.059 -0.5648 -0.0485  0.2916
 9435SOL    HW129204  -0.023   2.884   6.001 -0.2593  0.2203 -0.2690
 9435SOL    HW229205  -0.039   3.031   6.073 -0.9450 -0.4558  0.9977
 9436SOL     OW29206   2.080   2.453   1.946  0.1791  0.4669  0.2357
 9436SOL    HW129207   2.050   2.391   1.874 -0.3332  0.3022  0.5782
 9436SOL    HW229208   2.012   2.526   1.958  0.0345  0.2421  0.8458
 9437SOL     OW29209   2.693   5.889   2.769  0.4034  0.0811  0.2370
 9437SOL    HW129210   2.759   5.872   2.696  0.9599 -2.3247  1.1863
 9437SOL    HW229211   2.727   5.962   2.829  0.3165  1.5144 -1.3903
 9438SOL     OW29212   6.311   0.345   3.807 -0.2482  0.4965  0.0198
 9438SOL    HW129213   6.262   0.259   3.800  0.5698  0.1642 -2.4492
 9438SOL    HW229214   6.405   0.327   3.838 -0.1487  0.5086 -0.2683
 9439SOL     OW29215   0.937   1.014   2.184  0.0269 -0.1152  0.6641
 9439SOL    HW129216   0.949   1.101   2.232 -0.3142 -0.8029  2.0293
 9439SOL    HW229217   1.026   0.970   2.171  0.1134  0.0500  0.6933
 9440SOL     OW29218   3.693   5.208   4.703 -0.3197  0.4708  0.1726
 9440SOL    HW129219   3.617   5.255   4.746 -0.2762  0.7170 -0.0168
 9440SOL    HW229220   3.660   5.125   4.657 -0.1352 -0.7259  2.0839
 9441SOL     OW29221   0.169   3.695   3.788 -0.2966 -0.1868  0.0502
 9441SOL    HW129222   0.235   3.717   3.716 -0.8452  0.0176 -0.4000
 9441SOL    HW229223   0.186   3.752   3.868 -1.5818  1.8392 -1.0257
 9442SOL     OW29224   4.578   1.894   0.807 -0.2093 -0.0518  0.7523
 9442SOL    HW129225   4.597   1.948   0.889 -1.0226 -0.7136  1.4051
 9442SOL    HW229226   4.488   1.850   0.817 -0.8595  0.7908 -0.9998
 9443SOL     OW29227   2.053   4.493   2.437 -0.2914  0.1251 -0.3218
 9443SOL    HW129228   2.106   4.499   2.521 -0.5328 -0.5770 -0.1191
 9443SOL    HW229229   2.082   4.566   2.375  1.3139 -0.5728 -0.4375
 9444SOL     OW29230   1.815   2.100   0.034 -0.3623  0.4527  0.1081
 9444SOL    HW129231   1.903   2.143   0.017 -0.8830  1.6069  0.2419
 9444SOL    HW229232   1.744   2.170   0.041 -1.3944 -0.4884 -0.5680
 9445SOL     OW29233   4.373   4.351   1.554 -0.0214 -0.0056  0.6133
 9445SOL    HW129234   4.430   4.273   1.527  1.0293  1.0684 -0.4328
 9445SOL    HW229235   4.379   4.363   1.653 -0.1896 -1.2303  0.7897
 9446SOL     OW29236   1.965   6.477   3.366  0.0344  0.0044 -0.2468
 9446SOL    HW129237   1.985   6.551   3.302 -3.1159 -0.3031 -1.8187
 9446SOL    HW229238   2.017   6.395   3.340  2.0318  1.0538  0.2904
 9447SOL     OW29239   6.036   4.650   2.746 -0.2931 -0.0280  0.7865
 9447SOL    HW129240   6.077   4.741   2.735  1.8649 -0.8461  1.5751
 9447SOL    HW229241   6.085   4.584   2.690 -0.3519 -1.0994  1.9416
 9448SOL     OW29242   6.529   2.172   5.962 -0.0679  0.2749  0.4591
 9448SOL    HW129243   6.591   2.122   6.022 -0.0270  0.7963  0.8545
 9448SOL    HW229244   6.439   2.127   5.962 -0.8948  1.7156  2.9962
 9449SOL     OW29245   1.711   6.570   5.925  0.6261  0.3680 -0.2710
 9449SOL    HW129246   1.769   6.498   5.885 -2.6346 -1.7643 -1.5968
 9449SOL    HW229247   1.719   6.567   6.024  0.6731 -1.8574 -0.2816
 9450SOL     OW29248   4.339   5.895   4.203 -0.2134  0.9936 -0.1227
 9450SOL    HW129249   4.298   5.832   4.137 -1.0610 -0.0336  1.3576
 9450SOL    HW229250   4.290   5.982   4.200  0.3236  1.2815 -1.4493
 9451SOL     OW29251   2.988   5.538   4.895 -0.2238 -0.5354 -0.1432
 9451SOL    HW129252   3.061   5.581   4.948 -0.4602 -0.4673  0.1274
 9451SOL    HW229253   3.020   5.521   4.802  0.4253 -1.2967  0.2092
 9452SOL     OW29254   1.287   1.416   6.927 -0.2232  0.0053 -0.2493
 9452SOL    HW129255   1.244   1.385   7.011  0.2729 -1.1857 -0.4173
 9452SOL    HW229256   1.217   1.422   6.855 -0.2668 -1.2179 -0.3367
 9453SOL     OW29257   3.530   5.346   4.214  0.0986  0.5394 -0.0745
 9453SOL    HW129258   3.512   5.402   4.295  1.5476 -0.6069  1.0932
 9453SOL    HW229259   3.480   5.260   4.222  2.3025 -0.7106  0.9585
 9454SOL     OW29260   3.219   3.495   6.006  0.3437 -0.8596  0.5914
 9454SOL    HW129261   3.225   3.527   5.912  0.7180 -1.1574  0.5118
 9454SOL    HW229262   3.251   3.568   6.068  1.1436 -1.0496  0.4139
 9455SOL     OW29263   1.379   0.390   2.043 -0.2219 -0.3229  0.8644
 9455SOL    HW129264   1.356   0.339   1.960  0.7238  0.6298 -0.0165
 9455SOL    HW229265   1.295   0.421   2.088 -0.7430 -0.6737  0.1538
 9456SOL     OW29266   1.664   3.872   0.312 -0.1459  0.6019  0.0250
 9456SOL    HW129267   1.740   3.935   0.329  0.9742 -0.6732 -0.0736
 9456SOL    HW229268   1.682   3.785   0.358 -1.4944  0.2309 -0.1177
 9457SOL     OW29269   2.269   3.326   5.785 -0.0004 -0.1182  0.2035
 9457SOL    HW129270   2.241   3.317   5.881  0.2784 -0.4680  0.2550
 9457SOL    HW229271   2.192   3.300   5.726  0.0319 -0.5302  0.3383
 9458SOL     OW29272   0.581   0.446   6.443 -0.2159  0.0036 -0.3651
 9458SOL    HW129273   0.599   0.360   6.491  0.2479 -0.5713 -1.5259
 9458SOL    HW229274   0.593   0.432   6.345 -1.3859  1.0885 -0.6842
 9459SOL     OW29275   4.487   4.830   0.226 -0.2368 -0.2333 -0.5219
 9459SOL    HW129276   4.411   4.845   0.289  0.4718 -0.1238  0.3214
 9459SOL    HW229277   4.475   4.742   0.180  0.0497 -1.0512  0.9383
 9460SOL     OW29278   0.399   3.328   4.477  0.2189  0.1397 -0.5688
 9460SOL    HW129279   0.349   3.248   4.444 -2.0166  1.4310 -0.4920
 9460SOL    HW229280   0.352   3.366   4.557  1.1286  1.6365 -0.7087
 9461SOL     OW29281   5.334   0.859   2.075  0.1315 -0.4253 -0.4644
 9461SOL    HW129282   5.389   0.931   2.117  2.7825 -0.1552 -3.9089
 9461SOL    HW229283   5.272   0.899   2.008 -1.5117 -1.0951  0.5934
 9462SOL     OW29284   1.159   3.783   3.151  0.4600 -0.2206  0.0832
 9462SOL    HW129285   1.173   3.845   3.229  1.0845  2.3204 -1.9044
 9462SOL    HW229286   1.062   3.759   3.144 -0.0919  1.8107  0.0783
 9463SOL     OW29287   1.309   6.832   0.287  0.0076 -0.5856 -0.0726
 9463SOL    HW129288   1.261   6.914   0.315  1.3789  0.1757  0.1394
 9463SOL    HW229289   1.367   6.800   0.362 -1.3719 -2.4603  0.2855
 9464SOL     OW29290   1.028   0.348   0.645 -0.0627  0.1803 -0.3107
 9464SOL    HW129291   1.098   0.319   0.710  0.3977  0.2963 -0.7438
 9464SOL    HW229292   0.992   0.438   0.672  1.2117  0.9409 -1.0263
 9465SOL     OW29293   6.076   4.963   3.462  0.1960  0.6010  0.3755
 9465SOL    HW129294   6.118   4.939   3.374  2.8829 -1.0031  1.9871
 9465SOL    HW229295   6.092   5.060   3.481 -0.6652  1.0420 -0.9650
 9466SOL     OW29296   3.448   3.741   4.341 -0.3920  0.4972  0.0037
 9466SOL    HW129297   3.357   3.718   4.374  0.2559 -0.9017  0.8891
 9466SOL    HW229298   3.441   3.809   4.267 -2.2802 -1.2157 -1.4818
 9467SOL     OW29299   2.155   2.889   0.967  0.2209  0.1747  0.2420
 9467SOL    HW129300   2.155   2.793   0.938 -0.7691 -0.6229  2.6234
 9467SOL    HW229301   2.237   2.909   1.020  0.0341  0.3987  0.4521
 9468SOL     OW29302   5.989   1.027   6.046  0.2878 -0.0620 -0.2223
 9468SOL    HW129303   5.993   1.113   6.096 -2.0509 -1.2382  2.2911
 9468SOL    HW229304   5.896   1.014   6.011  0.6686 -1.4233 -0.7835
 9469SOL     OW29305   0.011   5.986   0.624 -0.2860  0.7954  0.2047
 9469SOL    HW129306  -0.036   5.913   0.575 -0.4049  2.2382 -1.9652
 9469SOL    HW229307   0.055   5.949   0.706 -1.2421 -1.4652 -0.2498
 9470SOL     OW29308   4.890   4.895   5.992  0.8416 -0.0733  0.3627
 9470SOL    HW129309   4.990   4.899   5.988  0.7997  1.1936  0.1197
 9470SOL    HW229310   4.853   4.911   5.901  0.3953  0.8920  0.7054
 9471SOL     OW29311   0.777   6.893   3.384  0.8204 -0.3824 -0.4317
 9471SOL    HW129312   0.725   6.911   3.301  0.1495 -1.6103 -0.3009
 9471SOL    HW229313   0.806   6.797   3.385  0.4538 -0.5015  0.9445
 9472SOL     OW29314   6.811   2.016   5.084 -0.2866  0.1881  0.4553
 9472SOL    HW129315   6.726   2.069   5.078 -0.1582  0.5332  1.4943
 9472SOL    HW229316   6.846   1.998   4.991 -0.7102  1.3083  0.0619
 9473SOL     OW29317   1.694   4.279   4.595  0.2137 -0.1238 -0.1323
 9473SOL    HW129318   1.771   4.218   4.576  0.6894  0.5076 -0.2536
 9473SOL    HW229319   1.647   4.248   4.678 -0.3558 -1.4181 -0.9043
 9474SOL     OW29320   0.262   4.326   6.096 -0.3326 -0.0150 -0.1192
 9474SOL    HW129321   0.197   4.396   6.066 -0.0647  0.0702 -0.5142
 9474SOL    HW229322   0.351   4.342   6.052  0.2371  0.4526  1.1718
 9475SOL     OW29323   1.891   4.639   1.048 -0.0698  0.0962  0.4015
 9475SOL    HW129324   1.960   4.578   1.088  0.3644 -0.2457 -0.8178
 9475SOL    HW229325   1.806   4.633   1.100  0.4859 -0.2985  1.2769
 9476SOL     OW29326   3.663   3.441   5.459 -0.1499  0.2572  0.3045
 9476SOL    HW129327   3.588   3.433   5.393  0.2043 -2.4054  0.1139
 9476SOL    HW229328   3.647   3.379   5.536  1.5687  0.0096  0.5137
 9477SOL     OW29329   0.743   3.159   1.963  0.3057  0.1733 -0.4330
 9477SOL    HW129330   0.691   3.157   1.877 -0.5014  0.0289  0.0518
 9477SOL    HW229331   0.826   3.104   1.952  1.4306  2.0510 -1.8603
 9478SOL     OW29332   6.116   3.016   4.643 -0.0996  0.1184  0.5221
 9478SOL    HW129333   6.089   3.063   4.726  0.4250  1.6048 -0.1102
 9478SOL    HW229334   6.046   2.949   4.618 -0.9464  0.6671  1.3644
 9479SOL     OW29335   4.762   5.985   5.593  0.0315  0.1036 -0.2103
 9479SOL    HW129336   4.667   5.965   5.618 -0.4559 -0.4175 -2.2712
 9479SOL    HW229337   4.768   6.078   5.558  0.8593  1.1110  2.4022
 9480SOL     OW29338   5.884   2.217   1.381 -0.0190 -0.1522 -0.1752
 9480SOL    HW129339   5.961   2.281   1.378  2.7122 -3.2069 -0.5115
 9480SOL    HW229340   5.873   2.174   1.291 -1.6556 -0.3510  0.0891
 9481SOL     OW29341   5.780   1.768   1.082 -0.3575 -0.4315 -0.9413
 9481SOL    HW129342   5.758   1.862   1.053 -0.4367 -0.5079 -1.1342
 9481SOL    HW229343   5.826   1.721   1.006 -1.4985 -0.9667 -1.3162
 9482SOL     OW29344   0.113   1.887   2.494 -0.1891 -0.1164  0.1946
 9482SOL    HW129345   0.081   1.797   2.466  0.6933 -0.7164  1.0645
 9482SOL    HW229346   0.201   1.879   2.539 -0.2707  1.1434  0.6260
 9483SOL     OW29347   2.347   1.674   2.132 -0.0223  0.1638 -0.4793
 9483SOL    HW129348   2.429   1.728   2.115  0.0786  0.1880  0.0540
 9483SOL    HW229349   2.331   1.613   2.055  0.8638 -0.2947 -0.3181
 9484SOL     OW29350   4.380   1.127   4.590  0.3303  0.0806  0.8911
 9484SOL    HW129351   4.438   1.207   4.605  1.5246 -0.6850  0.5213
 9484SOL    HW229352   4.436   1.044   4.588 -0.7334 -0.6651  0.1972
 9485SOL     OW29353   0.761   6.947   0.689 -0.1988  0.3067 -0.8533
 9485SOL    HW129354   0.687   7.007   0.657 -0.4640  0.7091  0.4456
 9485SOL    HW229355   0.722   6.861   0.723 -0.0638  0.4771 -0.2603
 9486SOL     OW29356   2.016   4.866   1.717 -0.0235  0.1427 -0.0942
 9486SOL    HW129357   2.043   4.816   1.635  0.3042 -2.1235  1.3146
 9486SOL    HW229358   2.097   4.901   1.763 -0.0619 -0.0735  0.1417
 9487SOL     OW29359   3.369   2.357   5.871 -0.2024 -0.3707 -0.8208
 9487SOL    HW129360   3.456   2.310   5.888  0.2610  0.5167 -0.6677
 9487SOL    HW229361   3.372   2.403   5.783 -0.2928  0.1392 -0.5647
 9488SOL     OW29362   0.672   1.228   0.238 -0.3102 -0.5357  0.0919
 9488SOL    HW129363   0.615   1.271   0.308  0.3039 -0.8664  0.8094
 9488SOL    HW229364   0.709   1.298   0.178 -0.1543 -0.1611  0.6186
 9489SOL     OW29365   3.089   4.046   0.953 -0.3190  0.0205 -0.6547
 9489SOL    HW129366   3.115   4.008   1.041 -3.1044  0.5405  0.4895
 9489SOL    HW229367   3.062   3.972   0.891  0.9062 -0.2902 -0.8295
 9490SOL     OW29368   6.569   0.488   0.212 -0.3651  0.6910 -0.4349
 9490SOL    HW129369   6.622   0.498   0.297 -1.1788  0.8783  0.0624
 9490SOL    HW229370   6.472   0.493   0.233 -0.5791  0.6362 -1.3763
 9491SOL     OW29371   6.008   5.028   4.397  0.4184  0.0259  0.5760
 9491SOL    HW129372   5.990   5.076   4.482  2.1353  0.2653  0.8439
 9491SOL    HW229373   6.107   5.020   4.383  0.2000  0.7461 -1.8288
 9492SOL     OW29374   2.920   3.291   3.444  0.8813 -0.2508 -0.4351
 9492SOL    HW129375   2.892   3.361   3.510 -0.0115  0.3631 -1.4346
 9492SOL    HW229376   3.020   3.280   3.447  0.7133 -2.4537  3.1824
 9493SOL     OW29377   5.460   6.302   3.167 -0.2183  0.6603 -0.2223
 9493SOL    HW129378   5.361   6.286   3.166 -0.0425 -0.5084 -1.2991
 9493SOL    HW229379   5.482   6.365   3.241 -1.6420  0.1187  0.7208
 9494SOL     OW29380   3.162   3.656   1.938 -0.3775  0.5644 -0.5733
 9494SOL    HW129381   3.123   3.644   1.846  0.2479 -2.1103 -0.5559
 9494SOL    HW229382   3.089   3.683   2.001 -1.8015 -1.9488 -1.0213
 9495SOL     OW29383   5.383   1.036   5.016 -0.3485  0.2436  0.9140
 9495SOL    HW129384   5.391   0.956   4.957 -1.4510  0.8451 -0.1071
 9495SOL    HW229385   5.315   1.099   4.978  0.3492  1.5872  1.7800
 9496SOL     OW29386   5.655   4.729   6.040 -0.2669 -0.1392  0.1473
 9496SOL    HW129387   5.690   4.817   6.074 -0.2528  0.3743 -1.1611
 9496SOL    HW229388   5.692   4.711   5.949 -1.3075 -0.8668 -0.1496
 9497SOL     OW29389   5.691   5.000   0.993 -0.1325 -0.0996  0.8099
 9497SOL    HW129390   5.781   5.015   0.953 -0.6071 -0.7725 -0.5987
 9497SOL    HW229391   5.684   5.049   1.080  0.8540  1.6915 -0.0608
 9498SOL     OW29392   4.873   1.454   5.521 -0.2337  0.0715 -0.6258
 9498SOL    HW129393   4.967   1.421   5.526 -0.6787 -1.1534  0.1827
 9498SOL    HW229394   4.810   1.377   5.537 -1.3725  0.8669 -1.1499
 9499SOL     OW29395   0.488   5.122   6.305  0.1866 -0.0334  0.1649
 9499SOL    HW129396   0.424   5.047   6.324 -1.8131  1.0265 -1.8877
 9499SOL    HW229397   0.456   5.205   6.351  0.0051  0.5253 -0.9318
 9500SOL     OW29398   2.227   6.721   0.797 -0.1955  0.2217  0.0645
 9500SOL    HW129399   2.262   6.722   0.703  0.1612  2.1566  0.1717
 9500SOL    HW229400   2.282   6.783   0.853  0.4909 -1.9280  1.9244
 9501SOL     OW29401   2.455   1.366   4.955 -0.2017  0.2492  0.4084
 9501SOL    HW129402   2.462   1.286   4.895 -0.5434 -0.4303  1.2642
 9501SOL    HW229403   2.538   1.375   5.009  0.1400  0.9116 -0.1926
 9502SOL     OW29404   6.656   1.947   5.708 -0.1826  0.3277 -0.0621
 9502SOL    HW129405   6.644   2.029   5.652 -0.2974  0.2098 -0.2106
 9502SOL    HW229406   6.569   1.921   5.750 -0.0193  0.6383  0.4858
 9503SOL     OW29407   1.913   4.304   1.571 -0.2085 -0.4642  0.1922
 9503SOL    HW129408   1.961   4.357   1.641  0.7192 -0.6701 -0.2628
 9503SOL    HW229409   1.859   4.365   1.513 -0.5784 -0.2362  0.7689
 9504SOL     OW29410   0.359   3.654   1.411  0.6197  0.2019 -0.1326
 9504SOL    HW129411   0.326   3.564   1.440  1.1417 -0.3919 -1.3023
 9504SOL    HW229412   0.386   3.707   1.491  4.1778 -2.1788  0.4778
 9505SOL     OW29413   4.796   3.854   1.897  0.2742  0.2969  0.0818
 9505SOL    HW129414   4.747   3.784   1.950 -1.1293  1.8506  0.9130
 9505SOL    HW229415   4.886   3.870   1.939 -0.6386  1.1932  1.8071
 9506SOL     OW29416   1.424   2.564   0.406  0.0361 -0.1921  0.0882
 9506SOL    HW129417   1.343   2.549   0.462  1.2254 -0.3773  1.8274
 9506SOL    HW229418   1.488   2.488   0.418  0.4251 -0.1281 -1.3744
 9507SOL     OW29419   0.582   1.717   2.960  0.1016 -0.2289  0.1440
 9507SOL    HW129420   0.592   1.657   3.040 -0.4075 -1.3822 -0.6373
 9507SOL    HW229421   0.509   1.682   2.901  1.4417 -0.2572 -1.5744
 9508SOL     OW29422   6.705   3.502   0.638 -0.5309 -0.9710 -0.2025
 9508SOL    HW129423   6.742   3.503   0.731 -0.9410 -0.2506 -0.0389
 9508SOL    HW229424   6.779   3.517   0.573 -0.4512  0.0612  0.1020
 9509SOL     OW29425   6.814   2.529   5.472 -0.0622 -0.0015 -0.1144
 9509SOL    HW129426   6.812   2.429   5.474  1.0831 -0.0264  0.2797
 9509SOL    HW229427   6.846   2.560   5.383  1.7336 -0.0573  0.4694
 9510SOL     OW29428   6.723   4.226   1.200 -0.3411  0.0024  0.1944
 9510SOL    HW129429   6.734   4.264   1.108  1.0397 -0.0212  0.3152
 9510SOL    HW229430   6.638   4.259   1.241 -0.2317  1.2190 -0.5216
 9511SOL     OW29431   1.458   0.649   5.856  0.1948 -0.2443 -0.0957
 9511SOL    HW129432   1.450   0.738   5.902  0.8463 -0.9619  1.4686
 9511SOL    HW229433   1.546   0.607   5.880  0.4132 -0.8204 -1.7556
 9512SOL     OW29434   4.543   2.615   1.859 -0.1148 -0.1950  0.1313
 9512SOL    HW129435   4.637   2.583   1.845 -0.0272 -0.9155  2.0596
 9512SOL    HW229436   4.531   2.703   1.814  1.0274 -0.7837 -1.3990
 9513SOL     OW29437   1.294   2.749   0.194 -0.4631 -0.1227 -0.0569
 9513SOL    HW129438   1.209   2.704   0.165 -0.4359 -1.1196  1.3157
 9513SOL    HW229439   1.336   2.697   0.268  0.2386  1.5060  0.7532
 9514SOL     OW29440   4.171   3.118   5.706  0.0141  0.4457 -0.0603
 9514SOL    HW129441   4.234   3.100   5.630  1.0773 -0.0569  0.9222
 9514SOL    HW229442   4.154   3.033   5.756  0.9458  1.1386  1.4895
 9515SOL     OW29443   1.447   5.891   6.005  0.2770 -0.1738  0.2035
 9515SOL    HW129444   1.373   5.957   6.023 -0.6819 -0.9095 -0.8932
 9515SOL    HW229445   1.467   5.841   6.089 -0.9010 -0.3781  0.3917
 9516SOL     OW29446   6.093   4.341   5.193 -0.0944  0.0042  0.1458
 9516SOL    HW129447   6.166   4.387   5.143 -0.0173 -0.0675  0.1923
 9516SOL    HW229448   6.122   4.248   5.217 -1.2473 -1.0622 -2.3152
 9517SOL     OW29449   1.211   6.859   1.920  0.1586  0.5275 -0.8952
 9517SOL    HW129450   1.297   6.904   1.893  0.1059  0.7214 -0.7371
 9517SOL    HW229451   1.183   6.891   2.010 -0.1608  0.5732 -1.0094
 9518SOL     OW29452   3.962   3.173   0.639  0.0119 -0.6313  0.0006
 9518SOL    HW129453   4.018   3.181   0.722  0.3404  0.3247 -0.2992
 9518SOL    HW229454   3.876   3.128   0.662 -1.9704  3.6117  1.9583
 9519SOL     OW29455   3.385   2.887   2.318  0.2534 -0.1801 -0.6650
 9519SOL    HW129456   3.317   2.898   2.390 -0.4091 -1.2051 -1.1128
 9519SOL    HW229457   3.365   2.949   2.243 -0.2738 -0.5848 -0.8589
 9520SOL     OW29458   0.562   1.629   3.509  0.1623  0.3710 -0.9566
 9520SOL    HW129459   0.658   1.600   3.506  0.5770  0.6534  3.0371
 9520SOL    HW229460   0.554   1.721   3.472  1.9600  1.2133  0.5433
 9521SOL     OW29461   5.351   3.589   0.432  0.0925  0.3830 -0.1795
 9521SOL    HW129462   5.329   3.630   0.343  1.8387 -0.0731 -0.8743
 9521SOL    HW229463   5.435   3.630   0.468 -0.2636  0.1268  0.9805
 9522SOL     OW29464   4.044   5.227   0.981  0.4546  0.1101  0.1429
 9522SOL    HW129465   4.037   5.202   0.885 -1.7610  1.2184 -0.0526
 9522SOL    HW229466   4.135   5.203   1.015  1.9798  1.3367 -2.6881
 9523SOL     OW29467   3.291   5.351   4.518 -0.0908  0.0294 -0.1571
 9523SOL    HW129468   3.238   5.282   4.469 -0.3184  2.0801 -3.0387
 9523SOL    HW229469   3.229   5.406   4.574 -0.1677 -0.9280  0.7244
 9524SOL     OW29470   1.525   1.949   6.505  0.4176 -0.3510 -0.3143
 9524SOL    HW129471   1.429   1.933   6.529  0.1336 -2.2830 -2.4082
 9524SOL    HW229472   1.584   1.892   6.562  0.0922 -1.3010 -0.9029
 9525SOL     OW29473   1.942   2.514   6.465 -0.6724 -0.1547 -0.1555
 9525SOL    HW129474   1.990   2.456   6.531 -2.7040 -2.9627 -0.9552
 9525SOL    HW229475   1.959   2.481   6.372 -0.6407  1.5785 -0.8104
 9526SOL     OW29476   6.218   5.094   1.172 -0.2479  0.1616 -0.2705
 9526SOL    HW129477   6.268   5.090   1.085 -0.0969  0.4653 -0.2015
 9526SOL    HW229478   6.278   5.066   1.246 -0.9296 -1.9731 -0.4650
 9527SOL     OW29479   1.700   0.202   6.241 -0.1055  0.0888 -0.6191
 9527SOL    HW129480   1.675   0.192   6.144  0.3991 -2.3572 -0.5630
 9527SOL    HW229481   1.621   0.178   6.298  0.2017 -0.5089 -0.4394
 9528SOL     OW29482   1.714   1.434   0.323 -0.0040 -0.5173  0.3337
 9528SOL    HW129483   1.709   1.460   0.420  0.5292  1.5417 -0.1399
 9528SOL    HW229484   1.661   1.499   0.268 -1.6933 -2.6195 -0.6474
 9529SOL     OW29485   6.027   5.345   5.185  0.2265  0.0711  0.0783
 9529SOL    HW129486   5.970   5.262   5.184  1.2962 -0.6860 -1.1937
 9529SOL    HW229487   6.035   5.381   5.092 -0.2722  1.6702  0.6227
 9530SOL     OW29488   0.443   3.718   3.285  0.0088  0.1572  0.4391
 9530SOL    HW129489   0.451   3.796   3.222  0.0354  0.1102  0.3848
 9530SOL    HW229490   0.418   3.636   3.234 -2.1270  0.5553  0.7467
 9531SOL     OW29491   6.240   2.335   0.202 -0.4648  0.1647 -0.3353
 9531SOL    HW129492   6.293   2.265   0.153  0.0928  1.2560 -1.3285
 9531SOL    HW229493   6.231   2.416   0.144  1.9251  2.3035  2.0333
 9532SOL     OW29494   5.746   5.837   2.576 -0.5634 -0.1035  0.1275
 9532SOL    HW129495   5.758   5.927   2.619  0.7917 -0.0881 -0.2404
 9532SOL    HW229496   5.740   5.767   2.646 -1.8151  0.2780  0.4269
 9533SOL     OW29497   1.923   5.537   4.286 -0.9515 -0.5147 -0.0491
 9533SOL    HW129498   1.989   5.507   4.217 -0.9183  0.4481 -0.4441
 9533SOL    HW229499   1.954   5.506   4.376  0.1212  0.0319 -0.2072
 9534SOL     OW29500   6.774   4.174   4.023  0.1676  0.4836  0.1235
 9534SOL    HW129501   6.762   4.260   4.072 -0.3144 -0.0444  0.9465
 9534SOL    HW229502   6.695   4.114   4.038  0.7353 -0.3231  0.0138
 9535SOL     OW29503   2.315   0.451   5.682  0.0782  0.0575 -0.0790
 9535SOL    HW129504   2.391   0.453   5.746 -0.4665  0.7680  0.5653
 9535SOL    HW229505   2.272   0.361   5.683  1.3680 -0.6004 -1.0252
 9536SOL     OW29506   3.921   3.495   3.774  0.1087 -0.2201 -0.2028
 9536SOL    HW129507   3.867   3.503   3.690 -1.5989 -1.8824  0.6685
 9536SOL    HW229508   3.975   3.411   3.771  1.1837  0.4419 -0.2124
 9537SOL     OW29509   3.302   6.832   5.215  0.1487 -0.0495 -0.1960
 9537SOL    HW129510   3.249   6.763   5.165  1.5286 -1.5205  0.2824
 9537SOL    HW229511   3.308   6.916   5.160 -0.7048 -0.6544 -1.2459
 9538SOL     OW29512   5.536   0.947   4.482 -0.2988  0.2219  0.2794
 9538SOL    HW129513   5.455   0.930   4.537  0.5859 -0.9106  1.2799
 9538SOL    HW229514   5.535   0.887   4.402 -0.6614  0.5361  0.0437
 9539SOL     OW29515   3.689   3.289   5.708 -0.0572  0.6539  0.2290
 9539SOL    HW129516   3.745   3.241   5.776 -0.5677 -1.2119 -0.6065
 9539SOL    HW229517   3.596   3.252   5.710 -0.4009  1.4391 -0.6551
 9540SOL     OW29518   6.246   5.011   3.863  0.5167 -0.2619  0.0917
 9540SOL    HW129519   6.307   5.063   3.802 -0.7985 -0.5779 -1.5683
 9540SOL    HW229520   6.196   4.942   3.810 -1.3767  0.0685  1.3365
 9541SOL     OW29521   1.369   6.021   5.769 -0.4159 -0.1710 -1.2937
 9541SOL    HW129522   1.412   5.978   5.848 -0.2458 -1.7605 -2.2030
 9541SOL    HW229523   1.421   6.103   5.744  2.2848 -2.0234 -2.3741
 9542SOL     OW29524   5.796   3.251   4.025 -0.1888  0.3204 -0.3305
 9542SOL    HW129525   5.825   3.271   3.931 -0.1112  3.3471  0.2406
 9542SOL    HW229526   5.698   3.271   4.034  0.3166  2.6373  0.7767
 9543SOL     OW29527   2.773   5.923   5.287 -0.1237 -0.3112  0.3680
 9543SOL    HW129528   2.842   5.968   5.343  0.1460  0.2063 -0.3603
 9543SOL    HW229529   2.689   5.913   5.340  0.6852 -1.5602  1.4947
 9544SOL     OW29530   5.115   3.805   4.395 -0.2270  0.3092 -0.4990
 9544SOL    HW129531   5.160   3.782   4.481  0.0619  0.7979 -0.5198
 9544SOL    HW229532   5.028   3.755   4.389  0.2760 -0.5939 -0.4352
 9545SOL     OW29533   5.990   3.966   2.606 -0.6973 -0.0459  0.0965
 9545SOL    HW129534   6.086   3.974   2.632 -1.0700  1.4275  1.1265
 9545SOL    HW229535   5.947   4.056   2.611 -2.0868 -0.6538 -0.5565
 9546SOL     OW29536   4.463   2.292   5.595  0.1098  0.2266 -0.1217
 9546SOL    HW129537   4.523   2.216   5.618  2.3699  1.2524 -2.1691
 9546SOL    HW229538   4.515   2.377   5.597 -0.8970  1.0396 -3.1913
 9547SOL     OW29539   2.785   0.613   2.321 -0.3688 -0.2976  0.3587
 9547SOL    HW129540   2.800   0.651   2.413 -0.0254  0.8375 -0.1455
 9547SOL    HW229541   2.712   0.665   2.276 -2.0132 -2.1534  0.7064
 9548SOL     OW29542   5.903   5.075   4.068 -0.3213 -0.1321 -0.4862
 9548SOL    HW129543   5.830   5.119   4.120 -1.3560 -0.5642 -1.5150
 9548SOL    HW229544   5.990   5.116   4.091 -0.9034  0.4863  0.6895
 9549SOL     OW29545   2.743   2.566   1.206  0.1092  0.6694 -0.5815
 9549SOL    HW129546   2.798   2.625   1.265 -1.0114 -0.5375  1.8647
 9549SOL    HW229547   2.800   2.493   1.169  0.6199  0.6738  0.1673
 9550SOL     OW29548   0.423   6.787   1.860  0.2382  0.4854  0.3627
 9550SOL    HW129549   0.506   6.804   1.808 -0.1763  0.9385 -0.1657
 9550SOL    HW229550   0.432   6.701   1.910 -0.0822 -0.9735 -1.9603
 9551SOL     OW29551   6.794   1.328   1.937 -0.1357 -0.9983  0.4221
 9551SOL    HW129552   6.870   1.266   1.917 -0.5451 -0.8846 -1.6874
 9551SOL    HW229553   6.823   1.422   1.922 -0.3071 -0.8532  0.9709
 9552SOL     OW29554   3.355   4.941   3.113 -0.2969 -0.0764  0.4585
 9552SOL    HW129555   3.341   4.920   3.209 -0.2416  1.1684  0.7505
 9552SOL    HW229556   3.419   5.017   3.104  1.0511 -1.2811 -0.6267
 9553SOL     OW29557   5.555   3.010   1.616  1.0143  0.0912 -0.7702
 9553SOL    HW129558   5.556   3.008   1.716 -1.0585 -0.2267 -0.7007
 9553SOL    HW229559   5.461   2.997   1.583  1.6469  0.1427 -2.7713
 9554SOL     OW29560   2.032   5.849   3.521  0.5119  0.3160  0.2958
 9554SOL    HW129561   2.015   5.770   3.581  0.6870  0.4432  0.5160
 9554SOL    HW229562   2.129   5.872   3.525  1.3253 -1.9242 -2.7879
 9555SOL     OW29563   6.776   2.090   3.248 -0.0103 -0.0599 -0.1274
 9555SOL    HW129564   6.765   2.153   3.324  1.8152  0.2110 -0.0446
 9555SOL    HW229565   6.857   2.034   3.262  2.8190  2.6602 -3.5923
 9556SOL     OW29566   2.806   3.507   1.618 -0.5637  0.1429  0.4827
 9556SOL    HW129567   2.793   3.549   1.528  2.2898 -1.2748 -0.7341
 9556SOL    HW229568   2.738   3.436   1.632  0.7223 -1.7175 -2.0197
 9557SOL     OW29569   6.765   0.252   1.340  0.3673  0.4181 -0.0163
 9557SOL    HW129570   6.792   0.335   1.290  2.8127 -0.7154 -0.7466
 9557SOL    HW229571   6.776   0.173   1.280  1.3788 -0.7732  1.6687
 9558SOL     OW29572   0.757   5.873   6.592  0.0202 -0.0567 -0.1821
 9558SOL    HW129573   0.781   5.906   6.500 -0.4559 -0.1365 -0.3397
 9558SOL    HW229574   0.839   5.872   6.649  0.0059  1.6355 -0.0850
 9559SOL     OW29575   0.193   3.885   1.036  0.8283 -0.3572  0.2829
 9559SOL    HW129576   0.175   3.861   1.132 -0.3313 -0.1218  0.1377
 9559SOL    HW229577   0.192   3.984   1.026 -1.3145 -0.4086 -0.3629
 9560SOL     OW29578   1.148   0.476   3.967  0.0477 -0.2010 -0.1697
 9560SOL    HW129579   1.066   0.440   3.923  0.3645 -0.8499 -0.2465
 9560SOL    HW229580   1.173   0.416   4.044 -1.5976  1.9022  2.1840
 9561SOL     OW29581   1.163   2.030   1.459 -0.0477 -0.2664  0.4322
 9561SOL    HW129582   1.256   2.009   1.430 -0.1264  0.4940 -0.4434
 9561SOL    HW229583   1.128   1.956   1.517  1.5684  0.0819  1.9137
 9562SOL     OW29584   3.450   0.142   4.481 -0.1335  0.9974  0.2970
 9562SOL    HW129585   3.351   0.135   4.500 -0.4194  0.8573 -1.1766
 9562SOL    HW229586   3.484   0.228   4.518 -0.5967  0.6341  1.6490
 9563SOL     OW29587   5.831   6.108   0.607 -0.3479 -0.0148 -0.5119
 9563SOL    HW129588   5.800   6.200   0.629  0.9754  0.2232  0.4471
 9563SOL    HW229589   5.844   6.056   0.691 -1.6361 -1.2989 -1.0524
 9564SOL     OW29590   1.425   1.944   1.440  0.6950  0.2195 -0.3903
 9564SOL    HW129591   1.510   1.921   1.393  0.4362 -1.0260 -0.2684
 9564SOL    HW229592   1.362   1.867   1.437 -0.6687  1.2962 -0.9551
 9565SOL     OW29593   3.675   1.097   5.068 -0.1055  0.0132 -0.2744
 9565SOL    HW129594   3.760   1.131   5.026  0.5916 -0.5281  0.6547
 9565SOL    HW229595   3.606   1.170   5.067  1.1752  1.3481  1.1877
 9566SOL     OW29596   1.233   6.044   6.087  0.2581 -0.2447  0.1567
 9566SOL    HW129597   1.228   6.144   6.081 -1.3311 -0.3656 -1.2748
 9566SOL    HW229598   1.156   6.004   6.037  0.9754 -2.1968  0.5485
 9567SOL     OW29599   5.631   4.359   0.050  0.0631 -0.3145 -0.6543
 9567SOL    HW129600   5.635   4.399  -0.042  2.7131  0.1719 -0.4134
 9567SOL    HW229601   5.723   4.334   0.079 -0.5666  0.3363  2.2245
 9568SOL     OW29602   5.507   2.313   6.611 -0.8751  1.1221 -0.4989
 9568SOL    HW129603   5.505   2.312   6.511  0.0884  1.5062 -0.5233
 9568SOL    HW229604   5.456   2.233   6.646  1.5330 -0.8925 -1.3428
 9569SOL     OW29605   0.628   1.241   2.952 -0.5150 -0.1895 -0.2609
 9569SOL    HW129606   0.654   1.147   2.931  0.2264 -0.1117  0.2804
 9569SOL    HW229607   0.665   1.267   3.041  1.1173  1.3248 -1.3236
 9570SOL     OW29608   0.607   0.146   2.433 -0.1675  0.4956 -0.2910
 9570SOL    HW129609   0.687   0.138   2.373 -0.8464 -1.7568 -1.0151
 9570SOL    HW229610   0.586   0.243   2.447  2.5475  1.1717 -0.1871
 9571SOL     OW29611   4.436   5.821   6.620  0.6517 -0.2227  0.4977
 9571SOL    HW129612   4.443   5.750   6.691 -0.7279 -2.0727 -1.1019
 9571SOL    HW229613   4.436   5.777   6.530 -2.4502  1.5900 -0.5199
 9572SOL     OW29614   2.924   5.590   2.403 -0.3508 -0.3409 -0.2459
 9572SOL    HW129615   2.827   5.607   2.383 -0.9151 -0.2913  2.1182
 9572SOL    HW229616   2.939   5.492   2.416 -0.1677 -0.3233 -0.3275
 9573SOL     OW29617   6.199   4.325   0.834 -0.5445  0.2508  0.0246
 9573SOL    HW129618   6.108   4.367   0.835 -0.9048 -0.5277  0.2796
 9573SOL    HW229619   6.191   4.226   0.843  0.4341  0.3468  3.0047
 9574SOL     OW29620   4.134   3.440   1.264 -0.0444  0.2641 -0.2912
 9574SOL    HW129621   4.188   3.356   1.272  1.1029  1.0289  0.3694
 9574SOL    HW229622   4.039   3.421   1.287  0.3101 -0.7431  0.4100
 9575SOL     OW29623   1.886   0.681   2.208 -0.3317 -0.1210  0.2877
 9575SOL    HW129624   1.903   0.630   2.292 -2.0505 -0.0622  0.7229
 9575SOL    HW229625   1.796   0.655   2.171  0.2073  0.1641 -1.3122
 9576SOL     OW29626   0.780   1.518   2.038  0.4414  0.2130  0.6835
 9576SOL    HW129627   0.689   1.489   2.067 -0.3098  1.5221 -0.2479
 9576SOL    HW229628   0.773   1.566   1.950  2.0645  0.1581  0.4949
 9577SOL     OW29629   2.598   1.605   5.606  0.4186 -0.6203  0.3274
 9577SOL    HW129630   2.500   1.588   5.597  0.7297 -2.0784 -0.5379
 9577SOL    HW229631   2.623   1.609   5.703 -0.5755  0.4212  0.5620
 9578SOL     OW29632   0.545   3.038   3.278  0.6286  0.1384  0.1963
 9578SOL    HW129633   0.587   3.060   3.190 -1.4286 -0.4828 -0.9980
 9578SOL    HW229634   0.580   3.101   3.348  5.2731 -1.7098 -0.0800
 9579SOL     OW29635   1.486   6.256   3.609  0.5020 -0.2144 -0.9270
 9579SOL    HW129636   1.518   6.249   3.514  0.9942  0.7403 -0.8431
 9579SOL    HW229637   1.396   6.299   3.610  0.0266 -1.1612 -1.0181
 9580SOL     OW29638   5.366   3.995   0.311 -0.3771 -0.2195  0.0462
 9580SOL    HW129639   5.374   3.975   0.408 -0.0990  0.6900  0.2215
 9580SOL    HW229640   5.362   4.094   0.297 -4.1087 -0.2918 -0.5551
 9581SOL     OW29641   0.372   6.697   0.826 -0.3099  0.0605 -0.2808
 9581SOL    HW129642   0.308   6.714   0.750 -1.0576  1.5798  0.6412
 9581SOL    HW229643   0.336   6.739   0.909  0.4670 -1.6229  0.9573
 9582SOL     OW29644   4.100   5.133   6.765  0.0524 -0.7452 -0.0487
 9582SOL    HW129645   4.101   5.184   6.851  0.2536 -1.5455  0.4296
 9582SOL    HW229646   4.193   5.128   6.728 -0.3026  1.3454 -1.3862
 9583SOL     OW29647   3.651   4.930   1.709 -0.1834 -0.2460  0.8161
 9583SOL    HW129648   3.635   4.841   1.751  0.0860 -0.1175  1.2026
 9583SOL    HW229649   3.565   4.979   1.699 -0.0746  0.4766  2.9392
 9584SOL     OW29650   6.787   5.672   0.084  0.2138  0.3548  0.5704
 9584SOL    HW129651   6.767   5.691  -0.012 -0.4597 -0.1503  0.6075
 9584SOL    HW229652   6.751   5.582   0.109 -1.1366  1.1845  1.7481
 9585SOL     OW29653   6.855   0.360   5.513 -0.5788  0.7628  0.3279
 9585SOL    HW129654   6.780   0.380   5.450  0.1492 -0.4620 -0.9654
 9585SOL    HW229655   6.875   0.262   5.512  1.1658  1.0849  0.4778
 9586SOL     OW29656   5.985   5.435   1.848  0.1700 -0.4681 -0.1532
 9586SOL    HW129657   6.056   5.474   1.905 -0.6367  0.3666  0.2940
 9586SOL    HW229658   5.987   5.479   1.758 -1.1690  1.1495  0.5618
 9587SOL     OW29659   0.273   2.966   1.882 -0.1208  0.2066 -0.6077
 9587SOL    HW129660   0.343   2.925   1.941  0.1610 -1.1752 -1.8425
 9587SOL    HW229661   0.183   2.929   1.907 -0.0131 -0.3090 -0.9552
 9588SOL     OW29662   6.286   0.217   0.086  0.1468 -0.1822 -0.6785
 9588SOL    HW129663   6.321   0.236   0.178 -0.8555  0.0659 -0.3345
 9588SOL    HW229664   6.356   0.241   0.019 -0.1034  2.4553 -0.1371
 9589SOL     OW29665   1.926   4.371   0.420 -0.1947  0.4486  0.2416
 9589SOL    HW129666   1.938   4.313   0.500  0.3739  0.5787  0.2543
 9589SOL    HW229667   1.949   4.466   0.444  0.0021  0.4838 -0.0812
 9590SOL     OW29668   6.908   2.719   1.063  0.4889  0.3407  0.0960
 9590SOL    HW129669   6.849   2.735   1.142  0.3138 -0.3977  0.1181
 9590SOL    HW229670   6.903   2.798   1.002  0.8818  1.0628  0.9728
 9591SOL     OW29671   2.420   5.551   4.421  0.3357  0.4720  0.0961
 9591SOL    HW129672   2.397   5.487   4.494  0.5854  0.3446  0.0609
 9591SOL    HW229673   2.348   5.621   4.415 -1.5858 -1.4997 -1.8918
 9592SOL     OW29674   2.723   4.345   1.022 -0.1184  0.4668  0.1331
 9592SOL    HW129675   2.772   4.406   1.084 -0.9422  1.6653 -0.3615
 9592SOL    HW229676   2.689   4.397   0.943 -0.0207 -0.8174 -0.7938
 9593SOL     OW29677   0.137   0.426   0.557 -0.2386  0.0543  0.1088
 9593SOL    HW129678   0.221   0.374   0.566 -0.5953 -1.2555 -3.1266
 9593SOL    HW229679   0.158   0.519   0.526  0.0411 -0.6973 -2.1306
 9594SOL     OW29680   0.845   4.548   3.296 -0.1528 -0.1168 -0.0661
 9594SOL    HW129681   0.841   4.647   3.305 -0.8521 -0.1350 -0.1212
 9594SOL    HW229682   0.917   4.512   3.356 -0.9545  0.2815  1.1758
 9595SOL     OW29683   1.097   3.534   5.965  0.2436  0.1332  0.2145
 9595SOL    HW129684   1.009   3.512   5.922  0.7036 -1.4583 -0.0021
 9595SOL    HW229685   1.171   3.522   5.898  0.8324 -0.9565  1.0041
 9596SOL     OW29686   6.878   4.312   6.866 -0.2538  0.2822  0.1455
 9596SOL    HW129687   6.910   4.252   6.793 -0.7014  3.3764 -2.8102
 9596SOL    HW229688   6.884   4.263   6.954  2.2614 -2.9164 -1.5847
 9597SOL     OW29689   0.467   3.368   0.593 -0.6828 -0.9615 -0.0480
 9597SOL    HW129690   0.561   3.335   0.581 -1.1599 -2.4175  0.0288
 9597SOL    HW229691   0.469   3.455   0.642  0.5806 -1.6558  1.2213
 9598SOL     OW29692   0.343   1.900   5.033 -0.1925 -0.3441 -0.1276
 9598SOL    HW129693   0.421   1.878   4.974  1.3600  0.5624  1.4650
 9598SOL    HW229694   0.350   1.996   5.062 -2.1179 -0.1482 -0.2370
 9599SOL     OW29695   4.368   6.174   5.358  0.2748 -0.6423  0.0589
 9599SOL    HW129696   4.353   6.173   5.457  1.0888 -0.6217  0.1861
 9599SOL    HW229697   4.460   6.207   5.338 -0.0237 -0.2504 -0.7287
 9600SOL     OW29698   2.511   6.552   6.103 -0.2371  0.0770  0.2184
 9600SOL    HW129699   2.515   6.465   6.054 -1.1517 -0.1625  0.5479
 9600SOL    HW229700   2.604   6.585   6.119  0.1012 -0.3114 -0.8274
 9601SOL     OW29701   5.233   3.836   1.256 -0.2674 -0.8513 -0.0496
 9601SOL    HW129702   5.150   3.788   1.226 -1.6134  1.5609 -0.4031
 9601SOL    HW229703   5.308   3.770   1.264 -1.3843 -2.6554 -2.7746
 9602SOL     OW29704   6.115   3.988   5.857 -0.3765 -0.0429  0.1833
 9602SOL    HW129705   6.072   3.919   5.914 -0.3750  0.0441  0.2900
 9602SOL    HW229706   6.057   4.069   5.852  0.8917  1.1123  2.4341
 9603SOL     OW29707   5.525   2.967   3.102 -0.3114 -0.2641  0.4441
 9603SOL    HW129708   5.549   3.058   3.071 -0.3367 -0.6715 -0.8037
 9603SOL    HW229709   5.438   2.938   3.060 -0.1950 -0.9479  0.6506
 9604SOL     OW29710   5.547   6.437   6.586 -0.0079 -0.2942 -0.6499
 9604SOL    HW129711   5.568   6.343   6.612  1.4420  0.2740  0.4232
 9604SOL    HW229712   5.606   6.499   6.638 -1.1569  1.2258 -1.0900
 9605SOL     OW29713   0.963   5.660   4.576 -0.1658  0.0083  0.2403
 9605SOL    HW129714   0.893   5.671   4.505 -0.1025  0.1733  0.2033
 9605SOL    HW229715   0.919   5.640   4.663 -0.1895 -2.0578 -0.1862
 9606SOL     OW29716   1.865   0.232   5.968 -0.3273  0.2718 -0.4216
 9606SOL    HW129717   1.819   0.270   5.889  0.3862  0.9123 -0.5418
 9606SOL    HW229718   1.879   0.304   6.037 -1.4631 -0.3991  0.5494
 9607SOL     OW29719   0.495   0.311   0.836 -0.4456  0.3076  0.1367
 9607SOL    HW129720   0.589   0.276   0.837 -0.3670  0.4746 -0.7401
 9607SOL    HW229721   0.485   0.381   0.907  0.0242  0.1260  0.3887
 9608SOL     OW29722   6.866   4.484   1.039 -0.0109  0.1662  0.1675
 9608SOL    HW129723   6.965   4.484   1.046 -0.0986 -0.8975  2.3496
 9608SOL    HW229724   6.826   4.499   1.129 -1.8452  0.6736 -0.6819
 9609SOL     OW29725   2.794   3.155   0.231  0.5535  0.1440  0.2537
 9609SOL    HW129726   2.740   3.142   0.314 -0.6480 -1.3365 -0.7058
 9609SOL    HW229727   2.891   3.142   0.251  0.1704 -1.5285  1.1884
 9610SOL     OW29728   1.034   5.295   3.184  0.0229  0.2287 -0.0295
 9610SOL    HW129729   0.954   5.287   3.244 -0.1269  1.7190  0.0091
 9610SOL    HW229730   1.098   5.362   3.222 -0.4755  1.8659 -1.9024
 9611SOL     OW29731   1.934   5.393   6.202 -0.9876 -0.4245  0.3506
 9611SOL    HW129732   1.898   5.471   6.151  0.9711  1.1360  1.2186
 9611SOL    HW229733   1.933   5.414   6.300  5.5777  1.5396  0.4168
 9612SOL     OW29734   6.602   5.234   1.073 -0.0354 -0.3313  0.0245
 9612SOL    HW129735   6.534   5.307   1.074 -0.6813 -0.9061  1.5520
 9612SOL    HW229736   6.556   5.145   1.084  0.7837 -0.9363 -1.2006
 9613SOL     OW29737   5.675   6.684   4.580  0.2888  0.5811  0.1030
 9613SOL    HW129738   5.650   6.709   4.486 -2.0234  0.0421  0.5104
 9613SOL    HW229739   5.741   6.751   4.616 -1.1972  2.6611 -0.8500
 9614SOL     OW29740   2.391   1.485   1.366  0.5155  0.4443  0.6087
 9614SOL    HW129741   2.459   1.539   1.315  1.9691 -1.0011  0.9401
 9614SOL    HW229742   2.424   1.392   1.377 -1.9391 -0.5575  0.0542
 9615SOL     OW29743   1.563   0.037   1.359  0.3918  0.1933 -0.4807
 9615SOL    HW129744   1.477  -0.015   1.361 -0.2347  1.1806  1.9605
 9615SOL    HW229745   1.544   0.135   1.361  1.5581  0.4313  0.2661
 9616SOL     OW29746   5.578   3.966   1.178  0.0257 -0.4655 -0.0372
 9616SOL    HW129747   5.529   3.887   1.215 -0.6601 -0.6112 -1.2221
 9616SOL    HW229748   5.636   3.937   1.102 -1.4202  0.3763 -1.5206
 9617SOL     OW29749   2.179   3.815   2.928  0.0033 -0.6834  0.2797
 9617SOL    HW129750   2.208   3.749   2.998  0.7265 -0.6997 -0.0292
 9617SOL    HW229751   2.130   3.766   2.856  2.4805 -1.3230 -1.1092
 9618SOL     OW29752   4.378   6.501   0.115 -0.0737 -0.7982 -0.2329
 9618SOL    HW129753   4.351   6.553   0.196  0.2344 -2.0948  0.7410
 9618SOL    HW229754   4.467   6.533   0.083 -0.7462  0.5513 -0.8275
 9619SOL     OW29755   0.693   4.376   6.710 -0.1563  0.1692 -0.1668
 9619SOL    HW129756   0.735   4.289   6.684  0.8769  0.6012  0.0199
 9619SOL    HW229757   0.728   4.449   6.651  1.8234  1.0831  1.9963
 9620SOL     OW29758   4.647   3.563   7.008  0.1572  0.2925  0.4416
 9620SOL    HW129759   4.682   3.470   7.014 -0.1766  0.2694  2.7663
 9620SOL    HW229760   4.691   3.620   7.077 -1.1444  1.3466  0.4369
 9621SOL     OW29761   2.301   2.293   2.071 -0.1107 -0.1460  0.3850
 9621SOL    HW129762   2.309   2.213   2.012  1.2836  0.7654 -0.7113
 9621SOL    HW229763   2.220   2.346   2.045 -1.6857 -1.7244  1.8431
 9622SOL     OW29764   5.454   1.728   2.367  1.1684  0.1022  0.2555
 9622SOL    HW129765   5.483   1.776   2.285 -0.1644  0.1936 -0.1851
 9622SOL    HW229766   5.424   1.636   2.343  1.6358 -0.1938  0.7830
 9623SOL     OW29767   2.420   4.301   6.296  0.0509 -0.2808 -0.2470
 9623SOL    HW129768   2.404   4.247   6.213  0.6860 -0.3421 -0.3341
 9623SOL    HW229769   2.498   4.361   6.282  0.7557 -0.9761  0.6280
 9624SOL     OW29770   4.761   2.912   3.534 -0.2264 -0.0284 -0.0269
 9624SOL    HW129771   4.859   2.930   3.519 -0.2054  1.0032  1.1931
 9624SOL    HW229772   4.707   2.971   3.475 -0.2405 -3.8309 -4.3600
 9625SOL     OW29773   4.746   5.660   6.543 -0.3138 -0.3772  0.9614
 9625SOL    HW129774   4.755   5.694   6.449 -1.5865  1.3058  1.4007
 9625SOL    HW229775   4.832   5.616   6.571  0.7188  0.6917 -0.3884
 9626SOL     OW29776   2.859   6.201   7.016 -0.0884  0.4964  0.0300
 9626SOL    HW129777   2.876   6.164   7.108  1.3454 -0.2805 -0.5104
 9626SOL    HW229778   2.792   6.143   6.969 -0.4390  0.5983  0.3962
 9627SOL     OW29779   6.023   5.216   2.641 -0.3534  0.1193 -0.7600
 9627SOL    HW129780   6.079   5.272   2.701 -1.2787  2.4595 -1.9701
 9627SOL    HW229781   5.942   5.184   2.691 -0.1423  0.3982 -0.2348
 9628SOL     OW29782   6.000   4.820   6.714  0.3474 -0.0543  0.9547
 9628SOL    HW129783   6.085   4.828   6.766  0.4950  0.4974  0.6324
 9628SOL    HW229784   5.987   4.725   6.686  0.3609 -0.3275  1.8340
 9629SOL     OW29785   0.270   5.999   2.936  0.8570  0.5695  0.3240
 9629SOL    HW129786   0.250   5.913   2.888  1.9499 -0.7518  2.1019
 9629SOL    HW229787   0.368   6.019   2.928  1.3116 -0.2971  2.8341
 9630SOL     OW29788   0.224   0.932   3.499 -0.2003 -0.0059 -0.3389
 9630SOL    HW129789   0.273   1.010   3.460  1.6568 -0.4439  0.9913
 9630SOL    HW229790   0.228   0.936   3.599 -1.5195 -0.9393 -0.2199
 9631SOL     OW29791   1.843   6.646   6.796 -0.3134 -0.5502  0.2537
 9631SOL    HW129792   1.781   6.722   6.816  0.6438  0.3562 -0.1082
 9631SOL    HW229793   1.885   6.660   6.706 -0.0408 -1.4621  0.2233
 9632SOL     OW29794   2.507   5.196   2.856 -0.0077  0.1031  0.0357
 9632SOL    HW129795   2.432   5.261   2.842 -0.1482 -0.1961 -0.6515
 9632SOL    HW229796   2.585   5.243   2.897  0.1052  0.8496 -0.9907
 9633SOL     OW29797   6.158   3.806   0.326  0.1377  0.4574 -0.3242
 9633SOL    HW129798   6.256   3.814   0.344  0.6637 -0.3404 -2.5600
 9633SOL    HW229799   6.137   3.714   0.294 -1.3391  0.6590 -0.0103
 9634SOL     OW29800   1.712   5.715   3.189  0.7181  0.5826 -0.4878
 9634SOL    HW129801   1.810   5.737   3.189  0.6107  1.0845 -0.7922
 9634SOL    HW229802   1.674   5.734   3.099  0.1222  1.4055 -0.0790
 9635SOL     OW29803   1.514   4.644   5.220  0.3774 -0.0571  0.5038
 9635SOL    HW129804   1.525   4.597   5.132  0.5542  0.5154  0.2214
 9635SOL    HW229805   1.469   4.732   5.206 -0.8339 -0.5504  1.1479
 9636SOL     OW29806   2.950   3.010   6.537 -0.1995 -0.2690  0.6166
 9636SOL    HW129807   2.941   3.108   6.552 -0.5552 -0.5402  2.3821
 9636SOL    HW229808   2.936   2.989   6.440  1.3789  1.5706 -0.0782
 9637SOL     OW29809   2.743   3.447   6.142 -0.1917  0.0165  0.6611
 9637SOL    HW129810   2.835   3.416   6.167 -0.1933  0.8535  1.7876
 9637SOL    HW229811   2.702   3.382   6.078  0.9201 -0.7247  0.6732
 9638SOL     OW29812   5.850   4.426   1.608 -1.1198 -0.1911 -0.3925
 9638SOL    HW129813   5.831   4.329   1.624 -0.2913 -0.5250 -1.3193
 9638SOL    HW229814   5.899   4.464   1.686 -0.0039 -0.9564 -0.6944
 9639SOL     OW29815   3.768   2.629   1.188  0.5348 -0.4607  0.1202
 9639SOL    HW129816   3.740   2.533   1.191 -0.4042 -0.1630  2.7183
 9639SOL    HW229817   3.854   2.636   1.137  0.6910 -2.6785 -0.0467
 9640SOL     OW29818   4.144   1.900   3.473 -0.0613 -0.3616  0.0297
 9640SOL    HW129819   4.227   1.874   3.425 -0.3748 -0.9748 -0.1993
 9640SOL    HW229820   4.094   1.968   3.419 -0.6828 -1.4422 -0.8083
 9641SOL     OW29821   5.709   4.941   2.329 -0.0513  0.2872 -0.6214
 9641SOL    HW129822   5.615   4.971   2.345  0.0968  1.6270 -1.9663
 9641SOL    HW229823   5.757   5.011   2.277  1.6689 -0.4415 -0.0752
 9642SOL     OW29824   3.591   4.958   4.379  0.0742  0.0557 -0.0828
 9642SOL    HW129825   3.662   4.936   4.446 -0.9739  1.2664  1.4971
 9642SOL    HW229826   3.610   4.910   4.293  1.0292 -2.1898  1.2949
 9643SOL     OW29827   5.652   5.276   6.519  0.2086 -0.4779  0.3028
 9643SOL    HW129828   5.736   5.227   6.541  0.1711 -0.3560  0.7211
 9643SOL    HW229829   5.671   5.344   6.448  0.6001 -0.0058  0.8589
 9644SOL     OW29830   1.727   3.676   0.486  0.0983  0.3228  0.0875
 9644SOL    HW129831   1.644   3.661   0.540 -0.0350  1.1160  0.1106
 9644SOL    HW229832   1.791   3.601   0.502 -0.9934 -0.8225 -0.6773
 9645SOL     OW29833   3.821   4.614   5.290 -0.8044  0.2199 -0.2242
 9645SOL    HW129834   3.779   4.682   5.349  0.0664 -0.6477  1.4760
 9645SOL    HW229835   3.765   4.531   5.290 -0.1892 -0.2086  0.3872
 9646SOL     OW29836   2.961   5.829   2.096 -0.4619  0.4170  1.1718
 9646SOL    HW129837   2.882   5.887   2.076 -1.0021  0.1079  2.3071
 9646SOL    HW229838   3.033   5.885   2.139 -0.0565  0.6886  0.1788
 9647SOL     OW29839   5.810   6.679   1.130  0.2847  0.0295 -0.0569
 9647SOL    HW129840   5.731   6.625   1.100  0.9287 -0.7288 -0.4373
 9647SOL    HW229841   5.831   6.748   1.062 -0.1821  0.3808  0.1509
 9648SOL     OW29842   5.431   2.679   0.273 -0.0936 -0.1351  0.4579
 9648SOL    HW129843   5.440   2.778   0.266 -1.1055  0.1794  2.5972
 9648SOL    HW229844   5.520   2.638   0.291  0.2638  0.4305  0.0102
 9649SOL     OW29845   3.840   4.592   1.270  0.4160 -0.0191 -0.0031
 9649SOL    HW129846   3.763   4.529   1.259  1.2664 -0.9750 -0.7114
 9649SOL    HW229847   3.914   4.545   1.318  1.0885  0.4138 -0.6018
 9650SOL     OW29848   5.207   4.074   3.725 -0.1658 -0.2236 -0.6399
 9650SOL    HW129849   5.229   4.045   3.632 -2.0887 -1.3036 -0.8126
 9650SOL    HW229850   5.144   4.151   3.722  0.2691  0.1608 -0.2000
 9651SOL     OW29851   0.405   1.128   6.922 -0.0147  0.1938  0.4880
 9651SOL    HW129852   0.329   1.184   6.957 -1.0385 -0.5563 -0.4746
 9651SOL    HW229853   0.456   1.090   7.000 -1.0793  0.1053  1.1650
 9652SOL     OW29854   1.181   4.337   0.503  0.4173 -0.2110  0.6251
 9652SOL    HW129855   1.272   4.349   0.543  1.3680 -0.4688 -1.3093
 9652SOL    HW229856   1.163   4.240   0.490 -0.7847 -0.2440  2.3195
 9653SOL     OW29857   5.615   5.822   5.959  0.1698  0.1585  0.0015
 9653SOL    HW129858   5.585   5.916   5.976  2.0141  0.5806  1.1803
 9653SOL    HW229859   5.712   5.821   5.934  0.4826 -1.5051  1.0806
 9654SOL     OW29860   4.205   3.170   1.240  0.0916 -0.1214  0.2167
 9654SOL    HW129861   4.132   3.117   1.197 -0.5024  0.6908  0.1830
 9654SOL    HW229862   4.193   3.170   1.339 -1.3335  1.8633  0.1127
 9655SOL     OW29863   7.012   1.550   5.983  0.0304 -0.4887 -0.2388
 9655SOL    HW129864   7.036   1.457   5.956 -1.6293 -0.8594 -0.5231
 9655SOL    HW229865   7.040   1.566   6.077  1.7009 -0.7466 -0.6681
 9656SOL     OW29866   3.108   2.515   1.369  0.3374 -0.3321  0.2809
 9656SOL    HW129867   3.113   2.516   1.469 -0.4467  0.1275  0.3218
 9656SOL    HW229868   3.087   2.423   1.338 -0.4059 -0.2853  0.6059
 9657SOL     OW29869   6.953   1.465   4.124  0.0245 -0.1818  0.5778
 9657SOL    HW129870   6.901   1.415   4.192 -0.0844 -1.5844 -0.4769
 9657SOL    HW229871   7.021   1.523   4.169  0.1760 -1.3148  1.8575
 9658SOL     OW29872   5.471   1.812   2.626  0.1404  0.4827  0.1810
 9658SOL    HW129873   5.399   1.758   2.671  0.9502 -0.8042 -0.0279
 9658SOL    HW229874   5.466   1.798   2.527  0.7879  0.2604  0.1806
 9659SOL     OW29875   0.289   4.564   6.775  0.0085  0.1054  0.1190
 9659SOL    HW129876   0.245   4.478   6.799  0.1948 -0.5586 -1.7487
 9659SOL    HW229877   0.331   4.604   6.856 -0.0370 -1.5713  1.0123
 9660SOL     OW29878   0.409   0.313   0.552  0.2188  0.1039 -0.7829
 9660SOL    HW129879   0.466   0.307   0.635 -0.4510 -0.1152 -0.3267
 9660SOL    HW229880   0.447   0.381   0.490 -0.3888  1.8136  0.6233
 9661SOL     OW29881   4.004   6.546   2.115  0.1629  0.0348 -0.1144
 9661SOL    HW129882   4.075   6.545   2.044  0.3880 -0.6896  0.1101
 9661SOL    HW229883   4.030   6.611   2.186  0.3911  0.0790 -0.2361
 9662SOL     OW29884   3.069   1.454   5.466 -0.8094  0.2599 -0.4539
 9662SOL    HW129885   2.981   1.484   5.500 -0.8747 -1.3973  0.9787
 9662SOL    HW229886   3.060   1.363   5.424  0.0949  0.3607 -0.9100
 9663SOL     OW29887   1.111   5.544   3.891  0.1512 -0.4366 -0.0412
 9663SOL    HW129888   1.129   5.588   3.804 -1.6857 -0.0572 -0.2765
 9663SOL    HW229889   1.157   5.594   3.964  2.4149 -1.2467 -0.8209
 9664SOL     OW29890   4.875   6.820   4.325 -0.2508 -0.7395  0.7091
 9664SOL    HW129891   4.929   6.832   4.242 -1.1618  1.7331  0.3850
 9664SOL    HW229892   4.897   6.894   4.390 -2.0512 -0.5914  1.2034
 9665SOL     OW29893   5.414   0.486   6.700  0.6205 -0.0197 -0.0780
 9665SOL    HW129894   5.454   0.402   6.736  0.9327  0.4633  0.7678
 9665SOL    HW229895   5.335   0.512   6.756 -1.0122 -1.0325 -1.8196
 9666SOL     OW29896   5.288   3.529   1.853 -0.2111 -0.4346 -0.0030
 9666SOL    HW129897   5.299   3.622   1.820 -1.0758 -0.6041 -0.7894
 9666SOL    HW229898   5.192   3.511   1.874  0.0274 -0.9717  0.7162
 9667SOL     OW29899   3.136   3.431   6.817 -0.2633 -0.4152 -0.1815
 9667SOL    HW129900   3.085   3.498   6.871  0.1727 -0.1263 -0.1197
 9667SOL    HW229901   3.167   3.357   6.878  0.3677 -0.0061  0.0011
 9668SOL     OW29902   6.181   1.531   5.259 -0.3766  0.3205 -0.5599
 9668SOL    HW129903   6.227   1.521   5.347 -0.6938  2.3439 -0.1009
 9668SOL    HW229904   6.243   1.503   5.186  1.7823  3.0945  0.0182
 9669SOL     OW29905   1.456   0.686   3.017 -0.8145  0.3695 -0.5625
 9669SOL    HW129906   1.398   0.764   2.993 -1.8233 -0.6996 -1.6900
 9669SOL    HW229907   1.536   0.685   2.956 -1.1189  0.1833 -0.9670
 9670SOL     OW29908   5.963   5.130   5.469  0.3562 -0.2444 -0.1814
 9670SOL    HW129909   5.888   5.074   5.505 -0.8724  0.9554 -0.7755
 9670SOL    HW229910   5.935   5.226   5.469  1.6034  0.1396 -1.1756
 9671SOL     OW29911   6.322   0.376   0.848  0.2405  0.3131 -0.0050
 9671SOL    HW129912   6.338   0.358   0.945  0.1790  1.9491  0.3296
 9671SOL    HW229913   6.260   0.454   0.839  1.2208  0.9599 -1.3716
 9672SOL     OW29914   1.537   5.247   4.810 -0.1256 -0.5430  0.0776
 9672SOL    HW129915   1.533   5.151   4.779  0.7063 -0.9398  1.1558
 9672SOL    HW229916   1.491   5.305   4.742 -0.4398 -1.6684 -0.7125
 9673SOL     OW29917   4.787   3.545   5.916 -0.1388  0.2507 -0.3434
 9673SOL    HW129918   4.690   3.529   5.898  0.0375 -1.2810 -0.0821
 9673SOL    HW229919   4.831   3.578   5.832 -0.8889  1.0803 -0.4311
 9674SOL     OW29920   3.868   6.355   2.668  0.1868 -0.6067 -0.0951
 9674SOL    HW129921   3.864   6.427   2.598 -0.1258  0.0421  0.5748
 9674SOL    HW229922   3.961   6.347   2.703 -0.0434  0.4484  0.8100
 9675SOL     OW29923   5.781   3.487   5.873  0.5701 -0.5364  0.4723
 9675SOL    HW129924   5.809   3.541   5.794  0.5859 -2.3678 -0.8227
 9675SOL    HW229925   5.683   3.499   5.889  0.5955 -0.0539  0.2905
 9676SOL     OW29926   1.568   3.023   4.569 -0.0154 -0.3003 -0.1896
 9676SOL    HW129927   1.597   2.977   4.653 -1.7339 -0.8650  0.1444
 9676SOL    HW229928   1.641   3.084   4.537  1.2120 -1.1246  0.9244
 9677SOL     OW29929   6.734   6.020   4.353  0.3723 -0.6544 -0.3939
 9677SOL    HW129930   6.733   6.080   4.433  2.0538 -1.3781  0.2228
 9677SOL    HW229931   6.792   5.941   4.372  0.0262 -1.3345 -2.0058
 9678SOL     OW29932   4.136   3.426   3.179  0.0368  0.4771 -0.0936
 9678SOL    HW129933   4.177   3.476   3.256 -1.4967  1.0978  0.3607
 9678SOL    HW229934   4.098   3.492   3.113 -0.7308 -0.0677 -0.2063
 9679SOL     OW29935   1.940   1.489   4.776  0.1116  0.6989  0.1086
 9679SOL    HW129936   1.972   1.521   4.687  0.5016 -0.8935 -0.3528
 9679SOL    HW229937   2.014   1.496   4.842  0.4900 -0.1248 -0.2205
 9680SOL     OW29938   6.517   2.141   4.491 -0.5887 -0.8162  0.3282
 9680SOL    HW129939   6.482   2.217   4.436  1.2989  0.0636  0.2717
 9680SOL    HW229940   6.466   2.058   4.470 -0.8236 -0.1926 -1.7431
 9681SOL     OW29941   2.898   2.079   6.736 -0.0057  0.1544 -0.2677
 9681SOL    HW129942   2.837   2.137   6.682 -0.5894  0.6697  0.9196
 9681SOL    HW229943   2.870   2.080   6.832  0.3164 -1.6342 -0.1076
 9682SOL     OW29944   4.560   4.938   5.157  0.1209  0.5860  0.6124
 9682SOL    HW129945   4.470   4.902   5.181 -1.3653  2.2927 -1.8744
 9682SOL    HW229946   4.631   4.876   5.188 -2.1066 -3.7183 -1.9469
 9683SOL     OW29947   2.022   6.464   1.310 -0.1620  0.2471  0.4605
 9683SOL    HW129948   2.117   6.452   1.336  0.2659  0.0501 -1.0996
 9683SOL    HW229949   2.009   6.433   1.216 -0.9877  3.5088 -0.6216
 9684SOL     OW29950   0.810   3.283   6.051 -0.0849 -0.2534  0.5147
 9684SOL    HW129951   0.896   3.331   6.071  0.7022 -1.5259  0.3220
 9684SOL    HW229952   0.821   3.185   6.071 -1.5814 -0.4062  0.7203
 9685SOL     OW29953   0.177   4.855   1.874 -0.4857 -0.3798 -0.0813
 9685SOL    HW129954   0.241   4.813   1.810  2.2727  1.4857  1.2986
 9685SOL    HW229955   0.124   4.926   1.826 -1.2262 -1.5838 -1.1096
 9686SOL     OW29956   5.734   2.162   6.978  0.8006 -0.1289  0.8038
 9686SOL    HW129957   5.758   2.136   6.884  2.7154  0.4389  1.0814
 9686SOL    HW229958   5.699   2.083   7.027 -1.2022 -0.2158 -0.6359
 9687SOL     OW29959   2.035   0.779   4.338  0.2717 -0.0010  0.5545
 9687SOL    HW129960   1.970   0.704   4.322 -0.9779  1.0853  0.3255
 9687SOL    HW229961   2.008   0.828   4.421  1.2336  0.0385  0.8497
 9688SOL     OW29962   0.549   2.488   3.032  0.8585 -0.2109 -0.2624
 9688SOL    HW129963   0.631   2.457   3.079  0.8320 -0.3291 -0.2934
 9688SOL    HW229964   0.544   2.447   2.941  0.2959 -0.9414  0.0882
 9689SOL     OW29965   6.333   6.098   0.473 -0.1675 -0.3445 -0.1131
 9689SOL    HW129966   6.262   6.154   0.514 -0.3953  1.2732 -2.4746
 9689SOL    HW229967   6.292   6.018   0.428 -0.3867  0.0623 -0.6392
 9690SOL     OW29968   4.998   0.930   1.717 -0.2038 -0.2148  0.7585
 9690SOL    HW129969   4.925   0.861   1.724 -1.7737  1.2624 -0.2801
 9690SOL    HW229970   5.009   0.957   1.622  2.1628 -0.7841  0.7995
 9691SOL     OW29971   2.544   5.012   2.643 -0.0884 -0.0325 -0.3271
 9691SOL    HW129972   2.544   5.079   2.717 -0.6162 -1.2901  0.8598
 9691SOL    HW229973   2.566   4.922   2.680 -1.5145 -0.9026 -1.4932
 9692SOL     OW29974   2.750   4.692   3.871 -0.1177 -1.1462  0.3602
 9692SOL    HW129975   2.690   4.745   3.931  0.2921 -1.5830  1.1805
 9692SOL    HW229976   2.765   4.601   3.912  0.9292 -1.1142  0.0656
 9693SOL     OW29977   5.929   5.182   1.906  0.1020  0.0457  0.0836
 9693SOL    HW129978   5.959   5.262   1.854  0.5348  0.7126  1.3119
 9693SOL    HW229979   6.007   5.121   1.922  0.2411  0.4276  0.9306
 9694SOL     OW29980   2.124   0.055   6.554 -0.5012 -0.0909  0.3343
 9694SOL    HW129981   2.114   0.138   6.499 -0.6184  0.0414  0.5529
 9694SOL    HW229982   2.059  -0.015   6.522  2.5863 -1.7844 -2.8715
 9695SOL     OW29983   2.009   4.174   0.583 -0.4397 -0.6347 -0.1741
 9695SOL    HW129984   2.028   4.144   0.676 -0.2392 -3.2474 -0.9800
 9695SOL    HW229985   2.095   4.181   0.532 -0.6080  0.0671 -0.3701
 9696SOL     OW29986   6.306   2.621   0.134 -0.0895  0.1569 -0.1050
 9696SOL    HW129987   6.395   2.658   0.163 -0.1584  0.1888  0.0724
 9696SOL    HW229988   6.235   2.662   0.191  0.0135 -1.8403  1.5841
 9697SOL     OW29989   5.405   5.259   6.638  0.9623  0.2651  0.1264
 9697SOL    HW129990   5.423   5.199   6.716  1.9822  0.0831 -0.2304
 9697SOL    HW229991   5.491   5.278   6.591  0.0613 -1.8089 -2.5599
 9698SOL     OW29992   4.532   1.746   1.300 -0.2419  0.1367  0.0193
 9698SOL    HW129993   4.614   1.759   1.244 -0.3156  0.0127 -0.1198
 9698SOL    HW229994   4.522   1.649   1.321  0.7471  0.3453  1.7080
 9699SOL     OW29995   0.045   3.652   1.664  0.1073  0.1586  0.0271
 9699SOL    HW129996   0.069   3.634   1.569  1.1681  0.4547  0.2303
 9699SOL    HW229997   0.060   3.748   1.685  2.9165 -0.4763  1.3227
 9700SOL     OW29998   5.563   4.740   0.178 -0.4382 -0.2635 -0.7715
 9700SOL    HW129999   5.653   4.709   0.210 -0.6567  0.4310  0.6236
 9700SOL    HW230000   5.569   4.836   0.150 -0.4381 -0.6355 -2.0829
 9701SOL     OW30001   4.599   5.789   4.262 -0.0499  0.2714 -0.1556
 9701SOL    HW130002   4.511   5.835   4.257 -0.5221 -0.6973 -1.0140
 9701SOL    HW230003   4.616   5.759   4.356 -0.7544  0.2336 -0.0368
 9702SOL     OW30004   2.927   1.503   0.444 -0.2031  0.5123 -0.4641
 9702SOL    HW130005   3.003   1.489   0.508 -2.2151 -0.7728  1.8130
 9702SOL    HW230006   2.958   1.484   0.351  1.5515 -3.0899  0.6759
 9703SOL     OW30007   3.809   6.738   4.534 -0.3260  0.2812  0.1897
 9703SOL    HW130008   3.731   6.786   4.574 -0.5640  0.4074 -0.4123
 9703SOL    HW230009   3.796   6.640   4.545 -0.5558  0.3027  0.1214
 9704SOL     OW30010   3.218   0.112   3.241  0.5953 -0.0198  0.3608
 9704SOL    HW130011   3.150   0.184   3.225  0.8189  0.3285  0.9361
 9704SOL    HW230012   3.309   0.154   3.246  1.1236 -0.6690 -2.2912
 9705SOL     OW30013   3.564   5.936   1.384  0.1408 -0.1574  0.4476
 9705SOL    HW130014   3.560   5.840   1.413 -0.3123  0.0409  1.0502
 9705SOL    HW230015   3.546   5.996   1.462 -0.4686  0.3998 -0.1045
 9706SOL     OW30016   2.447   4.027   0.453 -0.1740 -0.5359 -0.5233
 9706SOL    HW130017   2.501   4.022   0.536 -0.1325  0.3233 -0.4841
 9706SOL    HW230018   2.506   4.053   0.376 -0.6676  1.5694 -0.2729
 9707SOL     OW30019   5.865   3.427   6.126 -0.4863 -0.2842  0.7770
 9707SOL    HW130020   5.928   3.502   6.149 -0.1911 -1.0114  2.4125
 9707SOL    HW230021   5.832   3.440   6.032  0.9215  0.9324  0.4098
 9708SOL     OW30022   2.214   1.494   4.935 -0.4391  0.0941  0.1357
 9708SOL    HW130023   2.223   1.564   4.864 -2.1440 -0.4616 -0.6893
 9708SOL    HW230024   2.298   1.439   4.938  0.6015  1.6281  0.2451
 9709SOL     OW30025   5.762   4.890   2.603 -0.1878  0.3704 -0.4616
 9709SOL    HW130026   5.786   4.894   2.506  1.6828  0.1874 -0.0425
 9709SOL    HW230027   5.770   4.796   2.635 -1.2470  0.3530 -0.2158
 9710SOL     OW30028   6.615   1.650   2.971  0.4631  0.0036 -0.1335
 9710SOL    HW130029   6.554   1.595   3.027 -1.3628  0.9266 -1.1171
 9710SOL    HW230030   6.651   1.726   3.026  1.8734 -1.3171  0.8312
 9711SOL     OW30031   3.197   3.745   6.458  0.0390 -0.1088  0.3771
 9711SOL    HW130032   3.250   3.698   6.530 -0.7059 -1.3461  0.1390
 9711SOL    HW230033   3.139   3.815   6.500  0.2128 -0.2577  0.8752
 9712SOL     OW30034   0.517   4.827   5.860 -0.2388  0.6297 -0.3373
 9712SOL    HW130035   0.518   4.868   5.769 -0.2233  1.1494 -0.1045
 9712SOL    HW230036   0.428   4.785   5.877 -1.0073  2.3917  0.2245
 9713SOL     OW30037   6.097   3.600   3.742 -0.1990  0.2905 -0.4002
 9713SOL    HW130038   6.018   3.558   3.787 -0.4161 -0.0501 -1.0644
 9713SOL    HW230039   6.156   3.528   3.706  1.6628  0.4762  2.0991
 9714SOL     OW30040   1.578   0.793   6.526  0.2760 -0.0543  0.0899
 9714SOL    HW130041   1.626   0.827   6.607  0.1930 -0.6243  0.3840
 9714SOL    HW230042   1.535   0.869   6.478  1.0980  0.4030  0.0734
 9715SOL     OW30043   6.587   3.577   6.066  0.3844 -0.0996 -0.4419
 9715SOL    HW130044   6.617   3.624   6.149 -1.3524  0.7442 -0.2445
 9715SOL    HW230045   6.667   3.543   6.016  1.5851  1.2482  0.4812
 9716SOL     OW30046   4.633   2.553   5.567 -0.0129  0.3105  0.3073
 9716SOL    HW130047   4.676   2.605   5.493 -0.9580  0.2068 -0.3318
 9716SOL    HW230048   4.574   2.613   5.620 -2.6660 -0.3871 -1.6187
 9717SOL     OW30049   6.167   5.596   6.149  0.7169 -1.3390 -0.2372
 9717SOL    HW130050   6.211   5.673   6.103 -0.5490 -0.7470 -0.4922
 9717SOL    HW230051   6.201   5.589   6.243 -1.1487  1.3254  0.7584
 9718SOL     OW30052   5.075   2.110   1.429 -0.2198 -0.0170  0.0588
 9718SOL    HW130053   5.088   2.123   1.331 -1.4154 -0.8360 -0.2204
 9718SOL    HW230054   5.103   2.018   1.455 -0.3405  0.0428  0.4076
 9719SOL     OW30055   0.909   1.320   1.103 -0.0172 -0.4323  0.1372
 9719SOL    HW130056   0.902   1.230   1.146  2.3305 -0.6820  0.1149
 9719SOL    HW230057   0.823   1.341   1.055 -0.8703 -2.3167  0.7503
 9720SOL     OW30058   0.611   6.250   2.263  0.5237 -0.0081 -0.2924
 9720SOL    HW130059   0.703   6.233   2.299  0.2767  0.8628  0.8314
 9720SOL    HW230060   0.608   6.340   2.221  0.4819 -0.5231 -1.4131
 9721SOL     OW30061   1.217   4.918   2.190 -0.5649 -0.0540 -0.6273
 9721SOL    HW130062   1.259   4.845   2.137  0.0675 -0.9203  1.0119
 9721SOL    HW230063   1.285   4.959   2.251 -1.0262  1.5846 -1.1512
 9722SOL     OW30064   6.939   5.715   4.122  0.1886 -0.1876  0.1376
 9722SOL    HW130065   6.964   5.618   4.117  0.2923 -0.2433  1.3559
 9722SOL    HW230066   7.020   5.771   4.103 -0.1867 -0.3055 -1.9890
 9723SOL     OW30067   2.448   5.963   1.341  0.2985  0.1769  0.2846
 9723SOL    HW130068   2.404   6.052   1.332 -0.6297 -0.3062 -0.0721
 9723SOL    HW230069   2.433   5.910   1.258 -0.3219 -0.8250  1.0149
 9724SOL     OW30070   2.016   2.840   0.226 -0.3296 -0.0930  0.1593
 9724SOL    HW130071   1.959   2.920   0.207 -0.8186 -0.6762 -1.0040
 9724SOL    HW230072   1.985   2.796   0.310  0.4054  1.3116  1.2023
 9725SOL     OW30073   4.096   5.674   5.386  0.0261  0.0078  0.1057
 9725SOL    HW130074   4.034   5.733   5.438 -0.6560  0.4190 -1.1398
 9725SOL    HW230075   4.083   5.689   5.288 -0.9000 -2.9103 -0.3200
 9726SOL     OW30076   5.413   2.422   5.883 -0.1841  0.6992  0.1304
 9726SOL    HW130077   5.466   2.505   5.900  0.6690  0.0472  0.7628
 9726SOL    HW230078   5.361   2.431   5.798  0.3888  1.6283 -0.1225
 9727SOL     OW30079   0.413   5.723   6.017 -0.6600 -0.0604  0.3588
 9727SOL    HW130080   0.392   5.672   6.101  0.8975 -0.3259  0.6091
 9727SOL    HW230081   0.438   5.658   5.944 -2.5000  0.1259 -0.5146
 9728SOL     OW30082   1.130   1.894   0.708 -0.3100 -0.6493 -0.0937
 9728SOL    HW130083   1.202   1.932   0.651  1.3178 -1.6602  1.2015
 9728SOL    HW230084   1.113   1.956   0.785 -0.5530 -0.5961 -0.1899
 9729SOL     OW30085   2.157   5.527   4.135 -0.6276 -0.1755 -0.4925
 9729SOL    HW130086   2.190   5.453   4.076  1.6476 -1.5006  2.1935
 9729SOL    HW230087   2.204   5.612   4.111  0.2187 -0.6782 -0.6644
 9730SOL     OW30088   0.286   3.858   4.026  0.0194 -0.7503  0.6843
 9730SOL    HW130089   0.233   3.942   4.044 -0.3822 -0.6114 -1.0201
 9730SOL    HW230090   0.350   3.843   4.102 -0.5589  0.5739  1.4796
 9731SOL     OW30091   4.507   4.595   0.898 -0.3816 -0.0764  0.1602
 9731SOL    HW130092   4.571   4.664   0.862 -0.1316  0.1999  1.0977
 9731SOL    HW230093   4.470   4.542   0.822  1.9061 -1.0884 -0.3448
 9732SOL     OW30094   6.350   6.318   2.890 -0.4752  0.0274 -0.4877
 9732SOL    HW130095   6.341   6.351   2.984  2.2496 -0.4491  0.0199
 9732SOL    HW230096   6.281   6.361   2.832 -0.5251  2.3781  1.2123
 9733SOL     OW30097   4.596   5.740   1.970 -0.1773 -0.1807 -0.6051
 9733SOL    HW130098   4.677   5.695   1.932  0.4909  1.5342 -1.2768
 9733SOL    HW230099   4.524   5.743   1.901 -0.6834 -1.2974 -0.1535
 9734SOL     OW30100   5.296   3.045   3.290 -0.1973 -0.0985  0.1884
 9734SOL    HW130101   5.241   3.075   3.212 -2.7054 -0.1983  1.8219
 9734SOL    HW230102   5.322   2.949   3.277 -0.2505 -0.0100 -0.6569
 9735SOL     OW30103   1.671   3.356   2.451  0.0956  0.7451  0.3068
 9735SOL    HW130104   1.698   3.452   2.455  0.5127  0.6116  0.6563
 9735SOL    HW230105   1.713   3.313   2.371  1.7054  0.2999  1.3537
 9736SOL     OW30106   6.583   2.737   4.389  0.9081 -0.2377  0.0554
 9736SOL    HW130107   6.677   2.702   4.389  0.3455 -1.8532  0.9781
 9736SOL    HW230108   6.533   2.698   4.467 -0.8476 -0.2546 -1.0310
 9737SOL     OW30109   6.765   3.984   2.874 -0.2385 -0.5407  0.4965
 9737SOL    HW130110   6.773   4.057   2.806  0.8547 -1.5846 -0.5555
 9737SOL    HW230111   6.800   4.016   2.962  0.2671  0.1935  0.0415
 9738SOL     OW30112   3.003   0.245   1.602 -0.1560  0.4891  0.5861
 9738SOL    HW130113   3.065   0.166   1.595 -2.0862 -1.2315  1.6228
 9738SOL    HW230114   2.982   0.279   1.511  2.0690  0.9958  0.1923
 9739SOL     OW30115   0.843   6.214   2.392 -0.1248 -0.2137 -0.3975
 9739SOL    HW130116   0.919   6.153   2.369  1.1889  1.2469 -0.0944
 9739SOL    HW230117   0.828   6.213   2.491  1.5816  1.7476 -0.0428
 9740SOL     OW30118   4.633   1.235   4.198  0.5740 -0.0715 -0.0722
 9740SOL    HW130119   4.708   1.195   4.251  1.6082  1.0589 -0.6247
 9740SOL    HW230120   4.595   1.166   4.136  1.7553 -0.4422 -0.4182
 9741SOL     OW30121   0.497   2.767   1.372  0.3146  0.3004 -0.1080
 9741SOL    HW130122   0.533   2.690   1.319 -0.7601 -0.8091  0.7157
 9741SOL    HW230123   0.564   2.794   1.441 -0.2027 -1.4918  1.1633
 9742SOL     OW30124   2.743   6.189   1.792 -0.4878  0.5810  0.0263
 9742SOL    HW130125   2.660   6.207   1.740  0.3469  1.6290 -0.9856
 9742SOL    HW230126   2.802   6.126   1.741 -1.5496 -1.9248  1.6981
 9743SOL     OW30127   0.880   2.022   3.721  0.5851  0.2208 -0.4486
 9743SOL    HW130128   0.880   1.988   3.815  2.2870 -2.5971 -1.3505
 9743SOL    HW230129   0.974   2.035   3.690  0.0610  0.8006 -1.8904
 9744SOL     OW30130   0.016   6.938   2.444 -0.5432  0.2020  0.2117
 9744SOL    HW130131   0.088   6.904   2.383 -1.4157 -0.2428 -0.5881
 9744SOL    HW230132   0.040   7.030   2.476  1.6150 -0.8859  1.9976
 9745SOL     OW30133   0.001   2.087   5.250  0.3170 -0.1532  0.0607
 9745SOL    HW130134   0.029   2.183   5.239  0.0079 -0.1029 -0.2965
 9745SOL    HW230135  -0.067   2.064   5.181  1.0994 -0.9126 -0.4839
 9746SOL     OW30136   0.623   1.300   5.869 -0.4850  0.7915  0.8909
 9746SOL    HW130137   0.610   1.369   5.797  0.1406  2.2557  2.1222
 9746SOL    HW230138   0.534   1.263   5.896 -0.7367  0.2887 -0.5349
 9747SOL     OW30139   6.550   0.221   2.073 -0.0048  0.0973 -0.1303
 9747SOL    HW130140   6.598   0.301   2.038 -0.5640 -0.0931 -1.3911
 9747SOL    HW230141   6.452   0.231   2.056 -0.2608 -0.1986  1.0460
 9748SOL     OW30142   1.731   2.798   4.092 -0.1445 -0.4315  0.0868
 9748SOL    HW130143   1.712   2.746   4.176  0.9383  1.0597  1.3300
 9748SOL    HW230144   1.668   2.876   4.087 -0.6023 -0.8518 -0.8304
 9749SOL     OW30145   1.560   1.947   4.246  0.2393  0.3118  0.5845
 9749SOL    HW130146   1.601   1.912   4.161 -1.1813  0.1487 -0.0687
 9749SOL    HW230147   1.616   2.021   4.282  1.5770 -0.4851  0.2315
 9750SOL     OW30148   4.970   5.880   2.963 -0.0665 -0.3630 -0.1320
 9750SOL    HW130149   5.049   5.926   2.921 -0.5089 -0.6207 -1.2731
 9750SOL    HW230150   4.920   5.829   2.893 -2.4365  1.4395  0.1269
 9751SOL     OW30151   2.602   0.992   6.303 -0.6160  0.3478  0.3386
 9751SOL    HW130152   2.543   0.982   6.222 -1.3474 -2.3171  1.0969
 9751SOL    HW230153   2.678   0.928   6.297  0.5059  1.5846  0.8405
 9752SOL     OW30154   6.924   2.266   5.508  0.0186  0.2788 -0.0118
 9752SOL    HW130155   6.915   2.258   5.607 -0.5525  1.3609  0.0364
 9752SOL    HW230156   6.963   2.182   5.471 -0.2330 -0.3279  1.0719
 9753SOL     OW30157   6.056   5.973   5.973  0.0291  0.9413  0.1203
 9753SOL    HW130158   6.061   6.064   6.014 -0.8935  2.2190 -2.3699
 9753SOL    HW230159   6.146   5.947   5.940  0.3638  0.7843  1.1308
 9754SOL     OW30160   1.406   0.864   1.401 -0.9528 -0.0392  0.1949
 9754SOL    HW130161   1.388   0.887   1.497 -0.8541  0.7274  0.0405
 9754SOL    HW230162   1.451   0.942   1.356  0.2818 -0.9045 -0.1239
 9755SOL     OW30163   4.084   3.582   5.009  0.1236  0.0446 -0.7090
 9755SOL    HW130164   4.124   3.490   5.018 -0.3376 -0.3833 -2.5800
 9755SOL    HW230165   3.985   3.577   5.022  0.2467  0.5417  0.5731
 9756SOL     OW30166   6.427   3.757   0.356 -0.6288  0.0734  0.1490
 9756SOL    HW130167   6.440   3.697   0.434  1.1923  1.1526  0.7305
 9756SOL    HW230168   6.495   3.736   0.286 -0.7546  0.6366 -0.1474
 9757SOL     OW30169   5.147   4.529   2.854  0.2164  0.2893 -0.1696
 9757SOL    HW130170   5.149   4.464   2.930 -3.4879 -0.9561 -0.9651
 9757SOL    HW230171   5.183   4.486   2.771  0.6546  0.3560 -0.0201
 9758SOL     OW30172   6.551   5.496   5.759  0.3110  0.0223  0.8137
 9758SOL    HW130173   6.493   5.523   5.836 -0.8492 -0.3340  0.1063
 9758SOL    HW230174   6.519   5.542   5.676  0.6220 -0.6976  0.2868
 9759SOL     OW30175   2.633   4.161   0.009  0.6515 -0.0999 -0.4775
 9759SOL    HW130176   2.680   4.169  -0.079 -0.5767  1.6618 -1.0369
 9759SOL    HW230177   2.607   4.252   0.042  0.4726 -0.7721  1.3901
 9760SOL     OW30178   5.232   4.600   4.003  0.3827  0.0455 -0.2134
 9760SOL    HW130179   5.321   4.616   3.961  1.3403 -1.2965  1.2018
 9760SOL    HW230180   5.219   4.664   4.079  1.9104 -2.1810  2.0678
 9761SOL     OW30181   6.821   6.465   0.769  0.1655  0.1807  0.5561
 9761SOL    HW130182   6.856   6.371   0.779  1.0495  0.6210  1.8425
 9761SOL    HW230183   6.896   6.524   0.739 -0.6037  0.3368 -1.1544
 9762SOL     OW30184   1.129   0.869   4.878 -0.1578  0.2791 -0.4023
 9762SOL    HW130185   1.135   0.769   4.878 -4.9254 -0.2423  0.6842
 9762SOL    HW230186   1.127   0.903   4.784  0.9565 -0.6824 -0.7860
 9763SOL     OW30187   5.903   0.441   1.454  0.2617  0.1169  0.6153
 9763SOL    HW130188   5.927   0.435   1.551  1.9203  0.5894  0.2588
 9763SOL    HW230189   5.971   0.393   1.399 -1.8164 -2.0544 -0.2267
 9764SOL     OW30190   6.501   4.425   1.957 -0.4867 -0.2809 -0.1024
 9764SOL    HW130191   6.410   4.444   1.919 -0.9832  0.1474  1.2260
 9764SOL    HW230192   6.560   4.504   1.942 -1.0761  0.4246  1.1019
 9765SOL     OW30193   0.127   1.152   2.641  0.2546 -0.6101  0.0744
 9765SOL    HW130194   0.089   1.243   2.625 -0.0570 -1.0102 -1.6549
 9765SOL    HW230195   0.054   1.089   2.667  0.3610 -0.5235  0.5891
 9766SOL     OW30196   3.157   0.557   4.777 -0.0014 -0.3632  0.4211
 9766SOL    HW130197   3.238   0.615   4.773  1.3454 -2.1871 -0.0805
 9766SOL    HW230198   3.159   0.503   4.861  0.7258 -2.2914 -0.7614
 9767SOL     OW30199   4.653   1.379   5.178 -0.2885 -0.5059  0.4578
 9767SOL    HW130200   4.727   1.446   5.186  0.3150 -1.1987  0.9102
 9767SOL    HW230201   4.667   1.325   5.095 -0.1473 -0.7927  0.6658
 9768SOL     OW30202   5.096   2.353   3.387  0.2474  0.1971  0.5276
 9768SOL    HW130203   5.032   2.286   3.352 -0.1039  0.7868  0.0113
 9768SOL    HW230204   5.049   2.414   3.451 -0.0974  1.4718 -0.8616
 9769SOL     OW30205   0.332   1.620   2.869 -0.3939  0.3659  0.3686
 9769SOL    HW130206   0.367   1.594   2.778 -1.2470  0.7814 -0.0910
 9769SOL    HW230207   0.249   1.674   2.858  0.2068  1.5433  1.3745
 9770SOL     OW30208   0.452   1.165   0.896  0.0200 -0.7073 -0.2502
 9770SOL    HW130209   0.546   1.177   0.866 -0.0043  1.1351  0.2733
 9770SOL    HW230210   0.393   1.231   0.850 -0.9096 -1.3585 -0.0364
 9771SOL     OW30211   4.234   5.286   0.522 -0.1413  0.0187 -0.2181
 9771SOL    HW130212   4.288   5.355   0.475 -0.5491 -0.5932 -1.6286
 9771SOL    HW230213   4.198   5.220   0.456  0.2711 -1.5922  1.0738
 9772SOL     OW30214   0.004   5.475   3.452  0.1421  0.0904 -0.2245
 9772SOL    HW130215  -0.004   5.558   3.507  0.2696  1.3705 -2.0618
 9772SOL    HW230216   0.064   5.410   3.499  0.1176  1.0623  1.2153
 9773SOL     OW30217   5.230   1.219   4.908  0.3423 -0.4410  0.2874
 9773SOL    HW130218   5.204   1.224   4.812  0.2371 -2.4172  0.1737
 9773SOL    HW230219   5.311   1.276   4.923  0.8564 -0.7401 -1.1595
 9774SOL     OW30220   6.686   4.603   1.675 -0.0768 -0.3277  0.1586
 9774SOL    HW130221   6.706   4.609   1.772  0.8249  0.5905 -0.0613
 9774SOL    HW230222   6.759   4.551   1.630 -0.8418 -1.3482  0.0552
 9775SOL     OW30223   1.414   1.776   4.660 -0.0215 -0.0172  0.1372
 9775SOL    HW130224   1.433   1.739   4.751 -0.7858  1.0427  0.7398
 9775SOL    HW230225   1.316   1.770   4.641  0.2645 -1.3048 -1.1156
 9776SOL     OW30226   6.759   6.523   4.338  0.2864 -0.2852  0.4139
 9776SOL    HW130227   6.808   6.487   4.417  0.3362 -1.0779  0.0276
 9776SOL    HW230228   6.817   6.590   4.291  0.3005  0.1039  0.9726
 9777SOL     OW30229   6.310   4.109   0.443 -0.2945 -0.3454  0.0260
 9777SOL    HW130230   6.254   4.171   0.498  1.3200  1.9536 -0.7922
 9777SOL    HW230231   6.276   4.107   0.349  1.2007  1.5146 -0.6217
 9778SOL     OW30232   5.946   6.893   4.159  0.0537  0.2324 -0.1030
 9778SOL    HW130233   5.861   6.863   4.116  1.6284 -0.9875 -2.5799
 9778SOL    HW230234   5.988   6.816   4.207 -0.3532  0.9108  1.3914
 9779SOL     OW30235   2.935   1.036   6.165  0.3421 -0.1698 -0.7387
 9779SOL    HW130236   2.853   1.090   6.183  0.8332 -0.2017  2.1482
 9779SOL    HW230237   3.013   1.096   6.147  0.6392  0.1596  1.3266
 9780SOL     OW30238   1.641   1.131   5.360 -0.1507  0.4926 -0.1260
 9780SOL    HW130239   1.595   1.212   5.398  0.4945  0.2570  1.2384
 9780SOL    HW230240   1.677   1.076   5.435  1.6022  0.2258 -1.1242
 9781SOL     OW30241   1.445   4.001   4.967 -0.2846  0.7927  0.4420
 9781SOL    HW130242   1.411   4.040   5.052 -1.6374  0.5160  0.0476
 9781SOL    HW230243   1.405   3.910   4.954  0.3618  0.5913 -0.2074
 9782SOL     OW30244   5.921   0.836   2.507 -0.3288  0.4973 -0.1843
 9782SOL    HW130245   5.961   0.914   2.458  0.0034  0.6180  0.2731
 9782SOL    HW230246   5.953   0.836   2.601  1.1029 -1.2272 -0.6304
 9783SOL     OW30247   5.053   1.788   2.145 -0.3722 -0.2425 -0.6244
 9783SOL    HW130248   4.962   1.829   2.143  0.1669  1.2263  1.4399
 9783SOL    HW230249   5.115   1.843   2.088 -0.1262  0.5834  0.4191
 9784SOL     OW30250   3.019   0.999   5.471  0.0725  0.3464 -0.1770
 9784SOL    HW130251   2.958   0.975   5.547  0.0449  1.4213  0.1607
 9784SOL    HW230252   2.982   0.961   5.386 -0.3281 -0.1868  0.2217
 9785SOL     OW30253   5.528   4.181   5.628 -0.5870 -0.2486 -0.0014
 9785SOL    HW130254   5.444   4.128   5.624 -0.6794 -0.0436 -1.7823
 9785SOL    HW230255   5.603   4.127   5.589 -0.1482  0.0010  0.4891
 9786SOL     OW30256   2.891   6.335   0.382  0.4794 -0.1380  0.7341
 9786SOL    HW130257   2.972   6.367   0.334 -0.2147  0.4938 -0.0338
 9786SOL    HW230258   2.906   6.340   0.481  1.1667  0.5054  0.5961
 9787SOL     OW30259   4.497   5.267   6.961 -0.5828 -0.1232 -0.1984
 9787SOL    HW130260   4.461   5.174   6.958 -1.6813  0.2079  1.2837
 9787SOL    HW230261   4.597   5.265   6.960 -0.5995 -1.3009 -0.4457
 9788SOL     OW30262   0.934   0.693   4.301 -0.1624  0.1185 -0.3744
 9788SOL    HW130263   0.852   0.691   4.243 -0.7496 -1.3853  0.4549
 9788SOL    HW230264   0.908   0.672   4.395  1.0578  0.6282  0.0964
 9789SOL     OW30265   0.320   5.064   0.234  0.1764  0.4598  0.0539
 9789SOL    HW130266   0.279   5.094   0.148 -1.0544 -0.3990  0.3114
 9789SOL    HW230267   0.248   5.050   0.302  0.7523 -1.9716  0.2612
 9790SOL     OW30268   5.190   3.634   5.786  0.3366  0.2456  0.0170
 9790SOL    HW130269   5.159   3.588   5.869  0.8381  0.0949  0.1247
 9790SOL    HW230270   5.286   3.612   5.770 -0.0777 -0.7703 -1.2983
 9791SOL     OW30271   5.613   6.585   4.068  0.1865  0.4582 -0.2328
 9791SOL    HW130272   5.682   6.528   4.114 -0.1208  0.1562 -0.1433
 9791SOL    HW230273   5.644   6.680   4.067 -0.5288  0.7881  2.0856
 9792SOL     OW30274   4.836   4.775   1.663  0.2992  0.1210 -0.4841
 9792SOL    HW130275   4.800   4.690   1.701 -0.6419  0.3119 -0.9207
 9792SOL    HW230276   4.866   4.835   1.737  0.0604 -0.2003 -0.1284
 9793SOL     OW30277   5.199   4.480   3.687  0.2737  0.2654  0.7284
 9793SOL    HW130278   5.214   4.552   3.755 -0.3508  1.0281  0.0778
 9793SOL    HW230279   5.287   4.443   3.658  0.7681  2.0711 -0.2844
 9794SOL     OW30280   1.551   6.302   6.130  0.2080 -0.3357  0.3928
 9794SOL    HW130281   1.572   6.208   6.159 -0.4317 -0.6115 -0.0192
 9794SOL    HW230282   1.594   6.366   6.194  1.0461 -0.8946  0.4200
 9795SOL     OW30283   1.646   2.943   4.803 -0.1233  0.6880  0.2298
 9795SOL    HW130284   1.715   2.883   4.761  1.4813  1.2582  1.8875
 9795SOL    HW230285   1.643   2.926   4.901 -3.5383 -0.3909  0.0711
 9796SOL     OW30286   6.265   1.221   0.852  1.0060 -0.1050  0.3743
 9796SOL    HW130287   6.241   1.240   0.947  2.2931 -1.5481  1.0227
 9796SOL    HW230288   6.313   1.300   0.813  0.7515  0.3750  1.0136
 9797SOL     OW30289   3.113   3.981   6.862  0.2161  0.4383  0.7702
 9797SOL    HW130290   3.087   3.925   6.941 -0.3785 -1.0485 -0.4132
 9797SOL    HW230291   3.211   3.999   6.864  0.2228  0.3384  1.7812
 9798SOL     OW30292   3.130   0.810   6.779 -0.4888  0.1344  0.0272
 9798SOL    HW130293   3.048   0.792   6.725  1.0711 -0.0076 -2.4774
 9798SOL    HW230294   3.163   0.724   6.819 -1.0133  0.0155  0.2084
 9799SOL     OW30295   3.016   3.988   2.667  0.3466 -1.0904 -1.2227
 9799SOL    HW130296   3.084   4.055   2.639  1.3038 -1.5304 -0.0496
 9799SOL    HW230297   2.967   4.021   2.748  1.4222 -2.1076 -0.1026
 9800SOL     OW30298   2.656   4.687   5.995 -0.0659  0.3455  0.7388
 9800SOL    HW130299   2.595   4.743   5.939  2.2284  3.2051  0.8588
 9800SOL    HW230300   2.719   4.638   5.936  0.4003  0.9641  0.7160
 9801SOL     OW30301   4.435   5.744   1.309 -0.1776  0.2249 -0.0452
 9801SOL    HW130302   4.495   5.811   1.353 -1.8307  0.0152  2.8048
 9801SOL    HW230303   4.384   5.788   1.235 -2.0291  2.6062  2.4269
 9802SOL     OW30304   1.788   3.253   2.240  0.1746 -0.2593  0.0547
 9802SOL    HW130305   1.815   3.160   2.217  0.9081 -0.1125  0.2758
 9802SOL    HW230306   1.869   3.312   2.239 -0.1472  0.2077  0.7437
 9803SOL     OW30307   0.286   1.414   1.300  0.2710  0.1201 -0.2430
 9803SOL    HW130308   0.346   1.449   1.372 -1.4171  2.2289  0.2356
 9803SOL    HW230309   0.294   1.472   1.219 -1.3968  0.7261 -0.0104
 9804SOL     OW30310   1.090   5.959   3.796  0.4332  0.8657 -0.6017
 9804SOL    HW130311   1.101   6.035   3.733  1.4085  2.1296  1.0085
 9804SOL    HW230312   1.169   5.955   3.858  1.0157 -2.1919 -1.3462
 9805SOL     OW30313   0.154   0.202   6.300  0.1776 -0.6644 -0.1925
 9805SOL    HW130314   0.133   0.299   6.309 -1.6965 -1.0599  0.1968
 9805SOL    HW230315   0.177   0.181   6.205  2.2467  0.4156  0.0276
 9806SOL     OW30316   0.227   1.700   0.436 -0.8684  0.3105  0.0620
 9806SOL    HW130317   0.259   1.766   0.505 -1.3368  0.1043  0.4818
 9806SOL    HW230318   0.193   1.750   0.357  0.8754  0.5370 -0.5959
 9807SOL     OW30319   4.132   1.379   6.616 -0.0237 -0.1350 -0.5269
 9807SOL    HW130320   4.124   1.477   6.599 -2.2854 -0.0799  0.4604
 9807SOL    HW230321   4.159   1.364   6.711  0.1777 -0.4652 -0.6369
 9808SOL     OW30322   5.827   1.123   5.159  0.3382 -0.0175 -0.1280
 9808SOL    HW130323   5.816   1.116   5.060  1.4366  0.6045 -0.3057
 9808SOL    HW230324   5.885   1.201   5.181 -0.1172  0.0152  1.0305
 9809SOL     OW30325   0.325   2.607   6.139  0.4502  0.0250  0.2618
 9809SOL    HW130326   0.346   2.512   6.116  0.9454 -0.5346  2.7778
 9809SOL    HW230327   0.367   2.667   6.071  0.1177 -1.5176 -1.3896
 9810SOL     OW30328   1.923   2.972   5.318 -0.8350 -0.0019 -0.0845
 9810SOL    HW130329   1.887   3.048   5.372 -3.3113  0.3472 -2.0141
 9810SOL    HW230330   2.008   3.000   5.273 -0.7958  1.0133  0.5942
 9811SOL     OW30331   5.261   5.603   3.489 -0.4004 -0.9429 -0.2857
 9811SOL    HW130332   5.325   5.631   3.417  1.6563 -0.8150  1.4784
 9811SOL    HW230333   5.290   5.515   3.527 -1.4902 -1.0596  0.3210
 9812SOL     OW30334   4.692   2.924   6.930 -0.0767 -0.1898 -0.0999
 9812SOL    HW130335   4.659   2.837   6.966  0.2229 -0.7372 -1.1233
 9812SOL    HW230336   4.694   2.992   7.004 -3.2735 -0.1607  0.1265
 9813SOL     OW30337   5.614   0.666   6.741 -0.1343 -0.6613  0.9775
 9813SOL    HW130338   5.548   0.603   6.700 -1.0066  0.5059  0.5428
 9813SOL    HW230339   5.685   0.613   6.788 -1.4071 -1.9572  1.5386
 9814SOL     OW30340   1.452   1.047   6.482 -0.5192 -0.1351  0.3270
 9814SOL    HW130341   1.465   1.098   6.397  0.3664 -0.6298  0.1596
 9814SOL    HW230342   1.356   1.054   6.511 -1.3357 -1.5887 -1.7682
 9815SOL     OW30343   5.610   2.080   5.208  1.0544 -0.0493 -0.6224
 9815SOL    HW130344   5.514   2.109   5.217  1.1069 -0.1273  0.3729
 9815SOL    HW230345   5.627   2.048   5.115  0.5725  1.5646 -1.2921
 9816SOL     OW30346   0.120   0.797   6.397  0.1389 -0.1451  0.3126
 9816SOL    HW130347   0.135   0.864   6.324  0.3882  2.2133  2.3613
 9816SOL    HW230348   0.208   0.761   6.427  0.2181  0.3623  0.7062
 9817SOL     OW30349   3.164   6.404   3.226 -0.0666 -0.2038  0.3940
 9817SOL    HW130350   3.178   6.371   3.133 -1.6471  2.0029 -0.6911
 9817SOL    HW230351   3.124   6.331   3.282 -0.6773 -1.0401 -1.0998
 9818SOL     OW30352   2.476   1.792   5.299  0.1495 -0.1553  0.0952
 9818SOL    HW130353   2.450   1.697   5.318 -0.6065  0.0321  0.0457
 9818SOL    HW230354   2.501   1.838   5.385  1.2182 -0.5928  0.0290
 9819SOL     OW30355   6.299   1.518   6.868 -0.2233  0.3512  0.0965
 9819SOL    HW130356   6.378   1.579   6.855 -0.5911  0.9054  0.3883
 9819SOL    HW230357   6.262   1.531   6.960  0.3475 -1.1207  0.5623
 9820SOL     OW30358   3.126   2.873   1.123  0.4529 -0.2063  0.0918
 9820SOL    HW130359   3.072   2.788   1.123  2.2782 -1.4690  2.0366
 9820SOL    HW230360   3.078   2.942   1.070 -2.0560 -1.8600  0.0046
 9821SOL     OW30361   3.810   1.765   1.410 -0.1946  0.2752 -0.1088
 9821SOL    HW130362   3.817   1.763   1.510 -0.4391  1.6155 -0.0559
 9821SOL    HW230363   3.886   1.819   1.373 -0.3372  0.1253 -0.6217
 9822SOL     OW30364   4.523   5.979   2.697  0.4255  0.4769 -0.1063
 9822SOL    HW130365   4.622   5.965   2.692  0.7614  2.3092  0.5210
 9822SOL    HW230366   4.500   6.070   2.662 -0.8831  0.5829  0.9427
 9823SOL     OW30367   0.636   1.073   2.480 -0.2736  0.3385 -0.2266
 9823SOL    HW130368   0.722   1.094   2.527  0.2981  0.1493 -1.1570
 9823SOL    HW230369   0.561   1.121   2.525  0.2879  0.3762  0.7011
 9824SOL     OW30370   1.425   6.941   4.181 -0.3116 -0.2848  0.0768
 9824SOL    HW130371   1.349   6.882   4.154 -0.8594  1.3371 -2.1832
 9824SOL    HW230372   1.509   6.887   4.183 -0.6957 -1.1331 -2.4892
 9825SOL     OW30373   0.883   0.237   6.313 -0.6782 -0.0790 -0.4128
 9825SOL    HW130374   0.971   0.273   6.283 -1.2405  2.3769  0.6163
 9825SOL    HW230375   0.898   0.154   6.367  0.6877 -1.5597 -2.9171
 9826SOL     OW30376   1.391   6.303   4.311 -0.3339  0.0654  0.5643
 9826SOL    HW130377   1.303   6.261   4.336 -0.5534  0.2349  0.1023
 9826SOL    HW230378   1.377   6.401   4.296 -0.2809 -0.0716 -0.4804
 9827SOL     OW30379   1.447   3.751   5.520 -0.0291 -0.1172 -0.0491
 9827SOL    HW130380   1.524   3.712   5.571 -0.0195 -0.6282 -0.4405
 9827SOL    HW230381   1.372   3.772   5.584 -0.3091 -1.4656  0.1068
 9828SOL     OW30382   4.170   1.339   3.629 -0.4685  0.3503 -0.2776
 9828SOL    HW130383   4.162   1.379   3.721  0.8325  2.1084 -0.8768
 9828SOL    HW230384   4.229   1.258   3.634  1.2432  1.5549  0.1942
 9829SOL     OW30385   6.528   5.428   6.391  0.2940  0.3799  0.0858
 9829SOL    HW130386   6.553   5.350   6.334 -1.3791 -1.3622  1.6174
 9829SOL    HW230387   6.588   5.432   6.471  0.6825  0.9594 -0.2324
 9830SOL     OW30388   6.534   2.193   1.231 -0.5349  0.3015 -0.3076
 9830SOL    HW130389   6.564   2.287   1.247  0.8119 -0.2959  0.8545
 9830SOL    HW230390   6.497   2.155   1.315  0.1808 -0.6391 -0.3961
 9831SOL     OW30391   6.359   4.485   2.337 -0.0804  0.2345 -0.3474
 9831SOL    HW130392   6.386   4.390   2.352 -0.4072  0.3795  1.4467
 9831SOL    HW230393   6.438   4.545   2.347 -0.0847  0.2342 -0.3099
 9832SOL     OW30394   3.342   6.419   3.460  0.2114 -0.2884  0.2715
 9832SOL    HW130395   3.420   6.360   3.478 -0.1611 -0.7710  0.3180
 9832SOL    HW230396   3.330   6.430   3.362  1.3722  1.1848  0.2454
 9833SOL     OW30397   3.268   3.015   3.056  0.1397  0.2571  0.0204
 9833SOL    HW130398   3.337   2.989   3.123 -0.7873 -0.5272  0.6928
 9833SOL    HW230399   3.294   3.101   3.012  1.1234  0.3898  0.8500
 9834SOL     OW30400   2.662   3.256   5.899  0.5360  0.4258 -0.3950
 9834SOL    HW130401   2.590   3.247   5.968  1.5683  0.4289  0.7314
 9834SOL    HW230402   2.656   3.180   5.834  0.8797 -0.8530  1.0099
 9835SOL     OW30403   3.751   3.021   4.607 -0.0640 -0.3375  0.2676
 9835SOL    HW130404   3.843   2.995   4.634 -0.2264  0.7453  2.0305
 9835SOL    HW230405   3.685   2.954   4.642 -0.0952 -0.1086  0.6491
 9836SOL     OW30406   0.720   5.372   3.882 -0.1973 -0.2963 -0.2719
 9836SOL    HW130407   0.758   5.398   3.793  0.6142 -0.7094 -0.0612
 9836SOL    HW230408   0.638   5.426   3.901  0.0436  0.3185 -0.9355
 9837SOL     OW30409   0.348   6.338   2.348 -0.4704  0.5067 -0.6308
 9837SOL    HW130410   0.393   6.299   2.268  0.8242  0.5661  0.0473
 9837SOL    HW230411   0.377   6.290   2.430  1.0642  2.7395  0.2167
 9838SOL     OW30412   6.576   5.683   1.567  0.5796 -0.3050  0.3400
 9838SOL    HW130413   6.601   5.610   1.502  2.1682 -1.0668  1.7130
 9838SOL    HW230414   6.595   5.652   1.660 -0.2541  1.2968  1.0750
 9839SOL     OW30415   3.754   6.395   1.874  0.1850 -0.4229 -0.2174
 9839SOL    HW130416   3.757   6.394   1.974 -0.3347 -2.2037 -0.1839
 9839SOL    HW230417   3.843   6.365   1.838  0.2513 -0.1444 -0.2871
 9840SOL     OW30418   4.443   2.025   6.871 -0.1248 -0.3795  0.1610
 9840SOL    HW130419   4.371   2.077   6.917  1.1434  1.3312  0.3182
 9840SOL    HW230420   4.468   2.071   6.786  1.5351 -0.2688  0.6642
 9841SOL     OW30421   5.437   4.906   3.842  0.1440  0.2799 -0.5983
 9841SOL    HW130422   5.376   4.941   3.914  1.0267 -0.2158  0.4219
 9841SOL    HW230423   5.386   4.898   3.757 -0.0709  4.3270 -1.0456
 9842SOL     OW30424   3.493   2.383   6.680  0.4109  0.1464  0.4415
 9842SOL    HW130425   3.403   2.344   6.697  0.6633 -1.0771 -0.8571
 9842SOL    HW230426   3.487   2.483   6.683 -1.4230  0.1693 -1.4592
 9843SOL     OW30427   6.814   6.007   2.756  0.0091  0.0876 -0.4106
 9843SOL    HW130428   6.874   6.067   2.809  1.2206 -1.7679  0.4227
 9843SOL    HW230429   6.740   6.061   2.717  0.5327  1.9687  1.0175
 9844SOL     OW30430   5.943   6.332   4.096  0.0922 -0.1384 -0.0847
 9844SOL    HW130431   6.032   6.344   4.051 -0.9151  0.8166 -1.9401
 9844SOL    HW230432   5.893   6.259   4.050  0.8557 -2.5884  2.6286
 9845SOL     OW30433   0.363   2.653   4.895  0.1389 -0.1234  0.1945
 9845SOL    HW130434   0.283   2.683   4.843 -1.0158 -0.6124  1.5939
 9845SOL    HW230435   0.417   2.732   4.923  0.1015  0.2224 -0.6743
 9846SOL     OW30436   5.905   0.010   0.473  0.3875 -0.1893 -0.0380
 9846SOL    HW130437   5.817   0.044   0.441  0.4621 -0.0221 -0.0683
 9846SOL    HW230438   5.949   0.079   0.531 -0.1655 -0.8426  1.2097
 9847SOL     OW30439   4.294   3.946   0.495 -0.6816 -0.1176 -0.0152
 9847SOL    HW130440   4.353   3.978   0.421 -0.3948  1.3912  0.8333
 9847SOL    HW230441   4.311   3.999   0.577 -0.3389 -2.3604  1.4436
 9848SOL     OW30442   5.174   4.769   5.731  0.0929  0.2990  0.3038
 9848SOL    HW130443   5.169   4.837   5.658 -0.7969  0.2146  0.2669
 9848SOL    HW230444   5.148   4.813   5.818  0.5592  0.2584  0.4634
 9849SOL     OW30445   0.853   5.499   0.860 -0.3258 -0.2504  0.4902
 9849SOL    HW130446   0.823   5.563   0.789  2.3879  0.6563  0.0559
 9849SOL    HW230447   0.899   5.421   0.816 -0.6104 -0.8096  1.1736
 9850SOL     OW30448   1.380   6.887   3.828 -0.5280 -0.2796 -0.3064
 9850SOL    HW130449   1.313   6.953   3.864 -0.6136 -0.8002  0.5083
 9850SOL    HW230450   1.472   6.918   3.849 -0.5259  0.2368 -1.0737
 9851SOL     OW30451   3.840   6.804   3.684  0.4980  0.3853  0.3340
 9851SOL    HW130452   3.826   6.729   3.749 -0.5260 -0.7509 -1.1083
 9851SOL    HW230453   3.752   6.848   3.665  0.4490 -0.3789 -1.4591
 9852SOL     OW30454   1.231   2.105   6.348  0.2230  0.0455  0.1943
 9852SOL    HW130455   1.273   2.091   6.258  0.4984 -3.1854  0.7382
 9852SOL    HW230456   1.294   2.155   6.407  0.5848  1.0123 -0.9622
 9853SOL     OW30457   6.465   4.943   4.709  0.0716  0.2634  0.0695
 9853SOL    HW130458   6.561   4.967   4.694 -0.0732  0.2902 -0.8919
 9853SOL    HW230459   6.438   4.873   4.643 -0.8304  0.9456 -0.3060
 9854SOL     OW30460   6.531   6.368   5.408  0.4448 -0.0841 -0.6505
 9854SOL    HW130461   6.434   6.355   5.386  0.3067 -0.2205  0.0069
 9854SOL    HW230462   6.560   6.458   5.377  0.1517 -0.1057 -0.9975
 9855SOL     OW30463   3.582   2.145   2.611  0.3476 -0.0570  0.0925
 9855SOL    HW130464   3.497   2.190   2.582  1.1841  1.9780  0.6185
 9855SOL    HW230465   3.647   2.145   2.535  0.3600 -0.3324  0.1045
 9856SOL     OW30466   5.289   5.433   3.886  0.0786 -0.8750 -0.3160
 9856SOL    HW130467   5.262   5.337   3.892 -0.5751 -0.6245  1.0064
 9856SOL    HW230468   5.211   5.488   3.857  0.5374 -0.7580 -1.3929
 9857SOL     OW30469   4.213   2.497   1.204  0.0158 -0.2092 -0.0719
 9857SOL    HW130470   4.241   2.584   1.246  1.0166 -0.4150 -0.3143
 9857SOL    HW230471   4.138   2.458   1.258  0.4201  0.1641  0.7818
 9858SOL     OW30472   0.359   6.904   3.545  0.8850 -0.6913  0.3611
 9858SOL    HW130473   0.404   6.927   3.631  3.2021 -2.8796 -0.1632
 9858SOL    HW230474   0.399   6.958   3.471  0.3061 -0.2918  0.3271
 9859SOL     OW30475   1.573   5.469   5.532  0.7212  0.2730 -0.1314
 9859SOL    HW130476   1.524   5.438   5.613 -0.3110 -1.1933 -1.2575
 9859SOL    HW230477   1.637   5.397   5.502  2.1332  1.3613  0.1514
 9860SOL     OW30478   2.259   2.038   4.941  0.1351 -0.2593 -0.2233
 9860SOL    HW130479   2.343   2.019   4.992 -0.0221  0.2819  0.2485
 9860SOL    HW230480   2.215   2.120   4.978 -0.5910 -0.5241 -0.4752
 9861SOL     OW30481   3.761   1.319   5.928  0.1585  0.5520 -0.0577
 9861SOL    HW130482   3.742   1.288   5.835  1.8364  2.1606 -1.0167
 9861SOL    HW230483   3.858   1.344   5.935 -0.1365  1.3244  1.8700
 9862SOL     OW30484   2.129   5.000   1.178 -0.1848 -0.2677 -0.1953
 9862SOL    HW130485   2.131   5.098   1.157 -1.8132 -0.4222 -1.2189
 9862SOL    HW230486   2.098   4.987   1.272 -1.2290  0.1579 -0.4734
 9863SOL     OW30487   4.906   6.555   0.717 -0.1815  0.3665  0.2807
 9863SOL    HW130488   4.987   6.614   0.716  0.1865 -0.1105 -1.2920
 9863SOL    HW230489   4.925   6.473   0.662 -2.3716  1.1461 -1.7923
 9864SOL     OW30490   2.662   1.137   4.676 -0.1522 -0.5144 -0.2143
 9864SOL    HW130491   2.671   1.133   4.576  0.1764  1.2371 -0.2806
 9864SOL    HW230492   2.566   1.153   4.700 -0.1628 -0.4948 -0.2694
 9865SOL     OW30493   2.385   6.962   3.006  0.2689  0.1651  0.2858
 9865SOL    HW130494   2.302   7.008   2.975  0.9871  0.3730 -1.4618
 9865SOL    HW230495   2.462   7.026   3.002  0.7477 -0.3725  0.7001
 9866SOL     OW30496   5.946   4.948   5.731 -0.4556 -0.8481  0.7429
 9866SOL    HW130497   6.039   4.959   5.765 -0.5012  0.4691  0.4935
 9866SOL    HW230498   5.893   5.031   5.750 -1.5438 -1.5204  0.7565
 9867SOL     OW30499   5.066   0.364   3.457 -0.4178 -0.1140 -0.0314
 9867SOL    HW130500   5.130   0.341   3.531 -2.3501 -1.2986  1.3573
 9867SOL    HW230501   5.037   0.459   3.466 -1.2050 -0.4575  1.2117
 9868SOL     OW30502   1.539   4.653   4.784 -0.6818  0.3676  0.2627
 9868SOL    HW130503   1.580   4.618   4.700 -0.9664  0.5675  0.0373
 9868SOL    HW230504   1.445   4.683   4.765 -1.3426 -1.1126  0.9938
 9869SOL     OW30505   0.119   2.748   3.155 -0.8883  0.5262 -0.5193
 9869SOL    HW130506   0.183   2.712   3.088 -0.4945  2.0303 -0.9957
 9869SOL    HW230507   0.108   2.682   3.230  0.9249  0.0716 -0.6067
 9870SOL     OW30508   3.504   0.049   3.297  0.1224 -0.2987 -0.6865
 9870SOL    HW130509   3.478  -0.020   3.364  1.5361 -0.3312 -0.1293
 9870SOL    HW230510   3.603   0.063   3.300 -0.0567  1.3355 -1.2041
 9871SOL     OW30511   5.323   4.844   4.559 -0.3156  0.1254  0.8620
 9871SOL    HW130512   5.286   4.763   4.515  0.9745  0.4615 -0.9376
 9871SOL    HW230513   5.420   4.854   4.535 -0.6625  2.6982  0.2480
 9872SOL     OW30514   1.679   5.522   4.211  0.2195 -0.7493  0.1890
 9872SOL    HW130515   1.768   5.547   4.248 -0.1623  0.8379  0.1158
 9872SOL    HW230516   1.689   5.490   4.117  0.7167 -0.6200  0.1964
 9873SOL     OW30517   1.995   2.024   5.146  0.4300  0.1517  0.3155
 9873SOL    HW130518   2.065   1.961   5.179  0.2262  0.2645  0.9865
 9873SOL    HW230519   2.038   2.108   5.113  0.5994  0.3116  0.9340
 9874SOL     OW30520   6.938   4.775   5.241 -0.4414  0.0050  0.1399
 9874SOL    HW130521   6.944   4.699   5.177 -2.4337 -0.6832  0.6892
 9874SOL    HW230522   7.024   4.826   5.241  0.9498 -2.2219 -0.2578
 9875SOL     OW30523   2.595   5.073   1.711  0.6737 -0.3217  0.4257
 9875SOL    HW130524   2.597   4.984   1.757  0.9464  0.2806  1.6057
 9875SOL    HW230525   2.591   5.146   1.779  1.6067  0.6133 -0.4895
 9876SOL     OW30526   4.547   0.406   4.395  0.5781  0.0719 -0.0665
 9876SOL    HW130527   4.596   0.492   4.402  2.1693 -0.7712 -0.3517
 9876SOL    HW230528   4.504   0.398   4.305  2.0076 -0.2020 -0.7575
 9877SOL     OW30529   6.935   3.302   6.990 -0.0539 -0.0652  0.5747
 9877SOL    HW130530   6.926   3.332   7.085  0.6015 -0.3680  0.7414
 9877SOL    HW230531   6.881   3.219   6.976 -1.1154  0.6393  0.3580
 9878SOL     OW30532   1.775   2.785   0.401  0.0069  0.0562  0.8228
 9878SOL    HW130533   1.846   2.768   0.469  0.2800  2.6545  1.2906
 9878SOL    HW230534   1.692   2.815   0.446  0.0520  1.3804  0.0743
 9879SOL     OW30535   0.314   6.118   4.531 -0.0945 -0.3956 -0.3151
 9879SOL    HW130536   0.336   6.164   4.445  0.0336  2.0691  0.9275
 9879SOL    HW230537   0.220   6.083   4.528 -0.7846  1.3913 -0.8220
 9880SOL     OW30538   0.745   0.470   0.303  0.3234  0.1430 -0.3479
 9880SOL    HW130539   0.776   0.459   0.397  1.7350  1.2538 -0.6527
 9880SOL    HW230540   0.722   0.566   0.287  1.1740  0.1852 -1.4282
 9881SOL     OW30541   6.391   6.456   3.126 -0.6472  0.2055 -0.0948
 9881SOL    HW130542   6.442   6.538   3.152  0.2107  0.3036 -1.9279
 9881SOL    HW230543   6.445   6.375   3.148 -0.3029  0.2585 -0.7042
 9882SOL     OW30544   3.430   3.214   4.727  0.0607  0.0276 -0.1896
 9882SOL    HW130545   3.521   3.250   4.709 -0.2466  1.1070  0.3235
 9882SOL    HW230546   3.386   3.268   4.798 -0.0391 -2.0320  1.4031
 9883SOL     OW30547   1.838   4.867   1.987 -0.1393  0.1151  0.0851
 9883SOL    HW130548   1.888   4.803   1.929 -1.6477 -0.7243 -0.3389
 9883SOL    HW230549   1.829   4.955   1.940 -0.3591 -0.2066 -0.4856
 9884SOL     OW30550   2.307   0.303   1.627 -0.3812 -0.0298  0.1917
 9884SOL    HW130551   2.383   0.347   1.579  1.2078  1.1893  3.4911
 9884SOL    HW230552   2.327   0.206   1.640  1.0280  0.4162  1.6200
 9885SOL     OW30553   1.509   3.474   3.586 -0.7582 -0.6839 -0.2190
 9885SOL    HW130554   1.463   3.437   3.667 -2.6319 -0.7930 -1.2950
 9885SOL    HW230555   1.606   3.488   3.607 -1.0991 -1.1422  1.8869
 9886SOL     OW30556   6.932   6.705   2.063 -0.4159  0.4353  0.4815
 9886SOL    HW130557   6.874   6.691   1.983 -0.8288 -2.3955  1.1733
 9886SOL    HW230558   6.885   6.673   2.145  1.0765  0.6334  1.4536
 9887SOL     OW30559   1.981   0.412   0.998  0.3549 -0.4346  0.0929
 9887SOL    HW130560   2.052   0.457   0.944  2.3384 -3.0368  0.3643
 9887SOL    HW230561   2.017   0.384   1.087 -1.4859 -0.4277  0.9021
 9888SOL     OW30562   5.557   5.817   2.353  0.1927 -0.2175  0.2814
 9888SOL    HW130563   5.613   5.818   2.435 -2.5442 -3.0308  2.3941
 9888SOL    HW230564   5.580   5.737   2.298 -1.0417 -0.8721  0.6907
 9889SOL     OW30565   2.283   5.969   1.740  0.2125  0.0959 -0.5773
 9889SOL    HW130566   2.338   6.023   1.677 -0.7689  0.1305 -1.4253
 9889SOL    HW230567   2.343   5.907   1.792  1.1281  0.7001 -0.8908
 9890SOL     OW30568   6.245   1.126   6.245 -0.2327  0.3973 -0.1254
 9890SOL    HW130569   6.289   1.175   6.320  0.1158  1.1893 -0.8383
 9890SOL    HW230570   6.151   1.157   6.234 -0.2895  0.2677 -0.0047
 9891SOL     OW30571   5.455   5.203   1.958 -0.0646 -0.0913  0.2740
 9891SOL    HW130572   5.527   5.146   1.919  2.2392  1.5050  1.9572
 9891SOL    HW230573   5.406   5.151   2.028  2.7793  0.2082  2.6380
 9892SOL     OW30574   1.241   4.445   2.642  0.5721  0.0216 -0.0675
 9892SOL    HW130575   1.327   4.441   2.692  1.1578  0.5710 -0.9974
 9892SOL    HW230576   1.257   4.425   2.545 -0.5667 -1.2167 -0.0315
 9893SOL     OW30577   4.822   6.211   1.375  0.7691 -0.4276 -0.0473
 9893SOL    HW130578   4.799   6.154   1.296  0.7000 -0.9201  0.3221
 9893SOL    HW230579   4.817   6.308   1.349 -1.2821 -0.5091 -0.1030
 9894SOL     OW30580   2.980   2.166   5.463  0.1463 -0.0248 -0.5479
 9894SOL    HW130581   2.934   2.203   5.544  2.2970 -2.3368  1.9197
 9894SOL    HW230582   2.934   2.081   5.435  0.1740  0.0955 -0.9601
 9895SOL     OW30583   1.018   2.588   5.146 -0.4173 -0.0303  0.6223
 9895SOL    HW130584   0.929   2.628   5.125  0.3002  0.8903 -0.9338
 9895SOL    HW230585   1.075   2.589   5.063  0.3725 -2.4420  1.0548
 9896SOL     OW30586   4.429   2.283   6.320  0.4424 -0.3586 -0.3770
 9896SOL    HW130587   4.426   2.346   6.397 -0.1209 -0.9362  0.0906
 9896SOL    HW230588   4.341   2.284   6.273  0.4013 -0.8408 -0.3204
 9897SOL     OW30589   5.213   1.924   2.798 -0.0816 -0.3075 -0.7028
 9897SOL    HW130590   5.229   1.838   2.847 -1.6076 -0.1687  0.1132
 9897SOL    HW230591   5.254   2.000   2.849 -1.6028 -0.1739  0.4179
 9898SOL     OW30592   6.438   5.818   4.895 -0.0048  0.2312 -0.0825
 9898SOL    HW130593   6.492   5.887   4.943 -0.2180  1.2337 -1.2443
 9898SOL    HW230594   6.461   5.820   4.798  1.4732 -2.7046  0.0882
 9899SOL     OW30595   5.335   3.969   3.478 -0.3928  0.0157 -0.2087
 9899SOL    HW130596   5.404   4.040   3.488 -0.3733 -0.1882  1.4412
 9899SOL    HW230597   5.328   3.942   3.382 -0.6011  2.4083 -0.9315
 9900SOL     OW30598   0.979   3.541   3.621 -0.6183  0.2709  0.1121
 9900SOL    HW130599   1.064   3.579   3.660  1.2821 -2.5276 -0.9528
 9900SOL    HW230600   0.961   3.585   3.533 -0.5119  1.1629  0.5183
 9901SOL     OW30601   1.892   3.213   1.535 -0.0440  0.0273  0.1765
 9901SOL    HW130602   1.919   3.154   1.459 -2.4365 -0.0055 -0.7453
 9901SOL    HW230603   1.842   3.159   1.603  0.8344  0.3422  1.0952
 9902SOL     OW30604   3.534   3.048   1.215 -0.2810 -0.4728  0.0729
 9902SOL    HW130605   3.542   2.953   1.186 -0.0774 -0.0507 -1.3143
 9902SOL    HW230606   3.621   3.079   1.254 -0.5620 -1.0501  1.1940
 9903SOL     OW30607   5.301   0.064   4.002  0.2165  0.4375 -0.2782
 9903SOL    HW130608   5.304   0.086   3.904  0.5252 -0.5597 -0.5108
 9903SOL    HW230609   5.337   0.141   4.055  0.3988  0.8440 -0.9767
 9904SOL     OW30610   0.110   2.500   5.474 -0.2559  0.6405 -0.1989
 9904SOL    HW130611   0.192   2.451   5.505  1.3284  2.0097 -1.9470
 9904SOL    HW230612   0.029   2.447   5.498  1.1242 -0.9096  1.3786
 9905SOL     OW30613   3.180   5.898   5.594 -0.5900  0.2204 -0.1587
 9905SOL    HW130614   3.123   5.884   5.513  0.1259  1.1117 -0.8425
 9905SOL    HW230615   3.255   5.960   5.571  0.6931 -0.9556  0.6969
 9906SOL     OW30616   3.552   3.752   6.334  0.3070 -0.4776  0.1366
 9906SOL    HW130617   3.616   3.812   6.286 -0.0335  0.0050  0.2876
 9906SOL    HW230618   3.514   3.799   6.413 -2.0339  0.1151 -1.2541
 9907SOL     OW30619   2.438   0.610   3.501  0.4085 -0.0816 -0.9901
 9907SOL    HW130620   2.478   0.701   3.494  1.7507 -0.5712 -0.1046
 9907SOL    HW230621   2.501   0.543   3.461  0.2623 -0.8227 -0.0209
 9908SOL     OW30622   6.854   2.893   0.289 -0.3908 -0.3377  0.3827
 9908SOL    HW130623   6.937   2.940   0.260 -0.4384 -0.3284  0.2605
 9908SOL    HW230624   6.819   2.935   0.373 -0.2837 -0.3287  0.4229
 9909SOL     OW30625   3.352   1.833   3.316 -0.0027 -0.6575 -0.2528
 9909SOL    HW130626   3.256   1.857   3.298  0.6988  0.8909 -2.2306
 9909SOL    HW230627   3.396   1.905   3.368  0.2030 -1.2334  0.3946
 9910SOL     OW30628   1.539   6.148   2.344 -0.1949 -0.1760  0.3594
 9910SOL    HW130629   1.586   6.078   2.397  0.6643  1.1347  1.4187
 9910SOL    HW230630   1.462   6.184   2.396 -0.5694 -0.2660 -0.1293
 9911SOL     OW30631   5.745   6.116   3.911 -0.1760  0.3623  0.6190
 9911SOL    HW130632   5.663   6.143   3.961 -0.1157  1.1289  0.3267
 9911SOL    HW230633   5.738   6.147   3.816  0.2718  0.0765  0.4887
 9912SOL     OW30634   3.730   1.398   3.842 -0.3609  0.5838  0.4823
 9912SOL    HW130635   3.784   1.482   3.833 -1.0098  1.0217  0.6357
 9912SOL    HW230636   3.773   1.326   3.788 -0.0468  1.1421 -0.0316
 9913SOL     OW30637   0.193   1.939   1.602  0.8571 -0.6790 -0.2237
 9913SOL    HW130638   0.200   1.985   1.513 -2.0579 -0.4560 -0.4176
 9913SOL    HW230639   0.201   1.840   1.588  1.0060 -0.6115 -0.6492
 9914SOL     OW30640   1.880   6.740   4.886 -0.4298  0.8483  0.3642
 9914SOL    HW130641   1.811   6.726   4.815 -1.7472  2.1075  1.3227
 9914SOL    HW230642   1.879   6.664   4.950 -1.4016  1.1422  0.7171
 9915SOL     OW30643   4.941   4.019   4.949  0.5092 -0.2221 -0.2033
 9915SOL    HW130644   4.996   4.092   4.909  1.9269  0.7199  3.0910
 9915SOL    HW230645   4.995   3.935   4.951  1.0561  0.1173  0.9059
 9916SOL     OW30646   2.461   0.482   4.982 -0.7679 -0.1096 -0.4304
 9916SOL    HW130647   2.363   0.501   4.990 -0.3460  1.4860  1.8270
 9916SOL    HW230648   2.508   0.512   5.065  1.6230 -1.0887 -1.3369
 9917SOL     OW30649   3.548   3.858   4.098  0.0725  0.1625  0.2649
 9917SOL    HW130650   3.631   3.913   4.084  0.4261 -0.6640 -0.9929
 9917SOL    HW230651   3.557   3.770   4.051 -0.9762 -0.5015  1.2520
 9918SOL     OW30652   6.652   0.974   0.884 -0.0874  0.5574  0.2981
 9918SOL    HW130653   6.748   0.948   0.898 -0.1932  0.2115  0.3995
 9918SOL    HW230654   6.627   1.046   0.948  0.1243  0.7003  0.2231
 9919SOL     OW30655   1.985   4.348   2.033 -0.3189 -0.3882  0.2747
 9919SOL    HW130656   2.051   4.424   2.027 -0.0623 -0.6664 -0.6568
 9919SOL    HW230657   1.904   4.370   1.978 -0.7518 -0.3067  0.9325
 9920SOL     OW30658   1.662   6.445   1.196 -0.3954  0.6644  0.0548
 9920SOL    HW130659   1.684   6.449   1.294 -1.6292  0.5904  0.3446
 9920SOL    HW230660   1.708   6.521   1.149  2.8972 -1.1082  0.0903
 9921SOL     OW30661   0.438   6.923   3.829 -0.5027  0.2250 -0.0171
 9921SOL    HW130662   0.453   6.825   3.819 -1.4059  0.0452  0.3245
 9921SOL    HW230663   0.346   6.946   3.798 -0.3397  0.9448  0.0195
 9922SOL     OW30664   5.647   5.814   1.170  0.7327  0.3726  0.2565
 9922SOL    HW130665   5.731   5.775   1.132  0.1166 -1.7591  0.9686
 9922SOL    HW230666   5.582   5.831   1.095  1.5365  1.4051 -0.2215
 9923SOL     OW30667   6.479   3.301   1.345  0.0204 -0.3761  0.2117
 9923SOL    HW130668   6.478   3.394   1.382 -1.7510 -0.9728  1.8074
 9923SOL    HW230669   6.400   3.251   1.379  0.6276 -2.3144 -1.0846
 9924SOL     OW30670   4.799   0.211   1.231 -0.6206  1.0114 -0.7740
 9924SOL    HW130671   4.722   0.152   1.206  0.4318 -0.1943 -1.2151
 9924SOL    HW230672   4.879   0.156   1.251 -0.1835  2.1778  0.9508
 9925SOL     OW30673   0.734   4.491   5.729  0.4773  0.4906  0.5744
 9925SOL    HW130674   0.812   4.430   5.746 -0.3432 -0.3371  1.4955
 9925SOL    HW230675   0.734   4.565   5.796  0.5285  0.5476  0.5110
 9926SOL     OW30676   0.804   1.826   2.328 -0.1783  0.7423  0.3781
 9926SOL    HW130677   0.705   1.826   2.345 -0.1126  1.4603  0.8113
 9926SOL    HW230678   0.847   1.755   2.384 -0.1763  1.9662  2.0283
 9927SOL     OW30679   0.442   1.952   1.378  0.1939  0.5234 -0.3294
 9927SOL    HW130680   0.470   1.894   1.300  1.3481 -0.4569  0.7613
 9927SOL    HW230681   0.401   1.894   1.448  0.9423  1.0845  0.5908
 9928SOL     OW30682   4.177   4.770   3.662  0.1236  0.2006 -0.0075
 9928SOL    HW130683   4.117   4.771   3.582 -1.2792  1.5273  0.9931
 9928SOL    HW230684   4.122   4.788   3.744  1.8376  0.9681  1.0144
 9929SOL     OW30685   2.565   3.086   5.631 -0.0234 -0.2014 -0.3964
 9929SOL    HW130686   2.511   3.170   5.617 -2.2580 -1.4683  0.0576
 9929SOL    HW230687   2.652   3.095   5.583  0.5358  2.9820  0.9352
 9930SOL     OW30688   1.258   6.797   6.224  0.5621 -0.4626 -0.5110
 9930SOL    HW130689   1.244   6.808   6.125 -0.5907 -2.5371 -0.6474
 9930SOL    HW230690   1.180   6.749   6.263  0.8082  0.6806  1.5298
 9931SOL     OW30691   6.442   6.364   4.438  0.5757  0.4510 -0.6711
 9931SOL    HW130692   6.462   6.270   4.465 -1.8216  0.2458  0.6661
 9931SOL    HW230693   6.365   6.399   4.491  1.1128  3.0547 -1.4350
 9932SOL     OW30694   5.321   2.770   6.657  0.7623  0.3420  0.3274
 9932SOL    HW130695   5.286   2.734   6.570 -2.3292  0.3790  1.4043
 9932SOL    HW230696   5.341   2.694   6.719 -0.9380  0.2746  0.8744
 9933SOL     OW30697   1.064   5.806   4.879 -0.1947  0.3501  0.6211
 9933SOL    HW130698   1.075   5.847   4.788  0.4339 -0.5365  0.2815
 9933SOL    HW230699   1.062   5.878   4.948  0.4148  0.9887 -0.0026
 9934SOL     OW30700   0.691   3.217   0.541  0.3150  0.3627 -0.0301
 9934SOL    HW130701   0.788   3.234   0.520  0.0009 -0.5897 -2.5345
 9934SOL    HW230702   0.638   3.215   0.457 -1.8736  0.4970  1.2620
 9935SOL     OW30703   1.283   2.969   0.490  0.4038 -0.2191 -0.1697
 9935SOL    HW130704   1.200   2.914   0.491 -0.4485  0.8409 -2.9306
 9935SOL    HW230705   1.276   3.040   0.420  1.9781  2.6278  2.2948
 9936SOL     OW30706   5.995   6.853   5.747  0.5718 -0.1324  0.1743
 9936SOL    HW130707   6.065   6.841   5.818  0.5108  1.0766  0.4503
 9936SOL    HW230708   6.003   6.944   5.708 -0.5948 -0.1336 -0.0848
 9937SOL     OW30709   2.339   1.111   2.161  0.7688 -0.6082 -0.4262
 9937SOL    HW130710   2.276   1.181   2.129  1.2873 -1.0300 -2.5110
 9937SOL    HW230711   2.287   1.034   2.198  0.0162 -0.9009 -1.9936
 9938SOL     OW30712   6.043   1.830   3.890 -0.7084 -0.1605  0.1445
 9938SOL    HW130713   6.143   1.828   3.883 -0.8335 -2.5321 -2.6791
 9938SOL    HW230714   6.007   1.895   3.823 -1.0935  1.8901  2.2420
 9939SOL     OW30715   1.966   2.721   1.432  0.3150  0.5424 -0.2407
 9939SOL    HW130716   2.037   2.656   1.406 -0.9530  0.0867 -2.9511
 9939SOL    HW230717   1.914   2.747   1.351 -3.3961 -0.0550  1.7183
 9940SOL     OW30718   1.517   0.396   2.983  0.6516  0.0423 -0.0791
 9940SOL    HW130719   1.500   0.492   3.003 -1.3818 -0.3377  0.1604
 9940SOL    HW230720   1.616   0.379   2.986  0.9838  1.8835  0.8722
 9941SOL     OW30721   2.827   4.915   5.056  0.4910  0.0676 -0.0670
 9941SOL    HW130722   2.834   4.816   5.042 -0.4192  0.1435 -1.2184
 9941SOL    HW230723   2.803   4.933   5.151  1.4914 -0.7650  0.3673
 9942SOL     OW30724   5.516   5.540   3.745  0.4940  0.4796 -0.2243
 9942SOL    HW130725   5.510   5.522   3.647  0.8090 -0.5128 -0.0704
 9942SOL    HW230726   5.437   5.499   3.791  1.2797 -0.6668  0.1452
 9943SOL     OW30727   0.179   6.804   4.583  0.2236  0.4725 -0.2400
 9943SOL    HW130728   0.273   6.830   4.605  0.7335 -0.4405 -1.2082
 9943SOL    HW230729   0.120   6.819   4.663  1.8542 -2.1728  1.6186
 9944SOL     OW30730   6.391   5.870   0.207  0.0710 -0.1499  0.1358
 9944SOL    HW130731   6.393   5.778   0.169 -1.8977 -0.0402 -0.3802
 9944SOL    HW230732   6.296   5.898   0.220  0.5837  2.2023 -0.7097
 9945SOL     OW30733   4.719   5.210   4.770  0.1884  0.2459  0.3416
 9945SOL    HW130734   4.652   5.140   4.796 -0.6218  1.2030  0.8989
 9945SOL    HW230735   4.691   5.298   4.807  2.3209  0.4927  1.5016
 9946SOL     OW30736   0.171   6.851   3.297 -0.3142  0.0598 -0.2499
 9946SOL    HW130737   0.261   6.890   3.277  0.3680 -0.9900  0.6987
 9946SOL    HW230738   0.155   6.853   3.396 -1.4232  0.4064 -0.4251
 9947SOL     OW30739   6.802   1.555   3.878  0.2237  0.4370  0.2503
 9947SOL    HW130740   6.738   1.619   3.921  0.0326 -0.1387  0.8455
 9947SOL    HW230741   6.884   1.547   3.935 -1.0409 -2.2143  1.9404
 9948SOL     OW30742   0.103   5.178   5.221  0.2972 -0.0344  0.1267
 9948SOL    HW130743   0.044   5.210   5.295  0.4942  1.5790 -0.3616
 9948SOL    HW230744   0.127   5.082   5.236 -0.1288  0.0939  1.8454
 9949SOL     OW30745   1.015   5.040   4.116  0.2802 -0.1032 -0.1067
 9949SOL    HW130746   0.975   5.014   4.204  0.9240  2.0324  0.8683
 9949SOL    HW230747   1.104   4.996   4.107  0.4580  0.1049  0.5650
 9950SOL     OW30748   6.025   5.254   6.973  0.0124  0.2971  0.2613
 9950SOL    HW130749   6.009   5.328   6.908  0.4679 -0.3212 -0.5776
 9950SOL    HW230750   6.104   5.200   6.943  0.2022 -0.0235  1.3137
 9951SOL     OW30751   2.156   3.799   3.386 -0.7512  0.1036  0.2928
 9951SOL    HW130752   2.175   3.756   3.297 -0.2705  1.4298 -0.2651
 9951SOL    HW230753   2.146   3.728   3.455  1.3858 -0.8790 -0.3242
 9952SOL     OW30754   1.482   3.159   3.405  0.3353 -0.3959  0.1092
 9952SOL    HW130755   1.388   3.192   3.393 -0.3348 -1.0825  2.7774
 9952SOL    HW230756   1.539   3.233   3.440 -0.0338 -0.7624  1.5630
 9953SOL     OW30757   5.194   1.889   4.382 -0.2735 -0.0020 -0.3113
 9953SOL    HW130758   5.129   1.814   4.380 -1.8628  1.3044 -2.7975
 9953SOL    HW230759   5.240   1.895   4.293  2.7664 -0.3694  1.0842
 9954SOL     OW30760   1.954   1.923   4.477  0.8391  0.2696  0.3155
 9954SOL    HW130761   1.938   1.963   4.387  1.7806 -2.2619 -1.0762
 9954SOL    HW230762   2.052   1.914   4.492  0.6852 -2.2038  0.1694
 9955SOL     OW30763   4.560   3.535   5.532 -0.4830 -0.7300  0.4102
 9955SOL    HW130764   4.578   3.633   5.537 -0.4107 -0.8191  2.4944
 9955SOL    HW230765   4.461   3.519   5.539 -0.8828 -0.6999 -3.1546
 9956SOL     OW30766   6.706   3.197   1.248  0.7195 -0.0888 -0.1808
 9956SOL    HW130767   6.630   3.226   1.306  1.8799  0.3736  1.1856
 9956SOL    HW230768   6.769   3.142   1.303  1.4183 -0.3699 -1.2536
 9957SOL     OW30769   5.216   6.077   1.117 -0.0625 -0.0413 -0.6192
 9957SOL    HW130770   5.179   6.095   1.208  0.7993  1.6489 -0.5676
 9957SOL    HW230771   5.199   6.156   1.058 -0.4299 -1.0362 -1.8793
 9958SOL     OW30772   5.601   5.626   6.149 -0.9869 -0.3667  0.0642
 9958SOL    HW130773   5.569   5.544   6.100 -1.8620  0.7478 -1.3060
 9958SOL    HW230774   5.589   5.706   6.091  0.2874  0.6990  1.2098
 9959SOL     OW30775   4.138   3.519   2.007 -0.1743 -0.2240 -0.0037
 9959SOL    HW130776   4.120   3.557   2.097 -1.5156  1.7857 -1.0398
 9959SOL    HW230777   4.136   3.419   2.011 -0.1557 -0.1733  2.1650
 9960SOL     OW30778   1.080   4.849   0.623  0.4654 -0.3373 -0.6773
 9960SOL    HW130779   1.025   4.868   0.542 -2.1664 -2.6323  0.3995
 9960SOL    HW230780   1.058   4.916   0.694  1.0411  0.2849 -1.0726
 9961SOL     OW30781   2.134   3.521   2.529  0.3395 -0.5488  0.4989
 9961SOL    HW130782   2.169   3.584   2.459  0.2092 -0.3228  0.6345
 9961SOL    HW230783   2.134   3.428   2.493 -0.7622 -0.2922 -0.1981
 9962SOL     OW30784   3.764   6.410   2.166 -0.0609  0.3578 -0.2643
 9962SOL    HW130785   3.854   6.455   2.161  0.1324 -0.0023  0.0122
 9962SOL    HW230786   3.756   6.360   2.252 -0.5303  0.3937 -0.2877
 9963SOL     OW30787   3.495   1.395   1.574 -0.3322  0.6593 -0.3540
 9963SOL    HW130788   3.411   1.370   1.623  0.6599 -0.7673  0.6962
 9963SOL    HW230789   3.472   1.436   1.486 -2.1140 -0.0795 -0.2577
 9964SOL     OW30790   4.657   3.235   6.631 -0.3192  0.1418 -0.2377
 9964SOL    HW130791   4.651   3.321   6.682 -0.5129 -0.2871  0.4725
 9964SOL    HW230792   4.732   3.180   6.668  0.4224  0.4125 -1.3204
 9965SOL     OW30793   4.064   4.991   5.371 -0.3688  0.5921  0.1384
 9965SOL    HW130794   4.164   4.984   5.365 -0.4155 -0.5597  0.5285
 9965SOL    HW230795   4.038   5.026   5.461 -0.3414  0.3204  0.2514
 9966SOL     OW30796   2.079   6.303   2.149  0.7337 -0.6450  0.4898
 9966SOL    HW130797   2.041   6.216   2.119  0.7653 -0.2227 -0.8350
 9966SOL    HW230798   2.008   6.373   2.148  1.1191 -0.2541 -0.2380
 9967SOL     OW30799   0.355   5.720   3.565 -0.2568 -0.5747 -0.0206
 9967SOL    HW130800   0.290   5.739   3.492  1.2012  0.6417 -1.0654
 9967SOL    HW230801   0.400   5.632   3.549  0.0004 -0.3476 -0.5698
 9968SOL     OW30802   4.598   5.351   0.455  0.4786 -0.7211 -0.0828
 9968SOL    HW130803   4.684   5.330   0.501  0.5303 -0.8374 -0.2334
 9968SOL    HW230804   4.542   5.269   0.449 -0.2140 -0.3759  1.2026
 9969SOL     OW30805   1.769   4.328   3.722  0.3029 -0.4545  0.7010
 9969SOL    HW130806   1.766   4.245   3.667 -0.3011 -0.2401  0.3990
 9969SOL    HW230807   1.701   4.393   3.688  1.4909  0.5923  0.2351
 9970SOL     OW30808   0.610   4.937   2.186 -0.5663  0.9604  0.4232
 9970SOL    HW130809   0.520   4.925   2.143 -0.3743 -0.3807  0.3455
 9970SOL    HW230810   0.677   4.960   2.116 -0.0718 -2.1230 -0.2672
 9971SOL     OW30811   6.885   2.792   3.045 -0.7583  0.5887 -0.1864
 9971SOL    HW130812   6.969   2.781   3.098 -0.7255  1.0658 -0.1390
 9971SOL    HW230813   6.907   2.822   2.952 -0.9206  1.5256  0.0718
 9972SOL     OW30814   2.934   5.345   1.426 -0.8302 -0.0417 -0.1337
 9972SOL    HW130815   2.866   5.276   1.398 -0.7918 -1.4996  2.9805
 9972SOL    HW230816   2.888   5.432   1.444 -1.8699 -0.8576  1.3755
 9973SOL     OW30817   4.589   3.826   6.345 -0.1088 -0.3293  0.2081
 9973SOL    HW130818   4.646   3.758   6.299  1.6081  0.2812  1.3256
 9973SOL    HW230819   4.550   3.888   6.277  1.6347  0.0108 -0.5474
 9974SOL     OW30820   6.473   1.536   2.098 -0.0723  0.6830  0.2021
 9974SOL    HW130821   6.499   1.441   2.113 -0.5104  0.5782  0.3054
 9974SOL    HW230822   6.531   1.576   2.027 -1.7690 -0.5365 -2.0148
 9975SOL     OW30823   0.062   6.060   6.638 -0.7202  0.4028 -0.3222
 9975SOL    HW130824   0.029   6.138   6.692  1.4858  0.5671  0.9169
 9975SOL    HW230825   0.063   5.978   6.696  2.2812  0.7085  0.2258
 9976SOL     OW30826   0.891   4.398   4.822  0.5591 -0.6825 -0.1472
 9976SOL    HW130827   0.831   4.438   4.891  0.6363  1.5152 -1.2736
 9976SOL    HW230828   0.952   4.332   4.865  0.0956  0.0666  1.7372
 9977SOL     OW30829   6.028   6.517   5.546 -0.0078 -0.1292 -0.3522
 9977SOL    HW130830   6.038   6.585   5.474 -1.2040  0.2812 -0.1612
 9977SOL    HW230831   5.966   6.553   5.616  0.9703 -0.6000  0.7863
 9978SOL     OW30832   1.095   3.187   6.007  0.0778  0.0773  0.4026
 9978SOL    HW130833   1.063   3.104   6.054  0.0178 -1.1657 -1.6861
 9978SOL    HW230834   1.191   3.203   6.029 -0.8134  1.6760  3.7535
 9979SOL     OW30835   5.723   5.381   5.276  0.4633 -0.2400 -0.4662
 9979SOL    HW130836   5.628   5.406   5.254  0.2552 -1.6251 -1.2321
 9979SOL    HW230837   5.749   5.299   5.225  2.7453  1.1900 -1.7519
 9980SOL     OW30838   1.474   6.482   0.260 -0.1866  0.5858  0.3122
 9980SOL    HW130839   1.448   6.490   0.163  3.1067 -1.6540 -0.9108
 9980SOL    HW230840   1.395   6.450   0.313 -1.8818  1.1986 -1.7058
 9981SOL     OW30841   0.919   1.315   2.850  0.1625  0.2707  0.4746
 9981SOL    HW130842   0.987   1.370   2.801 -0.6588  0.0632 -0.9449
 9981SOL    HW230843   0.895   1.235   2.795 -1.3597  0.4358  0.8794
 9982SOL     OW30844   6.011   0.577   4.146  0.0179 -0.4409  0.6037
 9982SOL    HW130845   6.072   0.578   4.067 -2.1443 -2.3247 -1.2772
 9982SOL    HW230846   5.988   0.671   4.173 -0.3240  0.3006 -2.0269
 9983SOL     OW30847   1.901   2.490   3.068  0.2065 -0.0560  0.6376
 9983SOL    HW130848   1.991   2.452   3.085  0.6318  0.8883  0.5625
 9983SOL    HW230849   1.837   2.416   3.046  1.0951 -0.6793  0.0895
 9984SOL     OW30850   1.305   6.676   4.761  0.6733 -0.2083 -0.1722
 9984SOL    HW130851   1.284   6.736   4.839  1.5748 -0.4878  0.2972
 9984SOL    HW230852   1.391   6.628   4.778  0.9573 -0.1660 -1.4068
 9985SOL     OW30853   2.592   6.765   1.858  0.2716 -0.6888 -0.4165
 9985SOL    HW130854   2.512   6.803   1.904  0.9721  0.0384  0.2299
 9985SOL    HW230855   2.657   6.838   1.839  0.6905 -1.2369 -1.1356
 9986SOL     OW30856   6.126   5.384   1.202 -0.0846  0.2025 -0.5359
 9986SOL    HW130857   6.214   5.336   1.208  1.2839  2.6734  1.1809
 9986SOL    HW230858   6.063   5.347   1.269  1.4095  1.5161  1.7158
 9987SOL     OW30859   6.620   1.858   3.155 -0.6821  0.3087  0.6445
 9987SOL    HW130860   6.677   1.778   3.175 -0.8205  0.0199 -0.0762
 9987SOL    HW230861   6.672   1.941   3.171  0.3814  0.0459 -1.1644
 9988SOL     OW30862   6.071   4.713   2.055 -0.0812  0.0026  0.1143
 9988SOL    HW130863   6.104   4.619   2.042 -1.3849 -0.4495 -0.1242
 9988SOL    HW230864   5.983   4.711   2.103 -0.8251  1.0097 -1.1508
 9989SOL     OW30865   6.469   4.517   2.987  0.1468  0.3806 -0.0031
 9989SOL    HW130866   6.524   4.555   3.061 -0.2594  1.1472 -0.0869
 9989SOL    HW230867   6.417   4.438   3.021 -0.2717  0.9143  0.6164
 9990SOL     OW30868   4.440   0.049   2.408  0.1207  0.5187  0.1659
 9990SOL    HW130869   4.421  -0.006   2.489  0.2503 -0.0062 -0.1601
 9990SOL    HW230870   4.356   0.058   2.354  0.4298 -0.5637 -0.5151
 9991SOL     OW30871   1.006   4.444   2.763  0.0231 -0.1475  0.5932
 9991SOL    HW130872   1.092   4.458   2.715  0.0227 -1.3014  0.2235
 9991SOL    HW230873   1.015   4.367   2.827 -0.9553 -0.8275 -0.0582
 9992SOL     OW30874   3.500   3.567   0.542 -0.8741  0.3531  0.4965
 9992SOL    HW130875   3.465   3.502   0.475 -1.0044  1.5375 -0.6221
 9992SOL    HW230876   3.473   3.538   0.634 -1.3561 -0.8802 -0.0163
 9993SOL     OW30877   3.872   1.060   4.349 -0.0535 -0.3904  0.3368
 9993SOL    HW130878   3.782   1.103   4.350  0.5992  1.1192 -1.4106
 9993SOL    HW230879   3.882   1.004   4.267  1.6533  2.0628 -1.2970
 9994SOL     OW30880   6.919   4.418   2.484 -0.0580  0.0407 -0.2680
 9994SOL    HW130881   6.984   4.421   2.407 -1.0472 -0.2369 -1.1335
 9994SOL    HW230882   6.962   4.372   2.562  1.0886  0.6458 -0.5261
 9995SOL     OW30883   4.318   2.364   3.769 -0.0680 -0.8893 -0.3769
 9995SOL    HW130884   4.242   2.309   3.735 -0.8195  0.0583 -0.2971
 9995SOL    HW230885   4.401   2.309   3.772 -0.6994 -1.8848 -0.6859
 9996SOL     OW30886   4.630   3.334   1.698 -0.2505 -0.1525  0.2082
 9996SOL    HW130887   4.691   3.256   1.702  0.1202  0.1318  0.1122
 9996SOL    HW230888   4.537   3.305   1.723 -0.1413 -0.6450  0.0413
 9997SOL     OW30889   1.926   0.630   2.984  0.2730  0.3555  0.1585
 9997SOL    HW130890   1.966   0.705   3.037  0.2386 -0.5871  1.5650
 9997SOL    HW230891   1.898   0.556   3.046  0.5686 -0.9583 -1.2212
 9998SOL     OW30892   5.112   2.992   2.089  0.3251 -0.1832 -0.1223
 9998SOL    HW130893   5.076   3.086   2.091 -1.2758 -0.7479 -0.5528
 9998SOL    HW230894   5.077   2.946   2.007 -0.2313 -1.6495  0.9133
 9999SOL     OW30895   1.411   1.152   4.005 -0.3873 -0.7684  0.6369
 9999SOL    HW130896   1.508   1.152   3.979 -1.0035  0.0560 -2.0007
 9999SOL    HW230897   1.385   1.243   4.036 -0.5148 -0.7560  0.4939
10000SOL     OW30898   3.479   3.598   1.608 -0.8865 -0.4215 -0.1192
10000SOL    HW130899   3.542   3.522   1.592 -0.0523  0.4295 -0.9882
10000SOL    HW230900   3.457   3.603   1.705 -0.8658 -1.6952 -0.0358
10001SOL     OW30901   3.195   0.304   7.021  0.1830 -0.1644 -0.1131
10001SOL    HW130902   3.289   0.306   6.986  0.2829  1.4911  0.1469
10001SOL    HW230903   3.192   0.354   7.108 -0.6955 -1.3590  0.5706
10002SOL     OW30904   3.134   2.197   1.592 -0.1661  0.4404 -0.4100
10002SOL    HW130905   3.190   2.115   1.585  2.3930  2.0741 -0.3633
10002SOL    HW230906   3.095   2.204   1.684  0.5042 -0.1729 -0.0787
10003SOL     OW30907   3.856   1.348   4.111  0.3143 -0.1159 -0.0835
10003SOL    HW130908   3.836   1.436   4.154  2.5731  1.4236 -1.9448
10003SOL    HW230909   3.828   1.350   4.015 -1.7631 -2.3571  0.3880
10004SOL     OW30910   5.994   1.268   6.199 -0.1581 -0.0479  0.0229
10004SOL    HW130911   5.898   1.277   6.173  0.1254  1.1301 -0.7269
10004SOL    HW230912   6.023   1.351   6.247 -0.1114 -1.3343  2.3749
10005SOL     OW30913   3.019   0.295   3.183  0.0666 -0.0353 -0.2565
10005SOL    HW130914   2.980   0.352   3.111  0.7363  1.5943  0.6345
10005SOL    HW230915   2.973   0.313   3.269  0.3806 -0.7570  0.0718
10006SOL     OW30916   6.481   0.848   4.371  0.0908 -0.4049  0.1819
10006SOL    HW130917   6.428   0.766   4.351  0.5171 -0.4288 -0.9634
10006SOL    HW230918   6.574   0.837   4.336  0.5383  0.0634  1.1775
10007SOL     OW30919   2.307   1.447   4.166 -0.0254 -0.0470  0.3322
10007SOL    HW130920   2.355   1.529   4.196 -2.0076  1.0023  0.7857
10007SOL    HW230921   2.372   1.383   4.126  1.8222  0.9813  1.5817
10008SOL     OW30922   3.864   6.325   5.838  0.4642  0.0131  0.0179
10008SOL    HW130923   3.856   6.246   5.778  0.2028  0.8688 -1.0914
10008SOL    HW230924   3.840   6.298   5.931 -1.9376 -0.6920 -0.7488
10009SOL     OW30925   6.044   2.926   2.586  0.1133  0.3247  0.6517
10009SOL    HW130926   6.118   2.861   2.565 -0.7561  0.2447 -2.6769
10009SOL    HW230927   6.054   3.007   2.530 -3.3719 -0.5458 -1.5253
10010SOL     OW30928   1.212   5.961   0.799 -0.2925 -0.3058 -0.2551
10010SOL    HW130929   1.164   5.882   0.837 -0.1058 -0.1883  0.2414
10010SOL    HW230930   1.174   6.044   0.839  1.1433 -0.2702  1.1007
10011SOL     OW30931   6.981   6.024   0.345  0.0657 -0.2738  0.4067
10011SOL    HW130932   7.002   6.042   0.441  0.0310 -2.4277  0.8548
10011SOL    HW230933   6.886   6.050   0.325 -0.1754 -0.5738  1.1617
10012SOL     OW30934   4.267   6.021   6.679  0.2471  0.1531 -0.1474
10012SOL    HW130935   4.172   5.997   6.702 -0.1800  0.8602 -1.0950
10012SOL    HW230936   4.316   5.939   6.652 -0.1733 -0.1827  0.0984
10013SOL     OW30937   2.037   4.945   3.030  0.7122  0.5490  0.1445
10013SOL    HW130938   2.112   4.937   3.097  0.7871 -0.1749 -0.0134
10013SOL    HW230939   1.978   4.865   3.038  0.5967  0.5658 -0.5067
10014SOL     OW30940   1.532   0.549   1.697  0.2016  0.9201  0.1763
10014SOL    HW130941   1.559   0.552   1.601 -3.7330 -0.4088 -1.1737
10014SOL    HW230942   1.452   0.608   1.712 -0.7180 -0.6591  2.0235
10015SOL     OW30943   4.479   2.963   0.544 -0.2405 -0.2418  0.2554
10015SOL    HW130944   4.433   2.952   0.632  0.9774 -1.9036  0.7337
10015SOL    HW230945   4.425   3.024   0.486 -1.9304 -0.4492  1.5236
10016SOL     OW30946   1.628   1.732   4.013 -0.1803  0.1374  0.5770
10016SOL    HW130947   1.596   1.670   4.083 -1.9876 -0.7082 -0.9081
10016SOL    HW230948   1.553   1.753   3.949  0.2957  3.8570  0.9748
10017SOL     OW30949   2.198   3.825   4.268  0.8726  0.2141 -0.0737
10017SOL    HW130950   2.222   3.891   4.340  0.6723  0.4972 -0.2622
10017SOL    HW230951   2.183   3.874   4.182  0.6341 -0.0702 -0.1954
10018SOL     OW30952   0.552   6.966   4.660  0.2588  0.0648 -0.2150
10018SOL    HW130953   0.603   6.956   4.575 -0.0561 -0.4076 -0.3559
10018SOL    HW230954   0.521   6.876   4.691  0.5768  0.2038  0.5290
10019SOL     OW30955   6.660   2.121   2.992 -0.3939  0.6820 -0.1200
10019SOL    HW130956   6.621   2.213   2.997 -0.4192  0.7455 -1.3114
10019SOL    HW230957   6.722   2.107   3.070  0.1812  1.9634 -0.3168
10020SOL     OW30958   0.672   1.440   2.748  0.3699  0.0008 -0.2146
10020SOL    HW130959   0.699   1.534   2.769  1.3015 -0.4116  0.5257
10020SOL    HW230960   0.665   1.387   2.833  0.3997 -0.7371 -0.6569
10021SOL     OW30961   2.452   2.507   2.309  0.3145  0.1467 -0.1317
10021SOL    HW130962   2.366   2.519   2.359  1.1299 -0.0697  1.3770
10021SOL    HW230963   2.447   2.555   2.221 -1.0382  0.8261  0.2919
10022SOL     OW30964   3.571   6.195   1.206 -0.3841 -0.8311 -0.0102
10022SOL    HW130965   3.505   6.270   1.217  1.6138  0.9485  0.5474
10022SOL    HW230966   3.588   6.152   1.295 -1.0824 -1.5747 -0.2276
10023SOL     OW30967   2.622   5.287   3.315 -0.3969 -0.0742 -0.5042
10023SOL    HW130968   2.579   5.350   3.250 -1.0982  0.6858  0.6592
10023SOL    HW230969   2.669   5.339   3.385 -1.2666 -0.8159  0.6760
10024SOL     OW30970   1.959   5.332   3.329 -0.2292  0.6802 -0.5871
10024SOL    HW130971   1.967   5.317   3.231 -0.9699 -0.4723 -0.4999
10024SOL    HW230972   2.013   5.263   3.378 -0.9439  0.3951 -0.1809
10025SOL     OW30973   2.115   2.519   2.225 -0.5334 -0.5599  0.0218
10025SOL    HW130974   2.045   2.584   2.252 -0.7597 -0.8877  0.2386
10025SOL    HW230975   2.097   2.486   2.132 -0.8440 -0.8729  0.1893
10026SOL     OW30976   0.061   5.531   1.172 -0.0947 -0.1111 -0.3203
10026SOL    HW130977   0.084   5.455   1.232  1.3564 -0.4331 -1.2580
10026SOL    HW230978   0.074   5.504   1.077 -1.3863  0.7181 -0.7597
10027SOL     OW30979   0.088   2.622   3.934  0.1076 -0.0718  0.3676
10027SOL    HW130980   0.039   2.703   3.965 -4.3237 -2.1359 -0.4703
10027SOL    HW230981   0.086   2.619   3.834  0.4355 -1.0949  0.3867
10028SOL     OW30982   3.173   1.789   3.021 -0.1576 -0.6867 -0.0234
10028SOL    HW130983   3.155   1.858   3.091 -1.2276  1.5408 -2.3514
10028SOL    HW230984   3.168   1.698   3.063 -0.6495  0.5170  2.7726
10029SOL     OW30985   2.012   2.698   3.279 -0.3552  0.3508  0.4267
10029SOL    HW130986   1.966   2.634   3.216 -0.0823  0.3438  0.2301
10029SOL    HW230987   2.039   2.780   3.229 -0.5112  0.5256  0.6317
10030SOL     OW30988   3.000   0.845   4.894  0.0091  0.8125  0.1727
10030SOL    HW130989   2.959   0.801   4.974 -0.9555  0.1705 -0.6496
10030SOL    HW230990   2.928   0.876   4.832  0.7351 -0.4853 -1.3981
10031SOL     OW30991   5.758   3.709   2.583  0.6907 -0.1402  0.5505
10031SOL    HW130992   5.802   3.728   2.495 -2.1560 -0.6480 -1.1422
10031SOL    HW230993   5.817   3.652   2.639  1.7595 -1.7147 -1.9796
10032SOL     OW30994   4.095   0.005   6.703  0.3836 -0.1041 -1.0476
10032SOL    HW130995   4.157   0.008   6.782  0.0116  0.6344 -0.7804
10032SOL    HW230996   4.124  -0.069   6.642  0.1554 -1.2454  0.1928
10033SOL     OW30997   5.075   2.886   3.674  0.1398 -0.9507 -0.2951
10033SOL    HW130998   5.117   2.972   3.647  0.8855 -0.2094  2.8284
10033SOL    HW230999   5.088   2.872   3.772 -3.6145 -2.5887  0.1346
10034SOL     OW31000   4.507   0.178   4.980  0.1811 -0.0703  0.2073
10034SOL    HW131001   4.537   0.191   5.074  0.3601 -1.2268  0.3246
10034SOL    HW231002   4.447   0.254   4.953 -1.2127 -0.5391  1.8131
10035SOL     OW31003   5.604   6.494   1.057  0.0254  0.4390  0.0449
10035SOL    HW131004   5.567   6.465   1.145 -2.9536  1.8089 -0.6214
10035SOL    HW231005   5.673   6.428   1.027  0.0587 -0.8711  2.6735
10036SOL     OW31006   0.269   1.218   5.069 -0.3608 -0.1488  0.1225
10036SOL    HW131007   0.278   1.130   5.116 -0.1566  0.0995  0.5545
10036SOL    HW231008   0.294   1.292   5.132  3.3080  0.0315 -1.3235
10037SOL     OW31009   6.045   6.327   1.747  0.1249 -0.0696  0.0106
10037SOL    HW131010   6.040   6.249   1.685 -0.6972 -0.6857  0.8219
10037SOL    HW231011   6.075   6.408   1.697  2.7860 -1.2581 -0.5033
10038SOL     OW31012   3.178   1.147   6.178 -0.0997 -0.0557  0.0950
10038SOL    HW131013   3.254   1.114   6.122  1.2079  0.9849  1.2124
10038SOL    HW231014   3.191   1.119   6.273 -2.3472 -1.8811 -0.0261
10039SOL     OW31015   4.286   6.127   5.612  0.0165 -0.2454  0.4170
10039SOL    HW131016   4.345   6.048   5.599 -0.3648 -0.6842  1.2643
10039SOL    HW231017   4.191   6.096   5.621 -0.0664  0.2491  1.3439
10040SOL     OW31018   3.103   5.362   0.402  0.1045 -0.0353  0.1538
10040SOL    HW131019   3.033   5.400   0.462  0.2335 -0.8215  0.8268
10040SOL    HW231020   3.181   5.425   0.398 -1.1537  1.5042 -1.6924
10041SOL     OW31021   4.854   5.943   6.489 -0.3485  0.2395  0.1431
10041SOL    HW131022   4.824   5.889   6.410  1.0157 -1.1043  0.5079
10041SOL    HW231023   4.774   5.974   6.541 -1.2194  0.2052 -1.1310
10042SOL     OW31024   2.655   1.258   5.819  0.1759 -0.1615 -0.2194
10042SOL    HW131025   2.612   1.246   5.730 -0.3965  2.6104 -0.4130
10042SOL    HW231026   2.753   1.276   5.807 -0.3002  2.6593 -0.6085
10043SOL     OW31027   6.976   1.619   5.159 -0.0507  0.1824  0.2561
10043SOL    HW131028   6.951   1.543   5.220  0.8315 -1.4599 -1.3305
10043SOL    HW231029   7.051   1.671   5.201  0.8693 -1.2014  0.4040
10044SOL     OW31030   0.684   3.743   3.458  0.3566 -0.1181 -0.4738
10044SOL    HW131031   0.615   3.719   3.390  0.2160  1.2156 -0.8267
10044SOL    HW231032   0.694   3.842   3.462  2.2609 -0.2738 -0.4526
10045SOL     OW31033   4.795   0.023   2.831  0.1737  0.4692  0.5802
10045SOL    HW131034   4.803  -0.029   2.916  0.8957 -0.2594  0.0805
10045SOL    HW231035   4.715   0.082   2.835 -0.4242 -0.3724  1.3288
10046SOL     OW31036   2.876   2.570   0.221 -0.5588  0.3777 -0.5804
10046SOL    HW131037   2.840   2.571   0.315 -1.0163  0.1169 -0.7518
10046SOL    HW231038   2.930   2.653   0.206 -0.7513  0.5799 -0.1908
10047SOL     OW31039   1.461   2.230   3.643 -0.0180  0.2909  0.5262
10047SOL    HW131040   1.427   2.261   3.732  0.2742 -1.1009  1.1657
10047SOL    HW231041   1.554   2.193   3.654  0.0878  0.2568 -0.3897
10048SOL     OW31042   3.504   0.887   1.842  0.5814 -0.4017  0.1058
10048SOL    HW131043   3.431   0.840   1.892  0.4022 -0.2156  0.0229
10048SOL    HW231044   3.474   0.904   1.748  0.1505  0.9740  0.4674
10049SOL     OW31045   0.796   6.850   5.279  0.2934  0.3050  0.0093
10049SOL    HW131046   0.752   6.813   5.197  1.2460 -0.6276 -0.0982
10049SOL    HW231047   0.739   6.923   5.318  0.2204  1.3723 -1.9694
10050SOL     OW31048   0.116   2.929   3.333  0.3445  0.2164 -0.1294
10050SOL    HW131049   0.194   2.924   3.395  1.3665 -0.2894 -1.4151
10050SOL    HW231050   0.135   2.878   3.250 -1.0861  0.6735 -0.7848
10051SOL     OW31051   6.241   2.038   0.769  0.3007  0.0512 -0.2699
10051SOL    HW131052   6.159   1.984   0.790  0.7536 -1.2599 -1.7375
10051SOL    HW231053   6.287   2.063   0.855 -0.9840 -0.1908  0.5203
10052SOL     OW31054   1.425   2.496   3.444  0.9747 -0.0710  0.2287
10052SOL    HW131055   1.487   2.520   3.369 -1.0189 -0.0990 -1.5127
10052SOL    HW231056   1.433   2.398   3.464  1.5652 -0.0479  0.1480
10053SOL     OW31057   2.770   6.631   1.331 -0.3305  0.1505 -0.0856
10053SOL    HW131058   2.817   6.642   1.419  0.6334  1.2561 -0.7089
10053SOL    HW231059   2.835   6.597   1.263 -1.4154 -2.0973 -0.0719
10054SOL     OW31060   2.873   4.585   5.879  0.5759  0.3259  0.7900
10054SOL    HW131061   2.850   4.488   5.888  0.8400  0.3766  2.3571
10054SOL    HW231062   2.962   4.603   5.923  0.2150  1.3891  1.1280
10055SOL     OW31063   6.166   3.497   6.939 -0.1715 -0.5544 -0.2598
10055SOL    HW131064   6.123   3.518   6.851 -0.0632  1.2127  0.0798
10055SOL    HW231065   6.126   3.555   7.010 -0.3743 -2.0667  0.9192
10056SOL     OW31066   5.021   5.253   2.666 -0.1073  0.0791  0.1562
10056SOL    HW131067   5.111   5.290   2.688  0.8432 -0.6518 -2.1397
10056SOL    HW231068   4.963   5.256   2.747  2.3961 -0.7520  2.1168
10057SOL     OW31069   3.523   1.854   4.820  0.3222  0.9945  0.2149
10057SOL    HW131070   3.528   1.946   4.781 -1.2911  0.9518 -0.1612
10057SOL    HW231071   3.592   1.796   4.778  1.1954  1.9580  0.2783
10058SOL     OW31072   6.876   5.528   4.522  0.4196 -0.1404 -0.1269
10058SOL    HW131073   6.873   5.467   4.601 -0.0148  0.9491  0.7226
10058SOL    HW231074   6.962   5.513   4.472  0.9729 -0.4429  0.8828
10059SOL     OW31075   4.118   4.672   0.920  0.1371 -0.4103 -0.2727
10059SOL    HW131076   4.213   4.699   0.939  0.2149 -0.5841 -0.4153
10059SOL    HW231077   4.059   4.705   0.993  0.1332  0.7279 -0.7667
10060SOL     OW31078   0.999   2.047   0.931 -0.1344 -0.5922  0.0155
10060SOL    HW131079   0.912   2.038   0.883 -0.9285  0.3505  1.2142
10060SOL    HW231080   1.002   1.983   1.007 -0.4309  0.3654  0.8624
10061SOL     OW31081   5.152   2.195   4.229  0.4234 -0.9411 -0.0489
10061SOL    HW131082   5.054   2.178   4.225  0.1804  0.0672  1.1953
10061SOL    HW231083   5.179   2.221   4.322  1.5744  0.4110 -0.7032
10062SOL     OW31084   0.780   1.682   5.755  0.6237 -0.0717 -0.5334
10062SOL    HW131085   0.729   1.729   5.683 -1.3323 -0.5615  0.4534
10062SOL    HW231086   0.719   1.620   5.803  2.1507 -0.5612  0.8588
10063SOL     OW31087   3.522   0.503   6.540 -0.0575  0.4521 -0.5106
10063SOL    HW131088   3.469   0.474   6.620 -0.1650 -0.4710 -0.9059
10063SOL    HW231089   3.469   0.486   6.457  0.7954 -0.3461 -0.9026
10064SOL     OW31090   5.202   0.692   6.585  0.3155  0.1770  0.5531
10064SOL    HW131091   5.104   0.688   6.602  0.3620 -1.0325  0.6456
10064SOL    HW231092   5.237   0.599   6.572  1.5553  0.5382  1.1513
10065SOL     OW31093   1.570   0.078   3.736 -0.6124  0.0393 -0.5874
10065SOL    HW131094   1.492   0.123   3.693 -0.9558  1.0776  1.0574
10065SOL    HW231095   1.592   0.124   3.822 -0.6921 -2.6856  0.9864
10066SOL     OW31096   0.199   1.136   3.034 -0.1738 -0.2996 -0.2317
10066SOL    HW131097   0.251   1.213   2.998  2.0156 -1.5080  0.2078
10066SOL    HW231098   0.122   1.116   2.973  1.2890 -0.0068 -2.2636
10067SOL     OW31099   5.236   5.144   4.587 -0.0756  0.4172  0.1011
10067SOL    HW131100   5.275   5.052   4.585  0.1591  0.5255 -1.4136
10067SOL    HW231101   5.304   5.208   4.622  0.4673  0.3051 -0.7159
10068SOL     OW31102   0.400   4.865   2.056  0.0751  0.2416 -0.3714
10068SOL    HW131103   0.452   4.787   2.021  2.5284  2.7292 -2.6689
10068SOL    HW231104   0.302   4.844   2.051  0.5948 -3.3884  1.0920
10069SOL     OW31105   2.127   5.879   1.495  0.2669 -0.5398  1.2187
10069SOL    HW131106   2.129   5.949   1.423 -1.4847 -1.0361  0.6501
10069SOL    HW231107   2.175   5.914   1.576 -0.1756  1.1482  0.8003
10070SOL     OW31108   6.758   0.135   4.821  0.1068 -0.1175  0.2223
10070SOL    HW131109   6.667   0.149   4.783 -0.0621 -1.0830  0.2407
10070SOL    HW231110   6.774   0.200   4.895 -1.7177 -1.7179  2.1814
10071SOL     OW31111   5.425   6.998   3.022  0.0371 -0.3960  0.2402
10071SOL    HW131112   5.394   6.959   2.935 -0.4365 -1.4536  0.8525
10071SOL    HW231113   5.371   7.079   3.043 -0.7757 -0.9019  0.1745
10072SOL     OW31114   6.907   5.883   2.438  0.5358 -0.0640  0.0484
10072SOL    HW131115   6.840   5.860   2.508 -2.4751  0.8675 -2.2712
10072SOL    HW231116   6.933   5.800   2.388 -0.9019 -0.1560 -0.5991
10073SOL     OW31117   5.758   5.418   6.838  0.1012  0.2113 -0.1410
10073SOL    HW131118   5.749   5.372   6.750  0.3011  0.0278 -0.0678
10073SOL    HW231119   5.749   5.517   6.826  1.7611  0.3334 -0.6103
10074SOL     OW31120   2.032   0.946   5.238  0.2241  0.0091 -0.1444
10074SOL    HW131121   1.956   0.992   5.192 -0.6563 -1.8277 -0.6150
10074SOL    HW231122   2.096   1.015   5.272 -0.6524  1.5387 -1.4236
10075SOL     OW31123   0.319   4.270   2.543 -0.0953 -0.4552 -0.0718
10075SOL    HW131124   0.354   4.228   2.628  1.2153 -0.1411 -0.4310
10075SOL    HW231125   0.329   4.204   2.468  2.3529  0.5513 -0.7220
10076SOL     OW31126   5.946   5.770   2.351  0.2151  0.4079  0.2448
10076SOL    HW131127   5.921   5.836   2.281  0.0822  0.1850  0.0784
10076SOL    HW231128   5.906   5.797   2.439 -2.1027 -0.8118 -0.3316
10077SOL     OW31129   1.844   2.737   5.911 -0.6536  0.3420  0.1254
10077SOL    HW131130   1.798   2.825   5.921 -2.6273 -0.7822  1.8787
10077SOL    HW231131   1.882   2.729   5.819 -1.8359  2.3635 -0.5930
10078SOL     OW31132   1.214   5.881   2.545  0.0304 -0.0106  0.2942
10078SOL    HW131133   1.214   5.881   2.645  1.4010 -1.7650  0.3391
10078SOL    HW231134   1.296   5.834   2.512  0.4760  1.9884 -1.6825
10079SOL     OW31135   5.118   2.766   2.745  0.0756  0.5579  0.2530
10079SOL    HW131136   5.138   2.673   2.715 -0.1024  0.8415 -0.7722
10079SOL    HW231137   5.074   2.763   2.835 -0.4067 -0.3671 -0.0034
10080SOL     OW31138   4.136   6.379   4.640 -0.1303 -0.0851 -0.0842
10080SOL    HW131139   4.106   6.288   4.613  1.5328 -0.0059 -2.5826
10080SOL    HW231140   4.230   6.394   4.607 -0.1472  2.3259  0.7727
10081SOL     OW31141   0.670   6.545   1.824 -0.1068  0.0743  0.0017
10081SOL    HW131142   0.629   6.490   1.896  1.8458 -2.0426 -0.3754
10081SOL    HW231143   0.615   6.537   1.741  0.0698 -1.2311 -0.0044
10082SOL     OW31144   6.609   5.480   0.826  0.0068  0.6436 -0.2579
10082SOL    HW131145   6.636   5.383   0.822 -2.5050 -0.1333 -0.2181
10082SOL    HW231146   6.687   5.534   0.857  0.6882 -1.7792  2.8915
10083SOL     OW31147   5.336   1.467   4.458 -0.0726 -0.0682  0.8023
10083SOL    HW131148   5.324   1.382   4.406  1.0967  0.4163 -0.3410
10083SOL    HW231149   5.425   1.506   4.436 -1.0026  2.0051  0.4783
10084SOL     OW31150   3.266   0.352   5.541 -0.0204  0.1486  0.2224
10084SOL    HW131151   3.292   0.417   5.471  0.0875  0.1895  0.3011
10084SOL    HW231152   3.180   0.308   5.515 -0.1891  0.4527  0.2548
10085SOL     OW31153   1.739   4.789   1.704  0.1016  0.2065  0.2010
10085SOL    HW131154   1.832   4.826   1.700 -0.1353  0.9693  1.2997
10085SOL    HW231155   1.673   4.864   1.692 -0.3788  0.0146  1.4782
10086SOL     OW31156   4.374   6.731   2.085  0.6310  0.0615 -0.2514
10086SOL    HW131157   4.435   6.670   2.135  0.4649 -0.8272 -1.0926
10086SOL    HW231158   4.308   6.676   2.032  0.5278  0.9659 -1.0905
10087SOL     OW31159   0.680   6.595   3.412 -0.1391  0.0998  1.0739
10087SOL    HW131160   0.776   6.568   3.400  0.6531  2.9474  0.2053
10087SOL    HW231161   0.663   6.614   3.508 -0.0812 -1.1298  1.3475
10088SOL     OW31162   0.115   0.092   0.857  0.7190  0.8621  0.2679
10088SOL    HW131163   0.213   0.078   0.842  0.6113 -1.4683  1.2909
10088SOL    HW231164   0.098   0.103   0.955 -0.3266 -2.5571  0.5903
10089SOL     OW31165   2.528   2.200   3.402  0.8291 -0.0072 -0.1251
10089SOL    HW131166   2.489   2.195   3.494 -0.0216  0.5631 -0.4520
10089SOL    HW231167   2.627   2.214   3.409  0.9507 -1.1319  0.7015
10090SOL     OW31168   1.284   3.240   0.604  0.0225  0.8653  0.7223
10090SOL    HW131169   1.359   3.286   0.557  1.2352  0.5170  2.2305
10090SOL    HW231170   1.282   3.144   0.576  0.5540  0.7295  1.1233
10091SOL     OW31171   0.800   3.884   0.099 -0.0916 -0.6244 -0.1044
10091SOL    HW131172   0.859   3.919   0.026 -0.9845 -2.4793 -1.8344
10091SOL    HW231173   0.856   3.842   0.170  0.7710  0.5766 -0.0489
10092SOL     OW31174   0.941   3.308   4.618  0.3450 -0.1817  0.0046
10092SOL    HW131175   1.016   3.348   4.671  0.8666  1.6699 -1.9766
10092SOL    HW231176   0.967   3.217   4.587  1.2339 -0.0961  0.4485
10093SOL     OW31177   6.366   3.858   4.857 -0.1401  0.0299 -0.4863
10093SOL    HW131178   6.331   3.779   4.907  1.8729 -0.4831  0.1991
10093SOL    HW231179   6.371   3.937   4.918  0.8044 -0.1695 -0.2918
10094SOL     OW31180   4.345   6.114   2.051  0.2636  0.0104 -0.0701
10094SOL    HW131181   4.256   6.074   2.031 -0.0674  0.5036  0.4115
10094SOL    HW231182   4.403   6.045   2.096 -0.9323  0.5540  2.4711
10095SOL     OW31183   3.946   1.228   6.496 -0.4508 -0.2239  0.4778
10095SOL    HW131184   4.002   1.146   6.499 -0.9755 -0.5705  0.9117
10095SOL    HW231185   3.992   1.301   6.547 -0.3641 -0.4885  0.7801
10096SOL     OW31186   5.746   4.880   3.930  0.4822  0.4428  0.5741
10096SOL    HW131187   5.669   4.876   3.995  0.6371 -1.8505  0.6780
10096SOL    HW231188   5.820   4.933   3.971 -0.5251  1.5436  1.0312
10097SOL     OW31189   2.221   6.916   6.848  0.4149  0.1891 -0.3428
10097SOL    HW131190   2.191   7.009   6.829  0.8663  0.5207  0.5001
10097SOL    HW231191   2.151   6.870   6.904 -0.1485 -0.2341 -1.3729
10098SOL     OW31192   3.203   1.705   6.628 -0.3574 -0.1371 -0.5385
10098SOL    HW131193   3.224   1.761   6.548 -0.5171  0.1754 -0.3668
10098SOL    HW231194   3.180   1.765   6.705  1.1103 -0.3770  0.1333
10099SOL     OW31195   0.459   4.841   0.568 -0.1353  0.7146 -0.4885
10099SOL    HW131196   0.421   4.933   0.569 -0.7291  0.4689  0.1121
10099SOL    HW231197   0.469   4.807   0.661 -0.9468 -0.2376 -0.7216
10100SOL     OW31198   4.680   0.804   3.754 -0.3993 -0.5102  0.2631
10100SOL    HW131199   4.682   0.821   3.853  1.7488  0.9854  0.0154
10100SOL    HW231200   4.644   0.884   3.707  1.7032  0.1331 -0.3446
10101SOL     OW31201   0.548   3.869   1.094  0.1753 -0.4108  0.0379
10101SOL    HW131202   0.596   3.781   1.089 -1.1631 -1.4341  2.8065
10101SOL    HW231203   0.451   3.853   1.112 -0.8983  1.6512 -2.9941
10102SOL     OW31204   0.889   2.083   2.309 -0.0897 -0.1416 -0.5650
10102SOL    HW131205   0.835   2.000   2.323 -0.2817  0.4994  4.4163
10102SOL    HW231206   0.985   2.065   2.327 -0.0887  0.6076  0.2700
10103SOL     OW31207   4.359   0.715   5.506  0.0276  0.5376 -0.5743
10103SOL    HW131208   4.310   0.673   5.430 -0.8635 -1.7639  1.1264
10103SOL    HW231209   4.383   0.644   5.573 -0.9323  2.6279  2.1833
10104SOL     OW31210   1.107   1.493   5.229 -0.1642  0.1050 -0.0996
10104SOL    HW131211   1.013   1.525   5.219 -0.7864 -1.5341  0.0311
10104SOL    HW231212   1.163   1.564   5.270 -1.5551  0.8179  0.6364
10105SOL     OW31213   1.447   6.043   6.895 -0.0557 -0.2145 -0.0195
10105SOL    HW131214   1.488   6.063   6.983 -1.0340 -1.8788  0.8569
10105SOL    HW231215   1.355   6.083   6.892  0.4074  0.8693 -0.7927
10106SOL     OW31216   3.361   5.783   1.605 -0.0313  0.3573 -0.4578
10106SOL    HW131217   3.399   5.850   1.669 -0.4053  0.3281 -0.1975
10106SOL    HW231218   3.416   5.699   1.607 -1.3581 -0.5655  1.6261
10107SOL     OW31219   6.822   1.819   0.649  0.0041  0.1294 -0.1204
10107SOL    HW131220   6.831   1.897   0.587  1.4083 -0.1790 -0.3420
10107SOL    HW231221   6.862   1.738   0.606  1.0186 -0.0891  1.1761
10108SOL     OW31222   5.500   6.436   1.545  0.4857 -0.1432 -0.3939
10108SOL    HW131223   5.464   6.512   1.600 -1.0839  0.7777 -2.5333
10108SOL    HW231224   5.598   6.426   1.561  0.6504  2.0467  0.3159
10109SOL     OW31225   6.248   1.645   0.062  0.0453 -0.4293 -0.0870
10109SOL    HW131226   6.341   1.612   0.079  0.1321  0.4775  1.3667
10109SOL    HW231227   6.197   1.647   0.148 -1.6211 -1.7352 -1.0081
10110SOL     OW31228   3.275   6.037   4.880  0.6184  0.7221  0.6118
10110SOL    HW131229   3.356   6.024   4.823  1.1235  0.5343  1.3537
10110SOL    HW231230   3.208   6.092   4.831 -0.7556 -2.8274 -1.8456
10111SOL     OW31231   5.404   3.425   4.457  0.2666  0.2679  0.7111
10111SOL    HW131232   5.355   3.507   4.488  0.8501  0.4288  1.2161
10111SOL    HW231233   5.338   3.360   4.418 -0.1231  1.2790 -0.3921
10112SOL     OW31234   6.414   2.344   4.322 -0.4753  0.0139  0.7141
10112SOL    HW131235   6.424   2.303   4.232 -1.7840  0.9945  0.0806
10112SOL    HW231236   6.494   2.400   4.343 -1.0291  1.4230 -0.7523
10113SOL     OW31237   4.787   6.978   6.155 -0.0555  0.3541 -0.5546
10113SOL    HW131238   4.770   6.979   6.056 -1.8327 -0.8598 -0.3157
10113SOL    HW231239   4.702   6.956   6.203  0.6949  1.2533  1.2840
10114SOL     OW31240   6.002   0.868   0.932 -0.0009 -0.3576 -0.1096
10114SOL    HW131241   6.009   0.874   1.031  2.6736  1.3755 -0.3017
10114SOL    HW231242   5.928   0.927   0.899  0.6138  0.9469  0.7574
10115SOL     OW31243   3.035   2.096   3.897 -0.6512 -0.4254  0.5874
10115SOL    HW131244   2.961   2.123   3.958 -1.3383 -0.8165 -0.0437
10115SOL    HW231245   3.045   1.996   3.899 -0.8268 -0.4631 -0.0806
10116SOL     OW31246   1.202   5.176   6.893 -0.2276 -0.3048 -0.5808
10116SOL    HW131247   1.152   5.213   6.815  1.5329  1.8611 -0.7674
10116SOL    HW231248   1.179   5.228   6.975 -0.0674 -0.8325 -0.1990
10117SOL     OW31249   0.918   6.236   6.018 -0.5943 -0.2400  0.1170
10117SOL    HW131250   0.927   6.137   6.006 -2.8037 -0.2083 -3.8432
10117SOL    HW231251   0.828   6.265   5.984  0.3242  3.2604  0.2860
10118SOL     OW31252   1.293   4.788   4.489 -0.9094 -0.4304  0.7325
10118SOL    HW131253   1.313   4.696   4.454 -0.0875  0.1932 -0.4777
10118SOL    HW231254   1.312   4.790   4.587  0.4687 -1.1717  0.5133
10119SOL     OW31255   6.877   5.136   3.652 -0.1435  0.0694  0.1192
10119SOL    HW131256   6.873   5.211   3.717 -0.2343 -0.0598  0.2653
10119SOL    HW231257   6.870   5.171   3.559  1.0608  0.3451  0.1275
10120SOL     OW31258   1.886   3.647   5.493 -0.2554 -0.1923 -0.0448
10120SOL    HW131259   1.913   3.599   5.409 -0.3733  0.2793 -0.3585
10120SOL    HW231260   1.912   3.743   5.486  0.2384 -0.2698  0.6995
10121SOL     OW31261   6.622   4.952   6.117 -0.4939 -0.7761  0.0812
10121SOL    HW131262   6.532   4.988   6.094 -0.6008 -0.0356  1.5327
10121SOL    HW231263   6.658   4.900   6.040 -0.8649  1.4448 -1.7143
10122SOL     OW31264   6.895   4.979   1.541  0.1461 -0.2905 -0.5898
10122SOL    HW131265   6.845   5.017   1.463 -1.6616 -1.5027 -0.0619
10122SOL    HW231266   6.935   4.891   1.515 -2.1341 -1.6747  0.3497
10123SOL     OW31267   4.916   1.659   6.418  0.0410  0.0899 -0.5498
10123SOL    HW131268   4.875   1.691   6.333 -0.2896  0.1476 -0.3705
10123SOL    HW231269   4.850   1.603   6.468  0.4712 -0.5345 -0.6608
10124SOL     OW31270   2.711   5.406   2.874 -0.0665  0.4319 -0.0577
10124SOL    HW131271   2.698   5.491   2.925  0.4476 -0.5012  1.6993
10124SOL    HW231272   2.797   5.410   2.823 -0.0054  0.9282  0.0833
10125SOL     OW31273   1.057   3.978   2.925 -0.0795  0.7326  0.4622
10125SOL    HW131274   0.979   3.954   2.983  0.6141 -1.6216  0.5407
10125SOL    HW231275   1.142   3.949   2.969  0.6483  1.0429 -0.6894
10126SOL     OW31276   0.542   0.559   5.385  0.1248  0.1846  0.1584
10126SOL    HW131277   0.488   0.493   5.333  1.4014 -0.8543  0.1036
10126SOL    HW231278   0.628   0.517   5.414  0.2612  1.3272  1.5343
10127SOL     OW31279   3.494   5.821   5.635  0.2741  0.0149 -0.4365
10127SOL    HW131280   3.468   5.909   5.596 -1.7317  0.1564  1.0156
10127SOL    HW231281   3.517   5.834   5.732  1.7864 -0.8022 -0.6645
10128SOL     OW31282   0.269   2.138   0.799 -0.8087 -0.2765  0.4346
10128SOL    HW131283   0.244   2.069   0.867  0.4875  1.1245  2.4497
10128SOL    HW231284   0.236   2.227   0.828  0.1982  0.4454 -0.5579
10129SOL     OW31285   6.137   1.814   3.558 -0.3736 -0.0623  0.8210
10129SOL    HW131286   6.213   1.830   3.495  1.5125 -0.9333  2.7653
10129SOL    HW231287   6.159   1.738   3.619 -2.1572  0.6627  2.4828
10130SOL     OW31288   2.014   4.510   2.732 -0.2893 -0.1012 -0.0968
10130SOL    HW131289   1.933   4.562   2.704 -0.2838  0.1561  0.3452
10130SOL    HW231290   2.048   4.547   2.819  0.6427  0.1725 -0.5604
10131SOL     OW31291   2.348   1.489   5.276  0.4032 -0.1879 -0.5121
10131SOL    HW131292   2.284   1.459   5.347 -1.6789  1.0124 -1.7502
10131SOL    HW231293   2.299   1.498   5.189  1.9065  2.2281 -1.2075
10132SOL     OW31294   3.729   0.757   3.116  0.0913  0.3039 -0.8749
10132SOL    HW131295   3.754   0.764   3.212  1.2392 -0.0059 -1.1334
10132SOL    HW231296   3.641   0.802   3.101 -0.0305  0.4855  0.2841
10133SOL     OW31297   3.207   4.286   0.845  0.5253  0.4488  0.3739
10133SOL    HW131298   3.139   4.336   0.792  1.4774  1.0192 -0.3342
10133SOL    HW231299   3.164   4.206   0.888 -0.3920  0.2998 -0.7792
10134SOL     OW31300   1.425   5.400   3.747 -0.2283  0.3637 -0.0901
10134SOL    HW131301   1.349   5.417   3.684 -0.5003  0.7751  0.3451
10134SOL    HW231302   1.511   5.430   3.704 -0.4346  0.8171 -0.1884
10135SOL     OW31303   5.977   3.324   3.382 -0.5157 -0.5991 -0.2712
10135SOL    HW131304   5.941   3.396   3.323  0.7248 -0.1197 -0.4621
10135SOL    HW231305   5.952   3.235   3.343 -1.5864 -0.2835 -0.3254
10136SOL     OW31306   5.594   0.543   1.486  0.5011  0.4265  0.0007
10136SOL    HW131307   5.558   0.501   1.570  1.0527  0.3201  0.1928
10136SOL    HW231308   5.669   0.487   1.451  0.4444  0.6131 -0.4208
10137SOL     OW31309   7.013   4.094   2.538  0.4718  0.5578  0.4516
10137SOL    HW131310   7.049   4.001   2.545  1.7823  1.0904  0.9940
10137SOL    HW231311   7.073   4.158   2.587 -1.8097  1.3498  2.4328
10138SOL     OW31312   6.379   3.348   0.457  0.3195 -0.0850  0.1093
10138SOL    HW131313   6.428   3.360   0.370  2.4343 -1.6398  0.9998
10138SOL    HW231314   6.396   3.427   0.516  0.9029 -0.1147 -0.0072
10139SOL     OW31315   3.129   3.093   3.258 -0.1217 -0.7730 -0.7443
10139SOL    HW131316   3.172   3.055   3.177  1.4120 -1.0439  0.1615
10139SOL    HW231317   3.033   3.114   3.238  0.5918  0.6412 -3.0784
10140SOL     OW31318   3.016   6.210   6.784  0.5417 -0.0021 -0.0037
10140SOL    HW131319   2.989   6.199   6.879 -0.1075  0.1222 -0.1698
10140SOL    HW231320   3.045   6.305   6.768 -1.2365  0.5054 -0.3844
10141SOL     OW31321   3.615   1.036   4.736  0.2371  0.9492 -0.2124
10141SOL    HW131322   3.709   1.048   4.765 -0.7110  1.1460  3.2548
10141SOL    HW231323   3.578   1.123   4.704  0.7228  1.2561  0.0560
10142SOL     OW31324   6.847   5.812   4.680 -0.4534  0.5452  0.2822
10142SOL    HW131325   6.792   5.894   4.694  0.4999  1.1031  0.9302
10142SOL    HW231326   6.806   5.756   4.609 -1.9951  0.7908  0.9365
10143SOL     OW31327   5.898   1.325   0.545  0.2770 -0.0913 -0.3173
10143SOL    HW131328   5.880   1.422   0.530  0.6737 -0.4701 -4.3081
10143SOL    HW231329   5.821   1.271   0.510 -0.0353 -1.3006  2.0159
10144SOL     OW31330   2.511   6.624   6.460  0.1086  0.9817 -0.2280
10144SOL    HW131331   2.448   6.669   6.523  1.2511  2.2328  0.0685
10144SOL    HW231332   2.605   6.639   6.490  0.5707 -1.2131 -0.4230
10145SOL     OW31333   2.868   6.166   3.118 -0.4818 -0.1360 -0.0610
10145SOL    HW131334   2.935   6.165   3.193  0.5895 -2.6260 -0.9645
10145SOL    HW231335   2.856   6.261   3.087  2.8004  0.4367  0.0197
10146SOL     OW31336   5.249   4.852   6.578  0.9979  0.1948 -0.2980
10146SOL    HW131337   5.265   4.950   6.565  0.4559  0.1618 -1.2924
10146SOL    HW231338   5.291   4.802   6.503  0.4529 -0.2625 -0.3010
10147SOL     OW31339   5.950   3.112   4.866  0.5881 -0.1806  0.0824
10147SOL    HW131340   6.013   3.105   4.943  1.2915 -1.1231 -0.5631
10147SOL    HW231341   5.922   3.208   4.855  1.6566  0.2039  0.5728
10148SOL     OW31342   5.905   4.155   6.721 -0.3025  0.0107  0.1489
10148SOL    HW131343   5.935   4.069   6.762 -0.9745 -0.6222 -0.6217
10148SOL    HW231344   5.980   4.196   6.669  0.2593  0.3189  1.1977
10149SOL     OW31345   0.045   2.359   1.552  0.4961  0.0549 -0.2054
10149SOL    HW131346   0.089   2.396   1.634 -0.8320 -1.7542  1.4254
10149SOL    HW231347   0.007   2.269   1.572 -0.2493 -0.2845 -2.7283
10150SOL     OW31348   2.974   4.159   1.485 -0.2347  0.0164 -0.0874
10150SOL    HW131349   3.027   4.224   1.429  1.2296 -0.8789  0.2073
10150SOL    HW231350   2.996   4.174   1.582  1.2792 -1.8675 -0.1010
10151SOL     OW31351   2.142   5.530   5.905 -0.1610  0.1461  0.1872
10151SOL    HW131352   2.051   5.561   5.932 -0.4086 -0.1862 -0.2580
10151SOL    HW231353   2.190   5.493   5.985 -1.4567 -2.2634 -0.0689
10152SOL     OW31354   0.117   6.969   4.834  0.2691 -0.4264 -0.7019
10152SOL    HW131355   0.072   6.990   4.921 -0.1769 -0.9718 -0.7976
10152SOL    HW231356   0.196   7.029   4.823 -0.7956  1.0156 -0.8355
10153SOL     OW31357   3.719   5.276   1.745 -0.3319  0.0959  0.0282
10153SOL    HW131358   3.813   5.280   1.779 -0.7144  1.2014  1.0694
10153SOL    HW231359   3.719   5.259   1.647  1.0149  1.0736 -0.1748
10154SOL     OW31360   6.525   1.237   5.825 -0.0431 -0.5242 -0.4773
10154SOL    HW131361   6.502   1.218   5.729 -1.1255  0.7643 -0.5025
10154SOL    HW231362   6.446   1.217   5.882  0.8325 -2.0152  0.2905
10155SOL     OW31363   4.087   2.227   5.879  0.5407  0.3381  0.3946
10155SOL    HW131364   4.157   2.193   5.817 -0.5691 -0.0099 -0.7146
10155SOL    HW231365   4.105   2.324   5.899  1.0630  0.3866 -0.2621
10156SOL     OW31366   0.042   0.445   3.216 -0.4340 -0.0697 -0.0443
10156SOL    HW131367  -0.008   0.529   3.239  0.1681  0.3979 -0.4265
10156SOL    HW231368   0.035   0.381   3.293  0.0225  0.7615  0.7030
10157SOL     OW31369   6.516   0.722   1.170 -0.0607 -0.1209 -0.3160
10157SOL    HW131370   6.463   0.741   1.087  0.9435  1.0803 -0.7061
10157SOL    HW231371   6.458   0.736   1.250 -0.4736  0.7408 -0.7516
10158SOL     OW31372   6.511   4.744   2.595 -0.0779 -0.0683 -0.3021
10158SOL    HW131373   6.523   4.730   2.497  0.6768  0.5572 -0.3125
10158SOL    HW231374   6.514   4.656   2.642  3.1824 -0.1704 -0.4803
10159SOL     OW31375   3.848   3.197   1.373 -0.2778 -0.2022 -0.1063
10159SOL    HW131376   3.910   3.169   1.300 -0.6296 -1.8647  0.1950
10159SOL    HW231377   3.847   3.128   1.445 -2.3013 -0.1357  0.0053
10160SOL     OW31378   2.405   4.841   2.322  0.1516 -0.1351  0.6947
10160SOL    HW131379   2.341   4.917   2.334 -0.2384 -0.6125  1.7718
10160SOL    HW231380   2.425   4.830   2.225 -2.8435 -1.1253  0.0862
10161SOL     OW31381   2.278   2.232   1.217  0.1179 -0.6591 -0.2521
10161SOL    HW131382   2.361   2.281   1.243  1.1278 -1.3893 -1.9413
10161SOL    HW231383   2.288   2.197   1.124 -2.3394 -0.2423 -0.7407
10162SOL     OW31384   3.745   5.354   0.478 -0.5683  0.2534  0.4302
10162SOL    HW131385   3.775   5.286   0.411  1.1367  2.4948 -1.2376
10162SOL    HW231386   3.787   5.334   0.567  0.9118 -0.2062 -0.3349
10163SOL     OW31387   5.322   4.285   6.916  0.1028 -0.2958 -0.4416
10163SOL    HW131388   5.339   4.336   6.832 -1.5793  1.1596  0.0423
10163SOL    HW231389   5.406   4.283   6.972  0.7627  0.1561 -1.3930
10164SOL     OW31390   4.298   4.721   2.657 -0.1481  0.4754 -0.1937
10164SOL    HW131391   4.375   4.758   2.604  1.0816  0.4049  1.4649
10164SOL    HW231392   4.305   4.622   2.662 -0.1518  0.4949  0.2390
10165SOL     OW31393   0.737   2.940   3.026  0.0421  0.4868  0.4546
10165SOL    HW131394   0.801   3.003   3.070 -0.0413  1.6157 -0.9906
10165SOL    HW231395   0.784   2.891   2.952 -0.3431  0.1238  0.4455
10166SOL     OW31396   2.879   1.965   0.638  0.8629  0.1779 -0.5814
10166SOL    HW131397   2.947   1.930   0.574 -0.3884 -2.6257 -0.5058
10166SOL    HW231398   2.843   1.890   0.693  0.0121  2.0992  1.6237
10167SOL     OW31399   1.393   2.294   5.522 -0.5070  0.1056  0.2676
10167SOL    HW131400   1.421   2.382   5.559 -0.6053 -0.3376  1.4412
10167SOL    HW231401   1.397   2.225   5.594 -1.7759 -0.5611 -0.2732
10168SOL     OW31402   6.383   2.420   6.067  0.1454  0.1228 -0.2247
10168SOL    HW131403   6.390   2.488   5.994 -0.7451 -1.1667 -1.5638
10168SOL    HW231404   6.421   2.333   6.035  2.0563  0.1638  1.7553
10169SOL     OW31405   1.805   6.244   2.332 -0.1266  0.4394 -0.4581
10169SOL    HW131406   1.854   6.227   2.246  1.1665  0.7359  0.1970
10169SOL    HW231407   1.709   6.262   2.312 -0.0870 -0.6025 -1.7514
10170SOL     OW31408   0.021   0.775   6.969  0.4611 -0.2349  0.0796
10170SOL    HW131409   0.107   0.824   6.980  0.2723  0.0206  0.4166
10170SOL    HW231410  -0.030   0.777   7.054 -0.2742  0.3627 -0.3600
10171SOL     OW31411   0.967   3.745   6.135  0.4137 -0.5558  0.4059
10171SOL    HW131412   1.019   3.696   6.065 -0.7660 -0.9409 -0.2413
10171SOL    HW231413   0.920   3.823   6.093 -2.0292 -2.0051  0.2044
10172SOL     OW31414   6.931   6.507   3.453  1.0591 -0.1710  0.0294
10172SOL    HW131415   7.004   6.461   3.502  0.1009 -0.2975  1.3889
10172SOL    HW231416   6.843   6.484   3.495  0.2778  0.3845 -1.2409
10173SOL     OW31417   1.024   1.448   0.644  0.1926 -0.5210 -0.0890
10173SOL    HW131418   1.085   1.500   0.704 -0.3243  1.3734 -1.1234
10173SOL    HW231419   0.929   1.464   0.671  0.0278 -1.0960 -0.3117
10174SOL     OW31420   5.787   5.253   3.517  0.3737 -0.2876 -0.6040
10174SOL    HW131421   5.736   5.338   3.502  1.1424  1.2633  3.9407
10174SOL    HW231422   5.732   5.189   3.571  0.9217 -1.3855 -1.3132
10175SOL     OW31423   6.033   0.852   4.701 -0.4795 -0.1624  0.0708
10175SOL    HW131424   6.088   0.852   4.785  2.1219  1.0078 -1.4840
10175SOL    HW231425   5.958   0.917   4.710 -0.8427 -0.7641  1.7934
10176SOL     OW31426   1.606   5.696   3.943  0.2407  0.4748  0.5242
10176SOL    HW131427   1.518   5.658   3.972  0.0898  1.3026  1.2045
10176SOL    HW231428   1.632   5.657   3.855 -1.4931  1.2121 -0.3807
10177SOL     OW31429   2.797   6.600   0.739  0.6006  0.5822  0.1871
10177SOL    HW131430   2.707   6.579   0.775  0.6351  2.0044  1.2405
10177SOL    HW231431   2.842   6.517   0.707 -0.1638 -0.5104  1.8362
10178SOL     OW31432   1.636   1.588   0.109  0.5967 -0.1353  0.1618
10178SOL    HW131433   1.661   1.683   0.097  0.9878 -0.1795  0.6076
10178SOL    HW231434   1.586   1.556   0.029 -0.2480  0.6727  0.3511
10179SOL     OW31435   0.188   3.209   1.758 -0.0412 -0.0878  0.0129
10179SOL    HW131436   0.235   3.136   1.806  0.5142  0.1357 -0.1891
10179SOL    HW231437   0.254   3.275   1.722 -0.4854  0.0982 -0.4872
10180SOL     OW31438   5.210   0.835   4.859  0.1453  0.2464  0.1906
10180SOL    HW131439   5.211   0.745   4.902  1.8842 -0.2766 -0.8594
10180SOL    HW231440   5.125   0.882   4.882 -1.0673 -1.8777  0.2872
10181SOL     OW31441   6.176   0.965   0.715  0.0278  0.8144  0.7631
10181SOL    HW131442   6.115   0.943   0.791 -0.9328  0.5340 -0.0606
10181SOL    HW231443   6.245   1.030   0.745  0.5511 -0.3646  2.2515
10182SOL     OW31444   2.627   1.090   1.547 -0.2147  0.0979 -0.3567
10182SOL    HW131445   2.565   1.077   1.625 -0.5495 -0.3760 -0.6953
10182SOL    HW231446   2.713   1.130   1.579 -0.9288  1.3790  0.0303
10183SOL     OW31447   0.162   2.647   5.853 -0.0403  0.0586 -0.2473
10183SOL    HW131448   0.187   2.639   5.756 -0.0556  2.0015 -0.4431
10183SOL    HW231449   0.065   2.624   5.863  0.0627 -0.5818 -0.6021
10184SOL     OW31450   4.114   0.498   6.554  0.3450 -0.1949 -0.8409
10184SOL    HW131451   4.017   0.486   6.571  0.0520  2.0659 -0.6295
10184SOL    HW231452   4.167   0.437   6.613 -0.9209 -0.5954 -0.0970
10185SOL     OW31453   5.162   2.588   2.426 -0.2647 -0.0525  0.4988
10185SOL    HW131454   5.142   2.652   2.351  0.2174 -0.7913 -0.2872
10185SOL    HW231455   5.081   2.576   2.483 -0.2077  1.6606  0.9826
10186SOL     OW31456   5.527   3.217   2.522 -0.8793  0.7081 -0.1280
10186SOL    HW131457   5.521   3.151   2.597 -2.0608 -0.2490 -1.0387
10186SOL    HW231458   5.518   3.170   2.435  0.1702  1.8501 -0.8873
10187SOL     OW31459   1.628   3.051   0.108 -0.4268  0.7235 -0.0819
10187SOL    HW131460   1.633   3.150   0.094 -3.1341  0.6867 -2.2312
10187SOL    HW231461   1.693   3.006   0.047 -0.1893  1.1391 -0.1394
10188SOL     OW31462   3.101   6.171   2.089 -0.3586 -0.5593 -0.4037
10188SOL    HW131463   3.025   6.229   2.119 -0.6500 -0.3088 -1.5714
10188SOL    HW231464   3.100   6.086   2.142  0.7578  0.8959  2.1500
10189SOL     OW31465   1.223   0.534   6.950 -0.4155 -0.2893 -0.5000
10189SOL    HW131466   1.246   0.623   6.991  0.1042 -0.9678  0.7227
10189SOL    HW231467   1.296   0.468   6.969 -0.1651 -0.6628 -2.5315
10190SOL     OW31468   4.707   1.706   0.628  0.2771  0.0833 -0.3965
10190SOL    HW131469   4.757   1.632   0.673  1.8293  1.1163 -0.3818
10190SOL    HW231470   4.674   1.771   0.696 -0.2035 -0.0505 -0.4960
10191SOL     OW31471   2.998   3.867   6.616  0.3463  0.4037 -0.1841
10191SOL    HW131472   2.948   3.950   6.592  1.0585  1.0364  0.4588
10191SOL    HW231473   3.073   3.890   6.679  0.7223 -0.6860 -0.2090
10192SOL     OW31474   5.100   0.103   4.294 -0.4649 -0.2776 -0.3069
10192SOL    HW131475   5.044   0.185   4.282 -2.0132 -1.4495 -1.5586
10192SOL    HW231476   5.113   0.084   4.391 -2.1162  0.1414  0.0204
10193SOL     OW31477   4.349   2.277   1.273  0.6838  0.1098 -0.1559
10193SOL    HW131478   4.422   2.287   1.340 -0.4919 -0.1240  1.2047
10193SOL    HW231479   4.304   2.365   1.260  0.2756 -0.0536  0.1237
10194SOL     OW31480   5.349   1.119   6.723 -0.1202 -0.1125 -0.6086
10194SOL    HW131481   5.334   1.122   6.624  2.9737 -1.4430 -1.2236
10194SOL    HW231482   5.368   1.025   6.752  1.6260  0.5970  0.7560
10195SOL     OW31483   4.484   5.854   1.721  0.4162  0.1224 -0.0220
10195SOL    HW131484   4.491   5.852   1.621 -1.6855 -1.4195 -0.2043
10195SOL    HW231485   4.456   5.946   1.751 -0.6776  0.1300 -1.0181
10196SOL     OW31486   4.493   2.258   2.928  0.0577 -0.7794  0.2501
10196SOL    HW131487   4.410   2.299   2.890  0.8083  0.2414 -0.3618
10196SOL    HW231488   4.525   2.186   2.867 -0.1501 -0.8885  0.2701
10197SOL     OW31489   6.952   2.198   3.582 -0.1499 -0.0851 -0.2932
10197SOL    HW131490   7.015   2.120   3.577 -0.0572 -0.0401  0.1149
10197SOL    HW231491   6.908   2.199   3.672 -2.0689 -1.1501 -1.1529
10198SOL     OW31492   4.238   0.430   2.797  0.2476  0.5110 -0.2173
10198SOL    HW131493   4.315   0.423   2.860  0.0252  2.0092  0.2525
10198SOL    HW231494   4.263   0.487   2.719 -0.5167  1.4000  0.1720
10199SOL     OW31495   0.883   2.101   6.926 -0.5768 -0.0942 -0.1176
10199SOL    HW131496   0.868   2.140   7.017 -0.1344 -0.8404  0.2877
10199SOL    HW231497   0.905   2.174   6.862 -1.3393  0.4931  0.2681
10200SOL     OW31498   4.749   1.956   0.015 -0.2123  0.1513  0.0977
10200SOL    HW131499   4.655   1.972   0.046 -1.0564 -2.1569 -0.9920
10200SOL    HW231500   4.782   2.034  -0.037 -1.6145  0.9215  0.3301
10201SOL     OW31501   0.195   5.211   1.776 -0.4738 -0.1133 -0.2807
10201SOL    HW131502   0.161   5.247   1.689  2.9081  0.5590 -1.4597
10201SOL    HW231503   0.166   5.272   1.850 -1.1001  0.8549 -1.2887
10202SOL     OW31504   2.652   4.639   1.038  0.1304 -0.4063 -0.7530
10202SOL    HW131505   2.651   4.581   0.956  2.5944 -0.5475 -0.7612
10202SOL    HW231506   2.573   4.618   1.095 -0.6234 -1.6415 -2.1779
10203SOL     OW31507   6.870   3.086   2.568  0.7933  0.3101 -0.1394
10203SOL    HW131508   6.831   3.173   2.537 -0.1206  0.4435  1.3178
10203SOL    HW231509   6.926   3.047   2.495  0.0259  1.3958 -1.3451
10204SOL     OW31510   4.987   7.004   5.577  0.3846 -0.3309  0.3839
10204SOL    HW131511   5.084   7.029   5.586  0.0623  1.1233 -0.0469
10204SOL    HW231512   4.933   7.085   5.555 -0.8100 -1.2924 -0.3665
10205SOL     OW31513   2.163   0.581   0.692 -0.4574 -0.3151  0.2004
10205SOL    HW131514   2.207   0.549   0.608  0.7026 -0.3055  0.7868
10205SOL    HW231515   2.066   0.595   0.675 -0.6962 -2.4959 -0.5366
10206SOL     OW31516   0.195   0.681   0.549 -0.1818  0.2449  0.6093
10206SOL    HW131517   0.102   0.716   0.532  0.1885  0.4509 -1.2515
10206SOL    HW231518   0.240   0.738   0.617 -0.6103  1.6405 -0.2268
10207SOL     OW31519   2.121   1.247   6.989  0.3420  0.1171 -0.1985
10207SOL    HW131520   2.178   1.330   6.983 -0.6955  0.8441 -0.1609
10207SOL    HW231521   2.042   1.265   7.048  1.4964 -1.7358  2.1193
10208SOL     OW31522   6.086   4.424   3.420  0.5158 -0.3607  0.2367
10208SOL    HW131523   6.062   4.497   3.483  0.2902 -0.6809  0.5277
10208SOL    HW231524   6.181   4.435   3.390  0.0476  0.8656 -0.8578
10209SOL     OW31525   0.135   6.714   5.770 -0.1474  0.1938 -0.0981
10209SOL    HW131526   0.093   6.642   5.715  0.5481 -0.9008  0.7648
10209SOL    HW231527   0.087   6.722   5.857  0.6372 -0.2185  0.3870
10210SOL     OW31528   3.133   0.329   0.387 -0.0866 -0.1861 -0.1596
10210SOL    HW131529   3.177   0.371   0.467  0.2472 -0.1245 -0.3740
10210SOL    HW231530   3.149   0.386   0.307  0.9868 -1.0689 -0.6063
10211SOL     OW31531   5.012   0.916   6.538  0.0521 -0.1913  0.0192
10211SOL    HW131532   5.096   0.863   6.525 -0.8726 -1.8692  0.6165
10211SOL    HW231533   4.936   0.867   6.496 -1.0387  0.0560  1.6278
10212SOL     OW31534   6.835   6.508   6.324 -0.0547  0.3575  0.5624
10212SOL    HW131535   6.925   6.487   6.286 -0.9582 -2.4055 -0.2391
10212SOL    HW231536   6.785   6.568   6.260  0.9187  1.3427  0.6958
10213SOL     OW31537   3.389   0.548   1.396  0.0977  0.1522  0.1389
10213SOL    HW131538   3.405   0.459   1.438  0.8341  0.5643  0.7549
10213SOL    HW231539   3.430   0.620   1.452  0.6513  0.7689 -1.0141
10214SOL     OW31540   0.360   2.276   0.312 -0.2275 -0.2231  0.5436
10214SOL    HW131541   0.289   2.343   0.335  0.4258  0.8215 -0.3833
10214SOL    HW231542   0.416   2.259   0.393  1.1447  2.2934  0.2176
10215SOL     OW31543   4.059   3.246   3.815 -0.6197 -0.1333 -0.2261
10215SOL    HW131544   4.098   3.312   3.878 -2.1283  0.7242 -0.1347
10215SOL    HW231545   4.015   3.172   3.867  0.1474 -0.6676 -0.3183
10216SOL     OW31546   6.101   0.241   1.037 -0.0207 -0.3764  0.2961
10216SOL    HW131547   6.078   0.289   1.122 -1.3002  0.0559 -0.2811
10216SOL    HW231548   6.044   0.274   0.962  0.4464 -1.4044 -0.5535
10217SOL     OW31549   3.618   2.107   4.731 -0.0119  0.4054 -0.1967
10217SOL    HW131550   3.711   2.072   4.720  1.2531  3.1343  1.0317
10217SOL    HW231551   3.619   2.186   4.792 -3.0173  1.1086 -0.9171
10218SOL     OW31552   1.898   1.705   0.730 -0.0960 -0.5141  0.2069
10218SOL    HW131553   1.948   1.755   0.660 -0.5546 -1.5680 -0.9178
10218SOL    HW231554   1.801   1.730   0.727  0.0214  0.0856  1.0712
10219SOL     OW31555   1.851   2.853   2.427  0.5126  0.3992  0.1667
10219SOL    HW131556   1.793   2.910   2.486  2.1337 -0.1295  2.4193
10219SOL    HW231557   1.870   2.901   2.342 -1.8591  1.2451  0.0554
10220SOL     OW31558   5.571   2.097   0.618  0.1931 -0.5929  0.0102
10220SOL    HW131559   5.594   2.186   0.657 -3.3597  0.1396  0.7536
10220SOL    HW231560   5.520   2.110   0.533 -1.8744 -1.7483  0.9900
10221SOL     OW31561   6.636   4.370   2.566 -0.0204  0.2084  0.0271
10221SOL    HW131562   6.582   4.316   2.501  1.6040  0.2791 -1.4471
10221SOL    HW231563   6.721   4.400   2.523  3.6779 -3.9128  3.4579
10222SOL     OW31564   3.191   3.657   4.479 -0.0341 -0.4672 -0.1150
10222SOL    HW131565   3.097   3.689   4.464  0.2176 -0.3222 -1.5414
10222SOL    HW231566   3.189   3.566   4.520 -0.9058 -1.8591 -2.9947
10223SOL     OW31567   0.988   5.032   0.819  0.2553 -0.2817  0.4695
10223SOL    HW131568   0.907   5.062   0.768  1.5685  0.6645 -1.1929
10223SOL    HW231569   0.965   4.953   0.876 -2.2346  0.9988  1.4014
10224SOL     OW31570   5.395   3.429   5.204  0.0271 -0.0735  0.2294
10224SOL    HW131571   5.346   3.496   5.148 -0.2574 -0.9450 -0.5919
10224SOL    HW231572   5.463   3.383   5.148  1.4863  0.7655  1.2298
10225SOL     OW31573   2.468   5.263   3.996  0.0506 -0.3636  0.5956
10225SOL    HW131574   2.486   5.360   4.013  1.5468 -0.3909 -0.6168
10225SOL    HW231575   2.544   5.209   4.033  0.6415 -0.8148 -1.1822
10226SOL     OW31576   3.949   1.348   5.466 -0.2505 -0.0646 -0.5104
10226SOL    HW131577   4.010   1.294   5.408  0.6536 -0.5569  0.8467
10226SOL    HW231578   3.866   1.296   5.485 -0.0629 -0.3491 -0.4675
10227SOL     OW31579   5.700   5.329   0.951  0.1440 -0.2829 -0.5087
10227SOL    HW131580   5.661   5.416   0.921  0.1097 -0.1548 -0.1096
10227SOL    HW231581   5.799   5.340   0.963  0.2068 -0.4262 -0.8959
10228SOL     OW31582   1.907   6.931   3.210 -0.1017 -0.1973 -0.7427
10228SOL    HW131583   1.992   6.984   3.215  2.3462 -3.5995 -2.2963
10228SOL    HW231584   1.861   6.950   3.124  0.0657  0.2748 -0.7351
10229SOL     OW31585   1.596   2.102   5.440 -0.0651 -0.6382  0.3489
10229SOL    HW131586   1.514   2.159   5.439  1.1321  1.1642 -0.0474
10229SOL    HW231587   1.631   2.096   5.533  0.4034  0.1915  0.2311
10230SOL     OW31588   5.110   5.843   4.263  0.3640  0.1298  0.6589
10230SOL    HW131589   5.042   5.913   4.239  1.6269  1.9172  1.9628
10230SOL    HW231590   5.167   5.822   4.183 -0.4814  0.0650  0.0686
10231SOL     OW31591   5.424   6.496   5.318 -0.2407  1.0267  0.5809
10231SOL    HW131592   5.441   6.398   5.310  0.0501  1.1471 -0.4304
10231SOL    HW231593   5.330   6.512   5.347 -0.0537  0.4346  1.5296
10232SOL     OW31594   3.409   0.002   3.991 -0.1030 -0.1738 -0.1702
10232SOL    HW131595   3.484   0.065   3.970 -0.6298 -0.1817 -2.3425
10232SOL    HW231596   3.435  -0.091   3.962 -1.1755 -0.0516 -1.6272
10233SOL     OW31597   3.590   3.939   4.609  0.2246 -0.2201  0.0698
10233SOL    HW131598   3.562   3.870   4.676  1.9826 -1.8569 -0.7894
10233SOL    HW231599   3.518   3.949   4.539 -1.8162  1.7950  2.2531
10234SOL     OW31600   4.861   2.330   1.144 -0.1286 -0.0085 -1.0001
10234SOL    HW131601   4.951   2.357   1.180 -0.7979 -0.2021  0.9398
10234SOL    HW231602   4.790   2.386   1.186 -1.2448 -2.4062  0.5242
10235SOL     OW31603   3.573   2.572   0.698 -0.3335  0.5497  0.8820
10235SOL    HW131604   3.502   2.526   0.645 -0.6657  2.1018 -0.0676
10235SOL    HW231605   3.663   2.546   0.663 -0.5448  1.4492 -0.4212
10236SOL     OW31606   1.197   6.028   6.587  0.3604  0.2745  0.0900
10236SOL    HW131607   1.251   5.953   6.548  0.4059  0.7788 -0.8646
10236SOL    HW231608   1.258   6.104   6.611  0.4920 -0.4639  2.3218
10237SOL     OW31609   1.782   5.285   0.476  0.4887 -0.8407  0.2416
10237SOL    HW131610   1.802   5.344   0.398  1.4053  0.0659  1.1397
10237SOL    HW231611   1.747   5.340   0.552 -1.0975 -1.8054  0.2598
10238SOL     OW31612   4.132   3.509   6.602 -0.6463 -0.1100  0.3536
10238SOL    HW131613   4.164   3.591   6.554  0.4397 -1.1252 -0.7372
10238SOL    HW231614   4.032   3.511   6.609 -0.7468  0.5967 -0.9763
10239SOL     OW31615   1.894   3.999   6.395 -0.3471  0.0012  0.1647
10239SOL    HW131616   1.907   4.014   6.493  0.2958 -0.6856  0.1921
10239SOL    HW231617   1.861   3.906   6.379  0.0098 -0.0486 -0.3009
10240SOL     OW31618   0.817   4.883   1.585 -0.3162  0.3395  0.0769
10240SOL    HW131619   0.876   4.813   1.625  0.8641  0.0186 -2.0705
10240SOL    HW231620   0.848   4.973   1.615  0.7761  0.1323 -0.3707
10241SOL     OW31621   4.502   0.909   4.255  0.2881  0.8651  0.5961
10241SOL    HW131622   4.580   0.937   4.311 -0.0288  1.1863  0.8802
10241SOL    HW231623   4.425   0.972   4.271 -1.0390 -1.1169  2.5574
10242SOL     OW31624   0.367   6.370   0.443  0.2746  0.3793 -0.7722
10242SOL    HW131625   0.364   6.469   0.437 -0.1475  0.3602 -0.8978
10242SOL    HW231626   0.391   6.332   0.354  2.5297  0.4474 -0.2380
10243SOL     OW31627   2.495   5.455   3.121  0.4137 -0.1479  0.1209
10243SOL    HW131628   2.525   5.543   3.086 -2.2835  0.8372  0.0457
10243SOL    HW231629   2.418   5.468   3.183 -1.6671 -2.5549 -1.7322
10244SOL     OW31630   1.657   4.640   1.186  0.0020  0.7659  0.3162
10244SOL    HW131631   1.613   4.554   1.160  1.5246  0.1753 -0.3988
10244SOL    HW231632   1.594   4.693   1.244 -1.8146  0.1834 -1.0321
10245SOL     OW31633   3.605   4.571   0.608 -0.1807  0.8098 -0.0880
10245SOL    HW131634   3.545   4.548   0.685 -0.9518  0.3733 -0.8041
10245SOL    HW231635   3.700   4.549   0.631 -0.3340  1.1368  0.9093
10246SOL     OW31636   2.974   3.676   3.433  0.3736 -0.1990 -0.0001
10246SOL    HW131637   3.005   3.769   3.450 -1.0171  0.5892 -1.4857
10246SOL    HW231638   3.000   3.648   3.340 -0.3052 -0.7947 -0.0280
10247SOL     OW31639   0.135   4.963   5.718 -0.2569  0.2834  0.0303
10247SOL    HW131640   0.160   4.869   5.692 -0.3751 -0.1068  1.2694
10247SOL    HW231641   0.099   4.963   5.811  0.0105  1.6168  0.1459
10248SOL     OW31642   2.768   5.682   0.527  0.3061 -0.7860 -0.0110
10248SOL    HW131643   2.739   5.770   0.564  1.6922 -1.8801  4.3050
10248SOL    HW231644   2.830   5.696   0.450 -0.7955  1.8845 -0.5024
10249SOL     OW31645   3.677   4.387   5.244 -0.1063 -0.0192  0.1405
10249SOL    HW131646   3.687   4.348   5.153 -0.6667  1.2107 -0.4806
10249SOL    HW231647   3.598   4.346   5.290 -0.6678  0.3408 -0.4886
10250SOL     OW31648   5.854   2.529   2.759 -0.1080 -0.3712 -0.3590
10250SOL    HW131649   5.826   2.582   2.679 -1.8329 -0.0234  0.4229
10250SOL    HW231650   5.881   2.592   2.833  0.2200 -0.6430 -0.2494
10251SOL     OW31651   1.687   6.002   5.563  0.3265  0.3633 -0.1088
10251SOL    HW131652   1.651   6.066   5.631  0.3267  0.9999 -0.6955
10251SOL    HW231653   1.636   5.916   5.568 -0.9792  1.0848 -0.6033
10252SOL     OW31654   3.001   3.257   4.356 -0.5806 -0.5496 -0.3892
10252SOL    HW131655   3.036   3.290   4.269 -1.7656  1.2055 -0.2286
10252SOL    HW231656   2.984   3.158   4.349  2.7915 -1.2472 -0.9458
10253SOL     OW31657   1.364   6.416   6.672  0.5565 -0.0636  0.0253
10253SOL    HW131658   1.305   6.426   6.592  1.8656 -2.0960 -1.3051
10253SOL    HW231659   1.376   6.319   6.692  2.2211  0.3409  1.1873
10254SOL     OW31660   3.811   0.190   4.453  0.1577 -0.2667  0.2780
10254SOL    HW131661   3.747   0.217   4.524  1.2652 -1.0100  1.6035
10254SOL    HW231662   3.904   0.213   4.481  0.6236 -0.6159 -0.9150
10255SOL     OW31663   1.214   6.724   2.493 -0.4774  0.3807 -1.1972
10255SOL    HW131664   1.153   6.724   2.573  1.7847 -0.7459  0.6772
10255SOL    HW231665   1.205   6.811   2.445 -2.3479  0.8844 -0.0758
10256SOL     OW31666   5.421   2.620   1.365  0.2544  0.4201  0.1412
10256SOL    HW131667   5.362   2.673   1.304  1.0263  2.7904  1.3162
10256SOL    HW231668   5.392   2.633   1.459  0.7494 -0.9633  0.5142
10257SOL     OW31669   6.596   3.983   6.358 -0.3738  0.0589 -0.2431
10257SOL    HW131670   6.552   3.994   6.269 -1.6033  2.8281  0.5836
10257SOL    HW231671   6.526   3.966   6.427  0.6773 -3.6936  0.1179
10258SOL     OW31672   2.854   1.750   4.200 -0.0833  0.0598 -0.6752
10258SOL    HW131673   2.804   1.665   4.183 -0.0384  0.2347 -1.7412
10258SOL    HW231674   2.816   1.796   4.280 -1.5692  0.1343 -1.3890
10259SOL     OW31675   6.007   4.917   2.967 -0.0041  0.4219 -0.4363
10259SOL    HW131676   6.048   4.927   2.877 -0.7522  1.2728 -0.7000
10259SOL    HW231677   6.006   4.821   2.993  1.4044  0.2970 -0.7570
10260SOL     OW31678   3.219   0.611   5.638 -0.1094 -0.4711  0.1965
10260SOL    HW131679   3.295   0.675   5.646  0.0455 -0.8200  1.7853
10260SOL    HW231680   3.254   0.520   5.614 -0.3246 -0.0458 -2.0037
10261SOL     OW31681   0.639   3.847   2.106 -0.1622  0.8527 -0.2711
10261SOL    HW131682   0.591   3.765   2.072 -1.5180  2.3162 -2.1458
10261SOL    HW231683   0.738   3.834   2.096 -0.1930 -1.3426  1.4969
10262SOL     OW31684   3.155   5.523   2.889  0.1367 -0.5183 -0.0915
10262SOL    HW131685   3.078   5.483   2.839 -1.3853  1.0272  0.8693
10262SOL    HW231686   3.223   5.557   2.824 -0.3521 -1.2298 -0.9973
10263SOL     OW31687   5.057   6.377   1.825  0.0755  0.0664  0.4952
10263SOL    HW131688   5.133   6.316   1.803 -1.2742 -2.1862  1.6986
10263SOL    HW231689   5.058   6.398   1.923 -1.5612 -1.1390  0.8194
10264SOL     OW31690   5.863   6.606   6.544  0.2057 -0.8029 -0.0919
10264SOL    HW131691   5.957   6.604   6.510  0.3282 -0.9587  0.2544
10264SOL    HW231692   5.806   6.656   6.479  1.0572  1.7373  0.9895
10265SOL     OW31693   2.464   3.052   1.357  0.4798  0.1749 -0.1450
10265SOL    HW131694   2.385   2.992   1.339 -0.1613  1.0881 -0.4364
10265SOL    HW231695   2.467   3.074   1.455  2.5450 -2.8054  0.6257
10266SOL     OW31696   3.300   3.667   3.225  0.6291  0.1605 -0.6406
10266SOL    HW131697   3.324   3.613   3.306  0.5960  1.6910  0.4533
10266SOL    HW231698   3.227   3.621   3.175  0.2776 -0.5821  0.5038
10267SOL     OW31699   5.531   4.001   6.590 -0.4105  0.3863  0.1770
10267SOL    HW131700   5.476   3.974   6.669 -0.9655 -1.6890 -0.8563
10267SOL    HW231701   5.560   3.920   6.540 -1.4803  1.6562 -2.7330
10268SOL     OW31702   4.512   5.584   3.287  0.5938  0.6116 -0.4031
10268SOL    HW131703   4.466   5.503   3.321 -0.1556  1.1335 -0.1539
10268SOL    HW231704   4.598   5.597   3.337 -0.3352  1.1925  1.1031
10269SOL     OW31705   0.711   2.799   0.717 -0.2750 -0.4592  0.2042
10269SOL    HW131706   0.612   2.782   0.713 -0.1279 -1.5740  0.8742
10269SOL    HW231707   0.760   2.720   0.680  0.3536  0.5699 -1.2163
10270SOL     OW31708   4.114   4.819   2.862  0.1312  0.0068  0.0642
10270SOL    HW131709   4.185   4.752   2.838  0.5531  0.9439 -1.4030
10270SOL    HW231710   4.138   4.908   2.825  0.3891  1.4332  3.2996
10271SOL     OW31711   3.932   2.801   5.240 -0.2565 -0.6830 -0.0817
10271SOL    HW131712   3.962   2.734   5.308 -1.2386 -0.7073  0.3372
10271SOL    HW231713   3.832   2.804   5.238 -0.2242  0.4602 -0.4022
10272SOL     OW31714   0.988   2.206   5.428  0.2082  0.2030 -0.5053
10272SOL    HW131715   1.072   2.243   5.387 -0.3478  1.2943 -0.6905
10272SOL    HW231716   0.928   2.281   5.454 -0.4472 -0.5522  0.2163
10273SOL     OW31717   2.375   6.401   3.550 -0.2835 -0.1070 -0.2090
10273SOL    HW131718   2.471   6.427   3.549 -0.6641  1.3687 -0.2813
10273SOL    HW231719   2.326   6.448   3.477 -1.4711  0.9151  1.1709
10274SOL     OW31720   7.005   4.380   5.750  0.2477  0.2677  0.3026
10274SOL    HW131721   6.992   4.467   5.702  0.0962 -0.1820 -0.5008
10274SOL    HW231722   7.053   4.316   5.690 -1.1892 -0.7826  0.2051
10275SOL     OW31723   1.710   3.303   3.283  0.1374  0.3666 -0.0277
10275SOL    HW131724   1.698   3.232   3.213 -0.3254  0.5257 -0.1144
10275SOL    HW231725   1.806   3.308   3.309 -0.2403 -3.0199  2.8605
10276SOL     OW31726   0.124   5.730   5.985 -0.5216  0.0016 -0.4346
10276SOL    HW131727   0.073   5.801   6.032 -1.8468 -2.0226  1.3780
10276SOL    HW231728   0.220   5.735   6.010 -0.5918  1.1202 -0.3475
10277SOL     OW31729   2.997   0.886   3.196 -0.0825 -0.1220 -0.3355
10277SOL    HW131730   2.920   0.829   3.224 -0.1713  0.6893  1.2367
10277SOL    HW231731   2.963   0.974   3.162  0.0636 -0.8375 -2.4609
10278SOL     OW31732   0.999   0.862   6.822  0.6390  0.6391 -0.1728
10278SOL    HW131733   0.985   0.767   6.849 -1.4629  1.1530  0.7316
10278SOL    HW231734   1.050   0.910   6.893 -1.8056  1.1191  1.3524
10279SOL     OW31735   3.756   4.906   2.924  0.0186 -0.3259 -0.1759
10279SOL    HW131736   3.828   4.923   2.857 -0.5120 -0.4973 -0.7986
10279SOL    HW231737   3.796   4.869   3.007  0.6639 -0.2799 -0.4605
10280SOL     OW31738   0.817   1.294   1.761  0.1027 -0.0084 -0.4301
10280SOL    HW131739   0.818   1.257   1.854  0.2554  1.0523 -0.0005
10280SOL    HW231740   0.820   1.218   1.695  0.6097 -0.7505  0.4232
10281SOL     OW31741   6.140   1.554   3.672 -0.3617  0.2498 -0.0955
10281SOL    HW131742   6.193   1.595   3.746  0.5159  1.0619 -1.1399
10281SOL    HW231743   6.053   1.521   3.708 -0.0596  0.8391  1.2420
10282SOL     OW31744   4.962   3.017   3.386 -0.3133  0.2153 -0.4040
10282SOL    HW131745   5.013   2.973   3.313 -1.7140 -1.1896 -0.5850
10282SOL    HW231746   5.024   3.036   3.463  0.5134 -1.3620 -0.6364
10283SOL     OW31747   1.782   1.493   2.341  0.2718  0.4144 -0.0663
10283SOL    HW131748   1.799   1.535   2.430  1.1981  0.1271 -0.0917
10283SOL    HW231749   1.861   1.438   2.315  0.0122  0.4965 -1.0727
10284SOL     OW31750   6.476   2.613   5.462 -0.1311  0.1382  0.5532
10284SOL    HW131751   6.535   2.628   5.541  3.2068 -1.6215 -1.3670
10284SOL    HW231752   6.456   2.701   5.419  1.7617  0.7786  0.8891
10285SOL     OW31753   5.020   0.148   2.528  0.0409 -0.6217 -0.0758
10285SOL    HW131754   5.053   0.158   2.622  1.5970  0.4863 -0.6909
10285SOL    HW231755   4.961   0.226   2.505  1.5606  0.3802 -0.7246
10286SOL     OW31756   3.021   1.520   3.557  0.0934  0.2156  0.4172
10286SOL    HW131757   3.104   1.566   3.526 -0.2729 -0.1701 -1.2290
10286SOL    HW231758   2.975   1.478   3.479 -0.5329 -1.4144  1.6027
10287SOL     OW31759   2.980   0.553   1.243  0.8341 -0.3864  0.7279
10287SOL    HW131760   2.926   0.472   1.265 -2.5686  1.6417  0.4752
10287SOL    HW231761   2.959   0.583   1.150  0.1407  2.0695  1.6038
10288SOL     OW31762   3.630   6.342   3.968  0.2930 -0.7919 -0.4687
10288SOL    HW131763   3.550   6.348   4.028 -0.0058 -1.8079 -0.7370
10288SOL    HW231764   3.713   6.364   4.020 -0.1941  0.7563 -0.3066
10289SOL     OW31765   2.664   6.312   6.541  0.3022 -0.5690 -0.5382
10289SOL    HW131766   2.665   6.383   6.611 -0.0158 -1.7010  0.6477
10289SOL    HW231767   2.603   6.340   6.466  0.1295  0.3666 -0.0637
10290SOL     OW31768   3.744   3.660   2.804 -0.2347 -0.1927 -0.6181
10290SOL    HW131769   3.660   3.714   2.811 -0.3541 -0.4488 -0.0165
10290SOL    HW231770   3.722   3.563   2.813 -0.0249 -0.3521 -1.7274
10291SOL     OW31771   3.341   1.123   3.135 -0.0317  0.2436  0.2884
10291SOL    HW131772   3.306   1.141   3.227  0.1026  0.2850  0.3318
10291SOL    HW231773   3.418   1.184   3.116  2.4149 -2.1769  1.5749
10292SOL     OW31774   2.411   1.849   5.584  0.0919 -0.3407  0.4176
10292SOL    HW131775   2.508   1.865   5.606 -0.1242 -0.0467  1.1722
10292SOL    HW231776   2.358   1.931   5.605 -0.1546 -0.0596 -1.1401
10293SOL     OW31777   2.049   4.242   2.281 -0.0344 -0.0482 -0.0923
10293SOL    HW131778   2.051   4.326   2.335 -0.7523 -0.4581  0.5940
10293SOL    HW231779   2.009   4.260   2.191  2.4069  0.9395 -1.0638
10294SOL     OW31780   4.866   2.415   4.492 -0.3145  0.2636 -0.9146
10294SOL    HW131781   4.885   2.513   4.481  1.4836 -0.1575 -2.0046
10294SOL    HW231782   4.767   2.400   4.493 -0.6203  2.1159 -0.4388
10295SOL     OW31783   6.604   4.553   5.292  0.1368 -0.3894  0.0771
10295SOL    HW131784   6.556   4.466   5.285 -0.4409 -0.1836  1.2168
10295SOL    HW231785   6.538   4.628   5.292  0.5344 -0.0325  0.4159
10296SOL     OW31786   6.506   1.153   1.089 -0.5047  0.2813  0.3837
10296SOL    HW131787   6.422   1.101   1.078 -1.0878  1.1801  0.4360
10296SOL    HW231788   6.561   1.113   1.163  0.1253 -1.5502 -0.9886
10297SOL     OW31789   3.506   0.913   6.274 -0.1394 -0.0958 -0.1112
10297SOL    HW131790   3.577   0.875   6.333 -1.9530 -0.4735  1.9489
10297SOL    HW231791   3.452   0.979   6.325 -0.3329  1.3902 -2.1016
10298SOL     OW31792   2.768   4.774   1.488  1.1182 -0.1195  0.0006
10298SOL    HW131793   2.846   4.755   1.428  1.5846  0.5650  0.3817
10298SOL    HW231794   2.765   4.872   1.508 -0.6493  0.1155 -1.1368
10299SOL     OW31795   4.765   4.779   3.009  0.1982 -0.3944 -0.9208
10299SOL    HW131796   4.843   4.838   2.988  0.7978 -0.2650  1.3742
10299SOL    HW231797   4.686   4.808   2.956  1.1548  0.8461 -1.7271
10300SOL     OW31798   6.340   5.240   0.758 -0.1234 -0.2495  0.2132
10300SOL    HW131799   6.303   5.326   0.795  0.5726 -0.2500  0.9466
10300SOL    HW231800   6.265   5.182   0.727 -0.6817  0.0693  0.9451
10301SOL     OW31801   5.167   0.409   4.482  0.1062 -0.2927  0.5918
10301SOL    HW131802   5.071   0.412   4.454  0.2048 -2.5810 -0.1887
10301SOL    HW231803   5.194   0.314   4.499  2.0171  0.3820  1.6478
10302SOL     OW31804   2.808   5.526   3.206 -0.4190  0.1078  0.4672
10302SOL    HW131805   2.788   5.440   3.159 -0.7185 -0.3937  1.5011
10302SOL    HW231806   2.898   5.559   3.177 -0.2869 -0.5619  0.0863
10303SOL     OW31807   1.584   5.031   4.169  0.0504 -0.1207 -0.0143
10303SOL    HW131808   1.623   5.035   4.077  1.9030  1.9124  0.7559
10303SOL    HW231809   1.529   5.113   4.185  2.8885  1.6202  1.8526
10304SOL     OW31810   5.266   6.413   0.975 -0.2755  0.5431  0.3554
10304SOL    HW131811   5.278   6.466   1.059 -0.2912 -0.0376  0.7218
10304SOL    HW231812   5.352   6.368   0.952 -0.7008 -0.6047  0.9491
10305SOL     OW31813   0.636   4.322   5.539  0.1128 -0.4042 -0.5100
10305SOL    HW131814   0.664   4.395   5.601 -1.0237  1.5151 -2.1380
10305SOL    HW231815   0.577   4.258   5.588 -0.6801  0.9953  0.4529
10306SOL     OW31816   6.067   0.547   1.130  0.5229  0.7991 -0.3844
10306SOL    HW131817   6.083   0.565   1.033 -0.7120  1.7892 -0.4264
10306SOL    HW231818   6.124   0.607   1.186  0.2137  1.2225 -0.5166
10307SOL     OW31819   4.973   2.110   5.225  0.0278 -0.3334 -0.4409
10307SOL    HW131820   4.918   2.027   5.213 -0.9205  0.0407  1.0132
10307SOL    HW231821   5.045   2.093   5.293 -0.5353  0.1803  0.2984
10308SOL     OW31822   2.311   2.769   2.074  0.2113 -0.1687  0.0409
10308SOL    HW131823   2.288   2.671   2.080 -2.0046  0.0950 -2.0823
10308SOL    HW231824   2.364   2.785   1.991  2.3514  0.2361  1.4126
10309SOL     OW31825   0.229   2.275   6.083  0.8285 -0.0336  0.5309
10309SOL    HW131826   0.154   2.319   6.035  0.3946 -0.3468  0.9118
10309SOL    HW231827   0.271   2.206   6.024  0.8067  0.1291  0.3248
10310SOL     OW31828   3.763   1.987   6.667  0.0428 -0.2129  0.3964
10310SOL    HW131829   3.792   1.891   6.674 -1.9736 -0.7636  3.5860
10310SOL    HW231830   3.710   1.999   6.583 -0.3769 -2.1540  0.3191
10311SOL     OW31831   0.224   5.347   6.641  0.7293 -0.0618  0.4267
10311SOL    HW131832   0.306   5.290   6.644  0.2357 -0.7288  1.4386
10311SOL    HW231833   0.150   5.303   6.692 -0.1176  0.7724 -0.0443
10312SOL     OW31834   3.806   5.585   2.361  0.6771 -0.0608  0.2938
10312SOL    HW131835   3.849   5.510   2.411 -0.6942 -0.5809  0.7497
10312SOL    HW231836   3.775   5.552   2.272  1.3715  0.3570 -0.1090
10313SOL     OW31837   5.301   6.632   1.741  0.4209 -0.7554 -0.7738
10313SOL    HW131838   5.286   6.638   1.840  2.5833 -0.0262 -0.4455
10313SOL    HW231839   5.395   6.658   1.720 -0.9952  3.2387 -3.4262
10314SOL     OW31840   5.945   1.270   2.387 -0.1801  0.0716 -0.0126
10314SOL    HW131841   5.980   1.362   2.403 -1.1535  0.4926 -0.2094
10314SOL    HW231842   5.873   1.273   2.318 -0.0669 -0.8740 -0.1893
10315SOL     OW31843   3.723   6.466   4.542 -0.0261 -0.5362 -0.1558
10315SOL    HW131844   3.692   6.411   4.620 -0.8906  1.8740  1.3014
10315SOL    HW231845   3.656   6.539   4.524  1.0444  0.0401 -2.0270
10316SOL     OW31846   5.550   2.685   5.977  0.4107  0.1778  0.5040
10316SOL    HW131847   5.475   2.718   6.033 -1.1374 -1.3891 -0.5438
10316SOL    HW231848   5.535   2.712   5.882  0.8162 -0.7423  0.1729
10317SOL     OW31849   5.060   0.350   5.529 -0.1543  0.2515  0.6448
10317SOL    HW131850   4.985   0.297   5.492 -0.7258  2.0790 -0.9867
10317SOL    HW231851   5.029   0.443   5.550  0.9175  0.1651  2.9150
10318SOL     OW31852   6.108   5.808   0.547  0.2525 -0.3825 -0.3504
10318SOL    HW131853   6.183   5.849   0.598  1.9660 -1.0904 -2.1828
10318SOL    HW231854   6.111   5.708   0.557 -0.0811 -0.4525 -0.8935
10319SOL     OW31855   0.280   2.356   6.668  0.2390  0.3986  0.1562
10319SOL    HW131856   0.213   2.430   6.673 -0.6887 -0.3109 -1.2194
10319SOL    HW231857   0.372   2.394   6.672 -0.2292  1.5623  0.2002
10320SOL     OW31858   1.361   0.934   3.452 -0.0202 -0.0191  0.3909
10320SOL    HW131859   1.328   0.891   3.535  1.9814 -0.5998  0.9304
10320SOL    HW231860   1.352   0.871   3.375  1.0792 -0.7074  0.8051
10321SOL     OW31861   0.915   0.875   3.091 -0.7144 -0.0829 -0.7894
10321SOL    HW131862   0.922   0.975   3.098 -1.6050  0.0312 -1.4674
10321SOL    HW231863   0.870   0.850   3.006 -1.7891 -1.0204  0.0215
10322SOL     OW31864   1.608   0.554   5.345 -0.5009 -0.4104 -0.0728
10322SOL    HW131865   1.527   0.562   5.403  0.8387 -0.4303  1.9059
10322SOL    HW231866   1.607   0.464   5.300 -1.6419 -0.3397 -0.2239
10323SOL     OW31867   6.411   2.820   5.325  0.4977  0.6017  0.2848
10323SOL    HW131868   6.367   2.771   5.249  1.0112  2.6499 -1.4235
10323SOL    HW231869   6.377   2.914   5.328  0.7180  0.6637  2.4682
10324SOL     OW31870   2.734   3.267   1.325  0.6273 -0.0727  0.2560
10324SOL    HW131871   2.719   3.170   1.305  1.0713 -0.1599  0.3439
10324SOL    HW231872   2.665   3.298   1.390  1.1840 -0.6288  1.1288
10325SOL     OW31873   4.577   2.580   3.167 -0.6379  0.6855 -0.1013
10325SOL    HW131874   4.607   2.622   3.253  0.6808 -1.1725  0.3973
10325SOL    HW231875   4.481   2.554   3.175 -0.7442  1.2343  0.5253
10326SOL     OW31876   2.478   5.472   1.758 -0.7407  0.2317 -0.3776
10326SOL    HW131877   2.555   5.417   1.790 -1.9218 -1.2892 -0.0371
10326SOL    HW231878   2.509   5.565   1.738  1.1359 -0.3078 -0.1208
10327SOL     OW31879   2.486   1.081   0.305  0.2293 -0.2444 -0.4845
10327SOL    HW131880   2.391   1.059   0.284  0.0157 -1.1677  1.2589
10327SOL    HW231881   2.537   0.996   0.322  1.1323  0.2925 -0.4219
10328SOL     OW31882   0.293   4.024   1.422 -0.0738 -0.2304 -0.3347
10328SOL    HW131883   0.282   4.068   1.512  1.2491  0.3820 -0.4391
10328SOL    HW231884   0.390   4.013   1.403 -0.3464 -0.4975 -1.6380
10329SOL     OW31885   2.943   1.150   4.245 -0.1468 -0.6648 -0.1586
10329SOL    HW131886   2.990   1.152   4.333 -0.2249  2.1578 -0.0762
10329SOL    HW231887   2.849   1.117   4.258 -0.1850 -0.1965  0.8392
10330SOL     OW31888   2.493   2.393   3.002  0.1990 -0.0378  0.2727
10330SOL    HW131889   2.579   2.358   3.039  1.3010  3.2024  1.1354
10330SOL    HW231890   2.474   2.350   2.914  2.2942 -1.4087  0.4413
10331SOL     OW31891   6.340   0.542   6.780 -0.7493  0.3599  0.3062
10331SOL    HW131892   6.260   0.568   6.833 -0.0329  2.2608  0.5247
10331SOL    HW231893   6.414   0.607   6.796 -0.0324  0.1959 -1.9306
10332SOL     OW31894   0.359   0.821   2.319  0.4214  0.1479  0.2954
10332SOL    HW131895   0.351   0.888   2.245  1.7146  1.5890  1.3892
10332SOL    HW231896   0.455   0.805   2.338  0.1005 -0.5292  1.3835
10333SOL     OW31897   0.077   6.767   6.028 -0.2407  0.1478  0.3581
10333SOL    HW131898   0.162   6.819   6.037  0.6067 -0.7431 -1.6733
10333SOL    HW231899   0.074   6.695   6.097  2.4771 -2.0707 -1.6117
10334SOL     OW31900   3.042   6.591   4.082  0.0894  0.4135  0.3326
10334SOL    HW131901   3.124   6.542   4.049  0.0132  1.3932 -1.4385
10334SOL    HW231902   2.998   6.636   4.005 -1.2799  1.1708  1.5273
10335SOL     OW31903   3.998   5.335   5.986  0.1436  0.1011 -0.6639
10335SOL    HW131904   3.903   5.320   5.960  0.5888  0.4878 -2.6219
10335SOL    HW231905   4.051   5.362   5.906  1.6515  1.1713  0.6362
10336SOL     OW31906   6.610   5.781   2.086 -0.9745  0.1533  0.1397
10336SOL    HW131907   6.537   5.845   2.107 -1.4123  0.0067 -0.8726
10336SOL    HW231908   6.598   5.698   2.140 -2.0384 -0.1891 -0.5808
10337SOL     OW31909   6.011   6.215   6.082  0.7656  0.6313 -0.4518
10337SOL    HW131910   6.049   6.173   6.164 -0.4229 -0.0846 -0.2327
10337SOL    HW231911   5.991   6.311   6.098  1.1916  0.6645 -0.1321
10338SOL     OW31912   1.910   5.994   3.677 -0.3680  0.1163 -0.6200
10338SOL    HW131913   1.933   5.937   3.597  0.1857  0.7059 -0.8939
10338SOL    HW231914   1.865   5.937   3.746 -0.4969 -0.4929 -1.1849
10339SOL     OW31915   2.840   4.096   1.264  0.3271 -0.7577 -0.8020
10339SOL    HW131916   2.794   4.008   1.274 -1.2407  0.2826  2.3321
10339SOL    HW231917   2.898   4.113   1.343  0.8994  0.8751 -1.5226
10340SOL     OW31918   2.046   3.452   1.560  0.1798 -0.2782  0.4367
10340SOL    HW131919   2.050   3.506   1.644  1.4645 -2.1232  1.6293
10340SOL    HW231920   1.991   3.370   1.576 -1.0711  0.2132 -1.1003
10341SOL     OW31921   2.728   3.946   1.643 -0.2476 -0.0067 -0.6025
10341SOL    HW131922   2.718   3.864   1.698 -1.8827  0.3752 -0.2592
10341SOL    HW231923   2.690   3.930   1.552 -2.9976  1.0449  0.2469
10342SOL     OW31924   1.716   0.559   3.616  0.5510  0.1891  0.2525
10342SOL    HW131925   1.658   0.633   3.583 -1.6210 -1.3714  0.3458
10342SOL    HW231926   1.801   0.556   3.563  0.3826  2.2516 -0.2151
10343SOL     OW31927   0.896   4.806   3.358 -0.2363  0.0588  0.3002
10343SOL    HW131928   0.981   4.758   3.379 -0.4832 -1.1873 -1.4020
10343SOL    HW231929   0.915   4.882   3.296 -0.1102  1.1010  1.5631
10344SOL     OW31930   4.916   2.831   1.900 -0.4777 -0.0359  0.5179
10344SOL    HW131931   4.861   2.748   1.907 -1.6541  0.6433 -0.3432
10344SOL    HW231932   4.874   2.904   1.952 -0.4978  0.5474 -0.3041
10345SOL     OW31933   0.606   2.538   6.354  0.0575 -0.2477  0.0213
10345SOL    HW131934   0.548   2.480   6.296 -1.1784  1.0068 -0.0453
10345SOL    HW231935   0.661   2.599   6.297 -0.5341  0.3966  0.1216
10346SOL     OW31936   0.473   6.013   2.220 -0.0203  0.4426  0.3871
10346SOL    HW131937   0.487   5.939   2.286 -0.0475  0.0758 -0.0138
10346SOL    HW231938   0.534   6.089   2.242  0.0763  0.2654  0.7441
10347SOL     OW31939   4.500   2.066   4.394  0.1784 -0.4905  0.0066
10347SOL    HW131940   4.413   2.067   4.442 -0.3572 -2.7883 -0.8086
10347SOL    HW231941   4.484   2.058   4.296  1.3099 -0.7968 -0.1662
10348SOL     OW31942   5.826   1.858   0.346  0.5761 -0.0746 -0.4009
10348SOL    HW131943   5.813   1.897   0.438  0.1324 -0.3566 -0.3397
10348SOL    HW231944   5.898   1.909   0.298 -0.4778  1.2959 -0.5927
10349SOL     OW31945   6.873   6.997   2.780  0.4067  1.0506  0.5327
10349SOL    HW131946   6.965   7.004   2.742  0.8725 -1.1596  1.1112
10349SOL    HW231947   6.806   6.993   2.705  1.1157 -0.9599 -0.0517
10350SOL     OW31948   1.800   1.113   5.129  0.4367  0.1261  0.1252
10350SOL    HW131949   1.753   1.096   5.216 -0.5361  0.1519 -0.3869
10350SOL    HW231950   1.733   1.133   5.058  1.2412  0.3572 -0.5831
10351SOL     OW31951   5.487   4.810   5.392 -0.4742  0.3275  0.6708
10351SOL    HW131952   5.518   4.856   5.475 -0.6895  1.8598 -0.0598
10351SOL    HW231953   5.454   4.878   5.326 -1.3003 -0.9318 -0.2647
10352SOL     OW31954   5.653   3.208   1.299 -0.9397  0.1320  0.2584
10352SOL    HW131955   5.720   3.280   1.317 -2.0118  1.4662 -0.8501
10352SOL    HW231956   5.616   3.220   1.207 -0.9821 -2.0064 -0.0417
10353SOL     OW31957   1.343   2.828   4.108  0.3218 -0.1970 -0.0302
10353SOL    HW131958   1.400   2.908   4.090  1.4507 -1.4425 -2.5401
10353SOL    HW231959   1.247   2.851   4.090  0.6115  0.6499 -0.5569
10354SOL     OW31960   6.533   1.924   1.686  1.0878  0.5550 -0.2094
10354SOL    HW131961   6.525   2.023   1.696  2.5945  0.6085  0.7426
10354SOL    HW231962   6.530   1.900   1.588 -1.6797  1.2623 -0.3567
10355SOL     OW31963   0.089   0.865   1.513 -0.2752 -0.2985 -0.4076
10355SOL    HW131964  -0.004   0.853   1.547 -0.3991 -1.8820 -1.2166
10355SOL    HW231965   0.151   0.804   1.562  0.2289  0.2797 -0.3142
10356SOL     OW31966   0.364   5.605   6.252 -0.2649  0.4358 -0.1016
10356SOL    HW131967   0.398   5.553   6.330 -1.9837  0.9271  1.0253
10356SOL    HW231968   0.347   5.700   6.280 -1.8490  0.3823 -0.7792
10357SOL     OW31969   2.527   3.755   6.004 -0.4009  0.0937 -0.2981
10357SOL    HW131970   2.580   3.786   5.925 -1.8987 -0.4792 -1.5815
10357SOL    HW231971   2.493   3.662   5.987  1.9801 -1.4369  2.4534
10358SOL     OW31972   2.457   4.983   3.043  0.2233  0.7242 -0.1193
10358SOL    HW131973   2.542   4.933   3.059  0.9463  1.3935 -1.5604
10358SOL    HW231974   2.472   5.049   2.969 -2.2485 -0.9504 -2.3064
10359SOL     OW31975   1.241   0.703   1.762  0.0237  0.3841 -0.3171
10359SOL    HW131976   1.262   0.800   1.774  1.9904 -0.2241  1.7291
10359SOL    HW231977   1.165   0.678   1.821  0.1186  0.5020 -0.1420
10360SOL     OW31978   4.305   6.210   3.638  0.2343 -0.2133 -0.2189
10360SOL    HW131979   4.387   6.245   3.591 -0.2588  1.3032 -0.0045
10360SOL    HW231980   4.330   6.181   3.730  0.5113  0.4572 -0.0724
10361SOL     OW31981   4.308   0.788   2.798 -0.0467 -0.1612  0.0832
10361SOL    HW131982   4.383   0.726   2.775 -1.0304 -1.0190 -0.9401
10361SOL    HW231983   4.330   0.837   2.883  1.4657 -0.6911  0.0306
10362SOL     OW31984   0.856   4.377   4.532 -0.3928 -0.2721  0.3166
10362SOL    HW131985   0.872   4.392   4.629  1.9252 -0.0251 -0.0516
10362SOL    HW231986   0.876   4.282   4.509 -0.5838 -0.2399 -0.0002
10363SOL     OW31987   4.839   0.201   2.138  0.6566  0.6448 -0.7515
10363SOL    HW131988   4.772   0.126   2.133  0.6644  0.5569  0.3545
10363SOL    HW231989   4.797   0.280   2.181  0.7204  1.2257 -1.7251
10364SOL     OW31990   3.865   2.980   2.324  0.4854  0.3934  0.0768
10364SOL    HW131991   3.783   2.944   2.368  0.5606  0.2488  0.0969
10364SOL    HW231992   3.947   2.943   2.368  0.5744  1.2656  0.6868
10365SOL     OW31993   4.529   5.026   6.135  0.1423 -0.2536  0.6136
10365SOL    HW131994   4.539   4.970   6.217 -1.0538 -1.4336 -0.0157
10365SOL    HW231995   4.512   4.967   6.056 -1.1133  0.9920 -0.0862
10366SOL     OW31996   4.973   6.961   6.739  0.6439  0.2211 -0.4132
10366SOL    HW131997   5.004   6.955   6.645 -1.4610 -1.3449 -1.1017
10366SOL    HW231998   4.933   7.051   6.756 -0.0369  0.1255 -1.4240
10367SOL     OW31999   5.766   0.842   3.335 -0.2466  0.1963 -0.3575
10367SOL    HW132000   5.809   0.905   3.270  0.0966 -0.0758 -0.3993
10367SOL    HW232001   5.697   0.787   3.287 -1.0246  0.9863 -0.1844
10368SOL     OW32002   1.671   3.045   2.510  0.7646 -0.4599  0.5850
10368SOL    HW132003   1.600   3.006   2.452  1.4556 -0.7712 -0.0702
10368SOL    HW232004   1.673   3.144   2.498  1.2184 -0.5627 -0.3140
10369SOL     OW32005   2.946   1.514   5.096 -0.0397  0.2371 -0.1315
10369SOL    HW132006   2.945   1.532   5.195 -0.3069  0.4714 -0.1773
10369SOL    HW232007   2.988   1.591   5.049  1.0087 -0.3026 -0.1174
10370SOL     OW32008   3.652   6.585   5.972 -0.3426 -0.2470 -0.4282
10370SOL    HW132009   3.748   6.581   5.946  1.2631 -2.1255  4.5974
10370SOL    HW232010   3.621   6.680   5.972  1.6127  0.4477 -1.7248
10371SOL     OW32011   2.224   1.203   5.048 -0.4913  0.5979 -0.5116
10371SOL    HW132012   2.174   1.253   5.119 -2.0929 -0.9462 -0.4679
10371SOL    HW232013   2.281   1.266   4.996  0.6560  1.8336  2.0236
10372SOL     OW32014   0.960   1.528   7.001  0.1977 -0.4794 -0.0652
10372SOL    HW132015   1.038   1.510   6.941  2.0058  2.1825  1.2963
10372SOL    HW232016   0.968   1.620   7.039 -1.2769 -1.7041  3.6061
10373SOL     OW32017   3.295   4.904   3.372  0.5362 -0.4813  0.1692
10373SOL    HW132018   3.206   4.943   3.349  0.7679 -1.3214 -2.5232
10373SOL    HW232019   3.306   4.901   3.472 -1.4165  1.8315  0.5442
10374SOL     OW32020   4.136   1.432   3.882 -0.3851  0.2393 -0.0902
10374SOL    HW132021   4.161   1.358   3.944  1.0515  0.8606  0.1092
10374SOL    HW232022   4.064   1.487   3.924  1.2492  1.2500  1.5560
10375SOL     OW32023   0.528   1.918   4.583  0.2964  0.8193  0.1143
10375SOL    HW132024   0.625   1.944   4.591  0.6622 -0.4681  0.1351
10375SOL    HW232025   0.507   1.848   4.651 -0.1869 -0.1599 -1.0015
10376SOL     OW32026   0.639   4.991   4.397 -0.1163 -0.1878  0.3235
10376SOL    HW132027   0.604   4.957   4.484 -0.1356 -0.4637  0.2082
10376SOL    HW232028   0.718   4.938   4.369 -0.3474 -0.3589 -0.0203
10377SOL     OW32029   0.671   2.142   6.235  0.8518  0.2008 -0.0907
10377SOL    HW132030   0.763   2.181   6.233  0.5643  0.9074 -0.0545
10377SOL    HW232031   0.611   2.196   6.177 -0.1629  1.4525  1.9803
10378SOL     OW32032   0.090   6.553   0.211 -0.2310 -0.4428  0.1016
10378SOL    HW132033   0.064   6.617   0.284  1.2520 -1.7275  1.8419
10378SOL    HW232034   0.170   6.588   0.163 -1.0112  0.2441 -0.7384
10379SOL     OW32035   3.908   5.835   4.841 -0.4423 -0.0967  0.1577
10379SOL    HW132036   4.005   5.816   4.824 -0.9195 -1.3779 -1.3268
10379SOL    HW232037   3.890   5.932   4.824  0.4850  0.0580 -0.0049
10380SOL     OW32038   6.686   2.757   3.479  0.3583  0.2252 -0.3515
10380SOL    HW132039   6.779   2.735   3.509 -0.1647 -1.9378 -0.1758
10380SOL    HW232040   6.645   2.821   3.544  1.3689  0.4237  0.1198
10381SOL     OW32041   5.274   6.248   4.672  0.0403  0.2423 -0.5529
10381SOL    HW132042   5.307   6.342   4.686 -1.1809  0.2819  3.1690
10381SOL    HW232043   5.175   6.249   4.662  0.0031 -0.6499 -0.3633
10382SOL     OW32044   2.633   2.829   5.968 -0.2343  0.3881  0.1940
10382SOL    HW132045   2.729   2.814   5.949 -0.3843 -0.6224  0.1976
10382SOL    HW232046   2.618   2.830   6.067 -0.3037  0.0409  0.1871
10383SOL     OW32047   0.557   3.261   6.707 -0.0877 -0.2153  0.2746
10383SOL    HW132048   0.494   3.188   6.735 -1.4794  0.8714  0.0820
10383SOL    HW232049   0.627   3.273   6.777 -0.7400 -0.7061  1.0328
10384SOL     OW32050   5.934   0.376   0.841  0.2688  0.2441  0.1267
10384SOL    HW132051   5.919   0.348   0.746 -0.4376  0.3306  0.2091
10384SOL    HW232052   5.846   0.396   0.884  0.5766  0.0987  0.8343
10385SOL     OW32053   2.517   5.965   3.637 -0.3905  0.3867 -0.0531
10385SOL    HW132054   2.513   5.940   3.734  1.0848 -2.1041 -0.5464
10385SOL    HW232055   2.611   5.993   3.614 -0.8445  1.4469 -0.6721
10386SOL     OW32056   5.963   2.747   3.860  0.3294 -0.0105 -0.0421
10386SOL    HW132057   5.954   2.845   3.877 -0.8898 -0.1098 -0.0707
10386SOL    HW232058   6.036   2.732   3.793 -0.4589  0.9973 -1.1693
10387SOL     OW32059   3.255   0.468   3.160 -0.3679  0.1256 -0.4071
10387SOL    HW132060   3.167   0.430   3.131 -0.9756  0.6079  0.7592
10387SOL    HW232061   3.254   0.567   3.147 -1.6138  0.7571  3.4011
10388SOL     OW32062   3.173   0.717   2.605  0.1372  0.0614 -0.5563
10388SOL    HW132063   3.252   0.663   2.634 -0.4710 -0.7503 -0.3700
10388SOL    HW232064   3.191   0.756   2.514  0.6256 -0.3611 -0.6484
10389SOL     OW32065   6.082   5.999   1.092 -0.3755  0.4266  0.0171
10389SOL    HW132066   6.178   6.012   1.067 -0.8284  1.4929 -1.3002
10389SOL    HW232067   6.076   5.981   1.190  0.9757  3.3604  0.7728
10390SOL     OW32068   0.348   3.701   3.534 -0.1125  0.2446  0.3932
10390SOL    HW132069   0.401   3.716   3.617  0.4779 -0.9523  0.2443
10390SOL    HW232070   0.406   3.715   3.454 -0.3471  0.1576  0.2069
10391SOL     OW32071   0.407   4.345   5.353 -0.3528 -0.6033 -0.2161
10391SOL    HW132072   0.373   4.251   5.364  1.5647 -1.6407 -2.2575
10391SOL    HW232073   0.488   4.358   5.410  0.4721 -0.8465 -1.2989
10392SOL     OW32074   0.281   3.666   0.840  0.0842 -0.8111 -0.6522
10392SOL    HW132075   0.242   3.586   0.886  0.5882  0.1418  1.5854
10392SOL    HW232076   0.253   3.749   0.889  0.5452  0.3050 -2.2073
10393SOL     OW32077   2.367   2.374   3.247 -0.2885  0.3323  0.3993
10393SOL    HW132078   2.422   2.313   3.305  0.4226  1.6349  1.1392
10393SOL    HW232079   2.411   2.382   3.158 -1.0859 -1.2309 -0.1825
10394SOL     OW32080   1.884   5.486   4.819  0.2283 -0.3556  0.3646
10394SOL    HW132081   1.893   5.386   4.820 -0.4023 -0.4272 -0.3671
10394SOL    HW232082   1.946   5.524   4.751 -0.4020 -0.3448 -0.2034
10395SOL     OW32083   0.077   5.815   2.766  0.0989 -0.1971 -0.4428
10395SOL    HW132084   0.022   5.898   2.764 -1.3346 -1.1150 -0.2231
10395SOL    HW232085   0.042   5.750   2.699  1.0414 -0.7373 -0.4321
10396SOL     OW32086   1.494   0.318   6.037 -0.3548  0.6818  0.8430
10396SOL    HW132087   1.539   0.353   5.955 -0.7070  0.9889  0.7757
10396SOL    HW232088   1.511   0.380   6.113 -2.7758  2.2496  0.2273
10397SOL     OW32089   3.784   1.616   4.241 -0.0011 -0.1477 -0.1226
10397SOL    HW132090   3.855   1.669   4.194  1.5754 -1.1462  1.0235
10397SOL    HW232091   3.737   1.675   4.307 -1.3205  0.9070 -1.9208
10398SOL     OW32092   6.905   2.593   5.910  0.2359 -0.2612 -0.2576
10398SOL    HW132093   6.863   2.659   5.974  2.2401 -0.5527  1.4597
10398SOL    HW232094   6.907   2.503   5.953 -2.4088 -1.5604 -2.5612
10399SOL     OW32095   3.975   1.741   4.105  0.1588 -0.3256  0.4037
10399SOL    HW132096   4.068   1.772   4.126 -0.5926  0.0698  3.7078
10399SOL    HW232097   3.934   1.802   4.036  1.8107  0.3958  0.0071
10400SOL     OW32098   3.148   6.060   6.416 -0.2248 -0.8633  0.4218
10400SOL    HW132099   3.074   6.115   6.454 -1.1297 -0.5314 -1.6915
10400SOL    HW232100   3.196   6.013   6.490  0.6853  2.8111  2.3962
10401SOL     OW32101   6.994   1.399   3.539 -0.1761  0.3389 -0.5916
10401SOL    HW132102   6.907   1.443   3.560 -0.5259  0.1655 -1.6425
10401SOL    HW232103   6.978   1.318   3.483  0.4986 -0.8812  0.9058
10402SOL     OW32104   6.465   2.596   5.861  0.6763  0.1088  0.1399
10402SOL    HW132105   6.529   2.528   5.825  0.1559  0.4462 -1.5130
10402SOL    HW232106   6.462   2.675   5.800 -0.0362  0.8601  1.1102
10403SOL     OW32107   0.045   0.839   3.102 -0.8045  0.1856  0.0855
10403SOL    HW132108   0.114   0.766   3.099 -1.1342 -0.1698  0.9900
10403SOL    HW232109   0.048   0.890   3.016  0.8830  0.4626  0.2743
10404SOL     OW32110   6.962   4.948   4.032 -0.5072  0.7881 -0.0656
10404SOL    HW132111   6.984   4.974   3.938 -0.9778  0.1236 -0.3659
10404SOL    HW232112   6.897   5.014   4.070  0.0010  1.2934 -0.0571
10405SOL     OW32113   2.772   6.467   5.196  0.1530  0.6593  0.0308
10405SOL    HW132114   2.781   6.407   5.276 -0.6445  1.4819  0.7609
10405SOL    HW232115   2.739   6.414   5.118  1.6113 -0.3061  0.0179
10406SOL     OW32116   0.293   4.395   6.366 -0.1115  0.0136 -0.1643
10406SOL    HW132117   0.279   4.367   6.271  2.3627  1.6651 -1.1150
10406SOL    HW232118   0.391   4.403   6.385 -0.4282 -1.9452  3.1129
10407SOL     OW32119   1.166   1.141   5.932 -0.3014  0.3034 -0.0738
10407SOL    HW132120   1.156   1.229   5.886 -0.3890  0.2535 -0.1498
10407SOL    HW232121   1.219   1.153   6.016  0.6409  0.2381 -0.6511
10408SOL     OW32122   3.025   6.742   2.643 -0.0089 -0.5173  0.7899
10408SOL    HW132123   2.989   6.777   2.557  0.9604 -0.7992  0.2558
10408SOL    HW232124   3.011   6.810   2.715 -1.1716 -0.4372  0.5116
10409SOL     OW32125   1.111   3.476   5.519 -0.1364  0.2134 -0.4197
10409SOL    HW132126   1.112   3.571   5.549 -1.7164  0.2960 -0.5182
10409SOL    HW232127   1.016   3.445   5.511  0.2327 -0.3841 -3.5108
10410SOL     OW32128   4.535   0.400   0.081  0.7978  0.3282 -0.5226
10410SOL    HW132129   4.527   0.302   0.097  1.1078  0.3304 -0.3608
10410SOL    HW232130   4.496   0.422  -0.009 -0.2896  0.2172 -0.0961
10411SOL     OW32131   3.077   5.950   4.621  0.7266  0.1236 -0.1634
10411SOL    HW132132   3.032   6.026   4.575  0.6465  0.7212  0.8541
10411SOL    HW232133   3.012   5.874   4.632 -0.9707  1.8615  3.4693
10412SOL     OW32134   6.623   1.080   6.446 -0.0891  0.0687 -0.3813
10412SOL    HW132135   6.691   1.153   6.447  1.2366 -1.1220 -0.6353
10412SOL    HW232136   6.591   1.065   6.353  1.3907 -1.1984 -0.7284
10413SOL     OW32137   6.652   2.767   6.632  0.3265 -0.6063  0.0018
10413SOL    HW132138   6.688   2.739   6.721 -0.2231  1.1574  0.8261
10413SOL    HW232139   6.597   2.850   6.643 -1.3669 -1.4273 -1.6895
10414SOL     OW32140   3.995   5.093   4.670  0.2779 -0.0400  0.5776
10414SOL    HW132141   3.990   5.055   4.763 -0.7221 -0.0161  0.5347
10414SOL    HW232142   3.937   5.173   4.664  1.9927  1.2657  0.5263
10415SOL     OW32143   3.347   5.136   4.288 -0.4366 -0.9243  0.2581
10415SOL    HW132144   3.252   5.135   4.318  0.3242  0.5142  3.0970
10415SOL    HW232145   3.406   5.100   4.360  1.2521 -1.1193 -1.1448
10416SOL     OW32146   5.136   1.678   6.582  0.5367  0.2611 -0.0286
10416SOL    HW132147   5.208   1.629   6.533  0.9781  0.7673  0.1130
10416SOL    HW232148   5.047   1.649   6.548  0.8066 -0.3164 -0.2531
10417SOL     OW32149   5.227   3.850   3.887  0.4894  0.0936 -0.0319
10417SOL    HW132150   5.273   3.878   3.971  1.0196 -1.9892  0.4178
10417SOL    HW232151   5.211   3.931   3.830 -1.4714  1.8754  2.7841
10418SOL     OW32152   6.661   2.503   3.617  0.3402  1.6693  0.6176
10418SOL    HW132153   6.580   2.449   3.598 -0.0329  1.5418  2.4480
10418SOL    HW232154   6.683   2.559   3.537  0.2907 -0.5483 -1.0356
10419SOL     OW32155   2.628   1.088   5.130  0.0454 -0.5234 -0.4217
10419SOL    HW132156   2.647   1.185   5.109  1.8567 -0.5545  0.8526
10419SOL    HW232157   2.643   1.033   5.048 -0.6450  0.2288 -1.0645
10420SOL     OW32158   5.378   3.433   2.640 -0.0789 -0.3784 -0.4762
10420SOL    HW132159   5.311   3.405   2.709  0.6560 -1.3377 -0.1398
10420SOL    HW232160   5.430   3.354   2.609  0.2981  0.2101 -1.4006
10421SOL     OW32161   0.797   1.393   4.358 -0.2293  0.0684 -0.0927
10421SOL    HW132162   0.858   1.392   4.278 -1.1811  0.8693 -0.8675
10421SOL    HW232163   0.748   1.306   4.363  0.5126 -0.3381  0.1643
10422SOL     OW32164   6.210   4.822   3.648  0.1331 -0.3983  0.0863
10422SOL    HW132165   6.307   4.819   3.624  0.0666 -0.1228 -0.2181
10422SOL    HW232166   6.163   4.889   3.591 -0.0721  0.1156  0.8529
10423SOL     OW32167   4.159   6.378   4.912 -0.2022  0.3121  0.4267
10423SOL    HW132168   4.118   6.292   4.943  1.3883 -0.2046  1.1999
10423SOL    HW232169   4.154   6.383   4.812 -0.3893 -0.6414  0.3769
10424SOL     OW32170   4.136   2.855   0.098  0.0204  0.1915 -0.3723
10424SOL    HW132171   4.076   2.896   0.029  0.6414 -0.4126 -1.2867
10424SOL    HW232172   4.231   2.874   0.074  0.2188  1.1538  1.0714
10425SOL     OW32173   6.584   6.463   2.028 -0.0371 -0.3078  0.6112
10425SOL    HW132174   6.616   6.401   2.100 -1.5772 -1.4495  0.3620
10425SOL    HW232175   6.618   6.432   1.939 -0.4632 -0.5596  0.5340
10426SOL     OW32176   6.947   3.684   6.096 -0.2147 -0.2506  0.3419
10426SOL    HW132177   6.983   3.662   6.186  0.5828 -0.2340  0.0364
10426SOL    HW232178   6.921   3.780   6.092  2.9937  0.7216 -0.4382
10427SOL     OW32179   5.993   6.934   6.658  0.2818 -0.3513 -0.4263
10427SOL    HW132180   6.007   7.025   6.619  1.2078  0.6770  2.1176
10427SOL    HW232181   6.079   6.883   6.659  0.3381 -0.2474  0.5287
10428SOL     OW32182   0.864   0.746   4.815  0.4445 -0.0101  0.6453
10428SOL    HW132183   0.826   0.662   4.855  0.6953 -0.8102 -0.7276
10428SOL    HW232184   0.951   0.767   4.859  1.3586 -1.6089 -0.2820
10429SOL     OW32185   0.908   3.827   2.018  0.1097 -0.0954 -0.4059
10429SOL    HW132186   0.957   3.740   2.023 -0.7090 -0.5219  0.7612
10429SOL    HW232187   0.952   3.894   2.078 -1.6963 -1.0312  2.1413
10430SOL     OW32188   4.518   0.583   3.888  0.5874  0.2973  0.1070
10430SOL    HW132189   4.423   0.556   3.877  0.3835  0.8931  0.3511
10430SOL    HW232190   4.535   0.667   3.837  1.2448 -0.3276 -0.7484
10431SOL     OW32191   1.283   1.456   5.022  0.1549  0.5317 -0.2798
10431SOL    HW132192   1.363   1.446   5.081 -0.4208  0.5567  0.5211
10431SOL    HW232193   1.201   1.468   5.078 -0.3369  1.1152 -1.0923
10432SOL     OW32194   0.196   1.406   5.285  1.1838 -0.1179 -0.1646
10432SOL    HW132195   0.097   1.416   5.293  1.0100  0.9842 -2.5624
10432SOL    HW232196   0.241   1.462   5.354  0.0915  1.1348 -0.4226
10433SOL     OW32197   0.674   4.816   1.014  0.0371 -0.0503 -0.3629
10433SOL    HW132198   0.773   4.822   0.998  0.0019  1.6963 -0.0789
10433SOL    HW232199   0.632   4.764   0.939  0.8809  1.1653 -1.7298
10434SOL     OW32200   5.165   6.202   5.035 -0.1698  0.0759 -0.5232
10434SOL    HW132201   5.142   6.105   5.045  0.8656 -0.0323  1.0621
10434SOL    HW232202   5.087   6.250   4.994 -1.6716 -0.9867  0.9499
10435SOL     OW32203   3.117   2.033   6.277 -0.5943  0.4435 -0.2613
10435SOL    HW132204   3.078   2.096   6.344  1.0714  1.5333 -0.2751
10435SOL    HW232205   3.195   2.076   6.233  1.5386 -2.1320  0.7571
10436SOL     OW32206   6.422   5.585   3.400 -0.3767 -0.2137 -0.1277
10436SOL    HW132207   6.504   5.579   3.343  0.8854 -0.3513  1.6271
10436SOL    HW232208   6.447   5.577   3.496 -2.4077  0.2711  0.4984
10437SOL     OW32209   5.987   6.906   5.345 -0.0160  0.5377 -0.4047
10437SOL    HW132210   6.009   6.987   5.400  1.6213 -1.0859  1.5368
10437SOL    HW232211   5.901   6.866   5.378  0.3259  0.2668  0.1847
10438SOL     OW32212   6.590   6.238   6.331  0.2611  0.0622 -0.0368
10438SOL    HW132213   6.547   6.324   6.360 -0.9682  0.0068 -1.5870
10438SOL    HW232214   6.659   6.212   6.398 -0.9597  1.0307  1.6758
10439SOL     OW32215   0.453   1.722   5.278 -0.0796 -0.0172  0.3758
10439SOL    HW132216   0.520   1.663   5.232  1.0001  0.9754  0.6113
10439SOL    HW232217   0.361   1.689   5.260  0.3061  0.0698 -2.1586
10440SOL     OW32218   6.890   0.215   1.753  0.0890  0.0084  0.0676
10440SOL    HW132219   6.987   0.197   1.735  0.5284  0.8574  1.4103
10440SOL    HW232220   6.853   0.271   1.679  0.7164 -0.0125 -0.2749
10441SOL     OW32221   3.422   1.789   2.817  0.4572 -0.2389  0.1902
10441SOL    HW132222   3.345   1.762   2.876  1.3773 -0.5426  1.2858
10441SOL    HW232223   3.415   1.886   2.795 -1.1708 -0.6201 -1.1671
10442SOL     OW32224   4.017   1.848   5.056  0.3359 -0.2332 -0.5902
10442SOL    HW132225   3.928   1.814   5.087  0.0380  1.7132  0.8498
10442SOL    HW232226   4.085   1.833   5.129  1.3050 -1.9274 -1.7651
10443SOL     OW32227   0.556   2.164   4.050  0.1836 -0.0685  0.0577
10443SOL    HW132228   0.571   2.229   4.124 -2.5155  1.2111 -0.4154
10443SOL    HW232229   0.633   2.099   4.046  0.9210  0.4715  3.2368
10444SOL     OW32230   2.299   4.516   2.687  0.3279  0.4239 -0.2548
10444SOL    HW132231   2.355   4.480   2.762  0.6680 -0.0012 -0.7062
10444SOL    HW232232   2.202   4.502   2.708  0.4250  0.1399  0.0235
10445SOL     OW32233   6.322   3.042   2.790 -0.2997  0.2939 -0.5470
10445SOL    HW132234   6.351   3.023   2.696  1.0171  1.4953 -0.4175
10445SOL    HW232235   6.403   3.047   2.849 -1.0345  0.5696  0.4616
10446SOL     OW32236   1.568   3.553   5.892  0.2171 -0.5603 -0.2179
10446SOL    HW132237   1.623   3.594   5.820  1.6833 -0.8054  0.7025
10446SOL    HW232238   1.471   3.564   5.871  0.5099  2.6224 -0.4230
10447SOL     OW32239   5.932   0.463   3.531  0.4543  0.9735 -0.0480
10447SOL    HW132240   5.936   0.416   3.620 -2.5836  1.1330  0.2558
10447SOL    HW232241   5.948   0.397   3.458 -0.7198  0.0659  0.4918
10448SOL     OW32242   4.429   6.000   2.945  0.2417  0.6873 -0.0229
10448SOL    HW132243   4.449   5.922   3.004  0.2925  0.9716  0.3454
10448SOL    HW232244   4.462   5.982   2.853  0.1483  0.2289  0.0341
10449SOL     OW32245   3.662   5.377   6.321 -0.0466  0.8963 -0.5325
10449SOL    HW132246   3.712   5.324   6.389  0.1735  1.8654  0.0853
10449SOL    HW232247   3.579   5.415   6.363 -0.2741  0.9267 -1.0017
10450SOL     OW32248   6.460   6.725   6.414 -0.2142  0.4458  0.3055
10450SOL    HW132249   6.386   6.786   6.442 -0.5631  0.2687 -0.2269
10450SOL    HW232250   6.536   6.733   6.480  0.2012  2.2673 -0.3103
10451SOL     OW32251   5.267   0.334   3.676 -0.0010 -0.5543 -0.1441
10451SOL    HW132252   5.279   0.236   3.691 -3.9016 -1.1957 -0.1251
10451SOL    HW232253   5.225   0.375   3.756  2.1878  1.3999  0.1232
10452SOL     OW32254   6.845   3.461   1.393 -0.5336  0.0714 -0.1283
10452SOL    HW132255   6.839   3.560   1.403  1.5639  0.3677 -1.0836
10452SOL    HW232256   6.793   3.432   1.313  1.0745  0.8587 -1.5411
10453SOL     OW32257   5.260   1.372   2.339  0.5145  0.1986 -0.5509
10453SOL    HW132258   5.359   1.382   2.348  0.6316 -0.6826 -0.7637
10453SOL    HW232259   5.220   1.355   2.429  0.6465 -0.1414 -0.5543
10454SOL     OW32260   5.797   0.868   6.965 -0.5005 -0.0611  0.5562
10454SOL    HW132261   5.880   0.847   6.914 -0.7599  1.0381 -0.3638
10454SOL    HW232262   5.770   0.963   6.948 -2.0179 -0.4343  0.7053
10455SOL     OW32263   6.121   6.533   4.801 -0.5522 -0.2696 -0.9811
10455SOL    HW132264   6.216   6.518   4.773 -0.9156 -1.9984 -1.4495
10455SOL    HW232265   6.086   6.615   4.757 -0.0201 -0.9925 -2.8669
10456SOL     OW32266   1.606   3.934   1.918 -0.1658 -0.5448 -0.2778
10456SOL    HW132267   1.696   3.963   1.888  0.1727  0.2472  1.3585
10456SOL    HW232268   1.603   3.933   2.018 -1.5961 -1.7651 -0.2937
10457SOL     OW32269   4.394   2.229   6.020  0.1181  0.0381 -0.2634
10457SOL    HW132270   4.401   2.150   5.959 -0.9121 -0.7677  0.6330
10457SOL    HW232271   4.312   2.221   6.077 -0.4516  2.1517 -0.6985
10458SOL     OW32272   0.604   6.560   5.741 -0.1881  0.0226  0.5701
10458SOL    HW132273   0.544   6.635   5.768  0.7584  0.2685  2.1541
10458SOL    HW232274   0.572   6.519   5.656 -1.3511  1.5102  0.2670
10459SOL     OW32275   1.210   2.245   2.571  1.1273  0.1053  0.0336
10459SOL    HW132276   1.110   2.246   2.567  1.1194  2.3077 -0.6395
10459SOL    HW232277   1.240   2.181   2.641 -0.8044  0.1664  0.9877
10460SOL     OW32278   0.936   3.667   1.607 -0.2861  0.4749  0.5216
10460SOL    HW132279   1.012   3.606   1.585 -0.3995 -0.1242  1.7174
10460SOL    HW232280   0.867   3.661   1.535  0.4781  0.5199 -0.2400
10461SOL     OW32281   5.583   5.189   4.164  0.4259  0.4121  0.8544
10461SOL    HW132282   5.579   5.267   4.101  2.6250 -0.2215 -0.1614
10461SOL    HW232283   5.645   5.210   4.239 -0.8113  0.4811  1.8940
10462SOL     OW32284   6.029   1.691   3.169  0.2081 -0.4721  0.0233
10462SOL    HW132285   6.021   1.636   3.252  2.0215  0.1104  0.6188
10462SOL    HW232286   6.099   1.652   3.109  2.2139  1.5679  0.8685
10463SOL     OW32287   4.052   0.989   6.685 -0.3545 -0.1268  0.2896
10463SOL    HW132288   3.974   0.976   6.624 -0.7960 -0.4773  0.9143
10463SOL    HW232289   4.102   0.903   6.694  0.3246  0.1851 -0.3895
10464SOL     OW32290   5.868   6.874   0.972 -0.4344 -0.5687 -0.2171
10464SOL    HW132291   5.820   6.958   0.997  0.0760 -0.1255 -0.6929
10464SOL    HW232292   5.921   6.890   0.889  0.2919 -1.1372  0.1326
10465SOL     OW32293   3.134   6.903   2.391  0.4769  0.2848 -0.1213
10465SOL    HW132294   3.187   6.987   2.406 -0.4772  0.5866  1.8951
10465SOL    HW232295   3.188   6.824   2.422  0.1189  0.5097  1.1389
10466SOL     OW32296   4.789   4.797   1.241  0.1209 -0.8527  0.3877
10466SOL    HW132297   4.787   4.890   1.277 -1.3950 -0.9070  0.4996
10466SOL    HW232298   4.834   4.796   1.152 -0.8414  0.1877 -0.1308
10467SOL     OW32299   2.538   1.314   0.091  0.5399 -0.8757 -0.7255
10467SOL    HW132300   2.545   1.366   0.006 -0.7223 -2.4550 -1.8724
10467SOL    HW232301   2.476   1.236   0.078  2.0493 -2.4921  0.9825
10468SOL     OW32302   4.330   4.877   4.275  0.3768  0.3443 -0.1344
10468SOL    HW132303   4.288   4.812   4.211  0.8214 -1.4217  1.3012
10468SOL    HW232304   4.415   4.913   4.235  0.2866 -0.1765 -0.8110
10469SOL     OW32305   3.541   3.161   3.758  0.2522  0.2143 -0.1372
10469SOL    HW132306   3.476   3.108   3.812  0.2978 -0.1452 -0.4324
10469SOL    HW232307   3.609   3.100   3.717  2.7504  0.8383  2.7287
10470SOL     OW32308   0.867   2.512   3.792  0.3067 -0.5502  0.4474
10470SOL    HW132309   0.895   2.419   3.815  0.8700 -0.4831  0.0523
10470SOL    HW232310   0.796   2.508   3.721 -1.2441 -0.7451  1.9321
10471SOL     OW32311   1.824   0.842   0.678  0.2825  0.1291  0.1413
10471SOL    HW132312   1.842   0.899   0.598  1.1245 -0.2122  0.0816
10471SOL    HW232313   1.875   0.878   0.756  0.8434 -0.5499  0.0964
10472SOL     OW32314   3.916   3.707   1.314  0.0131  0.2923 -0.0466
10472SOL    HW132315   4.001   3.738   1.273  0.0272 -0.3032 -0.4837
10472SOL    HW232316   3.858   3.786   1.335  0.8670  0.7325  0.7023
10473SOL     OW32317   1.456   1.153   5.780  0.0755  0.4420  0.1128
10473SOL    HW132318   1.387   1.210   5.825  0.1113  0.9104 -0.4159
10473SOL    HW232319   1.412   1.088   5.719 -0.0142 -0.6068  1.2480
10474SOL     OW32320   4.791   0.923   3.365  0.1242 -0.3246 -0.0644
10474SOL    HW132321   4.883   0.923   3.404 -0.0760 -2.0717  0.5061
10474SOL    HW232322   4.740   0.844   3.399 -0.3044 -1.6319 -3.3468
10475SOL     OW32323   1.825   6.024   1.169 -0.0438  0.2245 -0.4881
10475SOL    HW132324   1.788   5.954   1.230  0.7457 -0.2723 -0.5682
10475SOL    HW232325   1.752   6.088   1.144 -0.9406 -0.9317 -0.9219
10476SOL     OW32326   4.041   4.841   6.306 -0.1601 -0.2932 -0.2423
10476SOL    HW132327   3.946   4.864   6.288 -0.0934 -0.5842 -1.0088
10476SOL    HW232328   4.098   4.875   6.232  0.7510  2.5380  1.5928
10477SOL     OW32329   4.744   6.138   4.381  0.6400 -0.0127  0.0953
10477SOL    HW132330   4.758   6.173   4.473  0.8354 -2.7163  1.1799
10477SOL    HW232331   4.827   6.093   4.349  0.3424  0.2492 -1.1032
10478SOL     OW32332   0.614   6.365   0.602 -0.4486 -0.4570  0.4935
10478SOL    HW132333   0.587   6.308   0.680 -0.5598 -1.3637 -0.1878
10478SOL    HW232334   0.546   6.355   0.529  0.6704 -1.2122 -0.4809
10479SOL     OW32335   1.092   1.963   2.950  0.2773 -0.1296  0.6275
10479SOL    HW132336   0.998   1.972   2.984  0.0170  1.2196 -0.3506
10479SOL    HW232337   1.142   2.049   2.966  0.9804 -0.4277  0.1019
10480SOL     OW32338   1.528   1.595   2.673  0.6149  1.1219  0.2418
10480SOL    HW132339   1.450   1.645   2.634 -0.4511  0.0632  0.9587
10480SOL    HW232340   1.525   1.601   2.773  0.6625 -0.0686  0.3259
10481SOL     OW32341   1.792   6.454   1.460  0.8284  0.3553  0.2102
10481SOL    HW132342   1.882   6.437   1.420  0.9736  1.6744 -0.0807
10481SOL    HW232343   1.754   6.368   1.495  1.9976 -0.2971 -0.0634
10482SOL     OW32344   5.390   4.318   2.874 -0.0036 -0.1030  0.4988
10482SOL    HW132345   5.316   4.330   2.941 -0.1149 -0.9985  0.5480
10482SOL    HW232346   5.351   4.294   2.785  0.2211 -0.8413  0.5866
10483SOL     OW32347   5.360   5.739   1.213 -0.5096  0.0546  0.2287
10483SOL    HW132348   5.437   5.782   1.166 -0.6072 -1.1010 -1.0451
10483SOL    HW232349   5.390   5.706   1.303  0.8140 -1.3029 -0.6530
10484SOL     OW32350   3.053   0.596   1.968  0.2689 -0.2372 -0.3951
10484SOL    HW132351   3.030   0.556   2.057  0.5067  0.9323  0.2170
10484SOL    HW232352   3.097   0.528   1.910 -0.0790 -1.0722  0.3092
10485SOL     OW32353   2.934   4.417   6.141 -0.4239 -0.2456  0.4947
10485SOL    HW132354   2.944   4.327   6.182 -1.3402  0.0611  1.4340
10485SOL    HW232355   3.024   4.459   6.130 -0.0006 -1.2163  0.1448
10486SOL     OW32356   0.489   1.031   0.525 -0.3402  0.1384  0.1641
10486SOL    HW132357   0.532   0.942   0.537  0.5625  0.3087 -1.5761
10486SOL    HW232358   0.390   1.020   0.513 -0.5950 -0.3988  2.3481
10487SOL     OW32359   4.473   1.200   1.646  0.4344 -0.4496 -0.6582
10487SOL    HW132360   4.498   1.224   1.740 -1.8225 -0.2750 -0.0601
10487SOL    HW232361   4.550   1.221   1.585  2.0734 -0.8762  1.1546
10488SOL     OW32362   2.208   2.043   5.636  1.0161 -0.2515  0.1447
10488SOL    HW132363   2.179   1.958   5.680 -1.7818  0.8814  0.6733
10488SOL    HW232364   2.234   2.109   5.707 -0.0431  0.3972 -0.0503
10489SOL     OW32365   6.144   6.741   6.157 -0.0024  0.0571  0.1907
10489SOL    HW132366   6.170   6.761   6.063  1.2698  1.8616  0.8593
10489SOL    HW232367   6.076   6.808   6.188  0.9377  0.6215  1.0930
10490SOL     OW32368   5.677   1.636   3.059 -0.7186 -0.2223  0.0758
10490SOL    HW132369   5.692   1.722   3.107  0.0042 -0.3684  0.1230
10490SOL    HW232370   5.715   1.642   2.967  2.5874 -1.6308  1.2083
10491SOL     OW32371   1.453   5.065   6.334 -0.3275  0.0338  0.0337
10491SOL    HW132372   1.405   5.030   6.414 -0.5158 -1.6850 -0.7960
10491SOL    HW232373   1.548   5.033   6.336 -0.1087  0.6551 -0.0468
10492SOL     OW32374   6.117   6.632   5.302 -0.2555  0.0449 -0.2119
10492SOL    HW132375   6.055   6.586   5.238  0.5735 -1.2907 -0.1157
10492SOL    HW232376   6.074   6.715   5.337 -1.1457  0.2582 -1.7037
10493SOL     OW32377   3.067   0.603   3.507 -0.5474  0.1320 -0.4771
10493SOL    HW132378   3.142   0.620   3.570  0.3735  0.0536 -1.5161
10493SOL    HW232379   3.018   0.520   3.534  1.0032 -0.9712 -0.9109
10494SOL     OW32380   4.876   4.587   5.869  0.5579 -0.0126  0.3721
10494SOL    HW132381   4.958   4.534   5.848  0.9160  0.0853  1.4447
10494SOL    HW232382   4.901   4.664   5.928 -0.0732  0.9031 -0.5362
10495SOL     OW32383   3.017   0.544   6.506  0.2211 -0.0124  0.0442
10495SOL    HW132384   2.958   0.534   6.426  1.7563  0.7871 -1.2272
10495SOL    HW232385   2.981   0.618   6.564  0.0664  0.6168 -0.8310
10496SOL     OW32386   6.648   5.239   5.688 -0.3895  0.4837 -0.2401
10496SOL    HW132387   6.724   5.239   5.753  0.8179  2.7787 -1.5209
10496SOL    HW232388   6.578   5.304   5.720 -1.7033 -1.2914  0.7030
10497SOL     OW32389   2.413   6.053   2.240  0.2313 -0.2354  0.5321
10497SOL    HW132390   2.468   6.134   2.256  0.9144 -0.9391  1.8971
10497SOL    HW232391   2.350   6.070   2.164  0.5550  1.4508  0.6019
10498SOL     OW32392   2.818   5.332   0.922  0.3935  0.5100  0.3648
10498SOL    HW132393   2.836   5.288   1.010  0.2090 -2.0750 -0.7934
10498SOL    HW232394   2.904   5.366   0.883  0.6216  0.7314  1.0413
10499SOL     OW32395   2.467   0.828   2.882  0.3326 -0.0612 -0.2857
10499SOL    HW132396   2.421   0.777   2.810  0.2088  0.5783 -0.6697
10499SOL    HW232397   2.566   0.818   2.873  0.3455  0.5719 -0.9764
10500SOL     OW32398   5.504   0.551   1.078 -0.5242 -0.6885 -0.2372
10500SOL    HW132399   5.460   0.465   1.053  0.6710 -1.7207  1.0269
10500SOL    HW232400   5.599   0.533   1.103  0.4093  1.3282 -2.0235
10501SOL     OW32401   0.792   4.688   2.438  0.0402 -0.4797  0.2308
10501SOL    HW132402   0.774   4.658   2.344  0.4574 -1.7607  0.5355
10501SOL    HW232403   0.821   4.609   2.493  0.9729  0.4606  1.1387
10502SOL     OW32404   1.801   1.355   6.875  0.6676  0.0341 -0.5879
10502SOL    HW132405   1.710   1.315   6.891  0.1047  0.0602 -3.2375
10502SOL    HW232406   1.857   1.290   6.824  0.6168  1.5905 -2.7354
10503SOL     OW32407   3.429   3.371   0.132 -0.3348  0.5387 -0.1515
10503SOL    HW132408   3.391   3.463   0.129 -1.2411  0.1625 -3.0857
10503SOL    HW232409   3.359   3.305   0.106  0.9429 -0.7325 -0.4746
10504SOL     OW32410   2.847   5.632   0.828  0.3654 -0.0045 -0.7695
10504SOL    HW132411   2.887   5.655   0.916 -0.8905 -1.3380  0.2191
10504SOL    HW232412   2.756   5.673   0.821 -0.8729 -2.4233 -0.0192
10505SOL     OW32413   5.580   0.117   0.933  0.0658  0.0395 -0.0617
10505SOL    HW132414   5.572   0.037   0.873  2.2233 -0.5639  0.3942
10505SOL    HW232415   5.630   0.092   1.016 -3.0385  0.7919  2.2134
10506SOL     OW32416   6.160   4.691   0.046 -0.1053  0.2189  0.2936
10506SOL    HW132417   6.153   4.646   0.135 -1.4378  1.6171  0.9506
10506SOL    HW232418   6.086   4.659  -0.014 -1.3451  1.7541  0.9211
10507SOL     OW32419   2.028   5.746   1.120 -0.5478 -0.4273  0.0398
10507SOL    HW132420   1.962   5.746   1.196 -0.8971  1.9527 -0.1993
10507SOL    HW232421   1.980   5.726   1.035 -1.1416  1.8250 -0.2112
10508SOL     OW32422   6.732   0.502   3.983  0.1977 -0.0181 -0.2604
10508SOL    HW132423   6.814   0.445   3.972  0.7166  0.0554  2.5581
10508SOL    HW232424   6.720   0.558   3.900  3.2092  0.2175 -0.6753
10509SOL     OW32425   2.091   4.862   4.290 -0.1067  0.1122  0.5120
10509SOL    HW132426   2.123   4.795   4.223 -0.3126 -0.4075  0.9304
10509SOL    HW232427   1.992   4.856   4.298  0.0577 -0.9889  2.0744
10510SOL     OW32428   3.771   6.202   6.078 -0.5847  0.5940  0.2899
10510SOL    HW132429   3.677   6.183   6.049 -0.5804  3.0556 -1.7626
10510SOL    HW232430   3.770   6.254   6.163 -1.2011  1.8642 -0.4707
10511SOL     OW32431   4.584   1.960   1.490 -0.0733  0.3581  0.1263
10511SOL    HW132432   4.621   1.878   1.446 -0.5980  1.2547 -2.1218
10511SOL    HW232433   4.649   2.035   1.481 -0.0215  0.4696  1.2950
10512SOL     OW32434   3.096   1.221   5.327 -0.4198 -0.5592 -0.3709
10512SOL    HW132435   3.067   1.149   5.390 -2.6063 -0.3838 -1.1086
10512SOL    HW232436   3.095   1.186   5.233  0.3615 -0.1063 -0.5575
10513SOL     OW32437   4.958   3.464   2.044 -0.4486  0.2148  0.2095
10513SOL    HW132438   4.929   3.391   1.982  0.9516 -0.0393 -0.1932
10513SOL    HW232439   4.984   3.545   1.992 -1.2965  0.7717  0.6160
10514SOL     OW32440   5.445   3.709   0.973 -0.3702  0.4684  0.0783
10514SOL    HW132441   5.511   3.712   1.047 -0.4528 -0.6524  0.2155
10514SOL    HW232442   5.488   3.670   0.891 -0.3832  1.3449 -0.3483
10515SOL     OW32443   6.562   1.676   2.702  0.3664 -0.1685 -0.3573
10515SOL    HW132444   6.531   1.770   2.716  0.6567  0.0090 -0.8646
10515SOL    HW232445   6.604   1.642   2.786 -0.1166  0.0088 -0.0408
10516SOL     OW32446   3.930   2.217   0.243 -0.4595 -0.5359 -0.4441
10516SOL    HW132447   3.944   2.122   0.271  0.6831 -0.1708  0.2674
10516SOL    HW232448   3.912   2.221   0.145 -0.4532 -1.4810 -0.4856
10517SOL     OW32449   6.636   1.319   3.066 -0.5843 -0.1399  0.0811
10517SOL    HW132450   6.646   1.391   3.134  0.3342 -0.6438  0.4925
10517SOL    HW232451   6.560   1.259   3.091  1.1650 -1.7005  1.9800
10518SOL     OW32452   6.830   4.586   6.800  0.0281 -0.2629  0.9770
10518SOL    HW132453   6.832   4.488   6.820 -1.1045  0.0224  2.6831
10518SOL    HW232454   6.924   4.620   6.792  0.5938 -0.8983  3.7258
10519SOL     OW32455   3.500   0.478   4.951 -0.7645  0.1095 -0.5073
10519SOL    HW132456   3.472   0.566   4.912 -2.6938 -0.1750  0.1159
10519SOL    HW232457   3.463   0.404   4.895  0.5668 -0.3458 -0.8323
10520SOL     OW32458   0.875   2.728   0.978 -0.0981  0.0911 -0.2123
10520SOL    HW132459   0.872   2.679   1.065 -1.1644  2.1997  1.0229
10520SOL    HW232460   0.823   2.677   0.909 -1.2471 -0.4845  1.0243
10521SOL     OW32461   5.815   6.041   3.184 -0.1750  0.1622  0.5509
10521SOL    HW132462   5.909   6.035   3.220 -0.1775  0.6593  0.6416
10521SOL    HW232463   5.753   5.992   3.245  0.0527 -0.3627  0.3747
10522SOL     OW32464   6.117   0.609   0.570 -0.5807  0.7299 -0.4503
10522SOL    HW132465   6.104   0.670   0.492  0.5365  1.5546 -0.0106
10522SOL    HW232466   6.055   0.635   0.643  1.2987  2.7761  0.5407
10523SOL     OW32467   6.871   5.671   4.908 -0.4820 -0.2512 -0.4151
10523SOL    HW132468   6.851   5.743   4.843 -1.5482 -0.7667 -0.6799
10523SOL    HW232469   6.796   5.664   4.974 -0.4529 -1.1828 -0.4674
10524SOL     OW32470   2.863   0.569   4.688 -0.1321  0.1864 -0.2189
10524SOL    HW132471   2.778   0.597   4.733  0.2253  0.2563  0.4297
10524SOL    HW232472   2.931   0.641   4.699  0.5874 -0.6222  0.8752
10525SOL     OW32473   4.124   6.343   6.662 -0.0756  0.6704  0.2275
10525SOL    HW132474   4.110   6.339   6.564  0.5784  2.1933  0.0522
10525SOL    HW232475   4.211   6.300   6.685 -0.1098  0.5423  0.1171
10526SOL     OW32476   2.178   5.965   4.971  0.1918 -0.2047  0.0099
10526SOL    HW132477   2.210   5.955   4.877  1.9875 -1.1088  0.6800
10526SOL    HW232478   2.128   6.051   4.980 -1.2514 -0.7305 -2.0672
10527SOL     OW32479   5.849   3.401   5.203 -0.0881  0.1513 -0.2456
10527SOL    HW132480   5.784   3.422   5.276 -0.5170  0.1742 -0.6251
10527SOL    HW232481   5.907   3.325   5.230 -1.6637 -1.2642 -0.7122
10528SOL     OW32482   2.145   2.264   5.048 -0.3820 -0.0814 -0.8417
10528SOL    HW132483   2.160   2.352   5.093 -0.5362 -0.2232 -0.5081
10528SOL    HW232484   2.084   2.276   4.970 -0.8629  0.0215 -0.4582
10529SOL     OW32485   4.037   0.985   3.700  0.2362  0.5666  0.4254
10529SOL    HW132486   4.100   1.037   3.643 -0.0402  0.5545  0.1067
10529SOL    HW232487   3.952   1.036   3.711  0.1598  0.4154  0.5467
10530SOL     OW32488   3.067   5.394   0.859  0.6336  0.7433  0.0311
10530SOL    HW132489   3.149   5.367   0.809  0.5235  1.1157 -0.3549
10530SOL    HW232490   3.086   5.477   0.911  0.5434  0.7463  0.0583
10531SOL     OW32491   6.787   3.285   3.741 -0.9804 -0.9427  0.3778
10531SOL    HW132492   6.848   3.290   3.662 -1.6694  2.2450 -0.0928
10531SOL    HW232493   6.692   3.280   3.709 -1.3027  1.0074  0.9361
10532SOL     OW32494   3.045   5.728   0.659 -0.3267  0.4130  0.2604
10532SOL    HW132495   2.970   5.683   0.708 -0.4040 -0.3460 -0.5349
10532SOL    HW232496   3.083   5.800   0.717 -1.8936  1.0632  0.5548
10533SOL     OW32497   3.891   0.531   4.176  0.1630 -0.1408 -0.1347
10533SOL    HW132498   3.918   0.619   4.137  0.2525  0.1566  0.5840
10533SOL    HW232499   3.905   0.533   4.275  2.2101 -1.6658 -0.3217
10534SOL     OW32500   4.070   5.756   2.211  0.0799 -0.3086 -0.2171
10534SOL    HW132501   4.013   5.677   2.233  0.7055 -0.7967 -0.3179
10534SOL    HW232502   4.165   5.726   2.198 -0.0733  0.0623 -2.7199
10535SOL     OW32503   0.141   2.970   1.450 -0.0105  0.7003 -0.5721
10535SOL    HW132504   0.064   3.022   1.488 -0.4353 -0.8856  0.8550
10535SOL    HW232505   0.181   2.913   1.521 -0.2697 -1.7702 -2.2743
10536SOL     OW32506   4.535   0.305   2.483 -0.9088  0.3410  0.2474
10536SOL    HW132507   4.489   0.224   2.447 -0.2411  0.6140 -1.2710
10536SOL    HW232508   4.575   0.357   2.408  0.9939  0.6630  1.4252
10537SOL     OW32509   3.045   6.178   3.362  0.3357  0.6992  0.0243
10537SOL    HW132510   2.993   6.093   3.374  2.0622 -0.4102  0.0373
10537SOL    HW232511   3.045   6.229   3.448  1.4927 -0.6414  0.8779
10538SOL     OW32512   5.686   2.693   0.010  1.0549 -0.1567 -0.0347
10538SOL    HW132513   5.641   2.605   0.023  1.1724 -0.2210 -0.0554
10538SOL    HW232514   5.784   2.683   0.028  1.2311 -0.2622 -1.0275
10539SOL     OW32515   1.162   4.135   0.238 -0.0077 -0.0884 -0.6303
10539SOL    HW132516   1.127   4.093   0.322 -0.5025  0.6214 -0.4804
10539SOL    HW232517   1.254   4.170   0.255  0.0101 -0.2085 -0.4739
10540SOL     OW32518   0.686   3.275   4.786  0.2827  0.6759  0.1151
10540SOL    HW132519   0.699   3.348   4.853  0.8075 -0.1864  0.9813
10540SOL    HW232520   0.751   3.287   4.711 -0.0737  1.4491 -0.0839
10541SOL     OW32521   3.303   4.106   2.259  0.0563 -0.6770  0.1068
10541SOL    HW132522   3.396   4.139   2.241 -0.1334  0.2830  0.7645
10541SOL    HW232523   3.263   4.069   2.175 -0.0899  1.8065 -1.0006
10542SOL     OW32524   2.534   1.290   6.749 -0.3209 -0.2123  0.5219
10542SOL    HW132525   2.558   1.231   6.673 -2.0718 -1.3270  0.7632
10542SOL    HW232526   2.438   1.317   6.741  0.1137  1.6676  1.0630
10543SOL     OW32527   0.371   0.568   6.064  0.6502  0.1005  0.1249
10543SOL    HW132528   0.312   0.520   5.999  0.1285  0.9489 -0.0389
10543SOL    HW232529   0.441   0.619   6.015  0.1101  0.9341  0.2110
10544SOL     OW32530   3.525   6.637   3.096 -0.1640 -0.6501 -0.7294
10544SOL    HW132531   3.432   6.619   3.130 -0.8281  0.1511 -2.0161
10544SOL    HW232532   3.556   6.560   3.040  0.7180 -1.7343  1.1703
10545SOL     OW32533   4.878   1.321   2.573  0.1850 -0.5333  0.5374
10545SOL    HW132534   4.912   1.259   2.501 -0.1748 -0.8417  0.6280
10545SOL    HW232535   4.788   1.355   2.547 -0.7732 -2.0631  1.6437
10546SOL     OW32536   2.425   1.941   1.413 -0.0726 -0.1995  0.6920
10546SOL    HW132537   2.423   2.039   1.396 -0.7581 -0.2471  0.4784
10546SOL    HW232538   2.344   1.898   1.374 -0.5060 -0.6477  2.0184
10547SOL     OW32539   5.606   1.892   1.355  0.8624  0.3922  0.3614
10547SOL    HW132540   5.595   1.982   1.313  1.2811 -0.2893 -1.2891
10547SOL    HW232541   5.703   1.867   1.356  0.6007 -0.8507 -1.0571
10548SOL     OW32542   3.901   5.076   3.146 -0.1778 -0.0983  0.3765
10548SOL    HW132543   3.931   5.129   3.068  3.0680 -0.7957  0.9964
10548SOL    HW232544   3.826   5.123   3.193  1.1138  2.8176 -0.3195
10549SOL     OW32545   5.764   6.984   1.821  0.2418  0.1936 -0.2135
10549SOL    HW132546   5.818   7.068   1.827 -0.7694  0.8278  0.4114
10549SOL    HW232547   5.819   6.906   1.850  0.6862  0.8887  0.8966
10550SOL     OW32548   5.648   5.174   5.554  0.2259 -0.1801 -0.0682
10550SOL    HW132549   5.573   5.220   5.506 -1.1960 -3.0817 -0.9013
10550SOL    HW232550   5.735   5.210   5.521 -0.7608  0.8649 -1.7069
10551SOL     OW32551   2.766   2.545   0.529  0.1360  0.0971 -0.2550
10551SOL    HW132552   2.713   2.487   0.468 -0.9844  1.0889 -0.2478
10551SOL    HW232553   2.738   2.640   0.518  0.8887  0.4657  0.8106
10552SOL     OW32554   4.841   1.247   0.015  0.6497 -0.4705  0.5020
10552SOL    HW132555   4.846   1.254   0.115  0.8888 -2.1336  0.6447
10552SOL    HW232556   4.933   1.253  -0.023  0.6110 -0.3711  0.4249
10553SOL     OW32557   0.610   5.118   1.108 -0.0298  0.0072  0.2916
10553SOL    HW132558   0.588   5.027   1.073  1.5738 -0.7231  1.1134
10553SOL    HW232559   0.542   5.144   1.176 -0.3344 -0.6958  0.2664
10554SOL     OW32560   6.875   6.158   1.265 -0.3445 -0.2579  0.4762
10554SOL    HW132561   6.839   6.251   1.272  2.7295  1.1278 -0.2449
10554SOL    HW232562   6.896   6.123   1.357 -4.7921 -1.8323  1.1017
10555SOL     OW32563   2.184   2.541   1.352 -0.7051  0.4302  0.2843
10555SOL    HW132564   2.139   2.512   1.267  0.6822 -3.0726  0.5699
10555SOL    HW232565   2.280   2.561   1.333 -0.1234 -1.3798  1.0955
10556SOL     OW32566   3.239   2.309   6.714  0.2184  0.1898  0.2351
10556SOL    HW132567   3.218   2.215   6.740  0.1079  0.1665  0.0669
10556SOL    HW232568   3.196   2.329   6.626 -1.8465  1.1856  1.4160
10557SOL     OW32569   2.142   4.065   2.927 -0.2124  0.3098 -0.8197
10557SOL    HW132570   2.162   3.969   2.945  0.8119  0.8128  1.0446
10557SOL    HW232571   2.177   4.090   2.836 -1.2196 -1.2253 -1.6763
10558SOL     OW32572   3.816   0.562   2.889 -0.8738  0.2131 -0.8091
10558SOL    HW132573   3.810   0.651   2.935 -0.9318 -0.5783  0.7835
10558SOL    HW232574   3.896   0.512   2.924 -2.0546 -1.2274 -0.0818
10559SOL     OW32575   4.201   0.574   1.518 -0.1261  0.0209 -0.0455
10559SOL    HW132576   4.179   0.651   1.458 -0.3680 -0.0130  0.0003
10559SOL    HW232577   4.266   0.513   1.471 -1.9201 -1.1458 -1.1521
10560SOL     OW32578   2.744   6.242   2.784  0.2955 -0.0294  0.1487
10560SOL    HW132579   2.647   6.220   2.796 -0.4327  2.2195 -1.0561
10560SOL    HW232580   2.777   6.291   2.865  0.0040  0.4730 -0.0300
10561SOL     OW32581   3.537   2.799   1.121 -0.5539  0.3846  0.1670
10561SOL    HW132582   3.625   2.753   1.120 -1.0505 -0.5997 -1.0038
10561SOL    HW232583   3.472   2.745   1.174 -1.2224 -0.4898 -1.4713
10562SOL     OW32584   4.764   5.143   0.322  0.1900 -0.2027  0.1992
10562SOL    HW132585   4.822   5.155   0.241  0.7122  1.1533  0.7401
10562SOL    HW232586   4.736   5.048   0.329 -0.7273 -0.1773 -2.1540
10563SOL     OW32587   0.996   0.269   3.717 -0.2912  0.0833  0.3710
10563SOL    HW132588   0.921   0.325   3.752 -0.4004  0.0120  0.2501
10563SOL    HW232589   1.065   0.327   3.676  0.8545  0.3898  2.5496
10564SOL     OW32590   3.152   6.473   1.319 -0.2989 -0.9898  0.1586
10564SOL    HW132591   3.102   6.401   1.367 -1.7849  0.4120  0.8153
10564SOL    HW232592   3.095   6.511   1.246 -0.4779  0.9985  1.2471
10565SOL     OW32593   5.723   0.230   6.471 -0.1713  0.3824  0.8730
10565SOL    HW132594   5.727   0.283   6.555 -2.2339  2.5796 -0.2834
10565SOL    HW232595   5.629   0.200   6.455 -0.2723  1.7639 -1.5932
10566SOL     OW32596   4.323   2.913   0.832 -0.0756 -0.3333  0.1880
10566SOL    HW132597   4.338   2.968   0.914  1.5772  0.2624 -0.4828
10566SOL    HW232598   4.225   2.905   0.815 -0.4780 -0.7131  2.3588
10567SOL     OW32599   1.006   6.256   4.586  0.4196 -0.0976 -0.0186
10567SOL    HW132600   1.058   6.341   4.593 -2.0901  1.5823 -0.4097
10567SOL    HW232601   0.944   6.262   4.507 -1.3578 -1.3790  1.2053
10568SOL     OW32602   0.872   1.661   5.232  0.5667  0.1066 -0.3608
10568SOL    HW132603   0.829   1.606   5.304  3.3576 -2.1078 -0.1872
10568SOL    HW232604   0.809   1.732   5.201 -2.2987 -1.5526  1.2752
10569SOL     OW32605   5.318   1.202   1.454  0.3611 -0.5607  0.3267
10569SOL    HW132606   5.343   1.297   1.436 -0.1226 -0.1056  1.9220
10569SOL    HW232607   5.296   1.156   1.367 -0.4177  1.0498 -0.3660
10570SOL     OW32608   0.997   6.464   5.366 -0.3515  0.5697  0.7063
10570SOL    HW132609   1.028   6.402   5.437 -0.3096  0.8849  0.9665
10570SOL    HW232610   0.919   6.425   5.318  0.4447 -0.2413  0.0407
10571SOL     OW32611   5.497   4.658   4.184  0.1970 -0.9914  0.0274
10571SOL    HW132612   5.527   4.753   4.174  1.9121 -1.6647 -1.9360
10571SOL    HW232613   5.462   4.624   4.097 -2.6138 -1.5404  1.2569
10572SOL     OW32614   5.897   3.772   4.175  0.6473  1.0302 -0.4483
10572SOL    HW132615   5.978   3.722   4.146  1.5671  0.9043  2.1601
10572SOL    HW232616   5.916   3.870   4.172 -0.6095  1.3232 -3.9302
10573SOL     OW32617   2.330   1.170   5.466  0.0493  0.1267  0.5052
10573SOL    HW132618   2.268   1.244   5.440  1.3503  0.6436 -1.3256
10573SOL    HW232619   2.293   1.121   5.545 -2.2753  0.8990 -0.0334
10574SOL     OW32620   0.414   2.149   4.824 -0.2061  0.0946  0.5489
10574SOL    HW132621   0.495   2.099   4.852  0.6850  1.8168  1.1963
10574SOL    HW232622   0.338   2.085   4.812  1.6574 -1.8378 -1.9938
10575SOL     OW32623   0.822   1.086   1.590 -0.4091 -0.6451  0.2474
10575SOL    HW132624   0.741   1.117   1.541  0.8402  1.9094 -0.3610
10575SOL    HW232625   0.859   1.005   1.546 -1.9688 -1.1857 -0.1277
10576SOL     OW32626   6.719   6.799   0.330 -0.4693 -0.4476  0.3211
10576SOL    HW132627   6.791   6.776   0.264  0.5469 -0.2291  1.3218
10576SOL    HW232628   6.663   6.718   0.348  0.1083 -0.8724  0.2307
10577SOL     OW32629   1.569   3.854   6.986  0.5564  0.6189  0.4255
10577SOL    HW132630   1.551   3.895   6.897  0.2727 -1.7767 -0.6687
10577SOL    HW232631   1.597   3.926   7.050  1.2732  2.3391 -1.6929
10578SOL     OW32632   1.640   5.898   2.492 -0.2444 -0.3644  0.2774
10578SOL    HW132633   1.650   5.801   2.515  0.1009 -0.2137  0.7767
10578SOL    HW232634   1.629   5.951   2.576 -3.1228 -0.2534 -0.0614
10579SOL     OW32635   5.880   1.751   6.733  0.2364  0.4946  0.2604
10579SOL    HW132636   5.890   1.729   6.636  4.1796 -0.1482  0.6402
10579SOL    HW232637   5.856   1.668   6.783  0.5628  0.2934  0.0863
10580SOL     OW32638   1.145   1.591   6.523 -0.2495  0.1713 -0.0544
10580SOL    HW132639   1.146   1.688   6.498 -0.7589 -0.3752 -2.5416
10580SOL    HW232640   1.089   1.541   6.456 -0.6649 -1.7388  1.6336
10581SOL     OW32641   0.473   5.859   1.531 -0.3483  0.1533  0.5691
10581SOL    HW132642   0.524   5.882   1.448  0.4490  0.8361  1.2256
10581SOL    HW232643   0.377   5.884   1.519 -0.4493 -0.6301 -0.4807
10582SOL     OW32644   5.328   5.945   0.606 -0.0383 -0.8666  0.0689
10582SOL    HW132645   5.234   5.909   0.600 -0.1632 -0.7682  1.1546
10582SOL    HW232646   5.326   6.044   0.595 -0.3273 -0.6246  1.9248
10583SOL     OW32647   4.627   2.955   5.648  1.0663  0.0831  0.0095
10583SOL    HW132648   4.699   2.973   5.581  1.2775 -2.2066 -0.4552
10583SOL    HW232649   4.661   2.891   5.717 -0.7138 -1.6918 -0.6581
10584SOL     OW32650   6.639   6.357   2.308 -0.0401  0.2872  0.2460
10584SOL    HW132651   6.671   6.262   2.305 -0.3257  0.2221 -1.3769
10584SOL    HW232652   6.596   6.375   2.397 -0.2080 -1.1726  0.4792
10585SOL     OW32653   3.288   2.055   5.840 -0.1957  0.1310  0.2643
10585SOL    HW132654   3.198   2.024   5.809 -0.3770  1.5748 -0.7248
10585SOL    HW232655   3.277   2.129   5.906  0.2689 -0.6531  1.2548
10586SOL     OW32656   6.621   3.695   3.506 -0.4996  0.0782 -0.0620
10586SOL    HW132657   6.708   3.646   3.507 -1.0343 -0.9080 -0.2072
10586SOL    HW232658   6.562   3.660   3.579 -1.2794 -0.2325 -0.8186
10587SOL     OW32659   5.735   3.981   6.014  0.2558  0.2299  0.3898
10587SOL    HW132660   5.821   3.951   6.056 -0.2066 -1.2166  0.3263
10587SOL    HW232661   5.707   3.915   5.945 -2.3448 -0.7791  2.2981
10588SOL     OW32662   6.882   4.763   3.186  0.1229 -0.5715 -0.1514
10588SOL    HW132663   6.977   4.731   3.193 -0.2859 -1.7442  0.1080
10588SOL    HW232664   6.882   4.858   3.154  1.3786 -0.6209 -0.3517
10589SOL     OW32665   6.414   1.856   5.791 -0.2875  0.4030 -0.8174
10589SOL    HW132666   6.379   1.876   5.699 -1.3547 -0.2488 -0.5773
10589SOL    HW232667   6.351   1.892   5.859 -0.2686 -0.3913 -0.3627
10590SOL     OW32668   0.987   0.665   0.554 -0.1311  0.2971 -0.0950
10590SOL    HW132669   0.955   0.622   0.469  0.6422  0.2239 -0.3581
10590SOL    HW232670   1.070   0.717   0.535 -0.4991  1.0975  0.4244
10591SOL     OW32671   1.800   4.349   4.941 -0.3904 -0.5894 -0.1315
10591SOL    HW132672   1.703   4.325   4.936 -0.6734 -0.2108  2.2704
10591SOL    HW232673   1.854   4.279   4.894 -1.7964 -0.7201 -1.6601
10592SOL     OW32674   0.968   4.810   6.840  0.0810 -0.0353 -0.1338
10592SOL    HW132675   1.051   4.824   6.893  0.0237  0.6430 -0.2177
10592SOL    HW232676   0.897   4.771   6.899 -0.0667  0.9682  0.3701
10593SOL     OW32677   0.853   6.409   2.177  0.0500 -0.2862  0.6286
10593SOL    HW132678   0.866   6.344   2.251 -0.4015 -2.2076 -0.9188
10593SOL    HW232679   0.933   6.409   2.117  0.1678  0.8259  0.7514
10594SOL     OW32680   5.073   0.007   1.559 -0.2350  0.1263  0.0732
10594SOL    HW132681   4.980   0.042   1.554 -0.1860  0.3450  0.6111
10594SOL    HW232682   5.137   0.082   1.575  0.1167  0.0724 -1.0082
10595SOL     OW32683   3.400   6.194   5.070 -0.1661 -0.0851 -0.3994
10595SOL    HW132684   3.319   6.211   5.126 -0.3141 -2.9757  0.4347
10595SOL    HW232685   3.374   6.143   4.988  0.8246 -1.8415  0.3124
10596SOL     OW32686   4.316   6.339   0.728  0.3350 -0.0881  0.2190
10596SOL    HW132687   4.384   6.290   0.783  0.9814  0.2817 -0.2400
10596SOL    HW232688   4.279   6.415   0.781  0.1016 -0.4222  0.5488
10597SOL     OW32689   2.409   2.031   6.873 -0.0080  0.5513 -0.4059
10597SOL    HW132690   2.386   1.935   6.859  1.5598  0.3707 -2.1673
10597SOL    HW232691   2.446   2.044   6.965 -0.3263 -0.5107 -0.1192
10598SOL     OW32692   1.871   1.315   0.119 -0.7126 -0.3820 -0.2184
10598SOL    HW132693   1.839   1.374   0.044 -1.4971 -1.5434 -0.8296
10598SOL    HW232694   1.837   1.351   0.206  0.8850  1.4530 -0.2681
10599SOL     OW32695   5.929   2.180   5.917  0.6997 -0.1034 -0.2084
10599SOL    HW132696   5.983   2.144   5.993 -2.6462  0.4613  2.6991
10599SOL    HW232697   5.921   2.279   5.926 -1.4579 -0.2478  0.0231
10600SOL     OW32698   1.133   1.997   2.372 -0.1713 -0.2528  0.4360
10600SOL    HW132699   1.207   1.992   2.305 -0.0478  0.1582  0.5408
10600SOL    HW232700   1.169   2.025   2.461 -0.4258 -0.1933  0.5228
10601SOL     OW32701   0.804   2.272   1.209 -0.0133 -0.3393  0.1653
10601SOL    HW132702   0.835   2.212   1.283 -0.6286  1.4890  2.0132
10601SOL    HW232703   0.719   2.236   1.171 -1.3296  0.1681  2.4262
10602SOL     OW32704   4.542   2.148   3.195  0.3166  0.0395  0.3599
10602SOL    HW132705   4.519   2.220   3.130 -0.4969 -0.9026 -0.4386
10602SOL    HW232706   4.574   2.189   3.280  0.5672  1.3155 -0.3199
10603SOL     OW32707   3.044   5.041   3.323  0.5055  0.0732  0.1328
10603SOL    HW132708   2.993   5.079   3.246  2.5486 -0.4654 -1.5746
10603SOL    HW232709   2.983   4.984   3.378 -1.1422  0.8958 -0.7688
10604SOL     OW32710   6.500   3.570   5.287 -0.1265 -0.5274  0.0666
10604SOL    HW132711   6.489   3.615   5.199  0.8974  0.0214  0.2043
10604SOL    HW232712   6.534   3.636   5.354  0.2240 -1.2207  0.5783
10605SOL     OW32713   1.296   4.032   1.336 -0.0931  0.0725 -0.3206
10605SOL    HW132714   1.322   3.970   1.261  2.2170 -0.1597  0.5850
10605SOL    HW232715   1.297   4.126   1.302 -0.2354 -0.1219 -0.8802
10606SOL     OW32716   6.060   0.892   1.477  0.1617  0.0300  0.2287
10606SOL    HW132717   6.148   0.920   1.515  0.6469 -0.6112 -0.4124
10606SOL    HW232718   6.010   0.839   1.546  1.2767 -1.6152 -0.1588
10607SOL     OW32719   5.537   5.570   5.411  0.3747 -0.2549 -0.1206
10607SOL    HW132720   5.507   5.640   5.346 -1.9619 -1.5542 -0.5437
10607SOL    HW232721   5.601   5.611   5.477  0.8504  1.6910 -1.6794
10608SOL     OW32722   0.534   3.007   4.371  0.2314 -0.2229 -0.6831
10608SOL    HW132723   0.439   3.033   4.387 -0.2160 -2.9510  2.1377
10608SOL    HW232724   0.594   3.080   4.404 -0.9097  0.1296  0.7145
10609SOL     OW32725   2.505   6.869   0.866 -0.4583 -0.6697 -0.3273
10609SOL    HW132726   2.503   6.775   0.834  2.2312 -0.4977 -1.2271
10609SOL    HW232727   2.564   6.924   0.806 -1.2916  1.4255  0.6499
10610SOL     OW32728   2.087   4.064   6.868 -0.1216 -0.0379  0.2837
10610SOL    HW132729   2.095   3.965   6.866 -1.1406 -0.1233  0.0917
10610SOL    HW232730   2.158   4.102   6.929  2.7973 -0.5822 -2.4959
10611SOL     OW32731   4.097   3.309   3.563  0.5141  0.1339 -0.0997
10611SOL    HW132732   4.090   3.289   3.661  1.1733  1.1792  0.1771
10611SOL    HW232733   4.084   3.224   3.511 -0.7353 -0.2885  0.8410
10612SOL     OW32734   2.108   5.643   6.371  0.3097 -0.0112 -0.0311
10612SOL    HW132735   2.193   5.689   6.394  1.0697 -0.7890 -1.1439
10612SOL    HW232736   2.054   5.701   6.310 -0.1727  0.6618  1.0161
10613SOL     OW32737   0.012   1.098   0.155 -0.2834  0.0094  0.2739
10613SOL    HW132738  -0.044   1.083   0.073  0.7999  0.3541 -0.5491
10613SOL    HW232739   0.092   1.153   0.131  0.6400 -0.8258  1.3327
10614SOL     OW32740   0.447   1.589   4.474  0.1050 -0.7829 -0.0008
10614SOL    HW132741   0.458   1.492   4.452 -0.5313 -0.6008 -1.1445
10614SOL    HW232742   0.401   1.636   4.400  1.2174  0.5982  0.1287
10615SOL     OW32743   3.446   5.010   4.638 -0.1989 -0.3315  0.1826
10615SOL    HW132744   3.480   4.990   4.546 -1.4796  2.3680 -0.9961
10615SOL    HW232745   3.347   4.995   4.641 -0.5844  1.9434  0.3072
10616SOL     OW32746   1.438   6.749   0.502 -0.3120  0.5969 -0.6446
10616SOL    HW132747   1.384   6.769   0.584  1.3182  1.1013  0.3447
10616SOL    HW232748   1.438   6.650   0.487 -2.1685  0.6287 -1.1691
10617SOL     OW32749   0.714   2.215   0.612  0.0871  0.4670 -0.2508
10617SOL    HW132750   0.738   2.129   0.656 -1.4411 -0.5869 -1.3393
10617SOL    HW232751   0.772   2.229   0.532 -1.0846 -0.7274 -1.3580
10618SOL     OW32752   5.164   2.460   0.591  0.1492 -0.6392  0.0758
10618SOL    HW132753   5.118   2.383   0.636 -0.8082 -0.6784 -0.9292
10618SOL    HW232754   5.244   2.487   0.645 -0.3853 -1.3269  1.2644
10619SOL     OW32755   6.183   2.714   1.799  0.0767  0.0767 -1.2662
10619SOL    HW132756   6.275   2.675   1.805  0.0494  0.2798  1.3256
10619SOL    HW232757   6.133   2.670   1.725  1.4707 -1.7141 -1.2002
10620SOL     OW32758   0.547   4.828   5.585  0.0456 -0.4148 -0.7982
10620SOL    HW132759   0.609   4.763   5.541  1.1670  0.2864 -0.3296
10620SOL    HW232760   0.567   4.920   5.551  1.7384  0.3329  1.8935
10621SOL     OW32761   2.460   0.733   1.798 -0.1855 -0.1077  0.1589
10621SOL    HW132762   2.450   0.742   1.897 -0.2757  1.7131  0.0209
10621SOL    HW232763   2.482   0.822   1.759 -0.1050 -0.8110 -1.4622
10622SOL     OW32764   4.677   0.910   2.399 -0.5934 -0.1269 -0.3803
10622SOL    HW132765   4.613   0.979   2.364 -0.4076  1.1156  1.5707
10622SOL    HW232766   4.652   0.887   2.493  1.9643  0.6392  0.5579
10623SOL     OW32767   6.298   4.385   3.756  0.0268  0.0899  0.0629
10623SOL    HW132768   6.327   4.315   3.821 -0.4871 -0.4513 -0.2833
10623SOL    HW232769   6.208   4.420   3.782  0.0639  0.2633 -0.0416
10624SOL     OW32770   1.470   1.341   5.457  0.8620 -0.0863 -0.3625
10624SOL    HW132771   1.370   1.339   5.451  0.8830  1.2442 -2.2457
10624SOL    HW232772   1.498   1.404   5.529  0.3062  0.6822 -0.7968
10625SOL     OW32773   0.014   5.976   6.063  0.0781 -0.1283 -0.2591
10625SOL    HW132774  -0.028   5.993   5.974 -0.3402  1.0326  0.1364
10625SOL    HW232775  -0.047   6.009   6.135  0.9640  0.0868  0.4063
10626SOL     OW32776   2.142   3.799   6.836 -0.8747 -0.2038 -0.5487
10626SOL    HW132777   2.242   3.801   6.842 -0.9095 -0.1453  0.1132
10626SOL    HW232778   2.114   3.738   6.762 -0.3439  0.1068 -1.0138
10627SOL     OW32779   3.640   4.772   0.807 -0.3670  0.5403 -0.1965
10627SOL    HW132780   3.636   4.724   0.719 -1.1985  2.2028 -1.1359
10627SOL    HW232781   3.548   4.794   0.837 -0.1287 -0.5439  1.4569
10628SOL     OW32782   5.469   0.161   6.472  0.3343  0.6059 -0.1135
10628SOL    HW132783   5.446   0.244   6.421 -0.7806  0.2513 -0.2068
10628SOL    HW232784   5.393   0.137   6.532  0.9025 -0.0037  0.3808
10629SOL     OW32785   2.014   3.570   6.413  0.2683  0.2728  0.2396
10629SOL    HW132786   1.953   3.641   6.378 -1.1937 -1.2014 -0.3247
10629SOL    HW232787   2.102   3.576   6.366  0.7808  2.6770  1.3414
10630SOL     OW32788   5.136   1.511   3.863  0.4152  0.0822  0.3532
10630SOL    HW132789   5.163   1.598   3.904 -0.0219  0.0937  0.6286
10630SOL    HW232790   5.074   1.528   3.786 -0.0257  0.0015  0.6861
10631SOL     OW32791   1.404   3.630   6.702  0.0988 -0.1030  0.8968
10631SOL    HW132792   1.313   3.627   6.661  0.6676 -2.0659 -0.3627
10631SOL    HW232793   1.421   3.721   6.740 -1.3194  1.1841 -1.3237
10632SOL     OW32794   6.126   1.196   4.284 -0.4825 -0.3496 -0.2404
10632SOL    HW132795   6.172   1.118   4.240  0.1494  0.0992 -0.3897
10632SOL    HW232796   6.027   1.184   4.278 -0.4488  0.0063 -2.3835
10633SOL     OW32797   2.738   3.322   0.756 -0.2158 -0.8332 -0.2949
10633SOL    HW132798   2.817   3.336   0.816  0.7060  1.1694 -1.8698
10633SOL    HW232799   2.721   3.224   0.747  0.1021 -1.2354  2.5235
10634SOL     OW32800   2.787   3.931   1.011  0.3897  0.8878 -0.0814
10634SOL    HW132801   2.842   3.849   1.026 -0.6815  0.1574 -0.0352
10634SOL    HW232802   2.695   3.917   1.048  0.0971  1.9964 -0.3512
10635SOL     OW32803   4.811   1.291   1.516 -0.7227 -0.0058  0.2532
10635SOL    HW132804   4.788   1.374   1.566  0.7009  1.6659 -1.6986
10635SOL    HW232805   4.727   1.245   1.488 -1.5390  0.4389  1.8305
10636SOL     OW32806   0.445   2.735   0.703 -0.1237 -0.2491 -0.4371
10636SOL    HW132807   0.358   2.784   0.691 -0.0300 -0.2919 -1.3544
10636SOL    HW232808   0.457   2.669   0.629 -1.1496 -3.1201  1.7745
10637SOL     OW32809   3.545   4.175   4.377  0.0388 -0.6443 -0.1312
10637SOL    HW132810   3.626   4.143   4.328  0.3693  1.8614 -1.3786
10637SOL    HW232811   3.571   4.202   4.470  0.4685 -0.5787 -0.2689
10638SOL     OW32812   5.078   4.171   1.551  0.7203 -0.5044 -0.8576
10638SOL    HW132813   4.982   4.197   1.540  0.4363 -1.2459 -0.2543
10638SOL    HW232814   5.083   4.087   1.605  1.5899 -1.6363 -2.6084
10639SOL     OW32815   6.576   3.149   2.076 -0.7512 -0.6182 -0.2572
10639SOL    HW132816   6.588   3.216   2.149 -1.2016 -2.2723  1.3907
10639SOL    HW232817   6.490   3.167   2.028 -1.0923 -0.3041  0.4639
10640SOL     OW32818   2.407   5.956   3.309  0.8456  0.3064  0.1137
10640SOL    HW132819   2.424   5.886   3.378  1.4959  0.9303  0.5952
10640SOL    HW232820   2.425   6.047   3.348  1.0135  0.6782 -0.8047
10641SOL     OW32821   4.300   2.678   5.608 -0.2640 -0.4497 -0.6127
10641SOL    HW132822   4.210   2.697   5.647  0.0854 -0.2082  0.0848
10641SOL    HW232823   4.371   2.706   5.672  0.3032 -1.5002 -0.7723
10642SOL     OW32824   4.694   2.424   2.985 -0.1783 -0.1479 -0.3268
10642SOL    HW132825   4.628   2.351   2.966 -0.7236 -0.0843  1.1685
10642SOL    HW232826   4.649   2.497   3.037  1.4507 -0.9957  2.4895
10643SOL     OW32827   1.872   4.013   5.125 -0.2364 -0.0342  0.2574
10643SOL    HW132828   1.793   4.048   5.174  0.5803  1.3449  0.6717
10643SOL    HW232829   1.884   4.065   5.040  0.0708 -0.4094  0.0673
10644SOL     OW32830   5.908   2.979   4.042  0.1733  0.2163 -0.1734
10644SOL    HW132831   5.850   3.056   4.016 -1.1093 -0.6345  0.1170
10644SOL    HW232832   5.854   2.910   4.089  1.5414 -0.3604  0.6044
10645SOL     OW32833   1.022   2.851   5.681  0.8720 -0.1569 -0.3283
10645SOL    HW132834   0.961   2.845   5.602 -0.7762  2.2071  0.6227
10645SOL    HW232835   1.015   2.943   5.721  1.6087 -1.2652  2.5830
10646SOL     OW32836   0.273   2.857   5.999  0.4024 -0.4098  0.5103
10646SOL    HW132837   0.225   2.773   5.973 -0.5697  0.2468  0.1338
10646SOL    HW232838   0.210   2.919   6.047 -0.3052  2.0169 -3.1310
10647SOL     OW32839   2.647   4.073   0.277 -0.4372  0.2713  0.2859
10647SOL    HW132840   2.637   4.069   0.177 -1.3656 -0.0072  0.3793
10647SOL    HW232841   2.721   4.013   0.306 -0.8994 -0.5264 -0.1476
10648SOL     OW32842   5.343   4.255   0.332  0.2654 -0.2434 -0.3549
10648SOL    HW132843   5.266   4.260   0.396  0.3081 -1.8286 -0.1468
10648SOL    HW232844   5.361   4.346   0.295 -0.6309  0.4607  0.8597
10649SOL     OW32845   0.502   2.761   3.678  0.2708  0.2469 -0.2176
10649SOL    HW132846   0.465   2.699   3.747  1.0054  1.5570  1.4223
10649SOL    HW232847   0.575   2.715   3.628  0.6317 -0.3150  0.7936
10650SOL     OW32848   0.218   5.344   2.886 -0.1671 -0.0042 -0.0828
10650SOL    HW132849   0.245   5.440   2.880  0.4718 -0.1361  0.6006
10650SOL    HW232850   0.154   5.332   2.962 -1.2193  0.0800 -0.9154
10651SOL     OW32851   3.436   0.271   4.789 -0.1201 -0.1891  0.1873
10651SOL    HW132852   3.481   0.184   4.809 -0.7376 -0.4383  0.5556
10651SOL    HW232853   3.346   0.253   4.749 -1.2259  0.2061  2.3597
10652SOL     OW32854   3.092   0.794   0.074  0.3898  0.0617 -0.7205
10652SOL    HW132855   3.116   0.872   0.017  1.5945 -1.0881 -1.8770
10652SOL    HW232856   3.016   0.745   0.032  0.5287 -0.1420 -0.7366
10653SOL     OW32857   5.185   4.890   3.218  0.5550  0.2506  0.5917
10653SOL    HW132858   5.162   4.853   3.128  3.5695 -0.4970  0.0190
10653SOL    HW232859   5.117   4.958   3.245 -0.9238 -0.1819 -1.8148
10654SOL     OW32860   5.487   0.100   6.828  0.0166  0.4421  0.5248
10654SOL    HW132861   5.501   0.002   6.809 -0.3962  0.5503 -0.4329
10654SOL    HW232862   5.417   0.135   6.766  0.0025  1.3017  1.0197
10655SOL     OW32863   4.454   5.366   6.392 -0.0682  0.6109 -0.4069
10655SOL    HW132864   4.491   5.459   6.383  1.8752 -0.3331 -3.3166
10655SOL    HW232865   4.412   5.338   6.306 -1.0924 -1.0497  0.5906
10656SOL     OW32866   6.850   3.840   0.402  0.3103 -0.3610  0.2426
10656SOL    HW132867   6.906   3.917   0.369 -2.1855  1.1755 -0.6808
10656SOL    HW232868   6.790   3.809   0.328 -0.3080 -1.7388  1.2809
10657SOL     OW32869   4.855   0.245   0.267  0.4801 -0.0046 -0.5733
10657SOL    HW132870   4.783   0.187   0.305  0.9383 -0.0965  0.1733
10657SOL    HW232871   4.827   0.341   0.275  0.1786 -0.0670 -0.8481
10658SOL     OW32872   6.275   4.441   5.043 -0.4436  0.1728  0.0076
10658SOL    HW132873   6.357   4.456   4.988  0.1826 -0.8111  0.6559
10658SOL    HW232874   6.200   4.496   5.006  0.3467  0.6402 -0.9407
10659SOL     OW32875   6.613   6.468   2.862  0.1559  0.0774 -0.0337
10659SOL    HW132876   6.540   6.406   2.831  0.7810 -0.5121 -0.3535
10659SOL    HW232877   6.668   6.497   2.784  0.9793 -0.4252  0.3404
10660SOL     OW32878   4.503   4.045   6.199 -0.0387 -0.0218 -0.2787
10660SOL    HW132879   4.440   4.122   6.201 -0.2084 -0.1835  1.2342
10660SOL    HW232880   4.556   4.042   6.283  0.5148 -1.1128 -0.6425
10661SOL     OW32881   6.834   5.920   0.933 -0.1786  0.2234  0.2665
10661SOL    HW132882   6.790   5.902   0.844 -0.3926 -0.2088  0.4578
10661SOL    HW232883   6.904   5.990   0.921  0.1965 -0.2445 -0.3678
10662SOL     OW32884   5.326   0.251   1.535  0.0235  0.5169 -0.0608
10662SOL    HW132885   5.367   0.171   1.579  0.8086  1.9395  1.9309
10662SOL    HW232886   5.262   0.295   1.598  1.0093  2.5057 -0.3654
10663SOL     OW32887   6.904   0.360   0.473  0.1663 -0.9124  0.4602
10663SOL    HW132888   6.999   0.386   0.494  0.3302 -2.4534  1.8402
10663SOL    HW232889   6.902   0.263   0.447 -1.0329 -0.8948  0.4630
10664SOL     OW32890   0.203   4.752   4.510 -0.2439  0.5404  0.4009
10664SOL    HW132891   0.236   4.811   4.436  0.0101 -0.8256 -0.6155
10664SOL    HW232892   0.118   4.789   4.546 -1.5213  0.1445 -2.0227
10665SOL     OW32893   6.919   5.504   6.334 -0.0668 -0.1106  0.5112
10665SOL    HW132894   6.852   5.578   6.335  0.0386  0.0489 -1.0436
10665SOL    HW232895   6.942   5.482   6.239  1.4906 -0.7021  0.9974
10666SOL     OW32896   4.429   4.626   6.892 -0.4576 -0.2423 -0.0252
10666SOL    HW132897   4.368   4.554   6.858 -0.9124  0.2282 -0.2180
10666SOL    HW232898   4.444   4.694   6.820 -0.7593  0.3315  0.4446
10667SOL     OW32899   4.966   2.124   6.334  0.1125 -0.0793  0.5127
10667SOL    HW132900   4.971   2.050   6.402  0.2473 -1.1094 -0.5940
10667SOL    HW232901   4.886   2.112   6.276 -0.9660  1.7522  1.5172
10668SOL     OW32902   2.985   0.858   6.422 -0.2567  0.4040  0.1016
10668SOL    HW132903   2.901   0.836   6.371 -0.0707  0.3987 -0.2032
10668SOL    HW232904   3.059   0.878   6.357 -0.1319  0.8201  0.3726
10669SOL     OW32905   6.891   0.010   0.785  0.0662 -0.1667  0.6124
10669SOL    HW132906   6.980   0.049   0.807 -0.3152  1.6184 -0.7099
10669SOL    HW232907   6.832   0.012   0.866  0.3672  1.2568  0.8247
10670SOL     OW32908   4.764   4.581   4.353  0.1080 -0.5730  0.0856
10670SOL    HW132909   4.799   4.577   4.259 -0.3867 -1.8273 -0.0586
10670SOL    HW232910   4.688   4.517   4.363  1.3562 -1.8520  1.8441
10671SOL     OW32911   1.614   2.913   3.319 -0.0464  0.1224 -0.2070
10671SOL    HW132912   1.707   2.917   3.356  0.9080  2.2735 -2.5022
10671SOL    HW232913   1.558   2.984   3.362 -0.0188  0.2026 -0.3040
10672SOL     OW32914   1.812   2.916   1.589 -0.2959 -0.2744 -1.0562
10672SOL    HW132915   1.886   2.923   1.521 -0.2650  0.3539 -0.9613
10672SOL    HW232916   1.780   2.821   1.592 -0.2328 -0.3354 -1.8817
10673SOL     OW32917   1.465   2.533   6.627  0.1474  0.3016 -0.0481
10673SOL    HW132918   1.450   2.595   6.550  1.7758 -0.0381 -0.6910
10673SOL    HW232919   1.564   2.519   6.639 -0.1546 -1.9818  0.2027
10674SOL     OW32920   2.740   2.890   0.116  0.2838 -0.3459  0.2512
10674SOL    HW132921   2.666   2.822   0.123 -0.0678 -0.1345 -1.0461
10674SOL    HW232922   2.707   2.978   0.149  0.1570 -0.3929  0.2508
10675SOL     OW32923   1.200   5.025   5.138 -0.3708  0.0886  0.3093
10675SOL    HW132924   1.247   5.062   5.219  0.4296 -1.1873  0.4526
10675SOL    HW232925   1.164   4.934   5.159 -0.1266 -0.2704 -0.7778
10676SOL     OW32926   5.559   5.634   2.013 -0.6881 -0.1092  0.2697
10676SOL    HW132927   5.501   5.592   2.082 -0.6897  0.5071  0.6432
10676SOL    HW232928   5.634   5.571   1.990 -0.5206 -0.2045  1.0398
10677SOL     OW32929   6.784   0.372   1.953 -0.3009 -0.4867  0.2787
10677SOL    HW132930   6.816   0.303   1.888  1.4063 -0.3463  0.9181
10677SOL    HW232931   6.735   0.444   1.903  1.0508 -0.3273 -0.8836
10678SOL     OW32932   4.727   4.252   3.690  0.1212  0.1631  0.5119
10678SOL    HW132933   4.733   4.220   3.784  0.0899 -1.1505  0.0952
10678SOL    HW232934   4.776   4.188   3.630 -0.0714  0.8400 -0.3908
10679SOL     OW32935   4.254   5.836   6.284  0.1343  0.9327  0.0168
10679SOL    HW132936   4.184   5.864   6.349 -1.3773 -0.3276 -0.9780
10679SOL    HW232937   4.213   5.822   6.194  1.4003 -1.0159 -0.3302
10680SOL     OW32938   1.659   3.230   4.233  0.0698 -0.4715  0.2850
10680SOL    HW132939   1.743   3.253   4.184 -0.6320  0.7986 -0.4029
10680SOL    HW232940   1.680   3.213   4.329  1.2839 -1.5821 -0.1396
10681SOL     OW32941   6.623   3.416   6.356 -0.1205 -0.9027 -0.4173
10681SOL    HW132942   6.675   3.334   6.331  0.1444 -0.6028 -0.8496
10681SOL    HW232943   6.525   3.398   6.346 -0.0095 -0.2063 -3.6072
10682SOL     OW32944   0.522   2.747   4.017  0.5234 -0.2111 -0.1760
10682SOL    HW132945   0.562   2.829   3.977  1.7549 -1.5589 -1.8523
10682SOL    HW232946   0.426   2.741   3.990  0.5655  0.3837 -0.4846
10683SOL     OW32947   2.743   1.269   6.224 -0.2075  0.0357 -0.6703
10683SOL    HW132948   2.648   1.278   6.194  0.0161 -0.4860 -1.6062
10683SOL    HW232949   2.757   1.321   6.308 -1.4633 -0.3594 -0.1869
10684SOL     OW32950   5.035   3.676   1.161  0.0003 -1.0587  0.6361
10684SOL    HW132951   4.986   3.683   1.074 -2.8749  2.7512  2.2894
10684SOL    HW232952   4.974   3.637   1.230  0.9374 -0.5816  1.7575
10685SOL     OW32953   5.881   3.127   2.229 -0.5237  0.7918 -0.4717
10685SOL    HW132954   5.811   3.056   2.237  0.9182 -0.5289  1.1944
10685SOL    HW232955   5.959   3.091   2.179  0.6925  0.7665  1.3601
10686SOL     OW32956   4.269   6.010   5.925  0.6579 -0.7175 -0.4553
10686SOL    HW132957   4.226   5.924   5.953 -3.2098  1.1567 -0.0186
10686SOL    HW232958   4.276   6.013   5.826  1.2139 -1.6588 -0.4602
10687SOL     OW32959   0.488   0.271   2.756  0.0147  0.5364  0.0469
10687SOL    HW132960   0.586   0.269   2.776  0.3720  2.3145 -1.2959
10687SOL    HW232961   0.464   0.357   2.711 -2.3380  0.5200  1.0794
10688SOL     OW32962   6.550   5.116   0.642 -0.3814 -0.0495  0.1037
10688SOL    HW132963   6.518   5.027   0.612 -0.1703  0.4352 -1.6823
10688SOL    HW232964   6.473   5.170   0.675 -0.4363 -1.0461  1.6748
10689SOL     OW32965   6.511   6.063   2.177 -0.3767 -0.4787  0.2663
10689SOL    HW132966   6.588   6.045   2.239  1.0470  0.8777 -0.9966
10689SOL    HW232967   6.546   6.109   2.095 -2.5701  0.1284 -0.3719
10690SOL     OW32968   7.008   0.377   2.872  0.3371  0.3539  0.1529
10690SOL    HW132969   7.039   0.378   2.967  1.0878  1.0586 -0.0877
10690SOL    HW232970   7.044   0.457   2.824  0.7888 -0.4962 -0.9750
10691SOL     OW32971   6.545   1.204   2.470 -0.5082 -0.0675  0.4605
10691SOL    HW132972   6.498   1.252   2.396  1.7062 -0.6783 -1.4830
10691SOL    HW232973   6.623   1.258   2.500  0.4420 -1.2100  0.1233
10692SOL     OW32974   3.713   0.150   2.674  0.3089  0.0228  0.2221
10692SOL    HW132975   3.639   0.108   2.622  1.1291 -0.8127 -0.3046
10692SOL    HW232976   3.767   0.209   2.614 -0.8661  1.9483  0.9651
10693SOL     OW32977   2.542   0.678   0.970  0.2729 -0.2708 -0.3805
10693SOL    HW132978   2.512   0.583   0.974  0.9248 -0.4439  0.9476
10693SOL    HW232979   2.465   0.738   0.992 -0.6057 -0.3412 -2.8972
10694SOL     OW32980   3.378   0.415   1.863 -0.1912  0.1898  0.3632
10694SOL    HW132981   3.280   0.397   1.849 -0.0951 -0.9917  1.0587
10694SOL    HW232982   3.425   0.329   1.880  0.8213  0.8492  0.9796
10695SOL     OW32983   0.345   2.544   2.228 -0.6881 -0.1895  0.0316
10695SOL    HW132984   0.439   2.524   2.202 -1.0192 -0.8403 -0.7059
10695SOL    HW232985   0.333   2.643   2.235 -0.1552 -0.0715 -0.6538
10696SOL     OW32986   5.040   5.177   1.468 -0.3159 -0.0756  0.4164
10696SOL    HW132987   4.956   5.232   1.476  0.2173  1.1706 -1.7361
10696SOL    HW232988   5.119   5.236   1.484  0.2567 -0.2126 -1.6371
10697SOL     OW32989   6.922   5.320   2.975 -0.0957  0.1750 -0.1928
10697SOL    HW132990   6.894   5.380   2.901 -2.9821  0.3937  0.9256
10697SOL    HW232991   6.976   5.372   3.042  1.0996  0.3775 -1.2729
10698SOL     OW32992   2.454   6.496   2.966  0.0395  0.0572  0.4013
10698SOL    HW132993   2.475   6.413   3.018  0.0555 -0.2415 -0.0710
10698SOL    HW232994   2.412   6.564   3.026 -0.0602 -0.3297  0.7733
10699SOL     OW32995   3.188   2.135   4.204  0.1895 -0.3417  0.4149
10699SOL    HW132996   3.286   2.140   4.184  0.0712 -1.6434 -0.5405
10699SOL    HW232997   3.175   2.138   4.303  1.1500  0.3015  0.5427
10700SOL     OW32998   0.032   5.605   1.610  0.7718 -0.2401  0.1704
10700SOL    HW132999   0.120   5.566   1.585  0.5563  0.6143 -2.0952
10700SOL    HW233000  -0.013   5.642   1.529 -1.1496  0.4373  1.4686
10701SOL     OW33001   5.228   4.472   1.339  0.3741 -0.3398  0.1490
10701SOL    HW133002   5.270   4.398   1.286 -0.9959 -0.6937 -0.4751
10701SOL    HW233003   5.255   4.560   1.301 -2.1226 -0.5815 -2.4854
10702SOL     OW33004   6.441   3.529   1.799 -0.7978 -0.2418 -0.1688
10702SOL    HW133005   6.358   3.558   1.750  1.0239  1.7868 -2.3764
10702SOL    HW233006   6.430   3.546   1.897 -2.6013  1.0398 -0.5413
10703SOL     OW33007   3.551   2.906   3.506 -0.1944  0.5249  0.3035
10703SOL    HW133008   3.519   2.894   3.600  0.3502  0.1861  0.4492
10703SOL    HW233009   3.641   2.864   3.496 -1.3706 -1.9249 -1.0512
10704SOL     OW33010   4.436   6.759   1.366 -0.2408  0.0440  0.7037
10704SOL    HW133011   4.531   6.790   1.361 -0.3902  0.5895  1.2135
10704SOL    HW233012   4.388   6.809   1.438 -0.9882 -0.0460  0.2759
10705SOL     OW33013   1.296   5.510   1.436 -0.1714  0.0224  0.0663
10705SOL    HW133014   1.222   5.533   1.499  1.6601 -0.3364  2.4863
10705SOL    HW233015   1.327   5.592   1.390 -1.2041  0.3824 -0.0223
10706SOL     OW33016   2.795   0.189   0.823 -0.2116 -0.3709  0.1558
10706SOL    HW133017   2.842   0.277   0.810  0.1610 -0.7825 -1.5018
10706SOL    HW233018   2.697   0.204   0.828 -0.4565 -0.0476 -3.2936
10707SOL     OW33019   0.706   0.245   5.272 -0.5241 -0.0879  0.2257
10707SOL    HW133020   0.742   0.298   5.348 -0.0728  1.0458 -0.7422
10707SOL    HW233021   0.672   0.157   5.305  2.3288 -0.8890  1.3366
10708SOL     OW33022   4.742   6.789   1.237  0.1324  0.7209 -0.6689
10708SOL    HW133023   4.827   6.772   1.287 -0.5591  0.2635  0.3989
10708SOL    HW233024   4.763   6.818   1.144  1.4762  1.6330 -0.1181
10709SOL     OW33025   0.077   0.462   6.367 -0.4526 -0.2594  0.5154
10709SOL    HW133026   0.053   0.471   6.463  1.3102  1.7004  0.8553
10709SOL    HW233027   0.004   0.500   6.310 -0.5345  0.6880  1.2287
10710SOL     OW33028   6.116   5.377   4.465 -0.0170 -0.1365  0.2663
10710SOL    HW133029   6.210   5.358   4.496 -0.3560 -0.6173  1.0168
10710SOL    HW233030   6.058   5.298   4.484 -0.0963 -0.7827 -2.2792
10711SOL     OW33031   2.158   5.983   4.678  0.2934 -0.7069 -0.9206
10711SOL    HW133032   2.152   6.077   4.645  0.2920  0.5734  2.3586
10711SOL    HW233033   2.070   5.955   4.716  1.4853 -0.0245  2.7242
10712SOL     OW33034   4.202   1.217   4.035  0.5074 -0.2869 -0.7581
10712SOL    HW133035   4.215   1.209   4.134  1.4976  0.1378 -0.8344
10712SOL    HW233036   4.213   1.127   3.993  0.9507 -0.3325 -0.5607
10713SOL     OW33037   3.478   4.229   1.691  0.3728 -0.1381 -0.5313
10713SOL    HW133038   3.478   4.208   1.789 -1.3332  1.6508 -0.0578
10713SOL    HW233039   3.477   4.145   1.638  0.4340 -1.1459  1.0198
10714SOL     OW33040   0.473   4.680   6.214 -0.1382 -0.5937  0.9234
10714SOL    HW133041   0.549   4.692   6.278  0.3542 -0.5038  0.3437
10714SOL    HW233042   0.417   4.763   6.213 -0.5024 -0.8239  1.6735
10715SOL     OW33043   6.871   0.551   2.625  0.3195  0.3679  0.1747
10715SOL    HW133044   6.803   0.625   2.616  0.0296  0.0083 -0.7016
10715SOL    HW233045   6.903   0.524   2.535  0.6968 -0.3308  0.5075
10716SOL     OW33046   6.600   3.387   3.339  0.4057  0.5160 -0.9175
10716SOL    HW133047   6.666   3.461   3.341  1.4734 -0.4193  0.0035
10716SOL    HW233048   6.562   3.378   3.247  0.3176  2.1187 -1.0636
10717SOL     OW33049   1.524   0.320   1.375 -0.5625  0.5095  0.2667
10717SOL    HW133050   1.621   0.334   1.398 -1.0679  4.5436  0.7050
10717SOL    HW233051   1.506   0.357   1.284 -1.3278 -2.5279 -0.9203
10718SOL     OW33052   5.299   3.696   6.111  0.6613 -0.2300  0.2244
10718SOL    HW133053   5.259   3.787   6.110  0.9057 -0.1266 -0.3205
10718SOL    HW233054   5.228   3.628   6.126  0.5286  0.0730  1.0247
10719SOL     OW33055   4.149   5.135   0.198  0.3743 -0.4281 -0.4622
10719SOL    HW133056   4.198   5.067   0.252  0.4029  0.0949  0.1886
10719SOL    HW233057   4.204   5.219   0.193 -0.9773  0.6222  1.3685
10720SOL     OW33058   6.149   4.430   4.684  0.7225  0.2810 -0.0350
10720SOL    HW133059   6.178   4.349   4.634  1.6735  0.8779 -0.4677
10720SOL    HW233060   6.049   4.428   4.697  0.7359 -0.9331 -0.0525
10721SOL     OW33061   0.153   2.302   5.218  0.1396 -0.3044 -0.2742
10721SOL    HW133062   0.117   2.361   5.289 -0.4253 -0.9543 -0.0029
10721SOL    HW233063   0.213   2.354   5.157  0.4339  0.3062  0.5326
10722SOL     OW33064   1.333   3.027   1.569  0.7604 -0.1939  0.2923
10722SOL    HW133065   1.237   3.029   1.598  0.8095 -4.0418  1.2193
10722SOL    HW233066   1.343   3.079   1.484 -1.5569  2.3895  1.4459
10723SOL     OW33067   5.494   3.349   6.534  0.7338 -0.0956  0.4221
10723SOL    HW133068   5.566   3.331   6.467  1.0410 -0.8503  0.9429
10723SOL    HW233069   5.488   3.272   6.598 -0.9073 -0.3082  0.0586
10724SOL     OW33070   4.181   0.741   6.661  0.2290  0.4067  0.0515
10724SOL    HW133071   4.147   0.650   6.638  0.2875  0.0473  1.3552
10724SOL    HW233072   4.274   0.751   6.625  0.0153  0.1756 -0.5899
10725SOL     OW33073   6.804   4.295   2.951  1.1538  0.2111  0.1359
10725SOL    HW133074   6.781   4.262   2.860  0.1840  0.7678  0.1693
10725SOL    HW233075   6.885   4.246   2.985  1.1933 -0.3841 -0.7885
10726SOL     OW33076   4.773   6.752   4.624  0.3125  0.4927 -0.3253
10726SOL    HW133077   4.692   6.700   4.596  1.3755 -0.8517 -0.9927
10726SOL    HW233078   4.850   6.690   4.636  1.6319  1.9090 -1.1632
10727SOL     OW33079   6.738   6.417   3.649 -0.0905  0.4289  0.4530
10727SOL    HW133080   6.680   6.443   3.726 -1.1759 -1.0737  0.1919
10727SOL    HW233081   6.693   6.343   3.598  0.2899  1.8071 -1.9967
10728SOL     OW33082   6.942   5.876   3.660 -0.3941 -0.1875  0.3190
10728SOL    HW133083   6.978   5.924   3.579  1.0116  1.1330  1.6580
10728SOL    HW233084   7.009   5.809   3.691 -1.5120 -1.6633 -0.3693
10729SOL     OW33085   0.103   1.353   2.282 -0.5187  0.5299  0.5413
10729SOL    HW133086   0.120   1.297   2.201  2.2066  1.2934  0.4722
10729SOL    HW233087   0.005   1.358   2.301 -1.1436 -0.4077 -2.1619
10730SOL     OW33088   2.986   0.191   2.864  0.2184 -0.2626 -0.0197
10730SOL    HW133089   3.073   0.174   2.910  1.4420 -0.9031 -2.4155
10730SOL    HW233090   2.956   0.285   2.882  0.7055 -0.4355  1.8748
10731SOL     OW33091   2.227   5.226   0.477 -0.0760  0.1234 -0.3809
10731SOL    HW133092   2.323   5.253   0.482 -0.0493  0.2201 -1.2277
10731SOL    HW233093   2.190   5.253   0.388 -0.9196  0.1959 -0.0151
10732SOL     OW33094   5.490   0.733   2.619 -0.3196  0.0480  0.6130
10732SOL    HW133095   5.569   0.674   2.637 -0.5129  0.0020  1.3384
10732SOL    HW233096   5.478   0.796   2.696 -0.7663  0.3081  0.3315
10733SOL     OW33097   4.754   3.350   5.643  0.3671  0.2796 -0.2762
10733SOL    HW133098   4.676   3.410   5.658  0.3276  0.5172 -1.3550
10733SOL    HW233099   4.830   3.403   5.607  1.4588  0.2779  1.8657
10734SOL     OW33100   0.970   6.985   5.645  0.3004  0.3380 -0.0304
10734SOL    HW133101   1.054   7.006   5.694  0.1210  1.9336 -0.3576
10734SOL    HW233102   0.988   6.914   5.576  1.1285 -0.0471  0.5654
10735SOL     OW33103   6.660   4.836   2.976 -0.3978  0.5328  0.1402
10735SOL    HW133104   6.694   4.845   2.883 -3.2797 -1.3932 -1.2625
10735SOL    HW233105   6.562   4.858   2.977 -0.6533 -0.4511  2.5133
10736SOL     OW33106   0.314   0.521   3.974  0.5842  0.1770  0.2613
10736SOL    HW133107   0.349   0.490   4.062 -2.0278  1.8472  2.0276
10736SOL    HW233108   0.366   0.602   3.944  1.7348 -0.6286  0.0042
10737SOL     OW33109   1.749   2.697   6.899 -0.5401 -0.0494 -0.4707
10737SOL    HW133110   1.747   2.721   6.996 -0.1938 -0.2401 -0.4144
10737SOL    HW233111   1.705   2.769   6.846 -0.4567  0.2034 -0.2011
10738SOL     OW33112   2.447   1.203   1.357  0.3636  1.2017  0.0018
10738SOL    HW133113   2.513   1.140   1.399 -1.2230 -0.7408 -0.2778
10738SOL    HW233114   2.457   1.199   1.257  0.4568  1.6467 -0.0096
10739SOL     OW33115   0.548   4.028   1.377  0.1109  0.0652 -0.2469
10739SOL    HW133116   0.561   3.961   1.305 -1.3948 -0.8288  0.2586
10739SOL    HW233117   0.624   4.023   1.442 -1.1701 -3.1042  1.2255
10740SOL     OW33118   1.291   5.374   6.071  0.5798 -0.1927 -0.0056
10740SOL    HW133119   1.277   5.470   6.046  2.0873 -0.6283 -3.0867
10740SOL    HW233120   1.217   5.318   6.035 -0.8511 -0.1764  2.6809
10741SOL     OW33121   1.538   6.134   3.180  0.5998  0.1797 -0.6590
10741SOL    HW133122   1.555   6.058   3.243 -0.0698 -1.1158 -1.9605
10741SOL    HW233123   1.624   6.183   3.163  1.8298 -2.2550 -2.1738
10742SOL     OW33124   5.075   0.928   0.210 -0.3610  0.7585  0.0070
10742SOL    HW133125   5.064   0.996   0.282 -1.8700  0.4271  0.1229
10742SOL    HW233126   5.008   0.945   0.138  0.7081  0.6992 -1.0172
10743SOL     OW33127   2.956   1.594   3.886  0.1297  0.2849 -0.0591
10743SOL    HW133128   2.885   1.557   3.826  0.6784  1.0706 -1.2306
10743SOL    HW233129   2.992   1.521   3.944 -0.8904 -0.3475 -0.1973
10744SOL     OW33130   2.389   2.253   2.512 -0.0263  0.0748  0.5011
10744SOL    HW133131   2.445   2.293   2.439  0.1367 -0.0828  0.5415
10744SOL    HW233132   2.301   2.225   2.474 -0.8090  1.9954  0.7903
10745SOL     OW33133   2.547   4.647   5.692 -0.3383 -0.5144  0.5147
10745SOL    HW133134   2.488   4.605   5.623 -1.0695 -1.2177  1.5527
10745SOL    HW233135   2.511   4.738   5.715  0.0022 -0.2029 -0.1157
10746SOL     OW33136   2.262   5.907   0.333  0.6057 -0.0214 -0.6205
10746SOL    HW133137   2.290   5.975   0.400 -0.8162  0.6947 -0.7250
10746SOL    HW233138   2.341   5.850   0.309  1.7421  1.3323 -0.2504
10747SOL     OW33139   3.787   0.252   2.433 -0.4801 -0.4937 -0.3480
10747SOL    HW133140   3.847   0.332   2.422  0.8164 -1.0661  2.0088
10747SOL    HW233141   3.692   0.281   2.422 -0.1890  1.8000  2.1127
10748SOL     OW33142   4.214   5.565   0.899 -0.1700  0.0447 -0.1418
10748SOL    HW133143   4.227   5.541   0.996  0.3187  1.3143  0.1235
10748SOL    HW233144   4.126   5.528   0.868 -0.0465 -0.9384  0.5907
10749SOL     OW33145   5.687   4.026   2.201 -0.2137 -0.1330  0.2926
10749SOL    HW133146   5.735   3.938   2.204  0.7724  0.4033  0.4630
10749SOL    HW233147   5.602   4.019   2.253  0.0742 -0.8501  0.6834
10750SOL     OW33148   5.700   3.574   6.782  0.3890 -0.4990  0.9541
10750SOL    HW133149   5.680   3.636   6.858  1.2901  0.8493  0.1249
10750SOL    HW233150   5.624   3.576   6.716 -0.1566 -1.2732  1.5407
10751SOL     OW33151   6.992   4.128   4.200 -0.3831 -0.5186  0.1568
10751SOL    HW133152   6.940   4.098   4.279 -2.0282  2.0594  0.1605
10751SOL    HW233153   6.932   4.135   4.120  0.3893  0.5051 -0.3676
10752SOL     OW33154   6.467   4.322   5.242 -0.2914  0.4666 -0.1594
10752SOL    HW133155   6.403   4.367   5.180 -0.1235 -0.9854 -1.4373
10752SOL    HW233156   6.445   4.225   5.250  1.9386 -0.1910 -0.9949
10753SOL     OW33157   0.444   0.364   5.233  0.2498  0.0323 -0.0228
10753SOL    HW133158   0.402   0.301   5.168  2.6945 -1.6279 -0.1177
10753SOL    HW233159   0.539   0.339   5.248  0.9947  2.9823  0.9475
10754SOL     OW33160   1.269   1.248   2.868 -0.3060  0.0969  0.3400
10754SOL    HW133161   1.279   1.154   2.835 -0.5923 -0.7861  2.6182
10754SOL    HW233162   1.201   1.295   2.811 -0.8221 -1.3446 -0.3013
10755SOL     OW33163   6.853   1.506   0.346  0.0454 -0.5458  0.4741
10755SOL    HW133164   6.911   1.543   0.418  2.2514 -1.6261 -0.6341
10755SOL    HW233165   6.855   1.406   0.350  0.6486 -0.6496 -1.3478
10756SOL     OW33166   0.420   2.889   6.807 -0.3254 -0.2921 -0.3634
10756SOL    HW133167   0.408   2.867   6.904 -0.8447 -1.3594 -0.6495
10756SOL    HW233168   0.501   2.842   6.772 -0.7592 -0.8127 -0.6944
10757SOL     OW33169   0.935   3.961   2.673 -0.0327  0.0753  0.4010
10757SOL    HW133170   0.910   3.870   2.638  1.3207 -0.2099  0.1137
10757SOL    HW233171   0.983   3.950   2.760 -3.2040  0.7668  2.3571
10758SOL     OW33172   6.876   4.688   4.026  0.6765  0.0923  0.0580
10758SOL    HW133173   6.791   4.699   3.974  0.1958 -0.6644  0.6491
10758SOL    HW233174   6.928   4.773   4.025 -0.8512  1.0875  0.9995
10759SOL     OW33175   2.214   2.671   6.606  0.6199 -0.2796 -0.5470
10759SOL    HW133176   2.133   2.713   6.565  0.5972 -0.3954 -0.6207
10759SOL    HW233177   2.219   2.697   6.703  0.6939  0.0221 -0.6320
10760SOL     OW33178   2.553   6.079   0.176 -0.0338 -0.0740 -0.5954
10760SOL    HW133179   2.468   6.127   0.155 -0.6937 -1.0789 -0.2782
10760SOL    HW233180   2.535   6.005   0.240  1.3032  0.4841  0.4783
10761SOL     OW33181   6.976   4.205   6.614 -0.5123 -0.1541 -0.4230
10761SOL    HW133182   6.949   4.114   6.581 -0.6810 -0.2147 -0.1267
10761SOL    HW233183   7.069   4.225   6.584  0.6799 -1.6633  1.8979
10762SOL     OW33184   3.843   1.097   6.149  0.6580 -0.3190 -0.1524
10762SOL    HW133185   3.782   1.124   6.224 -1.9255 -3.6873 -0.7765
10762SOL    HW233186   3.847   1.170   6.081 -3.8050 -0.2157 -0.6204
10763SOL     OW33187   5.153   0.637   1.250 -0.2950 -0.2770  0.1475
10763SOL    HW133188   5.217   0.582   1.304  0.4943 -0.4592 -0.9562
10763SOL    HW233189   5.082   0.578   1.212  0.2401 -0.4580 -0.5846
10764SOL     OW33190   4.534   2.025   5.859 -0.0686  0.2556  0.0106
10764SOL    HW133191   4.615   2.003   5.804  0.3122  3.4061 -0.9312
10764SOL    HW233192   4.467   1.952   5.851  2.0623 -1.7647 -0.4085
10765SOL     OW33193   6.160   1.485   3.018  0.4113 -0.5305 -0.2303
10765SOL    HW133194   6.146   1.418   3.090  0.6696 -0.0604  0.2608
10765SOL    HW233195   6.090   1.473   2.947 -2.2645  1.4479  1.9016
10766SOL     OW33196   2.934   3.710   1.040  0.4605  0.0317 -0.8126
10766SOL    HW133197   2.950   3.666   0.951  0.6032 -0.2813 -0.6325
10766SOL    HW233198   3.008   3.687   1.103  1.4869  1.9671 -1.2414
10767SOL     OW33199   1.678   5.965   0.476  0.2020  0.6891  0.2391
10767SOL    HW133200   1.709   5.911   0.398  0.3479 -0.0081  0.7663
10767SOL    HW233201   1.619   6.039   0.445  0.5776  0.6542 -0.5657
10768SOL     OW33202   4.850   6.226   6.262 -0.2417  0.3571  0.2137
10768SOL    HW133203   4.797   6.189   6.186 -0.2874  1.0688 -0.1048
10768SOL    HW233204   4.810   6.195   6.348  0.1451 -0.9199 -0.0416
10769SOL     OW33205   2.518   4.851   4.570  0.7004 -0.0471 -0.2280
10769SOL    HW133206   2.599   4.804   4.606 -0.9050 -1.0083  2.3691
10769SOL    HW233207   2.458   4.876   4.645 -0.6546  2.2104 -1.9513
10770SOL     OW33208   5.407   1.587   4.993 -0.0050 -0.3067  0.4113
10770SOL    HW133209   5.438   1.493   4.977 -0.0284 -0.1594 -0.6092
10770SOL    HW233210   5.428   1.615   5.086  2.4685 -0.3803 -0.0776
10771SOL     OW33211   4.632   6.442   6.332  0.4353 -0.3840 -0.4074
10771SOL    HW133212   4.622   6.343   6.333  2.4878 -0.6274  0.8927
10771SOL    HW233213   4.548   6.485   6.366 -0.9542 -1.5708 -2.1988
10772SOL     OW33214   1.159   0.089   3.207 -0.3626  0.0935  0.0188
10772SOL    HW133215   1.186   0.181   3.178  2.9046 -0.6480  0.2847
10772SOL    HW233216   1.095   0.095   3.284  1.3750  2.2413  1.4180
10773SOL     OW33217   7.009   4.714   0.413  0.0086  0.0086 -0.4116
10773SOL    HW133218   7.074   4.758   0.474 -1.4934  1.5553  0.1372
10773SOL    HW233219   7.017   4.614   0.422  1.8689  0.1524  0.0362
10774SOL     OW33220   1.903   1.338   1.709 -0.1959  0.1871 -0.3286
10774SOL    HW133221   1.956   1.274   1.765 -0.9352  0.9828  1.3831
10774SOL    HW233222   1.901   1.427   1.755 -2.7772  0.2402 -0.4157
10775SOL     OW33223   1.794   2.694   1.013 -0.4220 -0.1853 -0.2437
10775SOL    HW133224   1.765   2.688   1.109  1.6203  1.6844  0.6117
10775SOL    HW233225   1.781   2.606   0.968 -0.7047 -1.3705  1.9922
10776SOL     OW33226   1.157   0.303   5.416 -0.0264 -0.3950 -0.2754
10776SOL    HW133227   1.242   0.350   5.396 -0.1165  0.5534  1.3212
10776SOL    HW233228   1.099   0.363   5.472 -0.3307 -2.2135  1.4839
10777SOL     OW33229   3.128   6.430   2.530 -0.4252 -0.1281 -0.6102
10777SOL    HW133230   3.038   6.428   2.572  0.2808 -1.6317  0.9640
10777SOL    HW233231   3.196   6.454   2.599  0.4304  0.7389 -1.7121
10778SOL     OW33232   5.467   6.848   3.450 -0.0893  0.6220 -0.0695
10778SOL    HW133233   5.464   6.945   3.473 -1.2643  1.5026 -3.3905
10778SOL    HW233234   5.501   6.836   3.357  0.3383 -2.2292  0.3378
10779SOL     OW33235   4.981   4.209   2.964  0.3677 -0.3805  0.7495
10779SOL    HW133236   5.020   4.207   2.872 -1.9507  2.0210 -0.4431
10779SOL    HW233237   4.892   4.164   2.964 -0.1802  0.6394  1.4814
10780SOL     OW33238   5.013   4.069   4.047 -0.1264  0.0761 -0.1470
10780SOL    HW133239   5.092   4.081   3.987  0.9136  1.1521  1.3531
10780SOL    HW233240   5.043   4.067   4.142 -1.8123 -0.6423  0.4182
10781SOL     OW33241   6.908   1.697   3.476  0.0909  0.4082 -0.2463
10781SOL    HW133242   6.837   1.662   3.537  0.1418  0.1383 -0.3379
10781SOL    HW233243   6.975   1.624   3.458 -0.3667  0.2206 -1.2864
10782SOL     OW33244   0.181   3.949   5.751 -0.2909  0.0023  0.4285
10782SOL    HW133245   0.197   3.969   5.848  2.5313  1.9767 -0.3430
10782SOL    HW233246   0.211   4.026   5.695 -1.6953 -1.1537 -2.0888
10783SOL     OW33247   1.875   2.961   1.919  0.4144 -0.0790 -0.0631
10783SOL    HW133248   1.871   2.862   1.905 -1.6750  0.2004 -1.8561
10783SOL    HW233249   1.934   3.002   1.849 -0.5586  0.1591 -0.7505
10784SOL     OW33250   4.126   6.911   3.735  0.2127  0.4543  0.0695
10784SOL    HW133251   4.226   6.914   3.736  0.3270 -0.4082 -2.3652
10784SOL    HW233252   4.095   6.817   3.722 -0.8564  0.8465 -0.3770
10785SOL     OW33253   3.212   5.746   1.375  0.7371  0.6123  0.6913
10785SOL    HW133254   3.238   5.788   1.462  2.5505 -0.8795  0.9258
10785SOL    HW233255   3.275   5.776   1.303 -1.4628  2.8243 -0.5026
10786SOL     OW33256   4.769   1.042   2.785 -0.1341  0.7932 -0.5890
10786SOL    HW133257   4.771   1.033   2.885  0.2609  0.3915 -0.6342
10786SOL    HW233258   4.862   1.045   2.749 -0.1782  3.7740 -0.7077
10787SOL     OW33259   1.383   1.748   4.348  0.1522 -0.4669  0.0358
10787SOL    HW133260   1.442   1.817   4.307 -2.7942  2.5063  0.3345
10787SOL    HW233261   1.392   1.750   4.448 -0.7130  0.3685  0.1177
10788SOL     OW33262   3.535   3.655   0.809 -0.3084 -0.4527  0.7126
10788SOL    HW133263   3.635   3.667   0.813 -0.1565 -1.0688 -0.8098
10788SOL    HW233264   3.493   3.742   0.783 -0.0351 -0.5498 -0.0914
10789SOL     OW33265   4.654   0.737   6.239 -0.0493  0.1476  0.4202
10789SOL    HW133266   4.574   0.685   6.270 -0.4663 -0.2859 -1.2728
10789SOL    HW233267   4.623   0.815   6.185  0.6578  0.8030  0.9376
10790SOL     OW33268   0.195   0.003   4.205  0.0455 -0.0017  0.1107
10790SOL    HW133269   0.106   0.049   4.196  0.4743  1.1310  1.3510
10790SOL    HW233270   0.253   0.026   4.127 -0.1390  0.6702  0.1678
10791SOL     OW33271   2.131   0.225   6.145  0.1882 -0.4697  0.2136
10791SOL    HW133272   2.174   0.146   6.102  1.0988  0.2887 -0.2919
10791SOL    HW233273   2.031   0.217   6.137  0.2760 -1.4282 -0.0615
10792SOL     OW33274   3.956   2.253   1.790  0.5803 -0.4553  0.5404
10792SOL    HW133275   3.870   2.269   1.839  1.8273  2.1488  2.1115
10792SOL    HW233276   3.936   2.217   1.699 -2.1731  0.1283  0.8248
10793SOL     OW33277   5.065   1.495   4.926 -0.5820 -0.5659 -0.1997
10793SOL    HW133278   5.138   1.509   4.860  0.4930  1.8770  1.3641
10793SOL    HW233279   5.008   1.577   4.931 -0.0394 -0.2611  2.5047
10794SOL     OW33280   5.423   3.771   2.264  0.3494 -0.4637  0.1898
10794SOL    HW133281   5.450   3.702   2.332 -1.6462 -0.2357  1.2769
10794SOL    HW233282   5.426   3.862   2.305 -0.2872 -0.2511 -0.2216
10795SOL     OW33283   5.309   5.282   2.667 -0.0123 -0.1592 -0.2771
10795SOL    HW133284   5.311   5.184   2.644  1.1912 -0.2277  0.0961
10795SOL    HW233285   5.383   5.303   2.730 -0.8695  0.8128  0.4388
10796SOL     OW33286   4.255   6.709   5.775  0.6428 -0.2973  0.5410
10796SOL    HW133287   4.260   6.805   5.748  0.0076  0.3139  2.4727
10796SOL    HW233288   4.204   6.658   5.705  0.8780  0.7710 -0.4436
10797SOL     OW33289   3.976   0.965   0.271  0.1658  0.4590  0.3707
10797SOL    HW133290   4.023   0.922   0.194  0.4427  0.3502  0.5984
10797SOL    HW233291   3.945   1.056   0.245  3.1463  1.8071  1.1083
10798SOL     OW33292   0.806   4.948   6.320 -0.2534 -0.7017 -0.4502
10798SOL    HW133293   0.753   4.954   6.235  0.1655 -0.7491 -0.7191
10798SOL    HW233294   0.864   4.866   6.317 -0.9681 -1.2459  0.3025
10799SOL     OW33295   3.573   2.023   3.168 -0.1191 -0.5378  0.0399
10799SOL    HW133296   3.626   1.939   3.176  0.1719 -0.2086  2.2236
10799SOL    HW233297   3.628   2.094   3.124 -0.4980 -1.5301 -2.1779
10800SOL     OW33298   2.536   5.802   0.295 -0.4558  0.1180  0.6428
10800SOL    HW133299   2.548   5.797   0.394  0.4708 -1.4828  0.4806
10800SOL    HW233300   2.625   5.793   0.250 -0.7111  1.9042 -0.3502
10801SOL     OW33301   1.579   6.318   2.619 -0.0423  0.5431  0.5409
10801SOL    HW133302   1.501   6.276   2.572  0.5398  0.6009 -0.5149
10801SOL    HW233303   1.599   6.406   2.577  1.6317 -0.2060 -0.3435
10802SOL     OW33304   1.167   1.573   4.567 -0.2570 -0.3476 -0.6673
10802SOL    HW133305   1.073   1.592   4.594 -1.2489 -2.6853 -2.1878
10802SOL    HW233306   1.175   1.578   4.467  0.9276 -1.3824 -0.6521
10803SOL     OW33307   4.887   4.850   5.029 -0.1171 -0.5321 -0.0124
10803SOL    HW133308   4.853   4.827   5.120 -2.3937 -0.1610 -0.7184
10803SOL    HW233309   4.883   4.949   5.016  1.4597 -0.4501 -0.0770
10804SOL     OW33310   5.463   5.197   0.801  0.1835  0.2288 -0.0783
10804SOL    HW133311   5.551   5.213   0.847 -0.3732 -0.1633  1.1750
10804SOL    HW233312   5.454   5.100   0.779 -0.0781  0.2060  0.1225
10805SOL     OW33313   2.628   6.911   6.837  0.3248 -0.0716  0.1232
10805SOL    HW133314   2.654   6.999   6.877  0.1838  0.2466 -0.4637
10805SOL    HW233315   2.674   6.837   6.886  0.6072  0.3422  0.4934
10806SOL     OW33316   6.260   3.937   0.039 -0.0344 -0.7099  0.6782
10806SOL    HW133317   6.268   4.018   0.097 -1.2422 -0.5857  0.7091
10806SOL    HW233318   6.202   3.870   0.084 -1.5356 -0.3556 -0.6269
10807SOL     OW33319   3.581   6.458   1.598  0.0116 -0.5104  0.1854
10807SOL    HW133320   3.620   6.425   1.683 -0.4877 -2.3219 -0.2308
10807SOL    HW233321   3.485   6.482   1.612  0.1433 -0.0630  0.3081
10808SOL     OW33322   1.534   6.030   6.247 -0.3689  0.3351  0.0494
10808SOL    HW133323   1.439   6.018   6.275 -0.2606  2.8174  1.8607
10808SOL    HW233324   1.594   5.986   6.314 -0.2042  0.0313 -0.2936
10809SOL     OW33325   1.993   2.729   5.607 -0.2751 -0.0091 -0.6881
10809SOL    HW133326   2.053   2.649   5.597 -1.8208 -1.4571  0.9010
10809SOL    HW233327   2.048   2.812   5.604  1.4030 -1.1011 -2.3877
10810SOL     OW33328   0.943   1.892   0.503  0.3492 -0.4270 -0.1099
10810SOL    HW133329   1.014   1.921   0.568 -0.8193  2.3395  0.0752
10810SOL    HW233330   0.890   1.818   0.542  0.8680 -0.0845  1.3003
10811SOL     OW33331   3.525   5.728   5.377  0.0489 -0.4539  0.0589
10811SOL    HW133332   3.521   5.763   5.471 -3.6414  1.4863 -0.6171
10811SOL    HW233333   3.548   5.631   5.379 -0.1954 -0.5516  3.0124
10812SOL     OW33334   2.212   2.893   2.459  0.1700  0.0279  0.1830
10812SOL    HW133335   2.264   2.939   2.531 -0.1565  0.6805  0.0130
10812SOL    HW233336   2.164   2.815   2.497  1.3883 -0.6902  0.3157
10813SOL     OW33337   1.704   6.848   0.851  0.5398 -0.4252 -0.5871
10813SOL    HW133338   1.794   6.861   0.810  0.3989 -0.2119 -0.8333
10813SOL    HW233339   1.713   6.794   0.935  1.1668  1.3100  0.5219
10814SOL     OW33340   2.037   6.739   4.177 -0.0738 -0.0448 -0.4943
10814SOL    HW133341   2.106   6.775   4.240  0.0713 -0.5864 -0.3370
10814SOL    HW233342   2.072   6.656   4.133 -1.0060 -0.9454  0.3937
10815SOL     OW33343   4.722   4.461   3.500 -0.3200 -0.1596 -0.2657
10815SOL    HW133344   4.721   4.394   3.575  1.3323  0.3088  0.2271
10815SOL    HW233345   4.774   4.425   3.423  1.5356  0.9190  0.4195
10816SOL     OW33346   0.939   0.242   0.404  0.1344  0.3680 -0.5763
10816SOL    HW133347   0.969   0.300   0.481 -0.6962  1.1299 -0.8079
10816SOL    HW233348   0.844   0.215   0.418  0.3860 -0.5874 -0.6952
10817SOL     OW33349   6.723   1.753   4.050  0.2915  1.2894 -0.2121
10817SOL    HW133350   6.818   1.764   4.021  0.1224 -1.6745 -2.3820
10817SOL    HW233351   6.721   1.728   4.147  1.8131  0.5882 -0.3204
10818SOL     OW33352   1.599   6.895   0.151  0.0183 -0.4039  0.7754
10818SOL    HW133353   1.546   6.959   0.207 -0.6159  0.8457 -1.1754
10818SOL    HW233354   1.614   6.810   0.203 -0.1847  0.8118  2.9577
10819SOL     OW33355   0.567   3.951   0.829 -0.2047 -0.0441  0.4199
10819SOL    HW133356   0.502   4.016   0.789 -1.6556 -0.9037  1.3189
10819SOL    HW233357   0.530   3.915   0.914  1.5133 -0.4973  1.0079
10820SOL     OW33358   1.663   6.920   4.319  0.5183  0.7353 -0.0888
10820SOL    HW133359   1.719   6.837   4.316  1.0094  1.0819 -1.5064
10820SOL    HW233360   1.618   6.927   4.408  0.3001 -1.1578  0.0019
10821SOL     OW33361   5.725   0.073   1.141 -0.6656 -1.0740 -0.1731
10821SOL    HW133362   5.662   0.126   1.198  0.2204  1.0429 -1.0501
10821SOL    HW233363   5.813   0.067   1.186  0.4578  1.7724 -1.7366
10822SOL     OW33364   1.448   3.855   3.431  0.1269 -0.2239 -0.4097
10822SOL    HW133365   1.437   3.918   3.354  1.9317  1.0820  0.3249
10822SOL    HW233366   1.448   3.761   3.397  0.3699  0.2932 -1.9372
10823SOL     OW33367   1.385   6.307   1.708  0.2187 -0.2005 -0.2063
10823SOL    HW133368   1.391   6.399   1.668  0.5460 -0.6061 -1.1122
10823SOL    HW233369   1.296   6.267   1.686  0.7224 -0.7554 -1.2737
10824SOL     OW33370   4.915   2.393   2.803 -0.1019  0.3479 -0.0428
10824SOL    HW133371   4.940   2.303   2.767 -1.1203  0.2128 -0.4614
10824SOL    HW233372   4.849   2.382   2.878 -1.7567  0.7727 -1.3736
10825SOL     OW33373   2.163   0.418   1.840  0.2175  0.0904 -0.4442
10825SOL    HW133374   2.211   0.388   1.758  2.2519 -0.4707  0.8677
10825SOL    HW233375   2.086   0.477   1.815  0.0870 -0.9693 -2.7650
10826SOL     OW33376   6.812   2.543   4.722 -0.5315  0.1853  0.7995
10826SOL    HW133377   6.745   2.504   4.785 -0.1112  0.2300  1.2814
10826SOL    HW233378   6.836   2.475   4.652 -0.0615 -0.3124  1.4315
10827SOL     OW33379   5.524   2.203   4.254 -0.6304 -0.3850 -0.4946
10827SOL    HW133380   5.472   2.257   4.188 -1.1855  1.6811  1.5106
10827SOL    HW233381   5.463   2.166   4.323  0.2614  0.1940  0.6431
10828SOL     OW33382   6.371   6.704   1.629  0.0870 -0.3020 -0.4487
10828SOL    HW133383   6.440   6.701   1.701  1.0734  1.5426 -1.2642
10828SOL    HW233384   6.340   6.798   1.616 -2.8208 -1.1027  0.0523
10829SOL     OW33385   3.524   3.317   0.386  0.1183 -0.7068 -0.6073
10829SOL    HW133386   3.477   3.352   0.305 -0.2881 -1.5313 -0.7357
10829SOL    HW233387   3.620   3.298   0.364  0.3229  0.2317 -0.5578
10830SOL     OW33388   6.661   3.727   4.861  0.0479 -0.0908 -0.4674
10830SOL    HW133389   6.641   3.813   4.813  1.5796 -0.9377 -2.7466
10830SOL    HW233390   6.592   3.659   4.837 -0.8536  0.2929  0.9134
10831SOL     OW33391   4.903   1.100   2.271  0.0125  0.7195  0.2850
10831SOL    HW133392   4.820   1.060   2.310 -0.3286  0.7233 -0.4306
10831SOL    HW233393   4.976   1.031   2.271 -0.2772  0.4095  0.0086
10832SOL     OW33394   0.419   3.094   2.419 -0.6661 -0.2377 -0.1764
10832SOL    HW133395   0.424   3.097   2.519 -1.7582 -0.0249 -0.1135
10832SOL    HW233396   0.510   3.078   2.382  0.5941  3.8300  0.6700
10833SOL     OW33397   2.554   6.638   5.429  0.3544 -0.3782 -0.1218
10833SOL    HW133398   2.639   6.648   5.481  1.4946 -0.2013 -1.9001
10833SOL    HW233399   2.501   6.722   5.435  1.0430  0.0728 -0.1633
10834SOL     OW33400   1.671   0.794   6.240 -0.1009  0.3812  0.3617
10834SOL    HW133401   1.691   0.747   6.327  0.1666  2.7340  1.6544
10834SOL    HW233402   1.731   0.758   6.169  1.7229  0.3576  1.8314
10835SOL     OW33403   6.104   3.260   1.670  0.0114  0.0509 -0.2331
10835SOL    HW133404   6.102   3.342   1.614 -0.2738 -0.8028 -1.5027
10835SOL    HW233405   6.018   3.211   1.662 -0.5131  0.4939  1.9122
10836SOL     OW33406   0.964   2.796   5.347 -0.0845  0.7255  0.1640
10836SOL    HW133407   0.872   2.801   5.385  0.3189  2.2387  1.0118
10836SOL    HW233408   0.977   2.707   5.303 -2.6174  1.1620 -1.7028
10837SOL     OW33409   5.905   5.151   0.441 -0.5694 -0.1989  0.2069
10837SOL    HW133410   5.809   5.156   0.466 -0.6531  0.2249 -0.1835
10837SOL    HW233411   5.953   5.231   0.477 -0.3188 -0.5038  0.5649
10838SOL     OW33412   5.501   0.634   6.432  0.1245  0.1813  0.2487
10838SOL    HW133413   5.473   0.538   6.432 -0.5286  0.3623 -0.3066
10838SOL    HW233414   5.444   0.686   6.495  0.8189  0.1193  0.9415
10839SOL     OW33415   2.540   1.046   1.052  0.0168  0.1264  0.1113
10839SOL    HW133416   2.616   1.093   1.097 -1.3074  1.0881  1.4265
10839SOL    HW233417   2.531   0.954   1.091 -1.4263  1.1205  2.2794
10840SOL     OW33418   4.025   5.842   0.110  0.2878 -0.2718 -0.3277
10840SOL    HW133419   4.060   5.871   0.199  0.9191 -0.0884 -0.6268
10840SOL    HW233420   3.962   5.766   0.122 -0.6292  0.5705  0.3907
10841SOL     OW33421   4.104   5.597   5.072  0.9178 -0.6009 -0.8142
10841SOL    HW133422   4.008   5.571   5.078  0.3724  1.5920  1.0489
10841SOL    HW233423   4.161   5.520   5.100 -0.2779 -1.6785 -1.2042
10842SOL     OW33424   6.078   2.627   2.391  0.5495  0.4989 -0.2277
10842SOL    HW133425   6.125   2.710   2.421  0.9882  0.5715 -1.1131
10842SOL    HW233426   6.121   2.547   2.434  1.4389  0.5693 -0.9779
10843SOL     OW33427   2.188   2.400   2.807 -0.3965  0.2296  0.5024
10843SOL    HW133428   2.278   2.433   2.779 -0.4924  1.1930  1.2654
10843SOL    HW233429   2.155   2.333   2.741  0.7140  0.1441  0.0109
10844SOL     OW33430   6.909   4.584   2.962 -0.0711 -0.3398 -0.5497
10844SOL    HW133431   6.880   4.647   3.034 -1.4209 -0.6993 -0.7552
10844SOL    HW233432   6.843   4.509   2.955  0.3672 -0.6266 -1.7601
10845SOL     OW33433   3.481   1.296   2.153 -0.0605 -0.1194 -0.1230
10845SOL    HW133434   3.472   1.263   2.059 -0.1381  0.0381 -0.1700
10845SOL    HW233435   3.486   1.396   2.154  0.3567 -0.1369  0.0057
10846SOL     OW33436   4.080   2.257   3.094 -0.0970 -0.0266  0.0253
10846SOL    HW133437   3.986   2.262   3.060  0.6440  1.9564 -1.9794
10846SOL    HW233438   4.139   2.214   3.024  1.0561  1.9339 -0.2793
10847SOL     OW33439   1.828   2.060   5.703 -0.3787  0.3094  0.6710
10847SOL    HW133440   1.874   2.148   5.693 -0.5251  0.3384  0.2347
10847SOL    HW233441   1.783   2.055   5.792 -0.1728  0.5806  0.7905
10848SOL     OW33442   2.966   1.312   6.469 -0.3485 -0.8659 -0.2317
10848SOL    HW133443   2.936   1.366   6.548  0.1884 -1.2255  0.2302
10848SOL    HW233444   3.005   1.225   6.501  0.0528 -0.9339 -0.8797
10849SOL     OW33445   4.877   5.112   5.018 -0.0247 -0.0047  0.2288
10849SOL    HW133446   4.916   5.197   5.055 -0.4107  0.6365 -0.7786
10849SOL    HW233447   4.808   5.135   4.950 -0.4265 -1.1446  0.2348
10850SOL     OW33448   3.894   0.022   6.396 -0.6487  0.5316 -0.0634
10850SOL    HW133449   3.814  -0.031   6.370 -0.5069 -0.1729  0.8795
10850SOL    HW233450   3.867   0.116   6.418 -1.3335  0.1229  0.8945
10851SOL     OW33451   2.227   0.977   0.321 -0.6907 -0.1756 -0.7914
10851SOL    HW133452   2.226   0.910   0.395 -1.9134 -0.5808 -1.1578
10851SOL    HW233453   2.198   0.933   0.236 -1.9695  0.9099 -0.9521
10852SOL     OW33454   0.929   1.259   0.047 -0.1226  0.0473 -0.3232
10852SOL    HW133455   0.963   1.250   0.141 -1.8782 -1.1402  0.2462
10852SOL    HW233456   0.920   1.356   0.025 -1.0633  0.3689  1.2885
10853SOL     OW33457   4.292   0.677   4.669  0.1778  0.0390 -0.7071
10853SOL    HW133458   4.276   0.696   4.572 -0.2728 -0.4750 -0.7434
10853SOL    HW233459   4.253   0.588   4.692 -0.2163  0.3972  0.0720
10854SOL     OW33460   5.156   1.263   6.820 -0.0789  0.4238 -0.1846
10854SOL    HW133461   5.192   1.324   6.891  0.3217  0.5664 -0.5029
10854SOL    HW233462   5.231   1.206   6.785 -0.6082 -0.8459  0.6926
10855SOL     OW33463   2.874   5.322   1.704 -0.0901  0.3847 -0.3414
10855SOL    HW133464   2.931   5.240   1.714 -0.5341 -0.1939 -2.1741
10855SOL    HW233465   2.916   5.383   1.636  0.6918  2.1414  1.6003
10856SOL     OW33466   6.333   0.254   1.452 -0.3468  0.9341 -0.0144
10856SOL    HW133467   6.431   0.269   1.445 -0.1420 -0.9667 -2.9154
10856SOL    HW233468   6.314   0.156   1.457 -2.1138  1.2565  0.2793
10857SOL     OW33469   5.888   2.873   1.710 -0.4561 -0.2013  0.3905
10857SOL    HW133470   5.883   2.776   1.737 -0.9019 -0.0980  0.6847
10857SOL    HW233471   5.979   2.892   1.672 -0.6756 -0.9600 -0.5372
10858SOL     OW33472   1.976   0.801   5.511  0.1014  0.0280 -0.1263
10858SOL    HW133473   1.987   0.833   5.417 -0.7334  1.4475  0.2307
10858SOL    HW233474   1.898   0.740   5.517  0.4891 -0.5029 -0.4504
10859SOL     OW33475   1.623   3.922   2.637  0.1773  0.2356  0.1539
10859SOL    HW133476   1.621   3.870   2.722  0.1406 -1.1788 -0.6788
10859SOL    HW233477   1.537   3.910   2.588  0.6090  0.1288 -0.6007
10860SOL     OW33478   5.471   2.361   6.240 -0.2438 -0.3952  0.1546
10860SOL    HW133479   5.430   2.336   6.151  0.8616  1.1938 -0.8419
10860SOL    HW233480   5.535   2.290   6.267  0.7662 -0.0587 -1.2481
10861SOL     OW33481   2.518   2.318   1.276 -0.5663  0.2489  0.1204
10861SOL    HW133482   2.554   2.229   1.247 -0.5158  0.4949 -0.6033
10861SOL    HW233483   2.572   2.391   1.234 -1.1586  0.6184 -0.0161
10862SOL     OW33484   2.747   2.267   6.614 -0.3347  0.4696 -0.0302
10862SOL    HW133485   2.768   2.359   6.650 -0.2549  0.5954 -0.3953
10862SOL    HW233486   2.652   2.245   6.633  0.3231 -0.5260  2.5763
10863SOL     OW33487   3.819   1.597   2.535 -0.4717  0.3923 -0.3765
10863SOL    HW133488   3.797   1.549   2.620  0.5291  0.6622  0.0461
10863SOL    HW233489   3.847   1.530   2.465  3.5134  0.3696  0.9680
10864SOL     OW33490   3.117   5.410   1.931 -0.4623 -0.6505 -0.1242
10864SOL    HW133491   3.030   5.452   1.905 -1.4622 -2.4192  0.2068
10864SOL    HW233492   3.165   5.380   1.848 -1.3137 -1.8095 -0.2209
10865SOL     OW33493   5.023   4.809   3.688  0.0569  0.0441  0.0736
10865SOL    HW133494   4.951   4.833   3.752  0.1417  4.1694 -1.0865
10865SOL    HW233495   5.112   4.824   3.732  0.1128  2.7022 -0.7616
10866SOL     OW33496   0.560   2.980   1.732  0.8466  0.4804  0.2446
10866SOL    HW133497   0.470   2.943   1.754  0.3591  1.3737 -0.1852
10866SOL    HW233498   0.630   2.931   1.784  0.2997 -1.4192 -0.7255
10867SOL     OW33499   4.827   1.254   0.684  0.3250  0.5855 -0.4814
10867SOL    HW133500   4.901   1.198   0.720  0.0253  0.5582  0.0982
10867SOL    HW233501   4.786   1.208   0.605 -0.4146 -0.3818  0.4495
10868SOL     OW33502   2.363   1.764   2.884 -0.4229 -0.5797 -0.2903
10868SOL    HW133503   2.429   1.690   2.894 -1.3374 -1.6464 -1.7178
10868SOL    HW233504   2.279   1.741   2.932 -0.3442  0.0351  0.1550
10869NA      NA33505   0.110   2.996   6.504  0.3922  0.5682 -0.0307
10870NA      NA33506   4.100   4.277   5.495 -0.2598 -0.1741  0.1965
10871NA      NA33507   1.049   5.043   2.738  0.0189 -0.1623 -0.1968
10872NA      NA33508   4.359   4.879   4.511 -0.0998  0.1168  0.0739
10873NA      NA33509   4.185   2.287   5.228  0.0329  0.3345  0.3501
10874NA      NA33510   2.872   4.155   1.028  0.3488  0.0190  0.2857
10875NA      NA33511   2.048   5.773   0.210  0.3665 -0.0910 -0.4442
10876NA      NA33512   3.951   3.236   6.629  0.3614  0.0712  0.0284
10877NA      NA33513   4.461   4.005   1.703 -0.4785 -0.4087  0.3345
10878NA      NA33514   3.746   2.030   5.703  0.3567  0.0096  0.2639
10879NA      NA33515   4.702   6.582   2.768  0.1676  0.0335 -0.0805
10880NA      NA33516   0.457   0.602   6.550  0.1601  0.0299 -0.2159
10881NA      NA33517   3.880   4.971   1.725  0.0237 -0.2731 -0.1785
10882NA      NA33518   4.681   2.502   0.653  0.0277 -0.2081 -0.0850
   7.02387   7.02387   7.02387
