CNT in water
33518
    1C        C    1   2.842   2.766   4.746  0.1791  0.2393  0.0078
    1C        C    2   2.897   2.717   4.867 -0.0247  0.4248  0.1748
    1C        C    3   2.836   2.763   4.984  0.1938 -0.0192  0.4646
    1C        C    4   2.851   2.771   4.259 -0.1625  0.0300  0.4902
    1C        C    5   2.902   2.721   4.381  0.2699  0.0021  0.3000
    1C        C    6   2.847   2.770   4.502  0.1861  0.0924  0.2251
    1C        C    7   3.011   2.636   4.621 -0.0114 -0.3688  0.0607
    1C        C    8   2.898   2.720   4.624  0.1593 -0.1427  0.1413
    1C        C    9   3.072   2.597   4.742 -0.4522 -0.4346  0.2646
    1C        C   10   3.007   2.629   4.863  0.0379  0.5007  0.2878
    1C        C   11   3.172   2.489   4.974 -0.0227 -0.0328 -0.1018
    1C        C   12   3.051   2.558   4.976  0.0692  0.1247  0.0406
    1C        C   13   2.852   2.774   3.770  0.5392  0.9635  0.2488
    1C        C   14   2.900   2.721   3.892  0.6804  0.8975  0.1634
    1C        C   15   2.854   2.775   4.014  0.6489  0.7962  0.1954
    1C        C   16   3.020   2.645   4.138 -0.4457 -0.0800  0.1766
    1C        C   17   2.904   2.725   4.136 -0.0588  0.4910  0.3610
    1C        C   18   3.083   2.609   4.259 -0.3174 -0.3217  0.0423
    1C        C   19   3.018   2.641   4.380  0.0443 -0.3245  0.2388
    1C        C   20   3.210   2.550   4.503  0.3719  0.0125  0.2310
    1C        C   21   3.080   2.605   4.502  0.4139  0.1143  0.1808
    1C        C   22   3.275   2.527   4.626  0.1666  0.5303  0.4437
    1C        C   23   3.204   2.544   4.746 -0.1377  0.3348  0.2942
    1C        C   24   3.408   2.481   4.866  0.1043 -0.1988 -0.2688
    1C        C   25   3.266   2.500   4.866  0.1249 -0.0351  0.0259
    1C        C   26   3.486   2.477   4.982 -0.2804  0.4112  0.0181
    1C        C   27   2.850   2.765   3.284  0.3666  0.2329  0.0634
    1C        C   28   2.903   2.720   3.407  0.2827  0.4563  0.1797
    1C        C   29   2.852   2.771   3.529  0.7316  0.7406  0.2532
    1C        C   30   3.017   2.637   3.650  0.2266  0.3264  0.1555
    1C        C   31   2.905   2.722   3.650  0.5813  0.7955  0.3399
    1C        C   32   3.078   2.602   3.772  0.3634  0.3173  0.0875
    1C        C   33   3.014   2.638   3.893  0.4221  0.5397  0.0552
    1C        C   34   3.205   2.546   4.017 -0.1408  0.0572  0.1095
    1C        C   35   3.077   2.604   4.015 -0.0224  0.3348  0.2293
    1C        C   36   3.276   2.519   4.137  0.0288  0.0572  0.0152
    1C        C   37   3.209   2.547   4.258 -0.2769 -0.2449 -0.0773
    1C        C   38   3.416   2.504   4.382 -0.1918  0.2412  0.1498
    1C        C   39   3.277   2.528   4.381 -0.3018 -0.3723 -0.0786
    1C        C   40   3.485   2.495   4.505  0.2156  0.6755 -0.0348
    1C        C   41   3.414   2.499   4.626  0.0640 -0.0379 -0.0855
    1C        C   42   3.627   2.490   4.747  0.2877  0.6205  0.5450
    1C        C   43   3.485   2.478   4.746  0.3085  0.3602 -0.1558
    1C        C   44   3.702   2.493   4.867  0.1169  0.1144  0.6701
    1C        C   45   3.625   2.481   4.984 -0.2921  0.7031  0.4654
    1C        C   46   2.842   2.756   2.794  0.1122 -0.2271  0.1471
    1C        C   47   2.892   2.707   2.917  0.6186  0.2033  0.1147
    1C        C   48   2.846   2.763   3.038  0.3121  0.2588 -0.0281
    1C        C   49   3.013   2.635   3.159  0.6217  0.7360 -0.0069
    1C        C   50   2.900   2.719   3.161  0.4384  0.4919 -0.0018
    1C        C   51   3.075   2.602   3.282  0.5152  1.0770  0.1401
    1C        C   52   3.015   2.634   3.405  0.4114  0.6224  0.2118
    1C        C   53   3.203   2.538   3.528  0.0635 -0.2974  0.0828
    1C        C   54   3.073   2.593   3.528  0.3719  0.4500  0.1756
    1C        C   55   3.273   2.524   3.650  0.0380 -1.1282  0.0100
    1C        C   56   3.208   2.547   3.773  0.2403  0.0079 -0.0816
    1C        C   57   3.414   2.502   3.892 -0.3202 -0.9264  0.4575
    1C        C   58   3.275   2.527   3.896 -0.2600 -0.4962  0.1184
    1C        C   59   3.484   2.495   4.015  0.1436  0.3456  0.2832
    1C        C   60   3.416   2.505   4.138  0.0762  0.4682  0.2456
    1C        C   61   3.629   2.500   4.258  0.0127 -0.6514 -0.0962
    1C        C   62   3.487   2.497   4.260 -0.0062 -0.0740  0.2695
    1C        C   63   3.699   2.507   4.380  0.3378 -0.5250 -0.2801
    1C        C   64   3.626   2.497   4.501  0.2200  0.4611 -0.2521
    1C        C   65   3.829   2.550   4.624 -0.2508 -0.3260  0.0595
    1C        C   66   3.695   2.505   4.624 -0.3396 -0.0662  0.1041
    1C        C   67   3.898   2.576   4.744  0.1085 -0.3923 -0.1314
    1C        C   68   3.837   2.533   4.863  0.0538  0.2877  0.0918
    1C        C   69   4.050   2.583   4.975  0.0832 -0.0352  0.0645
    1C        C   70   3.915   2.544   4.979  0.1101 -0.1254  0.0985
    1C        C   71   2.826   2.736   2.309  0.1822 -0.3075  0.0118
    1C        C   72   2.883   2.695   2.431 -0.1225  0.3450  0.3762
    1C        C   73   2.835   2.749   2.553  0.1596  0.5076  0.4198
    1C        C   74   3.011   2.625   2.671  0.1110 -0.3016  0.0518
    1C        C   75   2.896   2.707   2.673  0.1750 -0.2100  0.1675
    1C        C   76   3.069   2.590   2.795  0.2050 -0.5318 -0.0542
    1C        C   77   3.009   2.628   2.918  0.3908 -0.1402 -0.0821
    1C        C   78   3.203   2.538   3.039  0.2331  0.0412  0.1823
    1C        C   79   3.071   2.590   3.039  0.2217  0.0197  0.0563
    1C        C   80   3.273   2.525   3.161  0.5337 -0.2694 -0.0176
    1C        C   81   3.204   2.545   3.283  0.2704  0.4974 -0.2808
    1C        C   82   3.410   2.499   3.404 -0.2920 -0.4322  0.6046
    1C        C   83   3.270   2.517   3.405 -0.2759 -0.1725 -0.1292
    1C        C   84   3.482   2.495   3.525  0.2988 -0.6995  0.2536
    1C        C   85   3.412   2.499   3.647  0.0859 -0.9231  0.1478
    1C        C   86   3.624   2.505   3.770 -0.2762 -0.2405 -0.3396
    1C        C   87   3.483   2.498   3.769 -0.3165  0.1411  0.4072
    1C        C   88   3.695   2.513   3.892  0.1075 -0.3951 -0.5399
    1C        C   89   3.625   2.503   4.014  0.1829 -0.1758 -0.4649
    1C        C   90   3.832   2.552   4.134  0.0214 -1.1005 -0.0295
    1C        C   91   3.697   2.512   4.135 -0.2003 -0.4123 -0.2054
    1C        C   92   3.896   2.582   4.257  0.2729 -0.3366 -0.3329
    1C        C   93   3.830   2.560   4.379  0.0838  0.1294 -0.3399
    1C        C   94   4.024   2.637   4.498 -0.1945 -0.7558  0.1390
    1C        C   95   3.895   2.580   4.503 -0.1666 -0.8432 -0.0323
    1C        C   96   4.085   2.681   4.618 -0.0560  0.0108 -0.2027
    1C        C   97   4.024   2.643   4.740 -0.2017  0.1913 -0.2169
    1C        C   98   4.192   2.763   4.862 -0.4287 -0.0456  0.1512
    1C        C   99   4.097   2.656   4.861 -0.1210 -0.3218 -0.2052
    1C        C  100   4.218   2.843   4.974 -0.0397  0.1198 -0.0530
    1C        C  101   2.826   2.732   2.070 -0.2614 -0.2068 -0.4190
    1C        C  102   2.993   2.594   2.188 -0.1444  0.1365  0.1287
    1C        C  103   2.878   2.679   2.189 -0.2565 -0.0031 -0.3283
    1C        C  104   3.067   2.580   2.308 -0.3678 -0.4221  0.2100
    1C        C  105   3.001   2.618   2.427  0.1344  0.7400  0.1422
    1C        C  106   3.201   2.539   2.551  0.0503 -0.2527 -0.3404
    1C        C  107   3.068   2.586   2.548  0.1287  0.0008 -0.0393
    1C        C  108   3.270   2.525   2.673 -0.0954 -0.4773 -0.2787
    1C        C  109   3.201   2.542   2.796  0.2643 -0.3768 -0.0858
    1C        C  110   3.410   2.499   2.915 -0.0906 -1.0711  0.2903
    1C        C  111   3.270   2.519   2.917  0.0198 -0.1883  0.0955
    1C        C  112   3.480   2.500   3.038  0.1245 -1.2866  0.1771
    1C        C  113   3.411   2.498   3.161  0.2720 -1.7240  0.2591
    1C        C  114   3.623   2.502   3.282 -0.2199 -0.5214  0.1830
    1C        C  115   3.482   2.494   3.283 -0.2352 -0.3564  0.6271
    1C        C  116   3.693   2.513   3.404  0.1786 -0.4670 -0.0399
    1C        C  117   3.623   2.502   3.526  0.3343 -1.1424  0.0044
    1C        C  118   3.831   2.547   3.648  0.1950  0.0561  0.0620
    1C        C  119   3.693   2.515   3.648  0.3421 -0.6308 -0.0392
    1C        C  120   3.897   2.575   3.769  0.0979 -0.2014  0.1896
    1C        C  121   3.830   2.556   3.892  0.2164 -0.6793  0.1958
    1C        C  122   4.024   2.645   4.011 -0.1624  0.4000  0.6421
    1C        C  123   3.900   2.578   4.013  0.0682 -0.0691  0.1915
    1C        C  124   4.080   2.687   4.133  0.1447  0.5020  0.4757
    1C        C  125   4.022   2.647   4.255  0.1096  0.0188  0.3118
    1C        C  126   4.192   2.771   4.374 -0.4440  0.4914  0.4176
    1C        C  127   4.084   2.681   4.378 -0.3257  0.3422  0.4523
    1C        C  128   4.245   2.818   4.496  0.0880  0.1175  0.3398
    1C        C  129   4.193   2.772   4.619 -0.3598  0.3753  0.2489
    1C        C  130   4.331   2.930   4.738  0.5300 -0.6725 -0.4334
    1C        C  131   4.247   2.816   4.742  0.3002 -0.4895  0.2767
    1C        C  132   4.369   2.995   4.858 -0.0607 -0.3670 -0.4075
    1C        C  133   4.295   2.959   4.972  0.3409 -0.1302 -0.0671
    1C        C  134   3.177   2.477   2.080 -0.1703 -0.3424 -0.1101
    1C        C  135   3.041   2.511   2.082 -0.0838 -0.0035  0.2645
    1C        C  136   3.262   2.482   2.191 -0.2906 -0.3443 -0.0151
    1C        C  137   3.201   2.531   2.309 -0.2146 -0.0273 -0.1016
    1C        C  138   3.408   2.488   2.429  0.2094 -0.4543 -0.6073
    1C        C  139   3.269   2.511   2.431  0.3407  0.3859 -0.3354
    1C        C  140   3.479   2.486   2.551 -0.4843  0.0646 -0.1848
    1C        C  141   3.408   2.496   2.673 -0.0748 -0.4117  0.1055
    1C        C  142   3.622   2.492   2.792 -0.2179 -0.3147  0.0257
    1C        C  143   3.481   2.487   2.794 -0.2116 -0.6985  0.1745
    1C        C  144   3.692   2.505   2.914  0.1164 -1.1553 -0.0595
    1C        C  145   3.621   2.506   3.036  0.1125 -0.8610 -0.0546
    1C        C  146   3.830   2.535   3.156 -0.2777 -0.4183 -0.5118
    1C        C  147   3.691   2.509   3.158 -0.2488 -0.5736  0.1544
    1C        C  148   3.898   2.560   3.277 -0.1850 -0.1544 -0.6080
    1C        C  149   3.831   2.543   3.401  0.0940 -0.0663 -0.4343
    1C        C  150   4.022   2.629   3.522 -0.0916 -0.4785  0.5728
    1C        C  151   3.894   2.570   3.524 -0.1733 -0.3646 -0.2192
    1C        C  152   4.085   2.668   3.643  0.4415 -0.1413  0.2068
    1C        C  153   4.026   2.634   3.767  0.1950 -0.3971  0.0317
    1C        C  154   4.193   2.766   3.883 -0.2261 -0.5799 -0.2258
    1C        C  155   4.087   2.672   3.888 -0.3812 -0.3909  0.3350
    1C        C  156   4.244   2.815   4.005 -0.3415  0.0427 -0.4162
    1C        C  157   4.193   2.771   4.129  0.1222  0.5186 -0.0477
    1C        C  158   4.338   2.924   4.251 -0.1555  0.0023 -0.3542
    1C        C  159   4.244   2.819   4.252 -0.5715  0.3679  0.3080
    1C        C  160   4.370   2.988   4.373 -1.1891  0.2702 -0.2153
    1C        C  161   4.328   2.932   4.496 -0.8785  0.8351  0.1531
    1C        C  162   4.444   3.111   4.615 -0.6174  0.8168  0.1532
    1C        C  163   4.376   2.987   4.617  0.4339  0.2204 -0.0617
    1C        C  164   4.473   3.178   4.736 -0.3221  0.3877  0.3243
    1C        C  165   4.448   3.112   4.858 -0.2588 -0.2289  0.0114
    1C        C  166   4.523   3.314   4.970 -0.0984 -0.3239 -0.2674
    1C        C  167   4.489   3.180   4.973 -0.0226 -0.3397 -0.0051
    1C        C  168   3.477   2.440   2.074 -0.2263 -0.0132 -0.4190
    1C        C  169   3.401   2.457   2.190 -0.2466 -0.1088 -0.4153
    1C        C  170   3.620   2.477   2.306  0.1609  0.8953 -0.3461
    1C        C  171   3.478   2.469   2.308  0.1897  0.1223 -0.7156
    1C        C  172   3.691   2.492   2.427 -0.3220 -0.3724  0.1183
    1C        C  173   3.621   2.485   2.549 -0.4789 -0.4706  0.0278
    1C        C  174   3.828   2.536   2.667 -0.4062  0.1071 -0.3363
    1C        C  175   3.692   2.499   2.670 -0.4201  0.1618 -0.0707
    1C        C  176   3.895   2.560   2.789 -0.5152 -0.0548 -0.2396
    1C        C  177   3.829   2.540   2.912 -0.1384 -0.0719 -0.0358
    1C        C  178   4.022   2.627   3.035 -0.1384  0.5775 -0.1637
    1C        C  179   3.897   2.562   3.034  0.1320  0.0394 -0.1982
    1C        C  180   4.083   2.667   3.156 -0.4967  0.4266  0.0734
    1C        C  181   4.021   2.629   3.277 -0.0488 -0.3739  0.0626
    1C        C  182   4.189   2.757   3.397 -1.0215  0.3043  0.0523
    1C        C  183   4.084   2.663   3.399 -0.8083  0.0597  0.3457
    1C        C  184   4.243   2.807   3.517 -0.4424  0.0260 -0.0826
    1C        C  185   4.191   2.760   3.640 -0.1515  0.5653  0.2555
    1C        C  186   4.340   2.917   3.763 -0.2953  0.6583  0.3315
    1C        C  187   4.245   2.812   3.760  0.4197  0.0023  0.2524
    1C        C  188   4.380   2.974   3.886  0.1717  0.4205  0.2993
    1C        C  189   4.340   2.919   4.009 -0.1505 -0.1415 -0.0502
    1C        C  190   4.454   3.102   4.129  0.2310  0.0463 -0.0550
    1C        C  191   4.384   2.979   4.129 -0.1440  0.2512 -0.2435
    1C        C  192   4.476   3.172   4.249 -0.1605 -0.0682  0.0869
    1C        C  193   4.438   3.112   4.371 -0.7509  0.0334 -0.0393
    1C        C  194   4.503   3.312   4.494 -0.4692  0.0609 -0.2207
    1C        C  195   4.473   3.175   4.492 -0.1899 -0.0013 -0.1787
    1C        C  196   4.522   3.385   4.614  0.0896 -0.4223 -0.0093
    1C        C  197   4.513   3.314   4.735  0.1466  0.2545  0.3956
    1C        C  198   4.554   3.532   4.852  1.0447  0.3438  0.5146
    1C        C  199   4.536   3.390   4.853  0.3869  0.4144  0.2502
    1C        C  200   4.593   3.618   4.960  0.3249  0.8121  0.4186
    1C        C  201   3.616   2.425   2.069 -0.2232 -0.0976 -0.1368
    1C        C  202   3.828   2.512   2.185  0.1140 -0.1294 -0.0633
    1C        C  203   3.691   2.467   2.183 -0.0062  0.2397 -0.3990
    1C        C  204   3.900   2.541   2.304 -0.3308  0.2224  0.1247
    1C        C  205   3.829   2.523   2.425 -0.5024  0.4787  0.0651
    1C        C  206   4.022   2.620   2.546 -0.3527  0.9434  0.1051
    1C        C  207   3.894   2.559   2.544 -0.2737  0.7784 -0.1472
    1C        C  208   4.084   2.657   2.667  0.0529 -0.3445  0.3008
    1C        C  209   4.018   2.629   2.789 -0.2811 -0.4573  0.0983
    1C        C  210   4.195   2.745   2.907 -0.2997  0.7127  0.0623
    1C        C  211   4.079   2.665   2.911 -0.2867  0.6724 -0.2086
    1C        C  212   4.247   2.795   3.028 -0.2416  0.2421  0.2369
    1C        C  213   4.197   2.750   3.152 -0.0721 -0.1453  0.1682
    1C        C  214   4.338   2.907   3.272 -0.1035 -0.2309  0.0342
    1C        C  215   4.246   2.800   3.275 -0.3796  0.0030  0.2351
    1C        C  216   4.380   2.965   3.393 -0.4945  0.0998  0.0201
    1C        C  217   4.338   2.911   3.517 -0.7558  0.3201  0.0352
    1C        C  218   4.438   3.099   3.638 -0.8091  0.2500 -0.2919
    1C        C  219   4.379   2.970   3.639 -0.3226  0.0242  0.0421
    1C        C  220   4.463   3.166   3.759 -0.2453  0.0492 -0.2908
    1C        C  221   4.443   3.101   3.883  0.4310  0.2890 -0.0449
    1C        C  222   4.503   3.304   4.001 -0.1150  0.2928  0.1354
    1C        C  223   4.474   3.166   4.004  0.3402  0.1911  0.0343
    1C        C  224   4.517   3.375   4.123  0.2497 -0.0297  0.2844
    1C        C  225   4.506   3.310   4.248  0.1187 -0.1277  0.2225
    1C        C  226   4.512   3.522   4.364 -0.6755  0.3749 -0.0877
    1C        C  227   4.508   3.381   4.370 -0.4366  0.3688 -0.0518
    1C        C  228   4.508   3.593   4.486 -0.4378 -0.3973  0.3854
    1C        C  229   4.528   3.526   4.608  0.1791 -0.4122  0.2787
    1C        C  230   4.494   3.735   4.725  0.1096 -0.1080 -0.1930
    1C        C  231   4.537   3.599   4.728 -0.7039 -0.3675  0.3277
    1C        C  232   4.494   3.814   4.842  0.0709 -0.0804 -0.2081
    1C        C  233   4.550   3.751   4.954 -0.2355  0.6333  0.3524
    1C        C  234   4.018   2.608   2.063  0.2245 -0.0945 -0.1555
    1C        C  235   3.893   2.548   2.066  0.0492  0.2781  0.0255
    1C        C  236   4.086   2.645   2.180 -0.3271  0.1852  0.0823
    1C        C  237   4.025   2.609   2.301 -0.4785  0.4975  0.1022
    1C        C  238   4.196   2.737   2.421 -0.3995  0.4993 -0.2195
    1C        C  239   4.085   2.649   2.423 -0.0769  0.0919  0.0419
    1C        C  240   4.247   2.790   2.541 -0.3996  0.2178 -0.0929
    1C        C  241   4.195   2.744   2.664 -0.0571 -0.2132 -0.1093
    1C        C  242   4.336   2.903   2.784 -0.5071  0.3217 -0.2017
    1C        C  243   4.250   2.791   2.785 -0.2799  0.1463 -0.1465
    1C        C  244   4.380   2.959   2.905 -0.3905  0.4894 -0.3205
    1C        C  245   4.338   2.904   3.028 -0.6132  0.5601 -0.3631
    1C        C  246   4.445   3.089   3.149 -0.0162 -0.2885  0.2192
    1C        C  247   4.378   2.964   3.149 -0.9912  0.2220 -0.0618
    1C        C  248   4.465   3.158   3.271  0.0554  0.1241 -0.0251
    1C        C  249   4.443   3.091   3.393 -0.4723  0.0936 -0.1282
    1C        C  250   4.499   3.298   3.512 -0.1969  0.1676  0.4381
    1C        C  251   4.467   3.160   3.514 -0.2270  0.1603 -0.2077
    1C        C  252   4.519   3.370   3.632  0.0046  0.4548  0.2374
    1C        C  253   4.504   3.301   3.755  0.0098 -0.0163 -0.0220
    1C        C  254   4.516   3.511   3.877 -0.4984  0.1017 -0.2184
    1C        C  255   4.515   3.370   3.877 -0.7201  0.1049 -0.0240
    1C        C  256   4.515   3.584   3.997 -0.1325  0.0532 -0.1872
    1C        C  257   4.521   3.516   4.121 -0.2755 -0.0179 -0.2211
    1C        C  258   4.492   3.729   4.239 -0.4842 -0.0234 -0.0809
    1C        C  259   4.517   3.590   4.241 -0.1305  0.0407 -0.2544
    1C        C  260   4.474   3.801   4.359 -0.0826 -0.2969  0.1397
    1C        C  261   4.488   3.733   4.482  0.1972 -0.3136  0.0986
    1C        C  262   4.414   3.933   4.601  0.1174  0.0352 -0.1426
    1C        C  263   4.464   3.801   4.604 -0.2955 -0.1224 -0.1050
    1C        C  264   4.395   4.005   4.721 -0.3089 -0.0332 -0.1647
    1C        C  265   4.440   3.944   4.840 -0.0522 -0.1303 -0.3091
    1C        C  266   4.331   4.130   4.955  0.2675  0.4112 -0.0905
    1C        C  267   4.395   4.007   4.957 -0.0146  0.2546 -0.5010
    1C        C  268   4.260   2.776   2.063 -0.2929  0.2216  0.3736
    1C        C  269   4.197   2.733   2.181 -0.3598  0.2262  0.3393
    1C        C  270   4.346   2.891   2.298  0.6494  0.0783  0.1127
    1C        C  271   4.252   2.784   2.300 -0.0830  0.7103  0.0084
    1C        C  272   4.377   2.958   2.418  0.2526  0.3865  0.0430
    1C        C  273   4.339   2.898   2.540 -0.3239  0.1530 -0.2475
    1C        C  274   4.445   3.082   2.662  0.0550 -0.0612 -0.1023
    1C        C  275   4.381   2.956   2.661 -0.3929  0.1646 -0.2288
    1C        C  276   4.471   3.151   2.782  0.4863 -0.2490 -0.0861
    1C        C  277   4.441   3.087   2.904 -0.0749  0.3468  0.0967
    1C        C  278   4.504   3.289   3.026 -0.8089  0.2172  0.1273
    1C        C  279   4.469   3.152   3.026 -0.6352  0.1710  0.3266
    1C        C  280   4.512   3.363   3.146 -0.8133  0.5105 -0.0501
    1C        C  281   4.496   3.296   3.269  0.0549  0.1264 -0.1354
    1C        C  282   4.513   3.508   3.386  1.4622 -0.4571 -0.4460
    1C        C  283   4.509   3.367   3.390  0.5483 -0.4275  0.1465
    1C        C  284   4.508   3.579   3.509  0.5477 -0.0686 -0.6944
    1C        C  285   4.519   3.511   3.632  0.0008  0.4571 -0.3464
    1C        C  286   4.484   3.720   3.754  0.0379  0.2365 -0.1960
    1C        C  287   4.512   3.581   3.754 -0.3784  0.1532 -0.1919
    1C        C  288   4.469   3.789   3.876 -0.5195 -0.1566 -0.0433
    1C        C  289   4.497   3.724   3.998 -0.3585  0.0207  0.0089
    1C        C  290   4.426   3.930   4.112  0.4296  0.3185  0.1446
    1C        C  291   4.478   3.799   4.117  0.1155  0.1919 -0.0238
    1C        C  292   4.390   3.993   4.233 -0.0040 -0.3091  0.3406
    1C        C  293   4.417   3.930   4.357 -0.1623 -0.3298  0.3625
    1C        C  294   4.324   4.122   4.475  0.4608  0.6000 -0.1277
    1C        C  295   4.392   3.998   4.478 -0.1394  0.2727  0.0292
    1C        C  296   4.281   4.181   4.595  0.8930  0.7043 -0.0230
    1C        C  297   4.320   4.126   4.719 -0.4327 -0.1050  0.0519
    1C        C  298   4.194   4.305   4.838 -0.1870  0.1758 -0.7972
    1C        C  299   4.279   4.190   4.839  0.1879  0.4586 -0.0313
    1C        C  300   4.167   4.398   4.942  0.2948  0.0259 -0.5366
    1C        C  301   4.350   2.882   2.060 -0.0475 -0.0005 -0.1476
    1C        C  302   4.464   3.071   2.174 -0.3486  0.1958 -0.4037
    1C        C  303   4.396   2.945   2.176  0.0659 -0.0274 -0.1767
    1C        C  304   4.480   3.142   2.296 -0.2133  0.1061 -0.3681
    1C        C  305   4.447   3.081   2.419  0.4078  0.3002 -0.0971
    1C        C  306   4.516   3.283   2.539  0.4179  0.0914  0.2241
    1C        C  307   4.475   3.148   2.540  0.1050  0.1825  0.0406
    1C        C  308   4.519   3.357   2.659  0.0558  0.1917  0.1749
    1C        C  309   4.504   3.288   2.781 -0.2438 -0.0706 -0.0082
    1C        C  310   4.522   3.500   2.901  0.2083 -0.1115 -0.1225
    1C        C  311   4.512   3.359   2.903  0.0063 -0.0984 -0.0076
    1C        C  312   4.517   3.574   3.021  0.1782  0.1412 -0.2769
    1C        C  313   4.518   3.504   3.144 -0.5648  0.5030 -0.0607
    1C        C  314   4.491   3.719   3.266  0.6487  0.4725  0.3529
    1C        C  315   4.509   3.578   3.264 -0.0075  0.3894  0.0589
    1C        C  316   4.474   3.789   3.387 -0.0929  0.3456  0.3255
    1C        C  317   4.491   3.719   3.509  0.3484 -0.0888  0.0192
    1C        C  318   4.418   3.918   3.629  0.1338  0.2657 -0.0251
    1C        C  319   4.473   3.788   3.631  0.0449  0.2261 -0.2000
    1C        C  320   4.390   3.986   3.749  0.3192  0.1703  0.0689
    1C        C  321   4.424   3.923   3.871  0.1697  0.0785  0.0589
    1C        C  322   4.315   4.110   3.990  0.5339  0.2647 -0.0424
    1C        C  323   4.393   3.993   3.990  0.2398  0.0738  0.0746
    1C        C  324   4.278   4.173   4.111  0.4901  0.5015 -0.1819
    1C        C  325   4.319   4.114   4.233 -0.5041 -0.6027 -0.3635
    1C        C  326   4.184   4.282   4.354  0.5865  0.1818 -0.2481
    1C        C  327   4.278   4.177   4.353  0.3669 -0.0138 -0.3712
    1C        C  328   4.133   4.337   4.474 -0.2242  0.0495 -0.5256
    1C        C  329   4.188   4.287   4.595 -0.0990 -0.1540 -0.6656
    1C        C  330   4.026   4.433   4.712 -0.0296  0.3145 -0.0786
    1C        C  331   4.135   4.342   4.714 -0.4964 -0.2651 -0.7875
    1C        C  332   3.972   4.492   4.829  0.0403  0.0359  0.0976
    1C        C  333   4.052   4.478   4.943  0.1714 -0.1499 -0.0158
    1C        C  334   4.546   3.271   2.062 -0.0304  0.1241 -0.3309
    1C        C  335   4.529   3.132   2.061 -0.0106  0.1212 -0.2526
    1C        C  336   4.539   3.350   2.177 -0.6074 -0.2551 -0.1020
    1C        C  337   4.514   3.280   2.297  0.3590 -0.0296  0.2436
    1C        C  338   4.522   3.494   2.413 -0.1228  0.0252 -0.2219
    1C        C  339   4.527   3.353   2.417  0.3780  0.0484  0.1951
    1C        C  340   4.522   3.567   2.535 -0.0544  0.2975 -0.3828
    1C        C  341   4.526   3.498   2.658 -0.2230  0.2050 -0.4284
    1C        C  342   4.492   3.707   2.777  0.6564  0.0230 -0.0394
    1C        C  343   4.529   3.570   2.779 -0.1210 -0.1924 -0.1920
    1C        C  344   4.468   3.775   2.898  0.7909  0.0154 -0.0051
    1C        C  345   4.490   3.713   3.023 -0.1485  0.0745  0.2021
    1C        C  346   4.427   3.918   3.140  0.6114  0.2356 -0.4521
    1C        C  347   4.475   3.786   3.143  0.4388  0.1786  0.2161
    1C        C  348   4.393   3.980   3.263  0.2263 -0.4757 -0.1947
    1C        C  349   4.420   3.919   3.387  0.1776  0.4587  0.2795
    1C        C  350   4.320   4.109   3.504 -0.1684  0.4770  0.0885
    1C        C  351   4.386   3.984   3.508 -0.2173  0.4557  0.1724
    1C        C  352   4.273   4.165   3.624 -0.1274  0.2302  0.2165
    1C        C  353   4.312   4.103   3.745  0.3655  0.1960  0.0390
    1C        C  354   4.176   4.267   3.868  0.1743  0.0905 -0.1622
    1C        C  355   4.272   4.163   3.867  0.2307  0.1449  0.0154
    1C        C  356   4.124   4.317   3.989  0.0806 -0.0148 -0.1627
    1C        C  357   4.178   4.273   4.112  0.0927  0.1035 -0.1295
    1C        C  358   4.012   4.407   4.232  0.2844  0.1162 -0.2368
    1C        C  359   4.128   4.327   4.232  0.5225  0.4634 -0.1136
    1C        C  360   3.950   4.448   4.352  0.2066  0.2593 -0.3294
    1C        C  361   4.017   4.418   4.472 -0.1283  0.1969 -0.1567
    1C        C  362   3.829   4.521   4.593 -0.1249 -0.0562 -0.5160
    1C        C  363   3.958   4.463   4.592  0.0513  0.3300 -0.1192
    1C        C  364   3.760   4.545   4.714  0.4654 -0.1115 -0.1649
    1C        C  365   3.837   4.535   4.832  0.1785  0.4843  0.0809
    1C        C  366   3.630   4.594   4.950  0.3456  0.1931 -0.3408
    1C        C  367   3.766   4.566   4.948  0.1877 -0.6910  0.4223
    1C        C  368   4.522   3.563   2.053  0.0382  0.0437  0.0056
    1C        C  369   4.530   3.490   2.172 -0.0147 -0.2150 -0.1465
    1C        C  370   4.497   3.704   2.290  0.0650 -0.0326  0.0924
    1C        C  371   4.524   3.566   2.291  0.0816 -0.0348 -0.2547
    1C        C  372   4.477   3.774   2.411  0.1599  0.4227 -0.1518
    1C        C  373   4.496   3.705   2.533  0.5563  0.4198 -0.2124
    1C        C  374   4.426   3.907   2.653  0.7490  0.1222  0.2416
    1C        C  375   4.471   3.773   2.655  0.4765  0.0252 -0.0079
    1C        C  376   4.399   3.975   2.773  0.3596 -0.1660  0.3205
    1C        C  377   4.425   3.910   2.895  0.8378  0.0411  0.3310
    1C        C  378   4.323   4.098   3.014 -0.5176  0.2245 -0.1390
    1C        C  379   4.397   3.978   3.016  0.2047  0.6620 -0.1567
    1C        C  380   4.276   4.153   3.136 -0.0106 -0.2474  0.2780
    1C        C  381   4.315   4.097   3.259  0.2695 -0.4367  0.1074
    1C        C  382   4.173   4.258   3.378 -0.1723 -0.3463 -0.7286
    1C        C  383   4.274   4.159   3.380  0.5846  0.4221 -0.2177
    1C        C  384   4.123   4.313   3.498  0.3682  0.1490 -0.7292
    1C        C  385   4.175   4.267   3.621  0.0056  0.3365 -0.5078
    1C        C  386   4.007   4.391   3.745  0.2821 -0.0942 -0.0710
    1C        C  387   4.122   4.309   3.745  0.4958  0.2124 -0.2568
    1C        C  388   3.948   4.432   3.866  0.1987  0.1421 -0.1959
    1C        C  389   4.007   4.396   3.990  0.3830  0.4312 -0.2056
    1C        C  390   3.818   4.495   4.107 -0.0348 -0.2990 -0.2702
    1C        C  391   3.948   4.439   4.111 -0.0133 -0.2326 -0.1662
    1C        C  392   3.750   4.520   4.228 -0.0553 -0.4375 -0.2593
    1C        C  393   3.819   4.503   4.350  0.2323  0.3122 -0.3153
    1C        C  394   3.618   4.556   4.472 -0.2522 -0.6304 -0.0393
    1C        C  395   3.758   4.539   4.472 -0.1491  0.1691 -0.4656
    1C        C  396   3.548   4.562   4.594  0.1767 -0.8419  0.2159
    1C        C  397   3.621   4.566   4.715  0.4607 -0.1688  0.0267
    1C        C  398   3.411   4.550   4.841  0.1913 -0.4332 -0.1053
    1C        C  399   3.549   4.580   4.836  0.1498 -0.2495 -0.1482
    1C        C  400   3.345   4.506   4.956 -0.2363  0.4373 -0.0143
    1C        C  401   4.514   3.702   2.052  0.3214  0.0624  0.2426
    1C        C  402   4.443   3.909   2.166 -0.5354 -0.1333 -0.2364
    1C        C  403   4.489   3.775   2.168  0.2079  0.1258  0.1775
    1C        C  404   4.407   3.974   2.286  0.2927  0.4356 -0.2912
    1C        C  405   4.431   3.907   2.408 -0.2345  0.2832 -0.2713
    1C        C  406   4.325   4.091   2.528  0.6346 -0.0194  0.0012
    1C        C  407   4.400   3.971   2.530  0.2820 -0.2432  0.1421
    1C        C  408   4.275   4.147   2.648  0.4168  0.0292 -0.1112
    1C        C  409   4.319   4.092   2.770  0.6326  0.0116 -0.1960
    1C        C  410   4.174   4.247   2.890  0.3412  0.3460 -0.3071
    1C        C  411   4.272   4.146   2.892  0.2914  0.2943 -0.4515
    1C        C  412   4.117   4.291   3.012 -0.0144 -0.2833 -0.2436
    1C        C  413   4.171   4.248   3.134  0.1994 -0.0168 -0.2430
    1C        C  414   4.004   4.382   3.255 -0.2897  0.1773  0.2256
    1C        C  415   4.118   4.299   3.255 -0.5058 -0.1192 -0.5027
    1C        C  416   3.943   4.419   3.377 -0.0270 -0.1294  0.4485
    1C        C  417   4.002   4.386   3.501  0.5008  0.3383  0.3172
    1C        C  418   3.815   4.483   3.616  0.0880  0.3257 -0.1187
    1C        C  419   3.943   4.423   3.623 -0.1390 -0.1251  0.1467
    1C        C  420   3.750   4.508   3.739  0.0184 -0.0353 -0.0858
    1C        C  421   3.819   4.490   3.861  0.1033 -0.0753 -0.1448
    1C        C  422   3.613   4.532   3.985 -0.1731 -0.7394 -0.3453
    1C        C  423   3.752   4.512   3.983 -0.1193 -0.3389 -0.2241
    1C        C  424   3.543   4.544   4.107  0.2371 -0.7529 -0.1140
    1C        C  425   3.611   4.542   4.230 -0.0482 -0.4475  0.0432
    1C        C  426   3.401   4.546   4.355 -0.2299 -0.7239 -0.1394
    1C        C  427   3.542   4.546   4.354 -0.2349 -0.3385 -0.0705
    1C        C  428   3.334   4.541   4.480  0.2957 -0.5735  0.1465
    1C        C  429   3.407   4.552   4.600  0.1967 -1.0542  0.2498
    1C        C  430   3.195   4.519   4.721 -0.1776 -0.1279  0.0529
    1C        C  431   3.336   4.542   4.722 -0.1847 -0.1062  0.1114
    1C        C  432   3.128   4.487   4.842 -0.0596 -0.1119  0.1200
    1C        C  433   3.209   4.478   4.955 -0.1007 -0.2373  0.1373
    1C        C  434   4.380   4.115   2.052  0.4126  0.2523 -0.1156
    1C        C  435   4.442   3.990   2.052 -0.2103 -0.0621 -0.1883
    1C        C  436   4.303   4.161   2.163  0.3208  0.1931 -0.1548
    1C        C  437   4.329   4.093   2.285  0.1360  0.3335 -0.0365
    1C        C  438   4.185   4.249   2.403 -0.0259 -0.1278 -0.0813
    1C        C  439   4.287   4.151   2.406 -0.0795 -0.1757  0.1373
    1C        C  440   4.122   4.291   2.522  0.2573 -0.1273  0.0682
    1C        C  441   4.171   4.243   2.645  0.2149 -0.1839  0.0619
    1C        C  442   4.005   4.373   2.765 -0.2918 -0.3094  0.0303
    1C        C  443   4.122   4.294   2.767  0.3287  0.5839 -0.2114
    1C        C  444   3.939   4.407   2.885  0.0368  0.1800  0.0771
    1C        C  445   4.003   4.375   3.006  0.1989  0.0193 -0.0524
    1C        C  446   3.819   4.472   3.129  0.1484 -0.3477 -0.0547
    1C        C  447   3.948   4.415   3.130  0.4842  0.4217 -0.0583
    1C        C  448   3.747   4.493   3.249  0.1138 -0.2525 -0.0957
    1C        C  449   3.812   4.472   3.372  0.0251 -0.0506 -0.0170
    1C        C  450   3.608   4.528   3.494 -0.0555 -0.4466  0.0683
    1C        C  451   3.747   4.501   3.494  0.1467  0.5880 -0.1079
    1C        C  452   3.540   4.542   3.617 -0.4069 -0.2706 -0.1474
    1C        C  453   3.612   4.537   3.739  0.1705  0.6811 -0.4452
    1C        C  454   3.403   4.534   3.867  0.1659 -0.1347 -0.0303
    1C        C  455   3.543   4.543   3.862  0.1337  0.0987 -0.4422
    1C        C  456   3.332   4.524   3.988 -0.0160 -0.3175 -0.1568
    1C        C  457   3.402   4.541   4.110  0.2400 -0.7337 -0.2536
    1C        C  458   3.195   4.502   4.234  0.0585 -0.5118 -0.0516
    1C        C  459   3.332   4.536   4.232  0.1297 -0.8330 -0.3262
    1C        C  460   3.131   4.478   4.358 -0.3655  0.6474 -0.0443
    1C        C  461   3.197   4.507   4.479  0.0219  0.5159 -0.2298
    1C        C  462   3.001   4.429   4.600  0.4499 -0.4976 -0.0302
    1C        C  463   3.126   4.494   4.601  0.2030 -0.0266 -0.1836
    1C        C  464   2.931   4.401   4.720  0.2036 -0.1594 -0.0987
    1C        C  465   2.990   4.448   4.841 -0.1334  0.1601 -0.0594
    1C        C  466   2.802   4.338   4.956  0.0557  0.2968  0.0063
    1C        C  467   2.908   4.430   4.957  0.5125 -0.2305  0.3370
    1C        C  468   4.121   4.282   2.041 -0.1151  0.0284  0.0346
    1C        C  469   4.187   4.246   2.159  0.0564 -0.1643 -0.1194
    1C        C  470   4.013   4.372   2.280 -0.0261 -0.2506  0.1894
    1C        C  471   4.130   4.292   2.280 -0.0222 -0.2480 -0.1248
    1C        C  472   3.945   4.404   2.399 -0.0843  0.1247  0.0578
    1C        C  473   4.006   4.370   2.522 -0.0411 -0.5603 -0.1480
    1C        C  474   3.815   4.467   2.643 -0.1375 -0.6657  0.0943
    1C        C  475   3.943   4.408   2.643 -0.2047 -0.8068 -0.1563
    1C        C  476   3.747   4.495   2.763 -0.0175 -0.3166  0.0833
    1C        C  477   3.811   4.467   2.886  0.1458  0.4108  0.1674
    1C        C  478   3.608   4.515   3.008 -0.0775  0.1761 -0.0875
    1C        C  479   3.748   4.494   3.009 -0.1275 -0.1340  0.1502
    1C        C  480   3.535   4.522   3.128 -0.0001  0.6910 -0.0680
    1C        C  481   3.608   4.522   3.249  0.2199  0.2473 -0.2011
    1C        C  482   3.398   4.525   3.377  0.2480 -0.9577  0.1170
    1C        C  483   3.539   4.533   3.371  0.2265 -0.7636 -0.1017
    1C        C  484   3.330   4.526   3.501 -0.2570 -0.3112 -0.1590
    1C        C  485   3.399   4.539   3.623 -0.4007 -0.2759 -0.0845
    1C        C  486   3.193   4.495   3.742 -0.0634 -0.2846 -0.0231
    1C        C  487   3.330   4.528   3.746 -0.0274 -0.4693  0.1062
    1C        C  488   3.130   4.469   3.866  0.0747 -0.2102  0.0567
    1C        C  489   3.194   4.494   3.989 -0.1064  0.1160  0.0800
    1C        C  490   3.002   4.412   4.114 -0.3954  0.3332  0.0677
    1C        C  491   3.128   4.475   4.113 -0.2077 -0.0499 -0.0048
    1C        C  492   2.941   4.381   4.237 -0.0854 -0.1208  0.1041
    1C        C  493   3.000   4.425   4.358 -0.2210  0.2988  0.0103
    1C        C  494   2.823   4.309   4.480 -0.3009  0.4340  0.2495
    1C        C  495   2.937   4.391   4.480  0.0579 -0.0694  0.0444
    1C        C  496   2.767   4.263   4.602 -0.1695  0.3201  0.2633
    1C        C  497   2.814   4.321   4.721 -0.5572  0.9314  0.1218
    1C        C  498   2.668   4.163   4.844 -0.7908  0.7142 -0.0217
    1C        C  499   2.754   4.275   4.841  0.0914  0.0540  0.1239
    1C        C  500   2.599   4.116   4.956 -0.1657  0.3185  0.2033
    1C        C  501   4.000   4.351   2.042 -0.3171 -0.3188 -0.0915
    1C        C  502   3.818   4.465   2.159  0.3044  0.0383  0.0851
    1C        C  503   3.944   4.402   2.160  0.2528 -0.0631  0.0741
    1C        C  504   3.746   4.482   2.279  0.2945  0.2570  0.0480
    1C        C  505   3.815   4.461   2.400  0.1972  0.7723  0.1967
    1C        C  506   3.608   4.508   2.522 -0.1757 -0.4017 -0.0410
    1C        C  507   3.748   4.486   2.521 -0.1024  0.0568  0.1835
    1C        C  508   3.534   4.517   2.642 -0.2501  0.0622 -0.1241
    1C        C  509   3.607   4.516   2.763  0.0033 -0.1958 -0.2805
    1C        C  510   3.397   4.524   2.887  0.1109 -0.6787 -0.2340
    1C        C  511   3.538   4.525   2.885  0.1109 -0.1678 -0.2236
    1C        C  512   3.324   4.526   3.008  0.0177 -0.2139 -0.2949
    1C        C  513   3.394   4.531   3.131 -0.0304  0.2871 -0.2843
    1C        C  514   3.190   4.486   3.253  0.5217 -0.6340  0.6802
    1C        C  515   3.327   4.520   3.255  0.5192 -0.5784 -0.0565
    1C        C  516   3.124   4.466   3.376 -0.2494 -0.8793  0.2292
    1C        C  517   3.193   4.493   3.496 -0.2361 -0.4290  0.1195
    1C        C  518   3.005   4.400   3.622 -0.1030 -0.5666 -0.2037
    1C        C  519   3.127   4.470   3.619 -0.3855 -0.0655  0.1068
    1C        C  520   2.948   4.364   3.746  0.3712 -0.5788  0.0090
    1C        C  521   3.006   4.402   3.869  0.2199 -0.4674  0.0433
    1C        C  522   2.832   4.285   3.995 -0.0051 -0.0875  0.2174
    1C        C  523   2.944   4.371   3.992  0.0556 -0.1807  0.0290
    1C        C  524   2.783   4.236   4.119 -1.0150  0.7805  0.1647
    1C        C  525   2.831   4.292   4.239 -0.0679 -0.1355  0.2148
    1C        C  526   2.694   4.134   4.361 -0.4938  0.4797  0.5560
    1C        C  527   2.776   4.249   4.361 -0.1906  0.2635  0.2957
    1C        C  528   2.658   4.077   4.485 -0.8281  0.1978  0.3250
    1C        C  529   2.687   4.146   4.604 -0.1324  0.2941  0.1008
    1C        C  530   2.587   3.959   4.730  0.6059 -0.0283 -0.0008
    1C        C  531   2.646   4.088   4.726 -0.0491  0.2748  0.1156
    1C        C  532   2.551   3.896   4.852 -0.4499  0.3229 -0.1287
    1C        C  533   2.535   3.991   4.958  0.0295  0.2155  0.0438
    1C        C  534   3.616   4.550   2.041  0.0690  0.4416  0.4684
    1C        C  535   3.752   4.518   2.047  0.0441  0.3159  0.3687
    1C        C  536   3.534   4.527   2.156 -0.1744  0.0213  0.2147
    1C        C  537   3.605   4.502   2.277  0.3459  0.6364  0.0442
    1C        C  538   3.395   4.512   2.401  0.0041  0.0595 -0.1581
    1C        C  539   3.537   4.511   2.400  0.0086  0.5024 -0.1304
    1C        C  540   3.323   4.503   2.522 -0.1419  0.2360 -0.2321
    1C        C  541   3.393   4.511   2.645 -0.2295 -0.3837 -0.1430
    1C        C  542   3.185   4.478   2.765 -0.1266 -0.7349  0.0640
    1C        C  543   3.323   4.509   2.768 -0.1156 -0.7689 -0.0835
    1C        C  544   3.122   4.459   2.889  0.4260 -0.4756  0.3920
    1C        C  545   3.189   4.485   3.011  0.3050 -1.1314  0.6028
    1C        C  546   2.997   4.393   3.133  0.3199 -0.4673 -0.3376
    1C        C  547   3.122   4.460   3.133  0.2977 -0.3993  0.7546
    1C        C  548   2.937   4.362   3.257 -0.2711 -0.5548 -0.6420
    1C        C  549   2.997   4.403   3.377 -0.6034 -0.1963 -0.5970
    1C        C  550   2.831   4.275   3.507 -0.2983  0.0597  0.4690
    1C        C  551   2.940   4.365   3.501  0.1235 -0.4938 -0.3455
    1C        C  552   2.779   4.231   3.631 -0.1335 -0.3214  0.4036
    1C        C  553   2.837   4.276   3.752 -0.0360 -0.0516  0.2546
    1C        C  554   2.695   4.121   3.873  0.1105 -0.2033  0.3882
    1C        C  555   2.785   4.230   3.874 -0.0698 -0.0573  0.2338
    1C        C  556   2.653   4.069   3.998 -0.3113 -0.0336  0.3126
    1C        C  557   2.695   4.126   4.120  0.0457 -0.0723  0.2046
    1C        C  558   2.594   3.941   4.245 -0.1154  0.4683 -0.2927
    1C        C  559   2.652   4.070   4.242 -0.0149  0.4340  0.4112
    1C        C  560   2.565   3.880   4.368 -0.0503  0.4443 -0.2957
    1C        C  561   2.592   3.952   4.487 -0.4854  0.0137  0.0624
    1C        C  562   2.533   3.750   4.616 -0.2840 -0.0346  0.2239
    1C        C  563   2.564   3.888   4.610  0.3028 -0.1719  0.1447
    1C        C  564   2.519   3.678   4.736 -0.0488  0.2432  0.4147
    1C        C  565   2.526   3.755   4.856 -0.7098  0.3811  0.3677
    1C        C  566   2.526   3.544   4.978 -0.0837  0.1218 -0.4855
    1C        C  567   2.533   3.683   4.976  0.1042  0.1242  0.1678
    1C        C  568   3.326   4.474   2.039  0.2938 -0.3991 -0.1990
    1C        C  569   3.392   4.512   2.157 -0.1323 -0.3888  0.0415
    1C        C  570   3.184   4.477   2.280 -0.0629 -0.3565  0.0096
    1C        C  571   3.323   4.510   2.281 -0.2598  0.5050 -0.0088
    1C        C  572   3.115   4.458   2.401  0.1094 -0.7372  0.0507
    1C        C  573   3.186   4.471   2.522  0.0191 -0.4739  0.0772
    1C        C  574   2.987   4.401   2.646 -0.3586  0.0408 -0.0740
    1C        C  575   3.114   4.461   2.644 -0.0910 -0.5183  0.0112
    1C        C  576   2.932   4.359   2.769 -0.2915  0.2927  0.0474
    1C        C  577   2.998   4.391   2.889 -0.2004  0.6238 -0.0863
    1C        C  578   2.828   4.265   3.017  0.1785 -0.3465  0.0534
    1C        C  579   2.936   4.356   3.011 -0.2666  0.1716 -0.2413
    1C        C  580   2.777   4.219   3.140 -0.5448 -0.1286 -0.1541
    1C        C  581   2.830   4.270   3.261 -0.7988  0.0783 -0.1277
    1C        C  582   2.695   4.111   3.385 -0.4522  0.5378  0.4810
    1C        C  583   2.783   4.222   3.386  0.4078 -0.1269  0.2629
    1C        C  584   2.663   4.053   3.509 -0.5825  0.1962  0.2868
    1C        C  585   2.697   4.117   3.630  0.1072 -0.4947  0.4657
    1C        C  586   2.585   3.938   3.755 -1.1214  0.3859 -0.1131
    1C        C  587   2.649   4.064   3.753 -0.4569  0.0596  0.4841
    1C        C  588   2.558   3.877   3.879 -0.6193  0.1737 -0.1113
    1C        C  589   2.588   3.944   4.000 -0.5709  0.1013 -0.0896
    1C        C  590   2.536   3.739   4.131 -0.1508  0.1098  0.3672
    1C        C  591   2.570   3.875   4.122 -0.5283  0.1735 -0.0506
    1C        C  592   2.523   3.671   4.254 -0.1625 -0.0275  0.2806
    1C        C  593   2.531   3.743   4.374  0.0417  0.4397 -0.0196
    1C        C  594   2.517   3.533   4.499  0.7069  0.3288  0.1893
    1C        C  595   2.524   3.674   4.497  0.3809  0.3353 -0.0651
    1C        C  596   2.519   3.462   4.621  0.1697  0.2546  0.1503
    1C        C  597   2.526   3.537   4.741  0.3765  0.2558  0.1352
    1C        C  598   2.546   3.325   4.860  0.4930 -0.3730 -0.2482
    1C        C  599   2.539   3.466   4.862 -0.3852 -0.4109 -0.1618
    1C        C  600   2.541   3.247   4.976 -0.1904 -0.1606 -0.1303
    1C        C  601   3.194   4.433   2.042  0.2276 -0.1869 -0.1216
    1C        C  602   2.985   4.387   2.160  0.2912 -0.5184  0.1124
    1C        C  603   3.119   4.436   2.160  0.0697  0.1081 -0.2267
    1C        C  604   2.927   4.350   2.284  0.0636 -0.6670 -0.0358
    1C        C  605   2.990   4.392   2.404  0.0918 -0.7123 -0.0316
    1C        C  606   2.818   4.268   2.529 -0.4430 -0.1464  0.2261
    1C        C  607   2.927   4.358   2.525  0.2089 -0.9228 -0.0256
    1C        C  608   2.771   4.216   2.651  0.0204 -0.3492  0.3248
    1C        C  609   2.824   4.267   2.772 -0.1876  0.1719  0.2058
    1C        C  610   2.687   4.107   2.896 -0.3109 -0.0296  0.4391
    1C        C  611   2.776   4.217   2.895 -0.0210 -0.2619  0.1027
    1C        C  612   2.651   4.049   3.020 -0.4175  0.1918  0.5153
    1C        C  613   2.682   4.115   3.141 -0.8229  0.1173  0.6655
    1C        C  614   2.587   3.928   3.265 -0.4768 -0.0173 -0.0316
    1C        C  615   2.650   4.054   3.264 -0.1930 -0.1506  0.7035
    1C        C  616   2.563   3.866   3.389 -1.4410  0.0954 -0.1567
    1C        C  617   2.591   3.931   3.511 -0.7108  0.2584 -0.4110
    1C        C  618   2.533   3.730   3.639 -0.8897  0.6053  0.1075
    1C        C  619   2.562   3.868   3.634 -0.8254  0.5770 -0.2776
    1C        C  620   2.520   3.667   3.765 -0.3019  0.0926 -0.0901
    1C        C  621   2.528   3.739   3.886 -0.4355  0.1388 -0.1149
    1C        C  622   2.511   3.529   4.007 -0.1360  0.5332  0.2348
    1C        C  623   2.518   3.670   4.009 -0.0462  0.5227  0.1272
    1C        C  624   2.519   3.459   4.130  0.2001  0.1843  0.0053
    1C        C  625   2.523   3.529   4.252  0.2377 -0.0189  0.1114
    1C        C  626   2.552   3.324   4.375  0.1916  0.2151 -0.1565
    1C        C  627   2.527   3.463   4.377  0.2543  0.2135  0.2245
    1C        C  628   2.561   3.255   4.497  0.0581  0.2700 -0.1225
    1C        C  629   2.540   3.322   4.620  0.0545  0.2437 -0.1147
    1C        C  630   2.609   3.118   4.742  0.6893 -0.0404 -0.1733
    1C        C  631   2.563   3.252   4.740  0.5066 -0.1099 -0.4064
    1C        C  632   2.621   3.049   4.866  0.1790  0.0449 -0.0759
    1C        C  633   2.560   3.108   4.980  0.3218 -0.0858  0.0685
    1C        C  634   2.785   4.303   2.056  0.0539 -0.1508  0.0366
    1C        C  635   2.888   4.398   2.055  0.0957 -0.1925  0.3233
    1C        C  636   2.754   4.224   2.168 -0.5394  0.0083 -0.0157
    1C        C  637   2.813   4.265   2.289 -0.6392  0.2546 -0.0459
    1C        C  638   2.670   4.109   2.409  0.0541 -0.1514  0.0996
    1C        C  639   2.757   4.220   2.411 -0.4089  0.2241  0.0516
    1C        C  640   2.639   4.047   2.532  0.6128 -0.4769  0.0816
    1C        C  641   2.682   4.107   2.652 -0.1962 -0.1801  0.2383
    1C        C  642   2.587   3.919   2.776 -0.7432  0.3011 -0.2748
    1C        C  643   2.645   4.048   2.775 -0.2358  0.0823  0.3544
    1C        C  644   2.567   3.852   2.898  0.0880 -0.1905 -0.3991
    1C        C  645   2.592   3.921   3.019 -1.0707  0.4774 -0.5146
    1C        C  646   2.527   3.723   3.149 -0.5339  0.5466 -0.5346
    1C        C  647   2.568   3.858   3.143 -0.3783  0.5090 -0.3555
    1C        C  648   2.515   3.656   3.273 -0.2474  0.6713 -0.4379
    1C        C  649   2.532   3.728   3.393 -0.6160 -0.0854  0.0744
    1C        C  650   2.513   3.519   3.519 -0.1966  0.2459  0.0413
    1C        C  651   2.524   3.660   3.517 -0.6421  0.2853  0.2768
    1C        C  652   2.517   3.453   3.643  0.4566  0.2256  0.0076
    1C        C  653   2.519   3.526   3.764 -0.6625  0.0983  0.1068
    1C        C  654   2.537   3.316   3.888  0.2961  0.5100 -0.2902
    1C        C  655   2.519   3.456   3.887 -0.3664  0.4285  0.2902
    1C        C  656   2.554   3.250   4.012  0.1838  0.4662 -0.3063
    1C        C  657   2.536   3.319   4.134  0.2390  0.1925 -0.1511
    1C        C  658   2.611   3.120   4.257  0.5780  0.4052 -0.1968
    1C        C  659   2.556   3.250   4.255  0.1002  0.1937 -0.1376
    1C        C  660   2.644   3.057   4.379  0.6537  0.7112 -0.0631
    1C        C  661   2.615   3.124   4.499  0.3557  0.3980  0.0356
    1C        C  662   2.713   2.934   4.622  0.1815 -0.1653  0.0343
    1C        C  663   2.640   3.055   4.620  0.3333 -0.0831 -0.2371
    1C        C  664   2.746   2.870   4.744 -0.4260 -0.3127  0.1247
    1C        C  665   2.698   2.928   4.865 -0.3112 -0.2703  0.1479
    1C        C  666   2.746   2.869   4.983  0.0900 -0.1119  0.0670
    1C        C  667   2.678   4.021   2.055 -0.4571 -0.8015  0.0938
    1C        C  668   2.685   4.101   2.170 -0.9400  0.2137 -0.5676
    1C        C  669   2.583   3.911   2.294 -0.0087  0.2754  0.0996
    1C        C  670   2.637   4.042   2.289  0.1069  0.2234 -0.1285
    1C        C  671   2.556   3.847   2.416 -0.1300 -0.2143 -0.1784
    1C        C  672   2.578   3.920   2.535  0.2993 -0.3375 -0.1784
    1C        C  673   2.512   3.717   2.661 -0.2049 -0.1306  0.0771
    1C        C  674   2.548   3.854   2.657 -0.2960 -0.1135 -0.1982
    1C        C  675   2.504   3.648   2.784 -0.4787 -0.1732  0.0365
    1C        C  676   2.522   3.719   2.905 -0.2362 -0.0684 -0.0591
    1C        C  677   2.499   3.511   3.029 -0.4158 -0.0600  0.3133
    1C        C  678   2.508   3.652   3.028 -1.1220 -0.0138 -0.1209
    1C        C  679   2.508   3.443   3.152  0.1546  0.2287  0.4377
    1C        C  680   2.512   3.515   3.273  0.4366  0.6563  0.1725
    1C        C  681   2.527   3.307   3.398  0.7331  0.3382 -0.0654
    1C        C  682   2.510   3.447   3.397  0.5226  0.3104 -0.0146
    1C        C  683   2.545   3.243   3.522  0.1176  0.1303 -0.0828
    1C        C  684   2.537   3.313   3.644 -0.0579  0.1550 -0.1141
    1C        C  685   2.610   3.116   3.768 -0.6452 -0.0739 -0.2133
    1C        C  686   2.552   3.245   3.767 -0.2152  0.1177 -0.1201
    1C        C  687   2.637   3.055   3.892 -0.3874  0.2531 -0.1108
    1C        C  688   2.605   3.119   4.014  0.1337  0.4575 -0.0869
    1C        C  689   2.712   2.933   4.136 -0.0237  0.1267  0.1689
    1C        C  690   2.641   3.055   4.135  0.4252  0.3861 -0.2157
    1C        C  691   2.756   2.875   4.257 -0.0990  0.0805  0.1704
    1C        C  692   2.717   2.936   4.378 -0.2337  0.1744  0.0758
    1C        C  693   2.760   2.880   4.501 -0.5159 -0.4585 -0.1085
    1C        C  694   2.633   3.889   2.059 -0.0852 -0.9490 -0.4047
    1C        C  695   2.530   3.701   2.179 -0.2643  0.2539 -0.0731
    1C        C  696   2.581   3.832   2.176 -0.0971  0.1935  0.1546
    1C        C  697   2.512   3.633   2.301 -0.7134  0.2047 -0.1648
    1C        C  698   2.524   3.709   2.419 -0.0653 -0.2264  0.0512
    1C        C  699   2.494   3.501   2.544 -0.6054 -0.0761  0.3323
    1C        C  700   2.505   3.642   2.542 -0.4562 -0.0925  0.0669
    1C        C  701   2.508   3.432   2.666 -0.2573 -0.1400  0.2567
    1C        C  702   2.498   3.507   2.785  0.0691 -0.1985  0.3218
    1C        C  703   2.524   3.300   2.908  0.3494  0.0034  0.0042
    1C        C  704   2.495   3.438   2.908 -0.3065 -0.1303  0.3537
    1C        C  705   2.544   3.234   3.032  0.4046  0.1864  0.0898
    1C        C  706   2.533   3.304   3.154 -0.1197  0.1735  0.0462
    1C        C  707   2.598   3.106   3.279 -0.4986 -0.0829  0.1713
    1C        C  708   2.540   3.235   3.277 -0.1141  0.0857 -0.0070
    1C        C  709   2.645   3.053   3.402 -0.2122  0.1391  0.1554
    1C        C  710   2.611   3.118   3.523  0.2480  0.2035  0.2444
    1C        C  711   2.717   2.936   3.647  0.1571 -0.1976 -0.0963
    1C        C  712   2.641   3.055   3.645  0.1351 -0.2123  0.0539
    1C        C  713   2.762   2.883   3.770 -0.3930  0.2016  0.2764
    1C        C  714   2.722   2.942   3.892 -0.6604  0.0498  0.2596
    1C        C  715   2.765   2.885   4.014  0.0450  0.3061  0.1323
    1C        C  716   2.449   3.499   2.067  0.4012 -0.0647  0.0388
    1C        C  717   2.485   3.634   2.064  0.2748 -0.0355 -0.1206
    1C        C  718   2.461   3.416   2.183 -0.3126  0.0618  0.2078
    1C        C  719   2.482   3.493   2.301 -0.3713  0.1310  0.1725
    1C        C  720   2.508   3.287   2.425  0.1858  0.0212  0.1846
    1C        C  721   2.486   3.426   2.425  0.6545  0.0960  0.1313
    1C        C  722   2.529   3.216   2.545  0.2348 -0.3796 -0.0581
    1C        C  723   2.524   3.291   2.664  0.1091 -0.0925 -0.2457
    1C        C  724   2.598   3.097   2.791  0.5714  0.2720  0.3067
    1C        C  725   2.543   3.227   2.789  0.6693  0.3037 -0.1258
    1C        C  726   2.627   3.037   2.915  0.3777 -0.0009  0.2185
    1C        C  727   2.598   3.104   3.036  0.1145  0.0692  0.1140
    1C        C  728   2.711   2.925   3.158  0.2323  0.3079  0.0082
    1C        C  729   2.634   3.043   3.158  0.1559  0.2538  0.1893
    1C        C  730   2.763   2.876   3.280  0.1956  0.0912 -0.0664
    1C        C  731   2.723   2.936   3.402 -0.3244  0.0667 -0.2265
    1C        C  732   2.762   2.880   3.526 -0.0395  0.1018 -0.3037
    1C        C  733   2.496   3.198   2.070 -0.0911 -0.4310  0.1965
    1C        C  734   2.484   3.275   2.187  0.2635  0.1460 -0.1450
    1C        C  735   2.565   3.074   2.307 -0.0390  0.2588 -0.0572
    1C        C  736   2.520   3.209   2.307  0.2347  0.3483 -0.0263
    1C        C  737   2.595   3.009   2.428 -0.6066 -0.0482 -0.0743
    1C        C  738   2.572   3.081   2.547 -0.2502 -0.5292  0.2914
    1C        C  739   2.697   2.911   2.672  0.1237  0.1605  0.2373
    1C        C  740   2.615   3.026   2.670 -0.6854 -0.4021  0.5036
    1C        C  741   2.740   2.853   2.793  0.2851 -0.0465  0.0800
    1C        C  742   2.699   2.915   2.913 -0.2465 -0.3670  0.0616
    1C        C  743   2.751   2.867   3.036  0.1004  0.0663  0.0807
    1C        C  744   2.542   3.067   2.072  0.3318 -0.2896 -0.1638
    1C        C  745   2.686   2.898   2.189 -0.1867 -0.2167  0.5941
    1C        C  746   2.599   3.009   2.186  0.4119  0.2513  0.0741
    1C        C  747   2.734   2.844   2.310  0.2307 -0.2688  0.4093
    1C        C  748   2.681   2.897   2.430  0.3531  0.6696  0.0595
    1C        C  749   2.736   2.850   2.551 -0.0100  0.3402  0.1031
    1C        C  750   2.734   2.836   2.073  0.0471  0.0583  0.5437
    1C        C  751   3.662   2.343   1.955  0.3048 -0.0436  0.0320
    1C        O  752   3.730   2.238   1.972  0.1511 -0.2694 -0.6739
    1C        O  753   3.689   2.396   1.828 -0.1474 -0.0388 -0.0612
    1C        C  754   4.634   3.061   1.985 -0.0247 -0.0490 -0.1151
    1C        O  755   4.627   3.056   1.859  1.2941 -0.2761 -0.1865
    1C        O  756   4.749   3.007   2.043 -0.2713 -0.1205  0.3137
    1C        C  757   4.449   4.209   1.961 -0.2783  0.7593 -0.1254
    1C        O  758   4.542   4.279   2.010 -0.3369  0.0461  1.0522
    1C        O  759   4.461   4.184   1.824 -0.0732 -0.0360  0.0342
    1C        C  760   3.589   4.664   1.950  0.1497 -0.1337 -0.2818
    1C        O  761   3.621   4.781   1.983  0.2065 -0.1097 -0.4235
    1C        O  762   3.585   4.644   1.811  0.6954 -0.3097 -0.2749
    1C        C  763   2.841   4.523   1.992 -0.3073 -0.3415  0.3222
    1C        O  764   2.890   4.548   1.878  0.1032  0.7063  0.7153
    1C        O  765   2.734   4.604   2.031 -0.1760  0.1425 -0.3064
    1C        C  766   2.330   3.485   1.980  0.4348  0.1710 -0.0434
    1C        O  767   2.329   3.439   1.863 -0.3429 -0.2226  0.1148
    1C        O  768   2.197   3.489   2.025  0.3806 -0.0386 -0.1877
    1C        C  769   4.731   3.604   5.013  0.3110 -0.0466  0.2471
    1C        O  770   4.751   3.574   5.133  0.2000 -1.3123 -0.0371
    1C        O  771   4.834   3.673   4.947  0.1879  0.2529  0.3634
    1C        C  772   4.282   4.447   5.022 -0.1996 -0.2068  0.3389
    1C        O  773   4.296   4.405   5.140  0.1024 -0.2488  0.2892
    1C        O  774   4.349   4.569   5.004  0.0218 -0.4644 -0.6654
    1C        C  775   4.144   2.509   5.061  0.0112 -0.1551  0.0410
    1C        O  776   4.219   2.417   5.018  0.3095  0.0300  0.1627
    1C        O  777   4.213   2.578   5.161 -0.0551  0.4712 -0.3395
    1C        C  778   2.893   4.533   5.062  0.3624  0.0989 -0.0084
    1C        O  779   2.815   4.627   5.032 -0.0808 -0.3046 -0.1301
    1C        O  780   2.917   4.509   5.198  0.5400  0.1226 -0.0351
    1C        C  781   2.456   3.045   5.064  0.1124 -0.2033 -0.2756
    1C        O  782   2.342   3.017   5.019  0.0583  0.1351 -0.3498
    1C        O  783   2.474   3.030   5.201 -0.1565 -0.6051 -0.2847
    1C        C  784   2.425   3.983   5.057 -0.1456 -0.6245 -0.2145
    1C        O  785   2.313   4.040   5.045  0.5296  0.7124 -0.2862
    1C        O  786   2.445   3.919   5.180 -0.5994  0.2896  0.3468
    1C        C  787   2.962   2.408   2.010 -0.3617  0.3087  0.1229
    1C        O  788   2.920   2.426   1.893 -1.2236 -0.3958  0.3182
    1C        O  789   2.911   2.294   2.070 -0.0228  0.2754  0.3503
    1C        C  790   3.170   2.373   5.066 -0.3441 -0.0717 -0.1567
    1C        O  791   3.177   2.251   5.034  0.2376 -0.1448  0.2223
    1C        O  792   3.178   2.400   5.203 -0.1314 -0.0268 -0.1763
    1C        H  793   4.277   3.034   5.046  2.2425  0.5635 -0.2669
    1C        H  794   4.227   2.796   5.069 -1.5759  0.4489  0.2742
    1C        H  795   4.520   3.118   5.056  0.8378 -0.0993 -0.1383
    1C        H  796   4.567   3.355   5.060 -0.9065 -0.7842  0.3493
    1C        H  797   4.558   3.803   5.047  0.5955 -0.6152  0.9996
    1C        H  798   4.375   3.944   5.041  1.6170 -0.7441 -0.8075
    1C        H  799   4.327   4.182   5.048  0.4688  1.1984 -0.5115
    1C        H  800   4.046   4.548   5.025 -0.0075 -1.0952  0.7919
    1C        H  801   3.809   4.555   5.045  1.1579  1.4498  0.2855
    1C        H  802   3.575   4.612   5.040 -0.0328 -0.2052 -0.4821
    1C        H  803   3.398   4.489   5.048 -0.2424 -1.2037 -0.2987
    1C        H  804   3.169   4.418   5.035 -0.0225 -1.3552 -0.6441
    1C        H  805   3.870   2.530   5.075 -0.1466 -0.1293 -0.0227
    1C        H  806   3.675   2.424   5.059 -0.3984 -0.3678 -0.2457
    1C        H  807   2.978   2.536   5.052  0.9120 -0.0682  0.8054
    1C        H  808   3.437   2.483   5.077 -0.6423  0.7054 -0.1851
    1C        H  809   2.884   2.746   5.078  3.0931  2.9812 -0.2733
    1C        H  810   2.700   2.892   5.077 -1.1627 -2.7625  0.2038
    1C        H  811   2.501   3.290   5.065  2.4188 -1.5306  1.8337
    1C        H  812   2.469   3.505   5.059  0.8728 -0.0099  0.1416
    1C        H  813   2.584   3.737   5.053 -2.3917  3.2924 -0.2035
    1C        H  814   2.589   4.180   5.041  0.8774 -1.0192  1.3628
    1C        H  815   2.720   4.374   5.015 -0.2609  1.7344 -1.2485
    1C        H  816   2.717   2.887   1.980  1.3611  1.0808  0.8283
    1C        H  817   2.882   2.720   1.980  0.7907  1.2864 -0.0227
    1C        H  818   3.217   2.451   1.985  0.4013  1.2039 -0.3200
    1C        H  819   3.438   2.479   1.982  1.6960  2.4772 -0.2821
    1C        H  820   3.854   2.515   1.973  0.3440 -1.2547  0.4232
    1C        H  821   4.066   2.615   1.968 -1.1600  0.7296 -0.8223
    1C        H  822   4.271   2.710   1.980  1.2896  0.8370  0.0413
    1C        H  823   4.396   2.905   1.966  0.0617 -1.1552 -0.3831
    1C        H  824   4.540   3.314   1.964 -0.4120 -1.5105 -1.0693
    1C        H  825   4.503   3.518   1.957 -0.8917  1.2544 -0.4002
    1C        H  826   4.545   3.754   1.964 -0.4190  0.5991  0.2866
    1C        H  827   3.812   4.543   1.962  0.7031 -4.1608 -0.7108
    1C        H  828   3.942   4.340   1.954  0.1107  0.0906 -0.4275
    1C        H  829   4.151   4.248   1.943 -1.3842  0.6565 -0.5969
    1C        H  830   4.525   3.979   1.985  0.3783  1.0100  0.3461
    1C        H  831   2.677   3.826   1.984  1.3739 -1.1637  0.5931
    1C        H  832   2.694   4.067   1.959  2.8519 -0.7226  0.5816
    1C        H  833   2.734   4.283   1.964  1.2547  0.4301 -0.7893
    1C        H  834   3.374   4.486   1.945 -0.5834  2.4827 -0.3853
    1C        H  835   3.149   4.409   1.948  0.4203  0.6079 -0.4249
    1C        H  836   2.510   2.998   1.996  0.1749 -1.2120  0.7159
    1C        H  837   2.476   3.246   1.976 -1.4321  1.0949  1.2071
    1C        H  838   2.455   3.694   1.980 -3.3955 -0.0658  0.9599
    2V3OU   H29  839   2.801   3.536   1.898 -2.0789 -0.3033 -0.0192
    2V3OU   C27  840   2.789   3.500   2.004 -0.4229 -0.7568  0.0422
    2V3OU   H27  841   2.745   3.574   2.076  0.3054  0.8145 -1.0661
    2V3OU   H28  842   2.726   3.408   2.004 -1.7020  0.0616 -1.3006
    2V3OU   O11  843   2.915   3.468   2.063 -0.2509 -0.2776 -0.0562
    2V3OU   C15  844   2.929   3.396   2.180  0.1743  0.2535  0.2229
    2V3OU   C13  845   3.060   3.364   2.219  0.1352  0.3452  0.4351
    2V3OU   C14  846   3.080   3.257   2.308 -0.1023 -0.1730 -0.1315
    2V3OU   C16  847   2.975   3.183   2.360 -0.3421  0.2808  0.0359
    2V3OU    H6  848   2.995   3.101   2.431  0.3202  0.4030 -0.0067
    2V3OU   C12  849   3.216   3.222   2.355 -0.1519  0.1370  0.2472
    2V3OU    O2  850   3.241   3.123   2.426 -0.6090  0.4158  0.8071
    2V3OU   C10  851   3.326   3.305   2.304  0.0623 -0.3389 -0.0777
    2V3OU    C8  852   3.457   3.269   2.337 -0.0375 -0.5478  0.0973
    2V3OU   O10  853   3.493   3.157   2.404  0.0200 -0.7195 -0.2179
    2V3OU   H26  854   3.407   3.112   2.410 -1.1080  1.3842  0.3412
    2V3OU    C6  855   3.563   3.355   2.296 -0.5549  0.2856  0.4767
    2V3OU    C5  856   3.539   3.470   2.221  0.0121  0.0979 -0.0062
    2V3OU    C4  857   3.700   3.297   2.292 -0.6565  0.0859 -0.1956
    2V3OU    H4  858   3.723   3.227   2.378 -0.2530 -0.1895 -0.5221
    2V3OU    H5  859   3.708   3.230   2.202  1.3501 -0.1182  0.0739
    2V3OU    C2  860   3.813   3.400   2.282 -0.2914 -0.2455  0.4307
    2V3OU    O6  861   3.815   3.476   2.403 -0.4483  0.0764  0.2352
    2V3OU   H21  862   3.765   3.557   2.388  1.0901  1.2847  1.2630
    2V3OU    C3  863   3.778   3.493   2.165 -0.5923 -1.2113 -0.2602
    2V3OU    H2  864   3.863   3.565   2.158  1.4328 -3.5015 -0.6624
    2V3OU    H3  865   3.774   3.429   2.074  1.2442 -2.5917  0.5598
    2V3OU   C25  866   3.942   3.321   2.263 -0.4167 -0.2884 -0.2647
    2V3OU    O7  867   3.983   3.288   2.152  0.2593 -0.8209  0.1345
    2V3OU   C26  868   4.029   3.289   2.384  0.2352  0.2440 -0.5876
    2V3OU   H22  869   4.062   3.390   2.421 -3.0921  0.7499  1.4032
    2V3OU   H23  870   4.115   3.225   2.353 -0.6090 -0.9847 -0.4441
    2V3OU    O8  871   3.964   3.214   2.483  0.5297  0.0037 -0.5752
    2V3OU   H24  872   3.926   3.273   2.550  0.2129  0.6320 -1.2915
    2V3OU    C1  873   3.647   3.567   2.186  0.1430  0.0023  0.1279
    2V3OU    H1  874   3.627   3.624   2.091  2.2536  0.5166 -0.0648
    2V3OU    O3  875   3.664   3.658   2.296  0.1394 -0.2691  0.3537
    2V3OU   C19  876   3.619   3.792   2.276  0.1885 -0.2549  0.3377
    2V3OU    H9  877   3.526   3.806   2.215 -0.0779 -1.3818  0.4674
    2V3OU    O4  878   3.717   3.848   2.192 -0.0310 -0.1505  0.1514
    2V3OU   C20  879   3.845   3.874   2.250 -0.1600  0.4658  0.1685
    2V3OU   H10  880   3.891   3.774   2.273 -2.8102 -1.1916 -1.2449
    2V3OU   C24  881   3.608   3.853   2.416 -0.2108 -0.6202  0.4660
    2V3OU   H16  882   3.544   3.794   2.487  3.5128 -2.6083  2.4984
    2V3OU   H17  883   3.574   3.958   2.404  1.7127  0.0510  0.5628
    2V3OU   C23  884   3.747   3.870   2.478  0.0199 -0.5208 -0.0795
    2V3OU   H15  885   3.789   3.764   2.489  0.3324 -0.4301 -0.3824
    2V3OU    N1  886   3.737   3.956   2.594 -0.3018 -0.4000 -0.1976
    2V3OU   H19  887   3.811   3.921   2.651 -1.9648 -2.9417  0.5677
    2V3OU   H20  888   3.655   3.934   2.647  0.9727  0.4102  2.2275
    2V3OU   C21  889   3.848   3.945   2.386 -0.0049  0.0722  0.3728
    2V3OU   H11  890   3.952   3.930   2.427  1.0176  1.8898 -1.3272
    2V3OU    O5  891   3.825   4.085   2.382 -0.5278 -0.0138  0.3343
    2V3OU   H18  892   3.786   4.110   2.467  0.3920 -0.7367  0.9876
    2V3OU   C22  893   3.914   3.949   2.137  0.3019  0.0747  0.1875
    2V3OU   H12  894   3.858   4.044   2.118  1.6694  1.9094  4.1304
    2V3OU   H13  895   3.896   3.894   2.041 -1.3712 -0.3030  0.6976
    2V3OU   H14  896   4.023   3.966   2.159  0.5817  0.7858 -1.5685
    2V3OU   C11  897   3.161   3.471   2.216  0.3441  0.1523  0.4590
    2V3OU    O1  898   3.137   3.587   2.175 -0.2707 -0.1856 -0.1562
    2V3OU    C9  899   3.300   3.421   2.226  0.3254  0.1006  0.4788
    2V3OU    C7  900   3.405   3.499   2.180  0.0485  0.1368 -0.1008
    2V3OU    O9  901   3.387   3.618   2.113  0.0925  0.4233  0.3883
    2V3OU   H25  902   3.292   3.636   2.105  0.2830  1.4947  0.4031
    2V3OU   C17  903   2.824   3.322   2.240  0.0174  0.3249  0.0371
    2V3OU    H7  904   2.722   3.346   2.211  0.1030 -0.1012 -0.6501
    2V3OU   C18  905   2.844   3.216   2.327 -0.3296 -0.2010 -0.5152
    2V3OU    H8  906   2.775   3.172   2.400  0.8269  0.7382  1.2066
    3SOL     OW  907   3.234   4.412   6.254  0.0075 -0.6526 -0.4936
    3SOL    HW1  908   3.218   4.500   6.299 -1.6300 -0.7265 -0.8339
    3SOL    HW2  909   3.303   4.423   6.182  0.3479  0.1856 -0.0438
    4SOL     OW  910   6.578   1.737   1.310  0.2912 -0.2273 -0.0537
    4SOL    HW1  911   6.610   1.805   1.244 -1.1350 -0.8661 -1.4786
    4SOL    HW2  912   6.544   1.657   1.261  1.6536 -1.8843  1.5691
    5SOL     OW  913   5.591   1.973   3.431  0.2758  0.4236  0.4792
    5SOL    HW1  914   5.535   1.895   3.402  0.1772  0.2987  1.0012
    5SOL    HW2  915   5.559   2.055   3.384 -0.5813  0.4231  1.0252
    6SOL     OW  916   5.189   1.219   0.703  0.1968  0.1436  0.5253
    6SOL    HW1  917   5.149   1.311   0.703 -1.3264 -0.4997  0.3815
    6SOL    HW2  918   5.217   1.196   0.797 -0.0348  0.4797  0.6796
    7SOL     OW  919   5.327   2.022   1.896 -0.2699 -0.3163  0.5475
    7SOL    HW1  920   5.276   2.093   1.944 -0.9726 -0.6092  0.2445
    7SOL    HW2  921   5.266   1.945   1.875  0.4310 -0.9276  0.6943
    8SOL     OW  922   3.476   1.933   5.549  0.7428  0.0407  0.2090
    8SOL    HW1  923   3.535   1.957   5.626  0.8184 -1.9723  0.8364
    8SOL    HW2  924   3.404   2.002   5.539 -0.4968 -0.6346  3.3988
    9SOL     OW  925   6.906   6.424   0.306  0.5558 -0.0306  0.1873
    9SOL    HW1  926   6.974   6.436   0.378  0.2902  1.5097  0.2298
    9SOL    HW2  927   6.815   6.419   0.346  0.4142  0.7492 -0.0128
   10SOL     OW  928   3.027   6.300   6.528  0.0753  0.7332 -0.3902
   10SOL    HW1  929   3.105   6.263   6.578  2.3335  2.3505 -2.4425
   10SOL    HW2  930   2.975   6.226   6.487  0.9328 -0.3741  0.4704
   11SOL     OW  931   1.634   1.365   5.158  0.0486  0.1474 -0.0455
   11SOL    HW1  932   1.561   1.392   5.220  0.3135 -2.3897  1.5418
   11SOL    HW2  933   1.600   1.296   5.094  0.5615  0.4991 -0.7196
   12SOL     OW  934   4.418   5.596   3.668  0.1238  0.0771  0.1930
   12SOL    HW1  935   4.350   5.647   3.615 -1.7506 -1.0154  1.4575
   12SOL    HW2  936   4.418   5.500   3.639 -1.7055 -0.7990  2.7449
   13SOL     OW  937   4.431   6.023   4.256  0.2791 -0.1839 -0.5557
   13SOL    HW1  938   4.357   6.082   4.288 -1.2121 -1.7224 -0.9872
   13SOL    HW2  939   4.397   5.929   4.249  2.2146 -0.8869 -1.0653
   14SOL     OW  940   3.389   6.612   5.677  0.7531  0.2593 -0.3763
   14SOL    HW1  941   3.343   6.565   5.602 -1.7758  0.5366  0.8963
   14SOL    HW2  942   3.424   6.544   5.742 -0.4200  0.0527  0.0623
   15SOL     OW  943   1.754   4.914   6.367 -0.1624 -0.2982  0.0789
   15SOL    HW1  944   1.819   4.915   6.443  1.4478 -0.9615 -1.2102
   15SOL    HW2  945   1.769   4.832   6.312  1.5288  1.9788 -3.1912
   16SOL     OW  946   5.273   2.386   4.729  0.5282  0.0824 -0.1719
   16SOL    HW1  947   5.291   2.288   4.744 -0.7544 -0.3762 -1.4088
   16SOL    HW2  948   5.312   2.438   4.804 -0.8524 -1.5927  1.8196
   17SOL     OW  949   3.267   5.532   6.261  0.1147 -0.2601  0.2291
   17SOL    HW1  950   3.180   5.578   6.245 -1.3787 -2.3272  1.8154
   17SOL    HW2  951   3.299   5.553   6.354  1.1410  0.1709 -0.2036
   18SOL     OW  952   2.124   1.291   3.856 -0.3242 -0.0583  0.7365
   18SOL    HW1  953   2.112   1.231   3.777 -0.4596  0.0342  0.6861
   18SOL    HW2  954   2.038   1.341   3.874 -0.3272 -0.1539  1.0016
   19SOL     OW  955   0.450   0.172   4.527 -0.0226  0.3903 -0.1113
   19SOL    HW1  956   0.449   0.090   4.469 -0.1181  1.5197 -1.7681
   19SOL    HW2  957   0.356   0.196   4.550 -0.0489  0.5740 -0.4121
   20SOL     OW  958   4.385   1.843   5.332 -0.3573  1.0169 -0.4489
   20SOL    HW1  959   4.394   1.913   5.402 -0.7946  1.2718 -0.6413
   20SOL    HW2  960   4.468   1.787   5.329 -0.7411  0.3372  0.9738
   21SOL     OW  961   3.294   1.369   2.406  0.0876 -0.6220 -0.3213
   21SOL    HW1  962   3.324   1.436   2.474  0.7931  0.3104 -1.4984
   21SOL    HW2  963   3.196   1.383   2.387  0.3826  0.6166 -1.0921
   22SOL     OW  964   0.729   0.678   6.183  0.2850  0.1468  0.5587
   22SOL    HW1  965   0.717   0.776   6.169 -0.8680  0.2164  1.9092
   22SOL    HW2  966   0.754   0.660   6.278  1.8414 -0.7949  0.0219
   23SOL     OW  967   6.878   6.916   4.990  0.0738 -0.1253  0.2550
   23SOL    HW1  968   6.954   6.972   4.957 -0.7114  0.9987  0.3197
   23SOL    HW2  969   6.880   6.911   5.089 -0.0995  0.1639  0.2760
   24SOL     OW  970   5.579   6.859   2.533 -0.0220 -0.1375  0.0250
   24SOL    HW1  971   5.486   6.895   2.544  0.1968  1.4920 -2.4550
   24SOL    HW2  972   5.581   6.795   2.456  1.1293  1.0396 -0.9849
   25SOL     OW  973   4.819   0.377   6.404 -0.1161 -0.1507 -0.1796
   25SOL    HW1  974   4.871   0.424   6.476 -0.9281  2.6443 -1.2807
   25SOL    HW2  975   4.748   0.321   6.446 -0.3885  1.1618  1.2543
   26SOL     OW  976   5.770   0.799   0.973  0.0179 -0.6828 -0.1092
   26SOL    HW1  977   5.855   0.851   0.971 -0.3208 -0.0481  1.0404
   26SOL    HW2  978   5.775   0.724   0.907  1.2254 -0.2946 -0.4838
   27SOL     OW  979   0.535   1.646   1.841 -0.3664  0.3876 -0.0748
   27SOL    HW1  980   0.553   1.686   1.930 -1.4825  0.6649  0.0354
   27SOL    HW2  981   0.441   1.667   1.813 -0.4311 -0.7394 -0.7573
   28SOL     OW  982   2.454   0.293   5.183  0.5366 -0.0205  0.2033
   28SOL    HW1  983   2.387   0.326   5.250 -0.6224 -1.1528 -0.3591
   28SOL    HW2  984   2.427   0.203   5.151  1.5530  0.1376 -1.1677
   29SOL     OW  985   5.255   1.628   1.301  0.1212  0.0197  0.1279
   29SOL    HW1  986   5.280   1.606   1.395  1.1201 -1.7965 -0.5024
   29SOL    HW2  987   5.312   1.703   1.267  0.6752 -0.2009  0.5600
   30SOL     OW  988   4.167   6.543   5.622 -0.2005  0.7140  0.3513
   30SOL    HW1  989   4.235   6.594   5.675  0.3948 -0.9085  1.2029
   30SOL    HW2  990   4.100   6.502   5.684 -0.9430  0.8275 -0.3531
   31SOL     OW  991   1.096   2.237   0.620  0.7220  0.1334 -0.2516
   31SOL    HW1  992   1.160   2.174   0.576 -0.1213 -0.3231 -0.8386
   31SOL    HW2  993   1.071   2.201   0.710  1.1705  0.2426 -0.0789
   32SOL     OW  994   0.286   1.346   2.634 -0.5375 -0.2176  0.4643
   32SOL    HW1  995   0.313   1.261   2.679  0.3805  0.0318  0.4245
   32SOL    HW2  996   0.292   1.335   2.535  1.3571  0.3957  0.4670
   33SOL     OW  997   4.702   2.903   6.530 -0.3639 -0.3877 -0.1939
   33SOL    HW1  998   4.748   2.819   6.560  1.6577  0.5325 -0.5128
   33SOL    HW2  999   4.764   2.955   6.471 -1.6183  1.2682 -0.1187
   34SOL     OW 1000   3.753   6.327   4.023  0.2242  0.1751 -0.0218
   34SOL    HW1 1001   3.843   6.326   3.981  0.6693 -0.7328  0.9188
   34SOL    HW2 1002   3.761   6.343   4.121 -0.6157 -0.2080  0.1229
   35SOL     OW 1003   3.651   3.290   0.217 -0.1492 -0.2374  0.4049
   35SOL    HW1 1004   3.630   3.327   0.127 -0.2539  1.4897  1.0868
   35SOL    HW2 1005   3.687   3.197   0.208  0.7533  0.2448 -1.4717
   36SOL     OW 1006   5.611   6.759   2.810  0.0503 -0.5621  0.1313
   36SOL    HW1 1007   5.553   6.680   2.826 -1.9649  1.0508  1.2337
   36SOL    HW2 1008   5.571   6.816   2.738 -1.3600  1.9225  2.6657
   37SOL     OW 1009   1.373   3.706   6.890 -0.0917  1.4706  0.3781
   37SOL    HW1 1010   1.424   3.725   6.806 -1.4318 -1.7426 -1.3198
   37SOL    HW2 1011   1.275   3.714   6.873 -0.4589 -0.6254  1.1203
   38SOL     OW 1012   6.626   5.459   2.020 -0.1398 -0.2032  0.4178
   38SOL    HW1 1013   6.603   5.403   1.940 -1.2885  1.6575 -0.6332
   38SOL    HW2 1014   6.589   5.551   2.007 -2.1683 -0.3524  3.9623
   39SOL     OW 1015   0.588   5.665   6.391  0.2744 -0.1471 -0.5304
   39SOL    HW1 1016   0.640   5.644   6.474 -0.9246 -0.8388  0.0712
   39SOL    HW2 1017   0.578   5.764   6.382 -0.7424 -0.0822  0.9124
   40SOL     OW 1018   5.798   2.550   0.550  0.3828 -0.4743  0.0982
   40SOL    HW1 1019   5.831   2.574   0.459  1.4529  0.1854  0.6435
   40SOL    HW2 1020   5.699   2.563   0.554  0.1479 -1.5525 -1.2767
   41SOL     OW 1021   5.988   6.150   3.748 -0.1415  0.0843  0.1164
   41SOL    HW1 1022   5.933   6.089   3.805 -0.6036 -0.4623 -0.8914
   41SOL    HW2 1023   6.074   6.170   3.795  0.2198 -1.7011  0.2836
   42SOL     OW 1024   2.526   6.098   6.560  0.1756 -0.0569  0.1849
   42SOL    HW1 1025   2.590   6.041   6.612  1.6628  0.7190 -0.7288
   42SOL    HW2 1026   2.435   6.055   6.560  0.8282 -1.4981  1.0037
   43SOL     OW 1027   5.353   6.892   5.157 -0.3102  0.2803  0.5173
   43SOL    HW1 1028   5.421   6.864   5.224 -0.0069  2.8962  1.4224
   43SOL    HW2 1029   5.367   6.842   5.071 -0.6562 -3.1136  2.2605
   44SOL     OW 1030   4.448   0.785   6.179  0.2608 -0.2699  0.3158
   44SOL    HW1 1031   4.389   0.865   6.166 -0.2641 -0.4834  1.3087
   44SOL    HW2 1032   4.508   0.775   6.099 -1.2266 -0.2167 -0.8397
   45SOL     OW 1033   4.504   4.985   1.933  0.2107  0.4258 -0.0921
   45SOL    HW1 1034   4.483   5.071   1.980 -3.3686 -0.3120 -0.1027
   45SOL    HW2 1035   4.490   4.909   1.997 -0.0231 -0.3380 -1.0440
   46SOL     OW 1036   1.519   1.434   2.879 -0.4379 -0.1265  0.1686
   46SOL    HW1 1037   1.478   1.524   2.890  0.1711  0.3886 -1.4547
   46SOL    HW2 1038   1.611   1.434   2.919  0.6450  0.8581 -2.1370
   47SOL     OW 1039   4.072   6.485   1.330 -0.2465  0.0219 -0.5906
   47SOL    HW1 1040   4.157   6.435   1.348 -0.3189  0.1860  0.2786
   47SOL    HW2 1041   4.094   6.581   1.311 -0.1104 -0.3123 -2.2194
   48SOL     OW 1042   6.009   3.848   0.327  0.1238  0.6583 -0.3316
   48SOL    HW1 1043   6.074   3.847   0.251 -0.0739 -1.8642 -0.5560
   48SOL    HW2 1044   6.059   3.838   0.414  0.1636  0.7619 -0.3423
   49SOL     OW 1045   0.094   3.444   2.180 -0.0740 -0.1616 -0.3496
   49SOL    HW1 1046   0.077   3.455   2.278  0.5517  1.7720 -0.4087
   49SOL    HW2 1047   0.023   3.386   2.140 -0.9856 -0.0677  1.0438
   50SOL     OW 1048   4.691   1.141   4.799  0.6583 -0.2149 -0.2980
   50SOL    HW1 1049   4.606   1.096   4.827  1.2691 -1.8121 -0.9108
   50SOL    HW2 1050   4.758   1.072   4.772  0.9148  1.0828 -3.4186
   51SOL     OW 1051   2.938   0.261   4.621  0.0018  0.3355  0.1158
   51SOL    HW1 1052   3.010   0.193   4.605  1.0970  1.1028  1.5344
   51SOL    HW2 1053   2.894   0.243   4.708 -0.5698  0.7064 -0.0907
   52SOL     OW 1054   5.176   1.661   4.258  0.5203  0.1667  0.1902
   52SOL    HW1 1055   5.079   1.654   4.282  0.4600  1.6495  0.4862
   52SOL    HW2 1056   5.192   1.748   4.211  1.2915 -1.1375 -2.0773
   53SOL     OW 1057   3.324   0.063   5.439  0.0100 -0.0913  0.4789
   53SOL    HW1 1058   3.287   0.153   5.416  2.1247  0.5764 -0.6126
   53SOL    HW2 1059   3.411   0.074   5.487  0.7416 -1.5149 -0.4386
   54SOL     OW 1060   4.258   4.463   6.988  0.5665  0.6290  0.1975
   54SOL    HW1 1061   4.229   4.472   6.893 -0.0928  0.1270  0.3397
   54SOL    HW2 1062   4.207   4.528   7.045 -2.4968 -2.0627  0.8739
   55SOL     OW 1063   4.190   4.401   0.580  0.1010  0.1673  0.3809
   55SOL    HW1 1064   4.287   4.415   0.560  0.2707 -1.7444 -0.3977
   55SOL    HW2 1065   4.173   4.419   0.677  1.3718 -0.0050  0.6575
   56SOL     OW 1066   6.523   6.672   1.325 -0.5266  0.3944  0.6910
   56SOL    HW1 1067   6.556   6.578   1.331  1.3862  0.8548 -1.4826
   56SOL    HW2 1068   6.435   6.679   1.374 -1.3810 -2.7965 -0.1302
   57SOL     OW 1069   4.417   0.618   1.147  0.6357 -0.4613 -0.3413
   57SOL    HW1 1070   4.391   0.553   1.075 -0.6282  0.0922 -0.4254
   57SOL    HW2 1071   4.438   0.706   1.105  1.1840 -0.4883 -0.1283
   58SOL     OW 1072   0.749   6.474   4.963  0.2960 -0.3611  0.1581
   58SOL    HW1 1073   0.657   6.443   4.940  0.1550  0.0426  0.1712
   58SOL    HW2 1074   0.776   6.548   4.902  0.8875 -0.9377 -0.2933
   59SOL     OW 1075   0.805   1.904   6.382 -0.0374 -0.3257 -0.4827
   59SOL    HW1 1076   0.879   1.867   6.437 -1.0425  0.4203  1.4439
   59SOL    HW2 1077   0.820   1.881   6.286  2.6144 -0.2804 -0.1425
   60SOL     OW 1078   4.700   6.652   5.129 -0.0381  0.1951 -0.3189
   60SOL    HW1 1079   4.669   6.746   5.111  0.5725  0.5765  0.5364
   60SOL    HW2 1080   4.647   6.613   5.204  1.0604  0.6134  0.7036
   61SOL     OW 1081   5.705   1.996   4.224  0.5370  0.3121  0.3949
   61SOL    HW1 1082   5.629   1.935   4.203  1.4436 -0.2996 -1.3316
   61SOL    HW2 1083   5.692   2.083   4.176  0.0644  0.8767  1.5255
   62SOL     OW 1084   1.897   1.171   1.727 -0.2802 -0.0056  0.5148
   62SOL    HW1 1085   1.835   1.093   1.719 -1.4334  0.8726  0.7490
   62SOL    HW2 1086   1.870   1.243   1.663  0.8275  0.1839  0.2352
   63SOL     OW 1087   6.363   0.908   5.161  0.5164 -0.4186  0.5632
   63SOL    HW1 1088   6.385   0.813   5.136  1.0174 -0.5901  1.5919
   63SOL    HW2 1089   6.313   0.908   5.248  0.3477  0.2599  0.4669
   64SOL     OW 1090   0.614   2.885   2.357 -0.3817  0.6445  0.0454
   64SOL    HW1 1091   0.578   2.859   2.447 -0.8511  0.7584 -0.1052
   64SOL    HW2 1092   0.704   2.843   2.344 -1.2287 -1.1688 -0.3160
   65SOL     OW 1093   5.968   5.423   0.096 -0.2333  0.0732 -0.2553
   65SOL    HW1 1094   5.937   5.433   0.002 -0.6451  0.9833 -0.0243
   65SOL    HW2 1095   5.892   5.438   0.159  0.6047  2.2653  0.3078
   66SOL     OW 1096   2.814   0.103   5.412 -0.2250  0.1508 -0.2838
   66SOL    HW1 1097   2.785   0.037   5.482 -0.8607 -0.6611 -1.2700
   66SOL    HW2 1098   2.735   0.158   5.384  0.3126  1.3795  0.5596
   67SOL     OW 1099   6.570   4.917   0.378 -0.3602  0.6235 -0.2862
   67SOL    HW1 1100   6.518   5.002   0.365 -1.6298 -0.0050  0.6120
   67SOL    HW2 1101   6.529   4.863   0.450  0.8503 -0.4662 -0.3824
   68SOL     OW 1102   4.326   0.097   0.157  0.3463 -0.5698  0.2784
   68SOL    HW1 1103   4.414   0.123   0.116  0.1677  0.2491  0.3987
   68SOL    HW2 1104   4.289   0.018   0.108  1.2405 -1.0509  0.3537
   69SOL     OW 1105   6.349   5.563   5.874 -0.2644  0.5042  0.8912
   69SOL    HW1 1106   6.254   5.583   5.850 -0.8814 -0.4563  2.3436
   69SOL    HW2 1107   6.388   5.500   5.807 -0.5757  1.0622  0.1746
   70SOL     OW 1108   0.838   2.971   4.314  0.3225 -0.3491  0.5372
   70SOL    HW1 1109   0.926   2.940   4.277 -0.4593 -1.9337 -0.0727
   70SOL    HW2 1110   0.791   2.894   4.358 -0.0244  0.8582  2.4226
   71SOL     OW 1111   3.241   1.702   1.584 -0.5056  0.2696  0.1536
   71SOL    HW1 1112   3.184   1.686   1.504 -0.7015  0.0435  0.3375
   71SOL    HW2 1113   3.336   1.718   1.554 -0.7810  1.3185 -0.1916
   72SOL     OW 1114   2.567   5.945   3.755  0.1108  0.1520  0.0672
   72SOL    HW1 1115   2.548   5.867   3.696  0.2670 -0.1368  0.3958
   72SOL    HW2 1116   2.664   5.949   3.775  0.8141  2.6489 -3.0450
   73SOL     OW 1117   4.790   1.624   0.972 -0.0191 -0.7436  0.9683
   73SOL    HW1 1118   4.777   1.525   0.976  1.5755 -0.9546  1.4858
   73SOL    HW2 1119   4.710   1.670   1.009 -2.0002 -1.7232 -1.7715
   74SOL     OW 1120   3.978   6.690   0.351 -0.5531 -0.2692  0.4239
   74SOL    HW1 1121   4.017   6.601   0.375 -1.6791 -0.9244 -0.0878
   74SOL    HW2 1122   3.879   6.688   0.365 -0.6088  0.8595  0.2669
   75SOL     OW 1123   5.413   6.707   0.683  0.4172 -0.4856  0.0347
   75SOL    HW1 1124   5.404   6.713   0.782  0.5649 -0.1977  0.0345
   75SOL    HW2 1125   5.381   6.618   0.651 -4.8571  1.2094 -0.2768
   76SOL     OW 1126   3.298   2.545   1.729  0.2554 -0.4306 -0.8826
   76SOL    HW1 1127   3.255   2.456   1.743 -1.0425  0.4676  1.2389
   76SOL    HW2 1128   3.262   2.588   1.646  0.3192 -1.5031 -1.4874
   77SOL     OW 1129   0.067   5.119   3.601  0.3628 -0.3877  0.7361
   77SOL    HW1 1130   0.083   5.047   3.668  0.7035 -1.2251 -0.2199
   77SOL    HW2 1131   0.123   5.199   3.623 -0.1753 -0.3113  1.9260
   78SOL     OW 1132   0.727   2.390   0.732  0.0058 -0.3542 -0.2092
   78SOL    HW1 1133   0.794   2.438   0.790 -1.2695  1.4123 -0.1338
   78SOL    HW2 1134   0.770   2.308   0.694  1.7938  0.0004  0.8879
   79SOL     OW 1135   3.663   5.967   1.764  0.2780 -0.2061 -0.0862
   79SOL    HW1 1136   3.709   5.968   1.676  0.3088 -2.2873 -0.1242
   79SOL    HW2 1137   3.730   5.956   1.837  0.0243 -1.3198 -0.0117
   80SOL     OW 1138   6.001   2.718   4.716 -0.0473 -0.6244  0.6421
   80SOL    HW1 1139   6.100   2.715   4.700 -0.1775  0.4647 -0.5543
   80SOL    HW2 1140   5.959   2.635   4.681  0.3217 -0.6276  0.1936
   81SOL     OW 1141   0.810   6.052   3.646 -0.2608  0.1252  0.1460
   81SOL    HW1 1142   0.769   6.002   3.722  1.8549 -0.9731  0.6430
   81SOL    HW2 1143   0.824   5.990   3.569 -0.2643  0.6807 -0.3122
   82SOL     OW 1144   5.224   3.139   1.237  0.4269  0.4944  1.1140
   82SOL    HW1 1145   5.199   3.215   1.177 -0.2462 -0.8985 -0.4597
   82SOL    HW2 1146   5.155   3.067   1.229  0.6966 -0.0210  3.0752
   83SOL     OW 1147   6.694   0.794   0.534  0.2226  0.3818  0.3309
   83SOL    HW1 1148   6.718   0.882   0.493 -1.1424  1.1327  1.0701
   83SOL    HW2 1149   6.598   0.795   0.562 -0.0806 -1.6517 -0.4072
   84SOL     OW 1150   5.601   2.468   0.941 -0.1742 -0.0738 -0.5905
   84SOL    HW1 1151   5.685   2.458   0.994  0.7290  2.1818 -1.4893
   84SOL    HW2 1152   5.582   2.564   0.924 -3.9577 -0.3629  1.0332
   85SOL     OW 1153   2.279   6.942   4.413  0.5519  0.5852  0.4057
   85SOL    HW1 1154   2.305   6.903   4.325 -0.1119 -0.6777  0.7438
   85SOL    HW2 1155   2.308   7.037   4.417 -0.2480  0.9598 -1.5446
   86SOL     OW 1156   6.802   6.627   4.558  0.0270 -0.2062  0.1271
   86SOL    HW1 1157   6.759   6.665   4.476 -1.2647 -0.3670  0.7149
   86SOL    HW2 1158   6.836   6.701   4.615  0.4037 -0.0740 -0.2594
   87SOL     OW 1159   6.767   3.930   0.679  0.4769  0.4325  0.3491
   87SOL    HW1 1160   6.818   4.010   0.648 -0.8997  0.3988 -2.3384
   87SOL    HW2 1161   6.703   3.957   0.751  0.6136  1.5773  0.0617
   88SOL     OW 1162   3.306   1.705   5.582  0.3727 -0.4588  0.9129
   88SOL    HW1 1163   3.359   1.760   5.518  0.8142 -1.3202  0.5177
   88SOL    HW2 1164   3.346   1.711   5.673 -0.7427  1.4365  1.3154
   89SOL     OW 1165   1.399   3.241   4.184  0.1074  0.1750  0.1227
   89SOL    HW1 1166   1.357   3.242   4.093  0.3474  0.8515  0.0118
   89SOL    HW2 1167   1.478   3.302   4.185 -0.1680  0.5397  0.9109
   90SOL     OW 1168   5.451   3.823   2.402  0.6727 -0.0895  0.3458
   90SOL    HW1 1169   5.399   3.853   2.322  0.1917 -0.5998  0.4634
   90SOL    HW2 1170   5.533   3.880   2.411  0.8055 -0.1066 -0.5845
   91SOL     OW 1171   5.298   2.962   6.184 -0.3292  0.0603 -0.1034
   91SOL    HW1 1172   5.348   3.010   6.256 -2.3415 -0.1841  1.5447
   91SOL    HW2 1173   5.355   2.890   6.146  1.3469  1.2187  0.0976
   92SOL     OW 1174   5.153   6.604   1.807  0.5398 -0.2437 -0.1941
   92SOL    HW1 1175   5.139   6.507   1.823  1.5784 -0.6802 -1.6330
   92SOL    HW2 1176   5.076   6.641   1.755 -0.4483  0.0204  1.4069
   93SOL     OW 1177   4.413   3.965   6.694 -0.3960  0.0199  0.2862
   93SOL    HW1 1178   4.497   4.018   6.701 -0.3753  0.0458 -0.1156
   93SOL    HW2 1179   4.417   3.886   6.755  1.5151 -2.1204 -2.3325
   94SOL     OW 1180   3.421   4.559   0.584  0.1844 -0.0542  0.7496
   94SOL    HW1 1181   3.451   4.655   0.581 -1.7229  0.5854  0.8938
   94SOL    HW2 1182   3.412   4.524   0.491  2.0275 -0.5253  0.6975
   95SOL     OW 1183   0.741   0.347   4.788 -0.0567  0.6439 -0.7130
   95SOL    HW1 1184   0.807   0.410   4.746  2.2731 -1.3159 -0.1849
   95SOL    HW2 1185   0.707   0.283   4.719 -1.1540  1.3967 -0.8961
   96SOL     OW 1186   1.894   6.680   4.676 -0.6909 -0.1448  0.6771
   96SOL    HW1 1187   1.835   6.727   4.743 -0.9807  0.4298  0.0295
   96SOL    HW2 1188   1.963   6.627   4.725 -0.4209  0.8691  1.4374
   97SOL     OW 1189   1.320   4.855   6.616  0.0414  0.2083 -0.0186
   97SOL    HW1 1190   1.346   4.762   6.590 -0.1822  0.3196 -0.6475
   97SOL    HW2 1191   1.242   4.885   6.561  0.5316  1.0175 -0.2857
   98SOL     OW 1192   0.303   4.663   2.069 -0.6834  0.1663  0.3167
   98SOL    HW1 1193   0.307   4.598   1.993  2.6013  0.2824  0.2258
   98SOL    HW2 1194   0.302   4.613   2.155 -1.8156  0.0299  0.2326
   99SOL     OW 1195   2.521   3.883   0.422 -0.1345  0.0108  0.0766
   99SOL    HW1 1196   2.457   3.819   0.378 -1.4571  0.6030  1.0540
   99SOL    HW2 1197   2.581   3.833   0.484  2.5534 -1.0161 -3.1065
  100SOL     OW 1198   6.971   1.026   4.202 -0.0369 -0.1312  0.0653
  100SOL    HW1 1199   6.945   1.035   4.298 -0.5211 -1.3037  0.0575
  100SOL    HW2 1200   7.043   1.092   4.181 -0.0918  0.2981  1.1710
  101SOL     OW 1201   2.313   5.834   1.204  0.2218 -0.2011  0.1725
  101SOL    HW1 1202   2.219   5.818   1.172 -0.4503  2.4059  0.5885
  101SOL    HW2 1203   2.311   5.862   1.300  1.3854  0.1419  0.1099
  102SOL     OW 1204   5.369   6.293   2.792 -0.4542  0.0359 -0.0828
  102SOL    HW1 1205   5.320   6.270   2.708 -1.1880 -0.7329  0.5404
  102SOL    HW2 1206   5.463   6.259   2.786 -0.2315  0.7476 -0.9276
  103SOL     OW 1207   2.964   3.104   1.880 -0.5283  0.5240  0.5323
  103SOL    HW1 1208   2.905   3.179   1.849 -1.1913 -0.3967 -0.5098
  103SOL    HW2 1209   2.937   3.019   1.834  1.4115  0.0107  0.2595
  104SOL     OW 1210   1.337   3.857   4.035 -0.5017  0.0637  0.2663
  104SOL    HW1 1211   1.428   3.838   4.072 -0.5616 -0.3562  0.2014
  104SOL    HW2 1212   1.285   3.772   4.030 -0.7655  0.2420 -0.0517
  105SOL     OW 1213   6.848   3.311   6.582  0.2872  0.5304 -0.0876
  105SOL    HW1 1214   6.914   3.354   6.520  1.0805 -0.1628  0.2563
  105SOL    HW2 1215   6.757   3.348   6.565  0.8388  1.8735 -0.2400
  106SOL     OW 1216   3.440   5.830   4.950  0.2907 -0.3733 -0.6511
  106SOL    HW1 1217   3.494   5.825   5.034  0.0658 -1.2197 -0.5536
  106SOL    HW2 1218   3.411   5.738   4.923 -1.9524  0.1305 -0.1395
  107SOL     OW 1219   2.725   1.467   0.914 -0.4027 -0.3527 -0.2995
  107SOL    HW1 1220   2.674   1.422   0.841  2.5457 -1.2311 -2.0018
  107SOL    HW2 1221   2.782   1.399   0.961  0.4896  0.7888  0.3131
  108SOL     OW 1222   5.128   4.531   6.987 -0.3509 -0.4962 -0.0209
  108SOL    HW1 1223   5.124   4.484   6.899  1.6696  0.2650 -0.5733
  108SOL    HW2 1224   5.137   4.629   6.972  1.6587 -0.4765  0.9585
  109SOL     OW 1225   6.993   6.864   1.910 -0.2025  0.3183 -0.1156
  109SOL    HW1 1226   7.008   6.781   1.855  3.5344 -0.2707  1.5100
  109SOL    HW2 1227   6.946   6.840   1.995 -0.4313  0.1254 -0.2958
  110SOL     OW 1228   4.601   6.715   3.292 -0.1732  0.5969 -0.0776
  110SOL    HW1 1229   4.700   6.703   3.295  0.1261  2.3088 -1.3633
  110SOL    HW2 1230   4.569   6.707   3.197 -1.0560  1.3104  0.1426
  111SOL     OW 1231   6.689   6.459   2.390 -0.1529 -0.3502 -0.3258
  111SOL    HW1 1232   6.667   6.461   2.292  0.5031  0.9433 -0.4739
  111SOL    HW2 1233   6.762   6.393   2.407  0.7893  0.5061 -0.9639
  112SOL     OW 1234   3.635   0.958   6.101  0.3512  0.3318  0.4903
  112SOL    HW1 1235   3.598   1.045   6.069  0.9689  0.4342  0.0335
  112SOL    HW2 1236   3.596   0.883   6.048  0.5268  0.4105  0.2472
  113SOL     OW 1237   1.057   5.956   3.102 -0.0466 -0.0524 -0.3328
  113SOL    HW1 1238   1.156   5.954   3.116  0.0412  0.4286 -0.8311
  113SOL    HW2 1239   1.029   5.873   3.054 -0.1364 -0.9836  1.2563
  114SOL     OW 1240   6.529   6.658   2.810 -0.5074  0.4147 -0.5486
  114SOL    HW1 1241   6.568   6.745   2.841  0.7600  0.1621 -1.3263
  114SOL    HW2 1242   6.604   6.593   2.795 -1.5005 -1.1596  1.0139
  115SOL     OW 1243   5.504   0.899   2.527 -0.0302 -0.3109 -0.2025
  115SOL    HW1 1244   5.444   0.886   2.606  2.3825 -2.5939  1.4133
  115SOL    HW2 1245   5.579   0.960   2.552  0.0016  0.1019 -1.2424
  116SOL     OW 1246   4.266   6.035   1.348 -0.1657 -0.4964  0.4905
  116SOL    HW1 1247   4.248   5.953   1.402 -0.8051  2.0364  4.5128
  116SOL    HW2 1248   4.339   6.088   1.391  1.3897  0.3744 -2.9021
  117SOL     OW 1249   1.986   1.205   2.094 -0.7323  0.2597 -1.1073
  117SOL    HW1 1250   2.022   1.295   2.068 -0.3899  1.0572  1.7602
  117SOL    HW2 1251   1.918   1.217   2.166  0.3270 -1.8267  0.3392
  118SOL     OW 1252   2.741   1.186   2.807  0.0593 -0.2916 -0.1089
  118SOL    HW1 1253   2.809   1.187   2.733  1.1780  1.1992  0.8816
  118SOL    HW2 1254   2.773   1.127   2.881  0.0836  0.0984  0.1913
  119SOL     OW 1255   6.234   6.834   0.160 -0.0634  0.1266 -0.3831
  119SOL    HW1 1256   6.329   6.821   0.189 -0.2145 -0.1574 -0.0068
  119SOL    HW2 1257   6.190   6.901   0.220  0.0109  0.5676 -0.8095
  120SOL     OW 1258   0.660   0.503   0.140  0.2253  0.4729 -0.6418
  120SOL    HW1 1259   0.753   0.470   0.150 -0.9264 -3.0442 -0.3418
  120SOL    HW2 1260   0.625   0.535   0.228  0.4783 -0.1917 -0.2986
  121SOL     OW 1261   0.835   3.155   4.973 -0.5702  0.6012  0.6047
  121SOL    HW1 1262   0.910   3.124   4.915 -0.5290 -1.9485  1.8659
  121SOL    HW2 1263   0.844   3.253   4.992  2.1121  0.4649  0.2849
  122SOL     OW 1264   2.211   1.989   4.833 -0.1284 -0.4712 -0.7783
  122SOL    HW1 1265   2.311   1.984   4.842 -0.2612 -1.1136  0.5127
  122SOL    HW2 1266   2.182   2.084   4.832  0.1792 -0.1489  3.3697
  123SOL     OW 1267   1.387   6.487   2.183  0.2699  0.1866 -0.1823
  123SOL    HW1 1268   1.349   6.576   2.209  0.3630 -0.1514  1.2064
  123SOL    HW2 1269   1.468   6.500   2.126  0.5323  1.0084  0.3705
  124SOL     OW 1270   4.068   3.544   0.085 -0.7644  0.4201  0.1081
  124SOL    HW1 1271   4.079   3.531   0.184 -0.5730 -0.8228 -0.0607
  124SOL    HW2 1272   3.971   3.551   0.063 -0.8064  0.7599  0.3855
  125SOL     OW 1273   4.605   1.342   0.284 -0.1085 -0.0570 -0.5353
  125SOL    HW1 1274   4.521   1.344   0.338  1.1487  0.8738  1.5033
  125SOL    HW2 1275   4.651   1.254   0.297 -1.0783 -0.8707 -2.2580
  126SOL     OW 1276   1.004   5.728   0.089 -0.1580  0.3843 -0.2942
  126SOL    HW1 1277   1.014   5.825   0.111  1.8590  0.1235  0.0936
  126SOL    HW2 1278   0.914   5.713   0.046  0.0253  2.6361 -1.6226
  127SOL     OW 1279   2.178   0.015   6.931 -0.3746 -0.2951 -0.0527
  127SOL    HW1 1280   2.092  -0.031   6.909 -0.3264 -0.5958  0.3852
  127SOL    HW2 1281   2.201  -0.001   7.027  0.8067 -1.2640 -0.4689
  128SOL     OW 1282   6.348   3.505   1.160 -0.1953 -0.1477 -0.0582
  128SOL    HW1 1283   6.338   3.448   1.078 -0.4240  0.0417 -0.1629
  128SOL    HW2 1284   6.258   3.534   1.192 -0.1098 -0.2905  0.3110
  129SOL     OW 1285   2.598   2.789   6.034 -0.1244  0.1278  0.4445
  129SOL    HW1 1286   2.686   2.769   5.993 -0.1142 -0.0901  0.5666
  129SOL    HW2 1287   2.596   2.883   6.067 -0.9364  1.1034 -2.1243
  130SOL     OW 1288   0.908   1.562   3.483 -0.4947  0.1196 -0.1907
  130SOL    HW1 1289   0.948   1.558   3.575  0.6094 -1.9929 -0.6975
  130SOL    HW2 1290   0.963   1.622   3.426  1.2118 -1.6277 -0.4819
  131SOL     OW 1291   5.088   0.616   2.012 -0.7113  0.5340 -0.3662
  131SOL    HW1 1292   5.154   0.676   1.968 -0.9830  1.7513  0.8249
  131SOL    HW2 1293   5.123   0.585   2.100 -0.7444 -0.7588 -0.7850
  132SOL     OW 1294   3.355   4.000   2.237  0.8698 -0.1642  0.0967
  132SOL    HW1 1295   3.347   4.086   2.186  0.1721  0.6944  1.5905
  132SOL    HW2 1296   3.425   4.009   2.307 -0.3991 -0.1837  1.4060
  133SOL     OW 1297   6.322   6.388   3.933  0.0665  0.0916 -0.3317
  133SOL    HW1 1298   6.345   6.393   3.836 -1.1456  0.8318 -0.6016
  133SOL    HW2 1299   6.287   6.476   3.963  0.7613 -0.0257  0.8843
  134SOL     OW 1300   0.755   0.554   2.509 -0.1067  0.5304 -0.2401
  134SOL    HW1 1301   0.692   0.518   2.441 -0.3881  1.4532 -0.4877
  134SOL    HW2 1302   0.811   0.480   2.546 -0.6435 -0.1374 -0.7423
  135SOL     OW 1303   5.151   3.954   3.874 -0.5353  0.3198 -0.0143
  135SOL    HW1 1304   5.202   4.027   3.829  0.2977 -1.8383 -2.8265
  135SOL    HW2 1305   5.101   3.900   3.806  0.6918 -3.1031  1.5667
  136SOL     OW 1306   1.435   4.590   6.275  0.6136 -0.7938 -0.4420
  136SOL    HW1 1307   1.402   4.652   6.203  0.3936 -1.1910 -0.6875
  136SOL    HW2 1308   1.371   4.593   6.352  0.8084 -0.4257 -0.2927
  137SOL     OW 1309   0.557   3.412   4.160  0.5060 -0.4649  0.5746
  137SOL    HW1 1310   0.601   3.336   4.208 -0.3655 -0.8133  0.8542
  137SOL    HW2 1311   0.583   3.410   4.064  0.3551 -1.2402  0.5393
  138SOL     OW 1312   1.091   4.361   1.767 -0.3437 -0.7760  0.0726
  138SOL    HW1 1313   1.055   4.378   1.859 -1.1018 -0.2895 -0.3031
  138SOL    HW2 1314   1.142   4.441   1.736  1.7459 -1.7132  0.8768
  139SOL     OW 1315   1.765   0.275   4.794 -0.2250 -0.2460 -0.0314
  139SOL    HW1 1316   1.798   0.362   4.830  1.7962 -1.4438  1.1318
  139SOL    HW2 1317   1.831   0.238   4.729 -0.3429 -1.6038  0.5856
  140SOL     OW 1318   6.282   6.108   2.933  0.0243  1.2124 -0.2103
  140SOL    HW1 1319   6.255   6.087   3.027 -1.5059 -1.3132 -1.1108
  140SOL    HW2 1320   6.379   6.133   2.931  0.5269 -0.2700  1.8447
  141SOL     OW 1321   5.400   1.654   4.472  0.3567 -0.3896 -0.5090
  141SOL    HW1 1322   5.491   1.621   4.448  1.0869  2.1609 -1.5800
  141SOL    HW2 1323   5.338   1.639   4.395  0.5015  0.0680 -0.7160
  142SOL     OW 1324   0.528   2.121   1.134  0.6413  0.0048  0.2650
  142SOL    HW1 1325   0.552   2.197   1.194 -0.2315 -0.0385  0.6723
  142SOL    HW2 1326   0.497   2.043   1.188  2.2961 -0.9586 -0.0922
  143SOL     OW 1327   6.150   3.548   6.325  0.3477  0.2172  0.0241
  143SOL    HW1 1328   6.198   3.597   6.397 -0.9285 -2.4482  2.9125
  143SOL    HW2 1329   6.059   3.588   6.311  0.0019 -0.1979  1.0484
  144SOL     OW 1330   2.042   3.059   6.254  0.4930  0.6200 -0.1233
  144SOL    HW1 1331   2.056   2.961   6.237 -0.5956  0.7042 -1.8660
  144SOL    HW2 1332   2.050   3.108   6.167  1.2351  2.1230  0.7650
  145SOL     OW 1333   0.298   5.365   1.809 -0.2811 -0.2632  0.3221
  145SOL    HW1 1334   0.293   5.373   1.909  0.0926 -1.4275  0.4494
  145SOL    HW2 1335   0.266   5.275   1.781 -0.4596  0.0813 -0.6308
  146SOL     OW 1336   0.035   5.856   6.066 -0.0612 -0.1379  0.1676
  146SOL    HW1 1337   0.066   5.835   6.159 -0.8970 -0.4369  0.3875
  146SOL    HW2 1338   0.079   5.794   6.001  1.4510  0.8368  0.2026
  147SOL     OW 1339   7.003   3.400   0.483 -0.2189  0.5294 -0.4382
  147SOL    HW1 1340   7.062   3.461   0.537  1.0431  0.2866 -1.5097
  147SOL    HW2 1341   6.947   3.345   0.546 -0.9452  2.3109  0.5660
  148SOL     OW 1342   3.783   6.417   0.576  0.1375 -0.3880  0.4903
  148SOL    HW1 1343   3.715   6.431   0.503  0.1701 -0.0820  0.5165
  148SOL    HW2 1344   3.860   6.479   0.563 -0.3154  0.3770  1.3361
  149SOL     OW 1345   5.107   0.997   2.876 -0.4265  0.0068  0.3780
  149SOL    HW1 1346   5.065   0.966   2.791 -0.1995  0.3627  0.1324
  149SOL    HW2 1347   5.038   1.001   2.948 -0.3243 -1.7312  0.6081
  150SOL     OW 1348   4.157   6.920   7.007 -0.2573  0.1384 -0.5478
  150SOL    HW1 1349   4.172   6.959   6.916 -0.1155 -0.2507 -0.6932
  150SOL    HW2 1350   4.070   6.872   7.008  0.0009 -0.3430 -0.6507
  151SOL     OW 1351   2.271   2.636   2.116 -0.2255 -0.1420  0.0830
  151SOL    HW1 1352   2.298   2.616   2.022 -1.1583 -0.5031 -0.1177
  151SOL    HW2 1353   2.172   2.624   2.126  0.0097 -1.2314  1.3951
  152SOL     OW 1354   6.072   2.491   2.429 -0.0822 -0.0598  0.1660
  152SOL    HW1 1355   6.030   2.436   2.357  0.3684 -0.8572  0.5008
  152SOL    HW2 1356   6.166   2.514   2.402 -0.9777  2.5339 -1.0192
  153SOL     OW 1357   3.931   0.954   2.537  0.4903 -1.0003 -0.1887
  153SOL    HW1 1358   4.024   0.964   2.573  0.4631 -1.0087 -0.1161
  153SOL    HW2 1359   3.889   1.045   2.531  0.4223 -1.0179 -0.0049
  154SOL     OW 1360   0.426   3.200   0.790 -0.5131 -0.1018 -0.6910
  154SOL    HW1 1361   0.408   3.264   0.716  0.6282  1.7103  0.5159
  154SOL    HW2 1362   0.340   3.176   0.835 -1.1450 -0.7836 -2.1894
  155SOL     OW 1363   2.598   1.640   2.752 -0.4266 -0.2377  0.2912
  155SOL    HW1 1364   2.527   1.641   2.822 -0.6673  1.8438  0.0769
  155SOL    HW2 1365   2.649   1.726   2.755  1.4393 -1.2639 -0.2342
  156SOL     OW 1366   6.643   3.061   0.157  0.2735  0.3778 -0.1917
  156SOL    HW1 1367   6.670   3.003   0.080  0.7281  1.4200 -0.8355
  156SOL    HW2 1368   6.718   3.063   0.224 -0.3818 -1.0766  0.6476
  157SOL     OW 1369   5.498   3.375   0.982 -0.1613  0.0567  0.0757
  157SOL    HW1 1370   5.475   3.282   0.953 -0.2101  0.0795  0.0399
  157SOL    HW2 1371   5.577   3.373   1.042 -0.8095 -0.1284  0.9508
  158SOL     OW 1372   1.836   4.306   3.007  0.2161  0.1202  0.4916
  158SOL    HW1 1373   1.832   4.228   2.944 -0.0485 -0.5467  1.3126
  158SOL    HW2 1374   1.908   4.291   3.075  1.4774  1.4993 -0.4885
  159SOL     OW 1375   3.486   0.050   2.272  0.0207  0.5893 -0.6929
  159SOL    HW1 1376   3.437   0.136   2.254 -1.1923  0.0267 -0.1619
  159SOL    HW2 1377   3.567   0.045   2.213 -0.0584  1.9527 -0.9525
  160SOL     OW 1378   3.065   6.218   0.996  0.3617 -0.2667 -0.0100
  160SOL    HW1 1379   3.066   6.145   0.928 -0.3465  0.1698 -0.4984
  160SOL    HW2 1380   2.971   6.241   1.020  0.5799  0.3100  0.3392
  161SOL     OW 1381   1.659   5.686   3.784 -0.6582 -0.1321  0.3579
  161SOL    HW1 1382   1.593   5.745   3.830 -0.2775  1.8547 -1.5009
  161SOL    HW2 1383   1.715   5.740   3.722  0.2151 -2.3550 -0.9033
  162SOL     OW 1384   2.794   5.375   0.449  0.3802 -0.6447  0.3387
  162SOL    HW1 1385   2.776   5.452   0.511  0.8486 -0.3570  0.1284
  162SOL    HW2 1386   2.729   5.302   0.467  0.6135 -0.6406  1.2986
  163SOL     OW 1387   5.691   5.725   0.516  0.1338  0.4689 -0.0905
  163SOL    HW1 1388   5.591   5.722   0.527  0.0260  0.7918 -0.9361
  163SOL    HW2 1389   5.733   5.667   0.586 -0.6855 -0.2544 -0.1706
  164SOL     OW 1390   6.877   3.738   3.846 -0.0516  0.7371  0.4339
  164SOL    HW1 1391   6.790   3.689   3.835  1.3501 -1.5880 -1.1421
  164SOL    HW2 1392   6.904   3.777   3.758  1.7474 -0.8946  0.2075
  165SOL     OW 1393   3.540   2.852   6.633  0.3512 -0.5610 -0.2226
  165SOL    HW1 1394   3.584   2.938   6.658  1.2579 -0.8988 -0.6473
  165SOL    HW2 1395   3.608   2.788   6.600 -0.2506 -1.6092  0.5217
  166SOL     OW 1396   1.257   3.585   2.459  0.0338  0.4774  0.0239
  166SOL    HW1 1397   1.215   3.532   2.386  1.3484  1.3129 -1.3763
  166SOL    HW2 1398   1.311   3.524   2.517  0.2442  0.0412 -0.6200
  167SOL     OW 1399   5.864   4.051   0.076 -0.3301 -0.1042  0.0506
  167SOL    HW1 1400   5.876   3.952   0.075 -0.8997 -0.1987  0.9435
  167SOL    HW2 1401   5.809   4.077   0.156  0.3271  0.9852  0.1719
  168SOL     OW 1402   2.745   5.154   2.910  0.0325  0.1402  0.6908
  168SOL    HW1 1403   2.657   5.193   2.938  0.8174  1.0974  1.9791
  168SOL    HW2 1404   2.795   5.126   2.992  0.6918 -0.9267 -0.0666
  169SOL     OW 1405   6.410   3.130   1.504 -0.2710  0.3636  0.2529
  169SOL    HW1 1406   6.421   3.053   1.441 -1.7995  1.5220 -1.5304
  169SOL    HW2 1407   6.409   3.096   1.598 -2.5113 -2.0371 -0.5155
  170SOL     OW 1408   2.204   5.958   3.097  0.0584  0.2932 -0.3710
  170SOL    HW1 1409   2.105   5.953   3.094  0.1167 -0.6453 -1.6451
  170SOL    HW2 1410   2.233   6.016   3.174 -1.4795  1.9854 -1.0108
  171SOL     OW 1411   3.302   5.444   0.204  0.3434  0.3811 -0.2248
  171SOL    HW1 1412   3.356   5.517   0.162 -0.3461 -0.2764 -2.3956
  171SOL    HW2 1413   3.236   5.409   0.138 -1.9124  0.2788  1.9321
  172SOL     OW 1414   0.155   0.133   2.440 -0.0929  0.3225  0.4998
  172SOL    HW1 1415   0.121   0.172   2.354  2.0553  1.4765  0.0953
  172SOL    HW2 1416   0.208   0.051   2.421  3.5225  2.5174  0.1146
  173SOL     OW 1417   6.761   1.413   4.223  0.9109  0.0076  0.0861
  173SOL    HW1 1418   6.753   1.495   4.280 -1.7564 -0.4715  0.5544
  173SOL    HW2 1419   6.751   1.331   4.280  2.0483 -0.6140 -0.5749
  174SOL     OW 1420   4.170   5.131   4.059 -0.1907 -0.0760 -0.0294
  174SOL    HW1 1421   4.232   5.173   4.125  0.9643 -2.5273  0.5650
  174SOL    HW2 1422   4.096   5.085   4.108 -0.5026 -0.1440 -0.5587
  175SOL     OW 1423   1.432   6.861   6.990 -0.0482  0.2782 -0.4729
  175SOL    HW1 1424   1.524   6.885   6.958  0.6989  0.9087  1.9356
  175SOL    HW2 1425   1.435   6.841   7.088 -2.2363 -1.2455 -0.6571
  176SOL     OW 1426   0.497   4.702   1.870  0.3108 -0.2024 -0.0395
  176SOL    HW1 1427   0.539   4.793   1.874  1.0742 -0.5809  0.7619
  176SOL    HW2 1428   0.454   4.682   1.959 -0.3101 -0.4236 -0.3802
  177SOL     OW 1429   4.511   3.190   1.668 -0.5497  0.4171  0.2822
  177SOL    HW1 1430   4.434   3.133   1.639 -0.9249  1.2773 -0.4672
  177SOL    HW2 1431   4.557   3.147   1.746 -1.2587 -0.5360  0.1945
  178SOL     OW 1432   0.597   2.804   0.055  0.7038 -0.0432 -1.0366
  178SOL    HW1 1433   0.637   2.749   0.129 -1.1391  0.1049  0.1264
  178SOL    HW2 1434   0.666   2.865   0.017  1.8842 -0.6868  0.0163
  179SOL     OW 1435   4.198   2.306   6.608 -0.1210  0.1687 -0.3556
  179SOL    HW1 1436   4.235   2.218   6.578 -0.2537 -0.3166  0.8684
  179SOL    HW2 1437   4.263   2.351   6.668  0.2907  1.3008 -1.6073
  180SOL     OW 1438   2.636   6.320   1.703  0.5495 -0.2861 -0.8120
  180SOL    HW1 1439   2.625   6.403   1.758 -0.7772 -1.4304  0.7297
  180SOL    HW2 1440   2.668   6.345   1.612  2.1480  1.7313  0.2295
  181SOL     OW 1441   1.431   2.716   6.581 -0.7675  0.0350  0.1541
  181SOL    HW1 1442   1.476   2.627   6.593 -1.7360 -0.2524  2.0159
  181SOL    HW2 1443   1.497   2.789   6.599  0.0240 -0.2705 -1.3358
  182SOL     OW 1444   3.002   2.698   5.426 -0.0329  0.0571 -0.0167
  182SOL    HW1 1445   2.981   2.625   5.362  0.1222  2.1360 -2.6289
  182SOL    HW2 1446   3.072   2.667   5.491  0.9463 -1.7235 -1.8128
  183SOL     OW 1447   3.917   0.834   4.128  0.0887  0.6994 -0.5168
  183SOL    HW1 1448   3.882   0.924   4.156 -0.0415  0.4498  0.1369
  183SOL    HW2 1449   3.996   0.810   4.184  0.1229  0.4013 -0.6905
  184SOL     OW 1450   1.082   0.072   5.638 -0.0193 -0.4897 -0.8324
  184SOL    HW1 1451   1.118   0.056   5.730 -2.8631  1.1060  0.6778
  184SOL    HW2 1452   1.129   0.150   5.597 -1.8511  1.9071  1.3020
  185SOL     OW 1453   6.839   0.356   6.338 -0.3234 -0.7693 -0.1859
  185SOL    HW1 1454   6.895   0.283   6.297 -0.4928 -1.3466  0.5806
  185SOL    HW2 1455   6.788   0.403   6.266  0.2149 -1.0389 -0.7589
  186SOL     OW 1456   6.317   1.720   3.550 -0.3424 -0.0275  0.0360
  186SOL    HW1 1457   6.276   1.781   3.617 -0.9844 -0.1813 -0.2116
  186SOL    HW2 1458   6.298   1.625   3.575  0.4917 -0.1324  0.3166
  187SOL     OW 1459   5.368   0.172   1.908  0.3788 -0.1592 -0.4719
  187SOL    HW1 1460   5.350   0.077   1.936 -0.9001  0.1733 -0.0909
  187SOL    HW2 1461   5.369   0.178   1.809 -0.7149 -0.3844 -0.5093
  188SOL     OW 1462   1.469   0.907   3.151 -0.3115 -0.5624 -0.0616
  188SOL    HW1 1463   1.399   0.971   3.119  0.1739  0.2217  0.4199
  188SOL    HW2 1464   1.501   0.852   3.074 -0.6826 -0.1808 -0.4986
  189SOL     OW 1465   3.458   5.275   2.013  0.2128 -0.0937 -0.0658
  189SOL    HW1 1466   3.493   5.251   2.104  1.5716  0.9943 -0.2773
  189SOL    HW2 1467   3.425   5.192   1.968  1.1787 -0.9425  0.7293
  190SOL     OW 1468   6.004   1.061   0.007 -0.4867 -0.2325  0.3442
  190SOL    HW1 1469   5.965   0.971   0.028 -2.1096 -0.0729 -1.6701
  190SOL    HW2 1470   5.938   1.115  -0.046  0.7393  1.8803  0.8160
  191SOL     OW 1471   6.532   1.039   6.749 -0.2617  0.1166 -0.3617
  191SOL    HW1 1472   6.576   1.038   6.839  1.8339 -2.3705 -1.3012
  191SOL    HW2 1473   6.486   0.952   6.733 -0.0090  0.2389 -1.9315
  192SOL     OW 1474   2.767   5.699   2.725  0.0323  0.2875 -0.0166
  192SOL    HW1 1475   2.681   5.747   2.709  0.3018  0.5131 -0.8126
  192SOL    HW2 1476   2.805   5.727   2.814 -0.5286  0.4561  0.1734
  193SOL     OW 1477   3.739   2.670   5.344 -0.5847  0.0507 -0.7523
  193SOL    HW1 1478   3.826   2.715   5.322  0.6348 -1.5800  0.4298
  193SOL    HW2 1479   3.746   2.573   5.322 -2.4643  0.0395 -1.4788
  194SOL     OW 1480   5.133   6.802   3.817  0.7567  0.6150  0.7250
  194SOL    HW1 1481   5.057   6.761   3.867 -0.9139  1.7744 -0.6940
  194SOL    HW2 1482   5.174   6.734   3.756 -1.2506  0.6583 -0.7931
  195SOL     OW 1483   0.180   1.142   4.743  0.2528  0.2916 -0.4792
  195SOL    HW1 1484   0.276   1.125   4.764  0.7767  1.8039 -1.4537
  195SOL    HW2 1485   0.168   1.239   4.718 -1.3539 -0.0628 -1.2081
  196SOL     OW 1486   3.260   1.560   6.420 -0.1242  0.3937  0.4625
  196SOL    HW1 1487   3.220   1.564   6.328 -0.1086  0.1419  0.4437
  196SOL    HW2 1488   3.192   1.591   6.487 -0.8339 -1.2839  0.5701
  197SOL     OW 1489   2.971   0.122   1.652 -0.0505 -0.6884 -0.8156
  197SOL    HW1 1490   3.011   0.100   1.741  1.3338  1.3304 -0.8784
  197SOL    HW2 1491   3.045   0.143   1.587 -1.1137 -0.3803 -1.9555
  198SOL     OW 1492   3.988   0.960   1.116 -0.8337  0.0925  0.9456
  198SOL    HW1 1493   3.997   0.905   1.034  0.0449 -0.3986  1.3583
  198SOL    HW2 1494   3.985   0.900   1.197 -0.1434  0.6129  1.3757
  199SOL     OW 1495   1.572   0.388   2.680 -0.0381 -0.8491 -0.5163
  199SOL    HW1 1496   1.671   0.401   2.692 -0.4806  4.1962 -0.2107
  199SOL    HW2 1497   1.523   0.436   2.753 -2.6496  0.9071 -3.1982
  200SOL     OW 1498   6.995   5.910   1.479  0.2923  0.1311  0.5463
  200SOL    HW1 1499   7.052   5.964   1.417  0.1685 -0.5000 -0.1259
  200SOL    HW2 1500   6.999   5.814   1.454 -1.4330  0.1134  0.1679
  201SOL     OW 1501   5.296   6.783   5.820  0.3569  0.4651 -1.2410
  201SOL    HW1 1502   5.371   6.839   5.786  1.6768  1.7080  3.0812
  201SOL    HW2 1503   5.307   6.768   5.918 -3.5313 -1.8859 -0.9340
  202SOL     OW 1504   4.383   0.821   6.590 -0.1155 -0.1878 -0.1376
  202SOL    HW1 1505   4.391   0.837   6.688 -1.4733 -1.5987  0.2556
  202SOL    HW2 1506   4.317   0.886   6.551 -1.8486 -1.4716  0.5014
  203SOL     OW 1507   4.411   1.365   4.464  0.0131  0.0858  0.3458
  203SOL    HW1 1508   4.321   1.393   4.430  1.4187  2.9421 -1.4561
  203SOL    HW2 1509   4.443   1.285   4.411 -0.2842  0.8723 -1.0794
  204SOL     OW 1510   1.393   2.112   6.797 -0.1710 -0.4769  0.2210
  204SOL    HW1 1511   1.333   2.133   6.720 -0.5420 -0.8334  0.4046
  204SOL    HW2 1512   1.342   2.057   6.864  0.5960 -1.4275  0.0322
  205SOL     OW 1513   1.601   1.960   1.069  0.2466 -0.9747  0.0367
  205SOL    HW1 1514   1.688   1.912   1.059  1.5629  1.1114  0.6487
  205SOL    HW2 1515   1.584   2.015   0.987  2.4231  2.8552  1.8316
  206SOL     OW 1516   5.381   4.274   1.292  0.2467 -0.9844  0.0014
  206SOL    HW1 1517   5.463   4.232   1.253  0.8722  0.0450  0.1778
  206SOL    HW2 1518   5.340   4.212   1.359  1.0800 -1.3552  0.1747
  207SOL     OW 1519   6.793   2.790   3.137  0.1125 -0.2687  0.9463
  207SOL    HW1 1520   6.727   2.736   3.085  0.7097  1.2752 -1.5575
  207SOL    HW2 1521   6.761   2.798   3.232 -2.0603 -1.5300  0.3965
  208SOL     OW 1522   5.842   3.807   4.481  0.1854  0.0207 -0.0955
  208SOL    HW1 1523   5.815   3.843   4.571  0.6952 -0.3094  0.1952
  208SOL    HW2 1524   5.791   3.723   4.462 -0.4525  0.4742 -0.4413
  209SOL     OW 1525   1.685   4.539   2.939  0.4033 -0.1666 -0.0915
  209SOL    HW1 1526   1.592   4.510   2.962  0.7154 -1.2721 -0.1940
  209SOL    HW2 1527   1.749   4.466   2.960  1.3031  0.7002  0.2646
  210SOL     OW 1528   3.654   4.296   6.220 -0.2009  0.5310  0.5825
  210SOL    HW1 1529   3.655   4.363   6.294  1.5114  0.8751  0.2719
  210SOL    HW2 1530   3.748   4.270   6.197 -0.7527 -0.3120 -0.8151
  211SOL     OW 1531   4.291   5.162   3.244 -0.0038 -0.1503 -0.3428
  211SOL    HW1 1532   4.248   5.251   3.238  2.2713  1.4486  3.3491
  211SOL    HW2 1533   4.391   5.172   3.237  0.4030 -2.1894  1.2825
  212SOL     OW 1534   1.172   3.276   2.199  0.3665  0.8300  0.5105
  212SOL    HW1 1535   1.269   3.278   2.178  0.2786  1.3286  0.1308
  212SOL    HW2 1536   1.126   3.212   2.137  0.6229 -0.3086  1.4676
  213SOL     OW 1537   2.987   0.817   6.449 -0.2959 -0.0004  0.5563
  213SOL    HW1 1538   3.079   0.831   6.414 -0.1550 -0.7926  0.6042
  213SOL    HW2 1539   2.921   0.823   6.374 -0.2126  0.6109  0.5305
  214SOL     OW 1540   4.858   6.177   1.333  0.5173 -0.5589  0.0778
  214SOL    HW1 1541   4.795   6.255   1.325  1.6616  0.3124 -0.8220
  214SOL    HW2 1542   4.845   6.133   1.422 -0.2236  0.5909  0.5683
  215SOL     OW 1543   3.095   0.546   6.899  0.1306 -0.5880 -0.2374
  215SOL    HW1 1544   3.141   0.596   6.973 -2.0561 -1.6485  1.9933
  215SOL    HW2 1545   3.136   0.455   6.890  1.0022 -0.1362 -1.0245
  216SOL     OW 1546   1.147   6.345   6.462  0.4176  0.0824 -0.3588
  216SOL    HW1 1547   1.151   6.324   6.560  0.5214  1.4989 -0.0432
  216SOL    HW2 1548   1.146   6.259   6.410 -0.7293 -0.7215  0.9151
  217SOL     OW 1549   0.463   2.091   5.066  0.2958  0.2855 -0.5279
  217SOL    HW1 1550   0.409   2.091   5.150  0.5294  0.4660 -0.3761
  217SOL    HW2 1551   0.443   2.174   5.013  1.4673  1.0699  0.2129
  218SOL     OW 1552   1.928   4.896   2.715 -0.5920  0.7456 -0.6154
  218SOL    HW1 1553   1.929   4.803   2.678  1.2929  0.3657  0.2710
  218SOL    HW2 1554   1.879   4.956   2.653 -0.4852 -0.5347 -1.9946
  219SOL     OW 1555   4.870   0.115   6.378  0.0127 -0.2990 -0.4956
  219SOL    HW1 1556   4.898   0.090   6.285  0.2522 -0.8513 -0.2777
  219SOL    HW2 1557   4.844   0.211   6.379 -4.2034 -1.2046 -2.1307
  220SOL     OW 1558   4.152   6.742   2.187  0.7179 -0.5622 -0.1668
  220SOL    HW1 1559   4.089   6.680   2.233  0.6459 -0.3600  0.0085
  220SOL    HW2 1560   4.107   6.782   2.107  0.5995 -0.3681 -0.0049
  221SOL     OW 1561   5.624   3.403   0.021 -0.3392 -0.4673 -0.4533
  221SOL    HW1 1562   5.697   3.430  -0.042 -1.0030  0.3358 -0.8870
  221SOL    HW2 1563   5.568   3.483   0.044 -0.3222 -0.8089  0.8899
  222SOL     OW 1564   2.275   5.021   5.269  0.0833  0.4754  0.8293
  222SOL    HW1 1565   2.184   4.981   5.278 -1.4683  2.7825 -2.2976
  222SOL    HW2 1566   2.338   4.953   5.231 -0.8968 -0.5677  1.0199
  223SOL     OW 1567   6.079   3.579   4.990  0.2271 -0.0527 -0.5000
  223SOL    HW1 1568   5.993   3.529   4.981 -0.2007  0.3374  1.0758
  223SOL    HW2 1569   6.150   3.533   4.936 -0.7517 -0.8730 -1.1284
  224SOL     OW 1570   2.534   2.597   4.879  0.4368 -0.3161  0.3798
  224SOL    HW1 1571   2.612   2.660   4.876 -1.9506  2.9373 -3.5617
  224SOL    HW2 1572   2.545   2.527   4.808 -0.4940  0.5981 -0.6871
  225SOL     OW 1573   3.641   1.813   6.823 -0.3672  1.0172 -0.2402
  225SOL    HW1 1574   3.725   1.839   6.774 -0.4627 -0.3900 -1.2185
  225SOL    HW2 1575   3.615   1.720   6.797 -0.1599 -0.0204  2.9176
  226SOL     OW 1576   3.122   1.095   6.291 -0.1311  0.1594  0.5081
  226SOL    HW1 1577   3.057   1.097   6.216  0.3035  0.5429  0.1350
  226SOL    HW2 1578   3.203   1.043   6.264  0.3670  0.9736  0.4185
  227SOL     OW 1579   1.118   4.067   0.175  0.3357 -0.1645  0.1636
  227SOL    HW1 1580   1.212   4.097   0.189  0.9233 -1.7215 -0.2496
  227SOL    HW2 1581   1.098   3.990   0.236 -0.8142  0.4269  0.5523
  228SOL     OW 1582   2.417   6.512   2.556 -0.0209  0.1134 -0.5161
  228SOL    HW1 1583   2.342   6.578   2.546  0.4346  0.5465 -1.1538
  228SOL    HW2 1584   2.431   6.492   2.653  1.1287  2.5080 -0.0866
  229SOL     OW 1585   5.677   0.289   6.323  0.2101 -0.3318  0.1237
  229SOL    HW1 1586   5.618   0.303   6.244  1.5700  1.7885 -0.6265
  229SOL    HW2 1587   5.626   0.306   6.407 -0.9097 -1.2798 -0.3409
  230SOL     OW 1588   3.064   4.985   5.103  0.8434 -0.4170 -0.1399
  230SOL    HW1 1589   2.989   4.951   5.160  0.6097 -1.3470 -0.9737
  230SOL    HW2 1590   3.080   5.082   5.123  0.2238 -0.5179  0.9034
  231SOL     OW 1591   0.470   3.195   6.048  0.0625 -0.1547 -0.0740
  231SOL    HW1 1592   0.434   3.143   5.971 -0.5161 -2.1092  1.4240
  231SOL    HW2 1593   0.443   3.150   6.134  1.5628  1.3380  1.2471
  232SOL     OW 1594   0.976   3.129   6.225 -0.5533  0.2651  0.4128
  232SOL    HW1 1595   0.925   3.186   6.289 -0.7718 -0.6199  1.0528
  232SOL    HW2 1596   0.950   3.151   6.131 -1.7513  0.1603  0.7133
  233SOL     OW 1597   3.924   2.193   2.388 -0.2897 -0.0490  0.0837
  233SOL    HW1 1598   3.897   2.266   2.450  0.4831  2.5064 -2.3716
  233SOL    HW2 1599   4.011   2.217   2.344 -1.3892 -0.9961 -2.9089
  234SOL     OW 1600   6.719   6.684   6.998 -0.4915  0.2113  0.7270
  234SOL    HW1 1601   6.629   6.675   7.040 -0.3585  0.3386  1.0419
  234SOL    HW2 1602   6.773   6.602   7.019 -0.7950 -0.2065 -0.1020
  235SOL     OW 1603   5.216   1.748   1.960 -0.2278  0.2217 -0.1546
  235SOL    HW1 1604   5.168   1.683   2.018 -0.0897 -1.9129 -2.2963
  235SOL    HW2 1605   5.314   1.743   1.977 -0.3258  1.0420  0.7598
  236SOL     OW 1606   6.344   5.553   0.574  0.0359 -0.1810  0.3689
  236SOL    HW1 1607   6.345   5.549   0.674 -0.2367  0.4580  0.4016
  236SOL    HW2 1608   6.320   5.646   0.545 -1.8576 -0.8379 -0.2945
  237SOL     OW 1609   4.843   3.987   1.814  0.4645 -0.5462  0.0857
  237SOL    HW1 1610   4.817   4.055   1.883 -0.8175 -1.2175  0.3038
  237SOL    HW2 1611   4.773   3.985   1.743  0.6580 -1.4041 -0.0840
  238SOL     OW 1612   5.662   3.082   1.740 -0.3222 -0.0173  0.0538
  238SOL    HW1 1613   5.585   3.018   1.731 -0.2114 -0.0766 -0.5838
  238SOL    HW2 1614   5.746   3.034   1.715 -0.0540  0.0077  0.8862
  239SOL     OW 1615   0.250   5.007   5.738 -0.0341 -0.1138  0.2655
  239SOL    HW1 1616   0.163   5.056   5.750  0.4962  0.2697  3.8823
  239SOL    HW2 1617   0.232   4.909   5.729 -0.9061  0.2315 -2.6444
  240SOL     OW 1618   6.040   2.374   3.258  0.2579  0.3212  0.5373
  240SOL    HW1 1619   6.018   2.368   3.161  0.4867  1.2755  0.4152
  240SOL    HW2 1620   6.049   2.282   3.296 -1.9807 -0.1244  0.1532
  241SOL     OW 1621   4.330   2.250   3.902 -0.1044 -0.1276 -0.3797
  241SOL    HW1 1622   4.266   2.250   3.826 -1.5940 -0.4718  0.8310
  241SOL    HW2 1623   4.296   2.190   3.975  1.8750 -0.7759  0.0915
  242SOL     OW 1624   2.997   3.839   5.645  0.4223  0.1575 -0.5913
  242SOL    HW1 1625   3.002   3.870   5.550  1.7203  1.4435 -0.1412
  242SOL    HW2 1626   3.072   3.774   5.662  0.5780  0.4117 -0.2939
  243SOL     OW 1627   3.605   0.026   6.322  0.1951  0.7743  0.4867
  243SOL    HW1 1628   3.506   0.041   6.321 -0.0532 -0.7091 -1.1157
  243SOL    HW2 1629   3.638   0.029   6.416 -1.5025  0.4943  1.1200
  244SOL     OW 1630   0.353   2.233   4.255 -0.1584  0.4883 -0.2349
  244SOL    HW1 1631   0.441   2.193   4.279 -0.7426 -0.0249  1.1948
  244SOL    HW2 1632   0.352   2.257   4.158  2.9082  3.9969  0.3887
  245SOL     OW 1633   4.866   3.014   4.723  0.1484 -0.5699 -0.3876
  245SOL    HW1 1634   4.818   3.050   4.643  1.7721 -1.1424 -1.6754
  245SOL    HW2 1635   4.892   3.090   4.782 -0.1779 -0.0335 -0.9184
  246SOL     OW 1636   5.931   1.691   2.994 -0.0864  0.3265  0.4962
  246SOL    HW1 1637   5.847   1.716   2.947 -0.9810 -0.6518  1.5098
  246SOL    HW2 1638   5.974   1.614   2.947 -1.1223 -0.8276  1.3841
  247SOL     OW 1639   2.610   1.778   2.210 -0.1041  0.0651 -0.5396
  247SOL    HW1 1640   2.709   1.775   2.198 -0.1054 -0.7736 -0.4116
  247SOL    HW2 1641   2.565   1.744   2.126 -0.2667 -0.0161 -0.4208
  248SOL     OW 1642   1.306   0.433   3.269 -0.1730 -0.0516 -0.4885
  248SOL    HW1 1643   1.384   0.495   3.269 -1.6645  1.9051 -0.6062
  248SOL    HW2 1644   1.310   0.374   3.188 -0.2024  1.8790 -1.9599
  249SOL     OW 1645   4.817   1.884   6.114  0.4014  0.3088 -0.3490
  249SOL    HW1 1646   4.848   1.947   6.043  0.7987 -0.5147 -0.9164
  249SOL    HW2 1647   4.892   1.825   6.143 -0.0275 -0.0904 -0.0235
  250SOL     OW 1648   4.106   4.686   0.112 -0.7061  0.5018 -0.5624
  250SOL    HW1 1649   4.107   4.641   0.202  1.8124  1.6318  0.0763
  250SOL    HW2 1650   4.123   4.783   0.124  0.4575  0.5550 -2.2973
  251SOL     OW 1651   5.181   3.452   5.820 -0.2176  0.4782  0.0608
  251SOL    HW1 1652   5.258   3.429   5.879 -0.0374 -0.9441 -0.6762
  251SOL    HW2 1653   5.210   3.518   5.751  0.1344  0.5465  0.2754
  252SOL     OW 1654   0.712   0.043   1.109  0.1720  0.2264 -0.4466
  252SOL    HW1 1655   0.735  -0.007   1.193  1.1061 -0.1947 -0.9356
  252SOL    HW2 1656   0.782   0.025   1.040 -0.8055  0.2336 -1.4591
  253SOL     OW 1657   2.701   6.956   5.659 -0.0057 -0.0488 -0.2942
  253SOL    HW1 1658   2.769   6.883   5.655 -1.1855 -1.1394 -1.2774
  253SOL    HW2 1659   2.619   6.924   5.707 -2.0214 -0.7664 -3.8109
  254SOL     OW 1660   6.762   3.854   3.084 -0.0517  0.0267  0.3224
  254SOL    HW1 1661   6.844   3.800   3.103  0.1258  0.1152 -0.1624
  254SOL    HW2 1662   6.683   3.812   3.130  0.1577 -0.4008  0.3030
  255SOL     OW 1663   0.953   3.847   4.410 -0.0424  0.2794 -1.2789
  255SOL    HW1 1664   0.928   3.756   4.377  0.1322 -0.0221 -0.6082
  255SOL    HW2 1665   0.901   3.916   4.361  0.9055 -0.0858 -2.8457
  256SOL     OW 1666   0.066   5.160   6.231 -0.5694 -0.0922  1.1169
  256SOL    HW1 1667   0.005   5.084   6.252 -0.0107 -1.1996 -0.9797
  256SOL    HW2 1668   0.012   5.240   6.205 -1.1475 -0.5456  0.9027
  257SOL     OW 1669   4.892   5.927   4.645  0.2095 -0.3931 -0.0766
  257SOL    HW1 1670   4.860   5.874   4.724 -1.5198 -1.3371 -1.3387
  257SOL    HW2 1671   4.823   5.993   4.619  1.1178  0.4832 -0.3268
  258SOL     OW 1672   2.077   6.055   6.083  0.0280 -0.2561  0.8365
  258SOL    HW1 1673   2.074   6.093   6.175  1.5706 -0.6395  1.0649
  258SOL    HW2 1674   2.113   5.962   6.086 -1.3000 -0.8426 -0.0086
  259SOL     OW 1675   0.821   1.256   2.542 -0.4121  0.2919  0.0013
  259SOL    HW1 1676   0.777   1.186   2.486 -1.7205 -0.0140  1.3455
  259SOL    HW2 1677   0.848   1.333   2.484 -1.1112 -0.2908 -1.1441
  260SOL     OW 1678   4.939   0.462   6.623  0.2650  0.2906  0.1331
  260SOL    HW1 1679   4.914   0.546   6.670 -1.9614 -0.6686  0.7972
  260SOL    HW2 1680   4.955   0.389   6.690 -1.5146 -0.7278 -0.4714
  261SOL     OW 1681   0.487   2.458   0.299  0.4287  0.4353  0.4807
  261SOL    HW1 1682   0.574   2.505   0.311  1.6133 -1.6382  0.3955
  261SOL    HW2 1683   0.481   2.421   0.206 -1.0892  1.5375  0.0951
  262SOL     OW 1684   2.293   2.820   0.170 -0.1854 -0.2150  0.2785
  262SOL    HW1 1685   2.257   2.884   0.102 -0.7879 -0.5001  0.3190
  262SOL    HW2 1686   2.227   2.811   0.245  0.0950 -0.5394  0.4894
  263SOL     OW 1687   2.302   6.780   3.611  0.3703  0.0930  0.0694
  263SOL    HW1 1688   2.264   6.834   3.686 -1.5317 -1.0831  0.0434
  263SOL    HW2 1689   2.319   6.839   3.532 -0.1475  0.9217  0.5620
  264SOL     OW 1690   5.892   4.111   5.569 -0.2697 -0.2555 -0.4938
  264SOL    HW1 1691   5.918   4.196   5.522 -1.1601 -1.0170 -2.4389
  264SOL    HW2 1692   5.824   4.132   5.639 -0.6262  0.6351 -1.0825
  265SOL     OW 1693   5.242   6.330   2.442  0.4749 -0.2592  0.3247
  265SOL    HW1 1694   5.267   6.240   2.405  2.0613  0.8386 -1.4699
  265SOL    HW2 1695   5.152   6.357   2.406 -0.0107 -1.0964  0.8732
  266SOL     OW 1696   2.924   1.394   6.182 -0.6060 -0.2415 -0.5471
  266SOL    HW1 1697   2.915   1.316   6.120 -0.6529 -0.3806 -0.3676
  266SOL    HW2 1698   3.018   1.429   6.179 -0.3255 -0.9112  0.0841
  267SOL     OW 1699   6.479   6.361   6.028  0.1816  0.4387 -0.3458
  267SOL    HW1 1700   6.488   6.292   5.956 -1.7618 -0.7597  0.4433
  267SOL    HW2 1701   6.541   6.338   6.104 -0.2183 -0.2966 -0.2269
  268SOL     OW 1702   4.045   1.492   4.591 -0.2507 -0.6376  0.4205
  268SOL    HW1 1703   4.087   1.520   4.678  1.0547 -0.4093 -0.2632
  268SOL    HW2 1704   3.994   1.407   4.605  0.0422 -0.6639  1.3844
  269SOL     OW 1705   1.382   5.786   6.771 -0.2076  0.0170 -0.1180
  269SOL    HW1 1706   1.285   5.780   6.796 -0.1946 -1.1075 -0.2534
  269SOL    HW2 1707   1.406   5.880   6.750 -0.9787  0.4985  1.0777
  270SOL     OW 1708   0.284   1.419   6.752  0.1017  0.3345  0.3423
  270SOL    HW1 1709   0.300   1.341   6.691 -0.2700 -0.0756  0.7716
  270SOL    HW2 1710   0.361   1.427   6.816 -0.2154 -0.1324  0.7841
  271SOL     OW 1711   1.377   1.362   0.039  0.1990 -0.4777 -0.0909
  271SOL    HW1 1712   1.407   1.390  -0.053  0.2603  0.5164  0.2193
  271SOL    HW2 1713   1.284   1.327   0.034  0.2810 -0.6460 -0.5688
  272SOL     OW 1714   1.391   6.326   5.645 -0.5101  0.1320 -0.3391
  272SOL    HW1 1715   1.444   6.246   5.676 -0.2015 -0.1890 -1.6312
  272SOL    HW2 1716   1.439   6.410   5.672 -0.9785 -0.0940  1.2799
  273SOL     OW 1717   2.240   5.475   3.624  0.5699  0.0635 -0.8705
  273SOL    HW1 1718   2.282   5.402   3.678 -2.2181  0.1444  1.6482
  273SOL    HW2 1719   2.188   5.436   3.549 -0.8597 -0.6460  0.4286
  274SOL     OW 1720   5.442   2.095   3.060 -0.2391  0.3409  0.0287
  274SOL    HW1 1721   5.400   2.171   3.011 -1.3530 -0.2524  0.0251
  274SOL    HW2 1722   5.456   2.120   3.156 -2.1798 -0.0014  0.4386
  275SOL     OW 1723   5.906   3.442   4.627 -0.0617  0.2656 -0.5150
  275SOL    HW1 1724   5.868   3.473   4.714  0.7542  0.5659 -0.2642
  275SOL    HW2 1725   6.003   3.464   4.622  0.8370 -2.9797  0.0725
  276SOL     OW 1726   1.106   4.614   3.565 -0.1736  0.1426  0.0772
  276SOL    HW1 1727   1.180   4.621   3.498 -0.3390 -1.1746 -0.2745
  276SOL    HW2 1728   1.144   4.587   3.654 -0.1724 -0.0668  0.0141
  277SOL     OW 1729   1.012   4.561   6.423  0.0789  0.0800  0.2413
  277SOL    HW1 1730   1.041   4.506   6.345  0.3283  1.5370 -0.7438
  277SOL    HW2 1731   0.940   4.624   6.394  2.4238  3.0072  0.2209
  278SOL     OW 1732   6.851   5.694   2.832 -0.0297  0.2682 -0.2352
  278SOL    HW1 1733   6.928   5.730   2.779 -0.3531  0.6736 -0.4398
  278SOL    HW2 1734   6.774   5.675   2.770  0.2146 -1.0109 -0.1624
  279SOL     OW 1735   1.574   2.338   3.837  0.3664  0.2447 -0.7440
  279SOL    HW1 1736   1.610   2.289   3.917 -0.6371 -0.8135 -0.9072
  279SOL    HW2 1737   1.547   2.271   3.767 -2.6327  0.8560 -0.3297
  280SOL     OW 1738   3.012   2.170   3.301 -0.5622  0.9154  0.2201
  280SOL    HW1 1739   2.999   2.172   3.201 -3.6140 -2.5235  0.3462
  280SOL    HW2 1740   2.933   2.212   3.345 -0.6160 -0.1303  1.1504
  281SOL     OW 1741   1.601   4.291   1.864 -0.2247 -0.6106 -0.2586
  281SOL    HW1 1742   1.647   4.210   1.828  0.5009 -1.6630  2.7182
  281SOL    HW2 1743   1.640   4.314   1.954 -2.5435  1.1450  0.3908
  282SOL     OW 1744   3.664   1.734   5.558 -0.2867  0.0956 -0.3111
  282SOL    HW1 1745   3.598   1.807   5.542 -0.8954 -0.2729  0.4166
  282SOL    HW2 1746   3.664   1.710   5.656 -1.4578 -2.1217 -0.7893
  283SOL     OW 1747   5.262   2.525   6.361 -0.3873 -0.2154  0.3808
  283SOL    HW1 1748   5.190   2.528   6.291  1.8364 -3.6795 -2.3620
  283SOL    HW2 1749   5.329   2.597   6.342 -1.0348  0.4465  0.5263
  284SOL     OW 1750   0.676   3.844   3.034 -0.2797 -0.0340 -0.2862
  284SOL    HW1 1751   0.720   3.762   2.998 -0.7749 -1.2192  1.6753
  284SOL    HW2 1752   0.589   3.859   2.987 -0.1677 -0.6198 -0.6862
  285SOL     OW 1753   4.333   6.897   5.400 -0.0095  0.3880  0.0793
  285SOL    HW1 1754   4.288   6.874   5.313  1.0448 -0.1435 -0.3407
  285SOL    HW2 1755   4.432   6.889   5.390  0.1271  0.2353  1.3625
  286SOL     OW 1756   2.736   6.175   0.179  0.4448 -0.3970 -0.0368
  286SOL    HW1 1757   2.749   6.259   0.127  0.6832 -1.1975 -1.3124
  286SOL    HW2 1758   2.648   6.178   0.227  0.1778  0.3174 -0.5640
  287SOL     OW 1759   5.440   6.704   6.545 -0.9044 -0.3772 -0.0628
  287SOL    HW1 1760   5.416   6.785   6.599 -2.4338 -1.5119  1.0849
  287SOL    HW2 1761   5.437   6.623   6.604  1.1538 -1.2401 -1.0353
  288SOL     OW 1762   4.090   1.528   6.834 -0.1563  0.3586  0.1188
  288SOL    HW1 1763   4.118   1.470   6.757  1.4828 -1.6662  2.0746
  288SOL    HW2 1764   4.007   1.491   6.874 -0.9367  1.3362 -0.5580
  289SOL     OW 1765   6.818   2.294   5.021 -0.3547 -0.5393 -0.0027
  289SOL    HW1 1766   6.737   2.296   5.080 -0.0286 -2.8307  0.6294
  289SOL    HW2 1767   6.816   2.372   4.959 -0.9535  1.7660  2.6856
  290SOL     OW 1768   5.169   2.096   3.721 -0.0156  0.6764 -0.7656
  290SOL    HW1 1769   5.108   2.137   3.789 -1.2346 -0.3394 -1.1896
  290SOL    HW2 1770   5.220   2.021   3.763 -0.7065  0.1033 -0.9319
  291SOL     OW 1771   2.369   2.187   4.197  0.4444  0.3624  0.0490
  291SOL    HW1 1772   2.316   2.272   4.203  1.3132  0.8403  1.2703
  291SOL    HW2 1773   2.365   2.140   4.285 -1.2255 -1.6370 -1.0117
  292SOL     OW 1774   2.194   3.478   1.173  0.1946 -0.1238 -0.1814
  292SOL    HW1 1775   2.162   3.435   1.257  1.2845 -0.0130  0.3149
  292SOL    HW2 1776   2.119   3.528   1.130 -0.8400 -1.6570 -0.2395
  293SOL     OW 1777   3.731   4.693   1.572 -0.4282  0.3469  0.6372
  293SOL    HW1 1778   3.806   4.756   1.593 -0.6398  0.8375 -0.0721
  293SOL    HW2 1779   3.662   4.698   1.645 -0.6637  1.2785  0.3585
  294SOL     OW 1780   5.673   6.003   6.278 -0.2663  0.2343  0.2466
  294SOL    HW1 1781   5.574   6.010   6.269 -0.4652 -0.5582  1.5193
  294SOL    HW2 1782   5.699   6.025   6.372  0.7166 -0.1008  0.0638
  295SOL     OW 1783   3.597   0.195   4.826  0.7435  0.0331 -0.1915
  295SOL    HW1 1784   3.506   0.167   4.795  1.0032 -1.9904  0.6868
  295SOL    HW2 1785   3.595   0.216   4.924  1.6731 -2.7263  0.5076
  296SOL     OW 1786   4.532   0.825   3.716 -0.5064  0.0601  0.0276
  296SOL    HW1 1787   4.557   0.922   3.716 -1.7818  0.4083 -0.1503
  296SOL    HW2 1788   4.438   0.815   3.746 -0.6069 -1.0732 -0.6011
  297SOL     OW 1789   2.148   4.904   2.045  0.1616  0.0184  0.0779
  297SOL    HW1 1790   2.088   4.916   2.124 -0.1976 -0.1844 -0.1587
  297SOL    HW2 1791   2.205   4.823   2.059 -0.5420 -0.5442 -0.2630
  298SOL     OW 1792   4.255   6.607   1.547  0.2606  0.1573  0.0413
  298SOL    HW1 1793   4.209   6.603   1.636  1.5154 -1.6719  0.6746
  298SOL    HW2 1794   4.296   6.518   1.527  0.6355  0.7498 -2.0536
  299SOL     OW 1795   5.138   3.351   6.577  0.1239 -0.7038  0.5539
  299SOL    HW1 1796   5.110   3.297   6.497  1.4474 -0.8082  0.1359
  299SOL    HW2 1797   5.152   3.290   6.654  0.8902 -0.8838  0.2831
  300SOL     OW 1798   5.946   2.355   1.695  0.8435 -0.0154 -0.3530
  300SOL    HW1 1799   5.900   2.366   1.783  2.9984 -0.8717  0.9432
  300SOL    HW2 1800   5.935   2.261   1.662 -2.2230  0.8918 -2.4596
  301SOL     OW 1801   3.808   3.882   0.331  0.3955 -0.3317 -0.1825
  301SOL    HW1 1802   3.895   3.857   0.373 -0.3729  0.4301  1.9772
  301SOL    HW2 1803   3.766   3.801   0.289  1.2155 -1.1169  0.4878
  302SOL     OW 1804   6.614   0.661   2.421 -0.1198  0.0478  0.2892
  302SOL    HW1 1805   6.655   0.589   2.366 -0.3291 -2.2285  2.9330
  302SOL    HW2 1806   6.686   0.720   2.458  0.2284 -0.1106 -0.1251
  303SOL     OW 1807   5.641   0.055   1.791 -0.0299  0.7144  0.0555
  303SOL    HW1 1808   5.556   0.087   1.751  0.6413  0.4918 -1.6302
  303SOL    HW2 1809   5.716   0.070   1.727  0.9926 -0.3000  0.9655
  304SOL     OW 1810   2.574   2.083   3.611 -0.0588 -0.0524 -0.0634
  304SOL    HW1 1811   2.518   2.001   3.600  0.6195 -0.2293 -2.9276
  304SOL    HW2 1812   2.656   2.060   3.663  1.5850 -2.1012 -3.2121
  305SOL     OW 1813   0.844   3.244   6.758 -0.2360 -0.2361  0.0069
  305SOL    HW1 1814   0.917   3.305   6.726 -0.9457 -0.3438 -2.0120
  305SOL    HW2 1815   0.882   3.154   6.779  0.3065 -0.1453 -0.5528
  306SOL     OW 1816   2.795   1.473   2.736  0.2914  0.2292 -0.1385
  306SOL    HW1 1817   2.723   1.543   2.741  0.0121  0.0486 -1.2770
  306SOL    HW2 1818   2.773   1.398   2.797 -0.3610  0.2989 -0.2752
  307SOL     OW 1819   4.407   6.816   2.254  0.4709  0.2218 -0.4618
  307SOL    HW1 1820   4.317   6.781   2.228  0.3176 -0.7514  1.2711
  307SOL    HW2 1821   4.397   6.886   2.325  1.0088  1.3931 -1.4908
  308SOL     OW 1822   5.722   2.979   4.259 -0.4483  0.6864 -0.1455
  308SOL    HW1 1823   5.726   2.881   4.279 -0.7420  0.1824 -2.2909
  308SOL    HW2 1824   5.753   2.995   4.165 -1.7826  2.4523 -0.3405
  309SOL     OW 1825   3.606   4.946   5.907 -0.0638 -0.3059  0.3610
  309SOL    HW1 1826   3.561   4.984   5.987 -1.5480  1.4382 -1.1850
  309SOL    HW2 1827   3.539   4.934   5.833  1.8817  3.0774 -2.3026
  310SOL     OW 1828   5.874   1.132   4.237 -0.5819 -0.3264 -0.0874
  310SOL    HW1 1829   5.802   1.190   4.276  0.4844  0.9212  0.0966
  310SOL    HW2 1830   5.877   1.045   4.286  0.5168  1.0677  2.5148
  311SOL     OW 1831   5.027   4.549   3.527  0.5276 -0.0570 -0.1272
  311SOL    HW1 1832   5.073   4.569   3.440  0.1041  0.8503 -0.1521
  311SOL    HW2 1833   4.951   4.486   3.510  0.6483 -0.1406 -0.3635
  312SOL     OW 1834   3.457   1.418   6.166  0.1943 -0.3669  0.6821
  312SOL    HW1 1835   3.501   1.338   6.206  1.1943  0.6396  1.6553
  312SOL    HW2 1836   3.476   1.499   6.222 -0.6432  0.6015 -0.3706
  313SOL     OW 1837   2.844   4.221   1.158 -0.0922  0.0292  0.2701
  313SOL    HW1 1838   2.781   4.227   1.236  0.0083  0.1852  0.3406
  313SOL    HW2 1839   2.792   4.208   1.074 -0.2668  0.8371  0.2457
  314SOL     OW 1840   2.304   2.474   6.120 -0.2341 -0.0390  0.0916
  314SOL    HW1 1841   2.329   2.560   6.165  0.3240 -0.6124  0.8910
  314SOL    HW2 1842   2.224   2.434   6.166 -0.6581  0.1712 -0.4449
  315SOL     OW 1843   0.402   0.663   2.251  0.6174 -0.1044  0.1140
  315SOL    HW1 1844   0.375   0.729   2.182  1.7728  1.2948  0.9473
  315SOL    HW2 1845   0.465   0.706   2.316  1.9322 -2.1981  0.3217
  316SOL     OW 1846   4.494   1.523   3.108 -0.3552 -0.0812  0.6211
  316SOL    HW1 1847   4.528   1.616   3.117  3.7368 -1.3120 -0.2809
  316SOL    HW2 1848   4.566   1.458   3.131 -1.4629 -3.0653 -3.2133
  317SOL     OW 1849   1.712   1.260   6.855 -0.4234 -0.4266 -0.1412
  317SOL    HW1 1850   1.633   1.306   6.895  0.4971  1.8147 -0.7348
  317SOL    HW2 1851   1.701   1.256   6.756  0.6241  0.8763 -0.3421
  318SOL     OW 1852   1.478   6.328   6.243 -0.6252  0.2398  0.2256
  318SOL    HW1 1853   1.391   6.292   6.207 -0.7328 -0.1409  0.8546
  318SOL    HW2 1854   1.469   6.344   6.342  0.4216 -1.0336  0.5482
  319SOL     OW 1855   6.835   0.058   2.395 -0.3957 -0.7011 -0.0389
  319SOL    HW1 1856   6.753   0.011   2.360 -0.8590 -0.2162  0.3712
  319SOL    HW2 1857   6.842   0.147   2.352 -0.2872 -0.5956  0.1970
  320SOL     OW 1858   4.755   1.056   1.079 -0.0980 -0.1329 -0.5603
  320SOL    HW1 1859   4.843   1.080   1.119 -0.6903  0.1133  0.6400
  320SOL    HW2 1860   4.710   0.986   1.136 -1.4550  1.0467 -0.1161
  321SOL     OW 1861   5.198   2.497   0.012 -0.6319  0.4356 -0.3489
  321SOL    HW1 1862   5.204   2.447   0.099 -0.5091  0.6667 -0.2235
  321SOL    HW2 1863   5.237   2.442  -0.061  0.9681  0.9876  0.0568
  322SOL     OW 1864   3.429   4.403   6.069  0.1231 -0.0592 -0.3485
  322SOL    HW1 1865   3.510   4.366   6.115 -1.0219 -3.1441 -0.5616
  322SOL    HW2 1866   3.417   4.358   5.981  0.3568  3.3166 -2.2742
  323SOL     OW 1867   1.609   2.553   6.865  0.3194 -0.0237  0.1674
  323SOL    HW1 1868   1.651   2.515   6.948  1.7060  2.4319  0.6970
  323SOL    HW2 1869   1.534   2.614   6.891 -0.1515 -0.3177 -0.4795
  324SOL     OW 1870   0.627   3.167   3.022  0.2470 -0.3820  0.2667
  324SOL    HW1 1871   0.655   3.243   2.963  0.5241  0.2169  1.1500
  324SOL    HW2 1872   0.560   3.110   2.974  0.7023 -0.0916 -0.7359
  325SOL     OW 1873   2.294   4.150   1.117  0.0164 -0.2917  0.0582
  325SOL    HW1 1874   2.239   4.095   1.054 -0.6677  1.6443 -1.1127
  325SOL    HW2 1875   2.329   4.091   1.190 -1.4732 -2.0762 -0.5731
  326SOL     OW 1876   0.965   3.573   4.596 -0.1775 -0.0981 -0.0240
  326SOL    HW1 1877   0.937   3.667   4.577  0.8827  0.2226 -0.1071
  326SOL    HW2 1878   1.029   3.572   4.673 -1.2404 -0.9223  0.8759
  327SOL     OW 1879   6.822   5.126   3.591  0.6855  0.0333  0.2638
  327SOL    HW1 1880   6.783   5.096   3.678  1.7688 -0.2263  0.6770
  327SOL    HW2 1881   6.922   5.127   3.598  0.9149 -2.1355 -1.6475
  328SOL     OW 1882   2.689   4.601   1.273 -0.8219 -0.1571 -0.1923
  328SOL    HW1 1883   2.603   4.571   1.316 -0.2655  0.7476  1.6481
  328SOL    HW2 1884   2.672   4.684   1.219 -1.1633 -0.1678 -0.1033
  329SOL     OW 1885   4.063   3.278   4.150  0.2797  0.0439 -0.3013
  329SOL    HW1 1886   4.056   3.190   4.102  1.0069 -0.3381  0.2811
  329SOL    HW2 1887   4.086   3.262   4.246  2.1045  0.9324 -0.5593
  330SOL     OW 1888   3.375   0.344   2.247 -0.1259 -0.3612 -0.3372
  330SOL    HW1 1889   3.453   0.380   2.298 -0.1489 -0.0764 -0.5046
  330SOL    HW2 1890   3.306   0.415   2.234  0.4213 -0.0627 -1.8469
  331SOL     OW 1891   6.024   6.751   2.007  0.7548 -0.4644 -0.1718
  331SOL    HW1 1892   5.926   6.731   2.010  0.7284 -0.3995  3.6055
  331SOL    HW2 1893   6.039   6.850   2.018  1.3052 -0.4152 -1.1410
  332SOL     OW 1894   3.652   2.478   6.429 -0.3249  0.0130 -0.0091
  332SOL    HW1 1895   3.679   2.553   6.369 -0.2443  0.5276  0.6623
  332SOL    HW2 1896   3.563   2.444   6.401  0.0005 -0.1875 -0.8256
  333SOL     OW 1897   4.627   0.305   4.404  0.0676 -0.0774 -0.1279
  333SOL    HW1 1898   4.658   0.277   4.313 -0.2243 -0.0831 -0.2268
  333SOL    HW2 1899   4.650   0.402   4.418 -0.3988  0.0827 -0.4353
  334SOL     OW 1900   3.077   1.419   1.287 -0.2768  0.2316  0.1764
  334SOL    HW1 1901   3.115   1.342   1.236 -0.1792 -0.3458  1.0989
  334SOL    HW2 1902   3.056   1.390   1.380 -2.2582  0.7387 -0.0708
  335SOL     OW 1903   4.010   0.187   4.673 -0.6130  0.1346 -0.1893
  335SOL    HW1 1904   4.025   0.091   4.648  1.7842 -0.0170  1.5111
  335SOL    HW2 1905   4.095   0.238   4.664 -1.3846  1.6748  0.7403
  336SOL     OW 1906   2.127   1.689   3.156  0.2362  0.0938  0.0132
  336SOL    HW1 1907   2.170   1.769   3.199  0.8952  0.2413 -0.9045
  336SOL    HW2 1908   2.065   1.646   3.222  1.0801  0.4232  1.0529
  337SOL     OW 1909   0.031   3.045   0.677  0.0450  0.0299 -0.6605
  337SOL    HW1 1910   0.072   2.955   0.690  1.0496  0.6162  0.3726
  337SOL    HW2 1911   0.053   3.079   0.585 -0.7110 -0.9347 -1.2216
  338SOL     OW 1912   3.187   3.509   1.805  0.2277 -0.2758 -0.1349
  338SOL    HW1 1913   3.119   3.583   1.795  0.6346  0.0004 -0.9758
  338SOL    HW2 1914   3.161   3.432   1.747  0.3287 -0.4009 -0.0145
  339SOL     OW 1915   2.072   0.072   5.136 -0.2685 -0.2230  0.3017
  339SOL    HW1 1916   2.113   0.055   5.226 -1.0568  0.5463  0.8255
  339SOL    HW2 1917   2.073  -0.012   5.083 -0.7599 -0.9778  1.4364
  340SOL     OW 1918   4.245   3.237   5.323 -0.4954  0.1832 -0.2863
  340SOL    HW1 1919   4.148   3.258   5.339 -1.0536 -1.4225 -1.3405
  340SOL    HW2 1920   4.274   3.278   5.237  0.2346  1.9719  0.7651
  341SOL     OW 1921   1.565   2.052   3.251 -0.7217 -0.9853 -0.3329
  341SOL    HW1 1922   1.611   2.110   3.184 -0.7496 -0.2558  0.2703
  341SOL    HW2 1923   1.501   1.992   3.205  0.0156 -1.2260 -1.0699
  342SOL     OW 1924   6.713   3.089   6.425 -0.8351 -0.2618  0.3987
  342SOL    HW1 1925   6.792   3.150   6.417 -0.3317 -0.9221  0.2815
  342SOL    HW2 1926   6.657   3.096   6.343 -0.4392 -0.4256  0.1138
  343SOL     OW 1927   2.802   6.022   2.603  0.2318  0.2028  0.2728
  343SOL    HW1 1928   2.715   5.994   2.562  0.1000  0.2899  0.4963
  343SOL    HW2 1929   2.858   5.941   2.621  1.0982  0.2548 -1.8746
  344SOL     OW 1930   0.528   2.911   2.637  0.5697 -0.0792  0.0579
  344SOL    HW1 1931   0.510   3.006   2.661  0.2395  0.3315 -1.6863
  344SOL    HW2 1932   0.527   2.855   2.720 -0.8287  1.1769  0.9389
  345SOL     OW 1933   5.842   2.431   4.690  0.4413 -0.8572  0.1170
  345SOL    HW1 1934   5.794   2.362   4.744  0.8737 -1.0021  0.3196
  345SOL    HW2 1935   5.916   2.387   4.639  0.3508 -0.6386 -0.2075
  346SOL     OW 1936   0.921   0.614   4.497  0.2558  0.2254 -0.1664
  346SOL    HW1 1937   0.969   0.698   4.471  1.9710 -0.7911 -0.4502
  346SOL    HW2 1938   0.949   0.586   4.588 -0.4443  0.0474  0.0018
  347SOL     OW 1939   2.213   5.821   5.334  0.4710 -0.0216  0.3710
  347SOL    HW1 1940   2.301   5.789   5.297  0.9604  1.3596  0.2856
  347SOL    HW2 1941   2.172   5.886   5.271 -0.0420  0.2471  0.9694
  348SOL     OW 1942   0.321   5.582   0.606  0.0024  0.3681 -0.7524
  348SOL    HW1 1943   0.301   5.634   0.522 -0.7374 -0.2095 -0.9408
  348SOL    HW2 1944   0.295   5.637   0.686 -2.7230 -0.4289 -0.9794
  349SOL     OW 1945   0.193   2.742   6.554 -0.5566 -0.1391 -0.0685
  349SOL    HW1 1946   0.282   2.729   6.597 -1.0164 -1.5520  0.5164
  349SOL    HW2 1947   0.188   2.691   6.469 -0.0689  1.7126 -1.2791
  350SOL     OW 1948   4.178   2.117   6.922  0.1276 -0.5934  0.3208
  350SOL    HW1 1949   4.211   2.101   7.015 -2.1163 -1.6902  1.0096
  350SOL    HW2 1950   4.186   2.033   6.869 -0.0399 -0.4269  0.0270
  351SOL     OW 1951   1.222   4.160   0.939 -0.4143  0.4488 -0.4219
  351SOL    HW1 1952   1.277   4.222   0.882  0.2149  0.9815  0.7366
  351SOL    HW2 1953   1.156   4.112   0.881  1.0047  0.0672 -1.8037
  352SOL     OW 1954   2.669   1.406   6.141 -0.3949 -0.0369 -0.1537
  352SOL    HW1 1955   2.763   1.430   6.163 -1.0456  0.3245  2.4979
  352SOL    HW2 1956   2.646   1.318   6.182 -0.9095 -0.7073 -1.7792
  353SOL     OW 1957   1.096   0.266   1.260 -0.3913 -0.2410  0.2988
  353SOL    HW1 1958   1.076   0.325   1.181  1.9238  1.6408  1.0229
  353SOL    HW2 1959   1.154   0.190   1.230 -0.0295  0.1221  0.0589
  354SOL     OW 1960   2.880   1.899   1.716  0.1263  0.2024 -0.0742
  354SOL    HW1 1961   2.824   1.909   1.633  0.2630 -0.8958 -0.3065
  354SOL    HW2 1962   2.853   1.969   1.783 -1.8198 -0.5605 -0.0139
  355SOL     OW 1963   5.558   3.217   2.741 -0.1711  0.2156  0.2161
  355SOL    HW1 1964   5.653   3.190   2.757 -0.3016 -0.1777  0.3280
  355SOL    HW2 1965   5.554   3.316   2.724  0.1945  0.3239  0.7305
  356SOL     OW 1966   4.927   6.272   6.799 -0.0230 -0.0809  0.1227
  356SOL    HW1 1967   4.977   6.218   6.731  1.0560 -1.8456  2.1898
  356SOL    HW2 1968   4.989   6.339   6.839 -0.7048  1.0744 -0.6989
  357SOL     OW 1969   5.163   2.390   5.010  0.1138 -0.2235  0.2263
  357SOL    HW1 1970   5.249   2.440   4.997 -0.4099  0.5389 -0.3747
  357SOL    HW2 1971   5.151   2.326   4.934 -0.4376  0.5577 -0.3666
  358SOL     OW 1972   6.138   1.847   2.352  0.5666  0.2246  0.1872
  358SOL    HW1 1973   6.157   1.945   2.361  2.3497 -0.1045  0.4934
  358SOL    HW2 1974   6.113   1.809   2.441  0.0816  0.3654  0.1100
  359SOL     OW 1975   3.035   1.390   2.372  0.2266 -0.0383  0.0238
  359SOL    HW1 1976   2.947   1.371   2.415  0.4715 -0.2573  0.4466
  359SOL    HW2 1977   3.027   1.467   2.309 -0.4106 -0.4659 -0.4244
  360SOL     OW 1978   3.182   6.300   4.739 -0.2919 -0.1875  0.6588
  360SOL    HW1 1979   3.218   6.392   4.724 -1.6876  0.0792 -1.4873
  360SOL    HW2 1980   3.246   6.233   4.703 -1.4131  0.2543 -2.5123
  361SOL     OW 1981   6.312   5.163   3.169 -0.2298 -0.0034  0.3086
  361SOL    HW1 1982   6.273   5.254   3.151  0.3712 -0.0153 -1.1442
  361SOL    HW2 1983   6.238   5.096   3.172 -0.4880  0.2219 -0.7605
  362SOL     OW 1984   3.474   3.599   1.767 -0.1342  0.1785  0.1351
  362SOL    HW1 1985   3.376   3.588   1.787  0.2159 -0.3775  1.7570
  362SOL    HW2 1986   3.525   3.522   1.807  0.9220  0.1418 -1.2042
  363SOL     OW 1987   5.127   4.461   3.787  0.6244  0.5806 -0.6037
  363SOL    HW1 1988   5.092   4.490   3.697  0.0304  1.7243 -0.0257
  363SOL    HW2 1989   5.190   4.530   3.822  0.2949  0.4966  0.1753
  364SOL     OW 1990   0.135   3.033   4.157  0.3555  0.8825 -0.2775
  364SOL    HW1 1991   0.172   3.081   4.078  1.1510  1.3815  0.3784
  364SOL    HW2 1992   0.057   3.084   4.193  1.2447  1.7715  0.4635
  365SOL     OW 1993   5.701   3.962   1.360  0.9084  0.3396 -0.3409
  365SOL    HW1 1994   5.772   3.910   1.312  1.0488 -0.2516  0.4791
  365SOL    HW2 1995   5.633   3.899   1.397  1.4622  0.6642  1.2936
  366SOL     OW 1996   5.063   0.863   5.550 -0.0727  0.7798  0.3606
  366SOL    HW1 1997   4.985   0.915   5.585 -0.5455  0.1441  0.2874
  366SOL    HW2 1998   5.033   0.770   5.527  0.6032  0.6733 -0.1320
  367SOL     OW 1999   4.159   4.950   1.669  0.7511  0.3497  0.8387
  367SOL    HW1 2000   4.110   5.011   1.607  0.7511 -0.9071 -0.4694
  367SOL    HW2 2001   4.106   4.865   1.680  1.4053  0.0176  1.4886
  368SOL     OW 2002   5.555   3.650   5.129 -0.1819 -0.3771  0.0126
  368SOL    HW1 2003   5.560   3.674   5.032 -1.4933 -0.4223 -0.0861
  368SOL    HW2 2004   5.461   3.661   5.161  0.1532 -0.7698  1.1805
  369SOL     OW 2005   0.446   6.246   0.177  0.0004  0.2561  0.4823
  369SOL    HW1 2006   0.372   6.271   0.113 -0.7288  2.3565  2.0140
  369SOL    HW2 2007   0.529   6.226   0.125 -0.4754  2.1748 -1.1666
  370SOL     OW 2008   2.687   2.581   5.706 -0.3632  0.3479  0.2625
  370SOL    HW1 2009   2.756   2.640   5.750 -1.3428  2.1738 -0.5173
  370SOL    HW2 2010   2.644   2.631   5.631 -1.5502 -1.2631 -0.1885
  371SOL     OW 2011   3.651   2.875   5.778 -0.2316 -0.4203 -0.5422
  371SOL    HW1 2012   3.631   2.842   5.686  1.0624 -0.9007 -0.6833
  371SOL    HW2 2013   3.626   2.805   5.845 -1.6754  0.1454 -0.4709
  372SOL     OW 2014   6.909   6.002   4.611 -0.5247  0.0219  0.3569
  372SOL    HW1 2015   6.920   5.904   4.593  0.0250  0.2069 -0.3924
  372SOL    HW2 2016   6.845   6.016   4.686 -2.5237 -0.8333 -1.1219
  373SOL     OW 2017   0.764   0.624   4.921  0.7435  0.0960 -0.8587
  373SOL    HW1 2018   0.744   0.692   4.851  0.7659  0.2363 -0.7289
  373SOL    HW2 2019   0.739   0.533   4.887 -0.8231  0.3402 -0.4306
  374SOL     OW 2020   2.898   1.564   1.856 -0.4548  0.1611  0.2694
  374SOL    HW1 2021   2.885   1.526   1.948 -1.0494 -0.8850 -0.2286
  374SOL    HW2 2022   2.972   1.631   1.858  0.3869 -0.7580  1.2686
  375SOL     OW 2023   2.114   3.832   2.801  0.4524  0.1806  0.1475
  375SOL    HW1 2024   2.113   3.794   2.709  1.0199 -1.4863  0.8137
  375SOL    HW2 2025   2.021   3.860   2.825  0.0253 -0.7324 -0.3846
  376SOL     OW 2026   3.262   2.118   5.549  0.0560  0.3853 -0.2956
  376SOL    HW1 2027   3.264   2.186   5.622  2.0395  0.4362 -0.3450
  376SOL    HW2 2028   3.263   2.165   5.460 -1.1043  0.3050 -0.3638
  377SOL     OW 2029   0.907   4.000   1.822 -0.4651  0.2144  0.3827
  377SOL    HW1 2030   0.970   4.068   1.785  0.5410 -1.7006 -1.6553
  377SOL    HW2 2031   0.959   3.928   1.868 -1.3295 -0.2695  0.6218
  378SOL     OW 2032   3.608   2.315   5.927 -0.2649 -0.6976  0.6488
  378SOL    HW1 2033   3.707   2.306   5.935 -0.2650 -2.8306 -0.7397
  378SOL    HW2 2034   3.577   2.393   5.980  2.1124 -0.1543  1.3655
  379SOL     OW 2035   2.856   3.754   1.776  0.3678  0.6496  0.6539
  379SOL    HW1 2036   2.897   3.692   1.709 -1.9611 -1.3554  0.9552
  379SOL    HW2 2037   2.915   3.758   1.857  1.3607  0.1285 -0.0144
  380SOL     OW 2038   3.513   0.942   2.266  0.3240 -0.4516  0.5022
  380SOL    HW1 2039   3.489   1.006   2.339  2.0587  0.2692  0.4947
  380SOL    HW2 2040   3.497   0.986   2.177 -1.9049 -1.3713  0.3725
  381SOL     OW 2041   6.321   5.329   1.865 -0.2944 -0.2870  0.3955
  381SOL    HW1 2042   6.417   5.317   1.841 -0.3225  1.6768 -0.8758
  381SOL    HW2 2043   6.275   5.240   1.864  1.2977 -1.1422  0.1455
  382SOL     OW 2044   6.137   7.006   5.297  0.6834 -0.5814 -0.3334
  382SOL    HW1 2045   6.079   7.020   5.377  0.2962 -0.4676 -0.6310
  382SOL    HW2 2046   6.108   6.924   5.249  0.2186 -0.0554 -0.9594
  383SOL     OW 2047   6.320   2.768   6.329  0.0482  0.0802  0.1632
  383SOL    HW1 2048   6.365   2.680   6.315 -0.0416 -0.1396  1.2099
  383SOL    HW2 2049   6.226   2.753   6.360  0.6696  0.5093  2.4112
  384SOL     OW 2050   5.278   4.756   4.961 -0.0961 -0.6267 -0.0984
  384SOL    HW1 2051   5.342   4.710   5.023  0.6093  0.8238  0.2945
  384SOL    HW2 2052   5.294   4.724   4.867  0.0701 -1.4878  0.2115
  385SOL     OW 2053   6.270   5.898   0.344 -0.0140 -0.1975  0.1317
  385SOL    HW1 2054   6.283   5.982   0.397 -0.0128 -0.7952  1.1186
  385SOL    HW2 2055   6.351   5.840   0.351 -0.0552 -0.3328 -0.4449
  386SOL     OW 2056   2.951   5.475   5.392 -0.2276  0.2278 -0.1722
  386SOL    HW1 2057   2.891   5.400   5.422 -1.9991  1.1841 -1.1266
  386SOL    HW2 2058   3.032   5.478   5.450  0.1212 -2.6702 -0.3619
  387SOL     OW 2059   0.917   4.878   3.268  0.2888  0.0942  0.2663
  387SOL    HW1 2060   0.872   4.841   3.350  0.4496 -0.5409  0.0685
  387SOL    HW2 2061   0.856   4.869   3.189  0.6069 -0.4033  0.0769
  388SOL     OW 2062   2.015   2.507   4.049 -0.2705  0.1419 -0.2602
  388SOL    HW1 2063   1.950   2.432   4.065 -0.0208  0.2303  1.3943
  388SOL    HW2 2064   2.098   2.471   4.006 -0.6445 -0.3123 -0.6100
  389SOL     OW 2065   3.465   3.925   0.976 -0.5245  0.1062  0.5402
  389SOL    HW1 2066   3.540   3.870   0.938 -1.1009  0.3558 -1.0279
  389SOL    HW2 2067   3.379   3.875   0.967 -0.5750 -0.2367  2.4530
  390SOL     OW 2068   2.721   2.101   6.686 -0.8467  0.2802 -0.7937
  390SOL    HW1 2069   2.784   2.034   6.725  0.1460  0.4992 -1.9693
  390SOL    HW2 2070   2.633   2.058   6.668  0.4355 -1.3993 -3.6413
  391SOL     OW 2071   1.796   4.325   6.201 -0.2208 -0.2656 -0.0139
  391SOL    HW1 2072   1.744   4.345   6.284 -0.3331 -2.7713  0.6091
  391SOL    HW2 2073   1.891   4.350   6.214  0.0411 -1.8626  1.4304
  392SOL     OW 2074   6.761   4.620   2.811 -0.2244  0.4912 -0.1585
  392SOL    HW1 2075   6.725   4.712   2.797  0.3235  0.7705  0.2620
  392SOL    HW2 2076   6.715   4.579   2.890 -1.4199 -0.1045 -1.1264
  393SOL     OW 2077   2.104   5.368   6.590  0.4143  0.2229  0.4250
  393SOL    HW1 2078   2.113   5.436   6.517 -0.0379 -0.2554 -0.0928
  393SOL    HW2 2079   2.011   5.329   6.587  0.7698 -0.6551  0.4931
  394SOL     OW 2080   6.662   3.382   5.847 -0.1199 -0.8141 -0.4157
  394SOL    HW1 2081   6.598   3.349   5.916  0.2971  0.4230  0.5962
  394SOL    HW2 2082   6.751   3.338   5.860  0.4130  0.5496  0.8835
  395SOL     OW 2083   4.476   6.112   0.875 -0.1842 -0.3295  0.2706
  395SOL    HW1 2084   4.446   6.169   0.798 -1.0787  3.4415  3.0915
  395SOL    HW2 2085   4.397   6.080   0.926  0.4183 -1.3171  0.6246
  396SOL     OW 2086   3.501   2.250   1.675  0.5756 -0.0399 -0.2813
  396SOL    HW1 2087   3.580   2.296   1.716  0.4280  0.7955 -0.9198
  396SOL    HW2 2088   3.491   2.279   1.580  0.3154 -1.1921 -0.6277
  397SOL     OW 2089   6.107   1.040   4.571 -0.3246  0.4746 -0.3001
  397SOL    HW1 2090   6.061   1.094   4.501 -0.1865  1.3955  0.2946
  397SOL    HW2 2091   6.172   0.978   4.528 -1.5676 -0.3149 -1.0999
  398SOL     OW 2092   0.233   4.322   3.735  0.1697 -0.7232  0.0407
  398SOL    HW1 2093   0.172   4.393   3.768  0.2383 -0.6249 -0.0451
  398SOL    HW2 2094   0.314   4.317   3.795 -0.0414 -1.0287  0.3079
  399SOL     OW 2095   6.116   6.417   3.496  0.4839  0.0577 -0.2133
  399SOL    HW1 2096   6.045   6.421   3.566  1.3541 -0.0978  0.7035
  399SOL    HW2 2097   6.150   6.510   3.478  1.7485 -0.0823  1.1815
  400SOL     OW 2098   1.214   6.490   4.400 -0.3208 -0.6467  0.6665
  400SOL    HW1 2099   1.114   6.488   4.411 -0.1952 -0.8450  1.9280
  400SOL    HW2 2100   1.255   6.423   4.462  0.5098 -1.8639 -1.1304
  401SOL     OW 2101   5.245   0.862   6.915  0.0252 -0.1805 -0.3137
  401SOL    HW1 2102   5.182   0.801   6.962 -1.2602  1.2224 -0.1583
  401SOL    HW2 2103   5.318   0.808   6.871  1.6424 -1.5648  3.6588
  402SOL     OW 2104   5.824   1.298   3.369  0.2982  0.2343 -0.2490
  402SOL    HW1 2105   5.888   1.375   3.362  0.0630  0.4862  0.3090
  402SOL    HW2 2106   5.737   1.330   3.408 -0.0436 -0.1780 -0.6584
  403SOL     OW 2107   3.768   1.469   6.433  0.7030  0.5775  0.0284
  403SOL    HW1 2108   3.782   1.566   6.415  0.3101  0.3037 -1.9758
  403SOL    HW2 2109   3.772   1.418   6.347  0.4245 -1.1351  0.9799
  404SOL     OW 2110   3.550   3.869   6.449 -0.1005 -0.0775 -0.2550
  404SOL    HW1 2111   3.612   3.945   6.472  0.4350 -0.3136 -0.8942
  404SOL    HW2 2112   3.492   3.895   6.372 -2.3602  0.9617  1.6624
  405SOL     OW 2113   1.583   3.537   2.203  0.4212  0.1945 -0.1556
  405SOL    HW1 2114   1.533   3.613   2.245  1.0017 -0.3070  1.5033
  405SOL    HW2 2115   1.547   3.450   2.238  0.2168 -0.2939 -1.5294
  406SOL     OW 2116   0.903   5.181   6.079  0.5826 -0.0492 -0.3403
  406SOL    HW1 2117   0.908   5.102   6.018 -0.0834 -0.5556  0.2498
  406SOL    HW2 2118   0.928   5.153   6.172 -1.5533 -0.0233  0.2781
  407SOL     OW 2119   2.405   2.229   3.782  0.4469  0.0284  0.8114
  407SOL    HW1 2120   2.349   2.158   3.824  0.3462  0.0875  0.7757
  407SOL    HW2 2121   2.467   2.187   3.715 -1.5329  0.2542 -1.3099
  408SOL     OW 2122   2.048   0.779   2.420 -0.2677 -0.5819  0.5772
  408SOL    HW1 2123   2.012   0.790   2.327  0.1364 -1.3998  0.3123
  408SOL    HW2 2124   1.974   0.754   2.482 -0.5375 -0.0415  0.4836
  409SOL     OW 2125   5.569   2.170   0.949  0.3957 -0.1254 -0.3808
  409SOL    HW1 2126   5.609   2.160   0.857 -2.5482  0.1613 -1.7949
  409SOL    HW2 2127   5.554   2.267   0.968  1.1809 -0.1696  0.5499
  410SOL     OW 2128   0.968   2.232   1.564  0.3174 -0.2797 -0.2238
  410SOL    HW1 2129   0.889   2.171   1.559 -1.7334  2.3082 -2.0771
  410SOL    HW2 2130   1.007   2.244   1.473  0.5322  1.2869  0.0485
  411SOL     OW 2131   5.932   0.740   1.627 -0.0071  0.1355  0.1236
  411SOL    HW1 2132   5.990   0.699   1.697  0.1037  0.3467  0.1573
  411SOL    HW2 2133   5.924   0.839   1.643 -1.8011 -0.1272  1.1309
  412SOL     OW 2134   2.509   5.481   2.478 -0.2809  0.0830  0.0541
  412SOL    HW1 2135   2.545   5.469   2.571  1.1719  1.2952 -0.3076
  412SOL    HW2 2136   2.418   5.521   2.484 -1.9155 -3.3816  1.0028
  413SOL     OW 2137   5.182   5.615   0.939 -0.3810  0.0214  0.0849
  413SOL    HW1 2138   5.202   5.621   0.841 -1.2599 -0.2815 -0.1249
  413SOL    HW2 2139   5.103   5.672   0.960 -0.1039  0.2031  0.6505
  414SOL     OW 2140   2.557   4.911   3.515 -0.0610  0.3143 -0.4317
  414SOL    HW1 2141   2.558   4.975   3.592  0.4860  2.4369 -2.1422
  414SOL    HW2 2142   2.514   4.825   3.545 -0.5747  1.3281  2.0003
  415SOL     OW 2143   1.042   1.147   1.015 -0.1248 -0.2946  0.4898
  415SOL    HW1 2144   0.999   1.111   0.932  2.1674  0.2208 -0.9988
  415SOL    HW2 2145   1.047   1.074   1.084 -0.9822 -1.0625 -0.2365
  416SOL     OW 2146   3.934   5.190   4.996 -0.4222 -0.1652  0.0399
  416SOL    HW1 2147   3.917   5.170   5.093  1.3343 -0.8943  0.2248
  416SOL    HW2 2148   3.852   5.232   4.957 -0.9525  0.7432  1.9902
  417SOL     OW 2149   2.631   0.750   6.934  0.4183 -0.1711  0.2409
  417SOL    HW1 2150   2.628   0.830   6.995 -0.3978  0.8462 -1.0875
  417SOL    HW2 2151   2.726   0.718   6.926  0.7682  0.7091  0.7258
  418SOL     OW 2152   2.366   0.906   5.823  0.2934  0.8413 -0.5481
  418SOL    HW1 2153   2.410   0.859   5.900 -0.3044  2.0950  0.6130
  418SOL    HW2 2154   2.342   1.000   5.851  3.1496  2.5929 -3.3448
  419SOL     OW 2155   0.770   5.565   0.647  0.0952  0.0825  0.2476
  419SOL    HW1 2156   0.815   5.648   0.680 -0.0129 -0.0523  0.7497
  419SOL    HW2 2157   0.832   5.514   0.588  0.2890  0.3375  0.2288
  420SOL     OW 2158   6.257   1.341   0.092  0.4436  0.1612 -0.3006
  420SOL    HW1 2159   6.275   1.426   0.043 -2.4399  1.4903  0.6967
  420SOL    HW2 2160   6.283   1.263   0.036 -0.2584  1.6468 -2.8343
  421SOL     OW 2161   6.942   3.782   6.978 -0.0776  0.1784 -0.1495
  421SOL    HW1 2162   6.948   3.688   7.011 -0.8041  0.6220  1.3021
  421SOL    HW2 2163   6.849   3.801   6.948 -0.2977  0.8611  0.9248
  422SOL     OW 2164   6.878   2.963   0.278  0.1796  0.1717  0.3348
  422SOL    HW1 2165   6.891   2.918   0.190 -1.8646  0.3744 -0.1049
  422SOL    HW2 2166   6.968   2.980   0.320  1.0961 -3.0289 -0.0751
  423SOL     OW 2167   1.774   0.564   5.695  0.6076  0.6104 -0.7115
  423SOL    HW1 2168   1.851   0.528   5.748  0.8021 -0.9601 -1.9752
  423SOL    HW2 2169   1.710   0.612   5.756  1.3913 -0.1363  0.7354
  424SOL     OW 2170   1.847   3.138   2.059 -0.0597 -0.4017  0.1702
  424SOL    HW1 2171   1.835   3.067   2.130 -0.1526 -0.3364  0.2200
  424SOL    HW2 2172   1.945   3.154   2.045  0.0677 -2.4070 -1.6994
  425SOL     OW 2173   5.728   2.797   3.020 -0.6380 -0.0912 -0.7355
  425SOL    HW1 2174   5.655   2.812   2.953  1.3971  0.7690 -2.9190
  425SOL    HW2 2175   5.752   2.700   3.022 -1.1789 -0.2248 -0.7546
  426SOL     OW 2176   1.375   3.201   5.680 -0.6902  0.0783 -0.2356
  426SOL    HW1 2177   1.430   3.282   5.661 -0.5764  0.1609  0.4506
  426SOL    HW2 2178   1.327   3.174   5.596 -1.0942  1.1237 -0.3599
  427SOL     OW 2179   4.746   4.921   5.350  0.1950 -0.4569 -0.3834
  427SOL    HW1 2180   4.754   4.823   5.332  2.1535 -0.1641 -1.3457
  427SOL    HW2 2181   4.778   4.972   5.271 -1.0087  0.9926  0.0187
  428SOL     OW 2182   3.733   5.676   3.789  0.1362 -0.1780 -0.4219
  428SOL    HW1 2183   3.716   5.682   3.887  1.0416 -1.3956 -0.1705
  428SOL    HW2 2184   3.821   5.718   3.768 -0.3511  0.6855 -0.8421
  429SOL     OW 2185   1.388   4.998   3.163  0.4963 -0.1764 -0.5513
  429SOL    HW1 2186   1.366   4.971   3.257 -0.6015  0.5911 -0.5658
  429SOL    HW2 2187   1.369   4.921   3.101  0.1119 -0.3062 -0.2761
  430SOL     OW 2188   2.523   6.370   5.322  0.3328 -0.0723 -0.7281
  430SOL    HW1 2189   2.538   6.350   5.418 -2.9942  1.0707  0.1715
  430SOL    HW2 2190   2.449   6.312   5.287  0.9708  0.0671 -2.4035
  431SOL     OW 2191   3.849   2.348   1.220  0.6407  0.4014  0.1242
  431SOL    HW1 2192   3.853   2.418   1.291 -0.4424  0.3017  0.3020
  431SOL    HW2 2193   3.872   2.259   1.260 -1.1048  0.1592  0.6346
  432SOL     OW 2194   0.890   2.048   0.486 -0.2092 -0.4421  0.3342
  432SOL    HW1 2195   0.951   2.122   0.512 -0.1950  0.2479 -1.4986
  432SOL    HW2 2196   0.944   1.968   0.459 -0.1915 -0.7223  1.1970
  433SOL     OW 2197   4.223   0.010   6.780  0.2198  0.1576 -1.1013
  433SOL    HW1 2198   4.315  -0.006   6.746  0.1400 -1.0841 -0.7808
  433SOL    HW2 2199   4.157  -0.001   6.706  0.3116  1.0781 -1.3381
  434SOL     OW 2200   2.590   5.139   5.957  0.1917  0.6501  0.3410
  434SOL    HW1 2201   2.633   5.051   5.936 -0.7171 -0.0470  1.2780
  434SOL    HW2 2202   2.492   5.125   5.973 -0.0567  1.9162  0.0549
  435SOL     OW 2203   3.014   2.178   3.708 -0.4282  0.0344 -0.0705
  435SOL    HW1 2204   2.959   2.261   3.706  1.5634  1.4613  0.8827
  435SOL    HW2 2205   3.050   2.160   3.616  0.7564  1.4188  0.0946
  436SOL     OW 2206   4.217   6.080   1.936  0.0913  0.1129  0.3193
  436SOL    HW1 2207   4.178   6.160   1.982 -4.9550 -1.9802  0.2597
  436SOL    HW2 2208   4.257   6.019   2.005  0.0777  0.7226  0.8824
  437SOL     OW 2209   0.651   0.993   6.585 -0.1348 -0.0931  0.2448
  437SOL    HW1 2210   0.744   0.986   6.550  1.1436  1.5998  3.0011
  437SOL    HW2 2211   0.627   1.090   6.597 -1.5550 -0.5392  1.2826
  438SOL     OW 2212   1.856   2.691   3.502 -0.3792  0.9362 -0.2576
  438SOL    HW1 2213   1.901   2.760   3.558  0.1228 -0.1268  0.7044
  438SOL    HW2 2214   1.768   2.666   3.543  0.3644 -0.4527  0.5906
  439SOL     OW 2215   5.219   6.262   3.886  0.1752  0.2723  0.0801
  439SOL    HW1 2216   5.254   6.181   3.839 -0.0175  0.7120 -0.8594
  439SOL    HW2 2217   5.289   6.334   3.884  0.7446 -0.1738  1.8136
  440SOL     OW 2218   4.842   1.600   6.485 -0.1241 -0.8530  0.0508
  440SOL    HW1 2219   4.772   1.667   6.459  0.0601 -0.8056 -0.3253
  440SOL    HW2 2220   4.834   1.580   6.582  0.3402  0.3554  0.3679
  441SOL     OW 2221   6.003   2.856   3.906 -0.5231 -0.8557 -0.1646
  441SOL    HW1 2222   6.084   2.829   3.853 -0.3420 -0.3045 -0.1775
  441SOL    HW2 2223   6.007   2.817   3.997 -0.9396 -1.9954 -0.6068
  442SOL     OW 2224   4.749   3.432   5.672  0.5403 -0.3680 -0.0691
  442SOL    HW1 2225   4.699   3.367   5.729 -1.0093  0.2932 -0.6252
  442SOL    HW2 2226   4.779   3.509   5.729  0.1774 -0.3561  0.1079
  443SOL     OW 2227   5.207   3.494   3.718  0.1993 -0.3378 -0.7577
  443SOL    HW1 2228   5.227   3.402   3.750  1.4567  0.4024  0.7669
  443SOL    HW2 2229   5.289   3.551   3.725 -0.6830  1.0468 -1.0751
  444SOL     OW 2230   3.442   1.843   4.251 -0.2093 -0.8455  0.6050
  444SOL    HW1 2231   3.457   1.923   4.310 -2.3407  0.1354 -0.0677
  444SOL    HW2 2232   3.443   1.872   4.155  0.9479 -2.0078  0.2440
  445SOL     OW 2233   0.769   6.261   1.951  0.0944 -0.0182  0.0377
  445SOL    HW1 2234   0.754   6.357   1.972  2.4409  1.3053 -3.4342
  445SOL    HW2 2235   0.708   6.233   1.876 -1.0362 -1.5437  1.4365
  446SOL     OW 2236   4.357   4.577   2.944  0.1236 -0.5403  0.4045
  446SOL    HW1 2237   4.315   4.645   3.004 -0.1908 -1.2839  1.0500
  446SOL    HW2 2238   4.404   4.508   2.999  2.1900  0.2484 -0.3056
  447SOL     OW 2239   0.506   2.283   6.076  0.1695 -0.3180  0.2134
  447SOL    HW1 2240   0.534   2.231   6.157  0.2271  0.4396  0.6859
  447SOL    HW2 2241   0.407   2.277   6.065  0.0295  0.4126  0.9426
  448SOL     OW 2242   0.896   0.939   2.699 -0.4892 -0.3051  0.3220
  448SOL    HW1 2243   0.806   0.946   2.744  0.2754 -0.4217  1.9483
  448SOL    HW2 2244   0.949   1.021   2.720 -0.6130  0.3273 -1.6357
  449SOL     OW 2245   2.229   1.107   2.786 -0.2738  0.0544 -0.0732
  449SOL    HW1 2246   2.250   1.064   2.874 -0.4668 -0.9369 -0.5005
  449SOL    HW2 2247   2.196   1.038   2.723 -1.6203  1.0251 -0.4529
  450SOL     OW 2248   2.431   4.421   3.350 -0.2137 -0.1291  0.0389
  450SOL    HW1 2249   2.513   4.473   3.324 -0.4292  0.0389 -0.3205
  450SOL    HW2 2250   2.420   4.343   3.288  0.0505 -0.5502  0.5136
  451SOL     OW 2251   1.910   1.851   4.377  0.5815  0.6535  0.0446
  451SOL    HW1 2252   1.854   1.934   4.383  2.0699  1.8103 -1.1775
  451SOL    HW2 2253   1.944   1.827   4.468 -1.2903  0.3070  0.7045
  452SOL     OW 2254   3.678   0.190   3.423 -0.1563  0.4392 -0.1076
  452SOL    HW1 2255   3.639   0.105   3.388 -1.6458  0.2068  1.9143
  452SOL    HW2 2256   3.620   0.267   3.396 -0.5418  0.4205  0.6427
  453SOL     OW 2257   4.711   0.145   1.877  0.0007 -0.1611  0.7329
  453SOL    HW1 2258   4.725   0.048   1.857 -0.5194  0.1440 -1.4012
  453SOL    HW2 2259   4.619   0.171   1.848  1.3410  1.7391 -2.3234
  454SOL     OW 2260   0.107   3.239   6.203  0.8373  0.3063 -0.5574
  454SOL    HW1 2261   0.188   3.227   6.261  0.4466  0.7189  0.0783
  454SOL    HW2 2262   0.133   3.226   6.107  1.3634 -1.0402 -0.2616
  455SOL     OW 2263   0.047   2.779   4.863 -0.1921 -0.3961  0.1804
  455SOL    HW1 2264   0.071   2.695   4.814  0.1446 -0.1268 -0.1238
  455SOL    HW2 2265  -0.048   2.803   4.843  0.4902  0.7882 -1.9805
  456SOL     OW 2266   1.425   6.726   4.051 -0.4645  0.1222  0.5043
  456SOL    HW1 2267   1.407   6.801   3.987 -0.9201 -0.7006 -0.3471
  456SOL    HW2 2268   1.523   6.722   4.071 -0.5604  1.6781  1.4953
  457SOL     OW 2269   1.333   4.624   4.034  0.4250 -0.3172  0.4173
  457SOL    HW1 2270   1.281   4.658   4.113  1.8812  3.7583 -0.1177
  457SOL    HW2 2271   1.409   4.568   4.067 -0.0284 -0.1835  1.7837
  458SOL     OW 2272   0.355   0.048   3.699 -0.3233  0.1863 -0.1196
  458SOL    HW1 2273   0.260   0.054   3.730 -0.4666  1.7456 -0.7694
  458SOL    HW2 2274   0.361   0.076   3.603  0.9360  1.3443  0.2596
  459SOL     OW 2275   2.444   2.535   4.163  0.2992 -0.0306 -0.5268
  459SOL    HW1 2276   2.409   2.627   4.149 -1.2362 -0.7166 -1.3827
  459SOL    HW2 2277   2.486   2.502   4.079  1.2939  0.0472 -0.0797
  460SOL     OW 2278   1.093   1.303   5.088  0.0000 -0.5060  0.5088
  460SOL    HW1 2279   1.161   1.319   5.016  0.7148 -0.8696  1.0882
  460SOL    HW2 2280   1.113   1.363   5.165 -1.0615  0.2384  0.2182
  461SOL     OW 2281   5.568   3.124   5.881 -0.4543 -0.0834  0.3851
  461SOL    HW1 2282   5.470   3.109   5.891 -0.4268 -0.1209  0.5963
  461SOL    HW2 2283   5.601   3.180   5.956 -0.6171  1.3713 -0.5935
  462SOL     OW 2284   3.361   3.035   5.666  0.6314  0.0082 -0.0501
  462SOL    HW1 2285   3.364   3.123   5.713  1.9235 -0.8342  1.5663
  462SOL    HW2 2286   3.281   2.984   5.696 -0.2096  0.6700 -1.1135
  463SOL     OW 2287   5.407   2.096   2.311 -0.4004 -0.1665 -0.1280
  463SOL    HW1 2288   5.424   2.180   2.259 -0.4074  0.0241  0.1713
  463SOL    HW2 2289   5.317   2.103   2.355 -0.3520 -0.2826 -0.0117
  464SOL     OW 2290   0.710   0.118   0.042 -0.5267  0.1034 -0.3706
  464SOL    HW1 2291   0.788   0.057   0.053  0.1458  1.0978  0.6154
  464SOL    HW2 2292   0.635   0.087   0.101 -0.5963 -0.3745 -0.6980
  465SOL     OW 2293   1.846   2.840   5.900  0.9101  0.3420  0.1427
  465SOL    HW1 2294   1.806   2.883   5.819  0.9185  0.9935  0.4832
  465SOL    HW2 2295   1.940   2.873   5.912  0.5380  1.1053  1.0482
  466SOL     OW 2296   3.554   5.971   3.075  0.4562  0.8192 -0.3546
  466SOL    HW1 2297   3.547   5.961   2.976  1.2481  0.1778 -0.3615
  466SOL    HW2 2298   3.525   5.886   3.119 -2.0589  1.8294  0.0990
  467SOL     OW 2299   0.232   2.822   0.770 -0.3217  0.3839 -0.0378
  467SOL    HW1 2300   0.313   2.809   0.713 -0.3381 -1.1115  0.2393
  467SOL    HW2 2301   0.254   2.882   0.846  1.3781 -2.1242  1.5983
  468SOL     OW 2302   5.514   0.130   5.567  0.4970 -0.4555  0.4998
  468SOL    HW1 2303   5.487   0.090   5.480 -0.4079 -0.0995  0.6027
  468SOL    HW2 2304   5.465   0.086   5.642 -1.3114  1.4527  0.5387
  469SOL     OW 2305   4.810   4.413   5.794 -0.3816  0.3481 -0.0655
  469SOL    HW1 2306   4.831   4.353   5.871  0.1929 -0.0752 -0.5480
  469SOL    HW2 2307   4.720   4.389   5.757 -1.0990  1.1794  1.0547
  470SOL     OW 2308   2.847   1.721   3.013  0.5675  0.2233 -0.3208
  470SOL    HW1 2309   2.844   1.624   2.987  1.6426 -0.2571  1.1707
  470SOL    HW2 2310   2.772   1.740   3.077  1.0804  0.0255  0.3634
  471SOL     OW 2311   3.790   2.146   4.548 -0.1214  0.6298 -0.0513
  471SOL    HW1 2312   3.776   2.172   4.644 -2.9245  2.3641 -0.8028
  471SOL    HW2 2313   3.762   2.052   4.535  1.5903 -0.0861  1.0248
  472SOL     OW 2314   6.952   4.176   1.489 -0.1200 -0.8172 -0.0650
  472SOL    HW1 2315   6.869   4.222   1.459 -0.6504 -1.5057  0.3434
  472SOL    HW2 2316   7.030   4.238   1.477 -0.8755  0.3574  0.9140
  473SOL     OW 2317   0.612   3.814   1.144  0.3430  0.1023 -0.3292
  473SOL    HW1 2318   0.598   3.854   1.235 -0.5372 -1.5866  0.3288
  473SOL    HW2 2319   0.684   3.744   1.149 -0.4740 -0.7763 -0.6737
  474SOL     OW 2320   4.571   5.153   6.356 -0.0728 -0.3274 -0.1750
  474SOL    HW1 2321   4.573   5.166   6.455  1.0074  0.6031 -0.2978
  474SOL    HW2 2322   4.494   5.204   6.318  0.1962  0.2850  0.0763
  475SOL     OW 2323   6.139   3.853   6.376  0.9076 -0.3658  0.4760
  475SOL    HW1 2324   6.072   3.789   6.414  1.3732 -0.9656  0.3039
  475SOL    HW2 2325   6.144   3.841   6.277 -0.9805  1.8350  0.0310
  476SOL     OW 2326   0.486   4.276   0.823 -0.2833 -0.2536  0.1775
  476SOL    HW1 2327   0.489   4.316   0.915 -1.3898  1.4450 -0.4699
  476SOL    HW2 2328   0.483   4.176   0.830  2.2236 -0.2808  1.8789
  477SOL     OW 2329   1.456   6.004   3.389  0.2724  0.3484  0.5972
  477SOL    HW1 2330   1.538   6.051   3.358 -0.7954 -0.1205 -3.6337
  477SOL    HW2 2331   1.400   6.067   3.444  2.6577  1.1379  2.2614
  478SOL     OW 2332   3.937   0.367   5.035  0.1637 -0.3402  0.3939
  478SOL    HW1 2333   3.847   0.405   5.010 -0.4226 -1.5679  0.5721
  478SOL    HW2 2334   3.926   0.304   5.112  1.4885  0.9606  1.7115
  479SOL     OW 2335   3.851   3.481   5.035  0.2384  0.0296 -0.1319
  479SOL    HW1 2336   3.884   3.550   5.098 -0.5149  2.2220 -2.0065
  479SOL    HW2 2337   3.900   3.395   5.050  0.8348  0.7719  2.6173
  480SOL     OW 2338   1.152   7.002   3.037 -0.4827 -0.2446 -0.1329
  480SOL    HW1 2339   1.063   6.969   3.069 -1.2255  1.3666 -0.4521
  480SOL    HW2 2340   1.143   7.037   2.944 -0.1188  2.2042  0.6773
  481SOL     OW 2341   0.145   5.192   1.608 -0.7109  0.5367  0.0277
  481SOL    HW1 2342   0.226   5.230   1.564 -1.3777  2.4039  0.3001
  481SOL    HW2 2343   0.101   5.127   1.546  0.6660 -0.0848 -0.3388
  482SOL     OW 2344   3.881   5.845   1.948 -0.7241 -0.2514 -0.4565
  482SOL    HW1 2345   3.970   5.799   1.944 -1.0770 -1.0038  0.0487
  482SOL    HW2 2346   3.854   5.857   2.043 -0.8779  0.5472 -0.5992
  483SOL     OW 2347   6.155   3.462   2.280 -0.8810  0.1945 -0.0451
  483SOL    HW1 2348   6.242   3.506   2.260 -0.8834 -0.2101 -0.9779
  483SOL    HW2 2349   6.083   3.503   2.224 -0.8096 -1.2533 -1.2619
  484SOL     OW 2350   2.539   2.448   3.901 -0.0943 -0.2384 -0.0379
  484SOL    HW1 2351   2.540   2.504   3.818 -0.2039 -0.1057  0.0502
  484SOL    HW2 2352   2.521   2.353   3.876  0.7441 -0.3476 -0.2504
  485SOL     OW 2353   5.617   4.439   3.158  0.1087  0.0761 -0.0290
  485SOL    HW1 2354   5.623   4.514   3.224  1.4586  0.1007 -0.1580
  485SOL    HW2 2355   5.612   4.352   3.207 -0.1332  0.1730  0.1160
  486SOL     OW 2356   5.907   1.198   6.408  0.3082 -0.2865  0.7032
  486SOL    HW1 2357   5.845   1.167   6.336  1.2581 -1.2964  0.3080
  486SOL    HW2 2358   5.999   1.165   6.390  1.1993  2.0218  0.7628
  487SOL     OW 2359   6.982   0.246   3.160  0.9442 -0.2897  0.6641
  487SOL    HW1 2360   6.968   0.159   3.113  2.0842 -0.4900  0.6886
  487SOL    HW2 2361   7.048   0.234   3.234  0.9849  0.5618  0.7728
  488SOL     OW 2362   1.860   0.311   5.435 -0.0142 -0.1225 -0.2205
  488SOL    HW1 2363   1.913   0.344   5.357 -1.1539  0.8525 -0.6257
  488SOL    HW2 2364   1.777   0.367   5.445 -0.3742 -0.8363  1.1102
  489SOL     OW 2365   5.231   4.331   4.988 -0.3679  0.0533 -0.3731
  489SOL    HW1 2366   5.195   4.255   5.042  0.6786 -0.6140 -0.5841
  489SOL    HW2 2367   5.307   4.373   5.037 -2.0971  2.2282  0.6372
  490SOL     OW 2368   0.835   5.860   5.587 -0.0742  0.2463 -0.1047
  490SOL    HW1 2369   0.929   5.847   5.553  0.3740 -0.4514  1.3074
  490SOL    HW2 2370   0.809   5.956   5.578  1.5508  0.8695  1.3039
  491SOL     OW 2371   1.202   3.063   0.210 -0.1640 -0.3060 -0.6444
  491SOL    HW1 2372   1.213   3.010   0.294 -1.0325  0.0861 -0.2688
  491SOL    HW2 2373   1.108   3.096   0.203  0.2513  0.8564 -1.0628
  492SOL     OW 2374   2.797   1.231   6.417 -0.0738  0.0598 -0.0925
  492SOL    HW1 2375   2.737   1.295   6.467  1.4575  1.0242  0.6028
  492SOL    HW2 2376   2.836   1.278   6.338 -0.6314 -0.7340 -0.8549
  493SOL     OW 2377   1.279   6.294   4.598 -0.5293  0.0915  0.8788
  493SOL    HW1 2378   1.301   6.310   4.694  0.1545 -2.4998  1.2116
  493SOL    HW2 2379   1.216   6.217   4.589  1.9132 -1.8962 -0.8168
  494SOL     OW 2380   2.207   2.594   5.877  0.1605 -0.8305  0.0584
  494SOL    HW1 2381   2.279   2.622   5.812  0.6892 -2.0904  0.0672
  494SOL    HW2 2382   2.250   2.559   5.960 -0.4508 -1.7822 -0.0146
  495SOL     OW 2383   4.641   6.880   5.407 -0.1788  0.8218  0.2588
  495SOL    HW1 2384   4.660   6.977   5.419 -1.2213  0.9911  0.6879
  495SOL    HW2 2385   4.696   6.827   5.471 -1.0336  1.2829  1.4199
  496SOL     OW 2386   0.411   0.320   1.313  0.5103 -0.6499  0.0374
  496SOL    HW1 2387   0.507   0.319   1.285  0.7798  1.6539  0.7141
  496SOL    HW2 2388   0.399   0.384   1.388 -1.8005  0.1351 -0.9165
  497SOL     OW 2389   2.945   1.008   5.242  0.1737 -0.1390  0.3489
  497SOL    HW1 2390   2.969   0.918   5.206 -0.1809 -0.5581  1.1302
  497SOL    HW2 2391   2.858   1.038   5.203  1.1226  0.6655 -1.2548
  498SOL     OW 2392   5.590   5.231   3.245  0.2614  0.4705  0.1578
  498SOL    HW1 2393   5.526   5.303   3.222 -1.0474 -0.4361  0.8202
  498SOL    HW2 2394   5.668   5.233   3.182 -0.3003  1.7253 -0.5247
  499SOL     OW 2395   2.777   5.878   5.620 -0.5102  0.2664  0.1025
  499SOL    HW1 2396   2.778   5.804   5.551 -2.4986 -0.2287  0.5460
  499SOL    HW2 2397   2.745   5.841   5.707 -0.4051  1.4319  0.6459
  500SOL     OW 2398   6.098   3.167   5.146  0.3021 -0.1607 -0.3468
  500SOL    HW1 2399   6.052   3.240   5.196 -0.5298 -0.8941 -0.0162
  500SOL    HW2 2400   6.103   3.085   5.203  0.4079 -0.6425 -1.0353
  501SOL     OW 2401   2.527   0.423   2.935  0.5507 -0.2565 -0.2824
  501SOL    HW1 2402   2.572   0.462   3.015  1.2583 -1.1585 -0.2241
  501SOL    HW2 2403   2.459   0.487   2.901  1.4151  0.8654  0.0272
  502SOL     OW 2404   0.823   4.160   6.875  0.5189  0.1927 -0.5412
  502SOL    HW1 2405   0.866   4.157   6.785  0.8861  0.5313 -0.3784
  502SOL    HW2 2406   0.783   4.071   6.895 -1.4055  0.6764 -1.9348
  503SOL     OW 2407   2.922   3.968   0.309  0.0462  0.6422 -0.5371
  503SOL    HW1 2408   2.901   3.936   0.402 -1.0823  0.7991 -0.7186
  503SOL    HW2 2409   3.021   3.973   0.297  0.3470 -2.9450 -0.5625
  504SOL     OW 2410   2.152   2.997   2.411  0.3183 -0.2107 -0.0243
  504SOL    HW1 2411   2.152   3.068   2.482 -0.4966 -0.0060 -0.2152
  504SOL    HW2 2412   2.237   2.945   2.416 -0.7118 -1.8705  2.7661
  505SOL     OW 2413   1.183   6.012   4.762 -0.0315 -0.1027 -0.4581
  505SOL    HW1 2414   1.172   6.100   4.810 -0.8273 -1.1135  1.3241
  505SOL    HW2 2415   1.280   5.991   4.755  0.1249 -0.2059  1.3660
  506SOL     OW 2416   2.394   4.433   2.715 -0.0938 -0.6152  0.7352
  506SOL    HW1 2417   2.323   4.496   2.684 -0.7792 -2.4371 -1.7252
  506SOL    HW2 2418   2.352   4.349   2.748  0.8585 -1.7267 -0.7443
  507SOL     OW 2419   2.977   0.960   4.569 -0.3653 -0.2967  0.5255
  507SOL    HW1 2420   2.912   0.887   4.587 -0.7318  0.4120  2.3482
  507SOL    HW2 2421   3.061   0.944   4.622 -0.2304  0.3128  0.5084
  508SOL     OW 2422   1.855   3.235   3.632 -0.1147 -0.3417 -0.5893
  508SOL    HW1 2423   1.801   3.194   3.706  0.6414  1.3687  1.0253
  508SOL    HW2 2424   1.952   3.233   3.657  0.3419 -1.1488 -2.3055
  509SOL     OW 2425   5.515   0.592   6.024  0.0633 -0.0215 -0.2610
  509SOL    HW1 2426   5.462   0.672   5.995 -2.3886 -0.1297  3.2250
  509SOL    HW2 2427   5.591   0.621   6.082 -1.5274 -0.0653  2.0087
  510SOL     OW 2428   6.250   4.361   0.272  0.3028  0.2555 -0.0242
  510SOL    HW1 2429   6.179   4.297   0.302  1.3262 -1.0162 -0.2297
  510SOL    HW2 2430   6.289   4.407   0.352 -0.4512  0.6581  0.1252
  511SOL     OW 2431   1.646   0.753   6.581  0.1839 -0.0467 -0.1466
  511SOL    HW1 2432   1.634   0.796   6.671 -0.2964  0.7920 -0.6031
  511SOL    HW2 2433   1.556   0.739   6.539  0.4513  0.3342 -0.8499
  512SOL     OW 2434   5.231   0.208   1.427  0.1531  0.6232  1.0769
  512SOL    HW1 2435   5.157   0.271   1.453  0.4998  0.5505  2.3042
  512SOL    HW2 2436   5.213   0.172   1.335 -0.7210  1.5109  0.8826
  513SOL     OW 2437   5.188   5.218   3.409  0.3203 -0.2089 -0.0717
  513SOL    HW1 2438   5.089   5.206   3.421 -0.1813  2.0317 -1.3005
  513SOL    HW2 2439   5.229   5.244   3.496 -0.1742 -1.0726  0.4320
  514SOL     OW 2440   0.006   1.443   2.335  0.0057  0.1009 -0.2862
  514SOL    HW1 2441   0.013   1.457   2.434  1.3549 -0.7849 -0.2336
  514SOL    HW2 2442   0.097   1.429   2.297 -0.2925  2.0870 -1.9312
  515SOL     OW 2443   2.889   6.774   6.294 -0.0503 -0.0934 -0.5118
  515SOL    HW1 2444   2.955   6.764   6.219  1.7387 -0.5266  1.0341
  515SOL    HW2 2445   2.837   6.690   6.305  2.4446 -1.5474  1.1374
  516SOL     OW 2446   2.561   5.683   1.447  0.3859 -0.4830  0.6660
  516SOL    HW1 2447   2.556   5.663   1.545  0.1806  1.1491  1.0180
  516SOL    HW2 2448   2.651   5.656   1.412  1.3802  1.1319  1.8588
  517SOL     OW 2449   4.055   5.385   2.091  0.5481 -1.2869 -0.0140
  517SOL    HW1 2450   4.039   5.330   2.173 -0.2459  0.2850  0.9281
  517SOL    HW2 2451   4.130   5.449   2.108 -0.8111  0.3072  0.1633
  518SOL     OW 2452   1.063   2.142   4.685  0.4703  0.2228 -0.0176
  518SOL    HW1 2453   0.964   2.150   4.688  0.5051  0.2583  1.3436
  518SOL    HW2 2454   1.104   2.231   4.665  0.2233  0.0681 -1.3282
  519SOL     OW 2455   0.060   6.285   5.254 -0.2349  0.1214  0.2351
  519SOL    HW1 2456   0.118   6.343   5.312  0.4877  0.1267 -0.4800
  519SOL    HW2 2457   0.023   6.339   5.179 -0.1729 -0.1672 -0.0050
  520SOL     OW 2458   6.247   3.072   6.270  0.4752 -0.1096 -0.1003
  520SOL    HW1 2459   6.188   3.122   6.333  0.4455  0.4264 -0.5437
  520SOL    HW2 2460   6.194   3.003   6.221  0.2039  0.4102 -0.5386
  521SOL     OW 2461   3.267   4.876   5.289 -0.6222  0.6059  0.1425
  521SOL    HW1 2462   3.225   4.933   5.218 -1.5794  2.7238  2.2542
  521SOL    HW2 2463   3.215   4.791   5.299  0.0455 -0.1564 -2.1930
  522SOL     OW 2464   3.347   4.783   1.679 -0.2727 -0.5513  0.0601
  522SOL    HW1 2465   3.427   4.753   1.731 -0.0884  0.7528  0.5566
  522SOL    HW2 2466   3.264   4.759   1.728 -0.1297 -0.3160  0.4171
  523SOL     OW 2467   0.661   6.075   1.067  0.1141  0.0913 -0.4257
  523SOL    HW1 2468   0.590   6.108   1.004  1.2278  2.1592 -0.6950
  523SOL    HW2 2469   0.633   5.987   1.106 -0.8436 -1.0486 -3.4107
  524SOL     OW 2470   6.599   2.818   1.670 -0.3538  0.0319  0.3696
  524SOL    HW1 2471   6.635   2.849   1.582 -0.2591 -0.4774  0.2254
  524SOL    HW2 2472   6.541   2.739   1.656 -2.3653  1.4118  0.4787
  525SOL     OW 2473   1.143   2.923   5.618 -0.0711 -0.1499  0.2040
  525SOL    HW1 2474   1.216   2.871   5.663 -0.7244 -2.7512 -1.4951
  525SOL    HW2 2475   1.177   2.961   5.533 -0.2734 -0.0173  0.1822
  526SOL     OW 2476   2.719   0.489   2.720 -0.0877  0.3150  0.3728
  526SOL    HW1 2477   2.701   0.416   2.786  0.6633  0.9647  1.3353
  526SOL    HW2 2478   2.655   0.564   2.736 -1.3658 -0.4068 -1.1130
  527SOL     OW 2479   1.583   1.568   4.414  0.4281 -0.1035  0.7541
  527SOL    HW1 2480   1.636   1.589   4.496  2.9357 -2.1611 -0.1743
  527SOL    HW2 2481   1.609   1.631   4.340 -1.7028  1.6385  1.3784
  528SOL     OW 2482   1.924   0.294   3.152 -0.5075  0.4074  0.5367
  528SOL    HW1 2483   1.868   0.363   3.105 -1.9440 -0.0506  1.5067
  528SOL    HW2 2484   1.969   0.236   3.084  0.7096  2.2375 -0.3025
  529SOL     OW 2485   1.090   1.436   4.654  0.0350 -0.1921  0.3436
  529SOL    HW1 2486   1.153   1.365   4.687 -1.1423 -0.2940  2.6144
  529SOL    HW2 2487   1.021   1.453   4.724 -1.2415  1.3933 -1.2237
  530SOL     OW 2488   4.924   3.333   2.320  0.7918 -0.0806 -0.2745
  530SOL    HW1 2489   4.852   3.345   2.251 -0.2716 -0.5285  0.7218
  530SOL    HW2 2490   4.995   3.402   2.307  1.1092 -0.7482 -2.4079
  531SOL     OW 2491   1.867   6.732   3.124  0.1046 -0.1224  0.4243
  531SOL    HW1 2492   1.945   6.779   3.166 -0.3291  1.5073 -0.5054
  531SOL    HW2 2493   1.786   6.745   3.181 -0.1190  0.6946 -0.0626
  532SOL     OW 2494   0.332   2.206   1.374  0.2092  0.2239  0.3460
  532SOL    HW1 2495   0.425   2.223   1.343 -0.0195 -0.0144 -0.5033
  532SOL    HW2 2496   0.320   2.243   1.466  1.1769  0.1321  0.5215
  533SOL     OW 2497   4.701   6.666   2.795 -0.2516  0.0050 -0.2707
  533SOL    HW1 2498   4.756   6.583   2.785 -2.9441 -1.8359 -0.6303
  533SOL    HW2 2499   4.667   6.695   2.705  0.9309  1.7971 -0.2117
  534SOL     OW 2500   6.726   0.352   2.011 -0.5658 -0.1553 -0.0299
  534SOL    HW1 2501   6.791   0.276   2.011 -0.9880 -0.5196 -0.3883
  534SOL    HW2 2502   6.702   0.375   1.917 -1.3874 -0.4026  0.1104
  535SOL     OW 2503   6.751   4.263   1.884  0.3949 -0.0780 -0.2115
  535SOL    HW1 2504   6.696   4.344   1.902  2.3178  1.3641 -0.4083
  535SOL    HW2 2505   6.815   4.247   1.959  1.1975 -0.3802 -0.9262
  536SOL     OW 2506   5.668   5.011   3.423 -0.0059 -0.0330 -0.2624
  536SOL    HW1 2507   5.655   5.091   3.365  0.8760  0.1248 -0.2544
  536SOL    HW2 2508   5.634   5.031   3.515  0.0718  0.2782 -0.2999
  537SOL     OW 2509   4.578   5.999   3.618 -0.0442 -0.7839  0.3403
  537SOL    HW1 2510   4.638   6.079   3.614  0.3096 -0.9246  2.2040
  537SOL    HW2 2511   4.602   5.942   3.697 -2.0699 -1.2997  0.6491
  538SOL     OW 2512   1.652   3.437   6.308  0.1791 -0.4771  0.0426
  538SOL    HW1 2513   1.581   3.419   6.377  0.6461  0.2932  0.7523
  538SOL    HW2 2514   1.643   3.372   6.233 -1.4389 -0.2389 -0.0178
  539SOL     OW 2515   1.863   6.620   1.228 -0.3677 -0.2311  0.2455
  539SOL    HW1 2516   1.776   6.670   1.235  0.4365  1.1773  0.5787
  539SOL    HW2 2517   1.850   6.527   1.262 -2.0644 -0.4771 -0.9832
  540SOL     OW 2518   2.955   1.984   3.513 -0.1365 -0.0453 -0.2457
  540SOL    HW1 2519   2.981   2.016   3.422 -0.7040 -0.6478 -0.6316
  540SOL    HW2 2520   2.884   1.913   3.504  0.4884 -0.7954  0.6142
  541SOL     OW 2521   4.545   0.083   3.461 -0.3907 -0.4403  0.0327
  541SOL    HW1 2522   4.607   0.160   3.479  0.2994 -0.7991 -0.7399
  541SOL    HW2 2523   4.454   0.117   3.438 -0.2574  0.1210  0.3298
  542SOL     OW 2524   2.663   6.534   5.702 -0.3125  0.3942  0.4044
  542SOL    HW1 2525   2.762   6.543   5.710 -0.4732  1.4151  1.4739
  542SOL    HW2 2526   2.639   6.437   5.697  0.6420  0.0593  1.7275
  543SOL     OW 2527   5.874   3.796   3.222  0.5306 -0.7302  0.0463
  543SOL    HW1 2528   5.838   3.832   3.308  0.1953  0.1289 -0.4404
  543SOL    HW2 2529   5.861   3.696   3.220  1.5474 -0.9140  1.4414
  544SOL     OW 2530   0.768   4.930   0.099  0.2091  0.2529  0.6763
  544SOL    HW1 2531   0.813   5.010   0.140 -1.1996  0.0565  2.7254
  544SOL    HW2 2532   0.802   4.847   0.142 -0.7378 -0.0153  0.9312
  545SOL     OW 2533   5.217   0.947   0.764  0.3774 -0.4639  0.2698
  545SOL    HW1 2534   5.296   1.007   0.783 -0.8912  1.1831  0.6052
  545SOL    HW2 2535   5.156   0.993   0.699 -1.6722 -0.4259  2.0961
  546SOL     OW 2536   6.855   2.320   1.940  0.2687 -0.1514 -0.6232
  546SOL    HW1 2537   6.870   2.355   1.848  3.5719 -1.8811 -0.9019
  546SOL    HW2 2538   6.942   2.290   1.979 -0.9576  0.8105  3.2526
  547SOL     OW 2539   3.353   2.985   1.415  0.4038  0.4852 -0.2462
  547SOL    HW1 2540   3.264   2.963   1.377  0.8156  1.1324 -1.6545
  547SOL    HW2 2541   3.342   3.052   1.489 -0.1828  1.8383 -1.4981
  548SOL     OW 2542   2.271   5.884   1.486 -0.0053 -0.2343  0.0878
  548SOL    HW1 2543   2.342   5.949   1.514 -0.0299 -0.6106  1.0626
  548SOL    HW2 2544   2.299   5.792   1.512 -0.7299 -0.4208  0.2095
  549SOL     OW 2545   5.091   2.483   2.353 -0.2934  0.0640  0.3914
  549SOL    HW1 2546   5.173   2.514   2.306  0.7069 -0.0967  1.9696
  549SOL    HW2 2547   5.065   2.392   2.320  0.0555  0.1957 -0.2412
  550SOL     OW 2548   1.007   5.816   2.718 -0.1688 -0.3108 -0.7470
  550SOL    HW1 2549   1.001   5.815   2.817 -1.5892  1.9376 -0.7412
  550SOL    HW2 2550   1.078   5.880   2.689 -0.1683 -0.5091 -1.1949
  551SOL     OW 2551   1.829   6.335   2.104 -0.1744  0.5064 -1.2264
  551SOL    HW1 2552   1.887   6.411   2.132  0.2575  1.0679 -3.4331
  551SOL    HW2 2553   1.874   6.248   2.127 -1.6179  0.7273  3.2549
  552SOL     OW 2554   5.111   2.909   4.621  0.6747 -0.6493  0.3776
  552SOL    HW1 2555   5.135   2.970   4.546  0.8817 -1.5693 -0.3172
  552SOL    HW2 2556   5.025   2.940   4.662  0.5339 -0.1547 -0.2680
  553SOL     OW 2557   3.228   5.530   4.381 -0.2554 -0.4359 -0.4620
  553SOL    HW1 2558   3.156   5.586   4.422 -0.1602  0.2977 -1.2808
  553SOL    HW2 2559   3.302   5.588   4.349  0.0127 -1.0588 -0.9967
  554SOL     OW 2560   4.584   6.860   1.711 -0.5982 -0.4022  0.3496
  554SOL    HW1 2561   4.609   6.821   1.623 -2.2243 -1.4105  0.2928
  554SOL    HW2 2562   4.666   6.899   1.755  0.2133  0.2464 -1.6213
  555SOL     OW 2563   2.650   4.416   6.247  0.4276  0.3115 -0.3362
  555SOL    HW1 2564   2.639   4.347   6.175 -2.5234  0.3447 -0.0398
  555SOL    HW2 2565   2.636   4.507   6.208  0.4063  0.4551  0.0055
  556SOL     OW 2566   3.422   0.870   4.360  0.1644 -0.0044  0.5642
  556SOL    HW1 2567   3.326   0.859   4.385 -0.4176  0.9223 -1.1263
  556SOL    HW2 2568   3.474   0.900   4.441 -1.2038  0.7227  1.2125
  557SOL     OW 2569   5.573   5.268   5.636  0.0312 -0.4367 -0.0547
  557SOL    HW1 2570   5.494   5.274   5.696  0.7061  1.1114  0.7585
  557SOL    HW2 2571   5.555   5.316   5.550  0.6093  1.3924  0.7996
  558SOL     OW 2572   3.179   3.208   4.445  0.1474  0.9355 -0.2857
  558SOL    HW1 2573   3.223   3.295   4.419 -0.7400  1.3287 -0.5005
  558SOL    HW2 2574   3.249   3.144   4.475  1.0069  1.1908 -1.6253
  559SOL     OW 2575   0.854   5.274   6.806 -0.2345  0.0307 -0.3897
  559SOL    HW1 2576   0.756   5.255   6.800  0.0180 -1.1005 -1.5435
  559SOL    HW2 2577   0.877   5.352   6.748 -0.3412 -0.2799 -0.8619
  560SOL     OW 2578   5.609   4.241   2.783  0.0057  0.5309  0.0962
  560SOL    HW1 2579   5.543   4.181   2.737  1.0230 -0.3338 -0.2664
  560SOL    HW2 2580   5.645   4.196   2.864  1.0508  0.4764 -0.3781
  561SOL     OW 2581   0.857   1.974   5.382  0.0832 -0.1136 -0.0562
  561SOL    HW1 2582   0.882   2.031   5.305 -0.4688  0.8815  0.4818
  561SOL    HW2 2583   0.888   2.016   5.467  0.8660 -1.2946  0.2774
  562SOL     OW 2584   3.681   1.892   4.549 -0.4363 -0.1326  0.2395
  562SOL    HW1 2585   3.604   1.913   4.608 -0.7102  0.7278 -0.3991
  562SOL    HW2 2586   3.656   1.815   4.489 -1.6956  1.5533 -1.5337
  563SOL     OW 2587   2.899   1.348   4.661 -0.1225  0.0217  0.1453
  563SOL    HW1 2588   2.891   1.420   4.730  0.5479 -0.8929  1.2020
  563SOL    HW2 2589   2.933   1.387   4.575  0.9794  0.8241  0.9305
  564SOL     OW 2590   1.624   4.203   0.110  0.1703 -0.1583  0.1205
  564SOL    HW1 2591   1.661   4.288   0.146 -2.3702  0.5534  1.2763
  564SOL    HW2 2592   1.672   4.179   0.025  0.6309  2.6918 -0.5361
  565SOL     OW 2593   3.054   3.062   3.097  0.1042 -0.7844 -0.0492
  565SOL    HW1 2594   3.091   3.067   3.189  0.6728 -0.6145 -0.2803
  565SOL    HW2 2595   3.026   2.968   3.077 -2.3024 -0.3818  1.1554
  566SOL     OW 2596   1.982   4.213   2.346  0.0599 -0.0725 -0.6856
  566SOL    HW1 2597   1.972   4.145   2.419 -0.3237  0.0245 -0.6463
  566SOL    HW2 2598   2.077   4.216   2.317 -0.0671 -1.2098 -1.2540
  567SOL     OW 2599   4.209   2.563   1.538 -0.0649  0.0568 -0.1850
  567SOL    HW1 2600   4.301   2.567   1.500  0.4744  0.8427  1.1570
  567SOL    HW2 2601   4.166   2.653   1.533 -0.1048  0.1012  0.7504
  568SOL     OW 2602   5.821   6.893   2.276  0.0127  0.0428  0.1570
  568SOL    HW1 2603   5.788   6.985   2.255 -1.0274 -0.3551 -0.0359
  568SOL    HW2 2604   5.920   6.894   2.286  0.0069  1.1848  0.1835
  569SOL     OW 2605   1.259   2.221   1.367 -0.0240 -0.3831  0.1092
  569SOL    HW1 2606   1.353   2.237   1.398  0.3390  2.3767 -1.9775
  569SOL    HW2 2607   1.203   2.300   1.390 -1.8257 -1.8831  1.0745
  570SOL     OW 2608   3.230   0.697   0.088 -0.2342  0.2637  0.3933
  570SOL    HW1 2609   3.171   0.710   0.167  0.0584  1.7124  0.3922
  570SOL    HW2 2610   3.278   0.782   0.066  0.0899 -0.2413 -1.0265
  571SOL     OW 2611   3.890   5.907   3.408  0.1840  0.3401 -0.6373
  571SOL    HW1 2612   3.927   5.823   3.368  0.1348  0.2629 -0.5220
  571SOL    HW2 2613   3.883   5.897   3.507 -1.8034 -0.3253 -0.8018
  572SOL     OW 2614   1.834   4.028   5.031  0.2733 -0.5984 -0.4022
  572SOL    HW1 2615   1.811   3.932   5.017  1.3229 -0.8585 -0.3861
  572SOL    HW2 2616   1.761   4.072   5.084  1.2115 -2.1430  2.3785
  573SOL     OW 2617   5.760   1.653   5.138  0.1271 -0.0651  0.0263
  573SOL    HW1 2618   5.827   1.579   5.150  0.4313  0.0946 -0.6577
  573SOL    HW2 2619   5.688   1.643   5.207  0.6606 -0.4480  0.5481
  574SOL     OW 2620   3.233   0.286   6.915 -0.0579 -0.1423 -0.6771
  574SOL    HW1 2621   3.231   0.229   6.998  0.6449 -0.4770 -0.8797
  574SOL    HW2 2622   3.152   0.268   6.860  1.1053 -2.5104 -1.7536
  575SOL     OW 2623   4.423   3.267   1.376 -0.3694  0.4355  0.5627
  575SOL    HW1 2624   4.461   3.204   1.308 -1.7713  0.4871 -0.3039
  575SOL    HW2 2625   4.471   3.255   1.463  0.9721 -0.1435 -0.2229
  576SOL     OW 2626   1.291   2.270   2.760  0.2349  0.0268  0.1521
  576SOL    HW1 2627   1.319   2.301   2.669  0.1814 -1.6056 -0.4376
  576SOL    HW2 2628   1.333   2.183   2.781  1.4511  1.0683  2.3630
  577SOL     OW 2629   0.438   0.083   4.135 -0.1366  0.2236 -0.5675
  577SOL    HW1 2630   0.445   0.178   4.165  0.5658  0.0338 -0.0823
  577SOL    HW2 2631   0.344   0.062   4.110 -0.2867  1.0561 -0.7171
  578SOL     OW 2632   4.794   4.649   4.360 -0.4767 -0.3409 -0.2842
  578SOL    HW1 2633   4.822   4.553   4.359 -0.0397 -0.2582  1.3962
  578SOL    HW2 2634   4.811   4.688   4.450 -0.0282  1.5165 -1.1241
  579SOL     OW 2635   2.241   2.720   3.767  0.1621 -0.2318 -0.1072
  579SOL    HW1 2636   2.267   2.629   3.735  0.7583 -0.2911  0.5168
  579SOL    HW2 2637   2.147   2.719   3.798  0.2212 -0.6836  0.0663
  580SOL     OW 2638   4.432   5.962   5.540  0.2794 -0.4067  0.6509
  580SOL    HW1 2639   4.431   5.891   5.610 -0.3876  0.8788  1.9957
  580SOL    HW2 2640   4.452   6.050   5.582 -1.0783  0.5558 -0.6312
  581SOL     OW 2641   2.527   4.577   2.969  0.2022 -0.2139 -0.1532
  581SOL    HW1 2642   2.513   4.675   2.977  2.0538 -0.0321  1.5280
  581SOL    HW2 2643   2.495   4.545   2.880 -1.3243  1.7190 -0.3483
  582SOL     OW 2644   4.818   5.569   3.063  0.1152 -0.0031  0.7832
  582SOL    HW1 2645   4.863   5.545   3.149  1.6284  2.1254  0.6692
  582SOL    HW2 2646   4.822   5.668   3.050  0.0551 -0.2738 -1.8022
  583SOL     OW 2647   1.677   5.244   5.287  0.3136  0.0623 -0.9055
  583SOL    HW1 2648   1.577   5.238   5.290  0.3152  0.1506 -0.5957
  583SOL    HW2 2649   1.704   5.340   5.282  0.3736  0.0158 -1.5238
  584SOL     OW 2650   5.135   0.084   5.582 -0.5290  0.4457  0.1527
  584SOL    HW1 2651   5.050   0.089   5.529  0.8855  1.7667 -2.1697
  584SOL    HW2 2652   5.207   0.044   5.525  0.1753 -1.9487  2.5147
  585SOL     OW 2653   3.379   0.113   0.449 -0.7396  0.7478 -0.0108
  585SOL    HW1 2654   3.295   0.131   0.399  1.1253  0.9562 -3.3956
  585SOL    HW2 2655   3.361   0.051   0.525 -3.9040  0.8958 -0.5304
  586SOL     OW 2656   5.056   2.408   0.952 -0.0859  0.3750  0.5006
  586SOL    HW1 2657   5.029   2.481   0.888  0.0721  0.3331  0.3839
  586SOL    HW2 2658   5.135   2.439   1.005  2.2763 -0.9644 -1.9951
  587SOL     OW 2659   5.603   1.575   1.473 -0.8416  0.3542  0.5160
  587SOL    HW1 2660   5.656   1.510   1.527 -0.4186  0.3626  0.1082
  587SOL    HW2 2661   5.585   1.537   1.382 -1.3113  0.4598  0.5591
  588SOL     OW 2662   2.734   4.750   1.757 -0.4923  0.7237  0.5226
  588SOL    HW1 2663   2.757   4.664   1.801  3.2284  1.6072  0.6494
  588SOL    HW2 2664   2.686   4.809   1.822  0.0441  0.0120  1.5971
  589SOL     OW 2665   3.132   5.358   1.826 -0.3996  0.7813 -0.2621
  589SOL    HW1 2666   3.223   5.400   1.834 -0.8823  1.6417  1.0715
  589SOL    HW2 2667   3.120   5.291   1.899 -0.1936 -0.6751 -1.5113
  590SOL     OW 2668   5.698   1.152   1.835  0.5445 -0.4570 -0.2161
  590SOL    HW1 2669   5.741   1.186   1.919 -0.2068  1.1592 -0.4513
  590SOL    HW2 2670   5.602   1.133   1.853  0.8266 -2.0941 -0.2238
  591SOL     OW 2671   2.436   5.522   3.429 -0.0194  0.5844 -0.4104
  591SOL    HW1 2672   2.405   5.487   3.341  1.3351  0.4190 -0.8435
  591SOL    HW2 2673   2.359   5.524   3.493 -0.6105 -1.0811 -1.0226
  592SOL     OW 2674   3.766   1.227   2.980 -0.4274  0.0895  0.0557
  592SOL    HW1 2675   3.708   1.276   2.916 -1.4116  0.5431  1.2564
  592SOL    HW2 2676   3.833   1.290   3.021 -1.2788  0.3284  1.1267
  593SOL     OW 2677   0.994   2.819   3.880 -0.1219  0.1181 -0.2496
  593SOL    HW1 2678   0.898   2.848   3.881 -0.7030 -1.5278 -2.0060
  593SOL    HW2 2679   1.043   2.868   3.807 -0.0247 -0.1157 -0.3440
  594SOL     OW 2680   5.729   6.831   1.144 -0.0487 -0.2531  0.4317
  594SOL    HW1 2681   5.651   6.884   1.177 -0.5850 -0.6274 -0.2095
  594SOL    HW2 2682   5.805   6.893   1.123 -0.5451  0.2324  0.0396
  595SOL     OW 2683   5.401   6.764   4.897  0.4354  0.2741  0.0262
  595SOL    HW1 2684   5.429   6.679   4.942  0.9196  0.4601  0.0812
  595SOL    HW2 2685   5.304   6.758   4.873  0.0726  0.2835  1.3772
  596SOL     OW 2686   5.848   5.910   3.835  0.6236  0.2363  0.5885
  596SOL    HW1 2687   5.866   5.837   3.901  2.5829 -0.1485 -0.3211
  596SOL    HW2 2688   5.921   5.913   3.768  1.0550  3.5776  1.0556
  597SOL     OW 2689   4.269   0.186   5.159  0.2447 -0.3473  0.2639
  597SOL    HW1 2690   4.363   0.155   5.143  0.9334  1.1730  1.0928
  597SOL    HW2 2691   4.215   0.111   5.195  1.9105 -0.5848  2.5226
  598SOL     OW 2692   3.789   3.426   3.245  0.2279 -0.4851  0.1414
  598SOL    HW1 2693   3.785   3.494   3.172  1.4714 -0.0305  0.4722
  598SOL    HW2 2694   3.747   3.341   3.214  0.0385 -0.0572 -0.8151
  599SOL     OW 2695   2.791   5.668   2.438  0.6927  0.3592 -0.4989
  599SOL    HW1 2696   2.873   5.711   2.401 -0.1339  3.5508  0.9615
  599SOL    HW2 2697   2.792   5.676   2.538 -0.7291 -0.8086 -0.3572
  600SOL     OW 2698   5.623   1.054   0.994  0.4520  0.3847 -0.3165
  600SOL    HW1 2699   5.573   1.099   0.920 -0.5454  0.5892  0.4578
  600SOL    HW2 2700   5.666   0.971   0.960  0.3748  0.7049 -1.2250
  601SOL     OW 2701   0.174   1.638   4.221 -0.4224  0.4415 -0.2728
  601SOL    HW1 2702   0.272   1.651   4.237 -0.4394  1.1450 -0.6986
  601SOL    HW2 2703   0.123   1.680   4.296 -0.4603  2.5231 -1.3803
  602SOL     OW 2704   2.149   0.954   0.020  0.4016 -0.1801 -0.1595
  602SOL    HW1 2705   2.195   1.019   0.080  0.3181  0.3308 -0.6389
  602SOL    HW2 2706   2.086   0.898   0.073  0.5754  0.0354  0.2817
  603SOL     OW 2707   1.381   2.147   5.878 -0.7887  0.0020  0.1142
  603SOL    HW1 2708   1.329   2.231   5.867  1.5833  1.4598 -0.8908
  603SOL    HW2 2709   1.475   2.162   5.847 -0.4059 -3.2113 -0.6414
  604SOL     OW 2710   1.717   2.641   1.178  0.1785  0.0314 -0.2032
  604SOL    HW1 2711   1.676   2.561   1.223  1.2022  0.1699  1.0461
  604SOL    HW2 2712   1.670   2.658   1.092 -1.3386 -0.7442  0.4238
  605SOL     OW 2713   6.644   5.269   0.807  0.0505 -0.2482 -0.2870
  605SOL    HW1 2714   6.576   5.342   0.813 -0.4362 -0.7292  0.1273
  605SOL    HW2 2715   6.729   5.299   0.850  0.1461  0.3950 -0.8967
  606SOL     OW 2716   3.883   6.866   6.099  0.0258 -0.4731  0.1547
  606SOL    HW1 2717   3.848   6.938   6.158  0.6599 -0.4803  0.5508
  606SOL    HW2 2718   3.981   6.853   6.117  0.2219 -0.4927 -0.8674
  607SOL     OW 2719   7.022   4.893   5.860  0.0467 -0.0522  0.3392
  607SOL    HW1 2720   6.959   4.967   5.886  0.7729  0.9230 -0.5922
  607SOL    HW2 2721   7.109   4.906   5.907 -0.0517 -0.7508  0.7342
  608SOL     OW 2722   4.157   6.321   1.064 -0.4780  0.7526  0.1678
  608SOL    HW1 2723   4.117   6.412   1.062 -1.5012  0.2989 -1.2723
  608SOL    HW2 2724   4.184   6.294   0.971  1.3714  0.2440  0.8058
  609SOL     OW 2725   2.669   2.313   1.580  0.6493  0.7523 -0.5483
  609SOL    HW1 2726   2.628   2.308   1.671  0.4219 -0.8459 -0.7220
  609SOL    HW2 2727   2.768   2.311   1.588  0.6226  0.2236 -0.3555
  610SOL     OW 2728   6.021   4.370   5.064 -0.1945  0.0443 -0.0505
  610SOL    HW1 2729   6.063   4.432   5.130 -0.3601  0.8014 -0.6505
  610SOL    HW2 2730   5.925   4.393   5.053 -0.3012 -0.4339 -0.1567
  611SOL     OW 2731   3.025   6.655   3.807  0.5325  0.4012 -0.2448
  611SOL    HW1 2732   3.040   6.744   3.764  0.2932  0.3207 -0.4907
  611SOL    HW2 2733   2.943   6.659   3.865  1.1169  0.6481  0.5855
  612SOL     OW 2734   4.128   5.637   4.404 -0.3162  0.1375 -0.1223
  612SOL    HW1 2735   4.056   5.671   4.464 -0.9993  0.8550 -1.3243
  612SOL    HW2 2736   4.088   5.582   4.331  0.4137 -0.0059 -0.4229
  613SOL     OW 2737   5.362   4.995   5.504 -0.5431  0.3966  0.0883
  613SOL    HW1 2738   5.312   5.026   5.423 -0.3888 -0.0972 -0.1983
  613SOL    HW2 2739   5.445   5.049   5.515 -0.7089  0.6567  0.0872
  614SOL     OW 2740   5.465   5.030   4.009 -0.2247  0.0903 -0.1578
  614SOL    HW1 2741   5.544   5.049   3.950 -0.6022 -2.4231 -1.6433
  614SOL    HW2 2742   5.448   4.931   4.010 -2.3325  0.4024  1.5078
  615SOL     OW 2743   7.014   0.363   2.912 -0.4132  0.4000 -0.2358
  615SOL    HW1 2744   7.040   0.283   2.858  1.3025  2.6035 -2.9279
  615SOL    HW2 2745   7.008   0.338   3.009  1.6718 -2.5912 -0.7688
  616SOL     OW 2746   3.255   1.393   0.865 -0.2860  0.0688  0.4603
  616SOL    HW1 2747   3.317   1.471   0.877 -0.5659  0.3452  0.1370
  616SOL    HW2 2748   3.184   1.418   0.800 -0.1550 -0.5939  0.0626
  617SOL     OW 2749   0.086   4.448   0.189 -0.3347  0.6787  0.3165
  617SOL    HW1 2750   0.054   4.517   0.123  0.7043  0.4399 -0.4712
  617SOL    HW2 2751   0.145   4.383   0.142 -1.4167 -0.8616  1.0130
  618SOL     OW 2752   1.383   4.447   1.520  0.5663 -0.4996  0.8248
  618SOL    HW1 2753   1.404   4.357   1.482  0.0466 -0.2162 -0.1443
  618SOL    HW2 2754   1.342   4.504   1.450  2.8429  1.2232  0.7884
  619SOL     OW 2755   3.544   1.763   2.013  0.2035  0.4652 -0.6062
  619SOL    HW1 2756   3.574   1.709   1.935  0.9783 -2.7498  1.6928
  619SOL    HW2 2757   3.461   1.723   2.052 -0.3173  2.1332  0.0758
  620SOL     OW 2758   5.681   3.356   5.991  0.4009  0.1584 -0.1895
  620SOL    HW1 2759   5.745   3.401   6.054 -0.6676  1.1253  0.2455
  620SOL    HW2 2760   5.719   3.358   5.899  2.0965 -1.4649  0.3957
  621SOL     OW 2761   4.565   3.991   5.630 -0.0890 -0.0680 -0.3379
  621SOL    HW1 2762   4.531   4.076   5.670 -0.0038  0.3182 -1.0697
  621SOL    HW2 2763   4.488   3.928   5.615 -0.2937  0.2580 -0.6794
  622SOL     OW 2764   1.057   0.079   6.316 -0.4822  0.1993 -0.0492
  622SOL    HW1 2765   1.154   0.100   6.326 -0.1641 -0.3194 -1.7586
  622SOL    HW2 2766   1.025   0.030   6.397  1.2535 -1.6302 -0.3929
  623SOL     OW 2767   2.041   6.627   3.810 -0.3115 -0.3216  0.3725
  623SOL    HW1 2768   2.085   6.699   3.864 -2.3481  0.8158  0.6224
  623SOL    HW2 2769   2.048   6.541   3.859  0.8975 -0.0266  0.7676
  624SOL     OW 2770   1.161   3.058   1.151 -0.5781  1.0847 -0.1725
  624SOL    HW1 2771   1.117   3.045   1.062  0.3788  1.5381 -0.7368
  624SOL    HW2 2772   1.228   3.133   1.144  2.2929 -1.2933 -0.1363
  625SOL     OW 2773   2.277   6.382   0.168  0.1458 -0.1443  0.2573
  625SOL    HW1 2774   2.266   6.311   0.099 -0.2614  0.3254 -0.1763
  625SOL    HW2 2775   2.373   6.407   0.176  0.1869 -0.1651 -0.1792
  626SOL     OW 2776   2.014   0.077   4.366 -0.1116 -0.3910 -0.2449
  626SOL    HW1 2777   1.931   0.103   4.317 -0.2069  1.0103  0.6043
  626SOL    HW2 2778   2.032  -0.020   4.351 -1.7395 -0.6634 -0.6788
  627SOL     OW 2779   4.007   1.909   2.224  0.0379  0.8745  0.3354
  627SOL    HW1 2780   3.913   1.886   2.200  0.7139 -1.7260 -0.1572
  627SOL    HW2 2781   4.025   1.882   2.318  0.1333  2.0382  0.6739
  628SOL     OW 2782   3.349   4.725   5.948 -0.0896  0.0916  0.0610
  628SOL    HW1 2783   3.350   4.774   5.861 -0.1402 -1.4207 -0.8277
  628SOL    HW2 2784   3.289   4.645   5.941  0.4946 -0.4842  1.2245
  629SOL     OW 2785   6.780   5.403   1.206 -0.7781 -0.3468  0.4174
  629SOL    HW1 2786   6.794   5.502   1.208 -2.3123  0.1036 -3.0430
  629SOL    HW2 2787   6.763   5.369   1.299  0.8791  2.4014  1.8326
  630SOL     OW 2788   6.396   1.354   2.710 -0.6092  0.3027 -0.4464
  630SOL    HW1 2789   6.465   1.413   2.668 -0.6931  2.1570  1.8149
  630SOL    HW2 2790   6.441   1.278   2.759 -0.4823 -1.3535 -2.9656
  631SOL     OW 2791   2.539   5.056   4.853 -0.4249  0.3692  0.1764
  631SOL    HW1 2792   2.446   5.035   4.885  0.0650 -0.2993  1.2546
  631SOL    HW2 2793   2.599   4.978   4.872  0.3873  0.8311 -0.4034
  632SOL     OW 2794   4.367   1.177   6.692 -0.4498 -0.2621  0.4494
  632SOL    HW1 2795   4.335   1.178   6.787 -0.5938  0.6881  0.3983
  632SOL    HW2 2796   4.467   1.181   6.691 -0.4602  0.0242  0.5547
  633SOL     OW 2797   3.332   0.735   1.273 -0.2159  0.2686  0.2176
  633SOL    HW1 2798   3.342   0.808   1.205  0.1997  0.3174  0.3326
  633SOL    HW2 2799   3.348   0.771   1.364 -0.3397  0.1048  0.3049
  634SOL     OW 2800   4.546   5.552   2.000  0.4232  0.3349 -0.0823
  634SOL    HW1 2801   4.616   5.499   1.953  0.6308  0.3300  0.2313
  634SOL    HW2 2802   4.458   5.505   1.994  0.4161  0.4128 -0.6011
  635SOL     OW 2803   3.000   1.235   2.097 -0.1083 -0.1080  0.0204
  635SOL    HW1 2804   2.913   1.191   2.076  0.9079 -2.5207  0.5890
  635SOL    HW2 2805   2.983   1.327   2.132 -2.2863  0.2733 -1.8023
  636SOL     OW 2806   5.303   6.677   6.904 -0.3590 -0.5799 -0.3101
  636SOL    HW1 2807   5.277   6.753   6.964 -0.7539 -0.1047 -1.0620
  636SOL    HW2 2808   5.327   6.713   6.814  0.9764 -1.2165 -0.2272
  637SOL     OW 2809   0.095   3.969   1.338  0.1867  0.3215  0.1178
  637SOL    HW1 2810   0.050   3.906   1.401  0.2705  0.9501  0.8339
  637SOL    HW2 2811   0.193   3.949   1.335  0.0179 -0.4470 -0.7195
  638SOL     OW 2812   4.670   2.907   0.271 -0.2552  0.1544 -0.0989
  638SOL    HW1 2813   4.581   2.917   0.226 -0.7150 -2.2748  0.1518
  638SOL    HW2 2814   4.658   2.861   0.359  1.2651 -0.3834 -0.1384
  639SOL     OW 2815   0.293   3.171   2.710  0.2243 -1.0676  0.4615
  639SOL    HW1 2816   0.218   3.157   2.775  1.1754  0.2180  1.9027
  639SOL    HW2 2817   0.256   3.190   2.619 -1.1449 -2.2996  0.7275
  640SOL     OW 2818   0.095   2.230   4.697  0.0716  0.0105  0.3576
  640SOL    HW1 2819   0.154   2.151   4.681  0.3706  0.4391 -0.7330
  640SOL    HW2 2820  -0.001   2.202   4.690  0.1660 -0.3898  0.6499
  641SOL     OW 2821   6.198   4.102   3.016 -0.2287  0.1052 -0.1437
  641SOL    HW1 2822   6.270   4.105   2.947 -0.4003  0.4086 -0.3110
  641SOL    HW2 2823   6.218   4.169   3.088 -0.9293  1.0297 -0.7789
  642SOL     OW 2824   0.873   3.612   4.302  0.4776 -0.1921  0.2387
  642SOL    HW1 2825   0.897   3.515   4.308  0.3667 -0.3516 -1.4012
  642SOL    HW2 2826   0.779   3.624   4.334  0.4002 -0.6774  0.2064
  643SOL     OW 2827   4.780   5.126   3.930 -0.4406  0.2230  0.0919
  643SOL    HW1 2828   4.734   5.040   3.952  0.8634 -0.8788 -1.2526
  643SOL    HW2 2829   4.772   5.144   3.832  0.7424  0.7326  0.0688
  644SOL     OW 2830   2.558   5.709   3.577 -0.1081 -0.2779 -0.3413
  644SOL    HW1 2831   2.512   5.646   3.514 -2.0396  2.4048 -1.7907
  644SOL    HW2 2832   2.634   5.754   3.529  0.9746 -1.0851  0.5508
  645SOL     OW 2833   6.850   3.026   2.962  0.1219 -0.4525 -0.0899
  645SOL    HW1 2834   6.816   2.939   2.998 -0.7172 -0.8919 -1.8421
  645SOL    HW2 2835   6.950   3.023   2.956  0.1079 -1.2598 -0.0212
  646SOL     OW 2836   2.535   1.138   4.335  0.1121 -0.5310 -0.1000
  646SOL    HW1 2837   2.604   1.087   4.283  2.0480  0.0241  1.7936
  646SOL    HW2 2838   2.490   1.077   4.400  0.8669 -0.3254  0.6331
  647SOL     OW 2839   6.382   3.521   5.550  0.7603 -0.0978  0.4913
  647SOL    HW1 2840   6.345   3.428   5.553  1.1470 -0.2634  0.2136
  647SOL    HW2 2841   6.405   3.551   5.643 -1.3867  0.5582  0.8634
  648SOL     OW 2842   1.281   3.686   2.847  0.2529  0.3941  0.1134
  648SOL    HW1 2843   1.212   3.749   2.812 -0.1236 -0.5318 -0.8520
  648SOL    HW2 2844   1.245   3.593   2.847  1.7873 -0.2715 -1.3191
  649SOL     OW 2845   2.836   2.962   1.389 -0.1448  0.2161  0.2001
  649SOL    HW1 2846   2.817   2.868   1.363  2.3406 -0.8381  1.8603
  649SOL    HW2 2847   2.767   2.993   1.455 -0.5362 -0.7132  0.2418
  650SOL     OW 2848   3.530   3.926   0.585 -0.2693  0.2556  0.5182
  650SOL    HW1 2849   3.608   3.987   0.597 -0.4948  1.3504 -2.5045
  650SOL    HW2 2850   3.447   3.972   0.618 -0.2196  1.0213 -0.3691
  651SOL     OW 2851   1.320   0.686   5.936  0.0353  0.2796  0.6893
  651SOL    HW1 2852   1.237   0.661   5.887 -0.0594  0.3263  0.8254
  651SOL    HW2 2853   1.296   0.739   6.018  0.2333  0.8267  0.3978
  652SOL     OW 2854   4.443   1.249   4.043 -0.0277  0.5697  0.3256
  652SOL    HW1 2855   4.537   1.230   4.017 -1.1907 -2.8230 -2.0983
  652SOL    HW2 2856   4.424   1.207   4.132  0.6218  0.9462  0.6476
  653SOL     OW 2857   3.400   5.131   4.579 -0.0309 -0.2795  0.8974
  653SOL    HW1 2858   3.360   5.089   4.660  1.4800 -0.8201  1.3831
  653SOL    HW2 2859   3.354   5.095   4.497  0.6860 -2.3330  1.3367
  654SOL     OW 2860   4.798   5.395   0.323  0.5362  0.2471  0.1947
  654SOL    HW1 2861   4.850   5.477   0.346  0.0994  0.6150 -0.1063
  654SOL    HW2 2862   4.785   5.390   0.224  0.8959 -0.3978  0.1728
  655SOL     OW 2863   0.022   0.203   0.514 -0.6600 -0.5621 -0.3869
  655SOL    HW1 2864  -0.057   0.141   0.511  0.8210 -2.6234  0.7052
  655SOL    HW2 2865   0.005   0.276   0.580 -1.0060 -2.0236  1.2289
  656SOL     OW 2866   2.612   5.706   3.260  0.1481 -0.3936 -0.0111
  656SOL    HW1 2867   2.686   5.652   3.220 -0.0608  0.3470 -1.4605
  656SOL    HW2 2868   2.571   5.655   3.336  2.2151 -0.7623  0.9377
  657SOL     OW 2869   3.106   3.000   0.474 -0.1624  0.2830 -0.0991
  657SOL    HW1 2870   3.058   2.953   0.548 -0.6799  1.1049  0.1023
  657SOL    HW2 2871   3.042   3.059   0.425  0.2472 -0.0041 -1.0059
  658SOL     OW 2872   2.610   3.437   0.811  0.2381 -0.1105  0.3463
  658SOL    HW1 2873   2.551   3.463   0.888 -0.8475 -0.3459 -0.3938
  658SOL    HW2 2874   2.571   3.359   0.764  1.3180 -0.4718  0.0195
  659SOL     OW 2875   4.036   6.952   4.578 -0.3800  0.1072 -0.4900
  659SOL    HW1 2876   4.036   6.974   4.480  1.9848  0.2862 -0.4951
  659SOL    HW2 2877   4.126   6.971   4.617 -0.7298 -1.6540  1.3525
  660SOL     OW 2878   4.611   4.238   1.222 -0.1270  0.4485  0.0756
  660SOL    HW1 2879   4.659   4.189   1.294 -0.1422 -0.4292 -0.4884
  660SOL    HW2 2880   4.516   4.253   1.249 -0.8763 -2.2672 -0.8072
  661SOL     OW 2881   4.582   6.949   3.110  0.4517 -0.3788 -0.1182
  661SOL    HW1 2882   4.574   6.909   3.201  0.6524 -1.0384 -0.3853
  661SOL    HW2 2883   4.676   6.980   3.095  0.4599 -0.4274 -0.1653
  662SOL     OW 2884   5.015   0.127   3.935  0.1465 -0.0879  0.0982
  662SOL    HW1 2885   5.004   0.068   4.015 -0.1876  0.1019  0.1919
  662SOL    HW2 2886   5.098   0.100   3.886  0.1465 -0.4564  0.2935
  663SOL     OW 2887   1.971   3.168   4.341  0.1943  0.5145 -0.2660
  663SOL    HW1 2888   1.953   3.079   4.300 -2.1440  0.2926  1.0493
  663SOL    HW2 2889   1.994   3.157   4.437  0.2581  1.3066 -0.1792
  664SOL     OW 2890   0.340   6.166   5.591 -0.3833  0.4654 -0.5019
  664SOL    HW1 2891   0.410   6.149   5.522 -0.0230 -1.5628  0.3102
  664SOL    HW2 2892   0.257   6.116   5.568 -1.4403  2.3934 -1.1526
  665SOL     OW 2893   2.905   4.484   1.475  0.6068  0.3759 -0.3152
  665SOL    HW1 2894   2.955   4.449   1.396  0.6846 -0.0019 -0.1051
  665SOL    HW2 2895   2.933   4.578   1.494  1.3197  0.1360 -0.1361
  666SOL     OW 2896   6.078   1.789   1.855  0.0898 -0.5536  0.5649
  666SOL    HW1 2897   6.127   1.720   1.909  1.4006 -0.2643 -0.2132
  666SOL    HW2 2898   6.128   1.806   1.770 -0.6255  0.7943  0.3916
  667SOL     OW 2899   2.409   4.332   3.648 -0.2254 -0.2494  0.2278
  667SOL    HW1 2900   2.446   4.340   3.555 -0.0064 -1.6339  0.1750
  667SOL    HW2 2901   2.463   4.389   3.710  0.4252 -0.2832 -0.2882
  668SOL     OW 2902   5.839   0.613   5.309  0.2150 -0.4102  0.1018
  668SOL    HW1 2903   5.743   0.612   5.283 -0.8396  0.2926  3.4171
  668SOL    HW2 2904   5.867   0.522   5.338 -0.1950 -0.1835  1.2825
  669SOL     OW 2905   5.546   0.979   3.457  0.0485 -0.5881 -0.2213
  669SOL    HW1 2906   5.499   0.903   3.501 -0.5138 -1.2736 -1.9172
  669SOL    HW2 2907   5.620   1.011   3.516 -0.2562 -1.8670  0.9062
  670SOL     OW 2908   1.954   2.340   1.399 -0.2867 -0.8193  0.0812
  670SOL    HW1 2909   1.859   2.366   1.382  0.0876 -0.4505 -1.5435
  670SOL    HW2 2910   1.979   2.366   1.492 -1.2249  0.7637 -0.0776
  671SOL     OW 2911   3.873   6.905   5.638 -0.0827  0.5176 -0.5970
  671SOL    HW1 2912   3.880   6.898   5.539  3.3319  2.1444 -0.6167
  671SOL    HW2 2913   3.847   6.998   5.664 -1.5588 -0.0535  0.0637
  672SOL     OW 2914   0.790   6.140   0.179 -0.1576 -0.2977 -0.2292
  672SOL    HW1 2915   0.865   6.199   0.149 -0.3564  0.1107  0.0755
  672SOL    HW2 2916   0.820   6.084   0.257 -0.8122  1.4481  1.3478
  673SOL     OW 2917   5.186   0.552   2.274  0.4885 -0.0390  0.0650
  673SOL    HW1 2918   5.197   0.634   2.331  2.0463 -0.7929  0.8953
  673SOL    HW2 2919   5.123   0.489   2.319  0.5191  0.0273  0.2013
  674SOL     OW 2920   1.194   0.292   4.887 -0.4293  0.3037 -0.0733
  674SOL    HW1 2921   1.122   0.318   4.951 -0.4274 -0.3000  0.1784
  674SOL    HW2 2922   1.241   0.211   4.921  0.1646  0.5070 -0.3927
  675SOL     OW 2923   0.231   2.019   3.761  0.1672 -0.1769 -0.0188
  675SOL    HW1 2924   0.309   2.081   3.749  0.2887  0.3655  2.8719
  675SOL    HW2 2925   0.263   1.925   3.758  0.8061  0.0236  0.2839
  676SOL     OW 2926   2.174   5.246   4.551  0.0326 -0.2610 -0.8702
  676SOL    HW1 2927   2.236   5.187   4.603 -0.9363 -0.2925  0.3083
  676SOL    HW2 2928   2.224   5.325   4.516  0.3181  1.1567  2.3415
  677SOL     OW 2929   5.174   1.553   0.586 -0.3742 -0.1265  0.1598
  677SOL    HW1 2930   5.177   1.611   0.667 -0.5706 -1.0613  0.8514
  677SOL    HW2 2931   5.097   1.580   0.529 -1.1108 -0.3949  1.0095
  678SOL     OW 2932   3.023   5.648   6.157 -0.2121 -0.0468  0.2425
  678SOL    HW1 2933   3.010   5.745   6.176  0.4343 -0.4347  3.0802
  678SOL    HW2 2934   2.939   5.611   6.116 -0.7918  1.4935 -0.0403
  679SOL     OW 2935   5.440   0.763   4.625  0.2800 -0.2086  0.0115
  679SOL    HW1 2936   5.343   0.746   4.607  0.1361  1.0616 -0.5150
  679SOL    HW2 2937   5.453   0.859   4.646  1.8234  0.3444 -2.9888
  680SOL     OW 2938   4.800   5.339   1.278  0.5316 -0.1886  0.1345
  680SOL    HW1 2939   4.809   5.326   1.180 -3.3174  0.1322 -0.4199
  680SOL    HW2 2940   4.845   5.264   1.326  1.0519 -1.2814 -1.9467
  681SOL     OW 2941   3.451   6.773   1.767  0.3234  0.0351 -0.0961
  681SOL    HW1 2942   3.515   6.700   1.793 -0.1930 -0.6512 -0.7103
  681SOL    HW2 2943   3.476   6.857   1.815  1.5609 -0.2630 -0.1734
  682SOL     OW 2944   5.520   0.555   2.921  0.5544 -0.1079  0.3271
  682SOL    HW1 2945   5.607   0.587   2.958 -0.0040  1.6657  0.2100
  682SOL    HW2 2946   5.533   0.524   2.827  1.2061 -0.6884  0.6003
  683SOL     OW 2947   4.125   2.650   0.711 -0.2925 -0.4899 -0.3044
  683SOL    HW1 2948   4.026   2.635   0.714 -0.4214  0.3825  2.2676
  683SOL    HW2 2949   4.172   2.563   0.719 -0.8838 -0.8212 -0.3878
  684SOL     OW 2950   5.555   2.484   6.841 -0.6914  0.1057 -0.1479
  684SOL    HW1 2951   5.457   2.462   6.843 -0.6889  0.0650 -0.5127
  684SOL    HW2 2952   5.567   2.582   6.824 -0.6636  0.0766 -0.2949
  685SOL     OW 2953   3.270   1.591   3.388  0.6702  0.7053  0.4721
  685SOL    HW1 2954   3.247   1.513   3.330  1.0098  0.6302  0.4352
  685SOL    HW2 2955   3.237   1.675   3.345  1.1667  0.6776  0.0293
  686SOL     OW 2956   5.402   2.823   2.337  0.3610 -0.2501  0.4040
  686SOL    HW1 2957   5.461   2.884   2.390  0.0284  1.1301 -0.7511
  686SOL    HW2 2958   5.323   2.874   2.303 -0.5701 -1.6321  0.4031
  687SOL     OW 2959   6.750   0.976   5.844 -0.4508  0.5149 -0.2161
  687SOL    HW1 2960   6.708   1.053   5.796 -1.5307 -1.1729 -2.1472
  687SOL    HW2 2961   6.838   0.954   5.802 -0.7897 -0.1355 -0.6160
  688SOL     OW 2962   1.600   1.610   5.817  0.2454  0.0712  0.0797
  688SOL    HW1 2963   1.575   1.633   5.911 -1.1847  0.6711 -0.4149
  688SOL    HW2 2964   1.636   1.517   5.814 -2.7830 -1.2647  0.7939
  689SOL     OW 2965   1.021   4.062   6.587 -0.6191  0.3092 -0.0551
  689SOL    HW1 2966   1.015   4.061   6.487 -0.3930  0.6386 -0.0742
  689SOL    HW2 2967   1.057   4.151   6.617  0.1536 -0.1090  0.2767
  690SOL     OW 2968   5.553   0.967   2.923  0.5682 -0.6789 -0.4690
  690SOL    HW1 2969   5.587   0.942   3.014  2.5799  0.4932 -0.8436
  690SOL    HW2 2970   5.628   0.963   2.857 -0.3025  0.8127 -1.6080
  691SOL     OW 2971   4.598   1.959   0.959 -0.1378  0.0519 -0.0220
  691SOL    HW1 2972   4.560   2.047   0.988 -0.5382 -0.0090 -0.3478
  691SOL    HW2 2973   4.578   1.890   1.029  2.3367  0.6978  1.4768
  692SOL     OW 2974   3.852   2.130   3.706  1.0814  0.6414 -0.1158
  692SOL    HW1 2975   3.923   2.063   3.689  0.9606  0.6191 -0.5469
  692SOL    HW2 2976   3.803   2.150   3.621 -1.4152 -1.5924  0.6408
  693SOL     OW 2977   3.932   5.850   4.193  0.2351  0.0159  0.4957
  693SOL    HW1 2978   3.917   5.826   4.289  3.4420 -0.0709  1.1060
  693SOL    HW2 2979   3.910   5.772   4.135  1.7303 -1.2991  1.5830
  694SOL     OW 2980   5.919   6.402   4.593 -0.3437 -0.0431  0.1451
  694SOL    HW1 2981   6.016   6.415   4.613 -0.2718 -1.6132  0.9663
  694SOL    HW2 2982   5.864   6.460   4.654  0.0549 -0.3295  0.7898
  695SOL     OW 2983   5.596   0.010   3.366  0.0602 -0.2109 -0.0912
  695SOL    HW1 2984   5.581  -0.034   3.454  0.1850 -0.6709 -0.2966
  695SOL    HW2 2985   5.518   0.068   3.344 -0.9103 -1.6408 -0.5853
  696SOL     OW 2986   4.956   6.054   3.338 -0.1621  0.8106  0.3553
  696SOL    HW1 2987   4.860   6.029   3.342  0.1358 -0.9595 -1.8659
  696SOL    HW2 2988   4.973   6.114   3.260  0.6918  0.1908  0.0410
  697SOL     OW 2989   2.156   4.131   2.089 -0.3819  0.4600 -0.3146
  697SOL    HW1 2990   2.235   4.161   2.035  0.6259  1.2938  1.5254
  697SOL    HW2 2991   2.178   4.046   2.136 -0.7893  0.4013 -0.2274
  698SOL     OW 2992   5.142   6.246   1.343 -0.0522 -0.3082  0.1990
  698SOL    HW1 2993   5.057   6.253   1.292 -1.1551  1.2721  2.1418
  698SOL    HW2 2994   5.126   6.199   1.430  0.4731  1.9509  1.6097
  699SOL     OW 2995   0.938   4.582   6.830 -0.1087  0.1511 -0.0483
  699SOL    HW1 2996   0.864   4.520   6.859  1.0830 -1.2898  0.0585
  699SOL    HW2 2997   1.011   4.579   6.898  0.4697  0.7914 -0.6376
  700SOL     OW 2998   4.124   0.916   3.106 -0.1986  0.0229  0.2320
  700SOL    HW1 2999   4.079   0.920   3.017  0.8534  0.9711 -0.2786
  700SOL    HW2 3000   4.203   0.976   3.106 -0.4380  0.3846  1.9725
  701SOL     OW 3001   6.485   3.793   5.491 -0.1309  0.5494 -0.1585
  701SOL    HW1 3002   6.569   3.814   5.441  1.5258  0.3236  2.3161
  701SOL    HW2 3003   6.461   3.697   5.478  1.2398  0.0619  0.7461
  702SOL     OW 3004   2.228   0.716   4.192 -0.1899  0.2494 -0.1177
  702SOL    HW1 3005   2.289   0.723   4.271  0.3239  0.3915 -0.5220
  702SOL    HW2 3006   2.145   0.769   4.209  1.0866  2.5566 -0.7554
  703SOL     OW 3007   4.551   2.710   5.114  0.3553 -0.0108  0.2341
  703SOL    HW1 3008   4.641   2.753   5.110 -0.0894  0.9279 -0.2018
  703SOL    HW2 3009   4.494   2.759   5.180 -0.1439  0.0558 -0.2326
  704SOL     OW 3010   1.940   1.646   5.719 -0.3872  0.2431  0.4140
  704SOL    HW1 3011   1.868   1.715   5.726 -0.6443  0.2272 -1.5535
  704SOL    HW2 3012   2.001   1.669   5.643 -0.4221 -1.6550 -0.2267
  705SOL     OW 3013   3.824   0.422   2.263 -0.6161 -0.7192  0.2920
  705SOL    HW1 3014   3.740   0.418   2.318  0.5091 -1.1752  2.0321
  705SOL    HW2 3015   3.896   0.368   2.307  1.0779  0.9482 -0.3031
  706SOL     OW 3016   4.513   2.465   4.913  0.3254 -0.0758  0.5639
  706SOL    HW1 3017   4.445   2.454   4.839  0.0732 -0.7937  0.8939
  706SOL    HW2 3018   4.596   2.505   4.875 -0.0813  0.2935  0.0393
  707SOL     OW 3019   6.078   3.941   2.011 -0.6232  0.2961 -0.0000
  707SOL    HW1 3020   6.110   3.987   1.929 -0.7704  0.5471  0.0805
  707SOL    HW2 3021   5.991   3.895   1.992  0.2178 -1.1642 -0.4720
  708SOL     OW 3022   3.475   0.834   2.588  0.0242  0.0869  0.5767
  708SOL    HW1 3023   3.476   0.929   2.555  1.7836 -0.5190 -1.2906
  708SOL    HW2 3024   3.423   0.830   2.674  0.2887  2.7995  0.9685
  709SOL     OW 3025   0.955   6.054   0.407  0.3655  0.3567  0.3190
  709SOL    HW1 3026   1.018   6.050   0.485  1.5036  1.5902 -0.5055
  709SOL    HW2 3027   0.866   6.017   0.435  0.7586  0.7165  2.1915
  710SOL     OW 3028   4.307   2.676   0.193 -0.2335 -0.1373  0.0012
  710SOL    HW1 3029   4.267   2.589   0.166 -0.5507 -0.0709  0.2528
  710SOL    HW2 3030   4.264   2.709   0.277  0.7762 -0.3607  0.6228
  711SOL     OW 3031   0.753   2.968   5.597  0.3143 -0.4818  0.4680
  711SOL    HW1 3032   0.759   3.020   5.512  0.4954 -1.0236  0.1459
  711SOL    HW2 3033   0.779   3.027   5.674  2.6996 -0.6741 -0.1102
  712SOL     OW 3034   6.090   3.671   1.142  0.0006 -0.0196 -0.1336
  712SOL    HW1 3035   6.105   3.684   1.044 -0.9805 -2.3606 -0.6537
  712SOL    HW2 3036   6.054   3.755   1.182 -0.6209  0.6354 -1.9893
  713SOL     OW 3037   4.028   3.947   5.297  0.2055 -0.1332  0.3145
  713SOL    HW1 3038   3.982   4.024   5.340  1.2840 -0.3330  1.9233
  713SOL    HW2 3039   4.050   3.970   5.202 -0.6313  1.0301  0.3784
  714SOL     OW 3040   1.605   3.411   4.229  0.2791 -0.3687  0.2871
  714SOL    HW1 3041   1.623   3.509   4.237  1.4713 -0.5953  0.6101
  714SOL    HW2 3042   1.616   3.368   4.318 -1.2614 -0.6607  0.3675
  715SOL     OW 3043   5.801   0.392   5.031 -0.3427 -0.5358  0.6891
  715SOL    HW1 3044   5.844   0.330   5.097  2.0170 -0.2883 -0.4918
  715SOL    HW2 3045   5.864   0.467   5.009 -0.7963 -0.8652 -2.1866
  716SOL     OW 3046   0.859   0.549   1.918  0.1858  0.2320  0.3322
  716SOL    HW1 3047   0.899   0.460   1.944  0.7000  0.1216 -0.7944
  716SOL    HW2 3048   0.931   0.608   1.883 -0.2174  0.9902  0.7724
  717SOL     OW 3049   5.371   4.970   4.458  0.4482 -0.0878  0.3331
  717SOL    HW1 3050   5.306   4.895   4.443 -0.3027  0.5471  0.3323
  717SOL    HW2 3051   5.421   4.955   4.543 -0.3535 -0.1450  0.8069
  718SOL     OW 3052   5.984   0.811   5.189 -0.6135  0.6244  0.0395
  718SOL    HW1 3053   5.947   0.739   5.248  0.0059  0.6777  0.5081
  718SOL    HW2 3054   5.962   0.791   5.094  0.2310 -0.6179  0.0731
  719SOL     OW 3055   0.272   0.852   2.089 -0.1806  0.0788  0.0277
  719SOL    HW1 3056   0.243   0.935   2.041 -1.3743 -0.2691  0.1109
  719SOL    HW2 3057   0.303   0.784   2.023  2.5386  1.1752  0.0439
  720SOL     OW 3058   1.016   5.951   6.109  0.4389 -0.4537 -0.6665
  720SOL    HW1 3059   1.036   5.869   6.056 -0.5057 -2.1780  1.4623
  720SOL    HW2 3060   0.918   5.966   6.112  0.3107 -1.3017  1.6960
  721SOL     OW 3061   3.844   1.564   2.232 -0.1786  0.0439 -0.0221
  721SOL    HW1 3062   3.939   1.538   2.251 -0.1144 -1.7694 -2.2515
  721SOL    HW2 3063   3.839   1.661   2.208  1.4254 -0.1901 -1.4538
  722SOL     OW 3064   3.219   1.438   5.503  0.0930 -0.0181 -0.5391
  722SOL    HW1 3065   3.242   1.527   5.542  0.8315 -0.7655  0.8338
  722SOL    HW2 3066   3.254   1.432   5.410  0.7060  0.8472 -0.3727
  723SOL     OW 3067   1.481   4.046   3.051 -0.1511 -0.0382 -0.3908
  723SOL    HW1 3068   1.482   4.006   2.959 -1.2628 -0.3681 -0.2727
  723SOL    HW2 3069   1.410   4.116   3.056 -0.1608 -0.0868  0.2358
  724SOL     OW 3070   6.670   0.073   3.190 -0.1944 -0.6084 -0.2189
  724SOL    HW1 3071   6.681   0.129   3.108  1.0282  0.1754  0.4557
  724SOL    HW2 3072   6.647  -0.021   3.163  2.4374 -0.9526 -1.6007
  725SOL     OW 3073   0.088   5.021   3.343 -0.2639  0.0324  0.1845
  725SOL    HW1 3074   0.083   5.073   3.427 -0.6085 -1.2321  0.9830
  725SOL    HW2 3075   0.095   4.923   3.364  0.1552 -0.2799 -1.2452
  726SOL     OW 3076   3.623   4.876   2.978 -0.1116  0.0110 -0.0362
  726SOL    HW1 3077   3.592   4.781   2.971 -1.3308  0.3645  0.3346
  726SOL    HW2 3078   3.718   4.882   2.949 -0.4179 -1.0987 -1.3844
  727SOL     OW 3079   5.361   4.867   6.797  0.0132 -0.0698  0.2250
  727SOL    HW1 3080   5.442   4.816   6.765  0.7084  0.7613  0.6324
  727SOL    HW2 3081   5.349   4.853   6.895 -0.9851 -1.0565 -0.0220
  728SOL     OW 3082   0.205   2.610   2.811 -0.1948  0.0101  0.2668
  728SOL    HW1 3083   0.179   2.513   2.809  0.4518 -0.1595 -0.6349
  728SOL    HW2 3084   0.133   2.665   2.768  0.9957 -0.5015 -2.6137
  729SOL     OW 3085   6.996   2.557   1.107 -0.0413  0.1660  0.5442
  729SOL    HW1 3086   7.040   2.474   1.141  0.1200  0.0364  0.0315
  729SOL    HW2 3087   6.898   2.541   1.099 -0.0047  0.0092  0.4027
  730SOL     OW 3088   0.200   0.691   5.408 -0.2426  0.1166 -0.0834
  730SOL    HW1 3089   0.217   0.631   5.487  1.0637  0.8020  0.1878
  730SOL    HW2 3090   0.200   0.786   5.438  3.6267  0.6778 -1.2638
  731SOL     OW 3091   3.057   4.329   5.972  0.2353  0.3120  0.1943
  731SOL    HW1 3092   3.058   4.229   5.964 -2.4307  0.2439 -0.2173
  731SOL    HW2 3093   3.081   4.355   6.065  1.4396 -0.6549  0.1877
  732SOL     OW 3094   5.906   2.951   1.714  0.1271 -0.0542  0.2944
  732SOL    HW1 3095   5.866   2.864   1.686 -1.1178  0.3456  0.7283
  732SOL    HW2 3096   5.937   2.945   1.808  0.1711 -0.0738  0.2785
  733SOL     OW 3097   5.238   0.288   6.171  0.1263 -0.7189  0.2101
  733SOL    HW1 3098   5.245   0.188   6.175 -0.2965 -0.7350  0.5642
  733SOL    HW2 3099   5.145   0.314   6.145  0.0266 -0.4069  0.8607
  734SOL     OW 3100   6.881   4.969   3.168  0.2872 -0.0980  0.8056
  734SOL    HW1 3101   6.907   4.874   3.187  1.1860 -0.3608 -1.3888
  734SOL    HW2 3102   6.954   5.030   3.200  1.0153 -0.4032 -0.1884
  735SOL     OW 3103   3.447   2.708   6.858  0.4429  0.6282  0.3132
  735SOL    HW1 3104   3.533   2.659   6.846 -0.6368 -1.4248  0.5194
  735SOL    HW2 3105   3.427   2.762   6.776 -0.6887 -3.2026 -2.2002
  736SOL     OW 3106   0.957   2.032   3.818  0.4406 -0.2813 -0.3253
  736SOL    HW1 3107   0.857   2.030   3.820  0.4038  0.9260  1.4053
  736SOL    HW2 3108   0.988   2.111   3.766  0.5446 -1.2089 -1.7221
  737SOL     OW 3109   6.169   0.957   5.339 -0.2272 -0.2561 -0.2645
  737SOL    HW1 3110   6.093   0.918   5.286 -0.4201 -0.6745  0.3092
  737SOL    HW2 3111   6.137   1.040   5.386  0.2200  0.7037 -1.5959
  738SOL     OW 3112   2.495   3.926   0.858  0.7003 -0.3137  0.0422
  738SOL    HW1 3113   2.441   3.855   0.903  0.5176 -1.7140 -2.2109
  738SOL    HW2 3114   2.435   3.979   0.797  1.5298 -0.9600 -1.3973
  739SOL     OW 3115   5.752   6.104   5.415  0.3112  0.0340  0.2618
  739SOL    HW1 3116   5.833   6.159   5.432 -1.4599  2.8454  0.3207
  739SOL    HW2 3117   5.754   6.069   5.322  1.0301  1.1029 -0.1402
  740SOL     OW 3118   5.104   2.047   3.099  0.2507  0.2096 -0.1405
  740SOL    HW1 3119   5.106   2.051   3.199 -0.9355  1.9104 -0.1277
  740SOL    HW2 3120   5.197   2.044   3.064  0.7513 -3.9559  1.0012
  741SOL     OW 3121   1.236   6.840   3.832  0.5486 -0.3001 -0.3412
  741SOL    HW1 3122   1.146   6.884   3.834 -0.0094 -1.4055 -0.4077
  741SOL    HW2 3123   1.235   6.764   3.767  2.1819  0.9767 -1.9660
  742SOL     OW 3124   0.467   6.021   2.073  0.2615 -0.5039 -0.8985
  742SOL    HW1 3125   0.562   6.029   2.104 -0.5632  4.0963  1.2516
  742SOL    HW2 3126   0.416   5.964   2.137  0.8663 -0.1096 -0.0454
  743SOL     OW 3127   6.120   4.946   4.496 -0.1129 -0.1937  0.1710
  743SOL    HW1 3128   6.068   4.865   4.473 -0.6048  0.4694 -1.1624
  743SOL    HW2 3129   6.081   4.990   4.577 -0.5843 -0.6179  0.1728
  744SOL     OW 3130   4.949   1.825   0.915 -0.2142  0.0711 -0.1535
  744SOL    HW1 3131   4.904   1.867   0.836 -1.1358  1.4624  1.0612
  744SOL    HW2 3132   4.907   1.737   0.934 -1.7484  0.8727  0.3175
  745SOL     OW 3133   7.007   4.043   4.418  0.1375  0.4696 -0.2084
  745SOL    HW1 3134   7.027   4.139   4.438  0.1302  0.3122  0.5986
  745SOL    HW2 3135   6.999   3.992   4.504 -0.7347 -0.0758 -0.5946
  746SOL     OW 3136   6.693   3.941   4.585  0.1034  0.2287 -0.1760
  746SOL    HW1 3137   6.691   3.972   4.489  0.7596 -0.0536 -0.2803
  746SOL    HW2 3138   6.729   4.014   4.643 -0.7385  0.5781 -0.0656
  747SOL     OW 3139   3.598   5.942   5.231 -0.6169  0.1752 -0.4078
  747SOL    HW1 3140   3.671   5.921   5.166 -2.0564 -1.4675 -1.6128
  747SOL    HW2 3141   3.637   5.964   5.320  1.3384 -0.2348 -1.1138
  748SOL     OW 3142   5.031   6.778   2.017  0.2708  0.3659  0.1915
  748SOL    HW1 3143   5.041   6.719   1.937 -0.8951  1.2001 -0.5978
  748SOL    HW2 3144   4.991   6.725   2.092 -0.8747  0.1497 -0.5417
  749SOL     OW 3145   5.466   3.073   3.878  0.4819  0.5318 -0.4864
  749SOL    HW1 3146   5.433   3.100   3.788 -2.7148 -0.4007  0.2780
  749SOL    HW2 3147   5.489   3.155   3.931 -0.1385  1.2302 -1.2652
  750SOL     OW 3148   4.452   0.149   1.806  0.0801 -0.1584 -0.0026
  750SOL    HW1 3149   4.447   0.050   1.817 -0.7445  0.1350  3.6014
  750SOL    HW2 3150   4.363   0.184   1.777  0.0349 -0.3836 -0.1357
  751SOL     OW 3151   6.526   3.496   6.086 -0.3197 -0.3890  0.5507
  751SOL    HW1 3152   6.484   3.575   6.041 -0.4781 -1.1899 -0.7832
  751SOL    HW2 3153   6.455   3.435   6.120 -0.2094 -0.4047  0.7519
  752SOL     OW 3154   2.814   4.431   0.504  0.2945  0.3471 -0.0839
  752SOL    HW1 3155   2.742   4.394   0.444  0.3985  1.2722 -0.8024
  752SOL    HW2 3156   2.882   4.479   0.448  1.1774 -0.0310  0.6506
  753SOL     OW 3157   1.494   1.586   6.354  0.4625 -0.0162 -0.0356
  753SOL    HW1 3158   1.568   1.522   6.337  1.0076  0.1918  1.4124
  753SOL    HW2 3159   1.510   1.635   6.439 -1.3079  0.0934  0.2886
  754SOL     OW 3160   4.318   3.210   5.902 -0.3291  0.2416 -0.3681
  754SOL    HW1 3161   4.394   3.175   5.848  0.5881  0.6535  0.6248
  754SOL    HW2 3162   4.274   3.134   5.950 -0.9499 -0.0808 -1.4143
  755SOL     OW 3163   1.437   3.966   3.792  0.0761  0.0516 -0.5369
  755SOL    HW1 3164   1.384   3.918   3.721  0.6288 -1.7697  0.2296
  755SOL    HW2 3165   1.397   3.948   3.881 -1.1370  3.0514 -0.3748
  756SOL     OW 3166   3.560   3.608   6.377  0.3960  0.6815 -0.1109
  756SOL    HW1 3167   3.651   3.580   6.408  0.8120  0.8850 -1.1119
  756SOL    HW2 3168   3.552   3.707   6.384 -0.1965  0.5627  1.1164
  757SOL     OW 3169   0.128   6.465   4.031 -0.5104  0.0060  0.0127
  757SOL    HW1 3170   0.144   6.559   4.000  0.3577 -0.5075 -1.2279
  757SOL    HW2 3171   0.038   6.458   4.072  0.1072  1.7828  1.8369
  758SOL     OW 3172   4.647   0.573   3.767 -0.3288  0.1434 -0.6497
  758SOL    HW1 3173   4.634   0.671   3.753 -1.0620 -0.0378 -1.3948
  758SOL    HW2 3174   4.564   0.524   3.738  0.4418 -0.7803 -1.3865
  759SOL     OW 3175   0.242   4.801   2.354  0.4048  0.0875  0.0615
  759SOL    HW1 3176   0.321   4.833   2.303  0.1465 -1.5223 -1.4216
  759SOL    HW2 3177   0.272   4.747   2.433  0.8676 -2.3448 -1.6838
  760SOL     OW 3178   6.047   0.628   2.782  0.3023  0.4664 -0.6232
  760SOL    HW1 3179   6.116   0.560   2.807  1.6415  2.4240  1.4713
  760SOL    HW2 3180   5.957   0.584   2.775  0.9784 -1.4149  1.3638
  761SOL     OW 3181   6.235   3.460   7.003 -0.5285 -0.0924 -0.5495
  761SOL    HW1 3182   6.325   3.465   7.046 -0.2923 -2.7160 -0.6097
  761SOL    HW2 3183   6.167   3.431   7.071 -0.8758 -0.4542 -1.0441
  762SOL     OW 3184   2.464   1.736   6.807 -0.0692 -0.7303 -0.2541
  762SOL    HW1 3185   2.545   1.774   6.851  0.0149 -0.2314 -0.8251
  762SOL    HW2 3186   2.387   1.740   6.869  0.3234 -1.1518  0.2732
  763SOL     OW 3187   4.822   2.541   5.408  0.0364 -0.6803 -0.2076
  763SOL    HW1 3188   4.817   2.447   5.442 -2.0319 -0.4522  0.2365
  763SOL    HW2 3189   4.790   2.543   5.313  2.0571 -0.7115 -0.9237
  764SOL     OW 3190   5.665   1.313   4.296 -0.2359 -0.2827  0.4912
  764SOL    HW1 3191   5.571   1.318   4.265  0.0984 -1.2722 -0.7420
  764SOL    HW2 3192   5.677   1.373   4.375 -2.1865 -1.0666  1.4497
  765SOL     OW 3193   1.734   6.703   1.875  0.2806  0.2261  0.1002
  765SOL    HW1 3194   1.831   6.703   1.899  0.4263  3.5389 -0.0714
  765SOL    HW2 3195   1.723   6.672   1.781  0.9831 -1.4401  0.5372
  766SOL     OW 3196   3.261   1.900   5.855  0.2297  0.5783 -0.2028
  766SOL    HW1 3197   3.189   1.832   5.864 -0.2073  1.2930  2.9699
  766SOL    HW2 3198   3.227   1.978   5.803 -0.0337 -0.5646 -1.8233
  767SOL     OW 3199   0.273   1.076   3.748 -0.4070  0.2838 -0.6843
  767SOL    HW1 3200   0.193   1.107   3.800  0.3047 -0.2603  0.7972
  767SOL    HW2 3201   0.260   0.980   3.722 -0.4654  0.3598 -0.9455
  768SOL     OW 3202   2.186   5.204   3.065 -0.1097  0.4449  0.1110
  768SOL    HW1 3203   2.115   5.170   3.004 -0.1894  0.3560  0.2533
  768SOL    HW2 3204   2.180   5.156   3.153 -2.0123  2.7543  1.3435
  769SOL     OW 3205   2.183   1.280   0.085 -0.1394  0.0704 -0.0844
  769SOL    HW1 3206   2.095   1.319   0.056 -0.9927 -1.3781  0.4419
  769SOL    HW2 3207   2.167   1.215   0.160  1.1874 -1.3581 -0.9890
  770SOL     OW 3208   3.051   5.466   2.655  0.1160 -0.3137  0.5384
  770SOL    HW1 3209   3.117   5.530   2.693  0.3615  0.0531 -0.4904
  770SOL    HW2 3210   2.992   5.432   2.729 -0.5103  1.6594  1.0092
  771SOL     OW 3211   1.321   4.808   2.895 -0.3168 -0.3564  0.4691
  771SOL    HW1 3212   1.248   4.860   2.850  1.6974  0.4219 -2.1551
  771SOL    HW2 3213   1.321   4.715   2.860 -0.3457 -0.5010  0.8511
  772SOL     OW 3214   6.968   4.676   0.318 -0.4256 -0.2813 -0.0371
  772SOL    HW1 3215   7.038   4.701   0.384 -1.0931  1.1971  0.1680
  772SOL    HW2 3216   6.929   4.587   0.342  0.2147 -0.3427  0.8118
  773SOL     OW 3217   1.336   2.838   2.450  0.0719  0.3857 -0.4430
  773SOL    HW1 3218   1.345   2.850   2.351 -1.1578  2.2263 -0.3826
  773SOL    HW2 3219   1.345   2.927   2.495 -0.7875 -0.2112  0.9843
  774SOL     OW 3220   2.032   2.895   1.262  0.3477  0.2507  0.0450
  774SOL    HW1 3221   1.953   2.848   1.302  0.8030 -1.9832 -1.5385
  774SOL    HW2 3222   2.001   2.981   1.220 -1.4607 -1.0563 -1.4336
  775SOL     OW 3223   2.237   1.351   2.923 -0.6396  0.4470 -0.5127
  775SOL    HW1 3224   2.192   1.290   2.858 -0.9439  1.8336 -1.6428
  775SOL    HW2 3225   2.184   1.435   2.931  1.3070  1.7904 -1.2364
  776SOL     OW 3226   6.617   6.819   6.750 -0.1597 -0.0884  0.0627
  776SOL    HW1 3227   6.646   6.909   6.718 -1.0267  0.1403 -0.0957
  776SOL    HW2 3228   6.659   6.800   6.839 -1.2111  1.1652  0.8665
  777SOL     OW 3229   0.541   6.044   2.685 -0.2170 -0.2588  0.1566
  777SOL    HW1 3230   0.475   5.970   2.698  0.6594 -1.0307  0.3348
  777SOL    HW2 3231   0.628   6.007   2.654  0.1160  0.7508 -0.1732
  778SOL     OW 3232   1.904   0.595   2.826  0.8963  0.1556  0.4721
  778SOL    HW1 3233   1.832   0.638   2.771  0.6000 -1.0064 -0.0936
  778SOL    HW2 3234   1.990   0.643   2.812  0.4403  0.9506  0.3664
  779SOL     OW 3235   6.876   0.596   1.116  0.1751 -0.3101  0.1798
  779SOL    HW1 3236   6.857   0.671   1.053  2.0434  0.0088 -0.0815
  779SOL    HW2 3237   6.821   0.606   1.199  0.3502  1.3197  0.1221
  780SOL     OW 3238   2.632   2.402   4.707  0.2405 -0.4849 -0.3667
  780SOL    HW1 3239   2.595   2.312   4.732 -0.1593 -0.2302 -0.0412
  780SOL    HW2 3240   2.731   2.398   4.710  0.3157 -1.4727 -2.2344
  781SOL     OW 3241   5.568   5.821   1.851  0.3495  0.2122 -0.5504
  781SOL    HW1 3242   5.663   5.802   1.874 -0.4519 -3.1185  0.5675
  781SOL    HW2 3243   5.546   5.782   1.762 -0.6828 -2.1081  0.6232
  782SOL     OW 3244   3.042   3.806   6.952 -0.0369 -0.6545 -0.3004
  782SOL    HW1 3245   3.004   3.755   7.029 -1.9559 -1.7790 -1.8949
  782SOL    HW2 3246   3.115   3.753   6.909 -1.8303 -2.0604 -1.7754
  783SOL     OW 3247   4.038   5.079   0.645 -0.0492  0.4355 -0.1373
  783SOL    HW1 3248   4.137   5.075   0.636  0.1478 -0.8502  1.9227
  783SOL    HW2 3249   4.012   5.058   0.739 -2.2898  0.8634 -0.5880
  784SOL     OW 3250   4.516   4.558   1.556  0.1173 -0.8185 -0.2004
  784SOL    HW1 3251   4.574   4.486   1.594  2.3913  0.4743 -0.9721
  784SOL    HW2 3252   4.534   4.644   1.605  0.4324  0.0646 -1.8045
  785SOL     OW 3253   0.390   1.048   3.999  0.5816 -0.4420 -0.0158
  785SOL    HW1 3254   0.361   1.076   3.907  0.2317 -0.8034 -0.0203
  785SOL    HW2 3255   0.334   1.095   4.067  2.9235  2.3374  0.1705
  786SOL     OW 3256   0.897   6.309   2.263 -0.3664  0.2422 -0.0221
  786SOL    HW1 3257   0.962   6.293   2.188 -1.2491 -1.5319 -0.4763
  786SOL    HW2 3258   0.817   6.357   2.228 -0.6881 -0.4066 -0.2022
  787SOL     OW 3259   6.151   0.598   6.208 -0.4921 -0.0345  0.2369
  787SOL    HW1 3260   6.072   0.591   6.147  0.1794 -0.0388 -0.6517
  787SOL    HW2 3261   6.186   0.507   6.228  0.4434  0.0489 -0.9311
  788SOL     OW 3262   5.027   0.853   0.306  0.5901  0.0699 -0.8065
  788SOL    HW1 3263   5.086   0.912   0.360  0.3335  0.0060 -0.4523
  788SOL    HW2 3264   4.950   0.822   0.362  0.8044 -0.7242 -0.9505
  789SOL     OW 3265   4.097   5.607   1.510 -0.3369 -0.0734  0.5009
  789SOL    HW1 3266   4.172   5.571   1.454 -1.2023 -0.2301 -0.5856
  789SOL    HW2 3267   4.012   5.561   1.485 -1.0412  1.0696  0.7509
  790SOL     OW 3268   3.160   1.871   2.836  0.0566  0.6526 -1.0240
  790SOL    HW1 3269   3.243   1.825   2.804 -0.4768  0.2282 -1.8345
  790SOL    HW2 3270   3.134   1.941   2.769 -0.3317  0.6697 -0.8543
  791SOL     OW 3271   2.602   6.298   4.525 -0.2707 -0.6457  0.0080
  791SOL    HW1 3272   2.506   6.316   4.544 -0.4252 -1.5358  0.1337
  791SOL    HW2 3273   2.657   6.376   4.554 -1.0457  0.3168 -1.0169
  792SOL     OW 3274   1.300   0.158   2.466 -0.9003 -0.1096 -0.0452
  792SOL    HW1 3275   1.317   0.256   2.482 -0.3685 -0.2881  0.5324
  792SOL    HW2 3276   1.287   0.142   2.369  0.5740  0.3154 -0.3454
  793SOL     OW 3277   4.707   6.606   4.830  0.2567 -0.0560  0.4642
  793SOL    HW1 3278   4.698   6.639   4.924  0.1891 -0.5079  0.6177
  793SOL    HW2 3279   4.649   6.526   4.817 -0.4655  0.5582 -0.2334
  794SOL     OW 3280   1.377   3.110   6.858  0.0087 -0.5094 -0.3093
  794SOL    HW1 3281   1.471   3.113   6.824  0.7648 -0.9712  1.6262
  794SOL    HW2 3282   1.335   3.023   6.835  1.1720 -1.6078  1.4930
  795SOL     OW 3283   5.219   6.522   5.767  0.0004 -0.1668  0.0787
  795SOL    HW1 3284   5.175   6.489   5.850  1.6518 -3.0420 -0.0614
  795SOL    HW2 3285   5.263   6.610   5.786 -1.3120  0.2030  1.6395
  796SOL     OW 3286   0.327   2.149   0.023  0.1135  0.1677 -0.4884
  796SOL    HW1 3287   0.263   2.105   0.085  0.7599 -0.5266 -0.2952
  796SOL    HW2 3288   0.420   2.140   0.059  0.5900 -0.8913 -1.9037
  797SOL     OW 3289   3.532   7.000   6.814 -0.4322 -0.4947  0.1468
  797SOL    HW1 3290   3.495   6.942   6.886  0.9236 -1.0765  0.3940
  797SOL    HW2 3291   3.612   7.049   6.848  0.4231 -1.0227 -1.0220
  798SOL     OW 3292   3.398   6.939   2.480  0.2888 -0.4921 -1.0694
  798SOL    HW1 3293   3.436   6.978   2.396 -1.2098 -2.4328 -2.7577
  798SOL    HW2 3294   3.378   7.012   2.545  1.2028  1.0999 -2.4958
  799SOL     OW 3295   6.741   6.558   6.143  0.3499  0.3870  0.4861
  799SOL    HW1 3296   6.767   6.464   6.119  1.5249  1.0411 -0.9783
  799SOL    HW2 3297   6.673   6.591   6.077  0.3869  0.7659  0.6361
  800SOL     OW 3298   6.049   0.169   2.144  0.1866 -0.3851 -0.0670
  800SOL    HW1 3299   6.087   0.176   2.236  2.0238  0.8903 -0.8748
  800SOL    HW2 3300   5.975   0.235   2.134 -0.8176 -1.3260  0.8138
  801SOL     OW 3301   3.506   3.342   5.020  0.1462  0.0086 -0.2392
  801SOL    HW1 3302   3.569   3.357   5.097  0.8743 -1.2109 -0.5648
  801SOL    HW2 3303   3.450   3.423   5.007  1.3896  0.9999  0.3133
  802SOL     OW 3304   4.499   1.703   0.434  0.0548 -0.4005 -0.1096
  802SOL    HW1 3305   4.542   1.730   0.348 -1.1868 -0.9016 -0.9038
  802SOL    HW2 3306   4.493   1.782   0.495 -1.1719  0.5366 -1.3855
  803SOL     OW 3307   1.795   1.783   4.894 -0.0129 -0.5046 -0.2231
  803SOL    HW1 3308   1.750   1.724   4.961  0.8608 -1.3151 -0.3341
  803SOL    HW2 3309   1.886   1.808   4.928 -0.7737  1.7166  0.3379
  804SOL     OW 3310   5.847   0.037   1.618 -0.3134  0.3157 -0.0724
  804SOL    HW1 3311   5.832  -0.060   1.600  3.0266 -0.5735  1.0954
  804SOL    HW2 3312   5.938   0.063   1.586 -0.0355  2.3482  2.0598
  805SOL     OW 3313   2.810   6.728   3.934  0.3016  0.0175 -0.1253
  805SOL    HW1 3314   2.827   6.781   4.017 -0.1151  1.2436 -0.8164
  805SOL    HW2 3315   2.756   6.781   3.870  2.3280 -0.1082 -2.0564
  806SOL     OW 3316   4.361   0.363   3.197 -0.7181  0.1450 -0.2013
  806SOL    HW1 3317   4.375   0.460   3.177 -2.9226  0.6712  0.5656
  806SOL    HW2 3318   4.446   0.323   3.229 -0.1077  2.1871  0.8900
  807SOL     OW 3319   5.991   5.992   6.274 -0.0139 -0.1326 -0.4319
  807SOL    HW1 3320   5.960   5.936   6.350  0.1206  1.1716  0.6112
  807SOL    HW2 3321   6.045   5.936   6.211  0.0528 -1.1799  0.5399
  808SOL     OW 3322   5.437   1.751   6.104  0.5065  0.6069 -0.0283
  808SOL    HW1 3323   5.351   1.764   6.054  0.3664  0.7694  0.2532
  808SOL    HW2 3324   5.444   1.820   6.176  1.5739  1.5325 -0.9933
  809SOL     OW 3325   1.445   4.871   0.672 -0.0504  0.5975  0.2830
  809SOL    HW1 3326   1.354   4.900   0.642  0.2676  2.3549  0.8781
  809SOL    HW2 3327   1.439   4.782   0.716 -1.2886  0.1884 -0.6631
  810SOL     OW 3328   4.774   3.769   6.545  0.6112 -0.2643 -0.3844
  810SOL    HW1 3329   4.839   3.843   6.561 -0.7326  0.5439  1.7252
  810SOL    HW2 3330   4.806   3.686   6.592  1.5114 -0.7530 -1.7677
  811SOL     OW 3331   6.326   1.165   3.468  0.0137 -0.4104 -0.2591
  811SOL    HW1 3332   6.412   1.121   3.493  0.8522  0.4038 -1.5987
  811SOL    HW2 3333   6.338   1.216   3.382 -1.8578 -0.4379 -0.5737
  812SOL     OW 3334   6.775   2.964   0.971  0.5808 -0.2822  0.5299
  812SOL    HW1 3335   6.716   2.886   0.994  0.5273 -0.1414  0.8692
  812SOL    HW2 3336   6.781   2.972   0.872 -1.2215  0.6345  0.4606
  813SOL     OW 3337   5.740   0.756   4.740 -0.5086  0.0949  0.0752
  813SOL    HW1 3338   5.738   0.828   4.671 -2.8327  0.0299 -0.0053
  813SOL    HW2 3339   5.694   0.674   4.705 -0.1157 -0.5642  1.0519
  814SOL     OW 3340   6.330   6.233   1.681  0.2927 -0.1682  0.5812
  814SOL    HW1 3341   6.395   6.186   1.621 -0.2363 -0.8837  0.5542
  814SOL    HW2 3342   6.365   6.324   1.704  2.6118 -1.5076  2.7581
  815SOL     OW 3343   6.393   2.519   3.662  0.4902 -0.2085  0.0377
  815SOL    HW1 3344   6.381   2.596   3.600  0.9928  0.2916  0.5465
  815SOL    HW2 3345   6.440   2.444   3.614 -0.0473 -0.2244 -0.4699
  816SOL     OW 3346   6.322   4.574   0.886 -0.4204 -0.0423  0.1580
  816SOL    HW1 3347   6.351   4.572   0.982  0.5629 -0.4261 -0.1357
  816SOL    HW2 3348   6.224   4.596   0.881 -0.3956  0.3413  1.2235
  817SOL     OW 3349   2.795   5.775   1.273 -0.3828 -0.6719  0.0072
  817SOL    HW1 3350   2.788   5.675   1.264  0.1486 -0.6852 -0.2516
  817SOL    HW2 3351   2.875   5.798   1.327  1.0973 -0.2966 -2.2348
  818SOL     OW 3352   6.699   2.702   3.866  0.8348 -0.1550  0.3843
  818SOL    HW1 3353   6.747   2.779   3.908  0.4709  0.1532  0.2437
  818SOL    HW2 3354   6.641   2.658   3.935  1.2222 -0.4489  0.5226
  819SOL     OW 3355   4.897   3.052   0.292 -0.3260  0.3220  0.4748
  819SOL    HW1 3356   4.890   3.109   0.210  0.1615 -0.1443  0.0953
  819SOL    HW2 3357   4.810   3.004   0.307 -0.8532  1.4215  1.0007
  820SOL     OW 3358   2.930   6.638   5.623  0.8665  0.2648 -0.2089
  820SOL    HW1 3359   2.988   6.569   5.666  1.7274  1.3601  0.4386
  820SOL    HW2 3360   2.965   6.729   5.644 -1.5455  1.0310  0.8980
  821SOL     OW 3361   0.555   4.491   0.097  0.5698  0.2093  0.4815
  821SOL    HW1 3362   0.636   4.464   0.046 -0.0909 -2.1976  0.5951
  821SOL    HW2 3363   0.499   4.552   0.042  0.8057 -0.8153 -0.9379
  822SOL     OW 3364   1.372   3.413   3.448  0.3682 -0.4164 -0.2983
  822SOL    HW1 3365   1.403   3.443   3.358  1.9653 -3.3019 -0.8357
  822SOL    HW2 3366   1.272   3.401   3.446  0.2977  0.1637 -1.4714
  823SOL     OW 3367   6.499   5.138   6.985  0.0139  0.2764  0.4903
  823SOL    HW1 3368   6.546   5.215   7.028 -0.8740 -0.1649  2.3376
  823SOL    HW2 3369   6.562   5.061   6.974  0.8041  1.0919 -1.0200
  824SOL     OW 3370   2.735   0.426   5.684  0.3376 -0.3844  0.1941
  824SOL    HW1 3371   2.709   0.496   5.617  1.3363 -0.3904 -0.2068
  824SOL    HW2 3372   2.678   0.437   5.766  1.0871  1.5079  0.5094
  825SOL     OW 3373   0.591   6.049   0.004 -0.3782  0.0481  0.5399
  825SOL    HW1 3374   0.639   6.026  -0.081  1.4259 -0.6016  1.6630
  825SOL    HW2 3375   0.658   6.076   0.073 -1.8588  1.2207  1.5836
  826SOL     OW 3376   4.176   3.412   5.111  0.0385 -0.4461 -0.0511
  826SOL    HW1 3377   4.127   3.333   5.076  1.0877 -1.1219 -0.0340
  826SOL    HW2 3378   4.215   3.464   5.035 -0.9621  0.2947 -0.0889
  827SOL     OW 3379   1.138   3.531   4.790  0.2466  0.1671  0.8186
  827SOL    HW1 3380   1.130   3.436   4.821  2.4901 -0.0238  0.9420
  827SOL    HW2 3381   1.232   3.562   4.802  0.1133  1.6357 -1.4771
  828SOL     OW 3382   0.305   5.908   6.451  0.3955 -0.5957  0.5200
  828SOL    HW1 3383   0.249   5.987   6.474  0.4949 -0.1225 -0.8035
  828SOL    HW2 3384   0.247   5.827   6.444  0.1004 -0.3883  0.5663
  829SOL     OW 3385   3.978   3.022   2.035 -0.2787  0.5116 -0.3487
  829SOL    HW1 3386   3.972   2.952   2.107  2.5023  1.7008  1.2343
  829SOL    HW2 3387   3.971   3.112   2.077 -0.7390  1.2207 -1.9159
  830SOL     OW 3388   6.183   3.431   4.524  0.0309 -0.2208 -0.0810
  830SOL    HW1 3389   6.154   3.448   4.430  0.8086 -1.3122 -0.5426
  830SOL    HW2 3390   6.221   3.339   4.531 -1.5026 -0.7956  1.6688
  831SOL     OW 3391   6.327   6.805   1.768  0.4576  0.5784  0.0452
  831SOL    HW1 3392   6.366   6.723   1.726  0.3505  0.3064  0.4765
  831SOL    HW2 3393   6.383   6.832   1.847 -0.3714  0.0222  0.8438
  832SOL     OW 3394   0.070   1.874   4.371  0.0782 -0.7522 -0.2042
  832SOL    HW1 3395   0.103   1.968   4.373 -2.5697  0.3003 -1.0893
  832SOL    HW2 3396   0.005   1.863   4.295 -0.8401 -2.8581  0.8009
  833SOL     OW 3397   6.380   1.802   4.835  0.3968  0.2673  0.3358
  833SOL    HW1 3398   6.422   1.745   4.907  1.2472  2.1194  1.3965
  833SOL    HW2 3399   6.286   1.824   4.861 -0.2549 -1.3765 -0.5381
  834SOL     OW 3400   4.865   3.392   1.263 -0.3971  0.1404 -0.1250
  834SOL    HW1 3401   4.878   3.296   1.290 -0.6882 -0.1328 -0.9238
  834SOL    HW2 3402   4.891   3.452   1.338  0.2750 -0.5562  0.2060
  835SOL     OW 3403   1.842   1.264   4.590 -0.1801  0.3726  0.4919
  835SOL    HW1 3404   1.885   1.328   4.653  2.9774 -0.8971 -0.1744
  835SOL    HW2 3405   1.831   1.306   4.500  1.4685  0.1804  0.1760
  836SOL     OW 3406   3.518   0.691   4.656  0.0115  0.5566  0.0547
  836SOL    HW1 3407   3.550   0.621   4.592  1.3842  0.8843  0.3620
  836SOL    HW2 3408   3.527   0.782   4.614 -0.3631  0.6693  0.2111
  837SOL     OW 3409   1.435   0.171   6.056 -0.0601  0.3495  0.0310
  837SOL    HW1 3410   1.518   0.177   6.000  0.9156 -0.4267  1.3241
  837SOL    HW2 3411   1.358   0.142   6.000  0.9693 -0.7641 -0.8543
  838SOL     OW 3412   0.417   5.896   5.077 -0.0475 -0.1592 -0.0123
  838SOL    HW1 3413   0.409   5.913   5.176 -0.1969  4.0229 -0.5309
  838SOL    HW2 3414   0.327   5.880   5.039 -0.4972  1.7689  0.1399
  839SOL     OW 3415   1.374   0.745   1.343  0.4962 -0.0022 -0.8217
  839SOL    HW1 3416   1.378   0.779   1.437 -0.2337 -0.0203 -0.7787
  839SOL    HW2 3417   1.353   0.820   1.281  1.3336  0.0789 -1.0228
  840SOL     OW 3418   4.711   0.679   6.762 -0.3145  0.3703 -0.5416
  840SOL    HW1 3419   4.784   0.660   6.829 -0.7646  2.0780  0.5007
  840SOL    HW2 3420   4.742   0.749   6.698 -0.5710  0.1257 -0.9347
  841SOL     OW 3421   2.107   5.034   6.331  0.1472  0.1054 -0.6541
  841SOL    HW1 3422   2.038   5.105   6.348  1.1304  1.2368 -1.2536
  841SOL    HW2 3423   2.146   5.046   6.240  1.9706  0.2509  0.0930
  842SOL     OW 3424   2.688   6.449   5.133  0.1207  0.1734 -0.0931
  842SOL    HW1 3425   2.643   6.420   5.217  0.6664  1.2698  0.5970
  842SOL    HW2 3426   2.754   6.379   5.104  0.8437  0.3310  1.0970
  843SOL     OW 3427   1.089   6.974   2.509  0.2117  0.2999 -0.7935
  843SOL    HW1 3428   1.085   7.061   2.460 -0.6839  0.3479 -0.6621
  843SOL    HW2 3429   0.999   6.930   2.506  0.9192 -1.1581 -1.7906
  844SOL     OW 3430   1.857   1.423   0.929  0.1126  0.2396  0.0531
  844SOL    HW1 3431   1.898   1.332   0.923 -0.3412 -0.0088  0.6317
  844SOL    HW2 3432   1.911   1.487   0.874  1.7270  0.0889  1.3883
  845SOL     OW 3433   4.508   4.426   3.127 -0.1927 -0.0906 -0.1506
  845SOL    HW1 3434   4.489   4.503   3.187  0.2234 -0.0341 -0.0880
  845SOL    HW2 3435   4.585   4.373   3.163  1.0287  0.7745 -1.3724
  846SOL     OW 3436   1.960   2.571   5.994 -0.1588  0.8168  0.5274
  846SOL    HW1 3437   2.051   2.562   5.953 -0.0482 -0.0411  0.9549
  846SOL    HW2 3438   1.898   2.609   5.926 -0.0902 -1.0156 -0.6394
  847SOL     OW 3439   0.158   4.081   0.686 -0.3594 -0.2027  0.3740
  847SOL    HW1 3440   0.174   4.124   0.597 -3.0520 -0.1963 -0.1839
  847SOL    HW2 3441   0.205   3.992   0.689  2.5923  1.2324  0.3328
  848SOL     OW 3442   1.469   5.713   4.938  0.4444  0.1906  0.7115
  848SOL    HW1 3443   1.529   5.769   4.881 -0.7862  2.0575  1.1756
  848SOL    HW2 3444   1.417   5.650   4.880  1.0209  0.3018  0.0575
  849SOL     OW 3445   5.517   5.480   0.334  0.1582 -0.2808  0.0528
  849SOL    HW1 3446   5.521   5.453   0.238 -0.0370  0.2189 -0.1014
  849SOL    HW2 3447   5.590   5.435   0.385  1.1005  0.4742 -0.5879
  850SOL     OW 3448   6.740   1.900   5.020 -0.3578 -0.3314  0.6417
  850SOL    HW1 3449   6.807   1.923   5.090 -0.7710  1.0698  0.6137
  850SOL    HW2 3450   6.773   1.822   4.966  0.5135 -0.6555  1.6085
  851SOL     OW 3451   6.323   3.322   0.908 -0.1541 -0.3866 -0.0440
  851SOL    HW1 3452   6.317   3.398   0.843 -0.5785 -0.9200 -0.6299
  851SOL    HW2 3453   6.243   3.263   0.898  0.0226 -0.7456  0.6272
  852SOL     OW 3454   6.840   5.580   6.313 -0.5437  0.3991  0.0620
  852SOL    HW1 3455   6.818   5.619   6.224  1.6931  1.8917  0.0912
  852SOL    HW2 3456   6.817   5.646   6.385  1.8895  1.1499  0.2210
  853SOL     OW 3457   1.126   5.794   5.553 -0.1833  0.2380 -0.3602
  853SOL    HW1 3458   1.109   5.771   5.457 -0.7443 -0.4582 -0.1067
  853SOL    HW2 3459   1.121   5.711   5.608  0.4258  0.5897  0.2370
  854SOL     OW 3460   4.334   6.396   0.323 -0.1265  0.2261 -0.2058
  854SOL    HW1 3461   4.406   6.331   0.298 -0.6084 -0.3774 -0.0536
  854SOL    HW2 3462   4.245   6.361   0.292 -0.5578  0.1646  1.0425
  855SOL     OW 3463   0.234   6.874   0.752  0.1325 -0.2045  0.2185
  855SOL    HW1 3464   0.265   6.957   0.704  0.5339  1.3360  2.9385
  855SOL    HW2 3465   0.243   6.887   0.851 -0.4236 -3.3041  0.7857
  856SOL     OW 3466   2.931   2.442   5.318 -0.0955  0.2876 -0.3252
  856SOL    HW1 3467   2.846   2.434   5.267 -1.3007  0.3853  1.5605
  856SOL    HW2 3468   3.008   2.419   5.259 -1.2422  1.8448 -2.5867
  857SOL     OW 3469   5.464   6.130   1.514  0.0917  0.3408 -0.6002
  857SOL    HW1 3470   5.452   6.199   1.442  1.5883  0.3931 -0.8448
  857SOL    HW2 3471   5.482   6.177   1.601 -0.3528  0.2648 -0.4662
  858SOL     OW 3472   3.068   4.831   3.085 -0.7860 -0.1874 -0.3397
  858SOL    HW1 3473   3.136   4.882   3.032  1.5139 -1.1542  1.5008
  858SOL    HW2 3474   3.105   4.810   3.175 -2.1861 -3.6835 -0.4181
  859SOL     OW 3475   5.921   4.329   6.328  0.2010 -0.2245  0.0132
  859SOL    HW1 3476   5.929   4.260   6.256  0.3629 -0.0646 -0.1235
  859SOL    HW2 3477   5.985   4.307   6.402 -1.0439 -1.2403  0.8197
  860SOL     OW 3478   6.203   1.652   6.714 -0.5745  0.4944 -0.2257
  860SOL    HW1 3479   6.105   1.632   6.723 -0.7683  0.6488 -1.6874
  860SOL    HW2 3480   6.236   1.617   6.626  0.8147 -0.0155  0.4761
  861SOL     OW 3481   1.186   5.106   4.006  0.1540  0.5305  0.4983
  861SOL    HW1 3482   1.221   5.110   4.099 -0.4918  2.8160  0.6990
  861SOL    HW2 3483   1.204   5.193   3.960 -1.5869  0.2812 -0.7385
  862SOL     OW 3484   1.817   2.562   1.586 -0.0961 -0.6987  0.1481
  862SOL    HW1 3485   1.723   2.543   1.612 -0.2237  1.3643  1.3940
  862SOL    HW2 3486   1.876   2.487   1.617 -1.3330 -2.3149 -1.1987
  863SOL     OW 3487   0.311   2.881   5.674  0.0915 -0.0766  0.1470
  863SOL    HW1 3488   0.245   2.823   5.626 -0.5229  0.8642 -0.1674
  863SOL    HW2 3489   0.402   2.867   5.635 -0.0672 -0.7350 -0.0017
  864SOL     OW 3490   4.908   5.165   5.203 -0.4902  0.0174  0.2102
  864SOL    HW1 3491   4.874   5.148   5.110  0.8733  0.1857 -0.3313
  864SOL    HW2 3492   4.973   5.241   5.202 -0.9219  0.4336  1.4175
  865SOL     OW 3493   2.626   5.515   6.643  0.2815 -0.1681 -0.1953
  865SOL    HW1 3494   2.678   5.527   6.558  0.0455 -0.3833 -0.3713
  865SOL    HW2 3495   2.631   5.600   6.697  0.5647 -0.0846 -0.3463
  866SOL     OW 3496   3.495   1.272   0.793 -0.3880 -0.0819 -0.2149
  866SOL    HW1 3497   3.534   1.194   0.841  0.4654 -0.1531 -0.9815
  866SOL    HW2 3498   3.399   1.283   0.818 -0.1831 -0.6129  0.8445
  867SOL     OW 3499   5.122   4.533   1.196  0.2207 -0.0980  0.4292
  867SOL    HW1 3500   5.114   4.514   1.293 -1.1735  0.7412  0.5021
  867SOL    HW2 3501   5.218   4.552   1.174  0.6696 -1.0568  1.4732
  868SOL     OW 3502   6.956   1.604   1.955 -0.3061 -0.4230 -0.5516
  868SOL    HW1 3503   6.895   1.533   1.990  0.5212 -0.7884  0.1992
  868SOL    HW2 3504   7.050   1.571   1.960  0.3407  1.5017  1.8285
  869SOL     OW 3505   6.673   4.871   2.737 -0.4475  0.4350 -0.0838
  869SOL    HW1 3506   6.732   4.887   2.657 -1.2124 -0.6948 -0.9038
  869SOL    HW2 3507   6.697   4.936   2.809  1.0287  0.7448 -0.8098
  870SOL     OW 3508   4.319   4.310   0.171  0.5280 -0.1299  0.3353
  870SOL    HW1 3509   4.302   4.381   0.103  0.0292  0.3490  0.9456
  870SOL    HW2 3510   4.413   4.316   0.203  0.0551  1.3283  1.5621
  871SOL     OW 3511   4.884   1.897   3.959  0.2847 -0.2449  0.0437
  871SOL    HW1 3512   4.891   1.838   3.879  0.0254 -1.4788  0.8917
  871SOL    HW2 3513   4.788   1.917   3.978  0.3244 -0.2395  0.2449
  872SOL     OW 3514   5.447   3.623   3.813  0.0136  0.3572 -0.1357
  872SOL    HW1 3515   5.540   3.653   3.793  0.4670 -1.6003 -1.1537
  872SOL    HW2 3516   5.431   3.628   3.912  1.3913  0.1749  0.1217
  873SOL     OW 3517   4.878   6.045   5.651  0.4413 -0.0434 -0.1803
  873SOL    HW1 3518   4.816   6.082   5.583  1.5847 -0.6478 -1.5928
  873SOL    HW2 3519   4.838   5.963   5.692 -0.3954  0.5148  0.1522
  874SOL     OW 3520   0.091   4.045   6.670 -0.3014  0.1512 -0.5345
  874SOL    HW1 3521   0.145   4.022   6.752 -0.6376  0.8308 -0.1126
  874SOL    HW2 3522   0.011   3.986   6.665 -0.6262  0.5341 -0.0076
  875SOL     OW 3523   6.195   4.267   0.946  0.0120 -0.1060  0.1466
  875SOL    HW1 3524   6.098   4.247   0.937 -0.2726  1.6120 -1.1804
  875SOL    HW2 3525   6.247   4.207   0.886 -0.3621 -0.1693 -0.1169
  876SOL     OW 3526   6.218   5.449   4.058  0.3911  0.0361  0.2919
  876SOL    HW1 3527   6.155   5.509   4.007  1.3004  0.8457  0.0977
  876SOL    HW2 3528   6.217   5.475   4.155  0.7053  0.2986  0.2255
  877SOL     OW 3529   2.680   4.105   5.281 -0.1479 -0.3910 -0.2831
  877SOL    HW1 3530   2.718   4.076   5.369 -1.1617 -0.1853  0.2391
  877SOL    HW2 3531   2.597   4.052   5.262 -2.3460  2.3808  0.9264
  878SOL     OW 3532   4.682   5.563   3.376  0.4155  0.1608  0.7702
  878SOL    HW1 3533   4.686   5.621   3.458 -0.1170  0.6526  0.4600
  878SOL    HW2 3534   4.772   5.560   3.333  0.1141  2.1012 -0.0966
  879SOL     OW 3535   2.134   0.994   2.554  0.0447  0.2095  0.0730
  879SOL    HW1 3536   2.066   1.067   2.545 -1.0854 -0.8330 -0.1832
  879SOL    HW2 3537   2.100   0.912   2.508  2.3759  0.2348 -1.8847
  880SOL     OW 3538   3.513   3.673   3.164 -0.1649 -0.0121 -0.0917
  880SOL    HW1 3539   3.593   3.732   3.166 -0.1736  0.1526  4.1291
  880SOL    HW2 3540   3.490   3.644   3.257 -3.3623 -2.3757 -1.4086
  881SOL     OW 3541   5.123   3.381   4.380  0.1695  0.8903  0.1554
  881SOL    HW1 3542   5.150   3.455   4.441 -0.0102  0.7055  0.4595
  881SOL    HW2 3543   5.174   3.388   4.294 -0.6773  2.0381 -0.2756
  882SOL     OW 3544   2.467   1.971   5.274 -0.0560  0.1885  0.5384
  882SOL    HW1 3545   2.431   1.918   5.197  0.8797 -0.2631  0.3995
  882SOL    HW2 3546   2.494   1.909   5.347 -2.0241  0.6734  1.7371
  883SOL     OW 3547   2.832   2.185   0.590 -0.0808 -0.0831  0.0447
  883SOL    HW1 3548   2.912   2.232   0.628 -0.4623  0.9495 -0.3728
  883SOL    HW2 3549   2.862   2.120   0.520  0.3515  1.0329 -0.8468
  884SOL     OW 3550   0.404   4.142   6.516  0.0676 -0.0343 -0.2323
  884SOL    HW1 3551   0.438   4.227   6.556  0.7488  0.1460 -1.1556
  884SOL    HW2 3552   0.336   4.101   6.577  1.9087 -0.3846  1.6979
  885SOL     OW 3553   3.708   0.487   4.947  0.1273  0.1418 -0.1244
  885SOL    HW1 3554   3.619   0.469   4.991  0.5277 -0.5610  0.4157
  885SOL    HW2 3555   3.717   0.586   4.931 -0.1732  0.3833  1.0777
  886SOL     OW 3556   2.967   0.067   0.406  0.1295 -0.3418 -0.0275
  886SOL    HW1 3557   2.898   0.091   0.338  1.3527  0.2693 -1.0917
  886SOL    HW2 3558   2.926   0.067   0.497 -1.6900 -1.7174 -0.7744
  887SOL     OW 3559   4.376   6.699   5.759 -0.2044 -0.0089 -0.2971
  887SOL    HW1 3560   4.419   6.781   5.795 -0.4049  0.2813 -0.7108
  887SOL    HW2 3561   4.299   6.674   5.818  0.4751 -0.4896  0.4031
  888SOL     OW 3562   1.253   4.511   3.770  0.4115  0.2223  0.3633
  888SOL    HW1 3563   1.339   4.490   3.722  0.0437 -3.0247  0.9369
  888SOL    HW2 3564   1.270   4.518   3.868  0.1955  0.8204  0.3625
  889SOL     OW 3565   5.992   1.918   6.441 -0.2888  0.3746 -0.6733
  889SOL    HW1 3566   6.005   1.988   6.511  0.8787  0.2068 -0.6977
  889SOL    HW2 3567   5.930   1.847   6.475 -3.1793  2.3843 -1.3801
  890SOL     OW 3568   1.661   5.130   4.201  0.6457 -0.1845  0.2226
  890SOL    HW1 3569   1.631   5.157   4.110 -0.6734  1.7924  1.1793
  890SOL    HW2 3570   1.757   5.155   4.213  0.0932  2.1879  0.2627
  891SOL     OW 3571   5.239   3.869   0.750 -0.5720 -0.3523  0.0533
  891SOL    HW1 3572   5.270   3.926   0.674  0.0046 -3.1367 -1.9714
  891SOL    HW2 3573   5.318   3.832   0.799 -0.8609 -1.0490  0.0080
  892SOL     OW 3574   3.686   3.213   3.461 -0.2709 -0.2071 -0.2279
  892SOL    HW1 3575   3.754   3.285   3.447 -0.3572 -0.2281 -0.7898
  892SOL    HW2 3576   3.607   3.252   3.510 -0.4122  0.1430 -0.7207
  893SOL     OW 3577   2.189   6.319   3.754 -0.4329 -0.7186  0.3718
  893SOL    HW1 3578   2.221   6.384   3.686 -2.5622  0.3613  0.3119
  893SOL    HW2 3579   2.174   6.367   3.841  1.0377 -1.8192  1.2704
  894SOL     OW 3580   1.005   3.412   1.559 -0.4435  0.0923 -0.7058
  894SOL    HW1 3581   1.097   3.444   1.539 -0.2214  0.1077  0.2757
  894SOL    HW2 3582   1.009   3.317   1.591 -0.6509  0.4003  0.2731
  895SOL     OW 3583   0.035   4.129   5.101  0.2326 -0.1418  0.8260
  895SOL    HW1 3584   0.051   4.196   5.029 -0.0324  1.0121  1.7941
  895SOL    HW2 3585  -0.046   4.074   5.078  0.8276 -0.5897 -0.2797
  896SOL     OW 3586   2.256   4.128   0.316  0.7733  0.4381 -0.2883
  896SOL    HW1 3587   2.287   4.215   0.355 -0.1355  1.2451 -1.2953
  896SOL    HW2 3588   2.332   4.084   0.268  1.2471  0.6584  0.2464
  897SOL     OW 3589   3.860   0.211   5.498  0.6972 -0.2004  0.8813
  897SOL    HW1 3590   3.935   0.272   5.471  1.6476 -1.3057  0.8914
  897SOL    HW2 3591   3.866   0.192   5.596  1.4370 -1.5767  0.6036
  898SOL     OW 3592   4.819   0.827   3.842 -0.6073 -0.3010 -0.3178
  898SOL    HW1 3593   4.845   0.768   3.765  1.7266  1.4223 -0.9393
  898SOL    HW2 3594   4.738   0.881   3.817  0.2338  0.3756 -1.6662
  899SOL     OW 3595   1.479   6.387   6.500  0.4413  0.4360  0.3398
  899SOL    HW1 3596   1.519   6.370   6.590 -0.6119  1.1602  0.9558
  899SOL    HW2 3597   1.399   6.445   6.509 -0.0331  0.0300 -1.0161
  900SOL     OW 3598   3.738   0.238   2.058  0.0523 -0.8096 -0.0091
  900SOL    HW1 3599   3.800   0.311   2.087  0.5206 -1.3753  0.4180
  900SOL    HW2 3600   3.679   0.272   1.984  0.5172 -0.1161 -0.0668
  901SOL     OW 3601   2.010   1.481   3.626  0.1667 -0.8214  0.5369
  901SOL    HW1 3602   2.105   1.449   3.633  0.6571  0.1070 -1.1563
  901SOL    HW2 3603   1.958   1.419   3.568  0.0392 -0.7364  0.5608
  902SOL     OW 3604   2.419   2.585   1.224 -0.3385 -0.6405  1.0407
  902SOL    HW1 3605   2.339   2.528   1.242  1.0378 -2.5465  1.5080
  902SOL    HW2 3606   2.502   2.534   1.247  1.1594  0.2836 -1.8649
  903SOL     OW 3607   1.508   2.293   4.514 -0.0252 -0.6433 -0.0244
  903SOL    HW1 3608   1.602   2.262   4.528 -0.0056 -0.6480 -0.1731
  903SOL    HW2 3609   1.468   2.317   4.603  0.9735  1.8861 -0.1666
  904SOL     OW 3610   2.646   2.405   1.280 -0.3449  0.1779  0.3684
  904SOL    HW1 3611   2.711   2.329   1.280 -1.5563 -0.9062  1.3208
  904SOL    HW2 3612   2.670   2.469   1.354 -0.9306 -0.7535  1.3896
  905SOL     OW 3613   5.104   4.380   6.105 -0.1672 -0.2354  0.4394
  905SOL    HW1 3614   5.072   4.381   6.199  1.7390  0.1645  1.1366
  905SOL    HW2 3615   5.177   4.448   6.094  0.0491 -0.6848 -1.1673
  906SOL     OW 3616   0.324   0.589   5.863  0.0446  0.0184 -0.2312
  906SOL    HW1 3617   0.231   0.605   5.896 -0.1644  0.2191 -0.9040
  906SOL    HW2 3618   0.387   0.586   5.941 -0.4420  0.4504  0.1852
  907SOL     OW 3619   4.906   3.349   0.841  0.1465  0.0525  0.7817
  907SOL    HW1 3620   5.006   3.352   0.838  0.1527 -0.7017 -0.9670
  907SOL    HW2 3621   4.873   3.411   0.913  1.8522  0.2573  1.4403
  908SOL     OW 3622   1.302   3.160   4.678 -0.2751 -0.0659  0.1877
  908SOL    HW1 3623   1.356   3.102   4.738  0.3420  1.4949  1.2239
  908SOL    HW2 3624   1.206   3.154   4.702 -0.5362 -2.2722 -1.1580
  909SOL     OW 3625   4.688   6.752   0.357  0.3653  0.7916 -0.1201
  909SOL    HW1 3626   4.654   6.664   0.391  1.5403  0.8835  1.4101
  909SOL    HW2 3627   4.612   6.803   0.316 -1.2019  0.6067  2.3149
  910SOL     OW 3628   2.314   3.010   0.585 -0.1626  0.6529  0.1003
  910SOL    HW1 3629   2.352   3.002   0.677  0.7194  3.1179  0.0295
  910SOL    HW2 3630   2.286   2.919   0.553 -0.0715 -0.3417  2.5779
  911SOL     OW 3631   1.799   6.582   0.095 -0.2070  0.4356 -0.5367
  911SOL    HW1 3632   1.830   6.616   0.007  2.5086  1.0659  0.5684
  911SOL    HW2 3633   1.837   6.638   0.168 -0.9852 -1.0926  1.1279
  912SOL     OW 3634   0.991   1.533   3.773  0.1462  0.0949 -0.2864
  912SOL    HW1 3635   0.936   1.583   3.840 -0.1852  1.0356 -1.2244
  912SOL    HW2 3636   0.991   1.436   3.796 -1.1671  0.1924  0.2591
  913SOL     OW 3637   3.905   1.270   4.219 -0.0782 -0.4592  0.4879
  913SOL    HW1 3638   3.841   1.333   4.265  1.0706  0.4308  0.9198
  913SOL    HW2 3639   3.881   1.176   4.242 -0.4797 -0.0902  1.6626
  914SOL     OW 3640   1.401   0.521   5.245 -0.1702 -0.6906 -0.3625
  914SOL    HW1 3641   1.485   0.575   5.238 -0.5935 -0.2239 -3.7117
  914SOL    HW2 3642   1.421   0.427   5.219 -0.6612 -0.5833 -1.1352
  915SOL     OW 3643   0.730   1.746   0.077 -0.1672 -0.1457  0.4229
  915SOL    HW1 3644   0.715   1.648   0.089  0.0701 -0.3178 -0.6077
  915SOL    HW2 3645   0.643   1.795   0.085 -0.2108 -0.3724  1.4632
  916SOL     OW 3646   1.456   1.809   3.164 -0.2172  0.1827 -0.1123
  916SOL    HW1 3647   1.434   1.734   3.227 -2.5195  0.5830 -0.3360
  916SOL    HW2 3648   1.481   1.771   3.075  1.8897 -0.3565  0.6614
  917SOL     OW 3649   1.366   0.521   1.782 -0.3912  0.3165  0.6769
  917SOL    HW1 3650   1.458   0.556   1.768 -0.0944  0.3575  2.5017
  917SOL    HW2 3651   1.356   0.489   1.877 -1.7457 -1.2300  0.0697
  918SOL     OW 3652   4.095   1.215   0.159  0.1281  0.4724 -0.6642
  918SOL    HW1 3653   4.026   1.145   0.137 -2.0928  1.8426  1.4408
  918SOL    HW2 3654   4.179   1.195   0.109 -1.4396 -1.8568 -2.6184
  919SOL     OW 3655   6.582   0.917   1.577 -0.0839  0.2459 -0.4957
  919SOL    HW1 3656   6.639   0.855   1.631 -0.3163  0.4167 -0.0460
  919SOL    HW2 3657   6.534   0.980   1.639 -0.3973  0.4074 -0.9004
  920SOL     OW 3658   3.144   5.257   4.337  0.1216  0.1840 -0.4235
  920SOL    HW1 3659   3.122   5.345   4.380  0.0677  0.1504 -0.3821
  920SOL    HW2 3660   3.221   5.269   4.274 -0.5276  0.4695 -1.1747
  921SOL     OW 3661   2.692   6.928   4.822 -0.1127  0.1343 -0.9174
  921SOL    HW1 3662   2.647   6.868   4.888  0.5185 -0.3547 -0.9199
  921SOL    HW2 3663   2.634   7.007   4.803 -0.8303 -0.3330 -0.6957
  922SOL     OW 3664   2.941   3.201   4.835 -0.4010 -0.0775  0.2808
  922SOL    HW1 3665   2.843   3.204   4.854 -0.6432  1.5838 -0.9865
  922SOL    HW2 3666   2.989   3.166   4.915 -2.1106 -2.4488  0.4039
  923SOL     OW 3667   2.458   1.463   6.417 -0.5055  0.3243 -0.3268
  923SOL    HW1 3668   2.367   1.493   6.445 -0.4994 -0.2296  0.3164
  923SOL    HW2 3669   2.499   1.532   6.357  0.3264  2.6262  2.6784
  924SOL     OW 3670   6.862   4.297   1.099 -0.0353  0.1686  0.5006
  924SOL    HW1 3671   6.861   4.225   1.029 -1.9487 -0.9555  1.6200
  924SOL    HW2 3672   6.830   4.383   1.058  0.8091  0.0335 -0.4805
  925SOL     OW 3673   6.921   1.773   6.158  0.4409  0.6646 -0.1084
  925SOL    HW1 3674   6.955   1.861   6.126  0.2514  1.0981  0.8547
  925SOL    HW2 3675   6.985   1.701   6.132 -0.4729  0.7196 -2.9114
  926SOL     OW 3676   4.834   1.856   0.416  0.3748 -0.8946 -0.2886
  926SOL    HW1 3677   4.872   1.766   0.394  0.0574 -1.0739 -0.1091
  926SOL    HW2 3678   4.855   1.920   0.342 -1.0531 -1.5972 -1.3494
  927SOL     OW 3679   6.131   3.927   3.235  0.5270  0.1716  0.1818
  927SOL    HW1 3680   6.034   3.903   3.233  0.4572  0.4872 -0.6825
  927SOL    HW2 3681   6.155   3.976   3.151  1.8402 -1.5004 -0.4974
  928SOL     OW 3682   1.997   6.385   6.726 -0.0102  0.4042 -0.7176
  928SOL    HW1 3683   1.957   6.296   6.703  1.3930 -1.3326  2.9210
  928SOL    HW2 3684   2.093   6.387   6.699  0.6053 -0.1822  1.2770
  929SOL     OW 3685   0.892   1.167   5.417  0.2855 -0.2993 -0.7588
  929SOL    HW1 3686   0.951   1.126   5.347  0.8241  1.0894 -1.1496
  929SOL    HW2 3687   0.796   1.154   5.392  0.3664 -2.7347 -0.0320
  930SOL     OW 3688   5.786   6.768   4.055 -0.4105 -0.4821  0.2593
  930SOL    HW1 3689   5.882   6.779   4.081 -0.8468  0.7305  1.4615
  930SOL    HW2 3690   5.730   6.764   4.138 -1.4227 -1.0762 -0.4357
  931SOL     OW 3691   6.509   1.454   4.522 -0.3922  0.2392 -0.6681
  931SOL    HW1 3692   6.485   1.550   4.541  1.8056  0.6623  0.3189
  931SOL    HW2 3693   6.431   1.396   4.543 -1.2110  1.6705  0.4744
  932SOL     OW 3694   2.891   0.865   1.878 -0.1447 -0.3774  0.5944
  932SOL    HW1 3695   2.877   0.877   1.976 -3.0745 -0.1950  0.2597
  932SOL    HW2 3696   2.847   0.940   1.829  0.8011 -0.7571 -0.8807
  933SOL     OW 3697   2.584   5.949   2.442 -0.4860 -0.1619  0.2030
  933SOL    HW1 3698   2.597   6.041   2.404 -1.5916 -0.0862 -0.0294
  933SOL    HW2 3699   2.538   5.891   2.374 -1.3195 -0.3899  0.9433
  934SOL     OW 3700   3.641   0.888   6.922  0.3259 -0.1791  0.3921
  934SOL    HW1 3701   3.630   0.841   7.009 -2.3241  1.1015  0.8453
  934SOL    HW2 3702   3.691   0.974   6.937 -0.6419  0.3289  0.7987
  935SOL     OW 3703   6.546   4.315   2.878 -0.4738 -0.0399 -0.3265
  935SOL    HW1 3704   6.545   4.222   2.916 -1.1304 -0.1399 -0.5787
  935SOL    HW2 3705   6.453   4.343   2.854 -0.4207  1.0431  0.6143
  936SOL     OW 3706   6.581   1.381   6.006  0.2856  0.0295  0.7404
  936SOL    HW1 3707   6.666   1.400   5.958 -0.5258 -2.6132 -2.0065
  936SOL    HW2 3708   6.510   1.443   5.973  0.1211 -0.7195 -0.3658
  937SOL     OW 3709   6.084   1.847   6.207 -0.3320  1.1849  1.0202
  937SOL    HW1 3710   6.176   1.811   6.220 -1.0726 -1.0724  0.4540
  937SOL    HW2 3711   6.038   1.856   6.296 -0.2810  0.2135  1.1587
  938SOL     OW 3712   6.442   3.979   0.387  0.5128 -0.2103  0.0374
  938SOL    HW1 3713   6.355   4.013   0.423  1.2532 -0.8966  2.6967
  938SOL    HW2 3714   6.503   4.055   0.367 -0.1362  0.2193 -0.3132
  939SOL     OW 3715   1.586   0.632   5.878  0.4181  0.2018 -0.4419
  939SOL    HW1 3716   1.642   0.650   5.959  0.1791 -1.0868  0.0289
  939SOL    HW2 3717   1.490   0.625   5.905  0.1846  0.9891 -1.0346
  940SOL     OW 3718   1.352   4.103   0.479  0.2260  0.7150  0.2466
  940SOL    HW1 3719   1.302   4.029   0.523  1.3264 -0.3804 -0.3015
  940SOL    HW2 3720   1.440   4.116   0.525 -0.1806  2.0865  0.6960
  941SOL     OW 3721   5.649   2.241   1.215 -0.2133 -0.0748 -0.5786
  941SOL    HW1 3722   5.614   2.189   1.137  0.3648  1.3942 -1.8785
  941SOL    HW2 3723   5.721   2.303   1.184 -0.4919  1.1094  0.9941
  942SOL     OW 3724   5.798   0.005   2.605 -0.1937 -0.2761 -0.7508
  942SOL    HW1 3725   5.743  -0.060   2.553 -0.6315 -0.7014  0.2182
  942SOL    HW2 3726   5.775   0.098   2.576 -1.7742 -0.4223 -0.0716
  943SOL     OW 3727   2.334   5.612   2.705 -0.3925  0.0197 -0.4073
  943SOL    HW1 3728   2.386   5.530   2.726 -0.1673 -0.1722 -1.6206
  943SOL    HW2 3729   2.331   5.671   2.786  1.5252 -0.0600 -0.2218
  944SOL     OW 3730   0.960   5.120   4.716 -0.4998  0.2857 -0.2404
  944SOL    HW1 3731   0.904   5.045   4.749 -1.6877  1.6477  1.0188
  944SOL    HW2 3732   1.048   5.119   4.762  0.2801 -1.4081 -1.6517
  945SOL     OW 3733   0.989   6.037   5.202 -0.3619 -0.2044  0.5538
  945SOL    HW1 3734   0.892   6.014   5.209 -0.2083 -0.4892  2.4167
  945SOL    HW2 3735   1.035   6.011   5.287  0.9233  1.9318  0.5725
  946SOL     OW 3736   4.546   4.565   6.284 -0.0032 -0.2789 -0.3730
  946SOL    HW1 3737   4.503   4.478   6.262 -0.5285 -0.4078  1.0373
  946SOL    HW2 3738   4.535   4.628   6.207 -1.2794 -0.8457 -0.6841
  947SOL     OW 3739   3.679   3.154   3.166 -0.0871 -0.4073  0.3127
  947SOL    HW1 3740   3.602   3.208   3.132 -0.5544  0.3395  2.4174
  947SOL    HW2 3741   3.647   3.090   3.235  0.9447 -1.2803  0.0070
  948SOL     OW 3742   4.882   6.789   3.333 -0.0461  0.1111  0.1430
  948SOL    HW1 3743   4.827   6.847   3.393  0.1882 -1.2200  1.7378
  948SOL    HW2 3744   4.953   6.743   3.387  0.7675 -0.4563 -1.3439
  949SOL     OW 3745   1.616   6.128   0.042  0.8402  0.2497 -0.2013
  949SOL    HW1 3746   1.639   6.047   0.097  0.9988  1.9953  2.4594
  949SOL    HW2 3747   1.699   6.182   0.027  0.1767  1.7211  1.1997
  950SOL     OW 3748   6.193   6.411   4.458  0.3088  0.2942  0.3534
  950SOL    HW1 3749   6.161   6.487   4.402 -1.0701 -0.1627  0.4822
  950SOL    HW2 3750   6.160   6.325   4.420  0.1932 -0.0944  1.2893
  951SOL     OW 3751   0.525   1.584   5.220  0.3512 -0.1292  0.3292
  951SOL    HW1 3752   0.469   1.665   5.204 -0.7906 -0.5171  2.0782
  951SOL    HW2 3753   0.536   1.570   5.318 -0.6387 -2.8135  0.1594
  952SOL     OW 3754   5.481   1.832   3.047 -0.0032 -0.1862 -0.0744
  952SOL    HW1 3755   5.477   1.932   3.042  2.1783 -0.0434  0.1505
  952SOL    HW2 3756   5.400   1.793   3.002  0.1009  1.6455 -2.0161
  953SOL     OW 3757   5.025   3.915   5.574 -0.0455 -0.1507 -0.0468
  953SOL    HW1 3758   4.971   3.858   5.512 -1.2313  0.9536 -0.0706
  953SOL    HW2 3759   5.073   3.985   5.522  1.6499 -1.2720 -0.0491
  954SOL     OW 3760   3.650   0.710   2.295  0.1357  0.1610  0.7119
  954SOL    HW1 3761   3.591   0.791   2.295  0.3063  0.2855  0.6240
  954SOL    HW2 3762   3.744   0.737   2.273 -0.2972 -0.4126 -2.2375
  955SOL     OW 3763   6.907   3.310   0.727 -0.7637 -0.1255  0.4540
  955SOL    HW1 3764   6.919   3.217   0.762 -1.2555  0.3185  1.8438
  955SOL    HW2 3765   6.813   3.339   0.743 -0.0833  1.3712  1.9206
  956SOL     OW 3766   0.133   1.372   1.666  0.1366 -0.4901 -0.0029
  956SOL    HW1 3767   0.106   1.281   1.635 -1.1538 -0.3676  0.7187
  956SOL    HW2 3768   0.115   1.439   1.595  0.1998 -0.6601 -0.1787
  957SOL     OW 3769   6.803   2.671   1.817 -0.0312 -0.3384 -0.1169
  957SOL    HW1 3770   6.836   2.750   1.867  0.6537 -2.2173  2.6523
  957SOL    HW2 3771   6.703   2.672   1.814 -0.0636  0.0059  0.9793
  958SOL     OW 3772   5.530   2.985   2.520 -0.2326 -0.5278  0.0632
  958SOL    HW1 3773   5.515   3.061   2.584 -1.7550 -1.4593  0.8796
  958SOL    HW2 3774   5.563   2.906   2.571 -1.0539 -1.1599 -0.3739
  959SOL     OW 3775   1.567   5.859   5.660 -0.7848  0.0453  0.2877
  959SOL    HW1 3776   1.665   5.842   5.650 -1.0517 -0.8377 -1.2743
  959SOL    HW2 3777   1.530   5.800   5.731 -0.3137 -0.1410  0.3839
  960SOL     OW 3778   6.867   6.199   2.199 -0.4581 -0.1469  0.1826
  960SOL    HW1 3779   6.958   6.232   2.225 -0.4283  0.2729 -0.4174
  960SOL    HW2 3780   6.875   6.139   2.119 -0.7185  0.0337  0.0166
  961SOL     OW 3781   3.592   5.570   3.178  0.6684 -0.1188  0.1186
  961SOL    HW1 3782   3.628   5.591   3.087  4.2619 -1.3911  1.0717
  961SOL    HW2 3783   3.609   5.648   3.239 -0.6778  0.2797  0.0111
  962SOL     OW 3784   0.082   6.302   2.350 -0.4984  0.2641 -0.1273
  962SOL    HW1 3785   0.076   6.401   2.361 -0.9375  0.1857  0.4000
  962SOL    HW2 3786   0.040   6.257   2.429 -0.5141 -0.3421 -0.4700
  963SOL     OW 3787   4.739   0.705   5.979  0.2692  0.4268  0.1234
  963SOL    HW1 3788   4.734   0.647   6.061 -1.0822  1.7826  1.0309
  963SOL    HW2 3789   4.821   0.762   5.984  1.6122 -1.3089 -0.7733
  964SOL     OW 3790   6.449   5.497   0.848  0.4615  0.0893  0.0757
  964SOL    HW1 3791   6.396   5.479   0.931  0.4057  1.4216  0.3407
  964SOL    HW2 3792   6.460   5.595   0.835 -0.9912  0.0105 -2.4133
  965SOL     OW 3793   6.481   2.913   2.141  0.4122 -0.6393  0.4053
  965SOL    HW1 3794   6.536   2.986   2.182  2.1981 -1.6828 -0.0619
  965SOL    HW2 3795   6.482   2.921   2.042 -1.1357 -0.0906  0.4126
  966SOL     OW 3796   0.171   2.323   0.585 -0.5937 -0.1174 -0.1592
  966SOL    HW1 3797   0.193   2.237   0.631 -0.1111  0.3109  0.4230
  966SOL    HW2 3798   0.127   2.304   0.498 -0.8223 -0.9539  0.1310
  967SOL     OW 3799   3.538   4.203   0.866 -0.3910  0.1123 -0.1105
  967SOL    HW1 3800   3.582   4.119   0.835  1.9799  1.3186 -0.2932
  967SOL    HW2 3801   3.498   4.189   0.956  1.7421 -0.7153  0.7723
  968SOL     OW 3802   3.815   0.480   2.601 -0.6002  0.2007 -0.6271
  968SOL    HW1 3803   3.795   0.446   2.693 -0.2296 -1.1912 -1.0399
  968SOL    HW2 3804   3.748   0.550   2.576 -0.9316  0.3140  0.5483
  969SOL     OW 3805   3.788   4.376   5.718 -0.0284  0.5562 -0.1227
  969SOL    HW1 3806   3.806   4.425   5.803 -2.1879 -0.5854  1.1034
  969SOL    HW2 3807   3.780   4.278   5.738 -2.6041  0.4649 -1.1958
  970SOL     OW 3808   6.244   1.019   6.093  0.8621  0.0192  0.5734
  970SOL    HW1 3809   6.307   0.963   6.040  0.6910 -0.2808  0.6823
  970SOL    HW2 3810   6.180   1.065   6.031 -2.0943 -3.5797  0.5992
  971SOL     OW 3811   5.778   4.096   3.245 -0.3008 -0.2309  0.0941
  971SOL    HW1 3812   5.705   4.159   3.269  0.3895  0.2986  0.8860
  971SOL    HW2 3813   5.819   4.059   3.329 -0.3918 -1.3939 -0.3484
  972SOL     OW 3814   6.450   2.173   1.600 -0.8476  0.3678  0.2836
  972SOL    HW1 3815   6.415   2.195   1.691  0.2125  0.7832  0.6090
  972SOL    HW2 3816   6.455   2.073   1.590 -1.8779  0.3023  0.3075
  973SOL     OW 3817   6.022   4.431   5.779 -0.9159  0.5484  0.4035
  973SOL    HW1 3818   5.922   4.427   5.787 -1.0245  1.6145 -0.2143
  973SOL    HW2 3819   6.046   4.492   5.703  0.1845 -0.7896 -0.3719
  974SOL     OW 3820   5.228   5.010   2.432  0.1087  0.0838 -0.0160
  974SOL    HW1 3821   5.200   4.914   2.431  1.3416 -0.3331  1.4435
  974SOL    HW2 3822   5.164   5.065   2.377 -0.1519 -1.6731 -1.5722
  975SOL     OW 3823   1.873   6.353   0.543 -0.2218  0.1323 -0.1046
  975SOL    HW1 3824   1.931   6.271   0.543  0.6159  0.7141  0.2744
  975SOL    HW2 3825   1.867   6.389   0.450 -1.0517 -0.6699 -0.3729
  976SOL     OW 3826   1.235   3.994   1.921  0.1255 -0.0624  0.3723
  976SOL    HW1 3827   1.224   4.047   1.837  0.0599  1.1960  1.1460
  976SOL    HW2 3828   1.251   3.898   1.899  0.3950  0.3051 -1.0766
  977SOL     OW 3829   6.679   1.921   0.640 -0.1655  0.3977  0.1047
  977SOL    HW1 3830   6.650   1.851   0.575  0.2747 -0.0565  0.3995
  977SOL    HW2 3831   6.602   1.944   0.700  0.3747 -1.6942  1.6954
  978SOL     OW 3832   4.214   3.376   6.315 -0.3454  0.1690  0.4575
  978SOL    HW1 3833   4.156   3.322   6.255  0.9362  0.3969 -1.0553
  978SOL    HW2 3834   4.184   3.365   6.410 -1.1788 -1.8011  0.0045
  979SOL     OW 3835   1.575   2.816   0.671  0.6096  0.3231  0.4385
  979SOL    HW1 3836   1.503   2.807   0.601 -0.9597  0.1655  1.9950
  979SOL    HW2 3837   1.605   2.911   0.675  1.3626  0.1847 -1.0106
  980SOL     OW 3838   5.057   1.354   2.894  0.0887 -0.3104 -0.5552
  980SOL    HW1 3839   5.155   1.372   2.891  0.2503 -0.9582  0.4040
  980SOL    HW2 3840   5.016   1.376   2.806  0.8270  1.4676 -0.5015
  981SOL     OW 3841   6.595   5.772   4.200  0.1399  0.6421  0.1026
  981SOL    HW1 3842   6.627   5.859   4.238  1.4517  0.7754 -1.2060
  981SOL    HW2 3843   6.674   5.713   4.183 -0.7745 -1.1778  1.7323
  982SOL     OW 3844   6.617   0.901   3.776  0.2281  0.1530 -0.0458
  982SOL    HW1 3845   6.547   0.956   3.823  0.4938  0.4191  0.0402
  982SOL    HW2 3846   6.694   0.886   3.838 -1.2488 -3.2465  1.2092
  983SOL     OW 3847   0.918   3.997   4.112 -0.4101 -0.7750  0.1399
  983SOL    HW1 3848   0.820   4.013   4.102 -0.4196 -0.8318  0.1371
  983SOL    HW2 3849   0.935   3.898   4.119 -0.3093 -0.7992 -0.3695
  984SOL     OW 3850   1.777   2.913   4.456  0.4439 -0.0971 -0.2743
  984SOL    HW1 3851   1.806   2.927   4.361  0.9022  1.1512  0.0266
  984SOL    HW2 3852   1.688   2.957   4.471  1.0426  0.9780  0.2265
  985SOL     OW 3853   6.238   4.337   5.545  0.5260  0.4233 -0.1155
  985SOL    HW1 3854   6.239   4.302   5.639 -0.2417  2.3541  0.6662
  985SOL    HW2 3855   6.331   4.338   5.509  0.7663 -0.8686  0.3885
  986SOL     OW 3856   2.810   6.090   1.545  0.0821 -0.8094 -0.1772
  986SOL    HW1 3857   2.830   6.156   1.618  0.4393 -0.7176 -0.3536
  986SOL    HW2 3858   2.895   6.066   1.498 -0.0746 -1.2444 -0.2438
  987SOL     OW 3859   5.050   5.015   3.047  0.2267 -0.7762  0.1626
  987SOL    HW1 3860   5.057   4.938   3.110  1.1608 -1.2179 -0.4572
  987SOL    HW2 3861   5.003   5.090   3.092  0.1613 -1.3642  1.1115
  988SOL     OW 3862   2.103   5.414   0.595 -0.7497  0.2368  0.4335
  988SOL    HW1 3863   2.009   5.448   0.598 -0.6289  0.8391 -1.4449
  988SOL    HW2 3864   2.166   5.486   0.624 -0.6195  1.1796 -1.9872
  989SOL     OW 3865   4.724   1.907   4.974 -0.7117 -0.7551  0.1808
  989SOL    HW1 3866   4.806   1.853   4.954 -0.1699 -0.0842  0.5618
  989SOL    HW2 3867   4.650   1.846   5.002  0.3677 -1.2168  2.2447
  990SOL     OW 3868   3.024   0.631   1.826 -0.4245  0.3253  0.5062
  990SOL    HW1 3869   2.993   0.610   1.734 -0.4931  2.6470 -0.0554
  990SOL    HW2 3870   2.990   0.721   1.854 -1.5075 -0.8397  3.3390
  991SOL     OW 3871   0.779   2.146   4.662  0.8433 -0.2906  0.8609
  991SOL    HW1 3872   0.715   2.222   4.672  1.6022  0.2497  1.8166
  991SOL    HW2 3873   0.733   2.060   4.682  0.3839  0.0775  1.4167
  992SOL     OW 3874   0.187   3.651   1.591  0.0580  0.0896 -0.2845
  992SOL    HW1 3875   0.203   3.553   1.581  1.4511  0.3470 -0.7358
  992SOL    HW2 3876   0.118   3.666   1.662 -0.8270 -1.2382 -0.8087
  993SOL     OW 3877   5.708   4.593   1.745 -0.6194 -0.2338  0.3609
  993SOL    HW1 3878   5.634   4.525   1.739  1.5084 -2.7802  0.9211
  993SOL    HW2 3879   5.669   4.682   1.769 -3.5776 -1.1991 -0.3628
  994SOL     OW 3880   4.430   5.859   2.666 -0.0843 -0.0100 -0.8520
  994SOL    HW1 3881   4.428   5.760   2.662  0.3445  0.0224 -2.0947
  994SOL    HW2 3882   4.523   5.890   2.687 -0.7917  0.0742  2.8159
  995SOL     OW 3883   5.028   2.742   5.484  0.0494 -0.4065  0.1656
  995SOL    HW1 3884   4.975   2.658   5.476  0.0732 -0.5152  1.1298
  995SOL    HW2 3885   5.020   2.794   5.399 -0.5768 -1.0198 -0.1585
  996SOL     OW 3886   3.974   5.780   4.832 -0.7347  0.7234  0.0482
  996SOL    HW1 3887   4.003   5.715   4.902 -0.6927  0.7297  0.0363
  996SOL    HW2 3888   4.040   5.855   4.826  0.8775 -0.7552 -2.0673
  997SOL     OW 3889   0.786   4.934   3.701  0.1170 -0.0937  0.1430
  997SOL    HW1 3890   0.690   4.942   3.728  0.4359  2.3006  0.7858
  997SOL    HW2 3891   0.832   4.870   3.762 -0.7856 -0.2852  0.6477
  998SOL     OW 3892   4.669   0.556   6.199 -0.5999  0.0942 -0.3384
  998SOL    HW1 3893   4.739   0.524   6.264 -0.5023 -0.0045 -0.4936
  998SOL    HW2 3894   4.582   0.510   6.219 -0.6086  0.1740 -0.1833
  999SOL     OW 3895   5.757   3.677   2.585  0.2981 -0.3229 -0.0131
  999SOL    HW1 3896   5.692   3.753   2.576 -1.9952 -2.0617  0.6814
  999SOL    HW2 3897   5.809   3.688   2.670 -1.0013 -0.1783  0.8061
 1000SOL     OW 3898   4.458   2.331   2.146 -0.0693 -0.9353  0.1389
 1000SOL    HW1 3899   4.420   2.328   2.054 -0.3147  1.3770  0.1106
 1000SOL    HW2 3900   4.558   2.337   2.140 -0.1596  1.3485 -0.1349
 1001SOL     OW 3901   2.788   6.492   0.951  0.5602 -0.0347  0.2360
 1001SOL    HW1 3902   2.800   6.531   0.860 -1.3935 -1.6052 -0.7817
 1001SOL    HW2 3903   2.773   6.565   1.018  1.0845  1.1045 -0.8615
 1002SOL     OW 3904   6.322   4.009   0.760  0.5334  0.0254  0.5746
 1002SOL    HW1 3905   6.400   3.996   0.700 -0.0429 -1.3187  0.0715
 1002SOL    HW2 3906   6.303   3.925   0.811 -0.5546  0.3266  0.7161
 1003SOL     OW 3907   2.110   3.624   3.206 -0.0666 -0.0148 -0.2509
 1003SOL    HW1 3908   2.157   3.607   3.293 -0.2277 -0.8578 -0.3224
 1003SOL    HW2 3909   2.113   3.542   3.150 -1.2252  0.0715 -0.4523
 1004SOL     OW 3910   0.541   0.145   3.325  0.5947 -0.7904 -0.4771
 1004SOL    HW1 3911   0.506   0.152   3.418 -2.7078 -2.0532 -1.4818
 1004SOL    HW2 3912   0.485   0.081   3.273  3.5690 -1.6931 -2.8422
 1005SOL     OW 3913   2.786   2.044   3.776  0.5281  0.1384  0.0260
 1005SOL    HW1 3914   2.794   1.947   3.802  0.7920  0.2367  0.3183
 1005SOL    HW2 3915   2.865   2.069   3.720  0.5091  0.2130  0.0335
 1006SOL     OW 3916   2.752   4.493   6.812  0.0976  0.3850  0.2503
 1006SOL    HW1 3917   2.777   4.433   6.737 -0.6976 -2.0049  1.7893
 1006SOL    HW2 3918   2.834   4.522   6.861  0.5987  1.7999 -1.3718
 1007SOL     OW 3919   4.675   6.671   4.204 -0.8241  0.5553 -0.3324
 1007SOL    HW1 3920   4.640   6.760   4.233 -0.0523  0.8361 -0.2311
 1007SOL    HW2 3921   4.612   6.631   4.138 -0.6656  1.6501 -1.1840
 1008SOL     OW 3922   1.969   2.126   5.008  0.3186  0.0128 -0.0338
 1008SOL    HW1 3923   1.872   2.120   4.984  0.6629 -1.4106 -1.2548
 1008SOL    HW2 3924   2.020   2.168   4.933  0.4809  2.1716  1.2168
 1009SOL     OW 3925   5.719   3.810   5.325 -0.1429  0.0770 -0.2055
 1009SOL    HW1 3926   5.817   3.829   5.323 -0.3035  0.9857  0.0428
 1009SOL    HW2 3927   5.696   3.746   5.251  0.8654 -1.3821  0.6948
 1010SOL     OW 3928   2.527   2.091   0.855 -0.7421  0.0112 -0.4445
 1010SOL    HW1 3929   2.576   2.070   0.939  0.6135 -1.0166 -1.4613
 1010SOL    HW2 3930   2.487   2.183   0.862  2.2244  1.3686  0.0297
 1011SOL     OW 3931   6.414   3.953   5.699  0.2084  0.0261 -0.1499
 1011SOL    HW1 3932   6.442   4.048   5.687  0.8643 -0.4100 -2.3978
 1011SOL    HW2 3933   6.448   3.898   5.623  0.3710 -2.1517  1.4130
 1012SOL     OW 3934   6.351   6.602   2.340  0.1177  0.0803  0.1861
 1012SOL    HW1 3935   6.391   6.649   2.419  2.5434 -0.9594 -0.3279
 1012SOL    HW2 3936   6.252   6.609   2.344  0.2679  3.8001  0.9767
 1013SOL     OW 3937   1.008   0.882   4.916 -0.5573  0.5961  0.0439
 1013SOL    HW1 3938   1.063   0.850   4.994 -0.5526 -0.4076 -0.3470
 1013SOL    HW2 3939   0.925   0.927   4.949 -1.5784 -1.6125  0.6773
 1014SOL     OW 3940   6.905   4.737   5.247 -0.3774 -0.3856  0.0863
 1014SOL    HW1 3941   6.909   4.637   5.245  1.7234 -0.3242 -1.1252
 1014SOL    HW2 3942   6.994   4.774   5.276 -1.1362  1.1589  0.5862
 1015SOL     OW 3943   2.417   0.654   6.540 -0.3869 -0.0071  0.2100
 1015SOL    HW1 3944   2.502   0.635   6.590  0.2224  1.1966 -0.3162
 1015SOL    HW2 3945   2.345   0.676   6.605 -0.1934 -0.6692  0.6534
 1016SOL     OW 3946   3.111   1.425   0.602  0.0675  0.0199 -0.2749
 1016SOL    HW1 3947   3.032   1.474   0.565 -0.0201 -1.0575 -1.6050
 1016SOL    HW2 3948   3.193   1.481   0.592 -0.1721  0.2520 -0.9843
 1017SOL     OW 3949   3.080   3.517   1.133  0.0181  0.6941  0.2587
 1017SOL    HW1 3950   3.000   3.521   1.074  0.2912  1.6203 -0.0587
 1017SOL    HW2 3951   3.090   3.424   1.170 -0.9613  0.4720 -0.0175
 1018SOL     OW 3952   2.028   6.069   3.749 -0.1680 -0.0173  0.3262
 1018SOL    HW1 3953   2.121   6.094   3.725 -0.0062 -0.1056  0.8380
 1018SOL    HW2 3954   1.989   6.139   3.809 -0.0382 -0.5185  1.0105
 1019SOL     OW 3955   0.319   6.551   0.457  0.2384  0.1092 -0.2910
 1019SOL    HW1 3956   0.410   6.512   0.468  1.0608  2.1232  0.5108
 1019SOL    HW2 3957   0.257   6.509   0.524  1.0114 -0.0301  0.3585
 1020SOL     OW 3958   6.932   3.146   1.529 -0.0682  0.0049  0.0595
 1020SOL    HW1 3959   6.965   3.053   1.547  2.1040  0.8865  1.0229
 1020SOL    HW2 3960   6.981   3.183   1.450 -1.2494  0.2072 -0.5965
 1021SOL     OW 3961   4.659   0.280   1.435 -0.6994 -0.1782 -0.1684
 1021SOL    HW1 3962   4.585   0.213   1.433 -0.0444 -0.8980 -0.3708
 1021SOL    HW2 3963   4.725   0.255   1.506 -0.7159  0.5447  0.1161
 1022SOL     OW 3964   1.735   4.747   5.994  0.0001 -0.5103  0.1831
 1022SOL    HW1 3965   1.707   4.664   5.946  2.0523 -0.8361 -0.5535
 1022SOL    HW2 3966   1.831   4.739   6.019  0.1747  1.5764  0.3002
 1023SOL     OW 3967   0.383   1.387   2.026  0.5140 -0.5235 -0.1553
 1023SOL    HW1 3968   0.427   1.359   1.941  0.6549 -0.7000 -0.0255
 1023SOL    HW2 3969   0.292   1.425   2.006  0.3266 -1.0568 -0.3351
 1024SOL     OW 3970   0.345   3.443   2.824 -0.1071 -0.2736 -0.2061
 1024SOL    HW1 3971   0.317   3.354   2.787  0.7763 -0.8869  0.5731
 1024SOL    HW2 3972   0.291   3.465   2.905 -2.4916  1.3639 -2.0698
 1025SOL     OW 3973   4.058   2.862   1.084  0.0314 -0.3843 -0.4078
 1025SOL    HW1 3974   4.054   2.842   0.986 -0.8539 -0.1980 -0.4215
 1025SOL    HW2 3975   3.976   2.827   1.128 -1.7670  3.2743 -0.4638
 1026SOL     OW 3976   2.445   1.677   1.104 -0.4577  0.6425  0.5315
 1026SOL    HW1 3977   2.522   1.710   1.048 -0.6154  1.0938  0.5798
 1026SOL    HW2 3978   2.403   1.599   1.058  1.9406 -1.6517  1.9508
 1027SOL     OW 3979   1.356   0.060   0.514 -0.1742  0.1879 -0.6940
 1027SOL    HW1 3980   1.432  -0.000   0.489 -0.6136 -0.0043 -1.6084
 1027SOL    HW2 3981   1.279   0.005   0.548 -0.5938  0.2217 -1.5740
 1028SOL     OW 3982   2.912   4.752   1.532 -0.5375  0.2762  0.3676
 1028SOL    HW1 3983   2.987   4.805   1.572  0.2999 -1.3400  0.9798
 1028SOL    HW2 3984   2.837   4.746   1.597  0.3737 -1.3880  1.3217
 1029SOL     OW 3985   0.678   2.251   6.660 -0.6600  0.5425  0.3442
 1029SOL    HW1 3986   0.673   2.326   6.726 -0.7033 -0.2675  1.2812
 1029SOL    HW2 3987   0.773   2.228   6.642 -0.6550  0.4269  0.5173
 1030SOL     OW 3988   3.893   2.974   2.543 -0.1142 -0.2379  0.5673
 1030SOL    HW1 3989   3.919   3.065   2.514  0.5945 -0.3348  0.8871
 1030SOL    HW2 3990   3.890   2.971   2.643 -1.3769 -0.2262  0.5540
 1031SOL     OW 3991   4.264   2.399   0.784  0.2268 -0.2820 -0.1645
 1031SOL    HW1 3992   4.341   2.443   0.829  0.1319  1.2109 -1.3679
 1031SOL    HW2 3993   4.295   2.355   0.700 -0.2460  0.5711 -0.8032
 1032SOL     OW 3994   0.248   1.090   5.855 -0.2162 -0.1451  0.2321
 1032SOL    HW1 3995   0.303   1.030   5.913  1.2955  0.3317 -0.6490
 1032SOL    HW2 3996   0.241   1.049   5.764 -2.9327 -1.1099  0.7903
 1033SOL     OW 3997   1.273   4.310   3.979  0.0455  0.1734 -0.2491
 1033SOL    HW1 3998   1.288   4.299   3.881  0.6883  0.1495 -0.1469
 1033SOL    HW2 3999   1.262   4.219   4.021  0.7245  0.1380 -0.1466
 1034SOL     OW 4000   1.280   4.470   6.043 -0.2719  0.7130 -0.2218
 1034SOL    HW1 4001   1.271   4.568   6.062  0.4272  0.8176 -0.4136
 1034SOL    HW2 4002   1.351   4.431   6.102 -1.0562  0.1634  0.3822
 1035SOL     OW 4003   4.749   2.440   6.131 -0.2289 -0.2976 -0.2955
 1035SOL    HW1 4004   4.676   2.428   6.063 -0.8866  1.0348  0.1320
 1035SOL    HW2 4005   4.836   2.408   6.093 -0.3459  1.4618 -2.2475
 1036SOL     OW 4006   4.603   0.579   1.549 -0.1755 -0.0663  0.4564
 1036SOL    HW1 4007   4.638   0.498   1.502  3.4786  0.3618  2.0441
 1036SOL    HW2 4008   4.541   0.551   1.622 -1.9500 -1.0570 -1.3428
 1037SOL     OW 4009   1.528   0.137   2.980  0.1003  0.0174  0.0812
 1037SOL    HW1 4010   1.506   0.053   3.029 -0.1718  1.0600  1.8192
 1037SOL    HW2 4011   1.453   0.203   2.993  0.8533  0.9499 -0.2413
 1038SOL     OW 4012   3.105   2.880   5.775  0.4295 -0.3888 -0.6998
 1038SOL    HW1 4013   3.167   2.835   5.839  2.2936 -0.0402 -2.1821
 1038SOL    HW2 4014   3.123   2.849   5.682 -0.4281  1.0205 -1.3799
 1039SOL     OW 4015   3.497   3.327   3.046  0.1282 -0.5373 -0.1847
 1039SOL    HW1 4016   3.578   3.375   3.011  0.4895 -0.8514  0.2000
 1039SOL    HW2 4017   3.423   3.332   2.979 -0.3912  1.9076  0.4892
 1040SOL     OW 4018   6.504   1.513   2.489  0.0439 -0.2658 -0.1773
 1040SOL    HW1 4019   6.408   1.489   2.475 -0.3951  0.5295  1.2021
 1040SOL    HW2 4020   6.528   1.590   2.430 -0.2152 -0.3655 -0.4125
 1041SOL     OW 4021   0.087   4.751   3.413  0.0432 -0.3183  0.1014
 1041SOL    HW1 4022   0.137   4.726   3.496 -2.3240 -0.3069  1.6548
 1041SOL    HW2 4023   0.078   4.672   3.353 -0.2383 -0.9857  1.0072
 1042SOL     OW 4024   4.294   4.389   1.657  0.0020  0.0749  0.0857
 1042SOL    HW1 4025   4.320   4.340   1.741 -1.9587 -1.4765 -0.1241
 1042SOL    HW2 4026   4.374   4.435   1.619  1.7017 -1.9766  0.9777
 1043SOL     OW 4027   4.304   2.340   2.993  0.2409  0.0222 -0.4404
 1043SOL    HW1 4028   4.256   2.267   2.944  0.4550 -0.3530 -0.0923
 1043SOL    HW2 4029   4.278   2.338   3.090  2.3957 -1.4148  0.1649
 1044SOL     OW 4030   4.313   5.209   1.760  0.1208 -0.2473  0.4604
 1044SOL    HW1 4031   4.253   5.149   1.813 -1.9078  1.6437  0.4893
 1044SOL    HW2 4032   4.260   5.251   1.686  2.1159 -0.4344 -1.1236
 1045SOL     OW 4033   4.430   0.778   1.430  0.1368  0.0956 -0.2641
 1045SOL    HW1 4034   4.347   0.724   1.412 -0.3272 -0.2151  2.4608
 1045SOL    HW2 4035   4.500   0.718   1.468  0.1110  1.1129  1.4543
 1046SOL     OW 4036   2.507   0.415   0.650 -0.7040 -0.1595  0.2587
 1046SOL    HW1 4037   2.506   0.353   0.728 -1.6774  0.2669  0.5982
 1046SOL    HW2 4038   2.597   0.411   0.605 -0.4269 -1.0532  0.8709
 1047SOL     OW 4039   2.330   2.729   2.803  0.1641 -0.2931  0.4197
 1047SOL    HW1 4040   2.327   2.828   2.818  0.1221 -0.5117  1.9805
 1047SOL    HW2 4041   2.383   2.710   2.720 -0.3760  1.0568 -0.2716
 1048SOL     OW 4042   1.603   6.476   2.021 -0.1118 -0.0733  0.6850
 1048SOL    HW1 4043   1.650   6.542   1.962  0.2412 -0.1989  0.8231
 1048SOL    HW2 4044   1.667   6.403   2.046 -1.0268 -1.6257 -1.1933
 1049SOL     OW 4045   4.512   6.820   6.326  0.1520  0.6024 -0.0119
 1049SOL    HW1 4046   4.598   6.828   6.275  1.5789 -1.2533  1.8957
 1049SOL    HW2 4047   4.492   6.724   6.342 -0.5068  1.0665  2.3800
 1050SOL     OW 4048   4.964   4.715   2.190  0.0577 -0.0208 -0.1449
 1050SOL    HW1 4049   4.943   4.622   2.217  1.2167 -0.5484 -0.9835
 1050SOL    HW2 4050   5.058   4.720   2.156  0.4496  1.7026  1.0632
 1051SOL     OW 4051   0.034   5.617   1.453 -0.4059  0.3704 -0.6478
 1051SOL    HW1 4052   0.126   5.591   1.424 -0.1772 -0.1454  0.4728
 1051SOL    HW2 4053   0.017   5.580   1.545 -1.4714  1.0570 -0.5592
 1052SOL     OW 4054   4.174   1.701   5.241 -0.3797 -0.5732 -0.3761
 1052SOL    HW1 4055   4.254   1.756   5.266 -0.7928 -0.3464  0.5101
 1052SOL    HW2 4056   4.123   1.747   5.168  0.0871 -0.5200 -0.6658
 1053SOL     OW 4057   4.899   4.386   1.104  0.1091 -0.4789 -0.9282
 1053SOL    HW1 4058   4.980   4.438   1.130 -0.0350 -0.7638  0.1436
 1053SOL    HW2 4059   4.819   4.420   1.154 -0.4756 -0.1198 -2.0585
 1054SOL     OW 4060   1.003   2.442   0.486 -0.5842 -0.0385  0.1894
 1054SOL    HW1 4061   1.036   2.366   0.542  0.4261  0.4601  0.3069
 1054SOL    HW2 4062   0.904   2.451   0.496 -0.7915 -1.6065 -0.1668
 1055SOL     OW 4063   4.856   6.147   6.107  0.1843 -0.6477  0.1858
 1055SOL    HW1 4064   4.905   6.197   6.035 -0.1835 -0.7753 -0.1544
 1055SOL    HW2 4065   4.906   6.064   6.130  0.8912 -0.0624  0.8710
 1056SOL     OW 4066   2.688   3.839   1.123  0.2922  0.2491 -0.2768
 1056SOL    HW1 4067   2.635   3.899   1.064 -0.7682 -2.0900 -1.8480
 1056SOL    HW2 4068   2.780   3.828   1.086  0.1152 -0.0184 -0.6345
 1057SOL     OW 4069   2.774   5.185   1.674  0.2206 -0.0976 -0.3230
 1057SOL    HW1 4070   2.817   5.113   1.730 -1.8533 -1.5178 -0.4472
 1057SOL    HW2 4071   2.694   5.148   1.629 -0.1357  1.9907 -1.5051
 1058SOL     OW 4072   6.001   2.712   4.156  0.0054  0.1272  0.7485
 1058SOL    HW1 4073   5.910   2.712   4.199 -0.0953 -0.6798  0.5493
 1058SOL    HW2 4074   6.069   2.738   4.224 -0.2873  0.0026  1.0971
 1059SOL     OW 4075   2.199   0.612   3.433  0.2216 -0.1695 -0.4659
 1059SOL    HW1 4076   2.213   0.519   3.398 -0.5078 -1.0496  1.4299
 1059SOL    HW2 4077   2.149   0.666   3.365  1.3391 -0.8944 -1.9230
 1060SOL     OW 4078   2.271   5.011   3.960  0.1427  0.2297 -0.5507
 1060SOL    HW1 4079   2.304   4.927   3.918 -0.9832  0.4015 -1.8462
 1060SOL    HW2 4080   2.249   4.994   4.056  1.6626 -0.4644 -0.3029
 1061SOL     OW 4081   0.372   2.885   0.210 -0.0515 -0.2604  0.1933
 1061SOL    HW1 4082   0.432   2.858   0.135  1.3679  0.5031  1.0179
 1061SOL    HW2 4083   0.348   2.805   0.264 -1.3868 -0.8846 -1.2378
 1062SOL     OW 4084   4.701   4.907   6.316 -0.0146 -0.6157  0.0199
 1062SOL    HW1 4085   4.665   5.000   6.322 -1.8085 -1.3152  0.6421
 1062SOL    HW2 4086   4.789   4.902   6.364  0.8919  1.0803 -1.3367
 1063SOL     OW 4087   1.395   5.250   5.348  0.4540  0.1843 -0.6245
 1063SOL    HW1 4088   1.317   5.192   5.326  1.5077 -1.1641 -0.9380
 1063SOL    HW2 4089   1.396   5.269   5.446 -0.7320  0.9586 -0.7374
 1064SOL     OW 4090   1.844   3.943   1.347  0.0429 -0.0536 -0.5746
 1064SOL    HW1 4091   1.824   3.845   1.351  0.1855 -0.0871 -0.6548
 1064SOL    HW2 4092   1.929   3.961   1.398  0.6452 -0.1463 -1.5115
 1065SOL     OW 4093   2.882   0.086   2.419  0.5001  0.0780  0.7210
 1065SOL    HW1 4094   2.799   0.110   2.369  0.9046  2.4039  1.0764
 1065SOL    HW2 4095   2.858   0.035   2.501 -0.4754 -0.1916  0.2808
 1066SOL     OW 4096   5.357   5.466   3.897  0.4753 -0.6332  0.3949
 1066SOL    HW1 4097   5.326   5.469   3.991 -0.9599  3.4160  0.0146
 1066SOL    HW2 4098   5.288   5.422   3.840 -0.3907  0.1529  0.8024
 1067SOL     OW 4099   1.132   4.032   6.910 -0.4889  0.0362  0.2220
 1067SOL    HW1 4100   1.106   4.037   7.006 -1.5188 -1.5824  0.0666
 1067SOL    HW2 4101   1.092   4.110   6.861 -0.3592  0.6068  0.9970
 1068SOL     OW 4102   6.712   3.576   2.496 -0.3128 -0.4520  0.1304
 1068SOL    HW1 4103   6.621   3.547   2.525 -0.7955 -1.5023 -2.1344
 1068SOL    HW2 4104   6.721   3.562   2.397  1.4584  1.9840 -0.1414
 1069SOL     OW 4105   5.201   6.915   0.057 -0.1701  0.0823  0.3249
 1069SOL    HW1 4106   5.137   6.899   0.133  0.8491 -2.7209  0.7238
 1069SOL    HW2 4107   5.267   6.985   0.084 -1.2380  0.8354  1.0800
 1070SOL     OW 4108   1.124   1.227   0.046 -0.2476  0.0457  0.0724
 1070SOL    HW1 4109   1.086   1.198  -0.042  2.8449 -2.2137 -0.7256
 1070SOL    HW2 4110   1.116   1.152   0.111  2.0246 -0.3017  0.0494
 1071SOL     OW 4111   2.650   1.905   3.122 -0.4468 -0.6229  0.0924
 1071SOL    HW1 4112   2.595   1.893   3.039 -1.7680 -0.8243  0.9725
 1071SOL    HW2 4113   2.686   1.998   3.125 -0.3735 -0.6156 -0.7108
 1072SOL     OW 4114   3.073   2.129   2.190 -0.1443  0.5454 -0.0298
 1072SOL    HW1 4115   3.031   2.204   2.139 -1.6259 -0.1538  0.1066
 1072SOL    HW2 4116   3.086   2.050   2.129 -2.1991 -0.3974  0.6521
 1073SOL     OW 4117   3.917   6.512   1.559 -0.4681 -0.1297  0.4042
 1073SOL    HW1 4118   3.956   6.493   1.470 -1.5890 -0.3023 -0.0659
 1073SOL    HW2 4119   3.915   6.611   1.574 -0.5040 -0.0888  0.1324
 1074SOL     OW 4120   2.320   4.697   4.344  0.7166  0.6452 -0.3325
 1074SOL    HW1 4121   2.317   4.785   4.298 -0.0539  0.6900 -0.2053
 1074SOL    HW2 4122   2.256   4.634   4.301 -0.5765  0.9115  1.1093
 1075SOL     OW 4123   6.612   0.954   3.239 -0.1797  0.2871 -0.0462
 1075SOL    HW1 4124   6.597   0.889   3.165 -1.0482 -0.8693  1.0958
 1075SOL    HW2 4125   6.680   1.022   3.211 -0.6106 -0.0143 -1.9387
 1076SOL     OW 4126   1.114   1.890   5.554 -0.0999  0.1643 -0.6753
 1076SOL    HW1 4127   1.143   1.867   5.647 -1.5903  1.0841  0.0584
 1076SOL    HW2 4128   1.061   1.813   5.516 -1.2121  0.5536  0.0356
 1077SOL     OW 4129   6.540   1.325   1.418 -0.2260 -0.2413  0.2425
 1077SOL    HW1 4130   6.547   1.232   1.381 -0.0335 -0.5141  0.9400
 1077SOL    HW2 4131   6.627   1.372   1.409  0.4874 -1.0595  2.2495
 1078SOL     OW 4132   0.435   0.269   2.816 -0.1278  0.7406  0.3031
 1078SOL    HW1 4133   0.431   0.202   2.890 -1.3622  0.6368  0.1563
 1078SOL    HW2 4134   0.377   0.348   2.838  0.5282  1.3122  0.0280
 1079SOL     OW 4135   0.327   0.445   0.335  0.0521  0.1493  0.2733
 1079SOL    HW1 4136   0.418   0.483   0.348  0.1863  0.0964 -0.4792
 1079SOL    HW2 4137   0.310   0.430   0.237 -0.4568 -0.5951  0.4676
 1080SOL     OW 4138   2.106   6.249   3.328  0.1295 -0.1292 -0.0776
 1080SOL    HW1 4139   2.184   6.188   3.340  0.3824  0.1520 -0.2660
 1080SOL    HW2 4140   2.021   6.200   3.349  0.5017  0.2385  2.5625
 1081SOL     OW 4141   6.112   6.098   5.603  0.7491  0.2936  0.1225
 1081SOL    HW1 4142   6.173   6.169   5.638  2.6411 -1.1949 -0.0172
 1081SOL    HW2 4143   6.083   6.122   5.510  3.0813 -0.0528 -0.7673
 1082SOL     OW 4144   4.765   2.380   0.568  0.2215  0.2042 -0.4130
 1082SOL    HW1 4145   4.768   2.448   0.495 -0.3435  0.3942 -0.2607
 1082SOL    HW2 4146   4.671   2.360   0.593  0.3941 -0.2584 -0.1003
 1083SOL     OW 4147   4.211   4.114   0.778  0.3697 -0.0339 -0.0383
 1083SOL    HW1 4148   4.306   4.144   0.788  0.8937 -1.3141 -0.9162
 1083SOL    HW2 4149   4.191   4.095   0.682 -0.5331 -0.5246  0.2256
 1084SOL     OW 4150   6.561   1.535   1.116 -0.0755 -0.0936 -0.3359
 1084SOL    HW1 4151   6.620   1.580   1.050 -2.5494  0.7714 -2.0979
 1084SOL    HW2 4152   6.476   1.507   1.072 -0.8081 -1.7972  1.9394
 1085SOL     OW 4153   2.301   4.293   5.085  0.0939  0.3909 -0.3964
 1085SOL    HW1 4154   2.308   4.194   5.098  1.6422  0.3589 -1.3203
 1085SOL    HW2 4155   2.293   4.314   4.988  0.7082  1.2211 -0.2767
 1086SOL     OW 4156   6.035   3.280   1.072 -0.1745  0.1809  0.1568
 1086SOL    HW1 4157   5.966   3.213   1.100  1.0787 -1.0101  0.5302
 1086SOL    HW2 4158   6.027   3.362   1.128  0.4728 -1.0519  2.1658
 1087SOL     OW 4159   0.085   3.198   3.548  0.2348 -0.1743 -0.3897
 1087SOL    HW1 4160   0.154   3.268   3.569 -0.2929  0.4375 -0.6426
 1087SOL    HW2 4161   0.129   3.119   3.505  0.7842  0.2077 -0.5398
 1088SOL     OW 4162   5.563   5.274   3.677  0.1112 -0.3895  0.0972
 1088SOL    HW1 4163   5.576   5.276   3.776 -1.4322 -1.5818  0.3705
 1088SOL    HW2 4164   5.632   5.330   3.633  1.4755 -0.6638  1.7815
 1089SOL     OW 4165   5.701   6.855   3.684 -0.0867  0.5178 -1.1887
 1089SOL    HW1 4166   5.766   6.891   3.617  1.0689  0.0066 -0.3749
 1089SOL    HW2 4167   5.735   6.873   3.777 -1.5378  0.9868 -0.7274
 1090SOL     OW 4168   4.390   1.823   2.330  0.0087  0.1681 -0.6074
 1090SOL    HW1 4169   4.316   1.780   2.277  0.9788 -0.7351 -1.2696
 1090SOL    HW2 4170   4.473   1.823   2.275  0.7372  0.3081  0.4824
 1091SOL     OW 4171   1.468   2.371   3.057  0.0397 -0.9277  0.3684
 1091SOL    HW1 4172   1.544   2.415   3.009 -0.2588 -3.0027 -2.2472
 1091SOL    HW2 4173   1.382   2.410   3.025 -0.1096  0.0993  1.9197
 1092SOL     OW 4174   0.353   3.598   1.194  0.4137  0.6421 -0.4023
 1092SOL    HW1 4175   0.378   3.524   1.130 -0.2949 -0.7425  0.8652
 1092SOL    HW2 4176   0.315   3.674   1.142 -0.1144 -0.4258 -1.6605
 1093SOL     OW 4177   2.686   0.854   2.558 -0.7618  0.0812  0.3880
 1093SOL    HW1 4178   2.737   0.784   2.509 -0.0833  0.4824  0.4998
 1093SOL    HW2 4179   2.592   0.856   2.526 -0.8806 -1.0987  0.6150
 1094SOL     OW 4180   3.210   0.615   2.175 -0.2423  0.5947 -0.5930
 1094SOL    HW1 4181   3.128   0.567   2.145 -0.6757  0.7877  0.2539
 1094SOL    HW2 4182   3.184   0.701   2.218  0.5091  1.4536 -1.8124
 1095SOL     OW 4183   6.588   3.427   5.389 -0.1779  0.1974  0.5810
 1095SOL    HW1 4184   6.653   3.502   5.372 -1.3722  1.1927  0.2405
 1095SOL    HW2 4185   6.510   3.462   5.441 -0.6364 -0.8793  0.6351
 1096SOL     OW 4186   2.508   4.633   1.909  0.4500 -0.2963 -0.5721
 1096SOL    HW1 4187   2.597   4.601   1.942 -0.2222  0.4643  2.2148
 1096SOL    HW2 4188   2.499   4.731   1.928 -1.2365 -0.4976 -0.1588
 1097SOL     OW 4189   1.375   5.350   4.572  0.0230  0.5749  0.7296
 1097SOL    HW1 4190   1.282   5.313   4.571  0.8917 -1.8198  1.3326
 1097SOL    HW2 4191   1.435   5.291   4.518  1.2808  1.8538  0.6773
 1098SOL     OW 4192   5.353   3.618   0.888  0.7698 -0.2006 -0.1670
 1098SOL    HW1 4193   5.253   3.616   0.898  0.9102 -1.0100  1.2967
 1098SOL    HW2 4194   5.395   3.579   0.969  2.3628  2.0102  0.1501
 1099SOL     OW 4195   3.480   1.284   3.176  0.3028 -0.3988  0.4187
 1099SOL    HW1 4196   3.498   1.217   3.248  0.7067 -1.6907 -0.8390
 1099SOL    HW2 4197   3.441   1.238   3.096 -1.5608  1.2254  0.3155
 1100SOL     OW 4198   3.753   0.646   4.340  0.1444 -0.5979 -0.1558
 1100SOL    HW1 4199   3.823   0.682   4.401 -0.3742 -0.1075  0.1604
 1100SOL    HW2 4200   3.703   0.721   4.298  0.2850 -0.9364 -0.9428
 1101SOL     OW 4201   3.942   5.892   6.879 -0.2139  0.3652  0.1504
 1101SOL    HW1 4202   3.866   5.832   6.903  1.3102 -3.0575 -2.6752
 1101SOL    HW2 4203   4.013   5.886   6.950 -1.4792  1.7720  1.6310
 1102SOL     OW 4204   1.640   0.163   5.651 -0.1887  0.2122  0.7108
 1102SOL    HW1 4205   1.663   0.205   5.564 -2.9251 -0.0356 -0.2130
 1102SOL    HW2 4206   1.601   0.231   5.713 -0.4547 -0.0705  0.8612
 1103SOL     OW 4207   4.545   0.283   0.454  0.7525 -0.2695 -0.1999
 1103SOL    HW1 4208   4.636   0.308   0.487  1.2177  0.2213 -1.7737
 1103SOL    HW2 4209   4.530   0.185   0.469  2.1990 -0.7109 -1.3149
 1104SOL     OW 4210   1.926   1.686   2.044  0.0942  0.1824 -0.0513
 1104SOL    HW1 4211   1.985   1.700   1.964  0.1031  2.2955  0.2582
 1104SOL    HW2 4212   1.965   1.614   2.102  1.5916  0.5152 -0.5862
 1105SOL     OW 4213   6.110   3.200   3.881  0.2528 -0.1432  0.5542
 1105SOL    HW1 4214   6.121   3.296   3.906 -0.2668  0.2049 -0.5049
 1105SOL    HW2 4215   6.096   3.192   3.782 -0.8749 -1.2048  0.7766
 1106SOL     OW 4216   1.141   2.625   1.125 -0.0004  0.3775 -0.0448
 1106SOL    HW1 4217   1.115   2.710   1.078  0.3718 -0.3665 -1.6646
 1106SOL    HW2 4218   1.178   2.560   1.059 -0.2218 -1.0457  1.1732
 1107SOL     OW 4219   0.693   6.568   4.707 -1.0256  0.1943 -0.0997
 1107SOL    HW1 4220   0.634   6.647   4.695 -0.4832  0.3695 -1.8885
 1107SOL    HW2 4221   0.670   6.499   4.638 -0.6885 -0.6997  0.6689
 1108SOL     OW 4222   3.584   0.047   5.861  0.5129 -0.4715 -0.3425
 1108SOL    HW1 4223   3.592  -0.048   5.830  0.1521 -0.8866  0.7788
 1108SOL    HW2 4224   3.495   0.061   5.903  0.6380  0.3199 -0.3227
 1109SOL     OW 4225   5.448   1.166   3.293  0.5192  0.4280 -0.2630
 1109SOL    HW1 4226   5.354   1.158   3.260  0.6344 -1.8656 -0.2332
 1109SOL    HW2 4227   5.470   1.085   3.348  2.3022  1.2453  0.2837
 1110SOL     OW 4228   4.690   0.758   2.542 -0.3701 -0.2167 -0.3335
 1110SOL    HW1 4229   4.656   0.681   2.597 -0.4596 -0.4138 -0.6588
 1110SOL    HW2 4230   4.789   0.764   2.552 -0.2780 -0.7774 -0.7966
 1111SOL     OW 4231   4.646   7.002   6.515 -0.4308  0.3098  0.0407
 1111SOL    HW1 4232   4.584   6.958   6.450  1.0828 -1.2282 -0.4575
 1111SOL    HW2 4233   4.734   7.018   6.470  0.0007  1.1056  1.1363
 1112SOL     OW 4234   6.735   1.313   4.510 -0.1562  0.9658  0.5510
 1112SOL    HW1 4235   6.821   1.365   4.513 -0.1969  1.0188  3.2229
 1112SOL    HW2 4236   6.658   1.375   4.525 -0.5341  0.6568 -0.0624
 1113SOL     OW 4237   5.935   4.267   0.707 -0.9356 -0.2453  0.1179
 1113SOL    HW1 4238   5.898   4.219   0.627 -0.6219 -0.4932  0.1221
 1113SOL    HW2 4239   5.929   4.206   0.787  0.8557 -0.8507 -0.1775
 1114SOL     OW 4240   1.449   1.410   6.793  0.1573  0.3641  0.8040
 1114SOL    HW1 4241   1.370   1.388   6.735  1.3135  0.4306 -0.8621
 1114SOL    HW2 4242   1.515   1.464   6.740  0.9423  1.0598  2.4301
 1115SOL     OW 4243   3.221   3.967   4.022  0.1710 -0.3241 -0.0277
 1115SOL    HW1 4244   3.227   4.047   4.081 -1.2284  0.1198 -0.4554
 1115SOL    HW2 4245   3.222   3.996   3.926  0.3989 -0.8802 -0.1980
 1116SOL     OW 4246   6.530   1.459   0.443 -0.2184  0.3030 -1.0514
 1116SOL    HW1 4247   6.616   1.408   0.443  0.4949  1.4686 -2.2287
 1116SOL    HW2 4248   6.458   1.402   0.404  0.9737  0.7540 -4.1441
 1117SOL     OW 4249   1.751   1.358   1.596 -0.4873 -0.1216 -0.1023
 1117SOL    HW1 4250   1.666   1.370   1.543 -0.5195  0.0517 -0.0116
 1117SOL    HW2 4251   1.810   1.438   1.582 -0.5519 -0.0173  0.2268
 1118SOL     OW 4252   2.140   6.117   1.844 -0.0519  0.1151 -0.5514
 1118SOL    HW1 4253   2.050   6.133   1.806 -0.6589 -0.2477  0.6706
 1118SOL    HW2 4254   2.191   6.203   1.847 -0.9505  0.6351  0.2026
 1119SOL     OW 4255   4.175   3.733   1.792  1.1932 -0.3779  0.0345
 1119SOL    HW1 4256   4.142   3.689   1.875 -0.3915  0.4619 -0.0960
 1119SOL    HW2 4257   4.215   3.822   1.815 -0.2881  0.3792 -0.1531
 1120SOL     OW 4258   4.185   5.887   6.728  0.0330  0.3761  0.1168
 1120SOL    HW1 4259   4.107   5.888   6.791  2.1827 -0.5299  3.0245
 1120SOL    HW2 4260   4.224   5.979   6.722 -0.2432  0.4876  0.0060
 1121SOL     OW 4261   1.099   4.342   4.767 -0.0138 -0.1461 -0.3361
 1121SOL    HW1 4262   1.124   4.371   4.675 -1.4572  2.1324 -0.1191
 1121SOL    HW2 4263   1.085   4.423   4.824 -1.1638 -1.4357  1.3218
 1122SOL     OW 4264   5.340   2.471   1.522 -0.4385 -0.0701 -0.4182
 1122SOL    HW1 4265   5.390   2.459   1.436  0.1686  1.6791 -0.3588
 1122SOL    HW2 4266   5.250   2.428   1.514  0.5036 -2.0062 -1.0493
 1123SOL     OW 4267   6.905   2.381   2.330 -0.0846 -0.4154  0.6120
 1123SOL    HW1 4268   6.961   2.349   2.407  1.3204 -0.0355 -0.2094
 1123SOL    HW2 4269   6.809   2.364   2.350  0.3046 -1.1393  2.0655
 1124SOL     OW 4270   0.219   3.462   3.869 -0.2754 -0.4025 -0.4264
 1124SOL    HW1 4271   0.295   3.527   3.876  0.1670 -0.8206 -1.2793
 1124SOL    HW2 4272   0.141   3.497   3.921  0.2718  0.3547 -0.0956
 1125SOL     OW 4273   1.269   2.016   3.320  0.0836  0.4326 -0.3803
 1125SOL    HW1 4274   1.287   1.943   3.386  1.0874  0.3485 -0.7297
 1125SOL    HW2 4275   1.170   2.032   3.315 -0.0185  0.5159  1.2150
 1126SOL     OW 4276   6.650   6.679   5.620 -0.3725  0.0710 -0.1707
 1126SOL    HW1 4277   6.703   6.736   5.682 -0.2734  0.3109 -0.4745
 1126SOL    HW2 4278   6.584   6.625   5.672  1.8349 -2.1462  0.5421
 1127SOL     OW 4279   4.582   0.505   4.668  0.2151 -0.0988  0.4385
 1127SOL    HW1 4280   4.632   0.542   4.590 -0.2241  1.7809  0.9805
 1127SOL    HW2 4281   4.528   0.579   4.710 -0.0106 -1.1962  2.1616
 1128SOL     OW 4282   0.139   3.042   2.897  0.6090 -0.2819  0.4948
 1128SOL    HW1 4283   0.109   2.976   2.828  0.1436 -0.5118  0.9151
 1128SOL    HW2 4284   0.216   3.003   2.948  0.6033 -0.3349  0.4639
 1129SOL     OW 4285   1.288   6.661   6.633  0.5169 -0.2409 -0.1121
 1129SOL    HW1 4286   1.214   6.613   6.681  0.9050 -1.4104 -0.6416
 1129SOL    HW2 4287   1.257   6.752   6.608 -1.5272 -1.3636 -2.1236
 1130SOL     OW 4288   2.440   4.037   0.128 -0.2350 -0.1453 -0.1550
 1130SOL    HW1 4289   2.421   4.116   0.070 -0.3173 -1.5030 -2.0709
 1130SOL    HW2 4290   2.538   4.031   0.146 -0.4077  1.4538  1.6938
 1131SOL     OW 4291   6.574   4.195   5.664  0.1361  0.0070  0.1649
 1131SOL    HW1 4292   6.585   4.287   5.627 -1.8254  0.4135  0.4742
 1131SOL    HW2 4293   6.623   4.188   5.751 -0.1096  0.9110  0.3825
 1132SOL     OW 4294   5.364   1.816   2.259 -0.8666  0.2168 -0.0018
 1132SOL    HW1 4295   5.305   1.854   2.331  1.1827  0.2915  1.7324
 1132SOL    HW2 4296   5.369   1.881   2.183 -0.7195  1.5626  1.1070
 1133SOL     OW 4297   2.146   3.191   0.719  0.3528  0.6730 -0.1743
 1133SOL    HW1 4298   2.206   3.120   0.681 -2.3288 -2.3415  0.7209
 1133SOL    HW2 4299   2.103   3.241   0.644  1.2113  0.3812 -0.8830
 1134SOL     OW 4300   5.160   1.141   3.166 -0.3067  0.1648  0.3382
 1134SOL    HW1 4301   5.153   1.224   3.221  0.0969  0.0093  0.6321
 1134SOL    HW2 4302   5.097   1.147   3.088 -2.1163 -0.2960  1.6829
 1135SOL     OW 4303   1.501   6.953   5.675  0.8072  0.4333  0.5260
 1135SOL    HW1 4304   1.523   6.894   5.752  0.6797  2.0041  1.8171
 1135SOL    HW2 4305   1.571   7.025   5.667  0.1056  1.0817  0.0132
 1136SOL     OW 4306   4.724   5.137   3.631 -0.4655  0.8969 -0.0395
 1136SOL    HW1 4307   4.645   5.081   3.656 -0.2926  0.7946  0.2726
 1136SOL    HW2 4308   4.694   5.211   3.571 -0.8632  1.0969  0.3990
 1137SOL     OW 4309   1.098   6.830   1.996 -0.0965  0.7248 -0.0014
 1137SOL    HW1 4310   1.037   6.805   2.071 -0.9039  0.9324 -0.5753
 1137SOL    HW2 4311   1.124   6.748   1.946 -0.0769  0.6606  0.1131
 1138SOL     OW 4312   5.799   1.054   4.637 -0.2472  0.1275 -0.1334
 1138SOL    HW1 4313   5.814   1.153   4.641 -0.7469  0.2408 -0.7756
 1138SOL    HW2 4314   5.872   1.011   4.583 -0.4136  0.2455 -0.4588
 1139SOL     OW 4315   3.336   5.480   3.280  0.3074  0.4313  0.2935
 1139SOL    HW1 4316   3.286   5.498   3.196 -0.3042  1.0558  0.7870
 1139SOL    HW2 4317   3.434   5.495   3.264  0.0283  2.3617  0.1606
 1140SOL     OW 4318   5.017   2.196   2.634  0.1475  0.0886  0.8693
 1140SOL    HW1 4319   5.019   2.283   2.683  0.5436 -0.6408  2.1943
 1140SOL    HW2 4320   4.923   2.171   2.614 -0.0005  0.5365  0.9891
 1141SOL     OW 4321   6.455   6.264   6.974  0.6749  0.2337 -0.2443
 1141SOL    HW1 4322   6.396   6.186   6.957  0.4176  0.6279 -1.2190
 1141SOL    HW2 4323   6.512   6.281   6.894  1.5300  0.3625  0.3776
 1142SOL     OW 4324   4.334   0.541   4.421  0.6028 -0.1812  0.2853
 1142SOL    HW1 4325   4.261   0.534   4.353  0.4518  0.2853  0.4005
 1142SOL    HW2 4326   4.360   0.449   4.451  1.5262 -0.4886 -1.3308
 1143SOL     OW 4327   1.534   3.737   1.746 -0.9272  0.6151 -0.0778
 1143SOL    HW1 4328   1.631   3.713   1.752 -0.7263  1.1977 -0.8380
 1143SOL    HW2 4329   1.523   3.835   1.761 -1.6791  0.2277  2.4374
 1144SOL     OW 4330   0.020   4.486   3.575  0.4397 -0.3279  0.1576
 1144SOL    HW1 4331   0.113   4.484   3.613  0.5405 -3.1428 -0.0554
 1144SOL    HW2 4332   0.025   4.477   3.475 -0.0568  1.1840 -0.0347
 1145SOL     OW 4333   0.044   2.701   0.628  0.2520  0.2228  0.1690
 1145SOL    HW1 4334   0.079   2.698   0.534  1.0614  0.0046  0.4640
 1145SOL    HW2 4335   0.121   2.705   0.692 -0.2917  2.6978  0.7643
 1146SOL     OW 4336   6.965   3.270   2.790  0.1377  0.3181  0.0526
 1146SOL    HW1 4337   6.986   3.179   2.754 -3.9977 -0.9686  0.2655
 1146SOL    HW2 4338   7.001   3.278   2.883  0.7010 -1.0810 -0.0141
 1147SOL     OW 4339   1.375   3.698   1.535  0.3242 -0.2846 -0.4120
 1147SOL    HW1 4340   1.440   3.715   1.610 -1.2883  1.2663  0.7346
 1147SOL    HW2 4341   1.389   3.766   1.463  0.6350 -0.5842 -0.6340
 1148SOL     OW 4342   4.215   6.860   0.999 -0.0351  0.2139  0.0024
 1148SOL    HW1 4343   4.229   6.762   0.983 -2.8330 -0.2454 -0.0191
 1148SOL    HW2 4344   4.119   6.882   0.989  0.1221  2.5369  2.4179
 1149SOL     OW 4345   5.301   3.538   2.907  0.7045 -0.2926  0.5089
 1149SOL    HW1 4346   5.203   3.542   2.929  0.1843  1.9459 -1.7969
 1149SOL    HW2 4347   5.353   3.580   2.982 -0.2591 -0.0445  1.0634
 1150SOL     OW 4348   1.461   5.726   6.268 -1.0061  0.1438  0.1406
 1150SOL    HW1 4349   1.436   5.659   6.338 -0.6746 -0.3520 -0.2090
 1150SOL    HW2 4350   1.379   5.752   6.217 -0.7971 -1.8315 -1.3074
 1151SOL     OW 4351   5.170   3.927   4.622  0.0278 -0.0267 -0.6431
 1151SOL    HW1 4352   5.096   3.867   4.653  0.9372 -0.0791  1.6675
 1151SOL    HW2 4353   5.258   3.881   4.638  0.6988  1.5492  0.4382
 1152SOL     OW 4354   5.315   5.411   0.742 -0.2653  0.1545 -0.1884
 1152SOL    HW1 4355   5.225   5.395   0.702 -0.5816 -0.3958  0.7215
 1152SOL    HW2 4356   5.349   5.326   0.784 -0.1958  0.8393  1.2036
 1153SOL     OW 4357   6.905   6.493   3.813  0.6603 -0.5023  0.5566
 1153SOL    HW1 4358   6.813   6.454   3.809  0.7474 -0.5865 -1.9566
 1153SOL    HW2 4359   6.901   6.581   3.860 -0.9168  0.0277 -0.4815
 1154SOL     OW 4360   6.995   4.955   7.006 -0.1265 -0.4219  0.7832
 1154SOL    HW1 4361   6.929   4.920   7.072  1.0407 -1.0742  1.6530
 1154SOL    HW2 4362   6.960   5.040   6.965 -1.8804 -1.2413  0.5120
 1155SOL     OW 4363   4.646   4.959   5.847 -0.1681  0.2868  0.3472
 1155SOL    HW1 4364   4.610   5.001   5.763 -1.1551  0.1454  0.6791
 1155SOL    HW2 4365   4.684   5.030   5.906  0.8878  0.3382 -0.3841
 1156SOL     OW 4366   3.488   3.531   5.410 -0.0416 -0.2843  0.7303
 1156SOL    HW1 4367   3.517   3.500   5.500 -1.7116 -1.5478  0.8908
 1156SOL    HW2 4368   3.434   3.459   5.366  0.3658  0.4642 -1.1136
 1157SOL     OW 4369   0.223   1.092   4.410 -0.3127 -0.2690  0.2105
 1157SOL    HW1 4370   0.243   1.015   4.350  0.5754 -0.1005  0.2786
 1157SOL    HW2 4371   0.147   1.069   4.471  0.5217 -1.4340  0.8521
 1158SOL     OW 4372   7.010   4.505   3.881  0.2587  0.4610  0.2184
 1158SOL    HW1 4373   6.940   4.575   3.868 -1.1415 -0.8058  0.7604
 1158SOL    HW2 4374   6.977   4.435   3.944  1.7289 -0.5765 -0.1069
 1159SOL     OW 4375   6.553   6.920   2.344  0.2345 -0.0242 -0.4196
 1159SOL    HW1 4376   6.510   6.917   2.254  2.0341 -1.7087 -1.2871
 1159SOL    HW2 4377   6.527   6.838   2.396 -1.1956  1.1687  0.8550
 1160SOL     OW 4378   3.188   4.883   2.029  0.0110 -0.4897  0.6005
 1160SOL    HW1 4379   3.277   4.916   1.997  0.6772 -0.8035  2.0412
 1160SOL    HW2 4380   3.186   4.884   2.129 -1.9092  0.2532  0.6041
 1161SOL     OW 4381   6.689   5.917   5.089 -0.3396 -0.4062  0.6930
 1161SOL    HW1 4382   6.769   5.874   5.132 -0.4104  0.0510  1.2862
 1161SOL    HW2 4383   6.617   5.848   5.076 -0.5038 -0.4508  1.7695
 1162SOL     OW 4384   2.091   1.082   1.355 -0.0295  0.2208  0.3074
 1162SOL    HW1 4385   1.999   1.061   1.387 -0.1197  0.5624  0.2807
 1162SOL    HW2 4386   2.150   1.002   1.366 -0.0767  0.3120  1.2610
 1163SOL     OW 4387   6.214   5.273   4.394 -0.2863  0.0823 -0.5847
 1163SOL    HW1 4388   6.253   5.183   4.376  0.1821 -0.3342  2.0893
 1163SOL    HW2 4389   6.115   5.270   4.379  0.1119  0.1464 -3.8624
 1164SOL     OW 4390   4.800   3.012   3.815 -0.2556 -0.1076  0.0026
 1164SOL    HW1 4391   4.788   3.054   3.725 -2.6274  0.7937  0.6610
 1164SOL    HW2 4392   4.776   3.079   3.886  0.7413 -1.0670  1.2985
 1165SOL     OW 4393   4.809   4.669   5.267 -0.1578  0.2575  0.0735
 1165SOL    HW1 4394   4.833   4.639   5.175 -1.3714  0.8390 -0.4515
 1165SOL    HW2 4395   4.813   4.591   5.330 -3.2001 -1.0963 -1.2392
 1166SOL     OW 4396   2.035   6.197   1.515 -0.3379 -0.1415 -0.8231
 1166SOL    HW1 4397   2.034   6.177   1.416  0.3262 -0.2030 -0.8185
 1166SOL    HW2 4398   2.117   6.249   1.538  0.9601 -2.4781  0.1464
 1167SOL     OW 4399   2.233   5.291   5.151  0.5188 -0.0381 -0.1193
 1167SOL    HW1 4400   2.169   5.276   5.075 -1.1968 -1.2664  1.4839
 1167SOL    HW2 4401   2.240   5.207   5.205  1.0337  1.0668  1.5954
 1168SOL     OW 4402   1.091   3.767   6.839  0.5199  0.2647  0.3332
 1168SOL    HW1 4403   1.100   3.862   6.870 -0.8984  0.1810  1.1311
 1168SOL    HW2 4404   1.029   3.763   6.761  1.7934  0.1427 -0.6968
 1169SOL     OW 4405   4.456   2.693   0.611  0.8731 -0.6610  0.3897
 1169SOL    HW1 4406   4.436   2.636   0.532  0.5165  1.3637 -1.0774
 1169SOL    HW2 4407   4.475   2.636   0.690  1.2816 -2.7695 -1.1557
 1170SOL     OW 4408   4.324   5.580   4.828 -0.0870 -0.4605 -0.1927
 1170SOL    HW1 4409   4.368   5.493   4.807 -0.0206 -0.2129 -1.1774
 1170SOL    HW2 4410   4.252   5.566   4.896  0.0738 -1.2390 -0.1712
 1171SOL     OW 4411   2.898   0.002   6.732  0.0736 -0.1565 -0.2193
 1171SOL    HW1 4412   2.972  -0.061   6.756 -0.6302 -0.7644  0.3892
 1171SOL    HW2 4413   2.872  -0.013   6.636 -0.8575 -1.6212  0.2330
 1172SOL     OW 4414   3.059   5.131   0.793  0.3394 -0.3001 -0.3437
 1172SOL    HW1 4415   3.062   5.036   0.763  0.8240 -0.6934  0.8607
 1172SOL    HW2 4416   2.975   5.147   0.845 -0.0914  0.1428 -1.1506
 1173SOL     OW 4417   5.143   0.214   2.115  0.4480 -0.4411  0.2590
 1173SOL    HW1 4418   5.167   0.121   2.141  0.4944 -0.6794 -0.5907
 1173SOL    HW2 4419   5.196   0.242   2.035 -1.1100 -0.5027 -0.8446
 1174SOL     OW 4420   2.698   4.885   3.266  0.0853  0.0400 -0.3067
 1174SOL    HW1 4421   2.645   4.903   3.183 -0.8464 -2.0535 -0.2236
 1174SOL    HW2 4422   2.639   4.897   3.346  0.2363 -0.4864 -0.1109
 1175SOL     OW 4423   3.916   4.278   6.495 -0.3388 -0.1307 -0.3159
 1175SOL    HW1 4424   3.922   4.372   6.529  0.0044  0.6035 -2.2881
 1175SOL    HW2 4425   3.994   4.226   6.527 -0.7009  0.1221  1.0781
 1176SOL     OW 4426   5.403   5.642   0.564  0.1780 -0.6049  0.8184
 1176SOL    HW1 4427   5.396   5.561   0.623  1.4877 -1.2632  0.1369
 1176SOL    HW2 4428   5.437   5.614   0.474  1.1321  0.7631  0.7277
 1177SOL     OW 4429   6.563   3.004   3.938  0.1832  0.2825  0.0248
 1177SOL    HW1 4430   6.549   3.041   3.847  1.0162  0.8087  0.1006
 1177SOL    HW2 4431   6.476   2.967   3.973 -0.1157 -0.0108 -1.0038
 1178SOL     OW 4432   1.640   2.198   5.785 -0.0207 -0.5034  0.1574
 1178SOL    HW1 4433   1.631   2.227   5.690  0.3314 -0.1940  0.2151
 1178SOL    HW2 4434   1.629   2.278   5.845 -2.5701 -1.0375  0.5109
 1179SOL     OW 4435   3.077   5.174   2.027 -0.2342 -0.1740  0.3200
 1179SOL    HW1 4436   3.098   5.076   2.020 -1.8468 -0.5529  0.3309
 1179SOL    HW2 4437   3.101   5.206   2.119 -0.2364 -0.6999  0.5119
 1180SOL     OW 4438   1.474   6.572   4.546 -0.7695 -0.4710 -0.0562
 1180SOL    HW1 4439   1.566   6.603   4.523 -1.0110  1.0690  0.9133
 1180SOL    HW2 4440   1.451   6.491   4.491  0.2795  0.4723 -1.9841
 1181SOL     OW 4441   1.186   4.572   4.972 -0.0945  0.0871  0.2483
 1181SOL    HW1 4442   1.205   4.657   4.924  0.7572 -0.6172 -0.6918
 1181SOL    HW2 4443   1.272   4.523   4.989 -0.7506 -1.8014 -1.5291
 1182SOL     OW 4444   6.308   4.230   3.228  0.4136  0.4841 -0.2515
 1182SOL    HW1 4445   6.216   4.270   3.234 -0.2429 -1.1623  2.6392
 1182SOL    HW2 4446   6.371   4.283   3.284  0.4341 -0.2679  0.4514
 1183SOL     OW 4447   2.789   4.784   0.313  0.1411 -0.1894 -0.1778
 1183SOL    HW1 4448   2.758   4.857   0.251  3.6742 -1.4393 -3.8393
 1183SOL    HW2 4449   2.816   4.825   0.400 -2.1087  2.1428 -0.4231
 1184SOL     OW 4450   0.284   0.323   4.231 -0.3814  0.4872  0.3718
 1184SOL    HW1 4451   0.215   0.281   4.173  0.9047 -1.5804  0.2213
 1184SOL    HW2 4452   0.322   0.404   4.185 -2.0375  1.1398  0.0890
 1185SOL     OW 4453   6.718   1.965   6.394 -0.6316 -0.5806 -0.4270
 1185SOL    HW1 4454   6.647   2.015   6.443  1.5746  2.0171  0.3228
 1185SOL    HW2 4455   6.758   1.895   6.453 -1.3319 -0.8561 -0.2688
 1186SOL     OW 4456   5.016   0.239   5.917  0.2489 -0.0153  0.2574
 1186SOL    HW1 4457   5.011   0.240   6.017 -0.7880 -0.2533  0.2137
 1186SOL    HW2 4458   5.109   0.264   5.889  0.2348  1.2724  1.2539
 1187SOL     OW 4459   4.986   0.368   6.179 -0.2232 -0.2132 -0.0712
 1187SOL    HW1 4460   5.005   0.462   6.149  0.2148 -0.5142 -0.7753
 1187SOL    HW2 4461   4.932   0.370   6.263  0.3433  0.6737  0.2867
 1188SOL     OW 4462   3.774   4.017   5.450  0.2594  0.0096  0.1161
 1188SOL    HW1 4463   3.720   4.089   5.494  0.0784 -1.2988  2.1746
 1188SOL    HW2 4464   3.731   3.990   5.364 -1.5587  0.0649  0.9626
 1189SOL     OW 4465   5.584   2.343   0.398 -0.6456 -0.6259  0.4645
 1189SOL    HW1 4466   5.674   2.341   0.442  0.1459  0.2342 -1.0778
 1189SOL    HW2 4467   5.513   2.327   0.468  0.5351  0.9019  2.0977
 1190SOL     OW 4468   4.208   4.960   2.913  0.1699 -0.0992  0.9091
 1190SOL    HW1 4469   4.172   5.041   2.961 -0.1657  0.0589  0.3967
 1190SOL    HW2 4470   4.235   4.892   2.981 -2.7439 -0.9550  1.3640
 1191SOL     OW 4471   2.957   4.877   4.538  0.6721  0.2726  0.1655
 1191SOL    HW1 4472   3.048   4.842   4.557  2.0136  2.7258 -1.3242
 1191SOL    HW2 4473   2.921   4.922   4.621  1.3587  0.3836  0.4133
 1192SOL     OW 4474   4.488   5.208   3.844 -0.3552  0.1039 -0.1759
 1192SOL    HW1 4475   4.552   5.255   3.905 -1.1532  0.9494  0.0319
 1192SOL    HW2 4476   4.438   5.138   3.895  0.4288 -0.5975 -0.3521
 1193SOL     OW 4477   0.679   3.204   4.317 -0.4977 -0.1253  0.2911
 1193SOL    HW1 4478   0.718   3.257   4.393  0.5107  0.0304 -0.3178
 1193SOL    HW2 4479   0.729   3.117   4.308  1.0821  0.9060 -1.7218
 1194SOL     OW 4480   5.422   0.115   1.649 -0.4132  0.0905  0.6852
 1194SOL    HW1 4481   5.439   0.017   1.638 -1.2773 -0.0854  0.8171
 1194SOL    HW2 4482   5.358   0.146   1.578  1.1594  0.9372 -0.4234
 1195SOL     OW 4483   5.337   2.692   1.971  0.6328  0.4112  0.6095
 1195SOL    HW1 4484   5.421   2.638   1.978  0.0620 -1.0178 -2.3372
 1195SOL    HW2 4485   5.361   2.789   1.960  1.8577  0.0975  0.3634
 1196SOL     OW 4486   5.809   4.966   3.084  0.3889  0.2123  0.1092
 1196SOL    HW1 4487   5.833   5.028   3.158  2.1381 -0.7895  0.4283
 1196SOL    HW2 4488   5.714   4.983   3.055  0.0616  1.3984  1.7679
 1197SOL     OW 4489   3.968   5.612   3.374  0.2136  0.1766  0.3937
 1197SOL    HW1 4490   3.976   5.570   3.283 -0.1384 -1.0291  0.9029
 1197SOL    HW2 4491   3.972   5.541   3.444 -0.9267  0.9349  1.2638
 1198SOL     OW 4492   2.438   1.876   2.919  0.0277 -0.6107 -0.2637
 1198SOL    HW1 4493   2.379   1.937   2.865 -0.1221  0.1670  0.7457
 1198SOL    HW2 4494   2.382   1.804   2.959 -0.1973 -0.1050  0.3630
 1199SOL     OW 4495   3.260   3.891   2.619  0.4894 -0.2336 -0.8160
 1199SOL    HW1 4496   3.279   3.798   2.652  1.1086 -0.1740 -0.9875
 1199SOL    HW2 4497   3.196   3.887   2.542  0.3478 -0.5006 -0.6848
 1200SOL     OW 4498   3.639   3.660   4.170 -0.1297 -0.2215 -0.0814
 1200SOL    HW1 4499   3.638   3.564   4.141 -0.0469  0.4396 -2.5146
 1200SOL    HW2 4500   3.562   3.708   4.127  0.9117  1.1781 -0.4599
 1201SOL     OW 4501   6.643   0.044   3.456 -0.0383 -0.6605 -0.7224
 1201SOL    HW1 4502   6.649   0.033   3.357  2.6861  1.4072 -0.9253
 1201SOL    HW2 4503   6.591   0.126   3.478  1.9523  0.6490 -0.6754
 1202SOL     OW 4504   1.094   5.016   5.787 -0.2317 -0.8309  0.2304
 1202SOL    HW1 4505   1.187   4.992   5.815 -0.4594 -1.8010  0.2006
 1202SOL    HW2 4506   1.028   4.974   5.850 -0.6789 -1.2774 -0.5140
 1203SOL     OW 4507   0.012   5.343   5.379 -0.2186  0.3839 -0.0471
 1203SOL    HW1 4508  -0.004   5.271   5.447 -0.1320 -0.6433 -1.0894
 1203SOL    HW2 4509   0.111   5.354   5.366 -0.2470 -0.1002 -0.7023
 1204SOL     OW 4510   5.012   0.898   1.760 -0.4542 -0.0783 -0.0270
 1204SOL    HW1 4511   5.039   0.994   1.752 -0.5755 -0.2208 -3.5977
 1204SOL    HW2 4512   5.094   0.842   1.775  0.1775  0.3141 -1.7108
 1205SOL     OW 4513   4.733   3.718   0.960  0.0309  0.5263 -0.7159
 1205SOL    HW1 4514   4.779   3.719   0.872  1.9438 -0.0855  0.2165
 1205SOL    HW2 4515   4.726   3.624   0.994 -1.4969  0.6520 -0.5879
 1206SOL     OW 4516   4.199   2.643   5.993  0.0280 -0.2014  0.1269
 1206SOL    HW1 4517   4.144   2.566   6.027 -0.6581 -0.1701 -0.8559
 1206SOL    HW2 4518   4.140   2.705   5.941  0.3446  1.5927  1.8206
 1207SOL     OW 4519   1.042   6.828   0.643  0.0624  0.5678 -0.2385
 1207SOL    HW1 4520   0.945   6.818   0.666  0.1365  1.2616  0.4375
 1207SOL    HW2 4521   1.077   6.742   0.608 -0.4524 -0.1110  0.8570
 1208SOL     OW 4522   3.329   3.258   2.795  0.3291 -0.6817 -0.2014
 1208SOL    HW1 4523   3.294   3.333   2.739  2.1879  0.0803 -0.4429
 1208SOL    HW2 4524   3.257   3.192   2.812 -0.8555  0.1766 -1.6526
 1209SOL     OW 4525   5.240   0.970   4.453 -0.3799 -0.1513 -1.1058
 1209SOL    HW1 4526   5.206   0.886   4.496  0.4018  0.7451  1.4877
 1209SOL    HW2 4527   5.200   0.980   4.362 -3.0936 -1.6501 -0.1926
 1210SOL     OW 4528   2.710   1.737   3.860  0.1186  0.1059 -0.2183
 1210SOL    HW1 4529   2.733   1.681   3.940 -0.7160 -0.4232 -0.3395
 1210SOL    HW2 4530   2.611   1.741   3.850  0.2114  0.5325 -0.9810
 1211SOL     OW 4531   6.683   5.024   1.753 -0.0524  0.0594 -0.0402
 1211SOL    HW1 4532   6.628   5.096   1.795  2.4235  1.0213  1.8507
 1211SOL    HW2 4533   6.711   4.958   1.823 -0.8345 -1.8373 -1.4294
 1212SOL     OW 4534   5.680   0.645   1.496  0.2607 -0.3834 -0.0950
 1212SOL    HW1 4535   5.760   0.676   1.548  0.1333 -0.4748  0.1584
 1212SOL    HW2 4536   5.710   0.581   1.425  0.5567  0.4741 -0.7734
 1213SOL     OW 4537   6.319   2.335   0.960  0.1105  0.2615 -0.1390
 1213SOL    HW1 4538   6.225   2.312   0.983 -0.0346  1.8907  1.0493
 1213SOL    HW2 4539   6.320   2.408   0.892  0.5076  0.4118  0.0238
 1214SOL     OW 4540   0.655   1.531   6.552  0.6353 -0.1052  0.0997
 1214SOL    HW1 4541   0.747   1.517   6.515  1.2105  1.6229  0.7626
 1214SOL    HW2 4542   0.661   1.555   6.649 -0.4275  0.9720 -0.0682
 1215SOL     OW 4543   1.406   5.039   2.689 -0.4421 -0.4573  0.0340
 1215SOL    HW1 4544   1.333   4.978   2.656 -3.1186  1.5341  1.7851
 1215SOL    HW2 4545   1.473   4.985   2.740 -2.3364 -2.1212  0.9398
 1216SOL     OW 4546   5.114   0.321   2.382  0.1588 -0.4410  0.2865
 1216SOL    HW1 4547   5.175   0.253   2.424 -1.0237 -1.8644 -0.2545
 1216SOL    HW2 4548   5.097   0.297   2.287 -3.7535 -1.9758  1.1902
 1217SOL     OW 4549   1.291   4.968   2.042  0.0140 -0.3946  0.1213
 1217SOL    HW1 4550   1.273   4.875   2.009  0.4737 -0.9507  1.3851
 1217SOL    HW2 4551   1.293   5.031   1.964 -2.7806 -1.0141 -0.5531
 1218SOL     OW 4552   0.735   4.091   3.631  0.2652  0.7997  0.5415
 1218SOL    HW1 4553   0.676   4.160   3.589  1.4164  1.8351  0.5288
 1218SOL    HW2 4554   0.688   4.048   3.708 -0.2859  2.0346  0.9155
 1219SOL     OW 4555   5.761   4.885   1.966  0.1565 -0.1243 -0.3139
 1219SOL    HW1 4556   5.789   4.839   2.050 -0.0931  0.6124  0.1817
 1219SOL    HW2 4557   5.825   4.863   1.893  0.7907 -0.2045  0.2554
 1220SOL     OW 4558   6.948   5.352   2.948  0.3963 -0.2480 -0.4504
 1220SOL    HW1 4559   6.984   5.414   3.018 -1.2987  0.5898 -0.2492
 1220SOL    HW2 4560   6.863   5.310   2.981  2.1956 -3.8742 -0.0159
 1221SOL     OW 4561   4.002   3.045   5.672 -0.2531  0.3587  0.2044
 1221SOL    HW1 4562   4.043   3.132   5.699 -0.3433  0.1371  1.0826
 1221SOL    HW2 4563   3.920   3.062   5.619 -0.5299  0.8217  0.7684
 1222SOL     OW 4564   0.876   0.136   6.741 -0.4652 -0.1934 -0.0763
 1222SOL    HW1 4565   0.884   0.183   6.829 -0.7116  0.0137 -0.1649
 1222SOL    HW2 4566   0.815   0.057   6.751  0.3351 -0.7964  0.1944
 1223SOL     OW 4567   4.875   1.164   0.342 -1.0250 -0.4997  0.0324
 1223SOL    HW1 4568   4.950   1.221   0.375 -1.3160 -0.2037  0.1854
 1223SOL    HW2 4569   4.822   1.130   0.420 -2.8833  1.7766 -0.1469
 1224SOL     OW 4570   3.106   6.727   1.841  0.0873 -0.3509 -0.4105
 1224SOL    HW1 4571   3.093   6.632   1.868  0.4126 -0.4079 -0.4616
 1224SOL    HW2 4572   3.203   6.749   1.839  0.3418 -1.0948 -4.0525
 1225SOL     OW 4573   4.341   1.897   4.623  0.2256 -0.6438 -0.1051
 1225SOL    HW1 4574   4.311   1.833   4.693  0.3863  0.2095  0.7579
 1225SOL    HW2 4575   4.286   1.885   4.540 -0.7771 -0.8406  0.5794
 1226SOL     OW 4576   3.577   0.582   1.194  0.1843  0.2261  0.0049
 1226SOL    HW1 4577   3.493   0.629   1.222  0.3777  0.9538 -0.5819
 1226SOL    HW2 4578   3.589   0.499   1.248 -0.4166  0.6141  0.7579
 1227SOL     OW 4579   1.810   3.467   5.408  0.2310 -0.2950  0.1447
 1227SOL    HW1 4580   1.761   3.491   5.492 -0.4535 -0.9052 -0.0653
 1227SOL    HW2 4581   1.901   3.434   5.431  0.7094  1.2371  0.5191
 1228SOL     OW 4582   3.577   1.098   6.640  0.6766 -0.1001  0.0151
 1228SOL    HW1 4583   3.598   1.000   6.647  0.4548 -0.2141 -0.7946
 1228SOL    HW2 4584   3.561   1.121   6.544  0.0299  0.5891  0.2837
 1229SOL     OW 4585   2.282   4.374   5.543 -0.2495  0.5500 -0.1070
 1229SOL    HW1 4586   2.293   4.449   5.477  2.0348  2.3120  2.0528
 1229SOL    HW2 4587   2.199   4.323   5.522  0.1535  1.1856 -4.0548
 1230SOL     OW 4588   6.011   0.106   3.078  0.1865 -0.3847 -0.0348
 1230SOL    HW1 4589   5.952   0.048   3.134 -0.6787  0.5843  0.0777
 1230SOL    HW2 4590   5.977   0.200   3.079  3.3878  0.9831  2.5489
 1231SOL     OW 4591   0.931   4.546   5.107  0.2603 -0.1701 -0.0004
 1231SOL    HW1 4592   0.923   4.618   5.176 -0.7205 -0.2632  0.0077
 1231SOL    HW2 4593   1.019   4.553   5.060  0.3657  0.7461  0.3188
 1232SOL     OW 4594   0.362   2.206   6.484  0.1702 -0.3342  0.4300
 1232SOL    HW1 4595   0.349   2.241   6.577 -0.0101 -1.2270  0.7511
 1232SOL    HW2 4596   0.272   2.186   6.444  0.3010 -2.4668  1.0685
 1233SOL     OW 4597   0.061   5.437   3.345 -0.5972 -0.2432  0.1328
 1233SOL    HW1 4598   0.066   5.431   3.246  1.1051  0.7304  0.1306
 1233SOL    HW2 4599   0.036   5.530   3.372 -1.0466 -0.4995  0.6305
 1234SOL     OW 4600   6.940   5.826   4.007 -0.5111  0.6567  0.3015
 1234SOL    HW1 4601   7.024   5.877   4.020  0.4305 -0.8357  0.3485
 1234SOL    HW2 4602   6.869   5.886   3.971  0.1753  2.2457  1.4860
 1235SOL     OW 4603   0.133   5.812   2.893  0.4360 -0.2303 -0.2174
 1235SOL    HW1 4604   0.104   5.844   2.983  1.5753 -0.2531  0.1756
 1235SOL    HW2 4605   0.117   5.713   2.887 -0.5067 -0.0719 -0.3958
 1236SOL     OW 4606   6.276   1.263   5.805  0.6339  0.7638 -0.5374
 1236SOL    HW1 4607   6.363   1.218   5.784  0.7167 -0.6010  2.2512
 1236SOL    HW2 4608   6.290   1.332   5.876 -0.5984  0.3004  0.1819
 1237SOL     OW 4609   1.621   3.198   6.169 -0.5499 -0.0578  0.3603
 1237SOL    HW1 4610   1.675   3.120   6.199 -1.5880 -1.2331 -0.6992
 1237SOL    HW2 4611   1.533   3.166   6.133 -0.6658  1.5358 -0.8831
 1238SOL     OW 4612   4.147   1.736   1.315 -0.2738 -0.0318  0.2748
 1238SOL    HW1 4613   4.119   1.801   1.245 -1.5669 -0.3228  0.4780
 1238SOL    HW2 4614   4.068   1.715   1.374  0.5351 -0.5335  1.2075
 1239SOL     OW 4615   0.631   1.102   5.899 -0.7128  0.8970  0.3016
 1239SOL    HW1 4616   0.700   1.030   5.909  0.1611  1.7175  0.3254
 1239SOL    HW2 4617   0.584   1.091   5.811 -0.1304  0.6817  0.0127
 1240SOL     OW 4618   5.257   5.977   1.420 -0.4141 -0.0145 -0.4332
 1240SOL    HW1 4619   5.266   5.878   1.433  0.1598 -0.2039 -2.1188
 1240SOL    HW2 4620   5.345   6.021   1.441 -0.4692  0.0666 -0.3704
 1241SOL     OW 4621   0.006   3.341   3.092  0.4388  0.3005 -0.4144
 1241SOL    HW1 4622   0.087   3.320   3.146  0.6176 -1.1060 -1.1771
 1241SOL    HW2 4623  -0.075   3.305   3.139  0.6536 -1.4700 -1.2853
 1242SOL     OW 4624   0.290   4.034   1.679  0.4691 -0.0618 -0.3640
 1242SOL    HW1 4625   0.310   4.041   1.582  0.6765 -1.5590 -0.4484
 1242SOL    HW2 4626   0.371   4.058   1.732  0.6454 -0.1871 -0.5767
 1243SOL     OW 4627   6.479   6.928   5.026 -0.0246 -0.0091  0.1838
 1243SOL    HW1 4628   6.523   6.860   4.967 -0.0622 -0.2734  0.4612
 1243SOL    HW2 4629   6.519   7.018   5.007  0.1470 -0.1337 -0.0601
 1244SOL     OW 4630   6.146   0.956   3.258  0.2416  0.0942 -0.8222
 1244SOL    HW1 4631   6.092   1.030   3.218 -1.6901 -1.0157 -0.4050
 1244SOL    HW2 4632   6.134   0.956   3.357  1.6016  0.2276 -0.6375
 1245SOL     OW 4633   5.992   4.374   0.386 -0.1859 -0.3606  0.4681
 1245SOL    HW1 4634   5.928   4.310   0.429 -0.7947  0.4301  0.7716
 1245SOL    HW2 4635   6.069   4.389   0.447 -1.8063  1.9926  2.1367
 1246SOL     OW 4636   2.030   4.878   1.770  0.4203  0.2505  0.2246
 1246SOL    HW1 4637   2.021   4.801   1.706 -0.9818 -0.2767  1.0186
 1246SOL    HW2 4638   2.067   4.845   1.857  0.9720  0.7090  0.1682
 1247SOL     OW 4639   2.313   0.416   5.904  0.0107  0.2118  0.2317
 1247SOL    HW1 4640   2.293   0.447   5.996  1.0257 -4.2929  2.2580
 1247SOL    HW2 4641   2.410   0.428   5.885  0.3020 -0.9922  0.8199
 1248SOL     OW 4642   0.993   6.101   5.808  0.1719 -0.0062 -0.2266
 1248SOL    HW1 4643   0.921   6.086   5.877  1.1479  2.5688  1.5235
 1248SOL    HW2 4644   0.961   6.167   5.741  0.2034 -0.4083 -0.6404
 1249SOL     OW 4645   0.007   1.465   1.214 -0.1886 -0.4827  0.3501
 1249SOL    HW1 4646   0.048   1.535   1.155  0.7781 -1.0774  0.2947
 1249SOL    HW2 4647  -0.023   1.388   1.158 -0.2538 -0.5886  0.5297
 1250SOL     OW 4648   5.471   4.515   4.449 -0.1861 -0.0760 -0.6453
 1250SOL    HW1 4649   5.553   4.459   4.442 -1.6192 -2.4180 -0.0282
 1250SOL    HW2 4650   5.401   4.479   4.386 -1.8683 -0.3581  1.2669
 1251SOL     OW 4651   4.901   1.178   3.031 -0.2802 -0.4044 -0.0786
 1251SOL    HW1 4652   4.948   1.238   2.966 -0.7751 -1.4947 -1.5047
 1251SOL    HW2 4653   4.802   1.188   3.021 -0.3681 -1.1980 -0.1138
 1252SOL     OW 4654   4.488   2.413   5.985 -0.8927  0.8666 -0.0389
 1252SOL    HW1 4655   4.522   2.435   5.894 -2.6062  2.3913 -0.3882
 1252SOL    HW2 4656   4.472   2.498   6.036 -2.0134  0.1515  0.8630
 1253SOL     OW 4657   2.907   5.131   3.953 -0.0479  0.2979  0.2890
 1253SOL    HW1 4658   2.887   5.041   3.992 -1.7108  0.5442  0.0969
 1253SOL    HW2 4659   2.869   5.202   4.012  0.3557  0.8167 -0.0711
 1254SOL     OW 4660   0.802   3.604   1.178  0.1634 -0.1887  0.7498
 1254SOL    HW1 4661   0.879   3.572   1.124 -0.8986 -1.6221  0.0252
 1254SOL    HW2 4662   0.824   3.596   1.275  0.3639 -2.1384  0.5819
 1255SOL     OW 4663   0.416   3.144   4.458  0.0413 -0.2538 -0.1178
 1255SOL    HW1 4664   0.396   3.213   4.528 -0.7406 -1.1642  0.5793
 1255SOL    HW2 4665   0.506   3.163   4.418 -0.0006  0.9552  0.3014
 1256SOL     OW 4666   6.527   6.839   3.809  0.1402 -0.3091 -0.0082
 1256SOL    HW1 4667   6.429   6.825   3.795  0.0220 -0.3415  0.8068
 1256SOL    HW2 4668   6.552   6.809   3.901  0.8460  0.0556 -0.0747
 1257SOL     OW 4669   6.793   3.527   6.100  0.3566  0.1750 -0.1508
 1257SOL    HW1 4670   6.702   3.488   6.091  0.8947 -0.8547 -1.6544
 1257SOL    HW2 4671   6.836   3.530   6.010  2.4196 -0.9516  0.7167
 1258SOL     OW 4672   2.170   4.851   2.349 -0.4801 -0.1803  0.6233
 1258SOL    HW1 4673   2.137   4.757   2.343 -0.7181 -0.0489 -0.1736
 1258SOL    HW2 4674   2.250   4.863   2.291 -1.8104  0.6711 -1.1412
 1259SOL     OW 4675   3.092   0.249   6.475 -0.3260  0.1728  0.2708
 1259SOL    HW1 4676   3.064   0.228   6.569  0.8042 -1.6875  0.2348
 1259SOL    HW2 4677   3.187   0.220   6.461 -0.3622  0.7454 -1.3605
 1260SOL     OW 4678   0.508   1.719   0.554 -0.1842 -0.6720  0.1467
 1260SOL    HW1 4679   0.473   1.809   0.527  1.5126 -0.1558 -0.4865
 1260SOL    HW2 4680   0.452   1.647   0.512 -1.2123  0.0767  0.1992
 1261SOL     OW 4681   0.983   5.145   6.358 -0.0389 -0.2549 -0.0676
 1261SOL    HW1 4682   0.899   5.111   6.400 -0.6394  0.2587 -0.8230
 1261SOL    HW2 4683   0.999   5.239   6.387  0.1514 -0.2711 -0.1198
 1262SOL     OW 4684   6.866   4.719   1.603 -0.1986  0.4212 -0.7765
 1262SOL    HW1 4685   6.935   4.767   1.657 -0.2198  1.5171 -1.6788
 1262SOL    HW2 4686   6.835   4.638   1.652  0.7392  0.6649  0.2450
 1263SOL     OW 4687   6.350   2.687   1.282  0.2404  0.1499  0.0108
 1263SOL    HW1 4688   6.261   2.647   1.261  0.1371  0.0729  0.5593
 1263SOL    HW2 4689   6.422   2.622   1.261  0.2305  0.5231 -1.2306
 1264SOL     OW 4690   4.331   4.527   1.109 -0.0982  0.2667 -0.1276
 1264SOL    HW1 4691   4.313   4.429   1.121  1.6452 -0.4317 -2.4750
 1264SOL    HW2 4692   4.333   4.572   1.198 -3.4111 -1.3038  0.8728
 1265SOL     OW 4693   4.688   4.266   4.862 -0.0196 -0.5086  0.0824
 1265SOL    HW1 4694   4.611   4.295   4.918 -0.6304 -2.6471  0.4097
 1265SOL    HW2 4695   4.764   4.239   4.921 -0.1237 -1.3319 -0.1601
 1266SOL     OW 4696   0.403   0.867   3.476  0.6998 -0.6629  0.1534
 1266SOL    HW1 4697   0.397   0.963   3.506  0.7215 -0.2548 -1.0693
 1266SOL    HW2 4698   0.469   0.861   3.401  0.3947 -1.5777 -0.0446
 1267SOL     OW 4699   6.081   2.358   2.752 -0.3005  0.1911  0.4169
 1267SOL    HW1 4700   6.056   2.447   2.791  1.3564  0.5314  0.7628
 1267SOL    HW2 4701   6.179   2.342   2.765 -0.2342 -0.9265 -1.1738
 1268SOL     OW 4702   1.447   3.384   4.786  0.4301  0.1941 -0.2646
 1268SOL    HW1 4703   1.380   3.313   4.806  0.2395  1.1080  3.0608
 1268SOL    HW2 4704   1.414   3.443   4.713 -2.1212  0.1954  0.7925
 1269SOL     OW 4705   6.144   4.194   4.233  0.3046  0.1366 -0.0170
 1269SOL    HW1 4706   6.217   4.199   4.301  0.7205  1.1941 -0.5111
 1269SOL    HW2 4707   6.143   4.103   4.191 -1.1431 -1.2014  2.6256
 1270SOL     OW 4708   1.104   4.036   0.720  0.0021 -0.3343  0.1633
 1270SOL    HW1 4709   1.019   4.053   0.670 -0.6598 -1.3679  0.8744
 1270SOL    HW2 4710   1.160   3.970   0.670  0.0510 -0.1924  0.0328
 1271SOL     OW 4711   4.185   2.307   3.247  0.2746  0.2084  0.6150
 1271SOL    HW1 4712   4.104   2.310   3.306  0.2347 -1.9598  0.7802
 1271SOL    HW2 4713   4.263   2.274   3.301  1.3130  2.3130  0.4701
 1272SOL     OW 4714   6.890   6.364   0.723  0.4380  0.3511  0.2126
 1272SOL    HW1 4715   6.806   6.316   0.698 -0.0371  0.7949  0.9105
 1272SOL    HW2 4716   6.868   6.438   0.787  0.9817  2.2539 -1.6712
 1273SOL     OW 4717   0.810   3.847   4.690  0.5874  0.1688  0.3887
 1273SOL    HW1 4718   0.869   3.897   4.628  1.4682  1.1995  1.9806
 1273SOL    HW2 4719   0.717   3.844   4.653  1.2970 -0.2071 -1.4457
 1274SOL     OW 4720   6.892   5.539   0.762 -0.6360  0.3594  0.5313
 1274SOL    HW1 4721   6.888   5.493   0.673 -0.1827  1.6612 -0.2035
 1274SOL    HW2 4722   6.904   5.472   0.835 -1.4755 -0.7787 -0.3376
 1275SOL     OW 4723   2.104   1.601   2.902  0.4506 -0.7125 -0.4710
 1275SOL    HW1 4724   2.170   1.645   2.842  1.7184 -2.4187 -0.3782
 1275SOL    HW2 4725   2.093   1.655   2.985 -0.4475  1.0546 -1.6757
 1276SOL     OW 4726   6.547   4.857   4.996  0.1657  0.6697 -0.1662
 1276SOL    HW1 4727   6.539   4.836   4.898 -1.0566 -3.6878  0.6475
 1276SOL    HW2 4728   6.643   4.868   5.020  0.7466 -1.2291 -1.4283
 1277SOL     OW 4729   3.774   4.405   6.795 -0.4849  0.0721  0.3437
 1277SOL    HW1 4730   3.807   4.330   6.853 -1.6684 -0.4877  0.3467
 1277SOL    HW2 4731   3.849   4.442   6.742  0.1959 -0.9261  0.5718
 1278SOL     OW 4732   1.062   6.099   4.516  0.4198 -0.5120  0.3245
 1278SOL    HW1 4733   1.118   6.034   4.569 -1.4641 -1.1075  1.6762
 1278SOL    HW2 4734   1.015   6.050   4.443  2.8369  0.2714 -1.9221
 1279SOL     OW 4735   2.050   6.055   6.860 -0.2400  0.1998  0.0076
 1279SOL    HW1 4736   2.130   6.111   6.836 -1.1654  2.5884  2.1143
 1279SOL    HW2 4737   1.980   6.065   6.789  0.5451 -0.4086 -0.8944
 1280SOL     OW 4738   6.346   6.616   3.777 -0.1304 -0.0399 -0.0070
 1280SOL    HW1 4739   6.261   6.645   3.822 -0.9222 -1.0846 -0.7884
 1280SOL    HW2 4740   6.332   6.611   3.678  0.3870 -1.6076 -0.0365
 1281SOL     OW 4741   3.916   5.344   3.974  0.1995  0.4037 -0.1532
 1281SOL    HW1 4742   3.819   5.352   3.954 -0.1967 -0.2613  1.4161
 1281SOL    HW2 4743   3.950   5.256   3.939  0.1323  0.4309 -0.2873
 1282SOL     OW 4744   6.022   3.528   0.571  0.2581  0.4215 -0.1714
 1282SOL    HW1 4745   5.924   3.524   0.553 -0.1169  0.4098  1.6941
 1282SOL    HW2 4746   6.067   3.447   0.532 -0.2687  0.9394 -1.9580
 1283SOL     OW 4747   5.070   2.683   4.100 -0.1451  0.0532 -0.2893
 1283SOL    HW1 4748   5.014   2.716   4.024  1.1626  2.1177 -0.4217
 1283SOL    HW2 4749   5.132   2.755   4.130  1.4130 -1.6560  0.8362
 1284SOL     OW 4750   3.848   1.638   3.266  0.4545  0.6681 -0.1437
 1284SOL    HW1 4751   3.784   1.582   3.319  1.5731  0.2067  0.7410
 1284SOL    HW2 4752   3.894   1.582   3.198  0.8881  0.7125  0.1113
 1285SOL     OW 4753   5.032   1.399   5.252 -0.0987  0.4664  0.4955
 1285SOL    HW1 4754   5.104   1.371   5.188  0.4104  0.6701  0.9677
 1285SOL    HW2 4755   5.011   1.495   5.239  0.0889  0.5384  0.7019
 1286SOL     OW 4756   4.769   3.694   0.213 -0.6157  0.2732 -0.0317
 1286SOL    HW1 4757   4.869   3.697   0.220 -0.6297 -0.0380  0.3241
 1286SOL    HW2 4758   4.732   3.786   0.228 -0.2043  1.1512 -3.4297
 1287SOL     OW 4759   5.373   5.225   5.848  0.0793 -0.0127  0.0025
 1287SOL    HW1 4760   5.280   5.193   5.865 -0.2760  0.6667 -0.6076
 1287SOL    HW2 4761   5.438   5.167   5.897 -0.6260 -0.8460 -0.0321
 1288SOL     OW 4762   4.957   3.818   5.114  0.2195 -0.3202 -0.0572
 1288SOL    HW1 4763   4.953   3.777   5.205 -1.8112  1.4751  0.7506
 1288SOL    HW2 4764   4.900   3.767   5.051 -2.2723  1.0874  0.9318
 1289SOL     OW 4765   6.621   1.119   1.223 -0.3413  0.3144 -0.2192
 1289SOL    HW1 4766   6.708   1.101   1.270 -0.5590 -0.2216 -0.0199
 1289SOL    HW2 4767   6.628   1.091   1.128 -0.2696  0.3482 -0.2242
 1290SOL     OW 4768   0.407   6.075   1.472 -0.6135 -0.1847  0.7426
 1290SOL    HW1 4769   0.487   6.135   1.476 -0.0353 -0.9947  2.8707
 1290SOL    HW2 4770   0.325   6.127   1.495 -1.2697  1.2758 -3.8586
 1291SOL     OW 4771   0.053   2.265   2.076 -0.3760  0.2350 -0.0898
 1291SOL    HW1 4772   0.111   2.193   2.114  0.1760  0.0478 -1.2259
 1291SOL    HW2 4773   0.004   2.312   2.150  0.3662 -0.3462  0.7911
 1292SOL     OW 4774   0.084   5.983   2.261 -0.3342  0.0373  0.0801
 1292SOL    HW1 4775   0.012   5.980   2.192 -1.4393 -0.2172  1.2100
 1292SOL    HW2 4776   0.135   6.068   2.252 -0.3882 -0.0396 -1.1084
 1293SOL     OW 4777   4.935   2.003   1.116  0.3606  0.2807  0.1852
 1293SOL    HW1 4778   4.995   1.975   1.191  1.8329  2.2960 -0.1550
 1293SOL    HW2 4779   4.944   1.938   1.041 -0.6995 -1.4451  1.4847
 1294SOL     OW 4780   1.231   2.733   4.906  0.5531 -0.0176 -0.1481
 1294SOL    HW1 4781   1.277   2.689   4.983  0.0158  0.0353  0.2104
 1294SOL    HW2 4782   1.295   2.745   4.830  0.8553 -0.8903 -0.0367
 1295SOL     OW 4783   0.423   3.714   1.675  0.1333 -0.1122  0.9579
 1295SOL    HW1 4784   0.445   3.812   1.677  2.2085 -0.4927 -0.0603
 1295SOL    HW2 4785   0.344   3.699   1.616 -1.0252  1.0490  2.1463
 1296SOL     OW 4786   4.361   0.553   5.854  0.6003 -0.2379  0.4883
 1296SOL    HW1 4787   4.461   0.551   5.853  0.6117  0.1168 -0.2427
 1296SOL    HW2 4788   4.326   0.467   5.892  1.1803 -0.2644  0.9777
 1297SOL     OW 4789   0.401   6.377   5.773  0.2926 -0.4977  0.6827
 1297SOL    HW1 4790   0.365   6.302   5.716  0.1710 -0.7838  1.1291
 1297SOL    HW2 4791   0.475   6.342   5.831  1.3217  0.0893 -0.2412
 1298SOL     OW 4792   5.846   5.468   1.817 -0.5874 -0.2569  0.1170
 1298SOL    HW1 4793   5.892   5.517   1.891  0.1849 -1.0954  0.2054
 1298SOL    HW2 4794   5.762   5.426   1.851 -0.6580  0.0488  0.3153
 1299SOL     OW 4795   1.718   2.114   3.463 -0.1200 -0.0679  0.6435
 1299SOL    HW1 4796   1.648   2.089   3.397  1.3834 -0.1750 -0.9780
 1299SOL    HW2 4797   1.792   2.047   3.461  1.1724  1.3127  0.5266
 1300SOL     OW 4798   1.841   0.980   1.996  0.2044  0.2745 -0.7107
 1300SOL    HW1 4799   1.882   1.071   1.991 -0.7265  0.8347  1.0410
 1300SOL    HW2 4800   1.841   0.938   1.905  1.0819  1.8186 -1.4555
 1301SOL     OW 4801   0.387   6.765   1.095 -0.0049  0.2532 -0.1256
 1301SOL    HW1 4802   0.324   6.691   1.118  0.5330 -0.0583  0.4041
 1301SOL    HW2 4803   0.400   6.824   1.175 -0.2552  0.7888 -0.4776
 1302SOL     OW 4804   5.411   0.748   5.539 -0.0781 -0.0799 -0.3053
 1302SOL    HW1 4805   5.389   0.837   5.498  0.2371 -0.3434 -1.0750
 1302SOL    HW2 4806   5.345   0.680   5.508  1.1377 -0.6503 -1.8025
 1303SOL     OW 4807   4.560   1.717   1.118  0.2268  0.6176  0.6814
 1303SOL    HW1 4808   4.624   1.711   1.194 -0.8390  2.1682  1.7485
 1303SOL    HW2 4809   4.479   1.663   1.138  0.8042 -0.6619 -0.3022
 1304SOL     OW 4810   2.291   0.955   1.005  0.0094  0.2581 -0.4625
 1304SOL    HW1 4811   2.212   0.949   0.944  0.8448  0.9630 -1.6620
 1304SOL    HW2 4812   2.305   1.051   1.032 -0.7007 -0.1041  1.3658
 1305SOL     OW 4813   5.900   3.895   6.572  0.2366 -0.0863 -0.1610
 1305SOL    HW1 4814   5.937   3.810   6.534  4.9932  2.5141 -2.2847
 1305SOL    HW2 4815   5.829   3.931   6.511  1.2632 -0.4830 -1.6399
 1306SOL     OW 4816   0.306   6.465   4.243  0.8692 -0.0818 -0.3734
 1306SOL    HW1 4817   0.306   6.541   4.309 -0.2048 -1.2738  1.0616
 1306SOL    HW2 4818   0.233   6.479   4.176  0.0837 -0.2768  0.4265
 1307SOL     OW 4819   1.417   5.125   3.730 -0.5604  0.5450  0.4953
 1307SOL    HW1 4820   1.431   5.208   3.677 -0.8680 -0.6651 -1.6225
 1307SOL    HW2 4821   1.499   5.105   3.784  2.7671 -1.4673 -4.4836
 1308SOL     OW 4822   0.201   0.153   5.495  0.3004  0.3380  0.5962
 1308SOL    HW1 4823   0.108   0.191   5.498  0.2225  0.1038  1.2906
 1308SOL    HW2 4824   0.252   0.197   5.421  0.6180  2.7406  2.1263
 1309SOL     OW 4825   5.018   5.319   4.910  0.2615  0.0538 -0.1845
 1309SOL    HW1 4826   5.027   5.375   4.993 -0.7705  2.1897 -1.4215
 1309SOL    HW2 4827   5.091   5.250   4.909  1.4663  1.1951  1.5609
 1310SOL     OW 4828   2.257   2.060   2.044  0.7667 -0.2491  0.6362
 1310SOL    HW1 4829   2.269   2.150   2.086  1.1994 -0.4659  0.9824
 1310SOL    HW2 4830   2.251   1.991   2.116  0.8480 -0.5474  0.3572
 1311SOL     OW 4831   6.778   0.143   5.781  0.4954  0.3631 -0.6891
 1311SOL    HW1 4832   6.763   0.123   5.877  3.7253  0.6216 -0.0208
 1311SOL    HW2 4833   6.690   0.159   5.736 -1.0728  0.8934  2.3148
 1312SOL     OW 4834   1.084   0.046   0.767  0.0419 -0.0124  0.0956
 1312SOL    HW1 4835   1.104   0.123   0.706 -1.3243  1.2947  1.2349
 1312SOL    HW2 4836   1.056  -0.033   0.712  1.5124  0.2459 -1.0976
 1313SOL     OW 4837   1.053   5.502   1.459  0.0622 -0.0368 -0.3033
 1313SOL    HW1 4838   1.111   5.583   1.458 -0.0802  0.0664 -0.2342
 1313SOL    HW2 4839   1.014   5.486   1.368 -0.5959  0.4688 -0.1184
 1314SOL     OW 4840   2.686   1.336   5.464  0.3350  0.2447 -0.2143
 1314SOL    HW1 4841   2.771   1.312   5.418 -0.2953 -1.5124 -0.5721
 1314SOL    HW2 4842   2.611   1.284   5.423 -0.4871 -0.2205  1.7563
 1315SOL     OW 4843   6.434   1.835   3.895  0.4994 -0.3084 -0.5262
 1315SOL    HW1 4844   6.439   1.844   3.994 -0.8858  3.5326 -0.6716
 1315SOL    HW2 4845   6.471   1.917   3.852  1.0188 -1.8595 -3.2664
 1316SOL     OW 4846   2.033   6.845   5.038 -0.4377  0.4073 -0.3950
 1316SOL    HW1 4847   2.111   6.804   4.991 -0.2638  0.3442 -0.0503
 1316SOL    HW2 4848   1.948   6.811   4.998 -0.3051  1.3289 -1.5388
 1317SOL     OW 4849   0.855   1.920   6.743 -0.1275 -0.0584  0.1540
 1317SOL    HW1 4850   0.818   1.867   6.666 -0.4074  1.5448 -0.8574
 1317SOL    HW2 4851   0.878   2.012   6.712 -0.4030  0.6898  2.0584
 1318SOL     OW 4852   6.337   0.505   1.226 -0.2369 -0.2553 -0.0081
 1318SOL    HW1 4853   6.384   0.416   1.227  0.2150 -0.0144  0.7162
 1318SOL    HW2 4854   6.313   0.530   1.319 -1.4023 -0.1539 -0.3296
 1319SOL     OW 4855   6.157   0.308   0.774  0.0979 -0.3591  0.5758
 1319SOL    HW1 4856   6.063   0.290   0.743 -0.2922  1.0175  0.8894
 1319SOL    HW2 4857   6.154   0.357   0.861  1.0040  2.2478 -0.7598
 1320SOL     OW 4858   3.239   3.925   0.228 -0.1653  0.4286  0.1980
 1320SOL    HW1 4859   3.196   3.846   0.273  0.1683 -0.0446 -0.3061
 1320SOL    HW2 4860   3.314   3.958   0.285 -0.4886  0.5622  0.5493
 1321SOL     OW 4861   4.957   3.148   4.977 -0.2508 -0.2880 -0.0616
 1321SOL    HW1 4862   4.893   3.129   5.051  0.4617  0.0165  0.6498
 1321SOL    HW2 4863   4.958   3.246   4.959  0.0163 -0.2930 -0.0692
 1322SOL     OW 4864   1.971   0.983   6.391  0.0210 -0.0413  0.1322
 1322SOL    HW1 4865   2.065   0.967   6.422  0.0377 -0.3873 -0.0975
 1322SOL    HW2 4866   1.927   0.896   6.370 -0.2406  0.1405 -0.0865
 1323SOL     OW 4867   2.757   0.072   0.067  0.1047  0.2810  0.1414
 1323SOL    HW1 4868   2.697   0.098  -0.008  0.1109  2.4833  0.8367
 1323SOL    HW2 4869   2.851   0.097   0.044  0.2329  0.1516  0.5156
 1324SOL     OW 4870   5.751   3.765   0.335  0.0793  0.1376  0.4262
 1324SOL    HW1 4871   5.709   3.785   0.246 -1.7499  2.4368  1.6630
 1324SOL    HW2 4872   5.849   3.781   0.330 -0.2109  1.8440 -0.8216
 1325SOL     OW 4873   4.721   5.239   0.832  0.4903 -0.5032  0.3939
 1325SOL    HW1 4874   4.761   5.147   0.833  0.2224 -0.6365  2.4615
 1325SOL    HW2 4875   4.693   5.262   0.739  0.3616 -2.6008 -0.1281
 1326SOL     OW 4876   6.902   2.588   5.433 -0.2888 -0.4774 -0.7730
 1326SOL    HW1 4877   6.934   2.586   5.339  0.8740  1.8430 -0.5009
 1326SOL    HW2 4878   6.802   2.590   5.435 -0.3085  0.5431 -2.0111
 1327SOL     OW 4879   1.008   6.592   5.703  0.2945 -0.0626  1.1387
 1327SOL    HW1 4880   1.081   6.652   5.734  0.1799  0.3543  0.6291
 1327SOL    HW2 4881   0.919   6.632   5.727  0.1979  0.4033  0.0764
 1328SOL     OW 4882   1.044   3.708   0.781  0.2180  0.3759  0.4278
 1328SOL    HW1 4883   0.987   3.749   0.710  1.8438  0.6787 -0.7512
 1328SOL    HW2 4884   1.129   3.673   0.741  0.5058 -0.8559  1.9901
 1329SOL     OW 4885   1.204   0.896   2.435  0.1093 -0.2099  0.4194
 1329SOL    HW1 4886   1.226   0.876   2.339  0.1158  0.3143  0.3095
 1329SOL    HW2 4887   1.134   0.832   2.467  1.9663 -2.1361  0.8749
 1330SOL     OW 4888   2.162   3.773   1.966 -0.4915  0.1355  0.0529
 1330SOL    HW1 4889   2.199   3.831   2.038  2.7014  0.8556 -1.9657
 1330SOL    HW2 4890   2.176   3.677   1.990  1.1519  0.3799  0.1676
 1331SOL     OW 4891   5.136   1.686   3.626 -0.1648 -0.1547 -0.0934
 1331SOL    HW1 4892   5.212   1.653   3.571 -0.1245 -0.6038  0.2232
 1331SOL    HW2 4893   5.169   1.754   3.691 -0.2362  0.4707 -0.7006
 1332SOL     OW 4894   3.867   0.890   0.374  0.3283 -0.4301  0.9946
 1332SOL    HW1 4895   3.903   0.929   0.289  1.6385 -1.3376  1.1097
 1332SOL    HW2 4896   3.767   0.900   0.376  0.3872  0.5539 -0.1524
 1333SOL     OW 4897   3.785   2.958   3.813 -0.0159  0.3711  0.2922
 1333SOL    HW1 4898   3.743   3.047   3.832 -2.0831 -0.7928  1.5441
 1333SOL    HW2 4899   3.779   2.939   3.715 -1.6812  0.6589  0.3017
 1334SOL     OW 4900   0.756   2.046   5.074  0.0866  0.1071 -0.7923
 1334SOL    HW1 4901   0.658   2.060   5.089  0.2038  0.5710 -0.4587
 1334SOL    HW2 4902   0.801   2.134   5.060  1.0243  0.2918  2.5310
 1335SOL     OW 4903   4.125   2.282   1.623  0.2217  0.0635  0.1932
 1335SOL    HW1 4904   4.058   2.250   1.691 -0.2253  0.3923 -0.0865
 1335SOL    HW2 4905   4.122   2.382   1.618  1.4528  0.1576  0.8956
 1336SOL     OW 4906   2.934   0.372   4.348 -1.0569  0.1086 -0.1221
 1336SOL    HW1 4907   2.851   0.366   4.292 -1.8350  1.4472  0.8295
 1336SOL    HW2 4908   2.934   0.296   4.414 -1.6408  0.2243  0.0169
 1337SOL     OW 4909   1.037   0.399   2.962  0.7337 -0.0706 -0.4137
 1337SOL    HW1 4910   0.975   0.324   2.986  1.9183 -0.0750  3.0841
 1337SOL    HW2 4911   0.986   0.485   2.959  0.1699 -0.3628  0.4060
 1338SOL     OW 4912   5.381   3.177   3.641  0.7367  0.3510  0.1612
 1338SOL    HW1 4913   5.423   3.267   3.629  0.5429  0.5290  0.8147
 1338SOL    HW2 4914   5.390   3.125   3.556  0.5035  1.1289 -0.3559
 1339SOL     OW 4915   6.534   1.750   0.433  0.3930  0.8439 -0.0400
 1339SOL    HW1 4916   6.611   1.795   0.388 -0.9987  0.7874 -2.7274
 1339SOL    HW2 4917   6.533   1.653   0.409 -0.9358  1.0081 -0.7295
 1340SOL     OW 4918   6.415   0.278   3.461 -0.0394 -0.0495  0.1297
 1340SOL    HW1 4919   6.417   0.334   3.378 -2.6852 -0.7588 -0.5355
 1340SOL    HW2 4920   6.432   0.336   3.541  1.0944  0.9278 -0.7797
 1341SOL     OW 4921   3.917   0.972   6.537  0.1679  0.6772 -0.1915
 1341SOL    HW1 4922   3.940   1.069   6.546  0.5002  0.5766  0.0683
 1341SOL    HW2 4923   3.881   0.955   6.445  1.4762  0.7684 -0.7446
 1342SOL     OW 4924   3.754   3.061   0.166 -0.1933  0.1566  0.7258
 1342SOL    HW1 4925   3.854   3.063   0.173 -0.3202  0.4814  3.0446
 1342SOL    HW2 4926   3.724   2.968   0.145  0.5263 -0.2958  1.6509
 1343SOL     OW 4927   5.788   5.227   4.544 -0.1937 -0.2214 -0.5937
 1343SOL    HW1 4928   5.838   5.305   4.583 -0.1120 -0.8561  0.6030
 1343SOL    HW2 4929   5.823   5.208   4.452  0.0550  0.8936 -0.7500
 1344SOL     OW 4930   7.010   4.898   2.917 -1.0326 -0.2906 -0.6760
 1344SOL    HW1 4931   7.099   4.934   2.890 -0.4323 -0.7713  0.5746
 1344SOL    HW2 4932   6.987   4.932   3.008 -0.4444 -2.9349  0.5610
 1345SOL     OW 4933   1.596   6.658   1.279  0.0422  0.5910  0.4688
 1345SOL    HW1 4934   1.548   6.744   1.299 -1.2034 -0.4444  2.2428
 1345SOL    HW2 4935   1.582   6.594   1.355  2.2411 -0.6536 -0.0904
 1346SOL     OW 4936   0.677   5.025   4.655 -0.1691 -0.1507  0.1910
 1346SOL    HW1 4937   0.579   5.030   4.637 -0.8236 -0.5467  3.0920
 1346SOL    HW2 4938   0.708   5.113   4.693  0.2051 -0.5923  0.9202
 1347SOL     OW 4939   0.362   0.256   5.310  0.6848  0.4669 -0.0799
 1347SOL    HW1 4940   0.457   0.247   5.340  0.6516  1.9765  0.5319
 1347SOL    HW2 4941   0.360   0.296   5.218  0.6496 -0.4795 -0.5077
 1348SOL     OW 4942   0.956   0.330   5.019  0.0482 -0.2935  0.4753
 1348SOL    HW1 4943   0.867   0.331   4.974  1.1806  1.9771 -1.9229
 1348SOL    HW2 4944   0.949   0.378   5.107 -0.6427  1.9042 -0.7277
 1349SOL     OW 4945   5.896   2.353   5.772 -0.0103  0.4475 -0.1958
 1349SOL    HW1 4946   5.928   2.435   5.821  1.4933  0.0213 -0.4265
 1349SOL    HW2 4947   5.816   2.316   5.819  0.4777  0.9200  1.0526
 1350SOL     OW 4948   4.932   4.024   6.599 -0.3850 -0.0530  0.1944
 1350SOL    HW1 4949   4.852   4.082   6.586  0.0499  0.6130  0.4296
 1350SOL    HW2 4950   5.015   4.076   6.577 -0.0570 -1.0223 -1.0018
 1351SOL     OW 4951   6.996   3.047   2.461 -0.1735 -0.4323  0.0989
 1351SOL    HW1 4952   6.981   2.994   2.378  0.7253 -0.6692  0.0802
 1351SOL    HW2 4953   6.998   2.985   2.540  1.4252 -0.5194  0.0169
 1352SOL     OW 4954   5.531   6.254   5.385  0.3317  0.4667  0.0922
 1352SOL    HW1 4955   5.622   6.214   5.378  1.6279  3.2102  0.0299
 1352SOL    HW2 4956   5.495   6.273   5.294  0.7381  1.5179  0.1401
 1353SOL     OW 4957   5.883   1.840   6.015  0.2802  0.2905  0.1621
 1353SOL    HW1 4958   5.915   1.865   5.923  0.8881  1.0626  0.5704
 1353SOL    HW2 4959   5.960   1.840   6.078 -0.2158  0.2534  0.7771
 1354SOL     OW 4960   1.154   4.189   1.200  0.3199 -0.3557 -0.7995
 1354SOL    HW1 4961   1.194   4.172   1.110  0.1296  0.3774 -1.0297
 1354SOL    HW2 4962   1.214   4.152   1.271  0.7618 -0.4176 -1.2014
 1355SOL     OW 4963   5.162   3.453   5.095  0.2570 -0.8010 -0.0084
 1355SOL    HW1 4964   5.069   3.449   5.131 -0.8132  1.9071 -2.1300
 1355SOL    HW2 4965   5.215   3.519   5.148  0.0839 -0.2516 -0.5077
 1356SOL     OW 4966   4.646   3.238   0.929  0.6888 -0.1303  0.5021
 1356SOL    HW1 4967   4.722   3.255   0.867  0.0555  1.6426  0.1523
 1356SOL    HW2 4968   4.648   3.142   0.959  1.9961 -0.5740 -0.8803
 1357SOL     OW 4969   6.358   5.682   0.026 -0.3285  0.1266  0.0729
 1357SOL    HW1 4970   6.350   5.608  -0.041 -0.3708  1.1997 -1.1564
 1357SOL    HW2 4971   6.268   5.702   0.064 -1.0512  1.8990 -2.2938
 1358SOL     OW 4972   6.859   6.851   0.150 -0.0956 -0.1643  0.2348
 1358SOL    HW1 4973   6.880   6.948   0.138 -0.8966 -0.1100 -0.9839
 1358SOL    HW2 4974   6.810   6.818   0.069  0.7746 -1.7602  0.3341
 1359SOL     OW 4975   4.102   5.593   6.116 -0.4006  0.1057 -0.5237
 1359SOL    HW1 4976   4.165   5.543   6.056  1.2005 -0.6401  1.6671
 1359SOL    HW2 4977   4.097   5.688   6.087 -1.3408 -0.6270 -3.0800
 1360SOL     OW 4978   2.434   1.681   0.295  0.3220 -0.0840  0.2640
 1360SOL    HW1 4979   2.531   1.673   0.269  0.4191  4.5210 -1.7214
 1360SOL    HW2 4980   2.382   1.608   0.251  2.5692 -1.5383 -0.2077
 1361SOL     OW 4981   5.778   4.259   4.819  0.3949 -0.2967  0.1278
 1361SOL    HW1 4982   5.678   4.253   4.819  0.2209  1.3144  2.6385
 1361SOL    HW2 4983   5.817   4.169   4.836 -0.3905 -1.6189 -3.8752
 1362SOL     OW 4984   4.079   3.592   4.069  0.0004  0.6164 -0.1693
 1362SOL    HW1 4985   4.168   3.549   4.057 -0.3936  0.0428 -1.1045
 1362SOL    HW2 4986   4.056   3.594   4.167  0.3221 -0.6920 -0.0560
 1363SOL     OW 4987   0.286   3.953   2.753 -0.4413 -0.2606 -0.1170
 1363SOL    HW1 4988   0.325   4.020   2.690 -0.4167 -1.0005 -0.8996
 1363SOL    HW2 4989   0.196   3.984   2.784  0.0362  0.6587  0.3990
 1364SOL     OW 4990   4.793   4.516   6.410  0.1459 -0.1320  0.3844
 1364SOL    HW1 4991   4.874   4.562   6.374  0.8290  1.1458  3.2740
 1364SOL    HW2 4992   4.711   4.561   6.376  0.5430 -1.1649 -2.2268
 1365SOL     OW 4993   3.651   4.813   5.348  0.1821  0.7501 -0.0435
 1365SOL    HW1 4994   3.597   4.896   5.336  0.6067  0.7249 -2.8358
 1365SOL    HW2 4995   3.590   4.734   5.354 -0.1510  1.0396  0.5299
 1366SOL     OW 4996   2.069   6.803   1.136  0.1402  0.1212  0.2330
 1366SOL    HW1 4997   2.005   6.731   1.163  0.8000 -0.8436 -0.6798
 1366SOL    HW2 4998   2.025   6.892   1.146 -1.7261 -0.5574 -1.3029
 1367SOL     OW 4999   1.658   5.823   4.753 -0.0245 -0.1642 -0.1857
 1367SOL    HW1 5000   1.735   5.817   4.816 -0.4701  0.8440  0.4743
 1367SOL    HW2 5001   1.683   5.780   4.666  0.5699 -1.6302  0.6709
 1368SOL     OW 5002   5.952   6.898   4.797  0.7025 -0.2881 -0.4038
 1368SOL    HW1 5003   5.892   6.957   4.744  1.0390  1.5219  1.1127
 1368SOL    HW2 5004   5.906   6.870   4.881  0.0032 -3.4992 -1.7136
 1369SOL     OW 5005   3.304   5.332   2.919 -0.0955  0.0496  0.5306
 1369SOL    HW1 5006   3.234   5.271   2.956  0.1620  0.2632  1.3725
 1369SOL    HW2 5007   3.376   5.346   2.986 -0.8637  2.4463  0.9479
 1370SOL     OW 5008   2.414   1.234   6.956  0.1871 -0.0294 -0.3923
 1370SOL    HW1 5009   2.386   1.228   6.860  0.4214 -1.1153 -0.4070
 1370SOL    HW2 5010   2.333   1.234   7.015  0.0673 -0.7205 -0.5430
 1371SOL     OW 5011   4.780   0.775   3.410 -0.7844 -0.6263 -0.3533
 1371SOL    HW1 5012   4.683   0.758   3.392 -0.5279 -1.7837 -0.7709
 1371SOL    HW2 5013   4.804   0.739   3.500 -0.6694 -0.6868 -0.4071
 1372SOL     OW 5014   2.463   3.162   1.533 -0.4334 -0.4043 -0.0575
 1372SOL    HW1 5015   2.370   3.131   1.553 -0.3831  0.5178  1.8487
 1372SOL    HW2 5016   2.528   3.090   1.557 -0.5856 -0.6967 -0.5017
 1373SOL     OW 5017   5.864   3.926   0.721 -0.0982  0.1487 -0.5018
 1373SOL    HW1 5018   5.956   3.887   0.711 -0.2423  0.0202 -1.4225
 1373SOL    HW2 5019   5.848   3.992   0.648 -0.7075  0.2448 -0.2863
 1374SOL     OW 5020   3.582   2.957   2.090 -0.1153 -0.0280 -0.0539
 1374SOL    HW1 5021   3.651   2.923   2.153  0.0852  1.4154  0.5495
 1374SOL    HW2 5022   3.493   2.916   2.111  0.5321 -1.9743 -0.8960
 1375SOL     OW 5023   0.059   3.855   5.234 -0.2231 -0.3745  0.1121
 1375SOL    HW1 5024   0.140   3.883   5.183  0.0716  0.7317  1.1347
 1375SOL    HW2 5025   0.082   3.779   5.295  0.0916  0.0605  0.5351
 1376SOL     OW 5026   6.134   4.625   4.063  0.0726  0.5360 -0.2688
 1376SOL    HW1 5027   6.190   4.550   4.099  0.3094  0.5953 -0.5078
 1376SOL    HW2 5028   6.038   4.597   4.060  0.1175  0.3556 -0.0627
 1377SOL     OW 5029   4.338   4.303   5.555 -0.4521  0.8086  0.3314
 1377SOL    HW1 5030   4.254   4.292   5.608  0.0176  1.7971  1.3239
 1377SOL    HW2 5031   4.343   4.232   5.485 -1.1621 -0.4255  1.4993
 1378SOL     OW 5032   6.101   3.460   4.245  0.4655  0.3818 -0.1432
 1378SOL    HW1 5033   6.027   3.398   4.220  0.5836  0.5168 -0.8506
 1378SOL    HW2 5034   6.189   3.415   4.229  0.5917 -0.5287  2.5472
 1379SOL     OW 5035   3.579   1.155   1.411  0.1020 -0.1707 -0.0501
 1379SOL    HW1 5036   3.536   1.158   1.501  0.0512  0.5404 -0.0905
 1379SOL    HW2 5037   3.679   1.150   1.423  0.1277  0.4416  0.0585
 1380SOL     OW 5038   6.986   0.327   1.259 -0.5756  0.5821  0.4027
 1380SOL    HW1 5039   6.908   0.386   1.277 -0.1221  1.8344 -1.4371
 1380SOL    HW2 5040   6.982   0.293   1.165  0.8901  0.3733  0.3827
 1381SOL     OW 5041   5.327   4.301   6.249 -0.0850 -0.2118 -0.3757
 1381SOL    HW1 5042   5.232   4.271   6.251  0.5300 -2.3780 -0.5633
 1381SOL    HW2 5043   5.351   4.329   6.156 -0.6390  0.8219 -0.2262
 1382SOL     OW 5044   5.719   5.926   6.764  0.0159  0.0947  0.1055
 1382SOL    HW1 5045   5.803   5.874   6.752 -0.3613 -0.3824 -0.5257
 1382SOL    HW2 5046   5.738   6.009   6.816  0.9332  0.1330 -0.2835
 1383SOL     OW 5047   1.195   1.151   6.377 -0.3339 -0.1271  0.6783
 1383SOL    HW1 5048   1.245   1.162   6.291 -2.0534 -1.3569 -0.5460
 1383SOL    HW2 5049   1.231   1.071   6.426 -0.2791 -0.2595  0.4247
 1384SOL     OW 5050   0.859   0.847   3.040 -0.2677 -0.1345  0.4347
 1384SOL    HW1 5051   0.784   0.906   3.009  0.6109 -0.3618 -2.4799
 1384SOL    HW2 5052   0.824   0.754   3.054 -0.7079 -0.0618 -0.1180
 1385SOL     OW 5053   1.959   1.552   4.172  0.6061  0.0939  0.4821
 1385SOL    HW1 5054   2.058   1.559   4.158  0.4136  0.0741 -1.0169
 1385SOL    HW2 5055   1.930   1.458   4.158  0.4990 -0.1228  1.9763
 1386SOL     OW 5056   1.604   1.057   5.231  0.7721 -0.0428 -0.4228
 1386SOL    HW1 5057   1.553   0.999   5.295 -1.2435  1.7579 -0.3013
 1386SOL    HW2 5058   1.658   1.123   5.283 -1.4282  1.9012 -0.4496
 1387SOL     OW 5059   2.622   0.830   4.201 -0.1923  0.6719 -0.0517
 1387SOL    HW1 5060   2.606   0.732   4.189 -0.1271  0.3375  2.1819
 1387SOL    HW2 5061   2.606   0.877   4.115 -0.7109 -1.2329 -1.0517
 1388SOL     OW 5062   6.227   5.899   3.892  0.2857 -0.2686  0.0448
 1388SOL    HW1 5063   6.217   5.996   3.913  0.6185 -0.1110 -0.5297
 1388SOL    HW2 5064   6.285   5.856   3.962  1.0091  0.1616 -0.2878
 1389SOL     OW 5065   1.341   1.665   3.822 -0.1574 -0.7769 -0.3543
 1389SOL    HW1 5066   1.261   1.726   3.820  1.6723  1.8961  1.5243
 1389SOL    HW2 5067   1.421   1.713   3.787  1.1925 -2.4413  0.2969
 1390SOL     OW 5068   6.623   1.528   5.571 -0.1396  0.0890  0.2619
 1390SOL    HW1 5069   6.618   1.499   5.666  0.2520 -1.9735 -0.2976
 1390SOL    HW2 5070   6.542   1.497   5.522  0.6711 -0.8085 -0.5474
 1391SOL     OW 5071   5.250   2.600   5.631  0.1821 -0.3993 -0.3136
 1391SOL    HW1 5072   5.301   2.677   5.670  2.6908 -2.2165  0.1772
 1391SOL    HW2 5073   5.178   2.635   5.571  0.5338  2.3263  0.7160
 1392SOL     OW 5074   5.146   6.104   0.674  0.2775  0.0149  0.6833
 1392SOL    HW1 5075   5.163   6.054   0.759 -2.6616 -0.7366  0.9419
 1392SOL    HW2 5076   5.103   6.191   0.695  2.5092  1.3356  0.0592
 1393SOL     OW 5077   5.182   4.170   6.618  0.2593 -0.1237  0.1646
 1393SOL    HW1 5078   5.135   4.235   6.678 -1.7079 -1.4273  0.1343
 1393SOL    HW2 5079   5.184   4.206   6.525 -0.5240  0.0517  0.2083
 1394SOL     OW 5080   4.978   6.370   4.540 -0.1093  0.1788 -0.2859
 1394SOL    HW1 5081   5.035   6.317   4.478  1.3906  1.9821 -0.5306
 1394SOL    HW2 5082   5.009   6.356   4.634  0.2641  0.5623 -0.3475
 1395SOL     OW 5083   1.666   3.010   1.659  0.0307  0.6374 -0.4708
 1395SOL    HW1 5084   1.598   2.987   1.590 -0.3637 -1.7226  0.6081
 1395SOL    HW2 5085   1.644   3.099   1.699 -0.8514  1.1323 -1.9682
 1396SOL     OW 5086   0.468   0.445   3.391  0.3559 -0.3422  0.1608
 1396SOL    HW1 5087   0.484   0.346   3.394  0.3581 -0.3091  1.6437
 1396SOL    HW2 5088   0.387   0.468   3.444 -1.4640  0.1593 -2.6254
 1397SOL     OW 5089   0.462   6.650   4.912  0.4225 -0.3505 -0.4763
 1397SOL    HW1 5090   0.430   6.706   4.837  1.1024  0.5381 -0.1220
 1397SOL    HW2 5091   0.489   6.560   4.878  0.3595 -0.0887 -1.2255
 1398SOL     OW 5092   1.162   0.485   6.523 -0.4385 -0.5986 -0.2643
 1398SOL    HW1 5093   1.217   0.521   6.447 -0.4223 -1.8685 -0.8848
 1398SOL    HW2 5094   1.087   0.429   6.486 -2.3430  1.2692  0.5412
 1399SOL     OW 5095   6.069   0.427   1.430 -0.2266  0.0659 -0.3360
 1399SOL    HW1 5096   6.025   0.512   1.400 -0.7156 -0.4969 -1.2624
 1399SOL    HW2 5097   6.048   0.412   1.526 -0.8334  0.5749 -0.3735
 1400SOL     OW 5098   0.242   1.330   4.054 -0.4629  0.1384 -0.6533
 1400SOL    HW1 5099   0.249   1.422   4.015 -1.2466  0.5461  0.1170
 1400SOL    HW2 5100   0.157   1.323   4.107 -2.4642 -2.2403 -3.8127
 1401SOL     OW 5101   5.318   6.972   4.095  0.8445 -0.4519  0.4919
 1401SOL    HW1 5102   5.356   7.061   4.119  0.9426 -0.4049  0.1581
 1401SOL    HW2 5103   5.363   6.937   4.013  1.6013 -1.3121  1.2394
 1402SOL     OW 5104   6.077   4.649   6.047  0.0841  0.1512  0.3473
 1402SOL    HW1 5105   6.145   4.628   5.977 -0.9088 -0.4389 -0.4761
 1402SOL    HW2 5106   6.083   4.583   6.121 -0.2131 -0.4840 -0.1831
 1403SOL     OW 5107   2.245   2.441   7.022 -0.8218  0.2755  0.4208
 1403SOL    HW1 5108   2.272   2.532   6.992 -1.8304 -0.3279 -2.8088
 1403SOL    HW2 5109   2.158   2.416   6.978  0.5009 -3.0324 -0.6796
 1404SOL     OW 5110   4.881   0.182   1.605  0.3286 -0.1165  0.5781
 1404SOL    HW1 5111   4.948   0.115   1.635 -0.5610 -1.2068  0.1784
 1404SOL    HW2 5112   4.854   0.239   1.682  0.5399 -0.7097  1.0961
 1405SOL     OW 5113   0.180   2.006   0.662  0.3537 -0.3381  0.1830
 1405SOL    HW1 5114   0.179   2.063   0.744 -0.0058 -1.6572  1.1319
 1405SOL    HW2 5115   0.098   1.949   0.660 -0.5616  0.9672 -2.0736
 1406SOL     OW 5116   1.836   4.112   2.819 -0.6960  0.7548  0.0098
 1406SOL    HW1 5117   1.832   4.014   2.841 -0.8887  0.5640 -0.8315
 1406SOL    HW2 5118   1.760   4.136   2.759  0.4052  1.0092 -1.3257
 1407SOL     OW 5119   0.851   2.796   2.295 -0.4335 -0.3171  0.0520
 1407SOL    HW1 5120   0.895   2.775   2.208 -0.7981 -0.8126 -0.0166
 1407SOL    HW2 5121   0.874   2.725   2.362  0.6355  0.5635  0.6485
 1408SOL     OW 5122   0.992   5.602   1.049  0.2268  0.5527 -0.2134
 1408SOL    HW1 5123   0.917   5.668   1.049  0.8270  1.4629  3.3068
 1408SOL    HW2 5124   0.977   5.534   1.121  2.4631  0.3807  0.1709
 1409SOL     OW 5125   6.640   0.885   4.342 -0.0741  0.2319 -0.1995
 1409SOL    HW1 5126   6.732   0.924   4.339 -0.5664  1.5951  1.3051
 1409SOL    HW2 5127   6.586   0.931   4.412 -1.3411 -1.8209  0.2673
 1410SOL     OW 5128   3.055   2.283   0.694  0.2704  0.1244 -0.2427
 1410SOL    HW1 5129   3.098   2.361   0.649  0.6438  1.1403  1.7349
 1410SOL    HW2 5130   3.096   2.271   0.785 -0.9356 -1.3613  0.1460
 1411SOL     OW 5131   3.505   6.804   7.012 -0.3407  0.0158  0.2754
 1411SOL    HW1 5132   3.432   6.747   7.050 -1.0046 -0.3968 -1.5599
 1411SOL    HW2 5133   3.593   6.756   7.025 -0.9612 -1.8989 -1.9382
 1412SOL     OW 5134   0.495   4.347   1.077  0.0677 -0.2129 -0.6671
 1412SOL    HW1 5135   0.424   4.290   1.121 -0.3487  1.7871  1.4951
 1412SOL    HW2 5136   0.561   4.376   1.146  0.4263  1.6373 -1.7186
 1413SOL     OW 5137   1.601   0.861   4.220  0.4188  0.0368 -0.0437
 1413SOL    HW1 5138   1.636   0.876   4.128  2.4577 -0.4938  0.5965
 1413SOL    HW2 5139   1.611   0.945   4.273  0.4637 -0.0338  0.0602
 1414SOL     OW 5140   0.616   3.492   2.506 -0.7977 -0.8058  0.0958
 1414SOL    HW1 5141   0.616   3.491   2.406  0.3196  0.0778  0.0689
 1414SOL    HW2 5142   0.526   3.520   2.540 -0.5102  1.2842 -0.7331
 1415SOL     OW 5143   3.233   1.238   4.269  0.4232  0.4357  0.2013
 1415SOL    HW1 5144   3.239   1.312   4.336  1.6531 -0.0821  0.6758
 1415SOL    HW2 5145   3.260   1.273   4.179  1.8610  0.3754  0.5854
 1416SOL     OW 5146   3.941   1.782   3.910 -0.2242 -0.5482  0.2447
 1416SOL    HW1 5147   3.874   1.730   3.964  1.4936 -1.4162  1.6840
 1416SOL    HW2 5148   4.007   1.718   3.870  0.2483  0.3475 -0.4237
 1417SOL     OW 5149   2.561   3.221   0.689 -0.7976  0.6697 -0.1496
 1417SOL    HW1 5150   2.648   3.171   0.692 -1.7698 -1.0502  1.5162
 1417SOL    HW2 5151   2.519   3.208   0.599  0.3672  1.0232 -0.7628
 1418SOL     OW 5152   2.502   1.961   1.339  0.2780  0.0518  0.7123
 1418SOL    HW1 5153   2.470   2.047   1.380 -2.8358  0.0565 -1.3621
 1418SOL    HW2 5154   2.425   1.897   1.333  1.6666 -1.5581 -1.0110
 1419SOL     OW 5155   1.838   4.033   3.346 -0.2248 -0.3831 -0.0108
 1419SOL    HW1 5156   1.796   3.975   3.416  0.6719  0.2928  1.1179
 1419SOL    HW2 5157   1.766   4.085   3.299 -0.8472 -0.9397  0.2971
 1420SOL     OW 5158   4.390   4.697   4.558  0.0092  0.1447 -0.0425
 1420SOL    HW1 5159   4.413   4.609   4.599 -0.0706  0.7396  1.3047
 1420SOL    HW2 5160   4.295   4.695   4.526  0.2502 -0.5095 -0.7621
 1421SOL     OW 5161   0.100   5.661   5.300  0.1011  0.7352 -0.1691
 1421SOL    HW1 5162   0.069   5.586   5.358  0.4569  0.3004 -0.5412
 1421SOL    HW2 5163   0.023   5.722   5.281 -0.5165 -0.2743 -0.9908
 1422SOL     OW 5164   2.936   4.255   5.281 -0.4724  0.4911 -0.1521
 1422SOL    HW1 5165   2.949   4.346   5.240 -0.5060  0.2336 -0.7540
 1422SOL    HW2 5166   2.844   4.222   5.258 -0.6690  0.5452  0.5528
 1423SOL     OW 5167   4.594   0.880   5.370  0.1171 -0.4227  0.0583
 1423SOL    HW1 5168   4.502   0.892   5.333  0.3119  0.5699 -0.1347
 1423SOL    HW2 5169   4.654   0.951   5.334  0.6529 -0.2692  1.2157
 1424SOL     OW 5170   0.354   3.668   5.623  0.6888  0.2606  0.3179
 1424SOL    HW1 5171   0.418   3.674   5.547 -0.2910  0.1511 -0.5326
 1424SOL    HW2 5172   0.279   3.733   5.609 -0.2923 -0.8095  0.4205
 1425SOL     OW 5173   3.780   5.884   5.045  0.3753  0.0815  0.0951
 1425SOL    HW1 5174   3.879   5.886   5.057  0.3585  0.7881  0.1664
 1425SOL    HW2 5175   3.758   5.912   4.952  0.3072 -1.5006 -0.3864
 1426SOL     OW 5176   1.421   2.508   5.032 -0.1502 -0.3131 -0.1706
 1426SOL    HW1 5177   1.356   2.433   5.044 -0.6907  0.3262  1.0388
 1426SOL    HW2 5178   1.510   2.470   5.003 -0.8017 -1.2664 -1.0194
 1427SOL     OW 5179   2.976   0.327   3.844 -0.3255 -0.2590 -0.4370
 1427SOL    HW1 5180   2.920   0.244   3.852 -1.7884  0.8021  0.9881
 1427SOL    HW2 5181   3.046   0.327   3.916  0.6469 -0.9140 -1.3488
 1428SOL     OW 5182   0.384   3.585   2.615  0.2465  0.1165 -0.7917
 1428SOL    HW1 5183   0.374   3.535   2.700  3.2087 -0.9578 -0.9618
 1428SOL    HW2 5184   0.313   3.656   2.609 -1.6427 -1.4661  1.2703
 1429SOL     OW 5185   6.635   1.982   5.725 -0.2275  0.9605 -0.2772
 1429SOL    HW1 5186   6.627   2.044   5.646  0.7350 -0.0924 -1.2483
 1429SOL    HW2 5187   6.730   1.978   5.754 -0.1440 -0.6038 -0.6994
 1430SOL     OW 5188   4.743   5.299   3.397  0.3593  0.5364 -0.0466
 1430SOL    HW1 5189   4.842   5.308   3.382  0.1477  0.9914 -1.2801
 1430SOL    HW2 5190   4.703   5.390   3.407 -0.0619  0.3994 -0.4663
 1431SOL     OW 5191   2.834   1.079   5.843 -0.1513 -0.0452 -0.4156
 1431SOL    HW1 5192   2.815   0.992   5.797  0.0595 -0.5665  0.4658
 1431SOL    HW2 5193   2.771   1.149   5.809 -1.2711 -0.8875 -0.1188
 1432SOL     OW 5194   0.335   2.623   1.464 -1.0915 -0.1993 -0.1410
 1432SOL    HW1 5195   0.259   2.573   1.504 -2.7265  2.4852  0.3950
 1432SOL    HW2 5196   0.307   2.718   1.448  1.9316  0.7084 -0.6514
 1433SOL     OW 5197   3.665   0.175   4.149  0.3132 -0.2083  0.3571
 1433SOL    HW1 5198   3.726   0.207   4.221  0.5520  0.2537 -0.0448
 1433SOL    HW2 5199   3.665   0.241   4.073 -0.2153 -0.5047  0.0928
 1434SOL     OW 5200   6.377   1.689   5.585 -0.4802 -0.0942 -0.6030
 1434SOL    HW1 5201   6.359   1.743   5.667 -1.1685 -1.0932 -0.0758
 1434SOL    HW2 5202   6.467   1.646   5.593  0.0244  0.8696 -0.9776
 1435SOL     OW 5203   6.426   0.553   4.246  0.7613 -0.3875 -0.7355
 1435SOL    HW1 5204   6.431   0.642   4.200 -0.8092  0.0126 -0.1898
 1435SOL    HW2 5205   6.409   0.482   4.178  0.7685 -0.1070 -1.0361
 1436SOL     OW 5206   5.964   2.971   6.329 -0.7653  0.5808 -0.1985
 1436SOL    HW1 5207   5.925   2.897   6.275 -0.7637  0.4827 -0.0630
 1436SOL    HW2 5208   5.973   3.053   6.271 -0.8462  0.5018 -0.3225
 1437SOL     OW 5209   3.879   0.997   4.511  0.2922  0.3219  0.4682
 1437SOL    HW1 5210   3.912   0.908   4.480 -0.9879  0.7464 -2.5482
 1437SOL    HW2 5211   3.937   1.069   4.473  0.4181  0.8432  1.6122
 1438SOL     OW 5212   3.404   1.170   2.935 -0.1066  0.8075  0.1189
 1438SOL    HW1 5213   3.395   1.245   2.870  1.5153  2.9952  2.1985
 1438SOL    HW2 5214   3.319   1.118   2.939 -1.3403  2.5933 -1.3398
 1439SOL     OW 5215   2.515   4.743   5.496  0.2357 -0.1519 -0.2378
 1439SOL    HW1 5216   2.418   4.717   5.493  0.1800 -0.3038  1.4821
 1439SOL    HW2 5217   2.569   4.675   5.447 -0.3792 -1.0432  0.2735
 1440SOL     OW 5218   3.932   3.951   3.956 -0.8480 -0.8845 -0.6069
 1440SOL    HW1 5219   3.888   3.968   4.044  0.0939  0.1516 -0.3043
 1440SOL    HW2 5220   3.868   3.969   3.882 -2.0909 -3.0981 -0.1497
 1441SOL     OW 5221   6.554   4.075   3.006  0.7311  0.3320  0.3399
 1441SOL    HW1 5222   6.529   3.983   2.978  0.1783  0.6384 -0.1956
 1441SOL    HW2 5223   6.493   4.105   3.080 -0.7210  1.1679 -1.1227
 1442SOL     OW 5224   5.117   4.514   1.471 -0.5445 -0.7387 -0.0491
 1442SOL    HW1 5225   5.094   4.439   1.532 -0.3825 -0.2937  0.5658
 1442SOL    HW2 5226   5.063   4.595   1.496  1.5320  0.3052  1.3524
 1443SOL     OW 5227   0.012   6.059   4.220 -0.1306 -0.3721  0.1884
 1443SOL    HW1 5228   0.063   6.132   4.266 -0.2963  0.6992 -1.2387
 1443SOL    HW2 5229  -0.013   6.089   4.128 -3.3635 -0.8499  0.8003
 1444SOL     OW 5230   3.653   6.448   3.521  0.0125  0.5575 -0.0724
 1444SOL    HW1 5231   3.589   6.421   3.592 -0.2406  0.3862 -0.3612
 1444SOL    HW2 5232   3.738   6.480   3.563  0.4042 -0.8699  0.2949
 1445SOL     OW 5233   6.074   4.623   3.040 -0.3132 -0.0348 -0.7414
 1445SOL    HW1 5234   6.070   4.621   2.940  0.6555 -1.6358 -0.7764
 1445SOL    HW2 5235   6.019   4.549   3.077 -1.0901  0.8719 -0.0517
 1446SOL     OW 5236   5.159   3.184   6.805  0.0726  0.1582  0.6312
 1446SOL    HW1 5237   5.170   3.194   6.904  0.7427 -3.6625  1.0803
 1446SOL    HW2 5238   5.062   3.168   6.784 -0.0513  0.8383  0.6539
 1447SOL     OW 5239   0.182   0.820   6.226 -0.4950  0.8448 -0.3845
 1447SOL    HW1 5240   0.099   0.793   6.179  0.0731  1.0958 -1.5662
 1447SOL    HW2 5241   0.226   0.894   6.176 -0.0005  1.2998  0.6917
 1448SOL     OW 5242   6.269   3.522   0.737  0.0761  0.0216  0.3418
 1448SOL    HW1 5243   6.204   3.468   0.682  0.6411 -0.2371 -0.0814
 1448SOL    HW2 5244   6.305   3.597   0.681 -0.6778  0.8327  0.9172
 1449SOL     OW 5245   5.933   6.574   6.979  0.4283 -0.0287 -0.3641
 1449SOL    HW1 5246   5.970   6.656   6.935  0.9596 -1.2707 -2.3955
 1449SOL    HW2 5247   5.885   6.518   6.911  0.1840 -1.4621  0.9248
 1450SOL     OW 5248   5.927   3.567   2.154  0.4086  0.3825 -0.4902
 1450SOL    HW1 5249   5.851   3.502   2.153 -0.1306  0.9727 -2.2578
 1450SOL    HW2 5250   5.892   3.660   2.158  1.0815  0.6326 -0.2484
 1451SOL     OW 5251   2.887   6.599   3.025 -0.0788  0.5681  0.0058
 1451SOL    HW1 5252   2.984   6.595   3.051  0.1463 -0.4288 -0.9032
 1451SOL    HW2 5253   2.877   6.566   2.931 -1.3012  0.6851  0.0845
 1452SOL     OW 5254   6.015   6.825   4.168 -0.0286 -0.2349  0.0811
 1452SOL    HW1 5255   6.044   6.894   4.102 -1.7940 -0.3663 -0.8798
 1452SOL    HW2 5256   6.005   6.868   4.258 -0.4473  0.6221 -0.3616
 1453SOL     OW 5257   5.819   1.995   4.647 -0.3855 -0.0262  0.1034
 1453SOL    HW1 5258   5.813   2.076   4.590  0.0268  0.3722  0.6143
 1453SOL    HW2 5259   5.728   1.968   4.678 -0.5809 -0.0907 -0.5225
 1454SOL     OW 5260   6.784   3.706   0.941  0.1777 -0.2503 -0.1177
 1454SOL    HW1 5261   6.710   3.747   0.887 -0.2018 -0.0301  0.5701
 1454SOL    HW2 5262   6.828   3.776   0.997  2.3434  0.0918 -2.0895
 1455SOL     OW 5263   0.264   0.457   0.834 -0.0451 -0.0634 -0.2003
 1455SOL    HW1 5264   0.307   0.473   0.923  1.9427 -1.8701 -0.7857
 1455SOL    HW2 5265   0.164   0.468   0.843  0.1014 -0.3330  2.2496
 1456SOL     OW 5266   6.970   0.346   5.911  0.1285 -0.4185  0.5148
 1456SOL    HW1 5267   7.047   0.300   5.956  0.0165 -1.2070 -0.0927
 1456SOL    HW2 5268   6.910   0.278   5.869  0.1669  0.2949 -0.7329
 1457SOL     OW 5269   1.758   5.938   4.010  0.2951  0.0272  0.7518
 1457SOL    HW1 5270   1.811   5.906   3.931  0.7092 -2.0516  1.8045
 1457SOL    HW2 5271   1.661   5.921   3.994  0.3173  0.1362  0.4821
 1458SOL     OW 5272   4.903   4.145   0.971 -0.7198 -0.3637 -0.4027
 1458SOL    HW1 5273   4.923   4.127   0.875 -1.4513  0.6606 -0.7636
 1458SOL    HW2 5274   4.886   4.243   0.984  1.5516 -0.1185  1.1864
 1459SOL     OW 5275   1.764   5.782   1.264  0.0755 -0.4540 -0.1503
 1459SOL    HW1 5276   1.719   5.820   1.183 -0.2237  1.9465  1.0547
 1459SOL    HW2 5277   1.859   5.761   1.242 -0.2971 -0.9764 -1.4088
 1460SOL     OW 5278   5.082   6.727   6.144  0.3362  0.3142 -0.0866
 1460SOL    HW1 5279   5.073   6.700   6.048  0.5434 -0.0570 -0.0019
 1460SOL    HW2 5280   5.055   6.823   6.154 -1.0997 -0.0412 -0.2753
 1461SOL     OW 5281   1.432   4.240   2.798 -0.1744 -0.2301  0.0910
 1461SOL    HW1 5282   1.447   4.339   2.808  0.1048 -0.3654  1.1267
 1461SOL    HW2 5283   1.502   4.202   2.738 -1.2089  0.4386 -1.6170
 1462SOL     OW 5284   6.572   0.444   0.989  0.0709 -0.2024 -0.2713
 1462SOL    HW1 5285   6.633   0.389   0.931 -0.2317 -0.8202 -0.0141
 1462SOL    HW2 5286   6.552   0.394   1.073  0.4430  0.6550  0.3397
 1463SOL     OW 5287   1.273   6.826   4.765  0.1439 -0.1159  0.0776
 1463SOL    HW1 5288   1.345   6.757   4.754  1.6211  1.7383 -3.8379
 1463SOL    HW2 5289   1.297   6.887   4.841  0.9418 -1.4430  0.9346
 1464SOL     OW 5290   0.105   6.684   0.225 -0.3471  0.7717 -0.5753
 1464SOL    HW1 5291   0.111   6.633   0.139 -1.3059 -0.3086 -0.0343
 1464SOL    HW2 5292   0.009   6.704   0.246 -0.0535  2.0003 -0.2912
 1465SOL     OW 5293   2.920   6.082   3.081 -0.1798 -0.2498  0.4927
 1465SOL    HW1 5294   2.971   6.000   3.108  0.7397  0.3254  0.5581
 1465SOL    HW2 5295   2.913   6.143   3.160 -0.6720 -0.1670  0.3858
 1466SOL     OW 5296   6.261   0.334   6.830 -0.0955  0.1851  0.2260
 1466SOL    HW1 5297   6.190   0.323   6.760  0.9697 -0.6444 -0.7555
 1466SOL    HW2 5298   6.226   0.302   6.918 -1.3302  0.9005  0.0162
 1467SOL     OW 5299   3.654   6.684   1.142 -0.8758 -0.4721 -0.2696
 1467SOL    HW1 5300   3.557   6.670   1.162 -0.7499 -0.1165  0.6250
 1467SOL    HW2 5301   3.704   6.693   1.228  0.0402 -1.2382 -0.7130
 1468SOL     OW 5302   5.175   5.914   4.281 -0.3511  0.3449 -0.0348
 1468SOL    HW1 5303   5.089   5.937   4.236  0.6565  0.6964 -1.8876
 1468SOL    HW2 5304   5.212   5.830   4.241 -0.8650 -1.0877  2.2799
 1469SOL     OW 5305   2.026   6.491   1.683 -0.4635 -0.1882 -0.0080
 1469SOL    HW1 5306   2.025   6.533   1.592 -1.6538 -0.9638 -0.3712
 1469SOL    HW2 5307   2.097   6.534   1.738 -0.1651  0.7572 -1.0856
 1470SOL     OW 5308   1.579   0.636   1.631 -0.7519  0.1736  0.0159
 1470SOL    HW1 5309   1.677   0.657   1.640 -0.8690  1.1850 -0.7642
 1470SOL    HW2 5310   1.538   0.703   1.569 -1.9819 -0.1300  0.4946
 1471SOL     OW 5311   0.904   1.529   6.459  0.6273  0.0410  0.7540
 1471SOL    HW1 5312   0.987   1.486   6.423  0.3628 -0.9683  1.3150
 1471SOL    HW2 5313   0.918   1.628   6.465  1.7128 -0.0939  0.6466
 1472SOL     OW 5314   4.995   5.641   5.901  0.8408 -0.3531 -0.6251
 1472SOL    HW1 5315   4.933   5.572   5.938 -0.0356 -0.6611 -2.5409
 1472SOL    HW2 5316   4.942   5.709   5.850  1.7679  1.3418  0.6044
 1473SOL     OW 5317   0.221   6.746   3.991 -0.2570 -0.6133  0.2711
 1473SOL    HW1 5318   0.230   6.824   4.054 -0.7838 -0.4988  0.2054
 1473SOL    HW2 5319   0.312   6.713   3.967  0.0355  1.0109 -0.9816
 1474SOL     OW 5320   5.653   0.799   4.436  0.1157  0.7939 -0.1737
 1474SOL    HW1 5321   5.565   0.795   4.484  0.1959 -1.2655 -0.0787
 1474SOL    HW2 5322   5.684   0.705   4.416  2.4460  1.4423  0.0991
 1475SOL     OW 5323   6.719   1.923   1.813  0.1428  0.1059  0.0722
 1475SOL    HW1 5324   6.800   1.907   1.870 -0.9555 -0.6060  1.4794
 1475SOL    HW2 5325   6.660   1.843   1.816 -1.4508  1.2615  0.4607
 1476SOL     OW 5326   0.524   6.766   1.349  0.0462  0.4340 -0.1519
 1476SOL    HW1 5327   0.579   6.849   1.361  1.4532 -0.5463  0.6058
 1476SOL    HW2 5328   0.569   6.705   1.283 -0.4621 -0.1249  0.0040
 1477SOL     OW 5329   1.948   1.445   4.775  0.1850 -0.2757 -0.0597
 1477SOL    HW1 5330   2.043   1.438   4.745 -0.1745  0.0234 -1.2913
 1477SOL    HW2 5331   1.945   1.441   4.875  1.5220  0.1399  0.0143
 1478SOL     OW 5332   4.174   6.208   6.464  0.1290  0.4000  0.3250
 1478SOL    HW1 5333   4.195   6.304   6.485 -0.4501  0.6864 -0.3812
 1478SOL    HW2 5334   4.103   6.175   6.527  0.3865  0.4045  0.6221
 1479SOL     OW 5335   0.827   4.684   1.716 -0.3209 -0.6474 -0.5643
 1479SOL    HW1 5336   0.801   4.756   1.780  1.4202 -0.8921  0.4927
 1479SOL    HW2 5337   0.808   4.595   1.756 -1.3372 -0.7994 -1.3595
 1480SOL     OW 5338   3.129   1.507   6.815  0.9849  0.8279  0.0805
 1480SOL    HW1 5339   3.043   1.457   6.810  1.4591  0.0846 -2.7573
 1480SOL    HW2 5340   3.160   1.512   6.910 -1.4533 -0.1034  0.9940
 1481SOL     OW 5341   6.081   0.050   4.342  0.2194 -0.0241 -0.1824
 1481SOL    HW1 5342   6.041   0.131   4.298 -0.0981  0.3474  0.7651
 1481SOL    HW2 5343   6.168   0.076   4.384  0.3524 -0.2984 -0.2875
 1482SOL     OW 5344   5.594   2.741   0.876  0.3895  0.4553  0.0467
 1482SOL    HW1 5345   5.595   2.784   0.967  1.2338  2.7165 -0.9527
 1482SOL    HW2 5346   5.626   2.807   0.808 -1.8082 -0.6033 -2.1644
 1483SOL     OW 5347   2.240   2.411   4.279  0.3557  0.2042 -0.0460
 1483SOL    HW1 5348   2.226   2.480   4.351 -1.6292  0.1684 -0.3523
 1483SOL    HW2 5349   2.317   2.439   4.221  1.3203  0.7657  1.4415
 1484SOL     OW 5350   0.019   4.740   2.674 -0.1866  0.4272 -0.2848
 1484SOL    HW1 5351   0.018   4.799   2.755  1.1348  1.2544 -0.8352
 1484SOL    HW2 5352  -0.043   4.778   2.605 -0.4532  0.3579 -0.0825
 1485SOL     OW 5353   4.240   1.571   1.810  0.0088 -0.5902 -0.3925
 1485SOL    HW1 5354   4.304   1.539   1.741  0.2978  0.5704 -0.6770
 1485SOL    HW2 5355   4.207   1.662   1.786  2.0932  1.0193  2.2746
 1486SOL     OW 5356   4.890   3.849   3.786 -0.4372  0.7080 -0.2186
 1486SOL    HW1 5357   4.850   3.786   3.852  1.0270  1.0623  1.0563
 1486SOL    HW2 5358   4.951   3.799   3.725  1.0952  0.8919  1.0936
 1487SOL     OW 5359   0.708   2.827   5.940  0.0251  0.0260 -0.1100
 1487SOL    HW1 5360   0.786   2.843   6.001  0.0641 -0.0712 -0.1343
 1487SOL    HW2 5361   0.706   2.731   5.914  0.1796  0.1305 -0.5035
 1488SOL     OW 5362   4.565   1.805   2.897  0.3200 -0.2794  0.3908
 1488SOL    HW1 5363   4.484   1.859   2.874  0.2123 -1.1886 -1.5658
 1488SOL    HW2 5364   4.595   1.828   2.989 -1.6952  0.6500  0.8791
 1489SOL     OW 5365   2.454   5.281   5.557  0.0954  0.0789  0.2583
 1489SOL    HW1 5366   2.467   5.183   5.544 -0.7065  0.1131 -1.0057
 1489SOL    HW2 5367   2.396   5.296   5.637  0.9994 -0.4128  1.0320
 1490SOL     OW 5368   2.434   2.671   0.973 -0.1320 -0.3481 -0.1776
 1490SOL    HW1 5369   2.391   2.617   0.900 -0.1613 -0.6269  0.0473
 1490SOL    HW2 5370   2.406   2.637   1.062  0.0976 -0.1613 -0.0309
 1491SOL     OW 5371   6.384   4.814   2.799 -0.0293 -0.1075 -0.0730
 1491SOL    HW1 5372   6.339   4.811   2.710  0.6196 -3.2061 -0.4146
 1491SOL    HW2 5373   6.477   4.849   2.788  0.8300 -2.5245 -1.1106
 1492SOL     OW 5374   4.821   1.520   2.028 -0.1532  0.7516  0.7592
 1492SOL    HW1 5375   4.833   1.487   2.122  2.0518 -3.0416 -0.6449
 1492SOL    HW2 5376   4.767   1.454   1.976  2.1135  0.5946 -1.5875
 1493SOL     OW 5377   4.400   0.265   5.547 -0.1880 -0.4118 -0.4015
 1493SOL    HW1 5378   4.396   0.365   5.542  1.1703 -0.3705 -1.1736
 1493SOL    HW2 5379   4.329   0.226   5.490 -0.9782  0.0996  0.2034
 1494SOL     OW 5380   4.197   2.168   1.185 -0.4536 -0.5813  0.5338
 1494SOL    HW1 5381   4.174   2.241   1.250 -1.3365 -1.1356  0.8589
 1494SOL    HW2 5382   4.160   2.191   1.095 -1.7295 -1.1303  0.8899
 1495SOL     OW 5383   1.637   1.517   3.379  0.2483  0.2195 -0.6134
 1495SOL    HW1 5384   1.546   1.558   3.385  0.4862  0.7566 -0.6021
 1495SOL    HW2 5385   1.677   1.536   3.290  0.1252 -0.5026 -0.8265
 1496SOL     OW 5386   2.008   5.883   2.654 -0.4411 -0.3717 -0.1161
 1496SOL    HW1 5387   1.919   5.929   2.655 -1.4540 -2.1921 -0.8525
 1496SOL    HW2 5388   2.065   5.924   2.583 -0.6139  0.9201  0.4653
 1497SOL     OW 5389   1.305   3.087   2.587  0.5693  0.0598  0.0921
 1497SOL    HW1 5390   1.258   3.096   2.675 -0.3975 -1.1477 -0.2852
 1497SOL    HW2 5391   1.264   3.150   2.521 -1.1222 -1.5147 -0.4502
 1498SOL     OW 5392   2.113   5.672   0.170  0.0789  0.3626  0.2432
 1498SOL    HW1 5393   2.145   5.767   0.177 -0.1592  0.3755  1.5742
 1498SOL    HW2 5394   2.189   5.610   0.191 -0.3416  0.3570  1.9473
 1499SOL     OW 5395   2.150   3.362   4.313  0.2775 -0.1001  0.1692
 1499SOL    HW1 5396   2.062   3.315   4.301 -0.6765  1.5978  0.2520
 1499SOL    HW2 5397   2.214   3.300   4.358 -0.7429 -1.5091 -0.2318
 1500SOL     OW 5398   0.025   6.136   0.808  0.2632 -0.4241  0.0149
 1500SOL    HW1 5399   0.066   6.117   0.719 -0.1795 -0.5381 -0.1661
 1500SOL    HW2 5400  -0.041   6.211   0.800 -1.4777 -1.9074 -0.2420
 1501SOL     OW 5401   4.383   0.824   5.784 -0.3354 -0.2967 -0.2587
 1501SOL    HW1 5402   4.370   0.888   5.860  1.6045 -1.6043  1.2485
 1501SOL    HW2 5403   4.361   0.731   5.814  0.0576 -0.7868 -1.4261
 1502SOL     OW 5404   6.616   6.610   6.380  0.0606 -0.2002  0.3065
 1502SOL    HW1 5405   6.593   6.707   6.391 -2.7259 -0.6612 -0.7094
 1502SOL    HW2 5406   6.654   6.595   6.289 -0.0322 -0.1474  0.2585
 1503SOL     OW 5407   1.570   1.617   1.243  0.3526 -0.1849 -0.1538
 1503SOL    HW1 5408   1.503   1.606   1.169 -0.3208 -0.4760  0.4949
 1503SOL    HW2 5409   1.523   1.635   1.329  1.1597  1.0660  0.0620
 1504SOL     OW 5410   3.282   6.495   5.432  0.6618 -0.0093 -0.0628
 1504SOL    HW1 5411   3.302   6.435   5.355 -0.7533 -0.5408 -0.0450
 1504SOL    HW2 5412   3.228   6.573   5.400 -0.9585 -0.8419  0.5428
 1505SOL     OW 5413   6.622   6.559   6.646 -0.1186  0.3487 -0.0293
 1505SOL    HW1 5414   6.592   6.651   6.671  1.8787  0.8226  0.8296
 1505SOL    HW2 5415   6.654   6.559   6.551 -0.5416  0.4182 -0.1743
 1506SOL     OW 5416   6.550   4.918   3.141 -0.6426  0.3654  0.1546
 1506SOL    HW1 5417   6.643   4.925   3.105 -1.1326  0.7286 -1.1066
 1506SOL    HW2 5418   6.503   4.842   3.096 -0.9477  0.1596  0.8104
 1507SOL     OW 5419   2.702   1.988   5.635 -0.0386  0.5243 -0.2811
 1507SOL    HW1 5420   2.673   1.899   5.598 -0.6948  0.5844  0.0716
 1507SOL    HW2 5421   2.627   2.028   5.688  0.1477  1.4272 -0.6820
 1508SOL     OW 5422   4.547   6.671   1.096  0.3816 -0.3933  0.6261
 1508SOL    HW1 5423   4.469   6.656   1.035  0.3227 -0.1531  0.6418
 1508SOL    HW2 5424   4.513   6.682   1.190  0.2636  1.5132  0.4004
 1509SOL     OW 5425   6.340   0.611   6.025 -1.1942  0.2663 -0.3028
 1509SOL    HW1 5426   6.281   0.613   6.105  0.4643  0.5993  0.9671
 1509SOL    HW2 5427   6.358   0.516   5.999 -2.4290  0.1602 -0.8551
 1510SOL     OW 5428   4.417   2.021   4.931  0.3237 -0.2258 -0.2291
 1510SOL    HW1 5429   4.353   2.035   4.855 -0.3052  0.7097  0.4572
 1510SOL    HW2 5430   4.507   1.997   4.895  0.0079  0.1106 -1.2687
 1511SOL     OW 5431   1.329   3.779   0.328 -0.0545  0.2257  0.0551
 1511SOL    HW1 5432   1.429   3.783   0.323 -0.1245  0.6392 -1.4431
 1511SOL    HW2 5433   1.299   3.684   0.325  0.2806  0.0918  0.6304
 1512SOL     OW 5434   5.468   6.735   0.372 -0.1495  0.4904 -0.2654
 1512SOL    HW1 5435   5.527   6.807   0.337  1.3075 -1.0953 -1.2277
 1512SOL    HW2 5436   5.406   6.704   0.300  0.1002 -0.0469 -0.2611
 1513SOL     OW 5437   4.788   2.609   3.704  0.1677 -1.0129 -0.4586
 1513SOL    HW1 5438   4.798   2.509   3.697 -2.7870 -1.4988  0.7983
 1513SOL    HW2 5439   4.787   2.636   3.800  1.3672  0.3515 -0.7925
 1514SOL     OW 5440   0.292   2.339   3.961  0.9339  0.1030  0.4582
 1514SOL    HW1 5441   0.234   2.398   3.905 -2.1178 -1.0115  2.1314
 1514SOL    HW2 5442   0.338   2.394   4.030  0.5154  0.8816  0.1330
 1515SOL     OW 5443   6.689   1.618   4.014  0.4806 -0.1378 -0.1264
 1515SOL    HW1 5444   6.593   1.622   3.986  0.9213 -2.1727 -2.2654
 1515SOL    HW2 5445   6.701   1.546   4.082  0.7076 -1.0546 -1.1095
 1516SOL     OW 5446   0.691   6.823   0.408 -0.0501 -0.1740 -0.5842
 1516SOL    HW1 5447   0.743   6.752   0.360 -0.5595 -1.6779  0.9761
 1516SOL    HW2 5448   0.593   6.810   0.392 -0.1093  2.5240 -3.3464
 1517SOL     OW 5449   4.151   5.749   1.885 -0.5308  0.3038 -0.1807
 1517SOL    HW1 5450   4.167   5.831   1.829 -0.5397 -0.1210 -0.8268
 1517SOL    HW2 5451   4.192   5.761   1.975  0.9650  0.3663 -0.8342
 1518SOL     OW 5452   0.029   3.483   6.504  0.0111  0.1312  0.3588
 1518SOL    HW1 5453  -0.011   3.441   6.423 -2.3754 -0.6755  1.8374
 1518SOL    HW2 5454  -0.004   3.577   6.512 -1.3217 -0.3873  1.3341
 1519SOL     OW 5455   2.211   2.914   1.465 -0.0849  0.5033 -0.2374
 1519SOL    HW1 5456   2.310   2.902   1.451 -0.1206 -0.5142  0.2947
 1519SOL    HW2 5457   2.163   2.890   1.381 -0.0154 -1.3312  0.2036
 1520SOL     OW 5458   1.216   4.099   1.650 -0.0375  0.0256 -0.5774
 1520SOL    HW1 5459   1.176   4.191   1.658  0.6201  0.4196 -1.5251
 1520SOL    HW2 5460   1.309   4.107   1.614  0.2958 -0.9791  0.0435
 1521SOL     OW 5461   1.225   3.662   6.174 -0.0465 -0.0456 -0.2280
 1521SOL    HW1 5462   1.294   3.718   6.221  1.2548 -0.8600 -1.0823
 1521SOL    HW2 5463   1.211   3.578   6.226 -3.0620  1.5441  1.8369
 1522SOL     OW 5464   1.257   4.000   5.154 -0.3059 -0.1838  0.2481
 1522SOL    HW1 5465   1.321   3.955   5.091  2.8061  0.4649  2.6806
 1522SOL    HW2 5466   1.249   4.097   5.129 -0.2754 -0.2557 -0.0452
 1523SOL     OW 5467   4.458   1.941   1.640 -0.3066 -0.4939 -0.0339
 1523SOL    HW1 5468   4.384   1.902   1.696  0.1028  0.2646  1.0753
 1523SOL    HW2 5469   4.419   1.997   1.567 -0.8346  0.2689  0.8180
 1524SOL     OW 5470   2.544   2.113   2.019  0.2195  0.2573 -0.3941
 1524SOL    HW1 5471   2.458   2.069   1.994 -0.4749  1.4072 -0.1188
 1524SOL    HW2 5472   2.566   2.091   2.115  1.7307 -2.3198 -1.2146
 1525SOL     OW 5473   4.384   2.064   5.506 -0.4344  0.1173 -0.1347
 1525SOL    HW1 5474   4.427   2.147   5.541 -0.9187  0.1071  0.5187
 1525SOL    HW2 5475   4.298   2.088   5.461 -1.4361 -0.1600  1.5378
 1526SOL     OW 5476   6.426   0.102   6.664 -0.3157 -0.1254  0.3363
 1526SOL    HW1 5477   6.396   0.008   6.649  0.0516 -0.0106 -1.3239
 1526SOL    HW2 5478   6.522   0.111   6.638 -0.8443  1.1004 -1.4112
 1527SOL     OW 5479   2.221   0.986   4.411 -0.2402  0.3973  0.4679
 1527SOL    HW1 5480   2.223   1.060   4.344  1.2845 -0.1473 -0.1417
 1527SOL    HW2 5481   2.291   0.918   4.388 -0.9438 -0.7461  1.5682
 1528SOL     OW 5482   5.549   6.449   4.773 -0.5197 -0.3371  0.5595
 1528SOL    HW1 5483   5.578   6.354   4.769 -1.2261 -0.7107  2.7589
 1528SOL    HW2 5484   5.488   6.469   4.696 -1.1563 -1.9714  0.6043
 1529SOL     OW 5485   5.410   2.140   5.211 -0.0339  0.2776  0.1218
 1529SOL    HW1 5486   5.350   2.205   5.257  0.2990  0.3832  0.4101
 1529SOL    HW2 5487   5.503   2.151   5.244  0.0738 -0.1669 -0.0230
 1530SOL     OW 5488   2.456   6.050   1.740  0.6188  0.6893  0.0330
 1530SOL    HW1 5489   2.494   6.129   1.692 -0.4600 -0.0460 -2.1541
 1530SOL    HW2 5490   2.363   6.071   1.769  0.7531  0.6165  0.5297
 1531SOL     OW 5491   5.329   2.618   4.426  0.3461 -0.0620 -0.2693
 1531SOL    HW1 5492   5.234   2.648   4.420 -0.4512 -2.1425  0.8683
 1531SOL    HW2 5493   5.387   2.695   4.451 -1.0795  1.1728 -0.6230
 1532SOL     OW 5494   2.129   3.116   4.925  0.5080  0.3133 -0.5079
 1532SOL    HW1 5495   2.142   3.114   4.826 -1.7262 -0.2665 -0.8504
 1532SOL    HW2 5496   2.212   3.082   4.970  0.5704 -2.2021 -2.3165
 1533SOL     OW 5497   0.119   3.387   5.937  0.3052 -0.2288 -0.2212
 1533SOL    HW1 5498   0.109   3.479   5.975  1.6214 -0.2837  0.3075
 1533SOL    HW2 5499   0.193   3.387   5.870 -2.2874 -0.0023 -3.3696
 1534SOL     OW 5500   2.733   5.891   6.633 -0.3248  0.2759  0.5079
 1534SOL    HW1 5501   2.727   5.888   6.733 -2.1405  1.2530  0.4633
 1534SOL    HW2 5502   2.784   5.811   6.600  0.1142 -0.1682  2.1900
 1535SOL     OW 5503   6.683   6.165   5.169  0.1881 -0.0617  0.0202
 1535SOL    HW1 5504   6.710   6.074   5.139  2.2534  0.0183  1.4013
 1535SOL    HW2 5505   6.641   6.215   5.093  1.7777 -1.1165 -1.6221
 1536SOL     OW 5506   3.482   5.467   2.653 -0.4409  0.8188  0.3399
 1536SOL    HW1 5507   3.502   5.405   2.729  0.3097  1.0751  0.3578
 1536SOL    HW2 5508   3.558   5.531   2.641 -2.2057  3.4345  1.9541
 1537SOL     OW 5509   2.622   5.099   3.717  0.5950 -0.2832  0.4767
 1537SOL    HW1 5510   2.594   5.178   3.664  1.7758 -1.4236 -2.0024
 1537SOL    HW2 5511   2.627   5.124   3.814  1.0003  2.6509 -0.2086
 1538SOL     OW 5512   1.398   3.750   6.383  0.3654  0.2375  0.1306
 1538SOL    HW1 5513   1.346   3.714   6.461 -0.1573  0.3571 -0.1580
 1538SOL    HW2 5514   1.493   3.767   6.411  1.0943 -2.9041 -0.1515
 1539SOL     OW 5515   2.780   5.232   0.799 -0.0776 -0.2911  0.7419
 1539SOL    HW1 5516   2.686   5.263   0.794  0.2423  0.5938 -0.3252
 1539SOL    HW2 5517   2.787   5.140   0.760 -0.5120 -0.4145  0.9516
 1540SOL     OW 5518   6.541   5.973   6.283 -0.3732 -0.2759 -0.3855
 1540SOL    HW1 5519   6.512   6.039   6.351 -0.9275  0.9849 -1.7805
 1540SOL    HW2 5520   6.467   5.959   6.217 -0.5959 -2.9778  0.3312
 1541SOL     OW 5521   5.095   0.032   1.655  0.3915  0.2507  0.3869
 1541SOL    HW1 5522   5.113   0.106   1.590 -0.2454 -0.6768 -0.8897
 1541SOL    HW2 5523   5.077  -0.053   1.605 -0.5502 -0.4009  1.7685
 1542SOL     OW 5524   6.835   0.806   2.428  0.6541  0.2452  0.5256
 1542SOL    HW1 5525   6.886   0.800   2.343 -1.5892  0.8970 -0.9634
 1542SOL    HW2 5526   6.841   0.899   2.465  1.2992  0.0665  0.8875
 1543SOL     OW 5527   3.359   2.889   3.137 -0.1858  0.2066 -0.7479
 1543SOL    HW1 5528   3.323   2.933   3.055 -0.4404  0.8716 -0.2811
 1543SOL    HW2 5529   3.366   2.790   3.120 -2.1207  0.0521 -0.9067
 1544SOL     OW 5530   3.781   3.679   3.471 -0.3878 -0.5678 -0.1989
 1544SOL    HW1 5531   3.688   3.708   3.447  0.0919  0.0516 -1.3567
 1544SOL    HW2 5532   3.847   3.731   3.418  0.5687 -2.2830 -0.7680
 1545SOL     OW 5533   0.206   1.985   4.642 -0.1504 -0.5983  0.5791
 1545SOL    HW1 5534   0.295   1.994   4.686  1.7323  0.5841 -3.0368
 1545SOL    HW2 5535   0.208   1.908   4.578 -1.8166 -0.6837  0.5774
 1546SOL     OW 5536   5.018   1.095   1.136 -0.5544  0.0220 -0.3654
 1546SOL    HW1 5537   5.058   1.182   1.106 -0.6150  0.2672  0.2360
 1546SOL    HW2 5538   5.072   1.059   1.212 -1.2875  0.1982  0.2520
 1547SOL     OW 5539   0.699   2.954   6.395 -0.2333  0.3621 -0.6816
 1547SOL    HW1 5540   0.622   2.896   6.371  1.0983 -0.7334 -2.5970
 1547SOL    HW2 5541   0.756   2.908   6.463 -0.5492  0.5956 -0.2527
 1548SOL     OW 5542   3.505   5.818   6.911 -0.3863 -0.6165  0.2667
 1548SOL    HW1 5543   3.493   5.889   6.980  1.3960  1.4781 -1.4315
 1548SOL    HW2 5544   3.560   5.854   6.835 -0.6233 -3.3995 -1.3614
 1549SOL     OW 5545   7.010   3.485   1.178  0.3205  0.4152 -0.2849
 1549SOL    HW1 5546   7.022   3.533   1.091 -0.3773  1.0693 -0.0315
 1549SOL    HW2 5547   6.944   3.534   1.235  0.6054 -0.1226  0.5338
 1550SOL     OW 5548   3.900   6.130   6.503  0.1708  0.3019  0.4134
 1550SOL    HW1 5549   3.883   6.040   6.464  1.4679  0.1698  0.1109
 1550SOL    HW2 5550   3.877   6.200   6.435  1.3039  0.1112 -0.1895
 1551SOL     OW 5551   2.261   3.636   0.559 -0.2474  0.0715 -0.0602
 1551SOL    HW1 5552   2.342   3.608   0.610 -1.0668 -0.4546  0.9907
 1551SOL    HW2 5553   2.287   3.703   0.490  0.8464  1.0948  1.2810
 1552SOL     OW 5554   0.042   6.498   3.561  0.2274 -0.0584  0.0040
 1552SOL    HW1 5555   0.012   6.457   3.475  0.6576 -0.7555  0.1702
 1552SOL    HW2 5556  -0.037   6.515   3.620  0.1272 -2.3664  0.6550
 1553SOL     OW 5557   5.077   1.724   6.433 -0.8103  0.1652  0.2905
 1553SOL    HW1 5558   5.154   1.661   6.429 -1.6435 -0.8062 -1.5811
 1553SOL    HW2 5559   4.995   1.674   6.461 -0.9520  1.0205  1.4792
 1554SOL     OW 5560   2.671   1.924   4.222  0.1998 -0.2063 -0.7400
 1554SOL    HW1 5561   2.763   1.885   4.228 -0.2450 -1.2134 -0.2369
 1554SOL    HW2 5562   2.604   1.857   4.253 -0.5599  1.2059  0.8447
 1555SOL     OW 5563   5.099   1.806   6.790  0.7253  0.3961 -0.2909
 1555SOL    HW1 5564   5.057   1.805   6.881  1.4684  0.2723  0.0595
 1555SOL    HW2 5565   5.140   1.717   6.772  3.7561  1.4487  0.7923
 1556SOL     OW 5566   4.417   1.186   1.067 -0.6851  0.2443 -0.4778
 1556SOL    HW1 5567   4.512   1.164   1.046 -1.0962 -1.7291 -0.4759
 1556SOL    HW2 5568   4.412   1.228   1.158  0.0267 -1.4619  0.3992
 1557SOL     OW 5569   3.291   2.578   6.356  0.6469  0.0928  0.0330
 1557SOL    HW1 5570   3.320   2.555   6.448 -1.2825  1.1943  0.9774
 1557SOL    HW2 5571   3.226   2.510   6.323 -0.0511  0.6584  0.2247
 1558SOL     OW 5572   6.249   2.245   4.635  0.3471 -0.0319  0.0187
 1558SOL    HW1 5573   6.160   2.256   4.591  0.3090 -1.4628 -0.3338
 1558SOL    HW2 5574   6.239   2.247   4.734 -0.1266 -0.4138 -0.0181
 1559SOL     OW 5575   1.418   3.223   0.081  0.8445  0.1185  0.3215
 1559SOL    HW1 5576   1.396   3.170  -0.001  2.0373 -0.9499  0.6674
 1559SOL    HW2 5577   1.422   3.320   0.057 -0.0671 -0.0490 -0.6018
 1560SOL     OW 5578   3.487   0.331   6.742 -0.1906 -0.3629  0.3175
 1560SOL    HW1 5579   3.497   0.429   6.754  0.2503 -0.3144 -0.3637
 1560SOL    HW2 5580   3.400   0.301   6.780 -0.4501  0.3310  0.2807
 1561SOL     OW 5581   4.460   6.402   3.270  0.1860 -0.2048  0.3742
 1561SOL    HW1 5582   4.461   6.398   3.170  0.8365 -0.6031  0.3861
 1561SOL    HW2 5583   4.507   6.485   3.301 -1.2745  0.6652  0.3382
 1562SOL     OW 5584   1.566   5.471   3.225 -0.2692  0.1567  0.4758
 1562SOL    HW1 5585   1.649   5.503   3.179 -0.1794  0.0120  0.5366
 1562SOL    HW2 5586   1.541   5.381   3.190  0.6599 -0.6364  1.7910
 1563SOL     OW 5587   3.167   1.646   6.172  0.3507 -0.6013  0.4252
 1563SOL    HW1 5588   3.077   1.687   6.189  0.3135 -0.1328 -0.7876
 1563SOL    HW2 5589   3.223   1.709   6.118  1.3857 -0.9351  1.0707
 1564SOL     OW 5590   0.344   6.944   3.245  0.2478 -0.2076  0.4618
 1564SOL    HW1 5591   0.360   6.887   3.326 -1.1970 -1.6660 -0.2303
 1564SOL    HW2 5592   0.283   6.897   3.182 -0.1806  1.6962 -0.6382
 1565SOL     OW 5593   3.299   6.569   4.516 -0.0968  0.6079  0.2133
 1565SOL    HW1 5594   3.352   6.648   4.486  2.4961 -0.8499  0.6225
 1565SOL    HW2 5595   3.255   6.588   4.603 -0.8491  2.0880 -0.4620
 1566SOL     OW 5596   5.869   5.153   4.291  0.1737  0.4854  0.3510
 1566SOL    HW1 5597   5.824   5.064   4.280  1.3105 -0.1736  0.8113
 1566SOL    HW2 5598   5.938   5.164   4.220  0.6239  0.6140  0.8002
 1567SOL     OW 5599   5.498   5.334   0.082 -0.0455 -0.5051 -0.2598
 1567SOL    HW1 5600   5.507   5.346  -0.017 -0.6517  1.2311 -0.1471
 1567SOL    HW2 5601   5.422   5.272   0.101 -0.4738 -0.1799 -0.8770
 1568SOL     OW 5602   2.906   5.839   5.080 -0.1199  0.4877 -0.6929
 1568SOL    HW1 5603   2.946   5.929   5.061 -1.3233  1.2051  0.0902
 1568SOL    HW2 5604   2.955   5.797   5.157  1.8184 -0.4920 -2.3409
 1569SOL     OW 5605   3.089   2.063   2.646  0.3959 -0.4718 -0.7798
 1569SOL    HW1 5606   3.012   2.109   2.690  1.3507 -0.2708  0.7587
 1569SOL    HW2 5607   3.064   2.037   2.552 -0.6128  2.0177 -1.2664
 1570SOL     OW 5608   2.163   0.807   5.678 -0.3429  0.6119  0.2894
 1570SOL    HW1 5609   2.195   0.713   5.689  1.6345  1.0943 -0.9219
 1570SOL    HW2 5610   2.210   0.866   5.743 -1.8789  0.7404  1.3278
 1571SOL     OW 5611   1.072   2.703   4.104  0.0431  0.0473 -0.1550
 1571SOL    HW1 5612   1.034   2.751   4.025  0.0221 -0.9499 -0.7560
 1571SOL    HW2 5613   1.012   2.628   4.131  0.1934  0.2021  0.6371
 1572SOL     OW 5614   1.558   5.219   3.109  0.0195  0.1567  0.2452
 1572SOL    HW1 5615   1.496   5.152   3.150  1.4377  0.0341  2.4015
 1572SOL    HW2 5616   1.527   5.243   3.017 -2.0017 -1.4387  0.4521
 1573SOL     OW 5617   3.105   5.468   1.066  0.2552  0.7660 -0.1718
 1573SOL    HW1 5618   3.112   5.536   1.140 -0.1607  3.2860 -2.3046
 1573SOL    HW2 5619   3.173   5.397   1.080 -1.9244 -0.8267  4.4051
 1574SOL     OW 5620   6.771   4.505   3.252 -0.0063 -0.5024 -0.0757
 1574SOL    HW1 5621   6.802   4.598   3.271 -1.3155 -0.1921  0.6199
 1574SOL    HW2 5622   6.724   4.503   3.164  1.5797 -0.8962 -0.9498
 1575SOL     OW 5623   1.370   0.285   0.657  0.3252  0.3373  0.0858
 1575SOL    HW1 5624   1.411   0.353   0.597  0.4885  0.4301  0.3019
 1575SOL    HW2 5625   1.394   0.193   0.625  0.7070  0.3915  0.2179
 1576SOL     OW 5626   1.687   5.946   2.021 -0.3780 -0.6969  0.2904
 1576SOL    HW1 5627   1.663   6.032   2.066  0.6029  0.7179 -1.7121
 1576SOL    HW2 5628   1.620   5.876   2.044 -0.8789  0.4157  2.4606
 1577SOL     OW 5629   1.674   6.964   6.978 -0.3140  0.1433  1.1184
 1577SOL    HW1 5630   1.716   6.935   7.064 -0.3853 -0.7149  0.8738
 1577SOL    HW2 5631   1.735   7.027   6.931  0.2544 -0.3020  1.2452
 1578SOL     OW 5632   5.053   1.494   6.947  0.1056  0.3233  0.3545
 1578SOL    HW1 5633   5.102   1.562   7.001  0.1115  0.2477  0.4443
 1578SOL    HW2 5634   5.047   1.409   6.998  0.3257  0.1754  0.1382
 1579SOL     OW 5635   0.542   5.019   1.154 -0.4353 -0.1673 -0.3719
 1579SOL    HW1 5636   0.479   4.986   1.224 -1.3964 -0.3021 -1.2845
 1579SOL    HW2 5637   0.602   5.089   1.194 -0.3471 -0.8850  0.8098
 1580SOL     OW 5638   3.564   3.004   4.437  0.2960 -0.2388  0.2087
 1580SOL    HW1 5639   3.565   3.083   4.376 -1.1788  1.0788  1.7850
 1580SOL    HW2 5640   3.469   2.979   4.457  0.7047 -2.8334 -0.7072
 1581SOL     OW 5641   5.693   3.765   5.839 -0.3969  0.9444 -0.5025
 1581SOL    HW1 5642   5.742   3.758   5.752  0.0454 -0.0219 -0.1927
 1581SOL    HW2 5643   5.757   3.793   5.911 -0.3953  0.1563 -0.1880
 1582SOL     OW 5644   4.528   0.094   5.138 -0.0756 -0.3380 -0.5799
 1582SOL    HW1 5645   4.558   0.162   5.071 -0.0473 -0.5608 -0.7918
 1582SOL    HW2 5646   4.571   0.114   5.227  0.0937 -0.2001 -0.6926
 1583SOL     OW 5647   0.630   5.208   4.366  0.0532  0.2874  0.4388
 1583SOL    HW1 5648   0.721   5.166   4.369  0.0024  0.1539  0.1738
 1583SOL    HW2 5649   0.635   5.300   4.404 -0.0435 -0.3192  2.0116
 1584SOL     OW 5650   0.879   5.167   1.761  0.0613  0.0285 -0.6409
 1584SOL    HW1 5651   0.967   5.127   1.736  0.7383  0.4732  0.9419
 1584SOL    HW2 5652   0.872   5.173   1.860 -2.2250 -1.0184 -0.6930
 1585SOL     OW 5653   4.533   0.634   1.872  0.0320  0.1321 -0.4432
 1585SOL    HW1 5654   4.463   0.608   1.939 -0.7130 -1.1352 -1.6439
 1585SOL    HW2 5655   4.539   0.733   1.866 -2.4193  0.2890 -1.0431
 1586SOL     OW 5656   3.815   4.936   2.669 -0.3659 -0.0482 -0.0742
 1586SOL    HW1 5657   3.821   4.889   2.581  0.5446  0.9236 -0.5690
 1586SOL    HW2 5658   3.770   5.024   2.657 -1.0561 -0.2940  0.6204
 1587SOL     OW 5659   3.731   0.478   5.627  0.1343  0.3549 -0.1557
 1587SOL    HW1 5660   3.730   0.380   5.610  1.8512  0.1370  0.7581
 1587SOL    HW2 5661   3.732   0.496   5.725  1.3281  1.2051 -0.2879
 1588SOL     OW 5662   3.970   1.884   1.764 -0.1731 -0.2600  0.2558
 1588SOL    HW1 5663   3.969   1.804   1.824 -0.3305 -0.3468  0.1369
 1588SOL    HW2 5664   3.888   1.939   1.780  0.0003 -0.0499  0.4331
 1589SOL     OW 5665   1.211   2.749   3.295  0.1722  0.0638 -0.2753
 1589SOL    HW1 5666   1.289   2.741   3.233 -0.1445  1.8851 -0.9641
 1589SOL    HW2 5667   1.129   2.715   3.249  0.1017  0.5744 -0.5353
 1590SOL     OW 5668   5.649   0.906   3.200  0.3623 -0.2894 -0.2203
 1590SOL    HW1 5669   5.603   0.941   3.282  2.8990  1.0990  0.7345
 1590SOL    HW2 5670   5.748   0.910   3.214  0.8499 -1.8530 -2.6625
 1591SOL     OW 5671   5.153   5.173   1.618  0.1576 -0.4056  0.1403
 1591SOL    HW1 5672   5.110   5.239   1.557 -0.5370  0.7311  1.7908
 1591SOL    HW2 5673   5.236   5.136   1.575 -0.3001  0.3528 -1.4509
 1592SOL     OW 5674   2.904   3.070   6.913 -0.1653 -1.0851  0.0184
 1592SOL    HW1 5675   2.908   3.170   6.923 -0.5082 -0.6629 -3.0523
 1592SOL    HW2 5676   2.965   3.027   6.979 -1.2356  1.0060  2.5746
 1593SOL     OW 5677   1.499   6.483   5.253 -0.4016 -0.2327  0.1086
 1593SOL    HW1 5678   1.402   6.469   5.273 -0.3093  0.0093  0.7312
 1593SOL    HW2 5679   1.510   6.567   5.201 -0.6800 -1.0539 -1.3631
 1594SOL     OW 5680   2.535   5.591   1.705 -0.2015 -0.4687  0.3791
 1594SOL    HW1 5681   2.562   5.496   1.721  0.7143 -0.2559  0.1412
 1594SOL    HW2 5682   2.603   5.652   1.745 -0.5881  0.0867  0.1998
 1595SOL     OW 5683   0.165   4.015   0.984  0.0961 -0.5851 -0.4916
 1595SOL    HW1 5684   0.226   4.069   1.042 -0.3174  0.4851 -1.0166
 1595SOL    HW2 5685   0.165   4.054   0.892 -1.4906 -0.4774 -0.4593
 1596SOL     OW 5686   4.852   3.988   1.175 -0.0708 -0.0779  0.5665
 1596SOL    HW1 5687   4.769   4.014   1.225  0.0513  0.0921  0.6820
 1596SOL    HW2 5688   4.867   4.053   1.101 -1.2251 -1.3080 -0.8146
 1597SOL     OW 5689   3.564   5.744   2.423  0.2203 -0.6513  0.4794
 1597SOL    HW1 5690   3.611   5.704   2.344 -0.3784 -1.0738  0.3290
 1597SOL    HW2 5691   3.592   5.839   2.433  0.4154 -0.6354 -0.1563
 1598SOL     OW 5692   0.573   4.979   5.095  0.3354  0.5247  0.5743
 1598SOL    HW1 5693   0.474   4.996   5.101  0.2446 -0.1103  0.9984
 1598SOL    HW2 5694   0.614   4.986   5.186  0.6547  0.6351  0.4230
 1599SOL     OW 5695   4.852   3.944   3.365 -0.4175 -0.2792 -0.2139
 1599SOL    HW1 5696   4.870   3.846   3.364 -2.6478 -0.7962  1.8673
 1599SOL    HW2 5697   4.858   3.979   3.458 -0.7435  1.3327 -0.7609
 1600SOL     OW 5698   2.540   0.928   2.989 -0.1483  0.3219  0.0261
 1600SOL    HW1 5699   2.604   0.913   2.914 -0.3159  0.2689 -0.1051
 1600SOL    HW2 5700   2.588   0.917   3.076 -0.6924 -3.2239  0.0077
 1601SOL     OW 5701   5.857   6.432   5.678 -0.2632  0.9298 -0.1682
 1601SOL    HW1 5702   5.795   6.507   5.654 -1.5489 -0.2274 -0.5899
 1601SOL    HW2 5703   5.815   6.378   5.751 -0.7618 -1.1168 -1.9043
 1602SOL     OW 5704   3.987   0.379   3.182 -0.5032  0.1695 -0.1337
 1602SOL    HW1 5705   4.033   0.389   3.270 -4.8479  1.0156  2.3207
 1602SOL    HW2 5706   3.952   0.286   3.173 -2.1355  0.7109  0.2603
 1603SOL     OW 5707   1.122   3.885   5.595  0.2550 -0.8250 -0.1673
 1603SOL    HW1 5708   1.143   3.881   5.692  1.1240 -0.7501 -0.3469
 1603SOL    HW2 5709   1.194   3.935   5.547 -0.0929 -0.9821 -0.8677
 1604SOL     OW 5710   4.688   4.680   2.000  0.0371  0.4454  0.2703
 1604SOL    HW1 5711   4.767   4.634   2.039  0.2290 -0.0017 -0.6223
 1604SOL    HW2 5712   4.604   4.635   2.032  0.1792  0.2332  0.3426
 1605SOL     OW 5713   5.829   6.975   3.210  0.4586 -0.5331 -0.4174
 1605SOL    HW1 5714   5.774   7.035   3.268  1.1006  0.6693 -1.0382
 1605SOL    HW2 5715   5.779   6.955   3.126  1.0517  0.7705 -1.0970
 1606SOL     OW 5716   3.270   4.932   0.530  0.0566 -0.2494  0.1551
 1606SOL    HW1 5717   3.359   4.937   0.574  1.0096  0.5037 -1.7564
 1606SOL    HW2 5718   3.273   4.867   0.454 -1.3803 -1.1131  0.7913
 1607SOL     OW 5719   3.694   1.656   1.559 -0.3153 -0.2988  0.2419
 1607SOL    HW1 5720   3.625   1.598   1.515 -0.4805  0.5647 -0.6531
 1607SOL    HW2 5721   3.782   1.643   1.513 -0.0710 -0.7161  0.8064
 1608SOL     OW 5722   0.679   6.787   2.050 -0.1704  0.1449  0.0701
 1608SOL    HW1 5723   0.668   6.802   1.952 -0.8705  0.1754  0.1498
 1608SOL    HW2 5724   0.777   6.778   2.072 -0.0432 -0.5305 -0.7274
 1609SOL     OW 5725   3.306   1.380   2.796 -0.0140  0.0449 -0.1469
 1609SOL    HW1 5726   3.262   1.451   2.851 -2.0830 -1.1854 -0.0759
 1609SOL    HW2 5727   3.341   1.420   2.711  0.1705  1.3810  0.5401
 1610SOL     OW 5728   4.465   5.196   2.098  0.1658 -0.2222 -0.2638
 1610SOL    HW1 5729   4.498   5.220   2.189 -1.0649 -0.1588  0.1812
 1610SOL    HW2 5730   4.402   5.266   2.065 -3.0205 -2.3432  0.7972
 1611SOL     OW 5731   0.492   2.390   0.013  0.0900 -0.3889 -0.3253
 1611SOL    HW1 5732   0.395   2.373  -0.006 -0.4418  1.3874  0.5951
 1611SOL    HW2 5733   0.536   2.424  -0.071 -0.7422  1.3436 -0.0987
 1612SOL     OW 5734   3.411   6.292   1.892  0.9460 -0.5822 -0.3659
 1612SOL    HW1 5735   3.329   6.237   1.910 -0.5047  1.5708  0.0231
 1612SOL    HW2 5736   3.447   6.328   1.978  2.8106 -2.1148 -0.4505
 1613SOL     OW 5737   0.932   5.086   2.684  0.4199  0.3743 -0.3109
 1613SOL    HW1 5738   1.007   5.130   2.635 -0.6904  2.4729 -0.2340
 1613SOL    HW2 5739   0.935   5.113   2.780 -1.4541  2.0640 -0.6555
 1614SOL     OW 5740   6.146   1.635   0.497  0.8474 -0.7327  0.0600
 1614SOL    HW1 5741   6.077   1.693   0.538 -0.4615 -1.3971 -1.1252
 1614SOL    HW2 5742   6.235   1.681   0.499  0.6178 -0.2958  2.5506
 1615SOL     OW 5743   6.572   3.895   0.956 -0.7199 -0.2370  0.1845
 1615SOL    HW1 5744   6.521   3.853   1.032 -0.1168 -0.2279  0.6096
 1615SOL    HW2 5745   6.620   3.976   0.990 -0.2784 -0.3550 -0.1562
 1616SOL     OW 5746   4.999   1.969   5.883 -0.0056  0.1804  0.0488
 1616SOL    HW1 5747   5.059   1.891   5.900  0.8835  0.7464 -0.4505
 1616SOL    HW2 5748   4.953   1.957   5.795  1.1760  0.8490 -0.6845
 1617SOL     OW 5749   4.386   0.863   2.200  0.1310 -0.0326  0.6749
 1617SOL    HW1 5750   4.305   0.815   2.232 -1.0250  1.3615 -0.0031
 1617SOL    HW2 5751   4.468   0.814   2.227 -0.9653 -2.0634  0.4555
 1618SOL     OW 5752   0.143   5.978   4.898 -0.1860 -0.3667 -0.5958
 1618SOL    HW1 5753   0.139   5.889   4.854 -0.9597 -0.3842 -0.5108
 1618SOL    HW2 5754   0.098   5.972   4.988 -1.0917  0.3186 -0.9839
 1619SOL     OW 5755   0.897   5.663   6.025 -0.5963  0.4739  0.4935
 1619SOL    HW1 5756   0.824   5.706   5.971 -0.9081  1.3621  1.5831
 1619SOL    HW2 5757   0.920   5.574   5.985 -1.6014  0.6069 -0.4326
 1620SOL     OW 5758   2.583   4.278   1.090 -0.3677 -0.3718 -0.5729
 1620SOL    HW1 5759   2.522   4.200   1.075 -0.4520 -0.6923  1.2343
 1620SOL    HW2 5760   2.531   4.356   1.126  0.0118 -0.0972 -0.6054
 1621SOL     OW 5761   5.813   5.249   1.600 -0.7898 -0.2165 -0.2759
 1621SOL    HW1 5762   5.749   5.271   1.673 -1.2803 -0.5099 -0.6153
 1621SOL    HW2 5763   5.902   5.290   1.621 -0.8048 -0.6591  0.6940
 1622SOL     OW 5764   5.972   4.119   5.115  0.1210  0.3382  0.6441
 1622SOL    HW1 5765   5.989   4.051   5.044  1.2170  0.1877  1.0441
 1622SOL    HW2 5766   5.995   4.210   5.079  0.9383  0.2327  0.8881
 1623SOL     OW 5767   6.903   0.921   5.339  0.2415  0.4109 -0.3922
 1623SOL    HW1 5768   6.959   0.850   5.296  0.2684 -0.4639  1.0132
 1623SOL    HW2 5769   6.963   0.997   5.368  0.3684  0.5168 -0.9247
 1624SOL     OW 5770   3.936   0.854   0.859 -0.2513  0.0133  0.2254
 1624SOL    HW1 5771   3.918   0.901   0.773  1.0552 -2.8654 -1.8018
 1624SOL    HW2 5772   3.851   0.812   0.892 -0.1740 -1.9263 -1.7690
 1625SOL     OW 5773   2.292   6.484   1.106 -0.0875 -0.0567 -0.0708
 1625SOL    HW1 5774   2.288   6.395   1.060 -0.7741  0.0813 -0.2923
 1625SOL    HW2 5775   2.251   6.477   1.196  0.2761 -0.0689  0.0960
 1626SOL     OW 5776   3.276   1.478   1.927 -0.2485  0.3467 -0.3162
 1626SOL    HW1 5777   3.317   1.533   2.000  1.2923  1.7894 -2.1409
 1626SOL    HW2 5778   3.228   1.538   1.863 -0.8876 -0.7787 -0.9239
 1627SOL     OW 5779   7.003   1.855   4.786  0.6035 -0.0326 -0.0339
 1627SOL    HW1 5780   6.935   1.927   4.797  2.5320  1.7266  1.0017
 1627SOL    HW2 5781   7.089   1.895   4.754  2.0208 -1.6905  1.4814
 1628SOL     OW 5782   4.605   0.292   5.852 -0.0143 -0.0413  0.6619
 1628SOL    HW1 5783   4.517   0.264   5.892 -0.9403 -1.4929 -2.0972
 1628SOL    HW2 5784   4.609   0.392   5.848 -1.6779  0.0504  0.5908
 1629SOL     OW 5785   4.614   2.051   2.084  0.4542 -0.4935 -0.1140
 1629SOL    HW1 5786   4.517   2.069   2.074  0.5850  0.1625 -0.2882
 1629SOL    HW2 5787   4.662   2.079   2.000  0.6120 -2.2435 -0.6425
 1630SOL     OW 5788   0.587   2.924   5.255  0.1517 -1.2946  0.2173
 1630SOL    HW1 5789   0.643   2.997   5.294  0.4268 -1.1618 -0.4124
 1630SOL    HW2 5790   0.535   2.880   5.328 -3.2123  2.1548  0.2262
 1631SOL     OW 5791   6.607   4.156   0.258  0.1417  0.0475  0.1754
 1631SOL    HW1 5792   6.703   4.178   0.244  0.0608  1.9768  2.0115
 1631SOL    HW2 5793   6.551   4.205   0.191  0.4401 -1.6968 -1.3983
 1632SOL     OW 5794   5.514   4.783   3.233 -0.2052  0.1252  0.3995
 1632SOL    HW1 5795   5.609   4.796   3.261 -0.1110  1.2170 -0.3610
 1632SOL    HW2 5796   5.458   4.765   3.314  0.7233 -1.0958  0.7995
 1633SOL     OW 5797   5.508   5.561   2.651  0.0266 -0.0769 -0.4803
 1633SOL    HW1 5798   5.534   5.465   2.638  0.0120 -0.3797  1.5163
 1633SOL    HW2 5799   5.509   5.584   2.748  1.0199  2.2524 -0.9659
 1634SOL     OW 5800   2.440   6.747   3.210  0.1584 -0.5793 -0.1155
 1634SOL    HW1 5801   2.517   6.685   3.196 -0.4680 -1.6508  1.1064
 1634SOL    HW2 5802   2.442   6.817   3.138  1.2910 -1.5569 -1.0922
 1635SOL     OW 5803   1.542   6.111   5.697  0.0795 -0.5872  0.1994
 1635SOL    HW1 5804   1.526   6.013   5.701  2.9200 -1.1427  0.0468
 1635SOL    HW2 5805   1.551   6.148   5.790 -1.2647 -0.3730  0.2666
 1636SOL     OW 5806   1.299   6.808   0.394 -0.1389 -0.3982  0.2269
 1636SOL    HW1 5807   1.214   6.852   0.364 -0.8076 -1.2868  0.7551
 1636SOL    HW2 5808   1.278   6.741   0.465  1.2000  0.4008  1.4226
 1637SOL     OW 5809   5.212   2.021   2.716 -0.4263 -0.0874 -0.0954
 1637SOL    HW1 5810   5.127   2.072   2.728 -0.2688  0.7827 -2.3493
 1637SOL    HW2 5811   5.284   2.083   2.684  0.3075 -1.3350 -0.9307
 1638SOL     OW 5812   0.675   2.526   1.794 -0.5671  1.1696  0.3909
 1638SOL    HW1 5813   0.758   2.522   1.850 -0.0942  1.1457 -0.3082
 1638SOL    HW2 5814   0.598   2.555   1.852  0.0220  1.6859  0.9392
 1639SOL     OW 5815   0.120   5.953   0.573 -0.3745 -0.2255 -0.1611
 1639SOL    HW1 5816   0.081   5.907   0.652  2.0727 -1.6354  0.3467
 1639SOL    HW2 5817   0.092   5.907   0.489  0.2975 -1.3321  0.2031
 1640SOL     OW 5818   0.236   6.755   2.126  0.0082  0.0995 -0.0246
 1640SOL    HW1 5819   0.273   6.721   2.040  0.3720 -0.6162  0.4061
 1640SOL    HW2 5820   0.205   6.849   2.114  0.0884  0.0186 -0.9235
 1641SOL     OW 5821   1.129   2.061   4.062  0.0837  0.1516 -0.1235
 1641SOL    HW1 5822   1.133   2.135   4.129  1.8377  0.7262 -0.8138
 1641SOL    HW2 5823   1.086   2.095   3.978 -1.9013 -0.5042  0.5660
 1642SOL     OW 5824   6.130   4.494   6.252  0.1652 -0.2723  0.1427
 1642SOL    HW1 5825   6.198   4.422   6.246 -0.8532 -1.1235 -2.5386
 1642SOL    HW2 5826   6.042   4.455   6.281 -0.1523  0.0435 -0.3681
 1643SOL     OW 5827   2.027   4.429   3.217  0.4257  0.6591 -0.7874
 1643SOL    HW1 5828   2.066   4.451   3.128 -0.4993  1.6544 -0.9720
 1643SOL    HW2 5829   2.024   4.330   3.229  0.7235  0.5183 -1.7907
 1644SOL     OW 5830   5.738   5.040   0.296 -0.2065  0.2752  0.1895
 1644SOL    HW1 5831   5.642   5.043   0.267 -0.3494  0.7712  0.7040
 1644SOL    HW2 5832   5.775   4.949   0.277 -0.5588  0.2980 -0.6920
 1645SOL     OW 5833   1.829   6.789   5.914 -0.4947  0.3415 -0.8502
 1645SOL    HW1 5834   1.836   6.820   5.819 -0.6714  1.4817 -0.5108
 1645SOL    HW2 5835   1.758   6.719   5.921  1.6427 -2.1324 -2.0963
 1646SOL     OW 5836   1.526   0.419   0.472 -0.2774 -0.5697 -0.2119
 1646SOL    HW1 5837   1.553   0.498   0.417 -0.6146  0.9225  1.6300
 1646SOL    HW2 5838   1.556   0.335   0.428 -0.6981  0.5115 -2.7118
 1647SOL     OW 5839   1.552   3.370   5.075  0.1836  0.0399 -0.2047
 1647SOL    HW1 5840   1.642   3.413   5.068 -0.0175  0.4872 -0.0814
 1647SOL    HW2 5841   1.485   3.423   5.022 -0.0076 -0.2830 -0.2885
 1648SOL     OW 5842   6.130   0.053   6.323  0.5450  0.4705  0.1835
 1648SOL    HW1 5843   6.126  -0.029   6.267  0.8810  0.7920 -0.3274
 1648SOL    HW2 5844   6.049   0.058   6.381  0.6626 -0.3621  0.4285
 1649SOL     OW 5845   3.793   2.147   4.818  0.1884 -0.2102  0.5794
 1649SOL    HW1 5846   3.868   2.175   4.877 -0.9684 -0.6685  2.3363
 1649SOL    HW2 5847   3.715   2.118   4.873 -1.2938  0.2019 -1.1623
 1650SOL     OW 5848   1.737   6.397   4.425  0.6295  0.1381 -0.4024
 1650SOL    HW1 5849   1.675   6.330   4.465  0.6695  0.9431  1.0723
 1650SOL    HW2 5850   1.732   6.391   4.325 -0.4088 -1.0764 -0.3118
 1651SOL     OW 5851   6.729   3.426   2.749  0.4232  0.2539  0.7609
 1651SOL    HW1 5852   6.768   3.471   2.668  0.2532  1.2734  1.2351
 1651SOL    HW2 5853   6.804   3.390   2.805  0.5136 -2.1100 -0.7217
 1652SOL     OW 5854   3.790   2.157   0.914 -0.5439  0.1607  0.3826
 1652SOL    HW1 5855   3.842   2.074   0.899  0.3839  0.5035  1.5527
 1652SOL    HW2 5856   3.732   2.146   0.995 -1.1532  0.3158 -0.0280
 1653SOL     OW 5857   0.558   4.973   1.562  0.0479  0.6115 -0.1706
 1653SOL    HW1 5858   0.504   4.986   1.479  0.2379 -0.6767 -0.5273
 1653SOL    HW2 5859   0.604   5.058   1.586 -1.8343  1.6494 -0.0559
 1654SOL     OW 5860   0.501   3.663   0.737  0.6485  0.4295 -0.1571
 1654SOL    HW1 5861   0.560   3.657   0.818  1.2029 -1.4108 -0.6450
 1654SOL    HW2 5862   0.556   3.646   0.655 -0.6651 -2.4871 -0.5459
 1655SOL     OW 5863   5.474   1.867   4.175 -0.2042 -0.0906  0.3276
 1655SOL    HW1 5864   5.432   1.777   4.161  0.4237 -0.4381  0.6138
 1655SOL    HW2 5865   5.448   1.928   4.101  0.3072 -0.8700 -0.5208
 1656SOL     OW 5866   1.167   4.775   3.224 -0.3822  0.3479 -0.1717
 1656SOL    HW1 5867   1.071   4.802   3.231 -0.5908 -0.3101 -0.4736
 1656SOL    HW2 5868   1.176   4.678   3.248  0.4402  0.7959  1.5223
 1657SOL     OW 5869   6.239   0.434   4.437  0.2546  0.1132 -0.3549
 1657SOL    HW1 5870   6.270   0.500   4.368  0.3057  0.4815  0.0209
 1657SOL    HW2 5871   6.227   0.480   4.525  0.4794 -0.4203 -0.0423
 1658SOL     OW 5872   4.598   6.508   0.428  0.3821  0.1742  0.6795
 1658SOL    HW1 5873   4.581   6.533   0.524 -1.6072  3.1347 -0.3115
 1658SOL    HW2 5874   4.515   6.471   0.388  0.7869  0.2524 -0.2528
 1659SOL     OW 5875   2.329   1.216   0.650 -0.4942 -0.4157  0.1505
 1659SOL    HW1 5876   2.392   1.249   0.720  0.5810 -0.9509 -0.5265
 1659SOL    HW2 5877   2.348   1.119   0.632 -1.2128 -0.4614 -0.3912
 1660SOL     OW 5878   2.409   0.006   2.346 -0.1622 -0.2267  0.3655
 1660SOL    HW1 5879   2.416  -0.037   2.435 -0.4063  0.5036  0.7453
 1660SOL    HW2 5880   2.343  -0.044   2.290  0.6447 -1.2108  0.2699
 1661SOL     OW 5881   1.288   4.243   3.078 -0.5145  0.0723 -0.1369
 1661SOL    HW1 5882   1.259   4.272   3.169 -0.5795 -0.5506  0.0445
 1661SOL    HW2 5883   1.212   4.196   3.032 -0.1472 -0.5827 -0.0872
 1662SOL     OW 5884   1.081   6.465   3.752  0.4563 -1.1524  0.0769
 1662SOL    HW1 5885   1.129   6.521   3.685  1.8129 -0.9108  1.2102
 1662SOL    HW2 5886   1.034   6.390   3.705  1.0197 -0.7516 -1.1746
 1663SOL     OW 5887   3.748   5.982   3.993  0.0550  0.0069 -0.1625
 1663SOL    HW1 5888   3.648   5.986   3.995 -0.1853 -3.2656 -0.1997
 1663SOL    HW2 5889   3.780   5.913   4.058  2.4128  1.6418  0.5489
 1664SOL     OW 5890   3.864   0.550   6.047  0.8414 -0.5199 -0.5394
 1664SOL    HW1 5891   3.793   0.608   6.008 -0.5722 -1.0105  1.1651
 1664SOL    HW2 5892   3.874   0.571   6.144  1.5419 -1.9035 -0.2887
 1665SOL     OW 5893   6.665   3.374   1.310  0.2726 -0.1874  0.9346
 1665SOL    HW1 5894   6.680   3.282   1.274 -0.1867  0.1389 -0.1463
 1665SOL    HW2 5895   6.683   3.441   1.238 -0.2581  0.5200  1.4456
 1666SOL     OW 5896   5.868   6.445   2.279 -0.0332 -0.6268  0.7908
 1666SOL    HW1 5897   5.789   6.449   2.218  0.0747  1.2476  0.7325
 1666SOL    HW2 5898   5.844   6.483   2.368  0.3863 -1.5073  1.3021
 1667SOL     OW 5899   0.215   5.729   0.816  0.6542  0.2010 -0.9600
 1667SOL    HW1 5900   0.166   5.653   0.859 -2.3862  1.5304 -1.8158
 1667SOL    HW2 5901   0.256   5.786   0.887  1.4803 -1.2255 -0.2363
 1668SOL     OW 5902   5.090   3.220   3.578 -0.4157  0.3808  0.3413
 1668SOL    HW1 5903   5.038   3.135   3.584 -0.2321  0.3115  1.1296
 1668SOL    HW2 5904   5.164   3.218   3.646  0.3662  0.6492 -0.4711
 1669SOL     OW 5905   5.414   5.746   6.182 -0.4252 -0.4429  0.2430
 1669SOL    HW1 5906   5.463   5.675   6.232 -1.8888 -0.4384  1.7551
 1669SOL    HW2 5907   5.479   5.803   6.133  0.8570 -2.1216 -0.0943
 1670SOL     OW 5908   0.519   4.085   4.958 -0.0061  0.1950 -1.3161
 1670SOL    HW1 5909   0.593   4.047   5.014 -0.0325  0.4236 -1.1258
 1670SOL    HW2 5910   0.548   4.172   4.918 -0.0874  0.1684 -1.4341
 1671SOL     OW 5911   5.043   1.569   2.494  0.2395  0.1383 -0.4326
 1671SOL    HW1 5912   5.024   1.511   2.415  1.1490 -0.1132 -0.4894
 1671SOL    HW2 5913   5.032   1.665   2.470 -1.5854  0.0099 -0.2559
 1672SOL     OW 5914   1.657   2.871   6.579 -0.4949  0.2229 -0.2019
 1672SOL    HW1 5915   1.696   2.780   6.568  1.3852  1.0363 -0.7813
 1672SOL    HW2 5916   1.702   2.918   6.655 -0.9150  0.9235 -0.3757
 1673SOL     OW 5917   0.698   0.138   4.644  0.2699 -0.2333 -0.3278
 1673SOL    HW1 5918   0.606   0.140   4.604 -1.1657 -2.1815  2.4994
 1673SOL    HW2 5919   0.750   0.062   4.605  0.6077  0.6654 -1.6910
 1674SOL     OW 5920   1.767   1.873   3.152 -0.2278 -0.4696  0.5630
 1674SOL    HW1 5921   1.818   1.956   3.131  1.8815 -1.5368  1.1201
 1674SOL    HW2 5922   1.669   1.892   3.150  0.1706  1.7982 -0.1455
 1675SOL     OW 5923   5.479   6.069   1.878 -0.3821 -0.3162  0.7004
 1675SOL    HW1 5924   5.495   5.972   1.858 -2.3320 -0.7805  1.1657
 1675SOL    HW2 5925   5.383   6.082   1.903 -0.0163  1.6521  1.2235
 1676SOL     OW 5926   1.544   1.257   1.803  0.1621 -0.1150 -0.3948
 1676SOL    HW1 5927   1.616   1.308   1.851  1.5434 -2.4932  0.2417
 1676SOL    HW2 5928   1.582   1.171   1.767 -1.9407 -0.5557 -1.7644
 1677SOL     OW 5929   4.134   3.523   4.602  0.4527 -0.7252  0.5392
 1677SOL    HW1 5930   4.218   3.494   4.649  1.7690  1.2316 -0.4610
 1677SOL    HW2 5931   4.088   3.593   4.656  1.2376  0.5371 -0.3790
 1678SOL     OW 5932   5.417   6.760   3.882 -0.3843  0.2542  0.3817
 1678SOL    HW1 5933   5.320   6.782   3.894 -0.2507  0.9830  0.1670
 1678SOL    HW2 5934   5.431   6.724   3.789 -0.1273  2.1003 -0.3322
 1679SOL     OW 5935   0.927   0.344   6.501  0.2803 -0.1957 -0.4145
 1679SOL    HW1 5936   0.897   0.271   6.440  1.1143 -0.8199 -0.0946
 1679SOL    HW2 5937   0.924   0.312   6.595 -3.2368  1.4828  0.2048
 1680SOL     OW 5938   0.030   3.143   5.277  0.1961  0.6699 -0.2756
 1680SOL    HW1 5939   0.027   3.058   5.330  1.3835  0.8770  0.1438
 1680SOL    HW2 5940  -0.063   3.178   5.266 -0.4834 -1.3099 -1.5013
 1681SOL     OW 5941   2.845   6.250   5.046  0.1881 -0.0958  0.3404
 1681SOL    HW1 5942   2.935   6.280   5.013 -0.6449  0.9465 -1.0725
 1681SOL    HW2 5943   2.799   6.197   4.975  0.5480 -2.6463  1.8635
 1682SOL     OW 5944   2.277   3.358   5.592 -0.1447 -0.5368  0.3310
 1682SOL    HW1 5945   2.329   3.294   5.535  0.9438 -0.6917  1.4477
 1682SOL    HW2 5946   2.321   3.448   5.589  0.8550 -0.9093  2.0668
 1683SOL     OW 5947   6.349   0.707   2.520 -0.2146 -0.3282 -0.5315
 1683SOL    HW1 5948   6.423   0.666   2.467 -0.7159 -2.6481  0.4580
 1683SOL    HW2 5949   6.346   0.667   2.612 -0.2071  2.6213  0.8782
 1684SOL     OW 5950   6.367   4.645   3.044  0.1671  0.3513  0.2600
 1684SOL    HW1 5951   6.275   4.607   3.054  0.2562  0.4256  1.5543
 1684SOL    HW2 5952   6.383   4.671   2.949 -1.0091 -0.0097 -0.0465
 1685SOL     OW 5953   2.211   1.107   5.529 -0.6448  0.2720 -0.5420
 1685SOL    HW1 5954   2.287   1.042   5.529 -1.4020 -0.6323 -1.3236
 1685SOL    HW2 5955   2.181   1.123   5.623 -0.5483 -0.6384 -0.3452
 1686SOL     OW 5956   2.088   6.929   3.173  0.8328  0.0638 -0.0498
 1686SOL    HW1 5957   2.128   6.906   3.084  0.0851  1.3575 -0.7470
 1686SOL    HW2 5958   2.140   7.004   3.214  1.3731 -0.7466  0.7676
 1687SOL     OW 5959   0.849   4.691   0.171 -0.4262 -0.5600  0.2363
 1687SOL    HW1 5960   0.929   4.641   0.139 -0.3157  0.1338 -0.6228
 1687SOL    HW2 5961   0.808   4.644   0.249  0.9250 -0.8186  0.8025
 1688SOL     OW 5962   2.331   1.228   6.699 -0.1561 -0.4794  0.9777
 1688SOL    HW1 5963   2.294   1.191   6.613  1.3786  1.1201 -0.4504
 1688SOL    HW2 5964   2.285   1.314   6.721  0.7899  0.1166  0.6689
 1689SOL     OW 5965   3.964   0.182   1.885  0.4400 -0.0575  0.6895
 1689SOL    HW1 5966   3.971   0.279   1.861  1.1227  0.2683  2.1030
 1689SOL    HW2 5967   3.893   0.171   1.955  1.3554 -0.3382  1.6029
 1690SOL     OW 5968   1.825   1.946   3.775 -0.2402 -0.2163 -0.3403
 1690SOL    HW1 5969   1.769   1.867   3.749 -1.5802  0.7697 -0.6142
 1690SOL    HW2 5970   1.894   1.963   3.704  0.4909 -1.5067  0.0420
 1691SOL     OW 5971   4.866   3.048   2.921 -0.2968  0.4790 -0.1517
 1691SOL    HW1 5972   4.951   3.002   2.947  0.5053 -0.3189 -3.7302
 1691SOL    HW2 5973   4.835   3.104   2.998  3.2185  0.5233  1.4649
 1692SOL     OW 5974   5.582   5.595   2.926  0.3445 -0.6106  0.4279
 1692SOL    HW1 5975   5.578   5.605   3.025 -0.7512  3.4748  0.1444
 1692SOL    HW2 5976   5.600   5.684   2.884 -3.6635 -1.1643 -3.1964
 1693SOL     OW 5977   0.700   1.465   5.049  1.0475  0.7245  0.3866
 1693SOL    HW1 5978   0.656   1.497   5.133 -0.6559 -1.4918  0.4383
 1693SOL    HW2 5979   0.681   1.368   5.036  3.3175  0.4224 -1.3392
 1694SOL     OW 5980   5.673   3.114   4.638 -0.3780  0.2631  0.1888
 1694SOL    HW1 5981   5.731   3.040   4.671 -0.6057 -0.1395 -0.3000
 1694SOL    HW2 5982   5.725   3.170   4.573 -0.9590 -0.9749 -1.4037
 1695SOL     OW 5983   2.874   1.640   6.939 -0.2048 -0.2340  0.1150
 1695SOL    HW1 5984   2.886   1.673   6.846 -0.9929  0.7893  0.3528
 1695SOL    HW2 5985   2.879   1.541   6.941  0.9489 -0.2096 -0.8325
 1696SOL     OW 5986   3.620   6.525   1.551  0.5263 -0.0393  0.1817
 1696SOL    HW1 5987   3.570   6.462   1.492  0.6743 -0.6138  0.6590
 1696SOL    HW2 5988   3.662   6.597   1.496 -1.6545  1.0719 -0.1681
 1697SOL     OW 5989   5.346   3.979   0.478 -0.7801  0.0292  0.4949
 1697SOL    HW1 5990   5.415   4.049   0.497  1.3901 -1.2509 -2.0591
 1697SOL    HW2 5991   5.388   3.888   0.483 -2.9920 -1.0112  1.5177
 1698SOL     OW 5992   4.324   6.925   1.707  0.5676 -0.1313 -0.1624
 1698SOL    HW1 5993   4.268   6.851   1.745 -0.8201  1.3183  0.7658
 1698SOL    HW2 5994   4.414   6.889   1.683 -0.7781 -2.6255 -1.9460
 1699SOL     OW 5995   2.154   2.789   0.519  0.6633 -0.4268  0.6864
 1699SOL    HW1 5996   2.115   2.837   0.441  3.7384  1.0428 -0.0726
 1699SOL    HW2 5997   2.097   2.806   0.600  0.4960  2.8657  0.0021
 1700SOL     OW 5998   5.286   5.149   2.928  0.1003  0.1331 -0.3515
 1700SOL    HW1 5999   5.289   5.135   2.829 -0.1528  3.6223 -1.0121
 1700SOL    HW2 6000   5.194   5.130   2.962  0.0099 -0.4379 -0.9029
 1701SOL     OW 6001   5.946   6.165   6.057  0.6445 -0.1454 -0.0620
 1701SOL    HW1 6002   5.941   6.127   6.149  1.9255  0.2405  0.1877
 1701SOL    HW2 6003   5.905   6.101   5.992 -2.7108  0.6927  1.0336
 1702SOL     OW 6004   0.568   1.105   1.372 -0.1564 -0.2244  0.3831
 1702SOL    HW1 6005   0.543   1.187   1.423  0.1474  0.2972 -0.2809
 1702SOL    HW2 6006   0.651   1.124   1.318  0.1713 -1.1052  0.5603
 1703SOL     OW 6007   3.937   2.062   5.201 -0.8209 -0.6355  0.4444
 1703SOL    HW1 6008   3.842   2.053   5.230 -0.7455  0.1004  0.9460
 1703SOL    HW2 6009   3.982   2.133   5.256 -0.6000  0.6229 -1.2844
 1704SOL     OW 6010   1.659   2.393   1.326  0.0536  0.3194  0.4218
 1704SOL    HW1 6011   1.582   2.360   1.381 -0.9708  2.1563  0.1798
 1704SOL    HW2 6012   1.670   2.334   1.246 -2.3636  1.0179 -0.5269
 1705SOL     OW 6013   3.106   2.961   1.321  0.0307  0.2553  0.0492
 1705SOL    HW1 6014   3.122   2.958   1.223  1.3648 -1.0218  0.2694
 1705SOL    HW2 6015   3.009   2.948   1.340 -0.0940 -0.4950 -1.0621
 1706SOL     OW 6016   4.853   5.810   0.642 -0.2632 -0.4053 -0.1501
 1706SOL    HW1 6017   4.835   5.838   0.737  0.4518 -0.2522 -0.0547
 1706SOL    HW2 6018   4.900   5.721   0.642  0.2192 -0.1548 -0.3352
 1707SOL     OW 6019   6.620   2.366   2.367 -0.3342 -0.6225 -0.9472
 1707SOL    HW1 6020   6.591   2.404   2.280 -1.6686 -3.0618 -1.6818
 1707SOL    HW2 6021   6.541   2.329   2.415  0.5929 -0.7263  0.5644
 1708SOL     OW 6022   5.360   6.991   1.092 -0.4570 -0.1133  0.0632
 1708SOL    HW1 6023   5.360   7.078   1.043 -2.2514 -1.2859 -2.2169
 1708SOL    HW2 6024   5.435   6.990   1.158  1.0316  2.2460 -1.4394
 1709SOL     OW 6025   4.167   1.828   6.872  0.0645  0.2170 -0.7874
 1709SOL    HW1 6026   4.100   1.755   6.865  0.9467 -0.9024  1.3782
 1709SOL    HW2 6027   4.246   1.807   6.814 -0.4563  0.4008 -1.5793
 1710SOL     OW 6028   3.694   6.343   5.193 -0.2791 -0.5680  0.1514
 1710SOL    HW1 6029   3.627   6.270   5.186  0.3288 -1.1199 -0.0393
 1710SOL    HW2 6030   3.765   6.317   5.258  0.1469 -0.3114 -0.2040
 1711SOL     OW 6031   3.631   4.515   6.425  0.5054  0.3008 -0.0722
 1711SOL    HW1 6032   3.564   4.587   6.404  0.4613  0.7467  1.4879
 1711SOL    HW2 6033   3.595   4.458   6.499  2.1349  1.0171  1.3403
 1712SOL     OW 6034   5.996   1.902   4.398 -0.4160  0.4559 -0.0310
 1712SOL    HW1 6035   5.992   1.919   4.497 -0.1930 -0.1068  0.0748
 1712SOL    HW2 6036   5.942   1.821   4.376 -2.4164  1.8851 -0.6876
 1713SOL     OW 6037   4.715   1.389   3.190 -0.3524  0.4484  0.1929
 1713SOL    HW1 6038   4.810   1.414   3.169 -0.1796  0.4430  0.9320
 1713SOL    HW2 6039   4.713   1.298   3.230 -0.5485  0.8424  1.1116
 1714SOL     OW 6040   4.536   1.943   6.060 -0.3693  0.1458 -0.3744
 1714SOL    HW1 6041   4.633   1.924   6.075 -0.4103 -0.0109 -0.3028
 1714SOL    HW2 6042   4.527   2.019   5.996 -0.2005 -0.0361 -0.6175
 1715SOL     OW 6043   2.564   5.845   3.010  0.7342 -0.0877  0.0592
 1715SOL    HW1 6044   2.655   5.836   2.970  0.7178 -0.2695  0.0644
 1715SOL    HW2 6045   2.558   5.788   3.092 -0.0028 -1.6171 -1.0047
 1716SOL     OW 6046   4.651   0.803   2.254 -0.1831 -0.0240  0.5793
 1716SOL    HW1 6047   4.689   0.748   2.329  0.4438  1.0043  1.0469
 1716SOL    HW2 6048   4.698   0.781   2.169  0.6777  0.3915  0.9330
 1717SOL     OW 6049   4.246   6.139   6.843 -0.1471  0.6033  0.0871
 1717SOL    HW1 6050   4.337   6.164   6.809 -0.4425 -0.4178 -1.5995
 1717SOL    HW2 6051   4.176   6.173   6.780 -0.7540 -1.0218 -0.1718
 1718SOL     OW 6052   4.070   6.869   1.961 -0.1673 -0.8595 -0.6659
 1718SOL    HW1 6053   3.982   6.835   1.927 -0.7141 -0.6138  0.4701
 1718SOL    HW2 6054   4.058   6.960   2.000 -0.0407 -1.9587  2.1516
 1719SOL     OW 6055   1.680   3.250   1.839 -0.0347  0.0721 -0.0640
 1719SOL    HW1 6056   1.667   3.345   1.866 -1.5568  0.1731 -1.0229
 1719SOL    HW2 6057   1.744   3.205   1.902  0.4941  1.6389  0.5520
 1720SOL     OW 6058   5.363   3.035   5.325 -0.3798 -0.2568  0.0343
 1720SOL    HW1 6059   5.327   3.074   5.410 -0.3331 -0.5519  0.1902
 1720SOL    HW2 6060   5.401   3.108   5.268  1.3943 -0.2691  1.1344
 1721SOL     OW 6061   1.552   5.710   2.141  0.2535 -0.0089  0.7698
 1721SOL    HW1 6062   1.528   5.614   2.154 -4.0843  0.7499 -0.0497
 1721SOL    HW2 6063   1.554   5.757   2.229 -0.0540 -0.3949  0.9838
 1722SOL     OW 6064   3.030   6.198   3.684  0.4677  0.1667 -0.4110
 1722SOL    HW1 6065   2.949   6.246   3.650  1.2011 -1.2229 -4.7294
 1722SOL    HW2 6066   3.112   6.231   3.638  1.7566 -1.4174  0.5977
 1723SOL     OW 6067   4.916   3.475   1.530  0.3157 -0.3004 -0.9395
 1723SOL    HW1 6068   4.960   3.390   1.558  0.1159  0.4891  2.0621
 1723SOL    HW2 6069   4.827   3.484   1.574  0.0105  1.1602 -1.7585
 1724SOL     OW 6070   6.167   3.655   3.272 -0.3576 -0.4486 -0.7499
 1724SOL    HW1 6071   6.213   3.641   3.360 -1.2942 -1.4490 -0.4031
 1724SOL    HW2 6072   6.170   3.752   3.248  2.0517 -0.4661 -0.8234
 1725SOL     OW 6073   0.177   4.810   6.265  0.0021  0.2381  0.0817
 1725SOL    HW1 6074   0.191   4.836   6.170  1.9167 -0.3557  0.1578
 1725SOL    HW2 6075   0.097   4.857   6.301  0.6679  2.4323 -1.0966
 1726SOL     OW 6076   4.802   2.487   4.523 -0.4917  0.2996  0.7672
 1726SOL    HW1 6077   4.759   2.577   4.522  0.8803  1.0289 -1.6815
 1726SOL    HW2 6078   4.731   2.416   4.526 -1.6256  1.4218  1.7857
 1727SOL     OW 6079   4.043   3.863   2.642  0.0772 -0.2559 -0.5115
 1727SOL    HW1 6080   4.113   3.911   2.588  1.0551 -0.1800  0.7628
 1727SOL    HW2 6081   4.029   3.911   2.728 -0.0269 -1.4245  0.1474
 1728SOL     OW 6082   4.855   4.413   5.528  0.0032 -0.3828 -0.0408
 1728SOL    HW1 6083   4.864   4.425   5.627  0.0645  0.0027 -0.0925
 1728SOL    HW2 6084   4.840   4.316   5.508 -0.3991 -0.4131  0.3755
 1729SOL     OW 6085   2.191   2.991   3.198  0.1898  0.5034  0.5490
 1729SOL    HW1 6086   2.226   2.925   3.264  0.4837  0.1032 -0.0009
 1729SOL    HW2 6087   2.095   2.972   3.180 -0.7184  2.3244  2.9549
 1730SOL     OW 6088   4.912   0.397   4.858 -0.0324 -0.3846  0.3363
 1730SOL    HW1 6089   4.874   0.402   4.766  0.5665  0.1401  0.1137
 1730SOL    HW2 6090   4.837   0.385   4.924 -0.7866  2.0648  0.0370
 1731SOL     OW 6091   5.818   5.269   3.130 -0.2145  0.2492  0.3001
 1731SOL    HW1 6092   5.858   5.352   3.168 -0.8058  0.9276 -0.5132
 1731SOL    HW2 6093   5.842   5.262   3.033 -0.1201 -0.5632  0.3756
 1732SOL     OW 6094   1.535   4.207   5.929  0.0264 -0.7475 -0.2791
 1732SOL    HW1 6095   1.437   4.215   5.914  0.3694  0.5118 -2.2576
 1732SOL    HW2 6096   1.579   4.175   5.845  1.5131  0.9412 -0.2215
 1733SOL     OW 6097   2.063   4.778   0.235 -0.5661 -0.2259 -0.1417
 1733SOL    HW1 6098   2.136   4.804   0.173 -0.2636 -0.0614  0.2764
 1733SOL    HW2 6099   2.095   4.704   0.295 -0.6278  0.0753  0.2684
 1734SOL     OW 6100   4.848   3.029   1.035  0.1266 -0.4464 -0.2158
 1734SOL    HW1 6101   4.870   3.021   0.938  0.8649 -1.2849  0.0024
 1734SOL    HW2 6102   4.933   3.035   1.088  0.0389 -4.4874  0.7116
 1735SOL     OW 6103   3.559   4.199   5.536 -0.1211  0.0713 -0.1107
 1735SOL    HW1 6104   3.481   4.137   5.520  0.2191 -0.1924 -0.7743
 1735SOL    HW2 6105   3.555   4.275   5.472  0.2544 -0.0214 -0.2447
 1736SOL     OW 6106   2.976   2.641   0.500  0.2355  0.0020 -0.4293
 1736SOL    HW1 6107   3.059   2.588   0.483 -0.1260 -0.5711 -0.4365
 1736SOL    HW2 6108   2.921   2.645   0.417 -0.4579 -0.9026 -0.0415
 1737SOL     OW 6109   6.160   5.736   6.222 -0.3294  0.1733  0.5490
 1737SOL    HW1 6110   6.095   5.735   6.298 -0.1985 -0.0103  0.6578
 1737SOL    HW2 6111   6.253   5.720   6.256 -0.1418  1.0171  0.4752
 1738SOL     OW 6112   0.574   4.834   4.247  0.0177  0.5838 -0.2458
 1738SOL    HW1 6113   0.616   4.886   4.322  0.3896 -0.1874  0.0935
 1738SOL    HW2 6114   0.604   4.739   4.252 -1.7636  0.0004  0.0057
 1739SOL     OW 6115   6.478   0.261   4.201  0.3864  0.0177  1.1581
 1739SOL    HW1 6116   6.435   0.240   4.113  0.6827 -0.6067  1.1539
 1739SOL    HW2 6117   6.408   0.279   4.269  0.1523  1.7211  0.5300
 1740SOL     OW 6118   6.780   2.991   5.899 -0.3883 -0.2944  0.2740
 1740SOL    HW1 6119   6.833   3.075   5.900 -0.7427 -0.0768  0.8187
 1740SOL    HW2 6120   6.820   2.927   5.832  0.2178  0.0780  0.2780
 1741SOL     OW 6121   4.149   1.852   4.369 -0.7457 -0.6565  0.2527
 1741SOL    HW1 6122   4.099   1.882   4.288  0.2600  0.0511 -0.1258
 1741SOL    HW2 6123   4.215   1.781   4.344 -0.2300 -0.2317  0.3926
 1742SOL     OW 6124   5.524   5.994   4.407  0.1354 -0.2369  0.3175
 1742SOL    HW1 6125   5.438   6.024   4.449  0.0275 -0.4061  0.2144
 1742SOL    HW2 6126   5.591   6.069   4.413 -0.2925  0.2105 -0.3982
 1743SOL     OW 6127   2.065   0.383   1.144 -0.2506 -0.7034 -0.4395
 1743SOL    HW1 6128   2.000   0.347   1.077  0.2772 -1.0843 -0.7480
 1743SOL    HW2 6129   2.104   0.308   1.196  0.2272 -0.5059 -0.5107
 1744SOL     OW 6130   5.427   2.170   1.614 -0.7444  0.1733 -0.4403
 1744SOL    HW1 6131   5.367   2.095   1.587 -2.0552  1.8938 -2.6300
 1744SOL    HW2 6132   5.409   2.194   1.709 -1.4548 -1.1749 -0.2059
 1745SOL     OW 6133   0.755   6.514   6.941 -0.0049  0.0826  0.1573
 1745SOL    HW1 6134   0.741   6.481   6.848 -0.7938  0.2696  0.2020
 1745SOL    HW2 6135   0.769   6.613   6.940 -0.5144  0.1599  0.2744
 1746SOL     OW 6136   2.240   2.911   3.599 -0.2338 -0.4415 -0.3962
 1746SOL    HW1 6137   2.273   2.877   3.511 -1.1166 -0.9527 -0.5377
 1746SOL    HW2 6138   2.244   2.838   3.667 -2.2392 -0.9127 -0.7261
 1747SOL     OW 6139   4.212   1.680   2.631  0.0075  0.2867  0.6886
 1747SOL    HW1 6140   4.190   1.584   2.614 -0.8798  0.3583  1.4136
 1747SOL    HW2 6141   4.175   1.736   2.557  0.0150  0.1339  0.5690
 1748SOL     OW 6142   6.078   1.013   4.053 -0.1057  0.3273  0.2373
 1748SOL    HW1 6143   6.028   1.085   4.101 -1.2084 -0.1355 -0.1807
 1748SOL    HW2 6144   6.055   1.016   3.955 -1.3682 -1.5191  0.4288
 1749SOL     OW 6145   0.718   0.259   2.761 -0.3215 -0.6152 -0.4819
 1749SOL    HW1 6146   0.625   0.273   2.727 -0.1288 -0.6631 -1.0367
 1749SOL    HW2 6147   0.782   0.265   2.685  0.2484  0.5676  0.0620
 1750SOL     OW 6148   2.412   1.558   2.927  0.2253 -0.0790  0.1655
 1750SOL    HW1 6149   2.348   1.481   2.918  2.7800 -2.1986 -0.9913
 1750SOL    HW2 6150   2.447   1.562   3.021  0.4990 -0.6704  0.0879
 1751SOL     OW 6151   6.324   2.841   4.945  0.0946  0.5700 -0.2901
 1751SOL    HW1 6152   6.268   2.812   4.867 -0.6415  1.9917 -0.3089
 1751SOL    HW2 6153   6.345   2.762   5.002  0.0941 -0.3860 -1.5757
 1752SOL     OW 6154   6.094   0.805   2.588 -0.6297  0.2565 -0.3079
 1752SOL    HW1 6155   6.184   0.783   2.552 -1.2760 -0.2437 -1.6683
 1752SOL    HW2 6156   6.079   0.755   2.674 -0.1789 -0.7916 -0.8324
 1753SOL     OW 6157   0.266   1.070   2.332 -0.2919 -0.1707  0.1861
 1753SOL    HW1 6158   0.235   1.030   2.245 -2.3985  0.7782  0.4546
 1753SOL    HW2 6159   0.208   1.037   2.406  0.6414  0.0848  1.0409
 1754SOL     OW 6160   2.222   6.266   0.596  0.1732 -0.3165  0.0067
 1754SOL    HW1 6161   2.227   6.174   0.558  1.5796  0.4053 -1.6734
 1754SOL    HW2 6162   2.183   6.328   0.528  1.2053  0.7223  0.3351
 1755SOL     OW 6163   2.249   5.599   0.738 -0.5507 -0.2212  0.2894
 1755SOL    HW1 6164   2.297   5.687   0.730 -2.0628  0.6299  0.2372
 1755SOL    HW2 6165   2.247   5.571   0.834 -0.5581  0.0890  0.3814
 1756SOL     OW 6166   4.143   5.594   0.371 -0.2985 -0.2351  0.0865
 1756SOL    HW1 6167   4.219   5.651   0.342  0.1532 -0.8376  0.0602
 1756SOL    HW2 6168   4.178   5.516   0.423 -0.9314 -0.2870  0.4424
 1757SOL     OW 6169   2.769   4.401   5.872  0.1265 -0.7696 -0.2523
 1757SOL    HW1 6170   2.855   4.407   5.923  0.2060 -0.3899 -0.4280
 1757SOL    HW2 6171   2.783   4.434   5.779 -0.7354  1.5505  0.3714
 1758SOL     OW 6172   2.830   6.503   2.774  0.5640 -0.3241  0.0310
 1758SOL    HW1 6173   2.826   6.548   2.684 -0.7616 -0.2508  0.0938
 1758SOL    HW2 6174   2.791   6.411   2.766  0.3314 -0.2725  0.5455
 1759SOL     OW 6175   1.500   5.653   5.202 -0.2031  0.2753 -0.4571
 1759SOL    HW1 6176   1.467   5.654   5.108  1.4700  1.4630 -1.0574
 1759SOL    HW2 6177   1.446   5.716   5.257  0.1791  1.1943 -1.1214
 1760SOL     OW 6178   5.122   0.548   4.337 -0.1509  0.4742  0.3453
 1760SOL    HW1 6179   5.057   0.513   4.269  0.3219 -0.1007  0.1780
 1760SOL    HW2 6180   5.212   0.558   4.294 -0.1007  1.1593  0.6040
 1761SOL     OW 6181   0.201   0.553   1.692  0.3067 -0.4003  0.0109
 1761SOL    HW1 6182   0.126   0.488   1.702  0.4246 -0.7650 -1.3609
 1761SOL    HW2 6183   0.166   0.646   1.710 -0.2039 -0.6770  0.4908
 1762SOL     OW 6184   1.378   2.312   4.751 -0.4733  0.5506 -0.9270
 1762SOL    HW1 6185   1.291   2.350   4.720 -2.4567 -3.8583 -1.5064
 1762SOL    HW2 6186   1.370   2.288   4.848  0.3279  0.6398 -0.8350
 1763SOL     OW 6187   0.280   5.607   4.037 -0.3842  0.0340 -0.0570
 1763SOL    HW1 6188   0.337   5.578   4.114 -1.0261 -1.1696 -0.0132
 1763SOL    HW2 6189   0.184   5.586   4.056 -0.6166  0.2180 -0.9627
 1764SOL     OW 6190   2.471   1.793   2.460  0.6541 -0.0664 -0.2164
 1764SOL    HW1 6191   2.413   1.712   2.454  2.1235 -1.4499  2.4796
 1764SOL    HW2 6192   2.554   1.778   2.407  0.5642  0.0276 -0.3849
 1765SOL     OW 6193   4.377   4.376   6.181  0.1817  0.5217  0.7494
 1765SOL    HW1 6194   4.431   4.373   6.097  0.2670 -0.0558  0.8237
 1765SOL    HW2 6195   4.279   4.371   6.158  0.2235 -0.2831  0.7113
 1766SOL     OW 6196   6.127   4.825   2.021  0.8077  0.3522  0.1208
 1766SOL    HW1 6197   6.172   4.818   1.932  2.1412  0.6819  0.7457
 1766SOL    HW2 6198   6.060   4.751   2.031 -0.3791  1.0959 -1.6834
 1767SOL     OW 6199   0.299   4.692   3.132  1.1168 -0.6144 -0.0505
 1767SOL    HW1 6200   0.324   4.701   3.228 -0.5587  0.0921  0.3501
 1767SOL    HW2 6201   0.238   4.766   3.106 -0.7881 -2.3618 -0.8520
 1768SOL     OW 6202   3.678   1.233   0.592  0.3473 -0.0693  0.2532
 1768SOL    HW1 6203   3.611   1.258   0.662  0.5689  1.0200  0.0966
 1768SOL    HW2 6204   3.748   1.174   0.633  1.0958  1.4519  1.2850
 1769SOL     OW 6205   3.928   0.739   7.020  0.4675 -0.0744 -0.2671
 1769SOL    HW1 6206   3.914   0.658   6.963 -1.1076 -0.2116  0.2771
 1769SOL    HW2 6207   3.895   0.721   7.112  0.1480  1.1750 -0.1233
 1770SOL     OW 6208   0.950   5.438   4.341  0.1532  0.5535  0.3103
 1770SOL    HW1 6209   0.954   5.399   4.249  0.1224 -0.4720  0.7286
 1770SOL    HW2 6210   0.855   5.446   4.371  0.1222  1.5439  0.0010
 1771SOL     OW 6211   0.905   5.404   0.436  0.5266 -0.4314 -0.5882
 1771SOL    HW1 6212   0.988   5.363   0.398  1.0003  0.5117 -0.5973
 1771SOL    HW2 6213   0.835   5.333   0.446  0.9417 -1.0222 -1.6513
 1772SOL     OW 6214   3.091   4.304   5.507 -0.1100 -0.6498  0.0257
 1772SOL    HW1 6215   3.021   4.279   5.440 -0.2787 -0.3993  0.1052
 1772SOL    HW2 6216   3.156   4.229   5.517  0.2062 -0.4940 -0.7946
 1773SOL     OW 6217   0.140   0.877   3.403  0.0334 -0.4324  0.8689
 1773SOL    HW1 6218   0.234   0.878   3.436  0.3137  0.9228  0.1053
 1773SOL    HW2 6219   0.127   0.800   3.341  1.3015  0.5979 -0.7592
 1774SOL     OW 6220   5.127   6.668   0.485  0.4953  0.7722 -0.6649
 1774SOL    HW1 6221   5.092   6.603   0.552 -0.9850  3.6710  1.5965
 1774SOL    HW2 6222   5.219   6.697   0.512  0.1931  1.3819 -0.2605
 1775SOL     OW 6223   1.587   6.282   5.938 -0.2676 -0.1696 -0.1219
 1775SOL    HW1 6224   1.662   6.217   5.951  0.8468  0.6208 -2.1809
 1775SOL    HW2 6225   1.596   6.357   6.004 -0.3968 -1.0274  0.9099
 1776SOL     OW 6226   3.940   0.743   4.776 -0.0299  0.8152  0.4930
 1776SOL    HW1 6227   4.020   0.803   4.774  1.4272 -1.0048  1.4505
 1776SOL    HW2 6228   3.955   0.666   4.714 -1.2856  0.7143  0.2909
 1777SOL     OW 6229   4.747   5.429   5.612  0.1458 -0.1805  0.3888
 1777SOL    HW1 6230   4.663   5.385   5.582  0.0078  0.0227  0.4737
 1777SOL    HW2 6231   4.731   5.478   5.698  0.1826  0.3785  0.0851
 1778SOL     OW 6232   4.985   1.396   4.119 -0.5044 -0.3787 -0.4909
 1778SOL    HW1 6233   4.950   1.487   4.137  1.2290  0.2963 -0.3207
 1778SOL    HW2 6234   4.973   1.374   4.022 -2.4966 -0.7162 -0.2076
 1779SOL     OW 6235   5.287   6.896   0.514  0.0604 -0.3430 -0.3459
 1779SOL    HW1 6236   5.316   6.881   0.608  0.5085  0.9615 -0.2458
 1779SOL    HW2 6237   5.349   6.848   0.452 -0.7336 -1.9052  0.0248
 1780SOL     OW 6238   6.841   5.634   4.164  0.1867 -0.3982 -0.1029
 1780SOL    HW1 6239   6.910   5.596   4.226 -0.2816 -0.6807  0.2456
 1780SOL    HW2 6240   6.886   5.697   4.100  0.7445 -0.4606  0.2177
 1781SOL     OW 6241   5.888   5.632   0.336 -0.2596 -0.1845 -0.3719
 1781SOL    HW1 6242   5.825   5.685   0.393 -0.7104  1.0821 -1.9660
 1781SOL    HW2 6243   5.955   5.586   0.394 -2.1003 -0.8578  1.3062
 1782SOL     OW 6244   1.247   0.624   2.988  0.1261 -0.3109  0.0272
 1782SOL    HW1 6245   1.212   0.615   3.081 -1.3591  1.0320 -0.3748
 1782SOL    HW2 6246   1.195   0.693   2.938 -0.2421 -2.1466 -2.3455
 1783SOL     OW 6247   1.918   1.896   6.100  0.0882 -0.4291 -0.3080
 1783SOL    HW1 6248   1.932   1.801   6.074 -1.1451 -0.2685 -1.7506
 1783SOL    HW2 6249   1.821   1.920   6.089  0.0030  0.4963  1.8579
 1784SOL     OW 6250   1.596   6.866   2.029  0.2782  0.7115 -0.0171
 1784SOL    HW1 6251   1.562   6.812   2.105  0.3728 -0.2013 -0.6068
 1784SOL    HW2 6252   1.620   6.805   1.953  1.9467  1.4340 -0.1086
 1785SOL     OW 6253   5.837   4.795   2.201 -0.6109  0.6465 -0.0699
 1785SOL    HW1 6254   5.772   4.823   2.271 -2.0270 -2.1575 -0.1345
 1785SOL    HW2 6255   5.927   4.781   2.242 -1.5046 -1.3502  1.3751
 1786SOL     OW 6256   0.598   6.379   0.889  0.1423 -0.1356  0.8311
 1786SOL    HW1 6257   0.500   6.364   0.902 -0.1269 -0.0458 -0.8566
 1786SOL    HW2 6258   0.614   6.476   0.872 -0.2457 -0.6670 -3.9790
 1787SOL     OW 6259   3.248   2.813   6.534 -0.1220 -0.1762 -0.5190
 1787SOL    HW1 6260   3.330   2.849   6.577 -0.6898  0.2408  0.2526
 1787SOL    HW2 6261   3.272   2.738   6.472  0.7011 -1.0613  0.8096
 1788SOL     OW 6262   3.141   4.943   1.630 -0.1107 -0.2163  0.2669
 1788SOL    HW1 6263   3.238   4.927   1.614  0.0010  0.7268 -0.0705
 1788SOL    HW2 6264   3.111   4.890   1.710  1.4295  1.8299  2.3495
 1789SOL     OW 6265   6.789   2.958   0.705 -0.4917  0.0899 -0.3355
 1789SOL    HW1 6266   6.773   2.884   0.640  0.7508 -0.8453  0.3822
 1789SOL    HW2 6267   6.884   2.989   0.697 -0.6432  0.7449  0.2647
 1790SOL     OW 6268   3.090   1.835   3.985 -0.0167  0.5711 -0.4917
 1790SOL    HW1 6269   3.094   1.875   3.894 -0.6935  2.2217  0.1606
 1790SOL    HW2 6270   3.129   1.899   4.052 -3.4355  1.4324  0.9450
 1791SOL     OW 6271   6.941   1.064   2.559 -0.5506  0.1120 -0.5345
 1791SOL    HW1 6272   6.923   1.038   2.654 -1.7924  0.4587 -0.6555
 1791SOL    HW2 6273   6.919   1.161   2.547  0.0167  0.1765 -1.0707
 1792SOL     OW 6274   6.778   3.229   4.950  0.3046 -0.0171  0.2084
 1792SOL    HW1 6275   6.753   3.221   5.047 -1.4085 -2.4892 -0.3536
 1792SOL    HW2 6276   6.709   3.284   4.903 -0.0801 -0.6687  0.0033
 1793SOL     OW 6277   6.486   1.058   1.778 -0.2287  0.7613 -0.0106
 1793SOL    HW1 6278   6.411   1.116   1.810 -0.4708  0.4371  0.0122
 1793SOL    HW2 6279   6.547   1.039   1.855 -0.6065  0.2951  0.1820
 1794SOL     OW 6280   6.232   5.123   6.277  0.3069 -0.6747  0.6295
 1794SOL    HW1 6281   6.263   5.028   6.281  1.8241 -0.2972 -0.8528
 1794SOL    HW2 6282   6.276   5.175   6.351  1.4572 -0.6434 -0.0432
 1795SOL     OW 6283   6.346   4.550   0.438  0.5402  0.1324 -0.6033
 1795SOL    HW1 6284   6.390   4.601   0.363 -0.0213  1.1865 -0.2418
 1795SOL    HW2 6285   6.407   4.550   0.517  0.4326  0.4840 -0.5177
 1796SOL     OW 6286   1.689   1.384   6.289 -0.3398  0.3596  0.2192
 1796SOL    HW1 6287   1.615   1.344   6.235  0.8069  0.2146 -1.3367
 1796SOL    HW2 6288   1.765   1.319   6.293  0.3643  1.1703  0.3121
 1797SOL     OW 6289   6.426   0.507   3.258  0.1398 -0.3255 -0.4419
 1797SOL    HW1 6290   6.365   0.469   3.189 -1.9400  0.3448  0.8978
 1797SOL    HW2 6291   6.401   0.603   3.274  0.6822 -0.4111  1.0613
 1798SOL     OW 6292   3.787   3.542   4.538 -0.3196  0.2480  0.3561
 1798SOL    HW1 6293   3.733   3.458   4.550  0.3722 -0.4556 -1.1460
 1798SOL    HW2 6294   3.817   3.575   4.627  2.5303 -3.2347  0.9108
 1799SOL     OW 6295   6.356   1.870   5.818 -0.3821 -0.3673 -0.7276
 1799SOL    HW1 6296   6.317   1.923   5.894 -0.0493 -0.6100 -0.3855
 1799SOL    HW2 6297   6.451   1.897   5.804 -0.2238 -0.8431 -0.5775
 1800SOL     OW 6298   6.099   4.159   3.484  0.4027  0.1574 -0.1443
 1800SOL    HW1 6299   6.080   4.174   3.387 -0.8319 -0.3076  0.0101
 1800SOL    HW2 6300   6.094   4.247   3.532 -0.8033  0.1435 -0.2163
 1801SOL     OW 6301   0.346   6.177   2.357 -0.8480 -0.6034  0.6939
 1801SOL    HW1 6302   0.399   6.126   2.425  0.4322  0.1726  0.3130
 1801SOL    HW2 6303   0.290   6.246   2.404 -0.3473 -0.4030  1.0167
 1802SOL     OW 6304   6.602   4.494   3.528  0.1617 -0.6304 -0.2940
 1802SOL    HW1 6305   6.524   4.454   3.577 -1.7909  3.4346  0.3052
 1802SOL    HW2 6306   6.581   4.501   3.431  1.1575 -2.3018 -0.6746
 1803SOL     OW 6307   1.625   0.134   0.437 -0.2221  0.5100  0.4564
 1803SOL    HW1 6308   1.680   0.092   0.364 -0.0289  0.6618  0.5131
 1803SOL    HW2 6309   1.634   0.080   0.521 -0.5160  0.2842  0.3471
 1804SOL     OW 6310   5.298   3.432   6.347  0.2586  0.4287  0.4663
 1804SOL    HW1 6311   5.257   3.442   6.437 -0.0347 -0.3586  0.4279
 1804SOL    HW2 6312   5.334   3.339   6.337  0.6023  0.6199 -0.0942
 1805SOL     OW 6313   2.009   4.357   6.559 -0.1952 -0.1658 -0.1102
 1805SOL    HW1 6314   1.918   4.382   6.528 -0.1834 -0.6723 -0.5572
 1805SOL    HW2 6315   2.076   4.423   6.523 -0.5753  1.3236  1.7458
 1806SOL     OW 6316   0.590   2.220   2.039  0.1922  0.1977  0.3638
 1806SOL    HW1 6317   0.686   2.192   2.039  0.9274  2.5036  1.2503
 1806SOL    HW2 6318   0.545   2.184   1.957  1.9674 -0.4249 -0.3886
 1807SOL     OW 6319   5.628   2.577   0.134  0.6996  0.4223 -0.1050
 1807SOL    HW1 6320   5.604   2.632   0.053 -0.3466 -0.0813 -0.1560
 1807SOL    HW2 6321   5.636   2.481   0.107  0.0885  0.2144  0.4329
 1808SOL     OW 6322   4.592   3.372   0.021 -0.3288  0.7127 -0.6598
 1808SOL    HW1 6323   4.644   3.311   0.079  0.1373  0.8177 -0.9616
 1808SOL    HW2 6324   4.522   3.419   0.075  1.2062  2.1047  0.1984
 1809SOL     OW 6325   2.122   0.773   5.023  0.0477  0.1550  0.0739
 1809SOL    HW1 6326   2.041   0.769   5.081 -0.0515  0.0594 -0.0726
 1809SOL    HW2 6327   2.148   0.681   4.995  0.3386  0.1637  0.3012
 1810SOL     OW 6328   6.040   1.348   5.708 -0.1058 -0.1034  0.3179
 1810SOL    HW1 6329   5.985   1.390   5.780  1.1363 -0.2888  1.4246
 1810SOL    HW2 6330   6.122   1.307   5.749  1.1582  0.6872 -1.3110
 1811SOL     OW 6331   5.109   4.244   2.016 -0.1440  0.1124  0.0775
 1811SOL    HW1 6332   5.066   4.243   2.106 -0.0265  0.3577  0.1366
 1811SOL    HW2 6333   5.053   4.299   1.953  1.0819  2.1257  0.6579
 1812SOL     OW 6334   4.822   0.698   1.279 -0.3605  0.4452 -0.0573
 1812SOL    HW1 6335   4.787   0.616   1.234 -1.7272 -1.0435  3.2983
 1812SOL    HW2 6336   4.912   0.678   1.320  0.3735  1.4129 -1.1430
 1813SOL     OW 6337   5.899   3.268   1.853 -0.4835 -0.1977  0.3443
 1813SOL    HW1 6338   5.973   3.210   1.884 -0.5860 -0.0938  0.7983
 1813SOL    HW2 6339   5.812   3.220   1.864 -0.5384 -0.0824  0.4127
 1814SOL     OW 6340   6.108   0.247   6.603 -0.3818  0.5916  0.3015
 1814SOL    HW1 6341   6.178   0.288   6.544  0.2809 -1.5274 -0.4823
 1814SOL    HW2 6342   6.037   0.206   6.545 -0.5445 -0.1483  1.0158
 1815SOL     OW 6343   5.449   4.779   2.604  0.0179 -0.3221  0.3394
 1815SOL    HW1 6344   5.426   4.683   2.586  0.5087 -0.3751 -0.0568
 1815SOL    HW2 6345   5.490   4.818   2.522  0.8625 -0.0963  0.8617
 1816SOL     OW 6346   4.422   0.628   6.395 -0.4158  0.0362  0.2226
 1816SOL    HW1 6347   4.456   0.685   6.320 -1.8199  1.3228  0.4941
 1816SOL    HW2 6348   4.429   0.679   6.481 -0.8898 -0.5471  0.6155
 1817SOL     OW 6349   3.945   2.035   3.055  0.3227  0.5565 -0.1777
 1817SOL    HW1 6350   3.968   2.025   3.152  1.1721 -2.4483 -0.6029
 1817SOL    HW2 6351   3.848   2.057   3.046  0.2146  0.8481  1.3309
 1818SOL     OW 6352   1.209   6.611   0.569 -0.1898  0.5049 -0.0866
 1818SOL    HW1 6353   1.280   6.660   0.620 -0.5598  0.9024  0.0512
 1818SOL    HW2 6354   1.189   6.525   0.614 -0.1655  0.6304  0.1651
 1819SOL     OW 6355   0.572   6.304   3.467  0.0690  0.2685  0.4223
 1819SOL    HW1 6356   0.509   6.313   3.544  0.0629  0.2319  0.4211
 1819SOL    HW2 6357   0.665   6.293   3.501 -0.0969 -1.1474  0.4387
 1820SOL     OW 6358   4.667   2.120   2.960 -0.8037 -0.1376  0.1298
 1820SOL    HW1 6359   4.607   2.054   2.915 -0.2003 -0.9390  0.4670
 1820SOL    HW2 6360   4.753   2.075   2.984 -0.2117  0.8906 -0.0106
 1821SOL     OW 6361   2.282   0.283   2.410  0.1702 -0.2591  0.1839
 1821SOL    HW1 6362   2.346   0.219   2.367 -0.0317  0.0527 -0.5947
 1821SOL    HW2 6363   2.331   0.343   2.472  0.7220  0.2981 -0.7669
 1822SOL     OW 6364   1.759   5.182   2.068 -0.7872 -0.1240  0.4107
 1822SOL    HW1 6365   1.827   5.113   2.044  1.7836  1.5674  2.2795
 1822SOL    HW2 6366   1.692   5.143   2.131 -0.6412 -1.4202 -0.2066
 1823SOL     OW 6367   3.895   6.959   2.816  0.3236  0.2133 -0.1832
 1823SOL    HW1 6368   3.979   6.989   2.861 -0.2394  1.4684  0.0733
 1823SOL    HW2 6369   3.826   6.938   2.885  0.1364  0.0741 -0.4126
 1824SOL     OW 6370   2.708   3.394   7.009 -0.1635 -0.1124 -0.0844
 1824SOL    HW1 6371   2.806   3.386   7.028 -0.1789  1.1335  0.5718
 1824SOL    HW2 6372   2.694   3.409   6.911  0.0986 -3.2814 -0.7257
 1825SOL     OW 6373   0.912   3.460   3.292  0.3411 -0.2647 -0.1175
 1825SOL    HW1 6374   0.959   3.460   3.204 -0.0053  0.3767 -0.3026
 1825SOL    HW2 6375   0.814   3.446   3.278  0.3078 -0.3425  0.1810
 1826SOL     OW 6376   4.130   1.183   1.176  0.1457  0.1269 -0.1462
 1826SOL    HW1 6377   4.068   1.112   1.142 -0.8229  0.7560  0.2807
 1826SOL    HW2 6378   4.214   1.183   1.121  0.3929 -1.6975  0.1784
 1827SOL     OW 6379   6.486   4.387   1.191  0.2402 -0.6261 -0.5246
 1827SOL    HW1 6380   6.500   4.435   1.278  4.1045  0.9393 -1.7806
 1827SOL    HW2 6381   6.522   4.294   1.199 -1.2004 -1.1670  0.0252
 1828SOL     OW 6382   1.485   4.672   5.613  0.5521 -0.1866  0.3144
 1828SOL    HW1 6383   1.436   4.589   5.589 -0.1399 -0.5487  2.7858
 1828SOL    HW2 6384   1.559   4.651   5.677  1.7527  0.8408 -0.6753
 1829SOL     OW 6385   3.510   0.394   3.293 -0.0176  0.1551 -0.3881
 1829SOL    HW1 6386   3.430   0.434   3.338  0.3254  0.4814 -0.0641
 1829SOL    HW2 6387   3.554   0.462   3.235  1.4595  0.7526  1.3407
 1830SOL     OW 6388   0.192   6.933   5.341 -0.3087 -0.2636 -0.6917
 1830SOL    HW1 6389   0.265   6.870   5.367  0.0321 -0.1503 -1.3387
 1830SOL    HW2 6390   0.197   7.016   5.397 -1.4490 -1.2400  0.9420
 1831SOL     OW 6391   4.329   0.850   3.294  0.2013 -0.2208 -0.3867
 1831SOL    HW1 6392   4.379   0.936   3.298 -0.9094  0.4740 -1.1039
 1831SOL    HW2 6393   4.243   0.863   3.246  0.2152 -1.8396 -0.9165
 1832SOL     OW 6394   4.190   5.036   7.014 -0.0597 -0.7437  0.0421
 1832SOL    HW1 6395   4.283   5.007   6.991  0.3063 -0.1712  0.7600
 1832SOL    HW2 6396   4.194   5.106   7.085 -0.9710  0.2609 -0.8595
 1833SOL     OW 6397   2.523   0.420   2.218 -0.2600 -0.2251  0.6514
 1833SOL    HW1 6398   2.476   0.506   2.196  0.9779  0.2777 -0.0871
 1833SOL    HW2 6399   2.565   0.428   2.308  0.0353  0.0210  0.4919
 1834SOL     OW 6400   3.590   3.229   1.470 -0.3273  0.0835  0.3266
 1834SOL    HW1 6401   3.513   3.285   1.441 -0.5931  0.2013  1.2287
 1834SOL    HW2 6402   3.671   3.254   1.416 -1.1802 -0.9349 -1.5386
 1835SOL     OW 6403   1.011   5.083   0.732  0.1890  0.1953 -0.2485
 1835SOL    HW1 6404   1.075   5.160   0.718 -0.5877  1.2582  1.6251
 1835SOL    HW2 6405   0.995   5.072   0.830 -0.5044 -1.7499 -0.5565
 1836SOL     OW 6406   4.144   2.011   2.631 -0.2399 -0.3450 -0.0336
 1836SOL    HW1 6407   4.230   1.994   2.584 -0.4516 -0.1464 -0.4984
 1836SOL    HW2 6408   4.126   2.110   2.635  0.4654 -0.2444  1.7216
 1837SOL     OW 6409   1.419   1.239   5.588  0.2963 -0.4571  0.1683
 1837SOL    HW1 6410   1.360   1.320   5.585 -0.2816 -0.8771 -0.1015
 1837SOL    HW2 6411   1.362   1.157   5.587  0.9038 -0.9602 -3.2322
 1838SOL     OW 6412   5.122   0.151   6.497 -0.3476 -0.1356 -0.4033
 1838SOL    HW1 6413   5.059   0.162   6.420  0.1124  1.1425 -0.6239
 1838SOL    HW2 6414   5.082   0.090   6.565 -0.8309 -1.1865 -1.5759
 1839SOL     OW 6415   1.192   2.132   6.626  0.2421  0.6119  0.2877
 1839SOL    HW1 6416   1.217   2.066   6.555 -0.1921 -0.3365  1.0035
 1839SOL    HW2 6417   1.194   2.224   6.587  0.4606  0.1521 -0.8326
 1840SOL     OW 6418   5.325   1.093   2.775 -0.2630  0.1857 -0.0956
 1840SOL    HW1 6419   5.396   1.050   2.832 -0.6598  2.4306  2.2780
 1840SOL    HW2 6420   5.236   1.081   2.820 -0.6379  1.7316 -0.3722
 1841SOL     OW 6421   2.716   6.970   3.314 -0.0045  0.7895  0.3071
 1841SOL    HW1 6422   2.740   6.943   3.221 -0.4817  2.4196 -0.3148
 1841SOL    HW2 6423   2.707   7.069   3.319 -1.4912  0.6233  1.7331
 1842SOL     OW 6424   0.279   5.339   6.979 -0.1883 -0.3687 -0.1215
 1842SOL    HW1 6425   0.287   5.273   6.904 -1.7306  1.1361 -1.7033
 1842SOL    HW2 6426   0.245   5.292   7.061  0.3896 -1.8271 -0.6884
 1843SOL     OW 6427   2.396   0.837   4.855  0.2266 -0.0729 -0.1329
 1843SOL    HW1 6428   2.342   0.819   4.937 -0.3257 -2.2598 -0.8916
 1843SOL    HW2 6429   2.454   0.758   4.836  0.5880  0.5265 -1.6542
 1844SOL     OW 6430   4.719   1.209   4.069 -0.0676  0.1305  0.1626
 1844SOL    HW1 6431   4.745   1.267   4.146  0.6471 -1.4802  1.1852
 1844SOL    HW2 6432   4.800   1.188   4.014 -0.3283  0.1351 -0.2275
 1845SOL     OW 6433   3.971   1.646   3.542 -0.0918  0.4596  0.0559
 1845SOL    HW1 6434   3.942   1.602   3.457  1.8157 -1.0153  0.1000
 1845SOL    HW2 6435   4.051   1.703   3.525  2.1431 -2.1173  1.2412
 1846SOL     OW 6436   4.890   5.541   4.248  0.6287  0.2664  0.0474
 1846SOL    HW1 6437   4.888   5.629   4.295 -0.1633 -0.1093  0.7316
 1846SOL    HW2 6438   4.797   5.508   4.234  0.6555  1.2881 -3.5893
 1847SOL     OW 6439   1.269   6.328   3.901 -0.4854  0.2852  0.0014
 1847SOL    HW1 6440   1.208   6.386   3.846 -0.9885 -0.7711 -0.5758
 1847SOL    HW2 6441   1.241   6.331   3.997  0.7426  2.6012  0.3528
 1848SOL     OW 6442   2.798   6.151   3.469  0.3175 -0.1391 -0.1619
 1848SOL    HW1 6443   2.701   6.176   3.475  0.6120  1.2221 -0.5806
 1848SOL    HW2 6444   2.844   6.212   3.404  1.8607  0.6015  1.5263
 1849SOL     OW 6445   5.444   3.107   0.955  0.0468 -0.0683 -0.0236
 1849SOL    HW1 6446   5.512   3.055   1.005  1.9767  1.6176 -0.7537
 1849SOL    HW2 6447   5.411   3.053   0.877 -1.5167 -1.9276  1.8089
 1850SOL     OW 6448   6.747   3.332   1.577 -0.1705 -0.2392  0.0121
 1850SOL    HW1 6449   6.694   3.337   1.492  0.3837  0.1367 -0.3191
 1850SOL    HW2 6450   6.823   3.268   1.565  0.3972  0.4422 -0.0522
 1851SOL     OW 6451   0.477   3.884   5.329  0.0180  0.2457 -0.2628
 1851SOL    HW1 6452   0.409   3.936   5.381 -1.3918 -0.8352 -0.9471
 1851SOL    HW2 6453   0.564   3.933   5.330  0.5583 -0.3628  4.3090
 1852SOL     OW 6454   6.068   4.203   1.445 -0.0566  0.1556  0.3169
 1852SOL    HW1 6455   6.103   4.163   1.360  1.1789 -0.0174  0.8814
 1852SOL    HW2 6456   6.130   4.276   1.475 -0.0975 -0.2447  1.4191
 1853SOL     OW 6457   1.547   2.769   2.820 -0.4781 -0.1979  0.0535
 1853SOL    HW1 6458   1.460   2.816   2.829  0.6220  2.1348 -0.6488
 1853SOL    HW2 6459   1.596   2.771   2.908 -0.5835 -0.3724  0.1171
 1854SOL     OW 6460   2.006   6.490   3.356  0.0850 -0.1742 -0.3757
 1854SOL    HW1 6461   1.964   6.509   3.267  1.0504  1.3176 -0.5538
 1854SOL    HW2 6462   2.067   6.411   3.348  2.1267  1.4293 -1.7490
 1855SOL     OW 6463   5.281   2.789   2.835  0.7479  0.8510 -0.3541
 1855SOL    HW1 6464   5.218   2.834   2.772  0.3213  1.4587  0.4876
 1855SOL    HW2 6465   5.297   2.695   2.805 -0.4443  0.7332 -0.6620
 1856SOL     OW 6466   5.694   1.071   0.416 -0.1365  0.0948 -0.8504
 1856SOL    HW1 6467   5.676   1.023   0.503 -0.4613 -1.5859 -1.7961
 1856SOL    HW2 6468   5.786   1.049   0.384  0.7106  2.2141 -0.0529
 1857SOL     OW 6469   4.665   1.775   6.398  0.2925 -0.6077  0.0667
 1857SOL    HW1 6470   4.716   1.860   6.385 -3.3735  1.6074 -1.2673
 1857SOL    HW2 6471   4.649   1.732   6.309  0.1664 -1.4712  0.5016
 1858SOL     OW 6472   4.702   2.723   2.391 -0.0550 -0.6620  0.1846
 1858SOL    HW1 6473   4.695   2.757   2.485  0.9247 -1.0581  0.4195
 1858SOL    HW2 6474   4.753   2.789   2.335 -1.5416  0.0720 -0.3540
 1859SOL     OW 6475   6.143   1.944   4.639 -0.6895 -0.5013 -0.2711
 1859SOL    HW1 6476   6.218   2.000   4.603 -1.4085  0.1483 -0.7904
 1859SOL    HW2 6477   6.100   1.991   4.717 -0.1228 -1.1962  0.4825
 1860SOL     OW 6478   2.344   1.179   5.178  0.3098  0.1939 -0.0953
 1860SOL    HW1 6479   2.317   1.253   5.240 -1.2383  1.5960 -2.3192
 1860SOL    HW2 6480   2.262   1.134   5.143  1.1686 -0.9239 -0.7270
 1861SOL     OW 6481   6.712   1.495   1.815  0.1024 -0.5156  0.2210
 1861SOL    HW1 6482   6.692   1.444   1.898  1.4952  0.7514  1.3889
 1861SOL    HW2 6483   6.738   1.589   1.839 -1.9757  0.6864 -1.8093
 1862SOL     OW 6484   1.798   6.983   6.397 -0.0912 -0.4696  0.0663
 1862SOL    HW1 6485   1.872   6.919   6.418 -0.2172 -0.5876  0.1457
 1862SOL    HW2 6486   1.797   7.056   6.464  0.0819 -0.3594 -0.0502
 1863SOL     OW 6487   0.259   5.046   0.811 -0.3853  0.4132  0.1777
 1863SOL    HW1 6488   0.230   4.953   0.786 -4.1197  1.2640  0.7114
 1863SOL    HW2 6489   0.278   5.098   0.728  0.2562 -0.3914 -0.1956
 1864SOL     OW 6490   0.902   4.303   5.411 -0.5060  0.1882 -0.5029
 1864SOL    HW1 6491   0.859   4.388   5.382  0.8008 -0.2991 -4.4761
 1864SOL    HW2 6492   0.835   4.245   5.458 -2.2014  2.1732 -0.3632
 1865SOL     OW 6493   5.002   0.360   1.400 -0.0790 -0.4005 -0.0319
 1865SOL    HW1 6494   4.925   0.323   1.452 -0.6670  0.9484  0.0939
 1865SOL    HW2 6495   5.000   0.460   1.404  1.8955 -0.3252  0.2880
 1866SOL     OW 6496   0.127   3.076   4.697 -0.6729  0.1603  0.4446
 1866SOL    HW1 6497   0.087   3.078   4.789  2.2397  0.1273  1.8384
 1866SOL    HW2 6498   0.135   3.170   4.663 -2.4522  0.1261 -0.1646
 1867SOL     OW 6499   2.902   3.892   0.904 -0.5505 -0.6719 -0.1700
 1867SOL    HW1 6500   2.876   3.971   0.848  1.4297 -0.0372 -0.2787
 1867SOL    HW2 6501   2.986   3.851   0.867 -0.7700 -1.9717  0.7103
 1868SOL     OW 6502   4.696   4.247   4.298  0.1804 -0.6659  0.1310
 1868SOL    HW1 6503   4.631   4.311   4.338  0.7994 -0.2257  0.4420
 1868SOL    HW2 6504   4.702   4.263   4.199  1.2690  0.6272  0.3821
 1869SOL     OW 6505   5.934   2.325   3.530 -0.1546  0.4886 -0.7148
 1869SOL    HW1 6506   5.980   2.388   3.468  1.0165  0.0298 -0.3423
 1869SOL    HW2 6507   5.973   2.233   3.520 -0.4541  0.2512  0.1613
 1870SOL     OW 6508   0.733   4.240   3.935  0.5328 -0.4997  0.4097
 1870SOL    HW1 6509   0.765   4.251   4.029  2.9050 -2.5509 -0.0455
 1870SOL    HW2 6510   0.811   4.243   3.872 -1.0313  1.3529 -1.6272
 1871SOL     OW 6511   0.561   0.609   5.607 -0.1789 -0.4376  0.4175
 1871SOL    HW1 6512   0.464   0.586   5.612 -0.0853 -1.1817 -0.8122
 1871SOL    HW2 6513   0.615   0.529   5.634  0.1201 -1.1911 -2.1835
 1872SOL     OW 6514   4.484   2.588   0.897  0.2382 -0.6911  0.3149
 1872SOL    HW1 6515   4.416   2.575   0.970  0.1196  0.5297  0.4465
 1872SOL    HW2 6516   4.573   2.553   0.928  0.2286 -0.0313  1.1290
 1873SOL     OW 6517   0.261   1.522   0.105  1.2396 -0.4416  0.1394
 1873SOL    HW1 6518   0.313   1.537   0.189  1.8937 -1.1271 -0.1314
 1873SOL    HW2 6519   0.215   1.433   0.110 -1.2164  0.7861  1.0312
 1874SOL     OW 6520   0.987   0.533   0.788 -0.5873 -0.0831 -0.1433
 1874SOL    HW1 6521   1.029   0.616   0.825  0.0327 -0.6162  0.3527
 1874SOL    HW2 6522   0.905   0.559   0.736  0.2006  0.9459 -0.9358
 1875SOL     OW 6523   5.775   6.634   1.297 -0.0806  0.0859  0.5479
 1875SOL    HW1 6524   5.813   6.677   1.379 -0.7577  2.2872 -0.2047
 1875SOL    HW2 6525   5.772   6.701   1.222 -2.5884 -0.8221 -0.2892
 1876SOL     OW 6526   5.462   0.433   5.801 -0.1914 -0.4329 -0.1183
 1876SOL    HW1 6527   5.534   0.436   5.731 -1.4571 -0.9235 -1.4883
 1876SOL    HW2 6528   5.481   0.501   5.872  1.2793 -0.1323 -0.7669
 1877SOL     OW 6529   6.386   0.238   3.933  0.6800  0.3607 -0.4438
 1877SOL    HW1 6530   6.290   0.233   3.961  0.1975  0.2923 -1.9764
 1877SOL    HW2 6531   6.414   0.150   3.895  0.6215  0.9893 -2.0721
 1878SOL     OW 6532   1.186   3.006   4.954 -0.2727 -0.8549  0.0824
 1878SOL    HW1 6533   1.133   3.033   4.874  0.0924 -1.2911 -0.3066
 1878SOL    HW2 6534   1.197   2.907   4.956  2.2588 -0.6837 -0.9725
 1879SOL     OW 6535   2.774   5.634   4.686 -0.4714 -0.2409  0.5779
 1879SOL    HW1 6536   2.786   5.619   4.784 -1.0517 -0.1449  0.6679
 1879SOL    HW2 6537   2.841   5.700   4.653 -2.4427  2.4508  1.6196
 1880SOL     OW 6538   0.210   1.790   2.681  0.2428 -0.3311 -0.1809
 1880SOL    HW1 6539   0.186   1.722   2.751 -1.0092  1.0484  0.8194
 1880SOL    HW2 6540   0.177   1.759   2.592 -0.3245 -1.0400  0.2581
 1881SOL     OW 6541   6.292   1.095   2.170  0.2781  0.1929  0.9219
 1881SOL    HW1 6542   6.334   1.184   2.183  1.7932 -0.5166  1.1243
 1881SOL    HW2 6543   6.336   1.028   2.230 -0.6016 -0.7523  0.5478
 1882SOL     OW 6544   0.999   5.932   1.176 -0.3099 -0.8605  0.2996
 1882SOL    HW1 6545   1.059   6.004   1.139 -0.2704 -1.1148 -0.1379
 1882SOL    HW2 6546   0.967   5.959   1.267 -0.6326 -0.0916 -0.0304
 1883SOL     OW 6547   0.557   2.664   3.041  0.0747 -0.2811  0.2174
 1883SOL    HW1 6548   0.560   2.656   2.942  1.0992 -1.6275  0.3350
 1883SOL    HW2 6549   0.464   2.647   3.073 -0.5419  1.3536 -0.5658
 1884SOL     OW 6550   3.978   1.602   1.487 -0.7035  0.1074 -0.5117
 1884SOL    HW1 6551   3.961   1.587   1.585 -0.9351  2.9853 -0.0179
 1884SOL    HW2 6552   4.013   1.518   1.446  0.1237 -0.9852  2.2029
 1885SOL     OW 6553   0.934   2.489   2.771  0.1623 -0.5878  0.2741
 1885SOL    HW1 6554   0.990   2.418   2.816  0.0192 -0.8441  0.0466
 1885SOL    HW2 6555   0.925   2.567   2.833  2.4252  0.3106 -0.4023
 1886SOL     OW 6556   2.949   1.978   5.831 -0.1182  0.4443 -0.2580
 1886SOL    HW1 6557   2.922   1.888   5.867  3.1078 -0.6453 -0.2776
 1886SOL    HW2 6558   2.917   1.987   5.737  0.7278 -1.3551 -0.7634
 1887SOL     OW 6559   1.634   2.488   0.293  0.2709  0.5050  0.0882
 1887SOL    HW1 6560   1.560   2.543   0.254  0.5848 -0.1440 -1.4670
 1887SOL    HW2 6561   1.705   2.550   0.329 -0.8882  1.1265  1.4232
 1888SOL     OW 6562   3.087   2.188   4.528  0.0337  0.2074  0.3103
 1888SOL    HW1 6563   3.108   2.170   4.625 -1.9239 -0.9305  0.5662
 1888SOL    HW2 6564   3.005   2.245   4.522 -1.1232 -1.4601 -0.6504
 1889SOL     OW 6565   1.605   4.417   6.396  0.1209 -0.4700 -0.3768
 1889SOL    HW1 6566   1.535   4.483   6.368 -0.3272 -0.0291  1.6570
 1889SOL    HW2 6567   1.600   4.403   6.494  1.7828 -1.7636 -0.4394
 1890SOL     OW 6568   1.026   6.283   6.774 -0.2468  0.6044 -0.1554
 1890SOL    HW1 6569   1.076   6.365   6.804 -0.6310  1.2521 -1.2302
 1890SOL    HW2 6570   1.080   6.202   6.793  0.1052  1.0931  1.0297
 1891SOL     OW 6571   5.183   3.906   4.143 -0.3053  0.6438 -0.6334
 1891SOL    HW1 6572   5.189   3.929   4.046  4.4904  3.3118 -0.0274
 1891SOL    HW2 6573   5.125   3.974   4.189  1.1237  2.2574 -1.1044
 1892SOL     OW 6574   2.383   0.852   2.591 -0.0167 -0.1379  0.6177
 1892SOL    HW1 6575   2.391   0.809   2.501  5.9308  1.9280 -0.3093
 1892SOL    HW2 6576   2.318   0.928   2.587 -0.2940 -0.4402 -1.7946
 1893SOL     OW 6577   2.076   3.656   5.910  0.2504 -0.2197 -0.1752
 1893SOL    HW1 6578   2.007   3.626   5.975  0.1396  0.6555  0.1259
 1893SOL    HW2 6579   2.089   3.755   5.918  0.5914 -0.1723 -1.1418
 1894SOL     OW 6580   3.330   2.872   2.139  0.3071  0.0466 -1.0569
 1894SOL    HW1 6581   3.280   2.953   2.108  0.0139  0.2961  0.0395
 1894SOL    HW2 6582   3.328   2.867   2.239  1.7643 -0.4046 -1.0269
 1895SOL     OW 6583   6.777   0.716   1.735 -0.0337  0.0051  0.2421
 1895SOL    HW1 6584   6.827   0.749   1.655  1.4671 -2.7674 -0.0784
 1895SOL    HW2 6585   6.837   0.713   1.814 -0.3341 -1.0671  0.4534
 1896SOL     OW 6586   0.132   2.503   3.808  0.2625  0.3651 -0.5234
 1896SOL    HW1 6587   0.161   2.459   3.724  0.1450  1.7675 -1.3311
 1896SOL    HW2 6588   0.033   2.517   3.806 -0.2833 -2.4456  1.2747
 1897SOL     OW 6589   5.946   5.436   4.651  0.2918  0.2117  0.5710
 1897SOL    HW1 6590   6.018   5.469   4.711  1.2875 -0.5189 -0.1944
 1897SOL    HW2 6591   5.904   5.514   4.604 -0.0560  0.7209  1.6984
 1898SOL     OW 6592   4.004   1.629   2.868 -0.1399 -0.2573 -0.2330
 1898SOL    HW1 6593   3.993   1.564   2.793 -1.2359  0.2191 -0.5072
 1898SOL    HW2 6594   4.089   1.680   2.856  0.0330 -0.6651 -0.7662
 1899SOL     OW 6595   0.375   3.838   3.384  0.1060  0.2738  0.2924
 1899SOL    HW1 6596   0.299   3.880   3.334  0.7390  1.2850  0.1565
 1899SOL    HW2 6597   0.453   3.900   3.386  1.2773 -1.0943 -0.3599
 1900SOL     OW 6598   5.680   6.526   6.038  0.1503 -0.3260  0.0713
 1900SOL    HW1 6599   5.636   6.592   6.099  1.3877  0.2259  0.3960
 1900SOL    HW2 6600   5.622   6.445   6.029 -0.3364 -0.1571  1.4832
 1901SOL     OW 6601   4.705   1.943   1.274  0.5299 -0.0022  0.2676
 1901SOL    HW1 6602   4.615   1.973   1.243  0.4898  1.3905  1.6018
 1901SOL    HW2 6603   4.768   1.940   1.196  0.4930  3.5438 -0.0628
 1902SOL     OW 6604   0.449   1.131   3.561 -0.2522  0.5166  0.0785
 1902SOL    HW1 6605   0.400   1.143   3.647 -2.0989  0.7882 -0.9586
 1902SOL    HW2 6606   0.546   1.149   3.575 -0.4492  0.2201  2.1591
 1903SOL     OW 6607   0.728   5.583   3.146 -0.0284  0.2751  0.2688
 1903SOL    HW1 6608   0.676   5.498   3.152  1.7432 -0.8698  0.2718
 1903SOL    HW2 6609   0.820   5.567   3.181  0.5897  1.9991 -0.5023
 1904SOL     OW 6610   6.895   1.602   3.593  0.3616 -0.6646 -0.3187
 1904SOL    HW1 6611   6.851   1.628   3.679  0.6823  1.5928 -0.7841
 1904SOL    HW2 6612   6.975   1.660   3.577  0.4999 -1.2568 -1.9754
 1905SOL     OW 6613   0.517   2.556   5.545 -0.1590  0.7319 -0.2622
 1905SOL    HW1 6614   0.448   2.495   5.584  0.7754 -0.3388 -0.2266
 1905SOL    HW2 6615   0.544   2.522   5.455  1.2030  0.4125  0.2427
 1906SOL     OW 6616   1.251   5.993   5.827  0.3181 -0.5872 -0.4648
 1906SOL    HW1 6617   1.284   5.990   5.733 -0.4870 -1.5440 -0.7353
 1906SOL    HW2 6618   1.155   6.020   5.828  0.2067 -0.9780  0.0519
 1907SOL     OW 6619   2.603   1.262   4.055  0.3898  0.6583  0.0661
 1907SOL    HW1 6620   2.505   1.278   4.065  0.4928  0.0019  2.7840
 1907SOL    HW2 6621   2.649   1.280   4.142  2.7151  0.9778 -1.1498
 1908SOL     OW 6622   4.082   1.499   5.392 -0.3122 -0.0870 -0.4868
 1908SOL    HW1 6623   4.113   1.581   5.344  0.9652  0.7075  1.5437
 1908SOL    HW2 6624   3.990   1.515   5.428 -0.0458  0.5140 -0.0460
 1909SOL     OW 6625   0.743   4.675   4.735 -0.2052  0.2363  0.2653
 1909SOL    HW1 6626   0.682   4.753   4.742 -0.2923  0.1043  1.1171
 1909SOL    HW2 6627   0.739   4.621   4.819 -0.7479 -1.1388 -0.6075
 1910SOL     OW 6628   6.753   3.028   6.694  0.0330  0.1607  1.1823
 1910SOL    HW1 6629   6.852   3.032   6.685 -0.0812  0.7906  0.0023
 1910SOL    HW2 6630   6.711   3.047   6.605 -1.1304 -1.0962  1.4412
 1911SOL     OW 6631   6.124   2.661   5.096  0.7343  0.3047 -0.3117
 1911SOL    HW1 6632   6.050   2.724   5.120 -1.4172 -1.6903 -1.3503
 1911SOL    HW2 6633   6.190   2.658   5.171  0.3021  2.8159  0.2739
 1912SOL     OW 6634   3.985   5.472   3.127  0.3182  0.0313 -0.5535
 1912SOL    HW1 6635   3.939   5.386   3.103 -0.2142  0.5003 -1.2481
 1912SOL    HW2 6636   3.982   5.534   3.049  3.0522 -0.2795 -0.9889
 1913SOL     OW 6637   2.007   3.940   6.287 -0.1628 -0.0554 -0.3780
 1913SOL    HW1 6638   2.054   4.012   6.338  0.4147  0.5942 -1.7652
 1913SOL    HW2 6639   2.072   3.871   6.259 -0.2646  0.1389 -1.1236
 1914SOL     OW 6640   2.181   2.777   5.403  0.3285 -0.0774  0.1817
 1914SOL    HW1 6641   2.151   2.693   5.449  1.5052 -0.3061  0.5680
 1914SOL    HW2 6642   2.279   2.771   5.383  0.0985  0.5474 -1.2412
 1915SOL     OW 6643   4.185   1.188   6.303  0.1097 -0.1557 -0.0339
 1915SOL    HW1 6644   4.190   1.127   6.381  0.9261  0.8940  0.7748
 1915SOL    HW2 6645   4.095   1.182   6.260  0.1099 -1.7315  0.1573
 1916SOL     OW 6646   3.047   6.918   3.718 -0.5545 -0.2007  0.2996
 1916SOL    HW1 6647   3.081   6.973   3.794  0.9823  0.4893 -0.8403
 1916SOL    HW2 6648   3.025   6.977   3.640  1.8912 -1.1416 -1.2402
 1917SOL     OW 6649   3.942   3.063   4.025 -0.2195  0.1772  0.6669
 1917SOL    HW1 6650   3.900   3.049   4.115  1.0624 -0.0544  1.2594
 1917SOL    HW2 6651   3.907   2.995   3.961 -1.2777  0.4537  0.9343
 1918SOL     OW 6652   6.518   0.970   3.491  0.2462  0.1509  0.1696
 1918SOL    HW1 6653   6.567   1.045   3.535  1.1293  0.3853 -1.1582
 1918SOL    HW2 6654   6.575   0.931   3.418 -0.8937 -0.6549 -0.3244
 1919SOL     OW 6655   0.752   6.924   2.488 -0.3849  0.6417 -0.2998
 1919SOL    HW1 6656   0.704   6.946   2.572  0.3279 -0.4618  0.4182
 1919SOL    HW2 6657   0.786   7.009   2.446 -0.5618  1.1875  0.6318
 1920SOL     OW 6658   6.734   4.147   3.834  0.6510 -0.3312 -0.5569
 1920SOL    HW1 6659   6.763   4.080   3.903  0.1031 -0.8132 -0.7835
 1920SOL    HW2 6660   6.791   4.137   3.753  0.8892 -0.1906 -0.4078
 1921SOL     OW 6661   0.594   5.228   6.824  0.2346  0.7615  0.2940
 1921SOL    HW1 6662   0.556   5.252   6.914  1.5693 -0.1537  1.1497
 1921SOL    HW2 6663   0.563   5.137   6.798  2.6635 -0.5405  1.5893
 1922SOL     OW 6664   2.280   3.162   1.250 -0.4562  0.9157  0.4362
 1922SOL    HW1 6665   2.375   3.189   1.261 -0.2722  0.3162  0.3749
 1922SOL    HW2 6666   2.269   3.111   1.165 -0.5934 -0.0061  0.9823
 1923SOL     OW 6667   4.980   6.687   5.171 -0.1109  0.7364  0.2929
 1923SOL    HW1 6668   4.881   6.676   5.163 -0.0956  0.7241  0.1313
 1923SOL    HW2 6669   5.004   6.784   5.158 -0.0182  0.6116 -0.4897
 1924SOL     OW 6670   4.319   3.805   0.113 -0.2415  0.5548  0.4400
 1924SOL    HW1 6671   4.405   3.829   0.159  0.1755  1.3709 -0.7316
 1924SOL    HW2 6672   4.338   3.779   0.018 -1.2881  0.7025  0.1764
 1925SOL     OW 6673   2.453   4.567   1.399 -0.5393  0.2780  0.1760
 1925SOL    HW1 6674   2.388   4.635   1.366 -0.2621  1.5777  2.0889
 1925SOL    HW2 6675   2.481   4.591   1.492 -0.4892 -2.5346  0.9827
 1926SOL     OW 6676   0.643   5.914   4.668 -0.0825  0.4507  0.1990
 1926SOL    HW1 6677   0.635   6.013   4.682  1.6492  0.5013  1.0825
 1926SOL    HW2 6678   0.552   5.875   4.653 -0.8589  2.0828  0.4680
 1927SOL     OW 6679   4.490   5.361   0.664 -0.8803  0.0830  0.1285
 1927SOL    HW1 6680   4.427   5.413   0.720 -0.6357  1.9598 -1.2523
 1927SOL    HW2 6681   4.499   5.404   0.574  1.8241 -0.5008  0.0371
 1928SOL     OW 6682   4.218   3.596   4.887 -0.0548  0.2138 -0.0235
 1928SOL    HW1 6683   4.317   3.603   4.892 -0.1587  1.1746  1.0654
 1928SOL    HW2 6684   4.177   3.686   4.901 -1.1130 -0.3500  0.6594
 1929SOL     OW 6685   1.216   5.276   1.555  0.0443  0.4494  0.6481
 1929SOL    HW1 6686   1.150   5.347   1.535  1.0784  2.3029  3.3320
 1929SOL    HW2 6687   1.185   5.221   1.633 -0.0868 -1.2284 -0.5191
 1930SOL     OW 6688   5.817   6.098   0.238  0.2086 -0.2471  0.0371
 1930SOL    HW1 6689   5.784   6.146   0.157 -0.6804 -1.2291 -0.2105
 1930SOL    HW2 6690   5.917   6.091   0.234  0.1736 -0.3077 -0.9854
 1931SOL     OW 6691   6.294   2.438   3.257  0.5065 -0.0261  0.1121
 1931SOL    HW1 6692   6.307   2.479   3.167 -0.3889  2.7598  1.1567
 1931SOL    HW2 6693   6.200   2.408   3.267  0.5003  0.0385  0.2530
 1932SOL     OW 6694   3.971   1.783   2.491 -0.0754  0.3378 -0.2231
 1932SOL    HW1 6695   3.964   1.799   2.589  2.1558 -0.3325  0.0982
 1932SOL    HW2 6696   3.884   1.746   2.456 -1.5072  2.2312  1.1028
 1933SOL     OW 6697   2.935   4.523   7.017  0.0650  0.0620 -0.3488
 1933SOL    HW1 6698   2.929   4.529   7.117 -2.9905 -3.2872 -0.1532
 1933SOL    HW2 6699   3.013   4.465   6.992 -0.6274 -1.1458  0.2495
 1934SOL     OW 6700   1.852   6.142   6.614  0.1855 -0.2316 -0.3424
 1934SOL    HW1 6701   1.796   6.075   6.664 -1.7112  0.0328 -1.9902
 1934SOL    HW2 6702   1.828   6.139   6.517 -0.9543  3.6998 -0.3364
 1935SOL     OW 6703   4.399   6.693   3.500  0.1695 -0.5649  0.1744
 1935SOL    HW1 6704   4.309   6.727   3.474  0.3077  0.5405  1.0628
 1935SOL    HW2 6705   4.466   6.716   3.429 -0.0282 -0.3523  0.0566
 1936SOL     OW 6706   6.496   5.057   5.940  0.4979 -0.5007  0.5427
 1936SOL    HW1 6707   6.481   5.122   6.015  0.3695 -0.2281  0.2807
 1936SOL    HW2 6708   6.407   5.024   5.907  0.5918 -2.1125  1.8079
 1937SOL     OW 6709   3.569   0.476   2.414 -0.1796  0.0657 -0.0962
 1937SOL    HW1 6710   3.570   0.479   2.514  2.2119 -1.2423 -0.0114
 1937SOL    HW2 6711   3.605   0.562   2.378  0.4141 -0.0500  0.2165
 1938SOL     OW 6712   3.353   1.531   0.528  0.3783  0.1526  0.5142
 1938SOL    HW1 6713   3.429   1.510   0.466  1.6504  1.4907  1.5466
 1938SOL    HW2 6714   3.304   1.611   0.493 -0.2065 -0.3468  0.1688
 1939SOL     OW 6715   0.545   5.722   3.930 -0.2355  0.3871  0.0869
 1939SOL    HW1 6716   0.612   5.693   3.998  0.6009  0.0280 -0.8684
 1939SOL    HW2 6717   0.460   5.671   3.942  0.9133 -1.9452 -1.0318
 1940SOL     OW 6718   4.002   0.482   6.902  0.0302  0.6731 -0.3718
 1940SOL    HW1 6719   4.063   0.427   6.845  0.6004 -1.3431  1.9907
 1940SOL    HW2 6720   3.920   0.506   6.850  0.1806 -1.6852 -1.8342
 1941SOL     OW 6721   6.680   4.615   2.243  0.6629  0.0687  0.8021
 1941SOL    HW1 6722   6.653   4.708   2.266  0.7214  0.1754  0.4472
 1941SOL    HW2 6723   6.776   4.613   2.217  0.5011  0.0270  0.1724
 1942SOL     OW 6724   6.700   1.315   2.051 -0.4945  0.3520  0.0688
 1942SOL    HW1 6725   6.713   1.302   2.150  1.7193  1.6288  0.0320
 1942SOL    HW2 6726   6.685   1.227   2.007  1.7497 -0.6744  1.1826
 1943SOL     OW 6727   3.038   4.797   2.622 -0.4414 -0.1662  0.0028
 1943SOL    HW1 6728   3.003   4.704   2.614 -1.2526 -0.1035  2.2211
 1943SOL    HW2 6729   2.993   4.844   2.698  1.5355  1.3067  0.3558
 1944SOL     OW 6730   5.645   3.457   6.542  0.4039  0.6918 -0.3818
 1944SOL    HW1 6731   5.615   3.369   6.578  0.4485  0.2525 -1.4094
 1944SOL    HW2 6732   5.600   3.531   6.594 -0.3379  0.0660 -0.1138
 1945SOL     OW 6733   4.264   5.052   2.262  0.3807  0.7853 -0.0699
 1945SOL    HW1 6734   4.335   5.091   2.204  0.3232  0.9656 -0.0198
 1945SOL    HW2 6735   4.287   4.957   2.284  0.1885  0.5825 -0.7410
 1946SOL     OW 6736   5.789   1.208   1.145  0.1913 -0.1052  0.5451
 1946SOL    HW1 6737   5.825   1.284   1.090  2.2957 -0.8498  0.8294
 1946SOL    HW2 6738   5.738   1.145   1.085 -1.5946  1.4602  0.3052
 1947SOL     OW 6739   5.156   6.578   4.095  0.9616  0.3571  0.0138
 1947SOL    HW1 6740   5.086   6.601   4.162  0.1104 -0.4315 -0.5774
 1947SOL    HW2 6741   5.185   6.483   4.110  0.3894  0.0054 -1.0383
 1948SOL     OW 6742   6.339   6.662   5.498 -0.0368  0.0635 -0.0419
 1948SOL    HW1 6743   6.346   6.565   5.522 -1.2089 -0.1217 -0.4069
 1948SOL    HW2 6744   6.415   6.712   5.541  2.0116 -1.3452 -1.7682
 1949SOL     OW 6745   5.584   4.615   6.458 -0.0256 -0.2849 -0.2403
 1949SOL    HW1 6746   5.631   4.531   6.483  1.5888  0.9792  1.2772
 1949SOL    HW2 6747   5.606   4.639   6.364 -2.7877 -2.9275 -1.7465
 1950SOL     OW 6748   3.146   4.060   6.938 -0.0287  0.2843  0.2499
 1950SOL    HW1 6749   3.185   4.099   7.022 -0.0417  1.4360 -0.2624
 1950SOL    HW2 6750   3.116   3.966   6.956 -0.5740  0.7048  1.7027
 1951SOL     OW 6751   6.747   1.669   0.920 -0.6117  0.3239  0.5636
 1951SOL    HW1 6752   6.810   1.741   0.890  0.1165 -0.7133 -0.4953
 1951SOL    HW2 6753   6.694   1.637   0.842 -1.6380  0.3616  1.2192
 1952SOL     OW 6754   0.950   2.855   6.524  0.3858  0.0415 -0.0260
 1952SOL    HW1 6755   0.950   2.953   6.506 -1.0302  0.1349  0.3522
 1952SOL    HW2 6756   1.042   2.818   6.508  0.4299  0.9985 -2.4076
 1953SOL     OW 6757   6.466   2.788   4.514 -0.0796 -0.0087 -0.2160
 1953SOL    HW1 6758   6.476   2.690   4.494 -2.0511 -0.1524 -0.6503
 1953SOL    HW2 6759   6.417   2.833   4.439  0.8238  1.3462 -0.0387
 1954SOL     OW 6760   4.987   6.625   3.527  0.0586  0.9162  0.5226
 1954SOL    HW1 6761   5.082   6.626   3.560  0.2039 -0.3992  0.2315
 1954SOL    HW2 6762   4.925   6.618   3.605  0.4438 -3.6220  0.7180
 1955SOL     OW 6763   1.704   4.855   4.532 -0.1611  0.3527  0.1975
 1955SOL    HW1 6764   1.716   4.764   4.573  0.0126  0.4970  0.4730
 1955SOL    HW2 6765   1.637   4.850   4.459 -0.0712 -0.0224  0.1378
 1956SOL     OW 6766   4.907   5.973   0.863  0.2605  0.3000  0.1522
 1956SOL    HW1 6767   4.952   6.044   0.809 -0.5108  0.1211 -0.7399
 1956SOL    HW2 6768   4.970   5.897   0.877  1.0681  1.1007  1.0468
 1957SOL     OW 6769   6.989   4.625   5.914  0.5214 -0.8319 -0.6679
 1957SOL    HW1 6770   7.077   4.578   5.920  0.9689  0.0245 -0.3915
 1957SOL    HW2 6771   7.002   4.713   5.869 -0.1149 -0.5033 -0.2143
 1958SOL     OW 6772   0.174   2.930   2.244 -0.2518 -0.4043  0.5796
 1958SOL    HW1 6773   0.121   2.999   2.195  0.1992  0.1673  0.8741
 1958SOL    HW2 6774   0.270   2.937   2.219  0.0096 -0.0172  1.6042
 1959SOL     OW 6775   1.266   1.592   0.727  0.1841 -0.0323  0.5271
 1959SOL    HW1 6776   1.250   1.530   0.804  3.4193 -2.8231 -0.8176
 1959SOL    HW2 6777   1.330   1.550   0.663  2.6308  4.6955 -0.5716
 1960SOL     OW 6778   1.414   5.999   0.959  0.2472  0.0084 -0.3230
 1960SOL    HW1 6779   1.346   6.055   1.007 -0.6719  0.5991 -2.1947
 1960SOL    HW2 6780   1.368   5.942   0.891  1.4761 -0.8854 -0.4421
 1961SOL     OW 6781   4.498   5.301   5.895 -0.1062 -0.6887 -0.3700
 1961SOL    HW1 6782   4.416   5.249   5.921  0.4662 -2.5390 -1.9914
 1961SOL    HW2 6783   4.495   5.319   5.797  1.0911 -0.1641 -0.3148
 1962SOL     OW 6784   1.743   5.213   2.711  0.1025  0.4064 -0.3277
 1962SOL    HW1 6785   1.651   5.234   2.746  0.2439 -0.1122  0.3585
 1962SOL    HW2 6786   1.740   5.127   2.660  0.1960  0.4256 -0.3647
 1963SOL     OW 6787   5.997   0.685   1.364  0.8239 -0.1214  0.2088
 1963SOL    HW1 6788   6.050   0.754   1.314  0.5809 -0.0677  0.0175
 1963SOL    HW2 6789   5.966   0.724   1.451 -0.0332  0.3243 -0.2683
 1964SOL     OW 6790   6.367   2.436   0.694 -0.3799  0.2358 -0.2371
 1964SOL    HW1 6791   6.296   2.480   0.639  0.9842  0.4135 -1.9441
 1964SOL    HW2 6792   6.448   2.419   0.637  0.8154 -0.3229  1.5370
 1965SOL     OW 6793   1.043   1.188   2.688  0.0438 -0.0590  0.1465
 1965SOL    HW1 6794   1.046   1.232   2.778  0.1525 -1.1684  0.7053
 1965SOL    HW2 6795   0.959   1.215   2.640 -0.6163 -0.3944  1.0860
 1966SOL     OW 6796   6.670   3.809   4.193 -0.1889  0.0884  0.6473
 1966SOL    HW1 6797   6.601   3.867   4.236  0.9548  2.0724 -0.0773
 1966SOL    HW2 6798   6.706   3.744   4.260 -4.2396 -2.6514  0.5657
 1967SOL     OW 6799   4.438   2.345   4.251  0.2472 -0.0477 -0.0370
 1967SOL    HW1 6800   4.347   2.311   4.275 -0.6126  1.8401 -0.4982
 1967SOL    HW2 6801   4.467   2.304   4.164 -0.3586 -0.2920 -0.1287
 1968SOL     OW 6802   2.582   6.406   2.123  0.3833 -0.4554  0.2530
 1968SOL    HW1 6803   2.583   6.431   2.026 -1.0839 -1.0714  0.0492
 1968SOL    HW2 6804   2.597   6.487   2.178  2.4666 -0.2735 -0.4737
 1969SOL     OW 6805   2.300   1.949   2.281  0.2755  0.3984 -0.0102
 1969SOL    HW1 6806   2.284   1.852   2.299 -0.3309  0.1783 -1.5453
 1969SOL    HW2 6807   2.397   1.970   2.293  0.6291 -0.6793 -0.7677
 1970SOL     OW 6808   3.743   0.846   5.447 -0.0847 -0.3262 -0.2820
 1970SOL    HW1 6809   3.744   0.825   5.350  0.1973 -0.6821 -0.2053
 1970SOL    HW2 6810   3.679   0.921   5.465 -2.1240 -1.9801 -0.3761
 1971SOL     OW 6811   5.501   0.080   6.566  0.8098  0.1988 -0.2736
 1971SOL    HW1 6812   5.522   0.177   6.554  0.4250  0.0200 -3.1594
 1971SOL    HW2 6813   5.583   0.032   6.596  0.5529  1.5875  3.2008
 1972SOL     OW 6814   5.466   2.143   4.945  0.0444  0.2683 -0.0293
 1972SOL    HW1 6815   5.383   2.142   4.889 -0.2029 -2.9664  0.1936
 1972SOL    HW2 6816   5.443   2.119   5.039  1.1419 -0.1623  0.1468
 1973SOL     OW 6817   1.347   5.524   6.426  0.0632 -0.0569 -0.0648
 1973SOL    HW1 6818   1.248   5.510   6.420  0.0483 -0.2027  0.4879
 1973SOL    HW2 6819   1.375   5.519   6.521  0.8223 -1.4608 -0.3454
 1974SOL     OW 6820   5.945   5.920   3.316 -0.7517  0.1915 -0.3175
 1974SOL    HW1 6821   5.898   5.963   3.393  0.6222  0.3341  0.4778
 1974SOL    HW2 6822   6.031   5.880   3.348 -0.3478 -0.0996 -1.7095
 1975SOL     OW 6823   3.069   1.628   2.210 -0.2541  0.6571 -0.6891
 1975SOL    HW1 6824   2.979   1.668   2.191 -1.9489 -2.1817  0.7305
 1975SOL    HW2 6825   3.103   1.664   2.297 -1.5135 -0.4741  0.3156
 1976SOL     OW 6826   3.312   5.918   0.542 -0.0069 -0.3542 -0.2978
 1976SOL    HW1 6827   3.385   5.881   0.600  1.1339 -0.1936 -1.5624
 1976SOL    HW2 6828   3.304   5.862   0.460  1.4158  1.7797 -2.0199
 1977SOL     OW 6829   1.517   0.817   2.898  1.0186  0.1502  0.4297
 1977SOL    HW1 6830   1.478   0.729   2.873 -0.5257  0.4111  1.7734
 1977SOL    HW2 6831   1.519   0.877   2.819 -1.2829  0.0904  0.2671
 1978SOL     OW 6832   1.283   1.803   3.508 -0.1525 -0.1985  0.1042
 1978SOL    HW1 6833   1.191   1.822   3.542 -0.3442  0.4903 -0.7673
 1978SOL    HW2 6834   1.351   1.831   3.576 -0.5160  1.5184 -0.1802
 1979SOL     OW 6835   0.336   3.187   6.348 -0.2262  0.2132 -0.6501
 1979SOL    HW1 6836   0.388   3.271   6.363 -1.0517  0.6517 -0.1844
 1979SOL    HW2 6837   0.350   3.125   6.426  1.5036 -0.6970 -1.6358
 1980SOL     OW 6838   3.919   1.996   6.393  0.2803  0.0318 -0.0287
 1980SOL    HW1 6839   4.016   1.980   6.408  0.4995  0.4756 -0.9331
 1980SOL    HW2 6840   3.904   2.028   6.300 -1.0651 -2.8049 -0.9118
 1981SOL     OW 6841   6.472   3.505   4.291 -0.1380  0.2944 -0.5376
 1981SOL    HW1 6842   6.428   3.576   4.345 -0.0429 -0.8563  1.1398
 1981SOL    HW2 6843   6.571   3.518   4.291 -0.2004  0.8285 -1.2600
 1982SOL     OW 6844   6.347   3.799   6.901  0.6356  0.5282 -0.1825
 1982SOL    HW1 6845   6.370   3.768   6.993 -1.5779 -1.9732 -0.3613
 1982SOL    HW2 6846   6.331   3.898   6.903 -2.7548  0.1620  3.0376
 1983SOL     OW 6847   1.750   4.540   3.656  0.3687  1.1446  0.9441
 1983SOL    HW1 6848   1.828   4.512   3.601 -0.4234 -1.1579  0.8764
 1983SOL    HW2 6849   1.743   4.481   3.737 -1.9822  0.4270  0.3032
 1984SOL     OW 6850   0.392   5.582   3.644 -0.3457  0.3773  0.4091
 1984SOL    HW1 6851   0.399   5.607   3.547 -1.2521  0.7787  0.4317
 1984SOL    HW2 6852   0.332   5.648   3.691  0.2746  0.3268  1.2968
 1985SOL     OW 6853   1.433   6.795   3.594  0.1044 -0.0447  0.3348
 1985SOL    HW1 6854   1.465   6.882   3.558  0.2291  0.2874  1.2147
 1985SOL    HW2 6855   1.508   6.729   3.595  0.3422  0.2264  0.8336
 1986SOL     OW 6856   6.594   1.156   0.549  0.3142 -0.2094  0.4651
 1986SOL    HW1 6857   6.664   1.207   0.500 -2.0314  1.5392 -1.3058
 1986SOL    HW2 6858   6.518   1.137   0.487 -1.1685 -1.2658  2.5032
 1987SOL     OW 6859   1.553   2.652   1.747  0.1256  0.1581  0.3354
 1987SOL    HW1 6860   1.479   2.679   1.686  0.5231 -1.5585 -0.9809
 1987SOL    HW2 6861   1.528   2.672   1.842 -0.6875  2.4770 -0.3125
 1988SOL     OW 6862   4.634   4.704   0.161 -0.1099 -0.3672  0.4051
 1988SOL    HW1 6863   4.674   4.676   0.074 -0.6300  1.0311 -0.3167
 1988SOL    HW2 6864   4.631   4.803   0.166  0.1920 -0.4093  2.1732
 1989SOL     OW 6865   1.980   4.913   4.412  0.1217 -0.0736 -0.2352
 1989SOL    HW1 6866   1.894   4.919   4.462  0.4690  3.1355  0.1906
 1989SOL    HW2 6867   2.051   4.876   4.472 -0.5754 -1.3374 -0.1380
 1990SOL     OW 6868   3.481   6.456   1.029 -0.2545  0.3447  0.1020
 1990SOL    HW1 6869   3.526   6.455   0.940 -1.8023 -0.0771 -0.7143
 1990SOL    HW2 6870   3.419   6.378   1.036  1.5887 -1.0532  2.5281
 1991SOL     OW 6871   4.106   5.942   6.130 -0.7550  0.3981  0.2316
 1991SOL    HW1 6872   4.136   5.903   6.043 -1.3813 -2.7589  1.2889
 1991SOL    HW2 6873   4.163   6.021   6.153  1.8190 -0.8798 -1.3022
 1992SOL     OW 6874   1.896   0.830   5.557  0.3955  0.0382 -0.7664
 1992SOL    HW1 6875   1.983   0.805   5.600  0.5643 -1.4249 -1.8552
 1992SOL    HW2 6876   1.828   0.758   5.574 -0.0600  0.3055 -1.3937
 1993SOL     OW 6877   4.262   4.698   6.407  0.0870  0.1637  0.4577
 1993SOL    HW1 6878   4.272   4.673   6.503  0.3568  0.8341  0.6024
 1993SOL    HW2 6879   4.336   4.759   6.379  0.1156 -0.1665 -0.2281
 1994SOL     OW 6880   3.767   2.546   1.390 -0.8329  0.2392  0.2136
 1994SOL    HW1 6881   3.697   2.618   1.393  1.7010  2.8720  1.1255
 1994SOL    HW2 6882   3.798   2.525   1.483 -2.1657 -2.8644  0.0642
 1995SOL     OW 6883   0.060   1.538   1.459 -0.5237  0.0445  0.0052
 1995SOL    HW1 6884  -0.012   1.602   1.486 -0.9375 -0.2606 -0.3664
 1995SOL    HW2 6885   0.050   1.516   1.362  0.9107  1.0990 -0.4214
 1996SOL     OW 6886   2.819   2.205   1.234 -0.1284 -0.3689 -0.2553
 1996SOL    HW1 6887   2.774   2.147   1.166 -0.1198 -0.0294 -0.5562
 1996SOL    HW2 6888   2.906   2.237   1.198  0.4721 -1.1982  0.4124
 1997SOL     OW 6889   6.463   0.226   0.427  0.3633 -0.1623  0.6424
 1997SOL    HW1 6890   6.389   0.282   0.464 -0.8039 -1.1505 -0.1128
 1997SOL    HW2 6891   6.445   0.130   0.448  1.2954 -0.4398  0.2069
 1998SOL     OW 6892   3.031   3.421   5.284 -0.6187 -0.6864  0.1142
 1998SOL    HW1 6893   2.960   3.352   5.269 -1.4221  0.1837 -0.2554
 1998SOL    HW2 6894   3.016   3.497   5.220 -1.1617  0.8851  1.9978
 1999SOL     OW 6895   3.738   1.094   1.755 -0.6049 -0.9005 -0.4177
 1999SOL    HW1 6896   3.735   0.996   1.737  0.5331 -0.9170 -0.5934
 1999SOL    HW2 6897   3.646   1.132   1.750 -1.2050 -2.1390  0.7390
 2000SOL     OW 6898   3.553   1.149   3.932  0.0499 -0.0147 -0.1005
 2000SOL    HW1 6899   3.552   1.196   4.021 -0.3467  0.8098 -0.5338
 2000SOL    HW2 6900   3.493   1.197   3.868 -0.8869 -1.4865 -0.3750
 2001SOL     OW 6901   3.161   3.882   0.551 -0.7146 -0.3911  0.3301
 2001SOL    HW1 6902   3.179   3.791   0.513 -0.3431  0.4542 -1.6710
 2001SOL    HW2 6903   3.066   3.907   0.530  0.3137  1.3029 -2.9754
 2002SOL     OW 6904   0.596   0.002   5.166  0.4273 -0.5843 -0.2536
 2002SOL    HW1 6905   0.627  -0.027   5.076 -1.3321  1.0686 -1.4673
 2002SOL    HW2 6906   0.496  -0.005   5.170  0.2318  1.9037  0.5794
 2003SOL     OW 6907   6.528   0.524   1.812 -0.1941  0.4803 -0.4675
 2003SOL    HW1 6908   6.607   0.580   1.787 -0.3538  0.2627 -1.5195
 2003SOL    HW2 6909   6.473   0.572   1.880 -0.1994  1.5158 -1.1720
 2004SOL     OW 6910   5.335   0.776   4.214 -0.3533 -0.1448  0.1557
 2004SOL    HW1 6911   5.410   0.840   4.203 -0.8114  0.5493  0.9164
 2004SOL    HW2 6912   5.368   0.692   4.256  0.0847 -0.0262  0.0457
 2005SOL     OW 6913   1.913   6.578   5.181 -0.1066  0.8745 -0.1472
 2005SOL    HW1 6914   1.896   6.624   5.094  1.9455 -2.0407 -2.2690
 2005SOL    HW2 6915   1.832   6.526   5.208 -0.6774  1.6283 -0.3801
 2006SOL     OW 6916   4.996   5.816   3.464  0.4417 -0.4110  0.0498
 2006SOL    HW1 6917   4.957   5.851   3.548 -1.9100 -0.5154 -0.9259
 2006SOL    HW2 6918   4.980   5.880   3.389  0.0923 -1.4949 -0.8459
 2007SOL     OW 6919   3.880   3.814   0.980 -0.2918 -0.1487  0.5764
 2007SOL    HW1 6920   3.801   3.760   1.007 -1.5837  0.6321 -1.4107
 2007SOL    HW2 6921   3.902   3.797   0.884  0.9772  0.8277  0.6555
 2008SOL     OW 6922   1.191   5.417   2.160 -0.3004 -0.5850  0.4969
 2008SOL    HW1 6923   1.143   5.452   2.240 -1.1187 -0.2260 -0.1454
 2008SOL    HW2 6924   1.153   5.457   2.077 -2.0400 -3.7542 -0.3790
 2009SOL     OW 6925   5.782   0.490   1.277 -0.8560  0.1127 -0.3115
 2009SOL    HW1 6926   5.811   0.395   1.288 -1.6274 -0.0958 -0.0011
 2009SOL    HW2 6927   5.861   0.546   1.253  0.4530  0.0677  3.2195
 2010SOL     OW 6928   0.452   0.690   6.848 -0.5332 -0.0110  0.1288
 2010SOL    HW1 6929   0.379   0.675   6.781  0.0311 -0.8107 -0.3192
 2010SOL    HW2 6930   0.494   0.780   6.832 -0.7219  0.0073 -0.2748
 2011SOL     OW 6931   6.794   1.158   5.610 -0.1733 -0.4579  0.3326
 2011SOL    HW1 6932   6.706   1.174   5.566  0.1220 -1.0679 -0.4979
 2011SOL    HW2 6933   6.853   1.106   5.549  0.1856 -1.4917  1.5131
 2012SOL     OW 6934   0.917   1.108   1.420  0.3047 -0.1245  0.2606
 2012SOL    HW1 6935   0.871   1.146   1.340  0.7468 -0.3130 -0.0880
 2012SOL    HW2 6936   0.921   1.008   1.412  1.9691 -0.0339 -0.3867
 2013SOL     OW 6937   5.799   6.564   3.446  0.0911  0.3170 -0.0483
 2013SOL    HW1 6938   5.738   6.486   3.462  1.1810 -0.0031  3.5666
 2013SOL    HW2 6939   5.868   6.567   3.519  0.8058  4.0252 -0.6955
 2014SOL     OW 6940   0.594   3.904   2.302 -0.1844  0.2445 -0.0865
 2014SOL    HW1 6941   0.608   3.833   2.370 -0.4427  0.8377  0.6040
 2014SOL    HW2 6942   0.658   3.979   2.318 -0.1700  0.3435 -0.5696
 2015SOL     OW 6943   4.533   0.492   5.177  0.2098 -0.6192 -0.2457
 2015SOL    HW1 6944   4.493   0.579   5.149  2.5484  0.7330  0.3550
 2015SOL    HW2 6945   4.461   0.433   5.214 -1.5413  0.7732 -1.2649
 2016SOL     OW 6946   0.595   4.876   5.909  0.6121  0.4282 -0.1388
 2016SOL    HW1 6947   0.646   4.875   5.822  0.0473 -0.8197 -0.4834
 2016SOL    HW2 6948   0.539   4.959   5.914 -0.8203 -0.3551 -1.8746
 2017SOL     OW 6949   2.691   1.032   5.139 -0.8353 -0.4007  0.5129
 2017SOL    HW1 6950   2.658   1.119   5.102 -0.6697  0.4898  2.3268
 2017SOL    HW2 6951   2.613   0.979   5.174 -0.9786 -1.1829 -0.9334
 2018SOL     OW 6952   6.260   6.374   6.197 -0.8008 -0.6580  0.3187
 2018SOL    HW1 6953   6.336   6.376   6.131 -0.0651 -1.1275  1.1371
 2018SOL    HW2 6954   6.177   6.346   6.150 -0.5780  0.3189 -0.6948
 2019SOL     OW 6955   6.135   3.478   2.725  0.2514  0.5916  0.3949
 2019SOL    HW1 6956   6.072   3.462   2.649  0.3225 -0.1403  0.4835
 2019SOL    HW2 6957   6.082   3.497   2.808  0.0939 -1.0743  0.7095
 2020SOL     OW 6958   0.769   4.041   4.412  0.2755  0.6361 -0.2258
 2020SOL    HW1 6959   0.688   4.007   4.460  0.5526  0.6783  0.2702
 2020SOL    HW2 6960   0.768   4.141   4.412  1.3237  0.6811  1.5095
 2021SOL     OW 6961   0.096   0.056   3.771 -0.7304 -0.2652  0.4384
 2021SOL    HW1 6962   0.020  -0.009   3.770 -0.5937 -0.4760 -1.5599
 2021SOL    HW2 6963   0.063   0.146   3.740  0.1501 -0.9067 -2.7773
 2022SOL     OW 6964   2.047   5.104   1.430 -0.1087 -0.2766  0.1284
 2022SOL    HW1 6965   2.091   5.014   1.422  2.3442  0.8504  0.0470
 2022SOL    HW2 6966   2.079   5.163   1.356 -0.3377  1.1914  1.1610
 2023SOL     OW 6967   1.018   1.267   6.749 -0.0491 -0.0964  0.0038
 2023SOL    HW1 6968   0.964   1.188   6.780 -2.5408  1.2107 -0.7655
 2023SOL    HW2 6969   1.092   1.235   6.690 -0.7056 -1.8877  0.0729
 2024SOL     OW 6970   0.926   1.505   2.321 -0.0331  0.3454  0.3411
 2024SOL    HW1 6971   1.011   1.453   2.331  0.1349  0.7198  0.9728
 2024SOL    HW2 6972   0.884   1.484   2.233  0.2712 -0.4989  0.3840
 2025SOL     OW 6973   1.844   2.907   2.243  0.0014  0.2265 -0.6869
 2025SOL    HW1 6974   1.830   2.808   2.238  0.2191  0.1434  0.1500
 2025SOL    HW2 6975   1.882   2.931   2.333 -1.6231  1.2514 -0.2300
 2026SOL     OW 6976   0.752   3.163   5.396  0.1862  0.0329  0.2218
 2026SOL    HW1 6977   0.683   3.196   5.462 -0.0237  0.0526 -0.0056
 2026SOL    HW2 6978   0.830   3.226   5.396 -0.3098  0.6635 -0.3710
 2027SOL     OW 6979   1.824   0.937   0.788 -0.5059  0.1680  0.7312
 2027SOL    HW1 6980   1.895   0.870   0.765  1.0765  1.9551  0.0905
 2027SOL    HW2 6981   1.735   0.903   0.759  0.1196 -1.9823  1.1939
 2028SOL     OW 6982   3.763   1.559   4.820  0.0719 -0.1620  0.1745
 2028SOL    HW1 6983   3.762   1.483   4.885  1.8949 -0.5656 -0.2142
 2028SOL    HW2 6984   3.850   1.607   4.825 -0.2187  0.5591 -1.1223
 2029SOL     OW 6985   6.606   6.896   2.873 -0.2679  0.6089  0.1066
 2029SOL    HW1 6986   6.703   6.920   2.871 -0.3103  0.7329 -1.8475
 2029SOL    HW2 6987   6.566   6.909   2.782 -1.7280 -1.0067  0.4676
 2030SOL     OW 6988   1.796   1.414   4.344 -0.1325 -0.6961 -0.2547
 2030SOL    HW1 6989   1.701   1.407   4.376  0.3328 -4.4909  0.7598
 2030SOL    HW2 6990   1.823   1.510   4.341 -4.0129  0.5688 -0.7537
 2031SOL     OW 6991   5.194   0.817   3.210 -0.3648  0.4879 -0.2852
 2031SOL    HW1 6992   5.216   0.907   3.172 -2.0466  0.4546 -1.4498
 2031SOL    HW2 6993   5.227   0.746   3.148 -1.7839  0.4001 -0.9745
 2032SOL     OW 6994   3.993   6.079   1.753  0.1435  0.4404 -0.0093
 2032SOL    HW1 6995   3.993   5.991   1.706  0.7493  1.1755 -1.4412
 2032SOL    HW2 6996   4.074   6.086   1.811 -0.3267 -0.2591  0.7438
 2033SOL     OW 6997   4.736   5.839   6.669  0.1068  0.0620  0.0763
 2033SOL    HW1 6998   4.832   5.811   6.662  1.1763  3.6676 -2.1578
 2033SOL    HW2 6999   4.690   5.823   6.582  0.0694  2.5165 -0.4215
 2034SOL     OW 7000   2.991   4.922   4.840 -0.0136 -0.1326 -0.1316
 2034SOL    HW1 7001   3.012   4.937   4.936  0.3652  0.8407 -0.3602
 2034SOL    HW2 7002   2.901   4.878   4.832 -0.1903  0.0754  0.6491
 2035SOL     OW 7003   7.001   0.062   1.734 -0.7871  0.6759  0.4518
 2035SOL    HW1 7004   7.093   0.101   1.741 -0.8457  1.2971 -1.5025
 2035SOL    HW2 7005   7.001  -0.030   1.771  0.9632  0.1934 -0.6366
 2036SOL     OW 7006   6.550   4.835   4.706  0.4876  0.1151  0.5930
 2036SOL    HW1 7007   6.609   4.816   4.627  0.9259 -2.8943  1.5079
 2036SOL    HW2 7008   6.455   4.818   4.681  0.4615  0.6734  0.3037
 2037SOL     OW 7009   0.011   2.999   5.621 -0.1888 -0.6338  0.1090
 2037SOL    HW1 7010   0.098   3.016   5.667 -0.4976  0.4945  0.3196
 2037SOL    HW2 7011  -0.037   2.925   5.667  0.4913 -1.0159  0.2191
 2038SOL     OW 7012   6.934   1.919   6.987  0.0455 -0.8743  0.0973
 2038SOL    HW1 7013   6.837   1.905   6.970  0.2539 -1.2363 -0.8531
 2038SOL    HW2 7014   6.985   1.836   6.964  0.4235 -1.2593  2.1404
 2039SOL     OW 7015   1.936   4.971   2.261 -0.1453  0.2912 -0.2194
 2039SOL    HW1 7016   1.910   5.056   2.307  1.6961  2.2140 -2.4856
 2039SOL    HW2 7017   2.006   4.925   2.316 -1.6939 -0.2564  1.4107
 2040SOL     OW 7018   3.260   2.493   6.092 -0.2879 -0.1193  0.6316
 2040SOL    HW1 7019   3.327   2.530   6.157  2.5913  0.9823 -2.6189
 2040SOL    HW2 7020   3.212   2.568   6.048 -0.2900 -0.6530 -0.3030
 2041SOL     OW 7021   6.988   4.895   4.562 -0.3597  0.1755  0.2650
 2041SOL    HW1 7022   7.029   4.804   4.570 -1.8072 -0.5237  0.0245
 2041SOL    HW2 7023   7.057   4.964   4.581  0.5152 -0.9921  1.5287
 2042SOL     OW 7024   6.389   0.565   6.817 -0.1033  0.6487 -0.8324
 2042SOL    HW1 7025   6.336   0.481   6.828  0.7619  0.0121 -1.3481
 2042SOL    HW2 7026   6.425   0.594   6.906 -0.1051  0.2640 -0.7071
 2043SOL     OW 7027   5.185   3.971   2.024  0.0817 -0.2457  0.3070
 2043SOL    HW1 7028   5.269   3.957   1.973  0.1954 -0.9968  0.6946
 2043SOL    HW2 7029   5.159   4.068   2.021  0.9224 -0.0260  0.1371
 2044SOL     OW 7030   3.431   6.425   3.329  0.0704 -0.3873 -0.3662
 2044SOL    HW1 7031   3.446   6.331   3.297 -0.7337 -1.4111  2.0776
 2044SOL    HW2 7032   3.509   6.455   3.383 -0.1867 -0.0735 -0.1656
 2045SOL     OW 7033   2.036   4.064   5.646 -0.1263 -0.6955 -0.2949
 2045SOL    HW1 7034   2.125   4.022   5.624 -0.3846 -1.4070 -0.0183
 2045SOL    HW2 7035   1.968   3.992   5.658 -0.0558 -0.3752  2.7069
 2046SOL     OW 7036   6.461   1.726   4.581 -0.4416 -0.2804  0.0093
 2046SOL    HW1 7037   6.429   1.771   4.664 -0.0043 -0.1876  0.1270
 2046SOL    HW2 7038   6.560   1.735   4.573 -0.5998  0.7069 -1.1161
 2047SOL     OW 7039   3.539   3.274   0.500  0.2764  0.6417  0.3335
 2047SOL    HW1 7040   3.465   3.215   0.533  1.2489 -0.1269  1.1777
 2047SOL    HW2 7041   3.549   3.263   0.401 -1.2131  1.3127  0.0780
 2048SOL     OW 7042   1.903   0.174   0.537 -0.6125  0.0092 -0.2740
 2048SOL    HW1 7043   1.887   0.080   0.566 -1.3569  0.6484  1.5443
 2048SOL    HW2 7044   1.940   0.175   0.445 -2.3077 -1.9945 -1.0532
 2049SOL     OW 7045   2.710   1.702   4.757 -0.0656 -0.4190  0.6403
 2049SOL    HW1 7046   2.709   1.652   4.670  2.4358  0.7014 -0.1252
 2049SOL    HW2 7047   2.793   1.758   4.763 -2.4944  3.4697  1.5888
 2050SOL     OW 7048   6.223   2.885   3.290  0.4464  0.0713  0.0553
 2050SOL    HW1 7049   6.315   2.909   3.259  0.7624 -0.5695  0.4715
 2050SOL    HW2 7050   6.158   2.898   3.215  0.9981 -0.2179 -0.4835
 2051SOL     OW 7051   5.368   4.953   2.143 -0.5904  0.1180 -0.3018
 2051SOL    HW1 7052   5.288   5.012   2.152  1.0794  2.2740  1.1737
 2051SOL    HW2 7053   5.428   4.988   2.071  1.0322  1.0509  1.4328
 2052SOL     OW 7054   0.710   2.761   1.623  0.3012 -0.0853  0.4466
 2052SOL    HW1 7055   0.686   2.678   1.675 -1.4744 -0.5843 -1.0798
 2052SOL    HW2 7056   0.753   2.735   1.537  1.2682  0.6742  0.6800
 2053SOL     OW 7057   6.022   0.270   4.549  0.2143 -0.3721  0.2977
 2053SOL    HW1 7058   6.106   0.268   4.495  0.0091  1.3619 -0.1424
 2053SOL    HW2 7059   6.044   0.296   4.643 -0.1063  4.5254 -0.7194
 2054SOL     OW 7060   4.803   2.765   1.343  0.6875 -0.2372  0.2740
 2054SOL    HW1 7061   4.776   2.705   1.418 -1.1789  0.7345  0.4426
 2054SOL    HW2 7062   4.756   2.853   1.352  1.7722  0.5232 -1.0886
 2055SOL     OW 7063   5.499   3.917   5.427 -0.2890  0.2955 -1.1443
 2055SOL    HW1 7064   5.585   3.882   5.390  0.4193 -0.1467  0.7850
 2055SOL    HW2 7065   5.482   3.876   5.517 -3.2280 -0.6518 -2.0132
 2056SOL     OW 7066   2.381   1.121   2.353 -0.2730  0.0915 -0.1820
 2056SOL    HW1 7067   2.289   1.101   2.385 -0.1880  1.5467  1.0855
 2056SOL    HW2 7068   2.447   1.098   2.425  0.2523  0.1265 -0.6467
 2057SOL     OW 7069   5.722   2.305   3.313 -0.5908 -0.4921  0.0678
 2057SOL    HW1 7070   5.725   2.398   3.275  0.9521  0.2742  1.8611
 2057SOL    HW2 7071   5.783   2.300   3.392  0.4234 -3.4364 -0.7814
 2058SOL     OW 7072   1.227   0.049   3.664  0.1401 -0.2456  0.3003
 2058SOL    HW1 7073   1.221   0.144   3.695 -0.3024 -0.3531  0.5452
 2058SOL    HW2 7074   1.267  -0.008   3.736 -2.2382 -0.7690  1.2981
 2059SOL     OW 7075   1.233   1.431   5.567 -0.2508 -0.1664 -0.4882
 2059SOL    HW1 7076   1.315   1.486   5.580  0.4173 -0.7254 -2.0710
 2059SOL    HW2 7077   1.160   1.465   5.627  0.7537  1.1216  0.0537
 2060SOL     OW 7078   6.191   5.100   1.993 -0.0474  0.7471 -0.4022
 2060SOL    HW1 7079   6.160   5.006   2.011 -0.7550  1.3403  1.8824
 2060SOL    HW2 7080   6.124   5.164   2.029  0.6151  2.1550 -1.5902
 2061SOL     OW 7081   0.706   1.591   0.894  0.3857  0.4575  0.0016
 2061SOL    HW1 7082   0.744   1.682   0.914  1.3845  0.3440 -1.2535
 2061SOL    HW2 7083   0.609   1.600   0.871  0.3920  1.1626  0.2204
 2062SOL     OW 7084   5.769   4.788   3.356 -0.0279  0.3423 -0.2750
 2062SOL    HW1 7085   5.729   4.871   3.395 -0.1940 -0.2017  0.7529
 2062SOL    HW2 7086   5.853   4.811   3.308 -0.5128  1.2159 -0.7300
 2063SOL     OW 7087   0.400   6.020   0.651 -0.1669 -0.2915 -0.7241
 2063SOL    HW1 7088   0.316   5.970   0.628 -1.0697  0.8978 -0.0959
 2063SOL    HW2 7089   0.413   6.094   0.585 -0.5427  0.5796  0.1644
 2064SOL     OW 7090   1.219   2.361   6.151 -0.4795 -0.2263 -0.1235
 2064SOL    HW1 7091   1.296   2.394   6.096  0.5827 -1.9327  0.2912
 2064SOL    HW2 7092   1.182   2.438   6.204 -1.4629  1.4721 -3.0034
 2065SOL     OW 7093   5.086   3.360   1.109  0.0500  0.2993  0.1075
 2065SOL    HW1 7094   5.113   3.439   1.164  1.2243  2.3427 -3.1551
 2065SOL    HW2 7095   4.987   3.345   1.119 -0.1994  2.1414  0.8050
 2066SOL     OW 7096   1.085   6.045   3.886  0.5639  0.7389  0.1229
 2066SOL    HW1 7097   1.034   5.964   3.914  1.5979  0.8533  2.5437
 2066SOL    HW2 7098   1.174   6.017   3.850  0.0060  0.7163 -1.3241
 2067SOL     OW 7099   0.421   6.809   5.453  0.2002 -0.0793  0.7907
 2067SOL    HW1 7100   0.512   6.845   5.434 -1.1227  3.3699  0.1175
 2067SOL    HW2 7101   0.401   6.819   5.550  0.5630 -0.9836  0.9666
 2068SOL     OW 7102   6.562   1.083   4.546  0.0786 -0.2312 -0.1191
 2068SOL    HW1 7103   6.607   1.165   4.510 -2.4812  1.1555 -0.4308
 2068SOL    HW2 7104   6.504   1.108   4.623 -2.9894 -1.1123 -1.9619
 2069SOL     OW 7105   0.749   3.748   2.576  0.1093 -0.2567  0.2741
 2069SOL    HW1 7106   0.706   3.666   2.539  0.5570 -0.2245 -0.3417
 2069SOL    HW2 7107   0.849   3.736   2.575  0.2187  0.6235 -0.6325
 2070SOL     OW 7108   0.375   6.756   2.829 -0.0308 -0.2153 -0.1170
 2070SOL    HW1 7109   0.362   6.685   2.760  1.1632  1.0805 -1.7385
 2070SOL    HW2 7110   0.451   6.729   2.889  0.6716 -0.1400 -0.9635
 2071SOL     OW 7111   2.103   4.122   6.455 -0.0239  0.2913  0.2895
 2071SOL    HW1 7112   2.202   4.121   6.441 -0.1163  0.5985 -0.3993
 2071SOL    HW2 7113   2.080   4.189   6.526  0.2191  0.6159  0.0671
 2072SOL     OW 7114   4.929   6.106   1.921 -0.0585 -0.1394 -0.4749
 2072SOL    HW1 7115   4.889   6.066   2.003 -0.1764 -0.7180 -0.8158
 2072SOL    HW2 7116   4.858   6.121   1.852  0.2285 -0.7968 -0.9287
 2073SOL     OW 7117   5.881   0.919   5.485  0.4748  0.0654  0.1304
 2073SOL    HW1 7118   5.826   0.898   5.404  1.0632 -1.3329  0.0658
 2073SOL    HW2 7119   5.941   0.997   5.465  0.6976 -0.3329 -0.8370
 2074SOL     OW 7120   0.876   4.724   0.995  0.0542  0.3435 -0.0377
 2074SOL    HW1 7121   0.782   4.704   1.024  0.5550 -0.1980  1.3348
 2074SOL    HW2 7122   0.882   4.817   0.960 -1.1141  0.1749 -0.7078
 2075SOL     OW 7123   5.733   4.135   6.879  0.3851  0.0666  0.2063
 2075SOL    HW1 7124   5.778   4.129   6.968 -0.2446  0.8717  0.5931
 2075SOL    HW2 7125   5.689   4.047   6.859  0.8432 -0.2412  0.5097
 2076SOL     OW 7126   4.105   0.897   6.852  0.2436 -0.3480  0.2458
 2076SOL    HW1 7127   4.026   0.836   6.862  0.9572 -1.3446  0.0105
 2076SOL    HW2 7128   4.190   0.844   6.864  0.8810  1.0243  2.3515
 2077SOL     OW 7129   5.282   3.432   2.286 -0.0460 -0.3050  0.3393
 2077SOL    HW1 7130   5.280   3.447   2.385 -1.0539 -3.4729  0.9238
 2077SOL    HW2 7131   5.192   3.453   2.247 -0.0818 -0.4237  0.3569
 2078SOL     OW 7132   0.630   5.707   5.448 -0.5908 -1.0768  0.2782
 2078SOL    HW1 7133   0.663   5.649   5.374 -0.5410 -0.2521 -0.3723
 2078SOL    HW2 7134   0.708   5.751   5.493 -0.6631 -1.0158  0.3443
 2079SOL     OW 7135   6.263   1.485   5.167 -0.0116 -0.2240 -0.2172
 2079SOL    HW1 7136   6.255   1.536   5.252 -2.0880 -0.9270  0.0630
 2079SOL    HW2 7137   6.303   1.395   5.186 -0.5236 -0.4009  0.0293
 2080SOL     OW 7138   2.293   6.057   3.362 -0.2220  0.6924 -0.0393
 2080SOL    HW1 7139   2.293   6.035   3.460 -0.7637  2.1247  0.3107
 2080SOL    HW2 7140   2.387   6.055   3.327  0.0858  1.0999  0.7405
 2081SOL     OW 7141   2.185   0.521   5.626  0.4952  0.4775 -0.6679
 2081SOL    HW1 7142   2.098   0.473   5.617 -0.2976  2.0443 -1.5521
 2081SOL    HW2 7143   2.249   0.462   5.676 -0.7499 -1.0754 -0.8087
 2082SOL     OW 7144   0.075   1.120   1.597 -0.1044 -0.2416 -0.0012
 2082SOL    HW1 7145   0.112   1.048   1.539 -1.5686  0.2556 -1.6344
 2082SOL    HW2 7146  -0.024   1.124   1.587 -0.0121  2.6446 -0.7811
 2083SOL     OW 7147   4.172   4.271   1.112 -0.2955  0.2150  0.0530
 2083SOL    HW1 7148   4.156   4.342   1.044 -1.3055  0.9548  1.0285
 2083SOL    HW2 7149   4.107   4.281   1.187  1.3384 -0.0253  1.5748
 2084SOL     OW 7150   5.911   3.209   2.544  0.2652 -0.0583  0.6186
 2084SOL    HW1 7151   5.915   3.308   2.560 -0.8430 -0.1746  1.7632
 2084SOL    HW2 7152   5.891   3.162   2.630 -1.9308 -1.0634 -0.3473
 2085SOL     OW 7153   5.549   1.711   5.318  0.0304  0.2628  0.4587
 2085SOL    HW1 7154   5.464   1.755   5.288  0.2577 -0.4954 -1.4352
 2085SOL    HW2 7155   5.575   1.747   5.408  0.7559  4.9108 -1.3216
 2086SOL     OW 7156   3.932   6.685   2.740  0.3194  0.3372  0.8733
 2086SOL    HW1 7157   3.919   6.783   2.749 -0.7031  0.2022  0.9673
 2086SOL    HW2 7158   3.844   6.638   2.748  0.5215 -0.4593 -0.9783
 2087SOL     OW 7159   5.911   0.352   2.011  0.4462  0.4705 -0.2016
 2087SOL    HW1 7160   5.863   0.337   1.925  0.2687  3.0509 -0.6215
 2087SOL    HW2 7161   5.886   0.441   2.049  0.6714 -0.4969  2.4472
 2088SOL     OW 7162   3.305   4.102   0.631 -0.2784 -0.1115 -0.0818
 2088SOL    HW1 7163   3.253   4.022   0.598  0.5970 -0.3117 -1.0292
 2088SOL    HW2 7164   3.261   4.139   0.712 -1.4038 -0.8125 -0.3495
 2089SOL     OW 7165   4.773   2.549   0.348 -0.0426  0.2696 -0.4961
 2089SOL    HW1 7166   4.837   2.623   0.330  0.4631 -0.5434 -2.3120
 2089SOL    HW2 7167   4.761   2.495   0.265 -0.1444 -1.8746  0.8270
 2090SOL     OW 7168   3.805   2.377   0.038  0.0614 -0.0515 -0.6669
 2090SOL    HW1 7169   3.850   2.463   0.015 -0.9085  0.6692  0.0495
 2090SOL    HW2 7170   3.824   2.309  -0.033  1.5012  0.4902 -0.8414
 2091SOL     OW 7171   7.021   6.592   6.205  0.3808 -0.3831  0.0589
 2091SOL    HW1 7172   6.942   6.598   6.144  1.1682  0.6176 -0.8965
 2091SOL    HW2 7173   7.048   6.496   6.215  0.1869 -0.5723 -1.1060
 2092SOL     OW 7174   4.346   6.499   6.582 -0.5093  0.2228  0.0251
 2092SOL    HW1 7175   4.395   6.583   6.606  1.3711 -1.0656  0.9382
 2092SOL    HW2 7176   4.395   6.420   6.620 -1.1586 -1.4489 -2.4242
 2093SOL     OW 7177   2.125   3.433   2.470  0.5814 -0.4506 -0.0578
 2093SOL    HW1 7178   2.143   3.380   2.387  1.1703  0.9347 -0.8476
 2093SOL    HW2 7179   2.046   3.394   2.518 -0.3955 -0.6847 -1.7817
 2094SOL     OW 7180   4.226   1.424   2.035  0.2894 -0.0925  0.2336
 2094SOL    HW1 7181   4.241   1.479   1.953  1.8609 -0.3170  0.3438
 2094SOL    HW2 7182   4.213   1.329   2.010  0.8551 -0.1745  0.2405
 2095SOL     OW 7183   4.146   0.951   4.817  0.1714  0.0664 -0.2919
 2095SOL    HW1 7184   4.116   0.960   4.912  1.5397 -0.6535  0.2234
 2095SOL    HW2 7185   4.173   1.041   4.782  0.9979  0.1269  0.4660
 2096SOL     OW 7186   3.539   4.921   1.422 -0.9779 -0.3783  0.6282
 2096SOL    HW1 7187   3.593   4.947   1.503 -1.2167  0.7756  0.4336
 2096SOL    HW2 7188   3.508   4.827   1.432  1.4556 -1.2742  0.5516
 2097SOL     OW 7189   2.400   2.341   0.926 -0.2152  0.0939  0.0722
 2097SOL    HW1 7190   2.372   2.400   0.850 -1.5811 -0.2416  0.3074
 2097SOL    HW2 7191   2.496   2.360   0.948  0.4856 -0.3393 -2.2414
 2098SOL     OW 7192   3.993   5.468   4.245  0.2365 -0.2496 -0.6458
 2098SOL    HW1 7193   3.962   5.435   4.156 -0.5219  0.8114 -0.7959
 2098SOL    HW2 7194   3.930   5.437   4.316 -0.0401  0.2042 -0.6878
 2099SOL     OW 7195   3.422   2.264   6.180  0.1771 -0.6422 -0.0759
 2099SOL    HW1 7196   3.336   2.297   6.141  0.6350  0.7779  0.0674
 2099SOL    HW2 7197   3.458   2.189   6.124 -1.2424 -1.4002 -0.0183
 2100SOL     OW 7198   4.448   3.235   6.363  0.1780  0.2656 -0.4728
 2100SOL    HW1 7199   4.377   3.291   6.320  0.5121  0.1860 -1.1422
 2100SOL    HW2 7200   4.538   3.272   6.340  0.3642  0.2954  0.2713
 2101SOL     OW 7201   1.495   6.319   1.816  0.4823  0.6851 -0.2236
 2101SOL    HW1 7202   1.509   6.387   1.888 -0.9511  1.4837 -0.6627
 2101SOL    HW2 7203   1.504   6.228   1.855  0.5750  1.1081  0.7874
 2102SOL     OW 7204   3.859   5.238   1.274 -0.7565  0.0513 -0.3268
 2102SOL    HW1 7205   3.915   5.264   1.196 -1.2984 -0.9201 -1.0684
 2102SOL    HW2 7206   3.789   5.173   1.244  0.3341 -2.0255  1.2936
 2103SOL     OW 7207   2.586   2.452   0.022 -0.3655  0.6710  0.1000
 2103SOL    HW1 7208   2.539   2.420   0.104 -0.7506  0.0580 -0.3519
 2103SOL    HW2 7209   2.563   2.548   0.005 -0.2905  0.7964  0.7013
 2104SOL     OW 7210   0.228   2.161   0.866  0.3396  0.0976  0.6957
 2104SOL    HW1 7211   0.145   2.206   0.900  0.4134  0.8359 -0.1001
 2104SOL    HW2 7212   0.308   2.215   0.890  0.5444 -0.2820  0.8825
 2105SOL     OW 7213   4.451   5.632   3.928  0.1773  0.4088  0.5945
 2105SOL    HW1 7214   4.436   5.622   3.829  0.2694 -3.0267  0.8253
 2105SOL    HW2 7215   4.367   5.610   3.977  0.4373  1.0386  1.3379
 2106SOL     OW 7216   5.239   4.704   1.723 -0.4073 -0.8259  0.1631
 2106SOL    HW1 7217   5.195   4.718   1.634 -0.1491  0.3012  0.1912
 2106SOL    HW2 7218   5.219   4.612   1.756 -2.1139 -0.5986 -0.1644
 2107SOL     OW 7219   6.632   4.534   6.310  0.0044 -0.1338 -0.2191
 2107SOL    HW1 7220   6.676   4.592   6.379  1.0898 -0.0274 -0.9711
 2107SOL    HW2 7221   6.580   4.462   6.356 -0.2156  0.5983  0.7167
 2108SOL     OW 7222   5.693   4.707   4.921  0.5859  0.4261 -0.5481
 2108SOL    HW1 7223   5.615   4.684   4.978  0.8322  2.1380  0.5443
 2108SOL    HW2 7224   5.710   4.633   4.855 -0.8775 -0.7203  0.3221
 2109SOL     OW 7225   2.658   2.145   4.007 -0.3318  0.0275  0.5051
 2109SOL    HW1 7226   2.705   2.097   3.932 -1.0933  1.6173 -1.0498
 2109SOL    HW2 7227   2.643   2.081   4.082  0.6070 -1.5966 -0.6143
 2110SOL     OW 7228   2.061   2.124   6.759 -0.1032  0.1529  1.0015
 2110SOL    HW1 7229   2.030   2.061   6.688 -0.8224  0.3352  1.1362
 2110SOL    HW2 7230   2.155   2.104   6.784  1.2473  1.9101 -2.0840
 2111SOL     OW 7231   1.143   0.949   1.211 -0.0012  0.1300 -0.1666
 2111SOL    HW1 7232   1.229   0.957   1.161 -0.8004  0.1129 -1.6054
 2111SOL    HW2 7233   1.108   0.856   1.203 -1.1636  0.6298 -1.4007
 2112SOL     OW 7234   4.446   3.832   1.412  0.5398 -0.1052 -0.9928
 2112SOL    HW1 7235   4.381   3.779   1.359 -0.4675  1.0465 -0.9502
 2112SOL    HW2 7236   4.419   3.833   1.508 -1.2632  2.9400 -1.4090
 2113SOL     OW 7237   6.043   5.984   1.054  0.5221  0.0014 -0.3306
 2113SOL    HW1 7238   5.969   6.048   1.034 -0.4391 -1.2556 -0.9355
 2113SOL    HW2 7239   6.068   5.991   1.151  0.6287  1.4609 -0.4438
 2114SOL     OW 7240   5.937   3.218   6.180  0.0723 -0.2689 -0.0183
 2114SOL    HW1 7241   5.980   3.273   6.109 -1.3627  0.0599 -0.6763
 2114SOL    HW2 7242   5.921   3.274   6.260  1.3247 -0.5355  0.4444
 2115SOL     OW 7243   2.597   4.587   2.662  0.0124  0.2684  0.1057
 2115SOL    HW1 7244   2.533   4.511   2.652 -0.2120  0.5720 -0.8244
 2115SOL    HW2 7245   2.691   4.552   2.659 -0.0822 -0.2302  1.9000
 2116SOL     OW 7246   6.558   2.680   2.470 -0.4770 -1.0459  0.4030
 2116SOL    HW1 7247   6.617   2.756   2.498  0.5895 -1.8584  0.4309
 2116SOL    HW2 7248   6.602   2.631   2.395 -1.0660 -1.7503  0.5157
 2117SOL     OW 7249   5.734   4.846   1.436 -0.2804  0.3596  0.2378
 2117SOL    HW1 7250   5.692   4.911   1.499 -1.8303 -1.4883  1.2240
 2117SOL    HW2 7251   5.665   4.812   1.372  0.3456 -0.6928  0.0972
 2118SOL     OW 7252   6.200   2.842   1.829 -0.3979  0.3800 -0.2805
 2118SOL    HW1 7253   6.149   2.921   1.863 -0.0801  0.4216  0.1046
 2118SOL    HW2 7254   6.298   2.858   1.842 -0.3249 -0.0189 -0.3352
 2119SOL     OW 7255   3.054   4.157   1.436 -0.2879 -0.1574 -0.7052
 2119SOL    HW1 7256   3.022   4.092   1.367  0.4960  0.7762 -1.9842
 2119SOL    HW2 7257   3.069   4.246   1.393 -0.9273  0.7757  0.9313
 2120SOL     OW 7258   5.697   5.337   3.963  0.4126  0.0284  0.2536
 2120SOL    HW1 7259   5.686   5.352   4.062  1.4783  0.4992  0.3214
 2120SOL    HW2 7260   5.700   5.239   3.944 -0.1414 -0.0659  0.6512
 2121SOL     OW 7261   1.181   2.614   4.501 -0.1996 -0.0599 -0.0310
 2121SOL    HW1 7262   1.206   2.544   4.433 -0.9116 -0.6025  0.2575
 2121SOL    HW2 7263   1.264   2.658   4.534  0.2668 -0.7781 -0.2127
 2122SOL     OW 7264   5.890   3.332   5.310 -0.1995  0.4244 -0.1708
 2122SOL    HW1 7265   5.862   3.286   5.226 -0.2668  0.8677 -0.3881
 2122SOL    HW2 7266   5.965   3.395   5.291  2.8783 -2.6041  0.7833
 2123SOL     OW 7267   0.067   4.438   2.311 -0.7813 -0.5356  0.0457
 2123SOL    HW1 7268   0.026   4.392   2.390 -1.5858  1.0614  0.5892
 2123SOL    HW2 7269   0.166   4.443   2.322 -0.8709 -0.5026  0.8572
 2124SOL     OW 7270   3.147   2.598   0.887 -0.1790  0.0029  0.1813
 2124SOL    HW1 7271   3.182   2.547   0.808 -1.6994  0.9045 -1.1421
 2124SOL    HW2 7272   3.204   2.679   0.901  1.5191 -1.3471  1.5457
 2125SOL     OW 7273   3.766   5.289   2.381  0.6572  0.2488 -0.4382
 2125SOL    HW1 7274   3.706   5.256   2.308  0.4897 -1.7558  0.5523
 2125SOL    HW2 7275   3.861   5.285   2.350  0.6176 -0.9729 -0.4280
 2126SOL     OW 7276   4.666   2.155   0.779 -0.2225 -0.3958 -0.6128
 2126SOL    HW1 7277   4.727   2.190   0.850  0.6516  0.9420 -1.9635
 2126SOL    HW2 7278   4.621   2.072   0.812  1.9035 -1.1315  0.6559
 2127SOL     OW 7279   5.587   3.387   3.684  0.5939 -0.2730  0.2775
 2127SOL    HW1 7280   5.543   3.423   3.766 -0.6514 -1.8159  0.3284
 2127SOL    HW2 7281   5.602   3.462   3.619 -1.4667  0.4397  0.5677
 2128SOL     OW 7282   1.672   2.680   2.235  0.1960 -0.1377 -0.3930
 2128SOL    HW1 7283   1.639   2.662   2.142 -0.0791 -1.7871 -0.0188
 2128SOL    HW2 7284   1.605   2.736   2.283 -0.7982 -1.2084 -0.4860
 2129SOL     OW 7285   2.157   2.576   6.756 -0.3724  0.7847 -0.2215
 2129SOL    HW1 7286   2.082   2.535   6.807 -0.5913  1.8399  0.3405
 2129SOL    HW2 7287   2.213   2.505   6.714 -1.4758 -0.0305 -0.3487
 2130SOL     OW 7288   3.171   0.939   1.744 -0.1896  0.7159 -0.6382
 2130SOL    HW1 7289   3.190   0.993   1.826 -1.7800  1.6258 -0.8326
 2130SOL    HW2 7290   3.189   0.843   1.763  0.5300  1.0416  0.4247
 2131SOL     OW 7291   6.254   0.391   0.511  0.3337  0.5483 -0.1434
 2131SOL    HW1 7292   6.167   0.431   0.485  0.3139  1.9444  1.8706
 2131SOL    HW2 7293   6.250   0.358   0.606  1.2746 -1.6259 -0.7722
 2132SOL     OW 7294   4.408   1.788   1.380  0.5479 -0.8065  0.6299
 2132SOL    HW1 7295   4.309   1.793   1.368  0.6409 -0.4471 -0.0368
 2132SOL    HW2 7296   4.430   1.711   1.440 -0.1629 -0.5602  1.2204
 2133SOL     OW 7297   2.752   2.247   0.227  0.0909 -0.0754  0.3661
 2133SOL    HW1 7298   2.699   2.332   0.228  2.1615  1.3587 -1.2674
 2133SOL    HW2 7299   2.820   2.249   0.301 -1.0942 -1.2562  1.5490
 2134SOL     OW 7300   0.081   2.825   6.942  0.2653 -0.0756  0.5504
 2134SOL    HW1 7301   0.032   2.820   6.855  1.5168  2.3925 -0.4096
 2134SOL    HW2 7302   0.059   2.912   6.987 -0.9122 -1.5938  3.1184
 2135SOL     OW 7303   0.557   4.243   3.184  0.9062 -0.1203 -0.0818
 2135SOL    HW1 7304   0.494   4.190   3.240  2.0392  1.1820  2.6185
 2135SOL    HW2 7305   0.505   4.301   3.120 -0.4859 -1.0849  0.1372
 2136SOL     OW 7306   6.947   4.612   1.990  0.0669  0.1913 -0.1078
 2136SOL    HW1 7307   6.949   4.679   2.064 -2.0654 -0.0207  0.2077
 2136SOL    HW2 7308   7.034   4.613   1.941  0.6571  2.0194  0.9073
 2137SOL     OW 7309   3.156   4.552   5.593 -0.3342  0.3942 -0.0249
 2137SOL    HW1 7310   3.255   4.564   5.588 -0.3920  1.7785  1.3640
 2137SOL    HW2 7311   3.132   4.461   5.559  1.1623  0.7930 -2.4048
 2138SOL     OW 7312   5.663   6.963   2.962 -0.6480  0.7073  0.0499
 2138SOL    HW1 7313   5.640   6.881   2.909  1.2638  0.8165 -1.0230
 2138SOL    HW2 7314   5.684   7.038   2.899  0.3008  1.2346  0.9718
 2139SOL     OW 7315   4.839   2.873   3.245 -0.1120 -0.2070 -0.0069
 2139SOL    HW1 7316   4.889   2.824   3.173  0.8683 -0.1595  0.6101
 2139SOL    HW2 7317   4.809   2.808   3.315 -0.9925 -0.2440 -0.4192
 2140SOL     OW 7318   3.991   1.967   4.187 -0.4589 -0.1318  0.0468
 2140SOL    HW1 7319   3.919   1.901   4.206 -0.5312  0.3931  1.7830
 2140SOL    HW2 7320   3.952   2.060   4.185 -0.3544 -0.0748 -2.3141
 2141SOL     OW 7321   6.835   1.614   2.247 -0.6270 -0.0092  0.4780
 2141SOL    HW1 7322   6.857   1.706   2.217 -1.5222 -0.8432 -3.4000
 2141SOL    HW2 7323   6.918   1.567   2.278  0.0025  1.7327  1.5205
 2142SOL     OW 7324   1.607   1.861   1.766 -0.0075 -0.2558 -0.3755
 2142SOL    HW1 7325   1.613   1.766   1.736  0.4181 -0.6903  1.0264
 2142SOL    HW2 7326   1.640   1.869   1.860 -1.8703  0.9299  0.2440
 2143SOL     OW 7327   3.697   5.368   1.798  0.1642  0.1223 -0.7097
 2143SOL    HW1 7328   3.683   5.465   1.776 -0.0631  0.4225  0.6367
 2143SOL    HW2 7329   3.792   5.344   1.781  0.0948  0.4313 -1.5778
 2144SOL     OW 7330   6.580   6.220   3.782 -0.3800  0.4837  0.6965
 2144SOL    HW1 7331   6.552   6.213   3.686 -1.5699  0.2253  1.0479
 2144SOL    HW2 7332   6.583   6.317   3.809  3.6507  0.9370 -0.5973
 2145SOL     OW 7333   3.864   5.791   4.465 -0.0566 -0.1260 -0.4054
 2145SOL    HW1 7334   3.858   5.823   4.560  0.8628  0.3101 -0.4808
 2145SOL    HW2 7335   3.789   5.728   4.446 -1.7131  1.6582 -0.1185
 2146SOL     OW 7336   2.755   1.735   0.610 -0.1242  0.2443 -0.4689
 2146SOL    HW1 7337   2.785   1.815   0.662 -0.7541 -0.2256  0.6460
 2146SOL    HW2 7338   2.669   1.755   0.564 -0.1646  0.2836 -0.3763
 2147SOL     OW 7339   0.825   2.147   6.132 -0.0364 -0.3851 -0.0030
 2147SOL    HW1 7340   0.734   2.161   6.171 -0.7440 -0.8581 -1.4256
 2147SOL    HW2 7341   0.879   2.231   6.143  0.3602 -0.9082  3.2575
 2148SOL     OW 7342   5.154   3.270   6.079 -0.1389 -0.0571 -0.4649
 2148SOL    HW1 7343   5.153   3.183   6.030 -0.2754 -0.0493 -0.4737
 2148SOL    HW2 7344   5.234   3.323   6.050 -0.4459  0.1244 -0.9811
 2149SOL     OW 7345   2.261   2.168   0.306 -0.5559 -0.5543  0.7660
 2149SOL    HW1 7346   2.193   2.235   0.276  2.0200  2.0468  0.3885
 2149SOL    HW2 7347   2.255   2.157   0.405 -0.6428  0.7414  0.9256
 2150SOL     OW 7348   2.422   3.454   1.020  0.1885 -1.0046  0.6895
 2150SOL    HW1 7349   2.453   3.511   1.096 -1.2505  3.0288 -1.4251
 2150SOL    HW2 7350   2.328   3.424   1.037 -0.1538 -0.0562  0.5565
 2151SOL     OW 7351   1.531   6.753   6.587 -0.1566 -0.0619 -0.5074
 2151SOL    HW1 7352   1.458   6.691   6.613  0.6805 -1.2091 -0.7870
 2151SOL    HW2 7353   1.620   6.709   6.603  0.4461  0.6465 -1.7102
 2152SOL     OW 7354   4.200   6.687   1.802 -0.9670 -0.7268 -0.0528
 2152SOL    HW1 7355   4.161   6.749   1.870  1.4233  1.7854 -0.8209
 2152SOL    HW2 7356   4.217   6.598   1.845 -1.9635 -0.0499  1.8627
 2153SOL     OW 7357   5.256   2.432   2.582  0.1155  0.4777 -0.7981
 2153SOL    HW1 7358   5.194   2.440   2.504  0.5115 -0.2257 -1.1854
 2153SOL    HW2 7359   5.204   2.402   2.663  0.3530 -2.6905 -1.7272
 2154SOL     OW 7360   4.675   0.327   4.995 -0.4016  0.2367 -0.2812
 2154SOL    HW1 7361   4.586   0.322   4.951 -1.5804 -1.1720  2.0734
 2154SOL    HW2 7362   4.669   0.380   5.079  1.2767  1.0262 -0.5990
 2155SOL     OW 7363   3.436   6.866   1.527 -0.1772  0.3607  0.2572
 2155SOL    HW1 7364   3.440   6.840   1.624 -0.0739  0.1635  0.1998
 2155SOL    HW2 7365   3.475   6.793   1.471 -2.5174 -0.6923 -0.1604
 2156SOL     OW 7366   1.836   6.677   5.441  0.0422  0.0380  0.0128
 2156SOL    HW1 7367   1.799   6.587   5.466  1.0132 -0.6545 -0.9408
 2156SOL    HW2 7368   1.931   6.667   5.413  0.6887  1.6293  1.4567
 2157SOL     OW 7369   6.779   6.615   2.639 -0.4293 -0.6465 -0.3661
 2157SOL    HW1 7370   6.729   6.621   2.553 -0.8708 -0.7484 -0.1152
 2157SOL    HW2 7371   6.852   6.685   2.639 -1.8346  0.8742  0.0927
 2158SOL     OW 7372   4.173   4.932   0.392  0.1126  0.1144  0.4546
 2158SOL    HW1 7373   4.108   5.005   0.372  0.4036 -0.4581 -3.3797
 2158SOL    HW2 7374   4.124   4.845   0.401  0.0260  0.3061  2.3175
 2159SOL     OW 7375   2.483   1.635   4.872  0.2804  0.4275 -0.1357
 2159SOL    HW1 7376   2.477   1.633   4.971  0.4613 -2.7509 -0.1073
 2159SOL    HW2 7377   2.579   1.644   4.845  0.3768 -0.1327  0.0087
 2160SOL     OW 7378   4.730   2.305   6.369  0.5710 -0.2757 -0.2439
 2160SOL    HW1 7379   4.639   2.314   6.409  0.7256  0.8405 -0.1118
 2160SOL    HW2 7380   4.739   2.367   6.292  0.3521 -2.2398 -1.9417
 2161SOL     OW 7381   5.977   4.720   1.362 -0.8638 -0.2513 -0.7636
 2161SOL    HW1 7382   5.903   4.750   1.421  0.8781  1.0129  0.8987
 2161SOL    HW2 7383   5.965   4.623   1.341 -2.4210 -0.3275  0.2967
 2162SOL     OW 7384   3.264   0.475   1.851 -0.1967  0.4938  0.4455
 2162SOL    HW1 7385   3.306   0.441   1.767 -1.8252  0.8353 -0.5625
 2162SOL    HW2 7386   3.226   0.567   1.835 -1.9651 -0.0912  1.0366
 2163SOL     OW 7387   1.433   5.701   0.563 -0.6061  0.4325  0.6014
 2163SOL    HW1 7388   1.510   5.727   0.504 -2.1724  1.0247 -1.2895
 2163SOL    HW2 7389   1.387   5.621   0.525 -1.0962  0.2326  1.5784
 2164SOL     OW 7390   1.332   2.768   1.629  0.4727 -0.0003  0.2016
 2164SOL    HW1 7391   1.377   2.819   1.556  0.7980 -0.8854 -0.2377
 2164SOL    HW2 7392   1.250   2.723   1.592  0.3580 -0.0388  0.5029
 2165SOL     OW 7393   5.840   2.920   4.742 -0.3029 -0.0975  0.4114
 2165SOL    HW1 7394   5.852   2.921   4.841  0.1386 -0.0249  0.3557
 2165SOL    HW2 7395   5.899   2.850   4.702 -1.3658 -0.9770  0.3103
 2166SOL     OW 7396   2.157   3.386   4.972 -0.3968 -0.0930 -0.4923
 2166SOL    HW1 7397   2.139   3.289   4.961 -0.5180  0.0840 -2.0987
 2166SOL    HW2 7398   2.147   3.432   4.884  1.1174  1.1416 -0.0672
 2167SOL     OW 7399   1.505   0.619   4.832  0.3714 -0.5067 -0.0902
 2167SOL    HW1 7400   1.448   0.577   4.762  0.6405  1.1427 -1.3540
 2167SOL    HW2 7401   1.447   0.657   4.904 -0.1296  0.6380 -1.0714
 2168SOL     OW 7402   6.885   0.195   3.514  0.0091  0.8426  0.0916
 2168SOL    HW1 7403   6.810   0.154   3.462  1.0451 -2.0097  0.6606
 2168SOL    HW2 7404   6.848   0.263   3.577 -2.6085 -2.1834  2.1538
 2169SOL     OW 7405   4.310   3.045   6.980  0.0096  0.2368 -0.2243
 2169SOL    HW1 7406   4.381   3.073   7.045 -0.7338  2.8486 -0.4355
 2169SOL    HW2 7407   4.240   2.993   7.028  0.3715  0.5912  0.7138
 2170SOL     OW 7408   5.653   5.376   4.896  0.0736  0.0483  0.4985
 2170SOL    HW1 7409   5.747   5.345   4.911 -0.8022 -3.0454  0.4414
 2170SOL    HW2 7410   5.624   5.350   4.804 -1.5902 -1.4135  1.3680
 2171SOL     OW 7411   1.738   4.615   2.223 -0.1215  0.4817 -0.3257
 2171SOL    HW1 7412   1.822   4.588   2.269  0.0073  0.2510 -0.6927
 2171SOL    HW2 7413   1.697   4.536   2.179 -1.4120  0.2335  1.2192
 2172SOL     OW 7414   3.498   2.314   5.587  0.3844 -0.0796 -0.0359
 2172SOL    HW1 7415   3.456   2.258   5.658  0.5739 -0.0866  0.0702
 2172SOL    HW2 7416   3.427   2.347   5.524  0.2957 -0.5836 -0.2017
 2173SOL     OW 7417   3.602   0.946   4.568 -0.4424  0.2749 -0.4340
 2173SOL    HW1 7418   3.699   0.957   4.545 -0.4387 -0.2989 -0.7059
 2173SOL    HW2 7419   3.579   1.006   4.645  0.0619  0.6113 -0.5403
 2174SOL     OW 7420   6.720   4.233   3.336  0.4821  0.3929  0.4772
 2174SOL    HW1 7421   6.747   4.327   3.317 -1.0324  0.4980 -1.5465
 2174SOL    HW2 7422   6.795   4.171   3.312  0.3870  0.9142 -1.3426
 2175SOL     OW 7423   2.370   2.136   3.175  0.3952  0.8611 -0.3212
 2175SOL    HW1 7424   2.328   2.226   3.162  0.6758  0.9767 -0.4422
 2175SOL    HW2 7425   2.466   2.148   3.201 -0.2571  0.6457  2.4148
 2176SOL     OW 7426   5.144   4.455   0.507 -0.6201 -0.1619 -0.5672
 2176SOL    HW1 7427   5.153   4.356   0.491  2.9722 -0.0897  0.1016
 2176SOL    HW2 7428   5.106   4.470   0.598 -1.3273 -0.9030 -0.7282
 2177SOL     OW 7429   5.858   1.951   3.459 -0.0619  0.2152 -0.4059
 2177SOL    HW1 7430   5.760   1.965   3.468  0.0588 -0.0217  1.9147
 2177SOL    HW2 7431   5.876   1.880   3.391 -1.6878 -1.6013  0.9551
 2178SOL     OW 7432   0.730   3.876   1.597 -0.0227  0.3602  0.3040
 2178SOL    HW1 7433   0.741   3.792   1.544 -0.5709  0.7786 -0.4883
 2178SOL    HW2 7434   0.815   3.895   1.647  0.1404 -0.5984  0.4064
 2179SOL     OW 7435   1.323   3.227   5.054 -0.4844  0.5611  1.0279
 2179SOL    HW1 7436   1.299   3.145   5.002 -0.9034  1.7598 -0.7487
 2179SOL    HW2 7437   1.422   3.234   5.061 -0.4464 -0.1541  1.3031
 2180SOL     OW 7438   1.968   3.539   1.456  0.1459 -0.0262 -0.2142
 2180SOL    HW1 7439   1.959   3.440   1.467 -0.2099  0.0057 -0.2076
 2180SOL    HW2 7440   2.030   3.575   1.526  0.6426 -0.3078 -0.5040
 2181SOL     OW 7441   4.879   4.029   5.790 -0.2955  0.2024  0.5013
 2181SOL    HW1 7442   4.841   3.948   5.835 -1.8355 -0.0166 -1.0401
 2181SOL    HW2 7443   4.903   4.005   5.695 -0.8023  1.5396  0.0190
 2182SOL     OW 7444   2.390   4.347   5.800 -0.2255 -0.2202 -0.0676
 2182SOL    HW1 7445   2.357   4.356   5.706  1.0325 -0.9495 -0.6099
 2182SOL    HW2 7446   2.419   4.252   5.816 -3.1219 -0.8849  2.0076
 2183SOL     OW 7447   2.732   1.865   6.428  0.9134 -0.2315 -0.3528
 2183SOL    HW1 7448   2.675   1.795   6.385 -0.6839 -2.0887  4.2208
 2183SOL    HW2 7449   2.744   1.941   6.364 -2.6850 -1.7971 -3.3051
 2184SOL     OW 7450   3.823   1.512   0.161  0.3433  0.0796 -0.0170
 2184SOL    HW1 7451   3.824   1.452   0.081 -0.4201  0.0941 -0.0458
 2184SOL    HW2 7452   3.916   1.523   0.196  0.3508 -2.6794  1.1585
 2185SOL     OW 7453   1.522   6.823   0.211 -0.3568 -0.2391 -0.4361
 2185SOL    HW1 7454   1.531   6.730   0.174 -0.6771 -0.4038 -0.1049
 2185SOL    HW2 7455   1.461   6.821   0.290 -0.5410  0.2916 -0.5644
 2186SOL     OW 7456   5.224   5.445   0.278 -0.1514  0.0313 -0.5748
 2186SOL    HW1 7457   5.196   5.351   0.299  0.4896  0.1799  1.0428
 2186SOL    HW2 7458   5.320   5.458   0.301  0.0828  0.7958 -1.8457
 2187SOL     OW 7459   6.327   0.057   1.206  0.6724 -0.3102  0.6136
 2187SOL    HW1 7460   6.312  -0.014   1.136 -0.6785 -0.2384  0.8173
 2187SOL    HW2 7461   6.351   0.013   1.293 -0.3325 -0.5388  0.7839
 2188SOL     OW 7462   6.088   5.764   5.076 -0.4705  0.2225  0.2969
 2188SOL    HW1 7463   6.149   5.825   5.126 -0.9684 -0.4962  1.8391
 2188SOL    HW2 7464   6.005   5.814   5.051 -0.1737  0.6169  0.0819
 2189SOL     OW 7465   3.451   6.168   3.240  0.1378  0.2039  0.4621
 2189SOL    HW1 7466   3.476   6.108   3.163  0.5087  0.2986  0.5080
 2189SOL    HW2 7467   3.491   6.133   3.324 -0.1999  0.1471  0.6040
 2190SOL     OW 7468   5.350   2.862   0.731  0.3362  0.5379  0.0670
 2190SOL    HW1 7469   5.443   2.870   0.697 -0.1384  1.6433 -1.0426
 2190SOL    HW2 7470   5.304   2.787   0.685  0.6288  0.0907  0.5014
 2191SOL     OW 7471   2.150   1.319   6.177 -0.4199  0.1053 -0.0731
 2191SOL    HW1 7472   2.227   1.268   6.138 -2.0418 -2.2916 -0.3369
 2191SOL    HW2 7473   2.140   1.406   6.129  3.1230  1.3454  1.1009
 2192SOL     OW 7474   4.165   2.279   4.340  0.4211 -0.2852  0.0678
 2192SOL    HW1 7475   4.072   2.289   4.305  0.3983  0.8034  0.3986
 2192SOL    HW2 7476   4.162   2.265   4.439  0.5930 -0.8434 -0.0003
 2193SOL     OW 7477   0.212   6.695   6.632  0.3126 -1.2216 -0.0968
 2193SOL    HW1 7478   0.183   6.768   6.569 -0.1304 -1.3888 -0.0876
 2193SOL    HW2 7479   0.312   6.689   6.631  0.3494 -0.7042 -0.2000
 2194SOL     OW 7480   0.392   3.563   6.192 -0.7688  0.0679  0.3045
 2194SOL    HW1 7481   0.394   3.659   6.219 -0.5350  0.1441  0.0124
 2194SOL    HW2 7482   0.382   3.506   6.274 -1.9163  0.3776  0.4033
 2195SOL     OW 7483   5.517   6.922   5.793  0.1182  0.6510 -0.2031
 2195SOL    HW1 7484   5.523   7.001   5.854  3.5027 -1.4232  2.5475
 2195SOL    HW2 7485   5.601   6.914   5.740 -0.1030 -1.1394 -0.3462
 2196SOL     OW 7486   6.026   1.162   5.464  0.4451 -0.1014 -0.0451
 2196SOL    HW1 7487   5.987   1.212   5.386 -0.9582 -0.8647  0.1446
 2196SOL    HW2 7488   6.026   1.221   5.545  0.3580  0.1338 -0.2140
 2197SOL     OW 7489   5.510   4.140   6.381 -0.3690  0.2470 -0.7184
 2197SOL    HW1 7490   5.509   4.176   6.474 -1.9429 -1.3259 -0.0654
 2197SOL    HW2 7491   5.466   4.205   6.319 -1.3194  0.3652  0.0541
 2198SOL     OW 7492   5.492   6.676   3.582  0.0581 -0.6906  0.2157
 2198SOL    HW1 7493   5.498   6.680   3.482 -0.1785  0.0716  0.2305
 2198SOL    HW2 7494   5.572   6.719   3.622 -0.6259  0.4806  0.3573
 2199SOL     OW 7495   4.046   5.935   5.730 -0.2361 -0.0212 -0.2473
 2199SOL    HW1 7496   4.058   5.836   5.724  0.4799 -0.1105  1.8022
 2199SOL    HW2 7497   4.066   5.976   5.641  2.2164 -1.4816 -0.4755
 2200SOL     OW 7498   0.446   1.248   4.240  0.2128 -0.1313  0.1326
 2200SOL    HW1 7499   0.398   1.184   4.299 -0.6459  1.0332  0.7468
 2200SOL    HW2 7500   0.380   1.296   4.183  0.9549 -0.6555 -1.2169
 2201SOL     OW 7501   6.986   2.858   3.420  0.8329  0.0810 -0.2624
 2201SOL    HW1 7502   6.909   2.903   3.375  1.0832 -0.2537 -1.0517
 2201SOL    HW2 7503   6.965   2.761   3.432  1.4495 -0.1986 -1.2710
 2202SOL     OW 7504   2.495   0.298   1.841 -0.1531  0.3371  0.2690
 2202SOL    HW1 7505   2.414   0.347   1.872  0.7061  1.6738  0.4862
 2202SOL    HW2 7506   2.577   0.339   1.882  0.7100 -0.3741 -0.6887
 2203SOL     OW 7507   2.340   2.771   2.338 -0.2782  0.2505 -0.4989
 2203SOL    HW1 7508   2.437   2.798   2.331  0.0541 -1.0534 -1.2142
 2203SOL    HW2 7509   2.315   2.718   2.257 -1.4343  0.0522 -0.0163
 2204SOL     OW 7510   4.851   0.483   2.253 -0.2802  0.1882  0.2151
 2204SOL    HW1 7511   4.830   0.565   2.200  1.1778  0.9563  0.7650
 2204SOL    HW2 7512   4.876   0.409   2.191  2.3523  1.3475 -0.2390
 2205SOL     OW 7513   0.762   5.548   4.714 -0.2199  0.0828 -0.7957
 2205SOL    HW1 7514   0.732   5.644   4.715 -2.0604 -0.4770 -0.4638
 2205SOL    HW2 7515   0.842   5.538   4.774  0.5326  1.5476 -1.4854
 2206SOL     OW 7516   4.857   5.058   0.095  0.3058 -0.1795 -0.6943
 2206SOL    HW1 7517   4.835   5.151   0.068  0.2993  0.0765  0.1544
 2206SOL    HW2 7518   4.773   5.004   0.102 -0.1995  0.7839  2.4911
 2207SOL     OW 7519   3.309   5.629   6.509  0.3296 -0.3187 -0.1993
 2207SOL    HW1 7520   3.244   5.705   6.512  0.9864  0.2388  0.0177
 2207SOL    HW2 7521   3.307   5.580   6.596 -1.1744 -1.4847 -0.8436
 2208SOL     OW 7522   2.160   4.494   4.223  0.9312 -0.1772  0.1148
 2208SOL    HW1 7523   2.169   4.500   4.124  0.8740 -0.7148  0.0718
 2208SOL    HW2 7524   2.081   4.548   4.253  0.5053 -0.6066 -0.2181
 2209SOL     OW 7525   1.398   0.118   5.468 -0.4859  0.0372 -0.6676
 2209SOL    HW1 7526   1.417   0.059   5.389 -0.3105 -0.7237 -0.0715
 2209SOL    HW2 7527   1.420   0.069   5.552 -0.7540  0.8082 -0.1360
 2210SOL     OW 7528   2.902   4.759   3.383  0.1272  0.3560 -0.6377
 2210SOL    HW1 7529   2.855   4.821   3.320  0.0107  0.5118 -0.3987
 2210SOL    HW2 7530   2.855   4.671   3.384 -1.1911  1.0113  0.8368
 2211SOL     OW 7531   6.117   0.651   1.797 -0.1908  0.1890  0.5994
 2211SOL    HW1 7532   6.159   0.627   1.885 -0.6561 -0.4644  0.6493
 2211SOL    HW2 7533   6.187   0.646   1.725  0.0905  0.2933  0.8610
 2212SOL     OW 7534   2.160   5.539   1.316  0.1541 -0.6296  0.0535
 2212SOL    HW1 7535   2.149   5.569   1.410  3.1496  0.1117  0.2696
 2212SOL    HW2 7536   2.121   5.606   1.254 -0.6995 -0.4981  0.7243
 2213SOL     OW 7537   2.655   2.926   6.934 -0.1651 -0.2521  0.2100
 2213SOL    HW1 7538   2.739   2.979   6.944 -0.3881 -0.0719  1.2489
 2213SOL    HW2 7539   2.576   2.988   6.937 -0.3629 -0.4925 -0.0173
 2214SOL     OW 7540   3.234   2.977   2.916 -0.1717 -0.5425  0.1335
 2214SOL    HW1 7541   3.195   2.959   2.826 -0.5045 -1.3203  0.4332
 2214SOL    HW2 7542   3.170   3.032   2.970  0.2035  0.2839 -0.2387
 2215SOL     OW 7543   3.942   6.935   0.632  0.1564 -0.4476  0.2062
 2215SOL    HW1 7544   4.022   6.987   0.602 -0.5326 -0.6506 -2.1635
 2215SOL    HW2 7545   3.864   6.997   0.643  0.5953 -0.2096  2.7466
 2216SOL     OW 7546   0.914   0.446   6.122 -0.4001  0.0809 -0.4662
 2216SOL    HW1 7547   0.870   0.368   6.165 -0.4812  0.4369  0.1056
 2216SOL    HW2 7548   0.857   0.527   6.133  1.0373  0.8998  1.6335
 2217SOL     OW 7549   3.797   6.805   1.899 -0.1807  0.4339  0.0117
 2217SOL    HW1 7550   3.750   6.718   1.884 -1.9060  1.3961 -0.4091
 2217SOL    HW2 7551   3.799   6.857   1.814  1.7728  0.4067 -0.0045
 2218SOL     OW 7552   6.944   4.691   0.944 -0.3442 -0.3055 -0.0251
 2218SOL    HW1 7553   6.870   4.630   0.974  0.9655 -2.0460 -0.1737
 2218SOL    HW2 7554   7.030   4.640   0.944  0.4070  0.8282 -2.6820
 2219SOL     OW 7555   4.719   1.086   0.546  0.1144 -0.1781 -0.2726
 2219SOL    HW1 7556   4.662   1.163   0.574  0.9144  0.3190  0.0232
 2219SOL    HW2 7557   4.739   1.029   0.625 -0.1105 -0.4483 -0.4091
 2220SOL     OW 7558   3.213   5.991   5.584  1.2064 -0.0625  0.6175
 2220SOL    HW1 7559   3.221   5.893   5.603 -2.9299 -1.2072 -2.0840
 2220SOL    HW2 7560   3.265   6.013   5.502  0.3858 -0.6221 -0.0803
 2221SOL     OW 7561   6.437   1.341   3.744  0.4045 -0.4802  0.0565
 2221SOL    HW1 7562   6.389   1.375   3.664 -0.6158  0.7369  1.1343
 2221SOL    HW2 7563   6.427   1.407   3.819  2.2300 -1.0587  0.8763
 2222SOL     OW 7564   6.300   1.556   6.961  0.4126  0.3797 -0.0635
 2222SOL    HW1 7565   6.323   1.645   7.000  1.9954  0.4012 -0.9795
 2222SOL    HW2 7566   6.281   1.566   6.863 -0.7733 -0.0989  0.0970
 2223SOL     OW 7567   5.537   1.259   5.061 -0.1172 -0.1039  0.2868
 2223SOL    HW1 7568   5.485   1.181   5.026  2.4956 -1.4955 -0.7493
 2223SOL    HW2 7569   5.557   1.322   4.986  1.4015 -0.6495  0.2023
 2224SOL     OW 7570   6.934   2.577   5.830 -0.2271  0.1758 -0.4223
 2224SOL    HW1 7571   6.949   2.479   5.822 -0.1539  0.2485 -1.1912
 2224SOL    HW2 7572   6.934   2.602   5.927 -0.3034 -0.5856 -0.2182
 2225SOL     OW 7573   0.952   1.447   4.890  0.2583 -0.0033 -0.3552
 2225SOL    HW1 7574   0.862   1.479   4.918  0.3978  0.6907 -0.6797
 2225SOL    HW2 7575   0.991   1.389   4.962 -0.8061 -1.0340 -0.5767
 2226SOL     OW 7576   3.832   6.284   0.808  0.0740  0.7294 -0.3797
 2226SOL    HW1 7577   3.833   6.341   0.890 -1.0655 -0.7072  0.6813
 2226SOL    HW2 7578   3.797   6.338   0.731  0.6153  1.9295  0.1890
 2227SOL     OW 7579   5.673   1.723   0.093  0.3209 -0.0815  0.0466
 2227SOL    HW1 7580   5.698   1.732  -0.003 -3.7393 -0.8230 -1.2767
 2227SOL    HW2 7581   5.677   1.627   0.120 -0.3310 -0.1312 -0.0063
 2228SOL     OW 7582   4.168   5.563   0.895  0.4006  0.1139 -0.0351
 2228SOL    HW1 7583   4.087   5.579   0.952 -0.4202 -0.1001 -1.1136
 2228SOL    HW2 7584   4.147   5.494   0.827  1.9855 -1.0703  0.6216
 2229SOL     OW 7585   3.646   3.341   5.256 -0.0380 -0.2212 -0.0117
 2229SOL    HW1 7586   3.595   3.295   5.329 -1.3971 -0.1742 -0.9138
 2229SOL    HW2 7587   3.615   3.436   5.249  0.3166 -0.1372 -0.4531
 2230SOL     OW 7588   4.860   6.282   0.970  0.7920  0.2501  0.0965
 2230SOL    HW1 7589   4.855   6.364   1.028 -2.0273  0.6367 -0.5541
 2230SOL    HW2 7590   4.798   6.212   1.005  0.9737 -0.4978 -1.0081
 2231SOL     OW 7591   0.835   1.033   0.540 -0.4056  0.5749  0.2462
 2231SOL    HW1 7592   0.815   1.050   0.636  0.3849 -1.1619  0.7742
 2231SOL    HW2 7593   0.898   1.103   0.506 -0.4457  1.0275  1.0776
 2232SOL     OW 7594   2.668   2.394   4.235 -1.0702  0.2324 -0.3690
 2232SOL    HW1 7595   2.671   2.317   4.172 -1.2635 -0.6382  0.6503
 2232SOL    HW2 7596   2.594   2.457   4.209 -1.5159 -0.4114 -0.6673
 2233SOL     OW 7597   1.815   3.864   0.458  0.0261 -0.4390 -0.4930
 2233SOL    HW1 7598   1.875   3.834   0.532 -0.6516  0.9432  0.6593
 2233SOL    HW2 7599   1.833   3.960   0.438 -0.4155 -0.5636 -1.5414
 2234SOL     OW 7600   5.194   2.349   6.550  0.1083 -0.7124  0.7610
 2234SOL    HW1 7601   5.096   2.365   6.539 -0.0360 -2.4957 -1.2311
 2234SOL    HW2 7602   5.244   2.399   6.480  0.5053 -0.7512  1.0138
 2235SOL     OW 7603   3.244   1.414   3.196  0.1768  0.5017 -0.0188
 2235SOL    HW1 7604   3.239   1.475   3.118  1.2945  1.5933  0.7313
 2235SOL    HW2 7605   3.331   1.364   3.194 -0.3683 -0.4752 -0.1755
 2236SOL     OW 7606   3.976   2.623   6.542 -0.2655 -0.4128  0.5068
 2236SOL    HW1 7607   3.946   2.535   6.579 -0.0526 -0.4026  0.7074
 2236SOL    HW2 7608   4.050   2.608   6.476 -1.6535 -0.5578 -1.0659
 2237SOL     OW 7609   0.340   4.076   4.733 -0.0650 -0.7577  0.0485
 2237SOL    HW1 7610   0.400   4.153   4.751  1.0981 -1.0673 -2.1164
 2237SOL    HW2 7611   0.385   3.991   4.760 -0.2869 -0.8689  0.0767
 2238SOL     OW 7612   3.380   5.879   0.889  0.1126  0.6512 -0.0848
 2238SOL    HW1 7613   3.435   5.871   0.806  0.0451 -0.6571 -0.0321
 2238SOL    HW2 7614   3.391   5.796   0.944 -1.9829  0.2992 -0.1157
 2239SOL     OW 7615   4.997   4.778   5.571  0.5464 -0.4954  0.5766
 2239SOL    HW1 7616   5.032   4.704   5.514  0.2684 -0.2318  0.0537
 2239SOL    HW2 7617   4.899   4.766   5.586  0.0911  0.7399 -1.0821
 2240SOL     OW 7618   4.309   0.337   6.007  0.3744  0.1874 -0.2481
 2240SOL    HW1 7619   4.374   0.302   6.075  0.4706  2.2827  0.8227
 2240SOL    HW2 7620   4.230   0.277   6.002  0.7450 -0.4581  1.1314
 2241SOL     OW 7621   0.716   5.526   5.245  0.0067  0.1342 -0.1149
 2241SOL    HW1 7622   0.814   5.536   5.227  0.1949 -0.7922  0.3412
 2241SOL    HW2 7623   0.665   5.570   5.172  0.7616 -1.2842 -1.5785
 2242SOL     OW 7624   4.877   3.660   3.364  0.4065  0.0818  0.3362
 2242SOL    HW1 7625   4.864   3.576   3.417 -0.7290  0.5806  0.8863
 2242SOL    HW2 7626   4.902   3.637   3.270  0.9089 -0.8447  0.6865
 2243SOL     OW 7627   1.794   7.011   6.071  0.4719 -0.0582  0.2383
 2243SOL    HW1 7628   1.766   6.988   6.164 -2.7269  1.4834 -0.2089
 2243SOL    HW2 7629   1.788   6.930   6.013 -0.9186 -0.3257  0.7142
 2244SOL     OW 7630   1.310   0.123   1.545  0.2554 -0.3108  0.1066
 2244SOL    HW1 7631   1.276   0.202   1.596  0.6953  0.5990 -0.9613
 2244SOL    HW2 7632   1.265   0.118   1.456  0.8641 -0.7519 -0.1891
 2245SOL     OW 7633   0.220   0.553   0.561 -0.5560 -0.5145  0.3697
 2245SOL    HW1 7634   0.281   0.559   0.640 -0.3124  1.2656  0.0953
 2245SOL    HW2 7635   0.270   0.513   0.484 -0.2867 -0.7153  0.6474
 2246SOL     OW 7636   1.261   0.250   3.073 -0.3215  0.2519  0.2895
 2246SOL    HW1 7637   1.237   0.153   3.085  1.3853 -0.1311  0.8897
 2246SOL    HW2 7638   1.180   0.301   3.043 -0.9010 -1.6371 -1.5785
 2247SOL     OW 7639   3.014   3.917   3.632  0.6512 -0.0575  0.1969
 2247SOL    HW1 7640   3.015   3.974   3.550  0.5354  2.0604  1.6141
 2247SOL    HW2 7641   3.016   3.820   3.605  0.6043  0.5731 -2.2755
 2248SOL     OW 7642   0.497   3.917   5.651 -0.0865 -0.5184 -0.0935
 2248SOL    HW1 7643   0.567   3.979   5.686 -0.9286  1.3663 -1.5578
 2248SOL    HW2 7644   0.492   3.836   5.709  1.9667  0.1682  1.1359
 2249SOL     OW 7645   6.235   6.890   3.660  0.0214  0.2268 -0.0827
 2249SOL    HW1 7646   6.147   6.930   3.685  0.0895  1.7531 -2.0429
 2249SOL    HW2 7647   6.273   6.940   3.582  1.0452 -2.4804 -1.4469
 2250SOL     OW 7648   2.993   2.946   5.293  0.4916 -0.1913 -0.8773
 2250SOL    HW1 7649   3.011   2.855   5.332 -0.4395 -0.8544 -1.9429
 2250SOL    HW2 7650   2.905   2.979   5.326  0.9039  0.4133 -0.3612
 2251SOL     OW 7651   5.536   1.368   6.289  0.5689 -0.0545  0.1961
 2251SOL    HW1 7652   5.614   1.429   6.274 -0.6492  1.5069 -0.0009
 2251SOL    HW2 7653   5.500   1.383   6.381  0.7485 -1.1099  0.4606
 2252SOL     OW 7654   3.329   1.669   2.134  0.1653 -0.2102  0.0327
 2252SOL    HW1 7655   3.372   1.644   2.220 -1.2683 -1.8932  0.3050
 2252SOL    HW2 7656   3.232   1.686   2.149 -0.0837 -0.4167 -1.2254
 2253SOL     OW 7657   6.064   5.236   0.687 -0.5871 -0.0913  0.5513
 2253SOL    HW1 7658   5.999   5.229   0.612 -0.6839 -1.1936  0.7299
 2253SOL    HW2 7659   6.155   5.206   0.655 -0.2615  0.9636  0.4413
 2254SOL     OW 7660   3.515   3.753   3.452  0.1956 -0.0245 -0.0426
 2254SOL    HW1 7661   3.495   3.776   3.547  0.8727 -0.2977  0.1765
 2254SOL    HW2 7662   3.509   3.836   3.396 -2.4389 -0.2468 -0.1935
 2255SOL     OW 7663   5.032   4.883   6.651  0.8205  0.6069  0.7187
 2255SOL    HW1 7664   5.104   4.815   6.635  1.2921  0.8510  1.7404
 2255SOL    HW2 7665   5.063   4.949   6.719  0.3551  1.8420 -0.2216
 2256SOL     OW 7666   4.247   6.731   3.127 -0.1832 -0.4343  0.0288
 2256SOL    HW1 7667   4.329   6.735   3.070 -0.5980  1.0037 -0.5064
 2256SOL    HW2 7668   4.176   6.677   3.081  0.2905 -1.2857  0.2834
 2257SOL     OW 7669   0.689   1.196   5.038 -0.5715  0.6996  0.7342
 2257SOL    HW1 7670   0.777   1.170   5.078 -0.5870  0.7117  0.7763
 2257SOL    HW2 7671   0.681   1.158   4.946 -1.1473 -0.5782  1.2861
 2258SOL     OW 7672   1.549   4.721   3.260  0.0699  0.2676  0.2164
 2258SOL    HW1 7673   1.603   4.797   3.295  0.4483 -0.5213  1.4091
 2258SOL    HW2 7674   1.605   4.667   3.197 -0.6812  1.8143 -1.8643
 2259SOL     OW 7675   0.074   2.875   4.492 -0.2446 -0.1672  0.6163
 2259SOL    HW1 7676  -0.018   2.899   4.462 -0.0044 -0.2866 -0.2541
 2259SOL    HW2 7677   0.108   2.943   4.556  1.2194  3.1396 -3.2794
 2260SOL     OW 7678   0.915   2.168   2.087 -0.5679  0.5802 -0.0325
 2260SOL    HW1 7679   0.914   2.073   2.059  3.4054  0.1555  0.6581
 2260SOL    HW2 7680   0.930   2.174   2.186  0.5748  1.8541 -0.2404
 2261SOL     OW 7681   5.772   5.463   1.384  0.6359  0.1734  0.4636
 2261SOL    HW1 7682   5.765   5.401   1.462 -2.0307  0.2857  0.3999
 2261SOL    HW2 7683   5.765   5.412   1.299 -0.3251  0.4193  0.3878
 2262SOL     OW 7684   0.522   1.663   3.302 -0.2989 -0.2567 -0.5544
 2262SOL    HW1 7685   0.566   1.593   3.359  0.6822 -1.1971 -2.3883
 2262SOL    HW2 7686   0.425   1.668   3.325  0.4343  1.1247  2.8603
 2263SOL     OW 7687   2.158   6.606   2.771  0.3754  0.3164  0.3205
 2263SOL    HW1 7688   2.135   6.624   2.676  1.7111 -0.3711 -0.1560
 2263SOL    HW2 7689   2.078   6.571   2.819 -0.4951  1.3157 -0.3581
 2264SOL     OW 7690   1.836   5.515   1.048 -0.1002 -0.1024  0.0196
 2264SOL    HW1 7691   1.775   5.544   0.975 -0.5865 -1.4919 -0.1682
 2264SOL    HW2 7692   1.816   5.419   1.071  1.9410 -0.5799 -0.0048
 2265SOL     OW 7693   0.316   5.131   3.741  0.2831  0.0479  0.1354
 2265SOL    HW1 7694   0.283   5.211   3.790 -0.5834 -0.1288 -0.1379
 2265SOL    HW2 7695   0.348   5.158   3.650 -0.5403  0.0113 -0.1710
 2266SOL     OW 7696   5.581   2.776   6.877 -0.1331  0.1464 -0.3459
 2266SOL    HW1 7697   5.603   2.873   6.877 -0.8091  0.3171  1.0239
 2266SOL    HW2 7698   5.486   2.763   6.847 -0.4864  0.0400  0.7741
 2267SOL     OW 7699   5.631   2.370   4.907  0.3470 -0.1542 -0.0197
 2267SOL    HW1 7700   5.577   2.449   4.879 -0.7163 -0.4158  1.1976
 2267SOL    HW2 7701   5.573   2.307   4.959  1.4648 -1.1840  0.0148
 2268SOL     OW 7702   5.994   5.725   6.434  0.1273  0.5840  0.2391
 2268SOL    HW1 7703   5.901   5.704   6.406  0.6235 -0.9587 -0.3479
 2268SOL    HW2 7704   5.998   5.733   6.534 -0.3446 -0.9639  0.3994
 2269SOL     OW 7705   0.703   4.504   4.970  0.2544 -0.2521 -0.6032
 2269SOL    HW1 7706   0.778   4.511   5.036  0.6110 -1.8079 -0.8216
 2269SOL    HW2 7707   0.634   4.574   4.992  1.2524  0.5048  0.2420
 2270SOL     OW 7708   4.738   3.627   6.308  0.0004  0.2214  0.1079
 2270SOL    HW1 7709   4.747   3.670   6.398 -0.8676 -1.7953  1.2047
 2270SOL    HW2 7710   4.816   3.653   6.251  1.8113 -0.3282  2.2293
 2271SOL     OW 7711   3.475   2.158   6.446 -1.0634  0.1644 -0.2153
 2271SOL    HW1 7712   3.428   2.071   6.460 -0.3842 -0.0953  0.5715
 2271SOL    HW2 7713   3.460   2.190   6.353  0.2827 -1.7781 -1.1721
 2272SOL     OW 7714   6.928   3.223   5.811 -0.3351  0.3841  0.2244
 2272SOL    HW1 7715   6.928   3.173   5.724  0.2040 -2.6214  1.8450
 2272SOL    HW2 7716   7.023   3.238   5.841 -0.5156  1.4826  0.2982
 2273SOL     OW 7717   1.658   2.463   2.877  0.1220 -0.3344 -0.2363
 2273SOL    HW1 7718   1.748   2.421   2.888  0.4807  0.2509 -0.9237
 2273SOL    HW2 7719   1.633   2.463   2.780 -0.9105 -1.0835  0.0061
 2274SOL     OW 7720   1.499   2.117   5.202 -0.0336  0.7723 -0.3686
 2274SOL    HW1 7721   1.498   2.017   5.201  1.1888  0.7382  0.3405
 2274SOL    HW2 7722   1.546   2.150   5.121 -0.4616  0.7791 -0.6170
 2275SOL     OW 7723   0.143   0.088   4.857  0.3927 -0.2528  0.0484
 2275SOL    HW1 7724   0.160   0.187   4.851  4.3225 -0.7105  0.8280
 2275SOL    HW2 7725   0.190   0.051   4.937  0.5907 -3.0120 -1.2267
 2276SOL     OW 7726   2.302   6.348   1.868 -0.0154  0.3200 -0.1625
 2276SOL    HW1 7727   2.260   6.434   1.838  1.2946  0.2392 -2.3682
 2276SOL    HW2 7728   2.367   6.367   1.941 -0.3752  1.0650 -0.0232
 2277SOL     OW 7729   3.404   3.770   5.009  0.1827  0.8720 -0.2299
 2277SOL    HW1 7730   3.347   3.848   4.982  0.5292  1.4007  0.5334
 2277SOL    HW2 7731   3.488   3.769   4.955  0.0442  0.8501 -0.4467
 2278SOL     OW 7732   6.033   4.042   5.884 -0.3583 -0.1797  0.0431
 2278SOL    HW1 7733   5.993   4.056   5.794 -0.7158 -1.2989  0.0176
 2278SOL    HW2 7734   6.089   3.959   5.883 -0.8005 -0.5009  0.9884
 2279SOL     OW 7735   4.272   6.998   4.698  0.2065  0.1666 -0.5201
 2279SOL    HW1 7736   4.316   6.933   4.759  1.2205  0.4281 -0.9481
 2279SOL    HW2 7737   4.341   7.058   4.657 -0.5350  0.5267 -1.2901
 2280SOL     OW 7738   5.742   5.603   4.269  0.0121  0.6004 -0.4767
 2280SOL    HW1 7739   5.732   5.504   4.265  1.4010  0.4130  0.1600
 2280SOL    HW2 7740   5.663   5.644   4.313 -0.5257 -0.2286 -0.6647
 2281SOL     OW 7741   4.730   1.639   1.317 -0.2592  0.1441 -0.1900
 2281SOL    HW1 7742   4.712   1.691   1.400  0.5566 -0.3985  0.3336
 2281SOL    HW2 7743   4.815   1.671   1.275 -0.6925  0.4570 -0.8663
 2282SOL     OW 7744   6.092   0.501   4.998  0.0389 -0.0537 -0.4114
 2282SOL    HW1 7745   6.102   0.493   5.097 -0.5164  0.5851 -0.2961
 2282SOL    HW2 7746   6.121   0.592   4.968  1.7832 -0.7950 -1.0667
 2283SOL     OW 7747   1.416   5.291   0.869  0.0943  0.2008 -0.2836
 2283SOL    HW1 7748   1.436   5.262   0.962  0.4776  1.7446  0.1468
 2283SOL    HW2 7749   1.441   5.387   0.858 -0.1284  0.1048 -1.9271
 2284SOL     OW 7750   0.120   2.676   5.576  0.0809  0.8092  0.5600
 2284SOL    HW1 7751   0.026   2.650   5.554 -0.2883  0.9491  1.9129
 2284SOL    HW2 7752   0.183   2.618   5.525 -0.7379  0.2257  0.1955
 2285SOL     OW 7753   1.542   4.674   0.851  0.4329 -0.0342 -0.0284
 2285SOL    HW1 7754   1.522   4.749   0.914  0.1073 -1.0136  1.0776
 2285SOL    HW2 7755   1.635   4.682   0.818 -0.3211  2.1877 -1.8408
 2286SOL     OW 7756   6.422   6.840   4.383  0.4268 -0.4385  0.4055
 2286SOL    HW1 7757   6.396   6.790   4.465 -1.6784 -1.6015 -0.8848
 2286SOL    HW2 7758   6.406   6.783   4.303  0.9939  1.1972 -0.9308
 2287SOL     OW 7759   2.201   1.396   2.488  0.1795  0.0709 -0.1428
 2287SOL    HW1 7760   2.285   1.382   2.540 -0.3778 -1.2900  0.4315
 2287SOL    HW2 7761   2.148   1.470   2.531 -0.8849 -1.8634  2.1015
 2288SOL     OW 7762   5.014   5.568   4.017 -0.5243  0.3947 -0.5715
 2288SOL    HW1 7763   5.058   5.480   4.002 -1.2414  0.0594 -0.7529
 2288SOL    HW2 7764   4.983   5.575   4.112 -0.5867  0.3998 -0.5919
 2289SOL     OW 7765   6.498   6.099   1.507 -0.4008  0.2823  0.2452
 2289SOL    HW1 7766   6.443   6.040   1.448 -0.0005  1.0164 -0.8909
 2289SOL    HW2 7767   6.594   6.073   1.499  0.2607  3.0793 -2.8515
 2290SOL     OW 7768   0.506   4.098   1.844 -0.3928 -0.2205 -0.3110
 2290SOL    HW1 7769   0.594   4.120   1.887  0.6464 -1.0167 -1.9385
 2290SOL    HW2 7770   0.450   4.046   1.909 -0.0608  1.0626  1.0673
 2291SOL     OW 7771   1.468   1.956   0.053 -0.1702 -0.3702 -0.2388
 2291SOL    HW1 7772   1.382   1.943   0.103  0.5723 -1.9040  0.6953
 2291SOL    HW2 7773   1.532   2.008   0.111 -0.7176  1.5563 -1.2699
 2292SOL     OW 7774   6.970   3.648   2.711  0.1264 -0.2979  0.1240
 2292SOL    HW1 7775   7.044   3.708   2.683 -1.2587  0.4011 -2.2843
 2292SOL    HW2 7776   6.886   3.701   2.722 -0.9761 -1.6515 -1.3773
 2293SOL     OW 7777   3.725   6.688   2.446 -0.3118 -0.0999 -0.0225
 2293SOL    HW1 7778   3.629   6.667   2.467  0.5581 -1.9302  2.6076
 2293SOL    HW2 7779   3.747   6.780   2.480 -0.8640 -0.0875  0.3233
 2294SOL     OW 7780   2.387   0.120   1.041 -0.3476  0.4300  0.1248
 2294SOL    HW1 7781   2.383   0.021   1.045 -0.6106  0.4246 -0.2161
 2294SOL    HW2 7782   2.357   0.158   1.129 -1.2111  0.2219 -0.0679
 2295SOL     OW 7783   6.827   3.297   3.255 -0.4011 -0.1926  0.0298
 2295SOL    HW1 7784   6.807   3.385   3.299 -0.2683 -0.9290  1.6194
 2295SOL    HW2 7785   6.742   3.247   3.239 -0.3709 -0.3648  0.4044
 2296SOL     OW 7786   5.369   5.838   5.750  0.3129 -0.7055  0.6775
 2296SOL    HW1 7787   5.278   5.880   5.742  0.2915 -1.0090 -0.8755
 2296SOL    HW2 7788   5.359   5.739   5.754  0.5965 -0.7561  0.1273
 2297SOL     OW 7789   4.003   3.911   4.587 -0.9013 -0.0343  0.7085
 2297SOL    HW1 7790   4.051   3.941   4.504  0.1921 -1.8199  0.6372
 2297SOL    HW2 7791   3.906   3.937   4.581 -0.5575  1.0762 -0.4825
 2298SOL     OW 7792   2.653   1.992   1.091  0.6148 -0.1571 -0.3339
 2298SOL    HW1 7793   2.672   1.902   1.051  2.0781  1.0544 -2.6018
 2298SOL    HW2 7794   2.601   1.980   1.175 -0.0224 -3.0667 -0.9985
 2299SOL     OW 7795   3.915   0.386   6.320  0.6034  0.0340  0.0196
 2299SOL    HW1 7796   3.902   0.290   6.295 -1.9848  0.2488  0.2108
 2299SOL    HW2 7797   4.009   0.413   6.302  1.1414 -2.2635 -0.9744
 2300SOL     OW 7798   2.236   5.106   6.571 -0.1753 -0.3324 -0.5178
 2300SOL    HW1 7799   2.181   5.064   6.498  0.3167  1.8581 -2.2169
 2300SOL    HW2 7800   2.198   5.196   6.594  1.4949  0.3286 -0.2519
 2301SOL     OW 7801   3.014   3.247   2.741  0.3674 -0.2382  0.6243
 2301SOL    HW1 7802   3.043   3.329   2.691  1.0544  0.3848  1.9659
 2301SOL    HW2 7803   3.066   3.168   2.708  0.8893  0.1781  0.4284
 2302SOL     OW 7804   3.664   0.477   6.314  0.4057 -0.0614 -0.3179
 2302SOL    HW1 7805   3.670   0.573   6.341 -1.0164  0.3513 -1.3396
 2302SOL    HW2 7806   3.755   0.436   6.316  0.9681  1.1776  0.5798
 2303SOL     OW 7807   4.194   2.604   6.383  0.6670 -0.5257  0.1942
 2303SOL    HW1 7808   4.222   2.524   6.330  0.4192 -1.5903  1.6026
 2303SOL    HW2 7809   4.268   2.630   6.446  1.2690  1.2005 -1.1241
 2304SOL     OW 7810   5.123   0.336   3.623 -0.6220  0.4214 -0.5093
 2304SOL    HW1 7811   5.151   0.246   3.657 -0.6565  0.6031  0.0024
 2304SOL    HW2 7812   5.164   0.407   3.679 -0.5163  0.7308 -0.9756
 2305SOL     OW 7813   3.945   6.280   3.417  0.0651 -0.1208 -0.2454
 2305SOL    HW1 7814   3.950   6.234   3.505 -1.5476 -2.3803 -1.2356
 2305SOL    HW2 7815   4.036   6.311   3.389  0.8732 -0.9231  1.3828
 2306SOL     OW 7816   4.840   6.661   3.769 -0.2651 -0.1564 -0.2818
 2306SOL    HW1 7817   4.756   6.630   3.723  0.4475 -1.0328 -1.0356
 2306SOL    HW2 7818   4.821   6.745   3.820 -1.3255  0.3279 -1.4077
 2307SOL     OW 7819   6.786   5.310   6.644  0.5637 -0.2852 -0.5038
 2307SOL    HW1 7820   6.870   5.349   6.680 -0.6539  0.9606  1.1702
 2307SOL    HW2 7821   6.795   5.210   6.639  1.3511 -0.3965  1.9042
 2308SOL     OW 7822   0.332   0.560   6.254 -0.1715  0.2101  0.0961
 2308SOL    HW1 7823   0.274   0.638   6.231  0.3527  0.6356  0.1816
 2308SOL    HW2 7824   0.356   0.565   6.351 -0.3115 -0.1792  0.1513
 2309SOL     OW 7825   6.868   0.327   6.867 -0.7114  0.8882  0.3457
 2309SOL    HW1 7826   6.834   0.342   6.775 -2.3277  1.8150  1.0440
 2309SOL    HW2 7827   6.895   0.231   6.878 -1.9646  0.4005 -0.6390
 2310SOL     OW 7828   5.591   6.340   0.734 -0.2637 -0.2456 -0.4294
 2310SOL    HW1 7829   5.623   6.418   0.680 -1.2197 -0.5372 -1.4440
 2310SOL    HW2 7830   5.552   6.271   0.674 -1.1221 -0.7027  0.6220
 2311SOL     OW 7831   3.041   6.989   3.077 -0.2064  0.8906  0.0510
 2311SOL    HW1 7832   3.018   7.076   3.034  0.4345  0.3146 -1.5568
 2311SOL    HW2 7833   3.129   6.998   3.124 -0.8041  1.4612  1.1211
 2312SOL     OW 7834   4.412   6.767   6.630 -0.2207 -0.2551 -0.3441
 2312SOL    HW1 7835   4.443   6.791   6.722 -2.8946  0.9849  0.3501
 2312SOL    HW2 7836   4.449   6.832   6.564  1.1197 -0.7071 -0.0585
 2313SOL     OW 7837   4.083   5.417   0.691  0.3154 -0.4315 -0.1697
 2313SOL    HW1 7838   3.987   5.401   0.668  0.1467  0.8388 -0.4285
 2313SOL    HW2 7839   4.141   5.388   0.615  0.2870 -2.6431  0.5821
 2314SOL     OW 7840   6.092   0.996   3.519 -0.0562 -0.1928 -0.2824
 2314SOL    HW1 7841   6.127   1.085   3.551  0.2608 -0.7097  0.8642
 2314SOL    HW2 7842   6.136   0.923   3.571  1.1505 -1.1589 -2.4996
 2315SOL     OW 7843   2.969   3.351   6.967 -0.6351  0.1251  0.1380
 2315SOL    HW1 7844   3.029   3.349   7.048  0.4691 -0.0198 -0.6575
 2315SOL    HW2 7845   3.009   3.411   6.898 -0.7175 -1.0052 -0.9227
 2316SOL     OW 7846   3.198   0.130   4.564  0.0838  0.3908 -0.6025
 2316SOL    HW1 7847   3.241   0.135   4.654 -1.0898 -0.9182  0.0720
 2316SOL    HW2 7848   3.268   0.126   4.493  1.0498  2.9663  0.0984
 2317SOL     OW 7849   0.207   5.024   4.492 -0.6018 -0.3403  0.0216
 2317SOL    HW1 7850   0.193   5.104   4.434 -0.6278  0.0680  0.5777
 2317SOL    HW2 7851   0.222   4.943   4.435  2.9347  0.6260 -0.6100
 2318SOL     OW 7852   1.897   2.946   4.202 -0.2320 -0.5746  0.5938
 2318SOL    HW1 7853   1.837   2.962   4.124 -0.0671  0.1179  0.6010
 2318SOL    HW2 7854   1.927   2.851   4.202 -0.2476 -0.5836 -0.1737
 2319SOL     OW 7855   1.765   5.719   5.423 -0.3675 -0.6590  0.0492
 2319SOL    HW1 7856   1.723   5.632   5.398 -0.7419 -0.3838 -0.3013
 2319SOL    HW2 7857   1.743   5.788   5.354  1.8293 -0.8380 -0.8941
 2320SOL     OW 7858   1.603   3.860   4.115 -0.2474  0.4615  0.1818
 2320SOL    HW1 7859   1.686   3.908   4.144 -0.8489  1.8059 -0.2094
 2320SOL    HW2 7860   1.627   3.777   4.065  0.8467  0.6558  0.3689
 2321SOL     OW 7861   1.669   5.892   1.008  0.2594 -0.1704  0.0077
 2321SOL    HW1 7862   1.569   5.900   1.011  0.2434 -0.0061 -0.7455
 2321SOL    HW2 7863   1.695   5.822   0.942  0.6670  0.5281 -0.5866
 2322SOL     OW 7864   1.177   4.064   4.036 -0.4298 -0.4817  0.2023
 2322SOL    HW1 7865   1.233   3.982   4.036  0.3045  0.0117 -0.0114
 2322SOL    HW2 7866   1.081   4.039   4.054 -0.2488 -1.3926 -0.0519
 2323SOL     OW 7867   2.974   4.350   1.719 -0.2373 -0.1547 -0.5584
 2323SOL    HW1 7868   2.930   4.415   1.781 -0.2512  0.9839 -1.7350
 2323SOL    HW2 7869   2.965   4.382   1.625  2.3327 -0.3241 -0.9179
 2324SOL     OW 7870   4.960   6.011   0.481 -0.0990 -0.2178 -0.0779
 2324SOL    HW1 7871   4.925   5.932   0.532 -0.3063  0.6779  1.2119
 2324SOL    HW2 7872   5.035   6.053   0.532 -0.0042  0.4266 -0.7381
 2325SOL     OW 7873   0.386   3.016   6.546 -0.4463 -0.5564  0.0046
 2325SOL    HW1 7874   0.468   3.053   6.591 -0.4712 -2.0546  1.3768
 2325SOL    HW2 7875   0.409   2.930   6.499 -0.5293  0.7167 -2.5661
 2326SOL     OW 7876   3.536   6.158   5.951  0.3422 -0.1198 -0.1733
 2326SOL    HW1 7877   3.595   6.140   6.031  0.4942  1.8994  0.2084
 2326SOL    HW2 7878   3.441   6.144   5.977  0.2690  1.8769  0.8459
 2327SOL     OW 7879   5.038   3.688   3.593 -0.2451  0.3912  0.0350
 2327SOL    HW1 7880   5.091   3.611   3.628 -0.0283  0.3317 -0.4143
 2327SOL    HW2 7881   4.969   3.654   3.528 -0.3000  0.5509  0.0093
 2328SOL     OW 7882   1.610   3.492   0.392  0.0781  0.2777  0.3597
 2328SOL    HW1 7883   1.603   3.585   0.358 -0.0853 -0.1954 -0.9582
 2328SOL    HW2 7884   1.525   3.442   0.370  0.4938 -0.4122  0.2879
 2329SOL     OW 7885   1.116   3.504   3.483  0.2169 -0.3710  0.1860
 2329SOL    HW1 7886   1.147   3.597   3.465  0.0193 -0.0506  1.3915
 2329SOL    HW2 7887   1.038   3.483   3.424  0.1188  0.3076  0.0635
 2330SOL     OW 7888   0.398   4.413   1.883 -0.1349 -0.0872  0.0609
 2330SOL    HW1 7889   0.470   4.390   1.817  0.4046  0.7477  0.3444
 2330SOL    HW2 7890   0.309   4.394   1.842  0.1589  1.0839 -1.1938
 2331SOL     OW 7891   4.661   6.170   6.290 -0.1408 -0.6262  0.1084
 2331SOL    HW1 7892   4.733   6.153   6.223  0.2444  0.2151  0.2916
 2331SOL    HW2 7893   4.702   6.172   6.382  0.1672  2.7085  0.0119
 2332SOL     OW 7894   6.166   1.064   5.051 -0.1882 -0.4935  0.2480
 2332SOL    HW1 7895   6.213   0.987   5.095 -0.1354 -0.5337  0.1198
 2332SOL    HW2 7896   6.070   1.039   5.036  0.4381 -1.6464 -2.4042
 2333SOL     OW 7897   6.709   6.035   3.394 -0.1318 -0.0777 -0.1528
 2333SOL    HW1 7898   6.721   5.960   3.460  1.2010 -0.3654 -0.6917
 2333SOL    HW2 7899   6.679   6.117   3.443  1.3306 -0.1428  0.9261
 2334SOL     OW 7900   1.927   0.785   5.209  0.2023  0.1801 -0.0629
 2334SOL    HW1 7901   1.951   0.859   5.271  2.5747 -1.8565  1.6513
 2334SOL    HW2 7902   1.833   0.756   5.228 -0.5859  2.3069 -0.4130
 2335SOL     OW 7903   5.545   1.167   0.769 -0.0463  0.0937  0.1340
 2335SOL    HW1 7904   5.447   1.188   0.766 -0.0271  0.0970 -2.0516
 2335SOL    HW2 7905   5.594   1.228   0.707  1.6486  1.3431  2.5735
 2336SOL     OW 7906   5.684   2.579   4.511 -0.3590  0.5777 -0.3894
 2336SOL    HW1 7907   5.623   2.601   4.587 -1.1117  1.0970 -1.1210
 2336SOL    HW2 7908   5.764   2.530   4.545 -0.9762  0.2659  0.6487
 2337SOL     OW 7909   4.608   1.127   1.511  0.1317  0.5630 -0.0014
 2337SOL    HW1 7910   4.665   1.045   1.515 -0.5368 -0.1188 -2.5501
 2337SOL    HW2 7911   4.642   1.187   1.439  0.8939  2.8415  2.1180
 2338SOL     OW 7912   0.649   1.831   5.361 -0.0529  0.6477  0.6596
 2338SOL    HW1 7913   0.745   1.857   5.373  0.1808 -0.7204  2.1184
 2338SOL    HW2 7914   0.636   1.794   5.269  0.3825  2.4893 -0.1875
 2339SOL     OW 7915   4.063   2.606   5.367  0.2645 -0.1414  0.8200
 2339SOL    HW1 7916   4.114   2.580   5.285 -2.6930 -1.1098 -0.8717
 2339SOL    HW2 7917   4.005   2.685   5.346 -0.4679 -0.3501  1.9961
 2340SOL     OW 7918   6.488   6.319   0.271 -0.2372 -0.6151 -0.0779
 2340SOL    HW1 7919   6.539   6.283   0.192 -0.2873 -0.9936  0.0590
 2340SOL    HW2 7920   6.429   6.247   0.308 -0.9319 -0.1567 -0.2782
 2341SOL     OW 7921   4.047   3.625   1.542  0.7627 -0.0193 -0.0925
 2341SOL    HW1 7922   4.105   3.661   1.616  1.8757 -0.3497 -0.7742
 2341SOL    HW2 7923   4.080   3.534   1.516  0.0782 -0.1088 -0.6660
 2342SOL     OW 7924   0.717   6.063   6.774 -0.0341 -0.3987 -0.1370
 2342SOL    HW1 7925   0.635   6.040   6.722  0.6193 -0.2098 -1.2754
 2342SOL    HW2 7926   0.736   6.161   6.764  0.0971 -0.3592  0.4712
 2343SOL     OW 7927   4.092   5.525   3.864 -0.0069 -0.4556 -0.1432
 2343SOL    HW1 7928   4.124   5.490   3.775 -0.4889  1.7744 -1.2622
 2343SOL    HW2 7929   4.031   5.457   3.906  1.5084 -2.2643 -0.6847
 2344SOL     OW 7930   2.297   6.603   0.805 -0.1236  0.1620  0.4082
 2344SOL    HW1 7931   2.290   6.571   0.900  1.3732 -1.0591  0.1514
 2344SOL    HW2 7932   2.380   6.659   0.795 -0.3316  0.3747 -0.1584
 2345SOL     OW 7933   3.007   6.962   4.514 -0.2875 -0.3309  0.3651
 2345SOL    HW1 7934   3.087   7.021   4.523  0.3748 -1.2503  0.6860
 2345SOL    HW2 7935   3.010   6.891   4.585 -1.2637 -0.5182  0.2276
 2346SOL     OW 7936   5.302   3.658   5.214 -0.1651 -0.0012 -0.1750
 2346SOL    HW1 7937   5.261   3.684   5.301  1.5185  2.2577  0.0325
 2346SOL    HW2 7938   5.271   3.721   5.142  1.4883  0.6447 -0.3604
 2347SOL     OW 7939   4.588   2.906   1.015  0.2408  0.1416 -0.2394
 2347SOL    HW1 7940   4.569   2.811   1.039 -1.5644  1.0086  2.1780
 2347SOL    HW2 7941   4.681   2.930   1.041  0.5606 -0.8295 -0.4663
 2348SOL     OW 7942   2.245   2.040   5.790 -0.0499 -0.2926 -0.1622
 2348SOL    HW1 7943   2.267   2.027   5.694  0.2998 -0.5415 -0.0493
 2348SOL    HW2 7944   2.146   2.041   5.802 -0.1032  0.2041 -0.5876
 2349SOL     OW 7945   0.475   4.974   0.113  0.2531 -0.0850 -0.7265
 2349SOL    HW1 7946   0.571   4.975   0.087  0.8510  2.7742  1.1301
 2349SOL    HW2 7947   0.467   4.963   0.212 -1.4171 -1.3261 -0.9599
 2350SOL     OW 7948   4.797   5.908   5.218 -0.1806 -0.0827  0.1763
 2350SOL    HW1 7949   4.892   5.923   5.191 -0.3713  0.1576 -0.3649
 2350SOL    HW2 7950   4.757   5.837   5.161 -0.5203  0.2749 -0.0360
 2351SOL     OW 7951   1.440   4.578   4.460 -0.4656  0.0019  0.3104
 2351SOL    HW1 7952   1.486   4.495   4.431 -0.7355 -0.3242  0.7992
 2351SOL    HW2 7953   1.465   4.653   4.399  0.3949 -0.2548  0.3335
 2352SOL     OW 7954   6.729   0.278   0.803  0.2316  0.3129 -0.3603
 2352SOL    HW1 7955   6.721   0.340   0.726 -0.9816  0.8148  0.1475
 2352SOL    HW2 7956   6.732   0.184   0.770 -0.1238  0.5314 -1.0253
 2353SOL     OW 7957   3.287   3.265   6.000  0.1056  0.6375  0.0752
 2353SOL    HW1 7958   3.310   3.331   6.071 -1.2583  1.4599 -0.2057
 2353SOL    HW2 7959   3.264   3.177   6.041  1.1042  0.5711  0.5112
 2354SOL     OW 7960   4.302   2.078   0.147  0.2764  0.1426 -0.2130
 2354SOL    HW1 7961   4.372   2.146   0.169  0.3859  0.2924 -0.9908
 2354SOL    HW2 7962   4.281   2.024   0.228 -0.3787  1.6144  0.6265
 2355SOL     OW 7963   2.534   5.442   0.530  0.0143  0.1741 -0.4739
 2355SOL    HW1 7964   2.524   5.512   0.459 -1.4063  0.0051 -0.4659
 2355SOL    HW2 7965   2.570   5.484   0.613 -0.8165  0.9202 -0.4716
 2356SOL     OW 7966   1.229   3.336   6.885 -0.1434 -0.5051  0.4269
 2356SOL    HW1 7967   1.258   3.240   6.891  1.1167 -0.0834  1.8017
 2356SOL    HW2 7968   1.191   3.364   6.973 -1.2336  0.0661 -0.2030
 2357SOL     OW 7969   5.673   5.336   4.236 -1.3533  0.3412  0.5448
 2357SOL    HW1 7970   5.738   5.260   4.250 -0.6839  0.7764 -0.0958
 2357SOL    HW2 7971   5.581   5.299   4.228 -1.0083 -0.4449 -0.0369
 2358SOL     OW 7972   3.635   4.199   4.400 -0.1020 -0.1748 -0.0034
 2358SOL    HW1 7973   3.610   4.187   4.304  1.0137  0.9698 -0.4539
 2358SOL    HW2 7974   3.559   4.239   4.450 -0.0164  1.0686 -0.8450
 2359SOL     OW 7975   0.206   5.349   3.550 -0.0737 -0.0132 -0.5226
 2359SOL    HW1 7976   0.165   5.361   3.459  0.9044 -2.6416 -1.4004
 2359SOL    HW2 7977   0.257   5.431   3.575 -0.2467  0.7097 -2.3964
 2360SOL     OW 7978   4.493   3.730   6.577 -0.3822  0.0173 -0.2556
 2360SOL    HW1 7979   4.589   3.742   6.552 -0.0358 -0.8894  0.6073
 2360SOL    HW2 7980   4.446   3.819   6.570  1.1461  1.1024  1.8890
 2361SOL     OW 7981   3.023   5.501   3.960  0.0312 -0.5913  0.3646
 2361SOL    HW1 7982   3.116   5.489   3.996  1.5277 -0.7623 -3.1914
 2361SOL    HW2 7983   2.970   5.557   4.023  2.7300  0.0673  2.2151
 2362SOL     OW 7984   2.167   5.032   6.064  0.3265  0.2837 -0.2636
 2362SOL    HW1 7985   2.219   4.951   6.036 -1.8355 -1.1436 -0.4665
 2362SOL    HW2 7986   2.124   5.072   5.983 -1.0375 -0.2015  0.1969
 2363SOL     OW 7987   5.406   3.418   5.480  0.1713  0.2846 -0.6405
 2363SOL    HW1 7988   5.440   3.478   5.552 -0.4254 -1.2628  0.9899
 2363SOL    HW2 7989   5.478   3.406   5.411  0.7868  1.7269 -0.2896
 2364SOL     OW 7990   1.576   3.392   1.146 -0.5633  0.0950  0.2488
 2364SOL    HW1 7991   1.619   3.315   1.099 -1.6667 -0.4453  0.1055
 2364SOL    HW2 7992   1.572   3.372   1.244  0.5104  0.6391  0.4220
 2365SOL     OW 7993   0.062   2.130   6.431  0.5714  0.5589  0.1225
 2365SOL    HW1 7994   0.011   2.122   6.346 -0.1090  1.0239  0.4839
 2365SOL    HW2 7995   0.085   2.038   6.465 -0.7957  0.3093  0.4141
 2366SOL     OW 7996   1.693   5.850   5.198 -0.2912  0.2279 -0.2246
 2366SOL    HW1 7997   1.606   5.803   5.184 -1.2909  1.0594  2.5949
 2366SOL    HW2 7998   1.676   5.946   5.219  1.3330  0.4431  0.2046
 2367SOL     OW 7999   1.743   5.418   1.597 -0.1265 -0.4196  0.3539
 2367SOL    HW1 8000   1.826   5.381   1.639 -0.5555 -1.2994  0.4583
 2367SOL    HW2 8001   1.680   5.448   1.669  0.5340  1.2998  0.2661
 2368SOL     OW 8002   5.984   6.928   2.775  0.1327  0.0310  0.0011
 2368SOL    HW1 8003   5.931   6.965   2.700 -2.1882 -0.3971  1.3423
 2368SOL    HW2 8004   5.959   6.832   2.790  1.2100 -0.1617  0.7713
 2369SOL     OW 8005   5.884   1.424   5.951 -0.1991  0.1005 -0.4257
 2369SOL    HW1 8006   5.797   1.465   5.977 -0.4712  0.0558 -1.2393
 2369SOL    HW2 8007   5.924   1.377   6.030 -1.5245 -0.9664 -0.3622
 2370SOL     OW 8008   6.292   3.176   5.813  0.3494  0.4352 -1.2053
 2370SOL    HW1 8009   6.267   3.250   5.875 -1.3365 -1.7916  0.9711
 2370SOL    HW2 8010   6.381   3.138   5.839  0.0005  0.0111 -0.6113
 2371SOL     OW 8011   6.670   5.979   0.980  0.1323 -0.1623  0.0953
 2371SOL    HW1 8012   6.610   6.037   0.926  2.4003  1.0941 -1.2564
 2371SOL    HW2 8013   6.682   5.891   0.933  0.2616  0.0333 -0.2405
 2372SOL     OW 8014   6.751   2.434   1.025 -0.8001  0.0447  0.3193
 2372SOL    HW1 8015   6.802   2.362   1.072 -0.8576  0.5201  1.1367
 2372SOL    HW2 8016   6.697   2.394   0.951 -0.1983 -0.6315  0.2261
 2373SOL     OW 8017   5.670   6.770   0.679  0.3634 -0.3789  0.0497
 2373SOL    HW1 8018   5.684   6.845   0.742  1.1630 -1.0173  0.6519
 2373SOL    HW2 8019   5.573   6.762   0.657 -0.1699 -1.1193  2.4386
 2374SOL     OW 8020   6.484   2.019   4.991 -0.3925  0.2498 -0.0105
 2374SOL    HW1 8021   6.459   1.965   4.910  1.7302 -1.4377  0.3621
 2374SOL    HW2 8022   6.569   1.982   5.030  0.5148  3.1489  0.9980
 2375SOL     OW 8023   1.774   4.733   4.096  0.0357 -0.3083 -0.0894
 2375SOL    HW1 8024   1.834   4.813   4.085  1.0038 -1.0356 -0.2732
 2375SOL    HW2 8025   1.813   4.656   4.045  0.9958 -1.8935  2.8386
 2376SOL     OW 8026   5.388   2.882   3.073  0.5693 -0.0108  0.3998
 2376SOL    HW1 8027   5.365   2.866   2.977  0.6811  0.7571  0.2413
 2376SOL    HW2 8028   5.382   2.979   3.093  1.8053 -0.0014  0.8415
 2377SOL     OW 8029   3.132   3.389   3.615  0.9200 -0.5815 -0.2073
 2377SOL    HW1 8030   3.065   3.340   3.671  0.4547 -0.4979 -0.6855
 2377SOL    HW2 8031   3.217   3.400   3.667  0.8653 -1.4538  0.0915
 2378SOL     OW 8032   0.038   2.395   0.097 -0.2724 -0.2266  0.0801
 2378SOL    HW1 8033   0.108   2.388   0.168  0.5924 -1.3477 -0.8441
 2378SOL    HW2 8034   0.024   2.306   0.055 -0.1203  0.5896 -1.7688
 2379SOL     OW 8035   5.003   3.317   5.661 -0.3060  0.6691  0.3315
 2379SOL    HW1 8036   5.058   3.364   5.730  0.0713  2.8564 -1.3663
 2379SOL    HW2 8037   4.909   3.348   5.666 -0.0334  1.7889 -0.8681
 2380SOL     OW 8038   1.168   5.185   5.584  0.0247 -0.2955 -0.7109
 2380SOL    HW1 8039   1.157   5.109   5.649  1.5146 -1.2156 -1.4694
 2380SOL    HW2 8040   1.259   5.223   5.593 -0.0727  0.1752 -1.6252
 2381SOL     OW 8041   2.503   3.738   5.372  0.4809  0.5963 -0.5165
 2381SOL    HW1 8042   2.584   3.758   5.427  2.4058 -2.5453 -1.8889
 2381SOL    HW2 8043   2.490   3.811   5.305  2.3417  1.1074 -0.3901
 2382SOL     OW 8044   1.831   5.878   3.343 -0.6744  0.4348 -0.1359
 2382SOL    HW1 8045   1.768   5.925   3.281  0.1667  1.9608  0.0883
 2382SOL    HW2 8046   1.790   5.794   3.377 -0.7787 -1.1054 -3.5995
 2383SOL     OW 8047   5.732   0.977   0.674  0.0146  0.0335 -0.1706
 2383SOL    HW1 8048   5.671   1.052   0.699  0.5190  0.7117 -0.9330
 2383SOL    HW2 8049   5.820   1.013   0.645  0.1917 -0.8449 -0.7750
 2384SOL     OW 8050   5.127   5.907   2.374  0.1693 -0.2695 -0.2173
 2384SOL    HW1 8051   5.112   5.844   2.450  1.7732  0.0472  0.4133
 2384SOL    HW2 8052   5.219   5.892   2.337 -0.3641  0.0111 -1.6966
 2385SOL     OW 8053   0.942   6.789   2.260 -0.3993  0.4749 -0.1860
 2385SOL    HW1 8054   0.938   6.689   2.264  0.3965  0.4740  1.3646
 2385SOL    HW2 8055   0.873   6.827   2.321  0.6287  0.8083  0.8235
 2386SOL     OW 8056   5.583   3.894   3.388 -0.1765 -0.0194  0.2323
 2386SOL    HW1 8057   5.527   3.810   3.389 -0.3579  0.1002  0.1962
 2386SOL    HW2 8058   5.577   3.936   3.298 -1.2304  0.7902  0.6535
 2387SOL     OW 8059   0.546   0.519   2.915  0.2127 -0.3343 -0.0005
 2387SOL    HW1 8060   0.448   0.513   2.897 -0.0275  3.5089 -0.7769
 2387SOL    HW2 8061   0.594   0.538   2.829  1.3180  0.3349  0.7457
 2388SOL     OW 8062   1.127   0.496   4.156 -0.3556  0.0387  0.2644
 2388SOL    HW1 8063   1.072   0.519   4.236  0.0582  0.2424  0.4969
 2388SOL    HW2 8064   1.182   0.414   4.176 -0.3668 -0.0002  0.1360
 2389SOL     OW 8065   5.598   2.226   2.822  1.2048  0.2455 -0.3228
 2389SOL    HW1 8066   5.593   2.325   2.833 -0.4329  0.4994 -2.6142
 2389SOL    HW2 8067   5.525   2.195   2.761  0.8003 -2.5896  1.4092
 2390SOL     OW 8068   3.058   3.996   4.515  0.3606 -0.8468 -0.2856
 2390SOL    HW1 8069   3.122   3.926   4.544  1.4551 -0.1579 -0.9886
 2390SOL    HW2 8070   3.011   3.967   4.432  0.1102 -1.1338 -0.0488
 2391SOL     OW 8071   4.923   2.423   6.501  0.3953 -0.9706 -0.2370
 2391SOL    HW1 8072   4.960   2.489   6.435  0.6800 -0.7299  0.1588
 2391SOL    HW2 8073   4.841   2.380   6.463  0.8803 -1.2532 -0.9777
 2392SOL     OW 8074   5.104   1.117   6.775  0.9066  0.2584  0.0951
 2392SOL    HW1 8075   5.091   1.054   6.699  0.7850 -1.4432  1.4581
 2392SOL    HW2 8076   5.173   1.080   6.838  0.7097  1.4006  1.0303
 2393SOL     OW 8077   5.182   4.585   5.674  0.3348 -0.0796 -0.1919
 2393SOL    HW1 8078   5.240   4.623   5.602 -0.5173  0.5084 -0.5833
 2393SOL    HW2 8079   5.117   4.654   5.704 -0.1444 -0.7221  0.2580
 2394SOL     OW 8080   2.552   1.775   5.495  0.0213 -0.4691 -0.6208
 2394SOL    HW1 8081   2.642   1.754   5.457  0.7359  1.6958 -0.2639
 2394SOL    HW2 8082   2.512   1.692   5.535  1.9008 -1.4466 -0.6737
 2395SOL     OW 8083   5.667   2.252   6.262  0.0369 -0.6468  0.1219
 2395SOL    HW1 8084   5.652   2.348   6.240 -1.7245 -0.7478  0.7622
 2395SOL    HW2 8085   5.622   2.194   6.195  1.1067 -1.0577 -0.2756
 2396SOL     OW 8086   3.989   5.688   2.662 -0.3883  0.3389  0.3875
 2396SOL    HW1 8087   4.051   5.617   2.628 -0.9370 -0.7599  1.5638
 2396SOL    HW2 8088   3.999   5.696   2.761 -2.5101 -0.3015  0.7046
 2397SOL     OW 8089   0.854   5.239   0.103 -0.5770  0.3498 -0.2007
 2397SOL    HW1 8090   0.873   5.199   0.013  0.3163  0.3627 -0.0306
 2397SOL    HW2 8091   0.756   5.257   0.112 -0.8931 -0.9945 -0.6242
 2398SOL     OW 8092   4.593   4.742   6.057  0.5737 -0.0303  0.0919
 2398SOL    HW1 8093   4.582   4.832   6.014  0.0012 -0.2592 -0.2544
 2398SOL    HW2 8094   4.539   4.675   6.007  1.0829 -0.5902  0.2915
 2399SOL     OW 8095   5.294   0.141   2.548 -0.1074 -0.6275 -0.0262
 2399SOL    HW1 8096   5.299   0.051   2.592  2.2632 -0.6159 -0.1632
 2399SOL    HW2 8097   5.281   0.211   2.618 -1.9179 -1.0083  0.0848
 2400SOL     OW 8098   2.832   3.396   0.596 -0.4325 -0.1016 -0.1357
 2400SOL    HW1 8099   2.848   3.488   0.630 -1.8949  0.0491  0.2062
 2400SOL    HW2 8100   2.745   3.361   0.632  0.3259 -1.8109  0.1629
 2401SOL     OW 8101   3.325   6.448   6.550  0.1152 -0.0175 -0.1704
 2401SOL    HW1 8102   3.312   6.444   6.649  0.0739 -1.1162 -0.2104
 2401SOL    HW2 8103   3.352   6.540   6.523  0.3710  0.2203  0.8919
 2402SOL     OW 8104   1.314   0.547   5.572  0.3770  0.4645  0.1464
 2402SOL    HW1 8105   1.362   0.612   5.630  0.4369 -0.6275  1.3670
 2402SOL    HW2 8106   1.296   0.589   5.483 -0.0847  2.3130  1.0688
 2403SOL     OW 8107   1.549   2.228   0.169 -0.5391 -0.7307  0.2268
 2403SOL    HW1 8108   1.568   2.151   0.230  0.1145 -2.0792 -1.5845
 2403SOL    HW2 8109   1.635   2.259   0.127 -1.2557 -1.6908 -2.0928
 2404SOL     OW 8110   6.160   1.797   0.824 -0.4459  0.0439  0.1002
 2404SOL    HW1 8111   6.229   1.843   0.880  1.1608 -2.6441  0.5035
 2404SOL    HW2 8112   6.205   1.751   0.747 -2.1422  0.2843 -1.0932
 2405SOL     OW 8113   3.830   3.724   1.903  0.3290  0.2480  0.5188
 2405SOL    HW1 8114   3.814   3.673   1.818  1.6582 -1.2451  1.1276
 2405SOL    HW2 8115   3.906   3.684   1.952 -0.5699  0.9268  2.5682
 2406SOL     OW 8116   2.491   6.828   5.083 -0.3638  0.6255 -0.1938
 2406SOL    HW1 8117   2.410   6.772   5.098 -0.4036  0.4734 -0.9265
 2406SOL    HW2 8118   2.567   6.791   5.137 -0.0869 -0.8489 -1.5059
 2407SOL     OW 8119   5.165   2.548   1.811 -0.2304  0.0794  0.5294
 2407SOL    HW1 8120   5.218   2.584   1.888 -0.3200 -1.0955  1.1654
 2407SOL    HW2 8121   5.116   2.623   1.766  0.5332  0.9110  1.0613
 2408SOL     OW 8122   3.072   5.060   2.588 -0.0456  0.2386 -0.0432
 2408SOL    HW1 8123   3.150   5.113   2.622 -1.0547  1.0840  1.0213
 2408SOL    HW2 8124   3.102   4.966   2.569  1.3551  0.6913 -0.2314
 2409SOL     OW 8125   0.888   2.435   2.253  0.0633 -0.7152  0.7433
 2409SOL    HW1 8126   0.924   2.366   2.316 -0.2173 -0.6799  0.9427
 2409SOL    HW2 8127   0.790   2.447   2.269  0.2694  0.3289  1.2601
 2410SOL     OW 8128   5.154   2.990   0.228  0.2715  0.0944 -0.0097
 2410SOL    HW1 8129   5.167   2.900   0.186  0.7035  0.6607 -1.1527
 2410SOL    HW2 8130   5.058   3.002   0.252  0.2077 -0.6597  0.1412
 2411SOL     OW 8131   3.668   3.841   5.664 -0.2380  0.6164 -0.1311
 2411SOL    HW1 8132   3.723   3.894   5.599  0.6829  1.5894  1.3877
 2411SOL    HW2 8133   3.705   3.749   5.672 -0.6934  0.3016 -1.3635
 2412SOL     OW 8134   4.263   4.676   1.850  0.0354 -0.0155 -0.6994
 2412SOL    HW1 8135   4.170   4.710   1.836  0.3962  0.1528 -2.9210
 2412SOL    HW2 8136   4.328   4.733   1.801  1.1898 -0.9519 -0.3231
 2413SOL     OW 8137   6.151   1.332   0.729 -0.2006  0.7899 -0.3119
 2413SOL    HW1 8138   6.191   1.362   0.815 -0.1619 -1.2439  0.4377
 2413SOL    HW2 8139   6.212   1.264   0.687 -0.2601  1.6871 -1.9236
 2414SOL     OW 8140   4.877   2.023   2.254 -0.5567 -0.3154 -0.1059
 2414SOL    HW1 8141   4.780   2.048   2.262 -0.0671  2.0839 -0.9152
 2414SOL    HW2 8142   4.912   2.054   2.166  1.6908  1.6663  1.3577
 2415SOL     OW 8143   6.897   6.838   1.085  0.5068 -0.0970  0.3430
 2415SOL    HW1 8144   6.835   6.848   1.162 -1.2831 -1.9815 -0.7460
 2415SOL    HW2 8145   6.989   6.865   1.112  0.2240 -1.7935  3.5037
 2416SOL     OW 8146   2.324   0.674   5.442 -0.0510  0.0659 -0.4517
 2416SOL    HW1 8147   2.303   0.653   5.346 -2.9956  1.4862 -0.2257
 2416SOL    HW2 8148   2.262   0.624   5.502  0.5359  0.5867  0.6226
 2417SOL     OW 8149   5.193   4.905   6.438  0.1674  0.0889  0.1970
 2417SOL    HW1 8150   5.276   4.954   6.463  0.4741 -0.7955  1.0120
 2417SOL    HW2 8151   5.116   4.942   6.489  0.3015  0.0631  0.4200
 2418SOL     OW 8152   4.098   3.359   3.096 -1.0104  0.6129  0.2505
 2418SOL    HW1 8153   4.134   3.432   3.037 -0.5547 -0.9614 -1.5453
 2418SOL    HW2 8154   4.080   3.395   3.187 -0.6186  2.8986 -0.5105
 2419SOL     OW 8155   0.453   5.082   6.186  0.0241  1.0398  0.3289
 2419SOL    HW1 8156   0.480   4.987   6.206 -0.3894  0.8140 -0.1600
 2419SOL    HW2 8157   0.435   5.091   6.088 -0.1516  1.5720  0.4105
 2420SOL     OW 8158   4.070   0.946   1.457 -0.2278  0.2298  0.4807
 2420SOL    HW1 8159   4.150   0.998   1.488 -0.0638 -0.8710  2.0414
 2420SOL    HW2 8160   4.098   0.884   1.383 -0.2049  1.5628 -0.6683
 2421SOL     OW 8161   2.982   1.870   6.146  0.0146  0.5164 -0.1372
 2421SOL    HW1 8162   2.921   1.934   6.191  0.0222  2.1488 -2.3103
 2421SOL    HW2 8163   2.932   1.820   6.074  0.7200  0.2954 -0.4903
 2422SOL     OW 8164   5.042   1.358   1.001 -0.3080  0.0825 -0.6898
 2422SOL    HW1 8165   5.038   1.386   1.097 -2.0458  1.3536 -1.0582
 2422SOL    HW2 8166   5.130   1.384   0.962  0.6980 -1.0846  0.7019
 2423SOL     OW 8167   0.579   0.424   4.121  0.9286 -0.0544  0.4536
 2423SOL    HW1 8168   0.645   0.416   4.046 -1.7683 -1.9743 -1.9590
 2423SOL    HW2 8169   0.494   0.464   4.085 -0.3231 -0.6109  2.6366
 2424SOL     OW 8170   4.954   6.948   6.670  0.8134  0.3110 -0.1535
 2424SOL    HW1 8171   4.945   6.893   6.587 -1.5063  2.2673 -1.3242
 2424SOL    HW2 8172   4.886   6.919   6.737  0.6586  0.6602 -0.1522
 2425SOL     OW 8173   6.870   6.276   1.589 -0.1914  0.3474 -0.2122
 2425SOL    HW1 8174   6.910   6.273   1.498  2.1478 -2.6119  0.7584
 2425SOL    HW2 8175   6.942   6.272   1.658 -1.9651  0.2949  1.7585
 2426SOL     OW 8176   6.600   5.632   5.155 -0.0126  0.0945  0.4578
 2426SOL    HW1 8177   6.591   5.533   5.150 -0.3928  0.1202  0.5975
 2426SOL    HW2 8178   6.512   5.675   5.134 -0.7619  0.3029  3.5026
 2427SOL     OW 8179   5.944   4.908   0.477  0.3827 -0.0790 -0.2040
 2427SOL    HW1 8180   5.934   4.905   0.377 -1.0020  0.3574 -0.0962
 2427SOL    HW2 8181   6.032   4.868   0.503  1.0308  0.3538 -1.6394
 2428SOL     OW 8182   3.357   0.457   4.072 -0.5101 -0.1017  0.6701
 2428SOL    HW1 8183   3.408   0.536   4.109  0.8185 -0.0723 -1.1067
 2428SOL    HW2 8184   3.422   0.389   4.039 -1.6643 -1.5825  1.3535
 2429SOL     OW 8185   5.592   6.308   4.013  0.1642 -0.2575  0.3178
 2429SOL    HW1 8186   5.581   6.330   4.110  0.3273 -0.6650  0.4298
 2429SOL    HW2 8187   5.641   6.221   4.003 -0.4677 -0.5694 -0.1261
 2430SOL     OW 8188   5.429   0.694   6.829  0.0408  0.2088 -0.3767
 2430SOL    HW1 8189   5.450   0.662   6.922  1.6597  0.0547 -0.7575
 2430SOL    HW2 8190   5.422   0.615   6.768 -2.2012  0.2262 -0.2059
 2431SOL     OW 8191   2.376   0.514   2.521  0.2259 -0.1018  0.5963
 2431SOL    HW1 8192   2.472   0.525   2.494  0.4569  0.8707  1.7021
 2431SOL    HW2 8193   2.320   0.582   2.474  0.3407  0.3931  1.1679
 2432SOL     OW 8194   4.127   6.943   2.956 -0.1426 -0.3152  0.5012
 2432SOL    HW1 8195   4.127   6.845   2.975  0.4534 -0.6633 -1.1045
 2432SOL    HW2 8196   4.210   6.984   2.992  0.3214 -0.6978 -0.1044
 2433SOL     OW 8197   3.011   0.493   2.051 -0.0405  0.2308 -0.8848
 2433SOL    HW1 8198   2.995   0.555   1.974 -1.0854  1.2485  0.1071
 2433SOL    HW2 8199   3.084   0.429   2.028  1.6254  2.3189 -1.6738
 2434SOL     OW 8200   5.032   2.803   3.679 -0.0458 -0.1164  0.2287
 2434SOL    HW1 8201   4.947   2.764   3.717  0.6991 -0.2364  1.8975
 2434SOL    HW2 8202   5.010   2.868   3.607 -1.4858 -1.1689 -0.3272
 2435SOL     OW 8203   4.646   3.699   5.334 -0.4155 -0.4810 -0.3872
 2435SOL    HW1 8204   4.678   3.662   5.246 -1.5229 -1.4144 -0.4150
 2435SOL    HW2 8205   4.574   3.766   5.317 -0.5918 -0.6218 -0.1807
 2436SOL     OW 8206   2.418   1.030   3.810 -0.6279  0.0276 -1.0781
 2436SOL    HW1 8207   2.362   0.951   3.786 -1.3235  0.4428 -0.8437
 2436SOL    HW2 8208   2.369   1.114   3.787 -0.9071  0.4307  0.8557
 2437SOL     OW 8209   4.328   5.832   6.952  0.7229  0.1069 -0.0932
 2437SOL    HW1 8210   4.270   5.855   7.030  2.2339  1.9819  0.5632
 2437SOL    HW2 8211   4.271   5.816   6.871 -0.8133 -0.8477  1.1163
 2438SOL     OW 8212   4.631   0.593   5.772  0.1133 -0.2535  0.2238
 2438SOL    HW1 8213   4.665   0.614   5.680  2.4182 -1.6657  0.6652
 2438SOL    HW2 8214   4.672   0.657   5.838  2.2788 -2.0812  0.7848
 2439SOL     OW 8215   6.261   4.813   5.802  0.4252  0.1447 -0.0027
 2439SOL    HW1 8216   6.271   4.722   5.843  0.5314  0.6523  1.1508
 2439SOL    HW2 8217   6.214   4.873   5.867  0.3774  0.9170 -0.7455
 2440SOL     OW 8218   5.505   5.398   5.431 -0.0159  0.3351 -0.3938
 2440SOL    HW1 8219   5.588   5.422   5.381  2.3653 -0.7809  2.6709
 2440SOL    HW2 8220   5.456   5.482   5.455  1.4759  1.2599 -0.3781
 2441SOL     OW 8221   1.074   0.630   5.781  0.3139 -0.1691 -0.1758
 2441SOL    HW1 8222   0.993   0.597   5.830 -0.9718  3.7253  0.6957
 2441SOL    HW2 8223   1.047   0.660   5.689  0.9278  0.3230 -0.2040
 2442SOL     OW 8224   5.839   5.498   5.618 -0.3035 -0.3603 -0.4149
 2442SOL    HW1 8225   5.771   5.472   5.686 -1.5163  1.4975 -0.8455
 2442SOL    HW2 8226   5.849   5.598   5.617  0.6357 -0.4371 -2.0595
 2443SOL     OW 8227   4.482   6.172   5.686  0.0231  0.2248 -0.5448
 2443SOL    HW1 8228   4.519   6.122   5.764 -0.0866  0.0648 -0.5954
 2443SOL    HW2 8229   4.505   6.269   5.696 -3.1911  0.9282  1.7000
 2444SOL     OW 8230   2.473   5.961   0.228  0.4603  0.5128  0.6552
 2444SOL    HW1 8231   2.486   5.933   0.132  2.6804 -0.0834  1.0697
 2444SOL    HW2 8232   2.480   6.060   0.235  1.0703  0.5023  0.2845
 2445SOL     OW 8233   1.555   0.155   1.671  0.2647  0.4818 -1.1171
 2445SOL    HW1 8234   1.561   0.140   1.769 -2.2852 -0.8588 -1.0802
 2445SOL    HW2 8235   1.463   0.134   1.640  0.5305  2.4403 -3.5703
 2446SOL     OW 8236   0.783   3.980   4.964 -0.2595  0.5317  0.1087
 2446SOL    HW1 8237   0.796   3.938   4.874  0.2256  0.4636  0.2090
 2446SOL    HW2 8238   0.748   3.911   5.027 -2.2021  0.9704 -0.4244
 2447SOL     OW 8239   4.347   1.124   0.017  0.0270 -0.1414  0.3806
 2447SOL    HW1 8240   4.364   1.063   0.095 -0.4486 -0.0037  0.5931
 2447SOL    HW2 8241   4.418   1.110  -0.052  2.1712  1.7043  2.0233
 2448SOL     OW 8242   1.289   0.889   4.057 -0.3210  0.3646 -0.4149
 2448SOL    HW1 8243   1.243   0.896   3.969  0.4671  0.8071 -0.7956
 2448SOL    HW2 8244   1.358   0.961   4.066 -1.0033  0.8936  0.9373
 2449SOL     OW 8245   0.206   4.733   1.249 -0.1777  0.3388  0.1044
 2449SOL    HW1 8246   0.144   4.806   1.221 -0.0775  0.8146  1.0794
 2449SOL    HW2 8247   0.154   4.652   1.275 -0.3875  0.6703  0.7308
 2450SOL     OW 8248   3.651   5.290   4.915  0.1055  0.7500  0.0279
 2450SOL    HW1 8249   3.613   5.211   4.868  2.7788  0.0884 -1.2053
 2450SOL    HW2 8250   3.592   5.316   4.991 -1.1157 -2.0713  0.1286
 2451SOL     OW 8251   1.059   6.986   3.481  0.3072  0.2554 -0.0006
 2451SOL    HW1 8252   1.121   7.017   3.553 -0.3572 -0.9816  1.1523
 2451SOL    HW2 8253   1.086   6.895   3.451 -0.8062 -0.2198  0.3867
 2452SOL     OW 8254   1.390   0.983   1.115  0.0694  0.7558  0.6099
 2452SOL    HW1 8255   1.395   1.080   1.090  1.5470  0.7328  0.7350
 2452SOL    HW2 8256   1.482   0.946   1.123 -0.4729 -0.5679  0.9787
 2453SOL     OW 8257   0.032   4.099   0.373 -0.4958  0.2395 -0.1932
 2453SOL    HW1 8258  -0.018   4.141   0.297 -0.3949 -0.3783 -0.6070
 2453SOL    HW2 8259  -0.002   4.005   0.387 -0.9050  0.5340  0.8871
 2454SOL     OW 8260   4.719   1.330   1.334  0.4812 -0.2847  0.2983
 2454SOL    HW1 8261   4.619   1.339   1.335  0.5824  1.4110 -0.7613
 2454SOL    HW2 8262   4.760   1.421   1.344  1.8936 -0.7537 -0.9280
 2455SOL     OW 8263   6.663   6.295   1.856 -0.4551 -0.3516 -0.0024
 2455SOL    HW1 8264   6.660   6.195   1.845  0.1794 -0.7468  2.7177
 2455SOL    HW2 8265   6.575   6.327   1.891 -0.4505 -0.0397 -0.2773
 2456SOL     OW 8266   5.690   5.508   0.740  0.6414 -0.3412  0.1657
 2456SOL    HW1 8267   5.631   5.522   0.820 -0.4409 -2.5461 -0.1709
 2456SOL    HW2 8268   5.786   5.514   0.768  0.3053 -1.8807  1.8562
 2457SOL     OW 8269   5.226   5.917   0.869 -0.4577 -0.1359  0.3250
 2457SOL    HW1 8270   5.317   5.930   0.829 -0.6051 -1.0716 -0.3473
 2457SOL    HW2 8271   5.233   5.926   0.968  0.4811 -0.7086  0.3328
 2458SOL     OW 8272   2.506   6.029   4.061  0.1625  0.4344 -0.2722
 2458SOL    HW1 8273   2.482   6.035   3.965 -2.9041 -1.5673  0.2331
 2458SOL    HW2 8274   2.434   6.070   4.117 -0.8554 -3.0536  1.2749
 2459SOL     OW 8275   5.181   1.049   1.373  0.0677 -0.1769 -0.7160
 2459SOL    HW1 8276   5.250   1.118   1.394 -0.0702  0.0139 -0.8863
 2459SOL    HW2 8277   5.095   1.072   1.419  0.5770 -1.3204  0.9203
 2460SOL     OW 8278   2.208   0.296   2.961  0.1787 -0.2469 -0.3532
 2460SOL    HW1 8279   2.199   0.224   2.893  0.6619  0.2709 -0.9899
 2460SOL    HW2 8280   2.237   0.381   2.916  0.4633  0.1218  0.4918
 2461SOL     OW 8281   6.838   6.860   2.139  0.1480  0.4402 -0.4138
 2461SOL    HW1 8282   6.760   6.798   2.143  0.0609  0.5600 -0.2432
 2461SOL    HW2 8283   6.870   6.880   2.231 -0.5017  1.4963 -0.4048
 2462SOL     OW 8284   1.489   6.034   6.059  0.5946 -0.3943  0.3067
 2462SOL    HW1 8285   1.394   6.014   6.034  0.5751  1.2823 -1.1155
 2462SOL    HW2 8286   1.497   6.130   6.086  1.5169 -1.0345  2.5930
 2463SOL     OW 8287   4.432   0.780   4.131 -0.0765  0.4386  0.3572
 2463SOL    HW1 8288   4.465   0.703   4.076 -0.6742  2.5443 -3.3030
 2463SOL    HW2 8289   4.509   0.830   4.169  0.3685 -0.9905  1.4085
 2464SOL     OW 8290   2.363   4.451   1.089 -0.1307 -0.2382  0.1349
 2464SOL    HW1 8291   2.361   4.529   1.152 -0.1963  0.1518 -0.3421
 2464SOL    HW2 8292   2.279   4.398   1.100 -0.2858  0.0068  0.1598
 2465SOL     OW 8293   0.077   6.185   0.053  0.4855 -0.5649  0.0829
 2465SOL    HW1 8294   0.119   6.274   0.073  1.1965 -0.9010  0.1428
 2465SOL    HW2 8295   0.025   6.155   0.133  0.6628 -0.4319  0.2522
 2466SOL     OW 8296   4.386   0.783   0.859 -0.7181 -0.1190 -0.2611
 2466SOL    HW1 8297   4.368   0.835   0.943 -2.1587  0.3636 -0.8362
 2466SOL    HW2 8298   4.348   0.832   0.781 -0.4018 -1.1183 -1.0668
 2467SOL     OW 8299   4.723   2.057   5.361  0.1554  0.2539 -0.1851
 2467SOL    HW1 8300   4.787   2.120   5.404  1.8181 -1.5859  0.1481
 2467SOL    HW2 8301   4.631   2.097   5.364  0.5229  1.1483  3.1537
 2468SOL     OW 8302   5.717   5.066   3.914  0.2238 -0.1932  0.0479
 2468SOL    HW1 8303   5.735   5.055   3.816 -1.6661  0.9773 -0.4882
 2468SOL    HW2 8304   5.756   4.989   3.964 -1.2966 -2.3826 -1.9384
 2469SOL     OW 8305   3.898   4.612   6.338  0.0123 -0.3073 -0.4972
 2469SOL    HW1 8306   3.811   4.572   6.366  0.7891 -0.0722  2.5304
 2469SOL    HW2 8307   3.893   4.712   6.343  0.9317 -0.3192  1.4853
 2470SOL     OW 8308   2.788   3.244   5.956  0.1384 -0.0974 -0.0879
 2470SOL    HW1 8309   2.878   3.205   5.937  0.3507  0.9361 -1.3014
 2470SOL    HW2 8310   2.796   3.313   6.028  0.7167  1.4775 -1.6076
 2471SOL     OW 8311   1.335   6.715   1.886  0.7396  0.0245  0.2433
 2471SOL    HW1 8312   1.348   6.800   1.835  0.8738 -0.0603  0.1376
 2471SOL    HW2 8313   1.352   6.733   1.983 -0.5059  0.4223  0.4035
 2472SOL     OW 8314   5.640   2.934   5.192 -0.5464  0.0617  0.1223
 2472SOL    HW1 8315   5.686   2.960   5.107  1.2363 -1.4019  0.5788
 2472SOL    HW2 8316   5.583   3.010   5.223  0.9932  1.7177 -0.8843
 2473SOL     OW 8317   2.056   4.354   6.153 -0.2826 -0.0938  0.4868
 2473SOL    HW1 8318   2.143   4.339   6.199 -1.4096 -0.2865  2.6636
 2473SOL    HW2 8319   2.043   4.283   6.083  0.4796 -1.1820  1.4154
 2474SOL     OW 8320   5.541   6.190   0.394 -0.3407 -0.1439  0.1529
 2474SOL    HW1 8321   5.641   6.186   0.391 -0.2120  1.8649  0.3341
 2474SOL    HW2 8322   5.508   6.159   0.484  0.2519  0.8049  0.7095
 2475SOL     OW 8323   5.165   0.950   6.262  0.7379 -0.5252 -0.4153
 2475SOL    HW1 8324   5.158   0.910   6.353 -1.7264  0.4508 -0.1038
 2475SOL    HW2 8325   5.137   0.882   6.194 -2.9244  0.2789  0.0732
 2476SOL     OW 8326   1.550   2.396   1.994  0.0962  0.1668  0.0108
 2476SOL    HW1 8327   1.623   2.382   2.061  0.1409  0.4543  0.0249
 2476SOL    HW2 8328   1.576   2.352   1.907  0.7753  1.1703 -0.3075
 2477SOL     OW 8329   4.288   6.803   2.728  0.0997  0.0261 -0.2848
 2477SOL    HW1 8330   4.308   6.708   2.750  1.6125  0.1625 -0.9246
 2477SOL    HW2 8331   4.210   6.807   2.666 -0.9357 -0.6767  0.9278
 2478SOL     OW 8332   4.797   5.837   3.122  0.0657 -0.1470  0.0981
 2478SOL    HW1 8333   4.886   5.882   3.134 -0.5749  0.5275  3.1546
 2478SOL    HW2 8334   4.739   5.858   3.200 -2.8620 -0.5117 -1.8546
 2479SOL     OW 8335   2.039   4.099   1.496 -0.1741  0.0913  0.7076
 2479SOL    HW1 8336   2.085   4.050   1.570 -1.7741  1.6300  2.8296
 2479SOL    HW2 8337   2.098   4.174   1.465  0.7615 -0.9274 -0.0674
 2480SOL     OW 8338   0.773   4.867   1.928 -0.1537 -0.2703 -0.6042
 2480SOL    HW1 8339   0.763   4.946   1.868  1.6531  0.0219 -0.5608
 2480SOL    HW2 8340   0.743   4.892   2.021  0.1661  0.3033 -0.6482
 2481SOL     OW 8341   3.003   6.785   0.956  0.0546  0.2442  0.3415
 2481SOL    HW1 8342   3.014   6.813   1.051  0.3285 -0.6426  0.5801
 2481SOL    HW2 8343   3.003   6.685   0.950 -1.6452  0.2540 -0.3958
 2482SOL     OW 8344   3.946   2.629   5.633  0.4186  0.2998  0.0970
 2482SOL    HW1 8345   3.959   2.626   5.534 -1.0369  3.0155 -0.2851
 2482SOL    HW2 8346   3.859   2.584   5.656 -0.0112  1.0203 -0.0837
 2483SOL     OW 8347   1.365   3.910   1.356  0.3209  0.3560 -0.3338
 2483SOL    HW1 8348   1.282   3.891   1.304 -0.6393  0.8938  0.9318
 2483SOL    HW2 8349   1.446   3.888   1.301 -0.6561 -0.3281 -1.5347
 2484SOL     OW 8350   2.596   6.053   5.461  0.1439  0.5877 -0.4974
 2484SOL    HW1 8351   2.611   6.024   5.367 -0.7380 -0.4049 -0.3577
 2484SOL    HW2 8352   2.588   5.972   5.520 -1.4927  1.1060  0.0641
 2485SOL     OW 8353   4.763   5.667   2.357  0.3281  0.5098  0.0753
 2485SOL    HW1 8354   4.664   5.675   2.349  0.3340  1.0048  0.4834
 2485SOL    HW2 8355   4.788   5.655   2.453  0.5150 -1.7499 -0.1864
 2486SOL     OW 8356   1.740   6.177   2.455 -0.1811 -0.1750 -0.1450
 2486SOL    HW1 8357   1.762   6.170   2.358 -0.8786 -2.1923 -0.2004
 2486SOL    HW2 8358   1.822   6.203   2.506  1.3923 -3.2417 -0.8323
 2487SOL     OW 8359   3.232   6.166   0.401  0.3396  0.4992 -0.1479
 2487SOL    HW1 8360   3.269   6.087   0.450  0.5821  0.1027 -0.9530
 2487SOL    HW2 8361   3.306   6.233   0.386 -0.2942  1.9219  2.4404
 2488SOL     OW 8362   2.619   4.424   0.068 -0.3953  0.3553  0.1135
 2488SOL    HW1 8363   2.655   4.476  -0.009 -0.5050 -0.7992 -0.7545
 2488SOL    HW2 8364   2.533   4.464   0.099 -0.6304  0.5156 -0.7294
 2489SOL     OW 8365   4.131   4.903   2.661  0.4048  0.5897  0.0419
 2489SOL    HW1 8366   4.037   4.877   2.681  0.0662  1.9958  0.4124
 2489SOL    HW2 8367   4.178   4.927   2.746  1.3151 -0.7472 -0.0673
 2490SOL     OW 8368   6.835   6.437   1.111 -0.2595 -0.2852  0.3744
 2490SOL    HW1 8369   6.884   6.354   1.137 -0.0610 -0.7646 -1.3691
 2490SOL    HW2 8370   6.742   6.414   1.083 -1.6343  0.6278  3.7468
 2491SOL     OW 8371   2.847   5.156   3.170  0.3853 -0.0523  0.1298
 2491SOL    HW1 8372   2.884   5.232   3.222  0.2146  0.0548  0.0962
 2491SOL    HW2 8373   2.799   5.094   3.231  1.1294 -0.5076  0.2657
 2492SOL     OW 8374   4.092   3.318   6.547  0.2763  0.1357  0.2831
 2492SOL    HW1 8375   4.070   3.237   6.492  0.5401  0.1273  0.1885
 2492SOL    HW2 8376   4.136   3.290   6.632  0.5864  0.1915  0.1426
 2493SOL     OW 8377   5.495   5.710   3.254  0.3115 -0.3603 -0.0823
 2493SOL    HW1 8378   5.470   5.720   3.351  2.1777  1.6508  0.2767
 2493SOL    HW2 8379   5.465   5.790   3.203 -0.3493 -1.2484 -1.1254
 2494SOL     OW 8380   6.218   4.072   0.512 -0.3405  0.7840  0.0411
 2494SOL    HW1 8381   6.233   4.164   0.546 -1.0939  0.8030  0.3257
 2494SOL    HW2 8382   6.180   4.014   0.584  0.5748  0.1198  0.0094
 2495SOL     OW 8383   3.671   0.755   4.916  0.4517 -0.2526 -0.3473
 2495SOL    HW1 8384   3.608   0.723   4.845  1.8868  0.1102 -1.8486
 2495SOL    HW2 8385   3.756   0.786   4.874  1.2190  0.3499  1.5236
 2496SOL     OW 8386   6.994   5.203   0.587  0.0003  0.3092 -0.1500
 2496SOL    HW1 8387   7.094   5.200   0.580  0.3284  3.3186  1.4625
 2496SOL    HW2 8388   6.958   5.271   0.523 -1.2022 -1.4680 -1.4616
 2497SOL     OW 8389   6.952   1.212   1.112 -0.4491 -0.2837 -0.5038
 2497SOL    HW1 8390   6.993   1.126   1.081  2.7351  0.9019  0.0799
 2497SOL    HW2 8391   6.903   1.254   1.035  3.9560  0.7028 -3.1578
 2498SOL     OW 8392   1.725   2.092   2.866 -0.1463 -0.3768  0.1649
 2498SOL    HW1 8393   1.715   2.146   2.782  0.3446 -2.6915 -1.4660
 2498SOL    HW2 8394   1.785   2.141   2.930  0.0412  1.1176 -1.0954
 2499SOL     OW 8395   3.878   6.251   4.479  0.1052  0.2802 -0.3559
 2499SOL    HW1 8396   3.923   6.165   4.455 -0.0554 -0.2432  1.1124
 2499SOL    HW2 8397   3.944   6.312   4.523  0.0175  0.5778 -0.6354
 2500SOL     OW 8398   4.661   4.266   6.441  0.2410 -0.2392 -0.1244
 2500SOL    HW1 8399   4.709   4.353   6.427  0.8950 -0.7084 -0.9749
 2500SOL    HW2 8400   4.572   4.269   6.396 -0.1253  0.3071  0.6334
 2501SOL     OW 8401   3.971   4.611   6.917 -0.0605  0.2376  0.4336
 2501SOL    HW1 8402   3.918   4.529   6.895  0.4167  0.2424 -0.8328
 2501SOL    HW2 8403   3.995   4.610   7.014 -0.1575 -1.0589  0.4660
 2502SOL     OW 8404   0.508   4.411   4.501  0.6495 -0.2725  0.4509
 2502SOL    HW1 8405   0.607   4.403   4.484  0.8952 -1.4479  2.1392
 2502SOL    HW2 8406   0.462   4.328   4.470  0.1320  0.3454 -0.4971
 2503SOL     OW 8407   3.098   4.983   5.463 -0.1161 -0.0165  0.6431
 2503SOL    HW1 8408   3.020   4.921   5.475 -0.2275 -0.0976 -0.4135
 2503SOL    HW2 8409   3.173   4.933   5.420 -0.0834  0.4805  0.1083
 2504SOL     OW 8410   1.719   5.500   5.276 -0.6523  0.1127  0.0478
 2504SOL    HW1 8411   1.633   5.544   5.251  0.6391  2.3495 -0.7914
 2504SOL    HW2 8412   1.781   5.502   5.197  1.8125  2.9107  1.8386
 2505SOL     OW 8413   4.036   6.882   4.100  0.2113 -0.0461  0.0918
 2505SOL    HW1 8414   3.950   6.867   4.052  0.1984  2.2975 -0.7525
 2505SOL    HW2 8415   4.112   6.867   4.036  0.2316  1.9707 -0.4234
 2506SOL     OW 8416   1.834   3.156   5.270 -0.5648 -0.2002  0.3749
 2506SOL    HW1 8417   1.858   3.081   5.331  1.3186 -0.7142 -0.8928
 2506SOL    HW2 8418   1.854   3.243   5.313 -1.3056 -0.4668  1.2782
 2507SOL     OW 8419   0.682   5.217   1.581 -0.2416  0.5333 -0.3454
 2507SOL    HW1 8420   0.607   5.276   1.611 -1.0232 -0.9202  0.6528
 2507SOL    HW2 8421   0.756   5.221   1.647 -0.7960 -0.5025  0.3584
 2508SOL     OW 8422   3.442   2.918   1.166 -0.1232 -0.1277  0.5769
 2508SOL    HW1 8423   3.414   2.917   1.262  0.8371 -2.4061  0.8946
 2508SOL    HW2 8424   3.510   2.989   1.151  1.3867 -1.1479  2.1526
 2509SOL     OW 8425   5.822   1.358   2.303 -0.4535 -0.2131 -0.1982
 2509SOL    HW1 8426   5.886   1.343   2.378 -0.5278  0.7080  0.0569
 2509SOL    HW2 8427   5.787   1.452   2.306 -1.8416 -0.6955 -0.3019
 2510SOL     OW 8428   2.894   5.092   1.028  0.7192 -0.1870 -0.2643
 2510SOL    HW1 8429   2.846   5.048   1.104 -0.6036 -1.6967 -1.9110
 2510SOL    HW2 8430   2.893   5.191   1.042  1.0496 -0.4392  1.9614
 2511SOL     OW 8431   3.254   1.512   5.151  0.7251  0.4867 -0.2537
 2511SOL    HW1 8432   3.173   1.564   5.123  0.6869 -0.4122 -1.9751
 2511SOL    HW2 8433   3.324   1.575   5.185 -0.7891  1.2547  1.6618
 2512SOL     OW 8434   3.667   5.153   4.600 -0.3358  0.3880 -0.1513
 2512SOL    HW1 8435   3.569   5.157   4.579 -0.1458  0.3936 -1.0802
 2512SOL    HW2 8436   3.680   5.113   4.691 -1.2536  1.5293  0.5062
 2513SOL     OW 8437   2.325   2.790   4.851 -0.5588 -0.6760  0.0415
 2513SOL    HW1 8438   2.380   2.711   4.877 -0.6383 -1.7280 -2.6172
 2513SOL    HW2 8439   2.352   2.869   4.905  1.0169 -2.0137  1.3182
 2514SOL     OW 8440   1.420   2.028   2.776 -0.1089  0.1790  0.0643
 2514SOL    HW1 8441   1.502   2.038   2.832 -0.4349  0.9968  0.4111
 2514SOL    HW2 8442   1.358   1.963   2.821  0.0115  0.1623  0.2076
 2515SOL     OW 8443   2.739   6.709   1.414 -0.4391  0.2160 -0.5234
 2515SOL    HW1 8444   2.779   6.757   1.491 -1.1926 -0.6791  0.4474
 2515SOL    HW2 8445   2.759   6.759   1.329  0.3120  1.2540  0.2484
 2516SOL     OW 8446   4.666   6.206   1.826  0.6519  0.5252  0.2890
 2516SOL    HW1 8447   4.575   6.166   1.821 -0.0144  2.0480 -0.2364
 2516SOL    HW2 8448   4.667   6.279   1.894  0.9293  1.8021 -1.0261
 2517SOL     OW 8449   2.330   3.696   5.607  0.0917  0.6068  0.1459
 2517SOL    HW1 8450   2.399   3.719   5.538  2.4059 -0.4602  1.9873
 2517SOL    HW2 8451   2.246   3.664   5.561  0.6998  2.0747 -2.1626
 2518SOL     OW 8452   2.766   3.545   0.315  0.2868  0.0680  0.0249
 2518SOL    HW1 8453   2.735   3.462   0.361 -1.5177  0.7969  0.2025
 2518SOL    HW2 8454   2.701   3.571   0.245  1.3350  0.8126 -0.7080
 2519SOL     OW 8455   4.954   5.089   3.431 -0.0915  0.3720  0.0693
 2519SOL    HW1 8456   4.890   5.111   3.505 -0.8491  0.2100 -0.5215
 2519SOL    HW2 8457   4.947   4.992   3.409  0.2044  0.3981 -0.1444
 2520SOL     OW 8458   0.023   2.084   6.134 -0.2369 -0.0230 -0.0504
 2520SOL    HW1 8459  -0.035   2.079   6.052 -0.5261  2.0992 -0.0325
 2520SOL    HW2 8460   0.113   2.047   6.114 -0.6841 -0.6344 -0.9710
 2521SOL     OW 8461   0.817   5.832   4.861 -0.4819 -0.0905  0.9997
 2521SOL    HW1 8462   0.838   5.920   4.904  1.3584  0.0840 -0.1351
 2521SOL    HW2 8463   0.760   5.848   4.780  0.8481  0.2335  0.0943
 2522SOL     OW 8464   1.513   3.099   3.496 -0.1347 -0.5587  0.5428
 2522SOL    HW1 8465   1.520   3.035   3.573 -0.8453 -1.4494 -0.1044
 2522SOL    HW2 8466   1.424   3.089   3.453  0.8717 -1.3645 -1.4811
 2523SOL     OW 8467   1.086   2.530   6.302 -0.5319  0.0831 -1.0101
 2523SOL    HW1 8468   1.125   2.607   6.251  0.6410  2.2537  2.8005
 2523SOL    HW2 8469   0.986   2.538   6.301 -0.4799  0.9229 -1.7113
 2524SOL     OW 8470   0.947   5.110   3.832  0.2508 -0.3091 -0.0098
 2524SOL    HW1 8471   0.889   5.054   3.773 -0.4779  1.0599 -0.6254
 2524SOL    HW2 8472   0.959   5.064   3.920 -0.1739 -1.5111 -0.5628
 2525SOL     OW 8473   0.080   4.047   3.662  0.6832  0.4708  0.0510
 2525SOL    HW1 8474   0.030   4.131   3.643  0.7017  0.6191  0.6259
 2525SOL    HW2 8475   0.179   4.066   3.661  0.6961  0.3929 -0.1126
 2526SOL     OW 8476   1.576   2.484   6.602  0.1584 -0.9684 -0.6883
 2526SOL    HW1 8477   1.650   2.443   6.548  1.0035 -0.0014 -0.2929
 2526SOL    HW2 8478   1.602   2.483   6.699 -1.3325 -2.6704 -0.2577
 2527SOL     OW 8479   5.815   5.767   5.606 -0.6967  0.0530 -0.2746
 2527SOL    HW1 8480   5.871   5.850   5.611 -0.2446 -0.0804 -2.5227
 2527SOL    HW2 8481   5.719   5.792   5.620 -0.4479  0.7759  0.2267
 2528SOL     OW 8482   4.378   5.507   1.459 -0.0815  0.1682 -0.0439
 2528SOL    HW1 8483   4.435   5.575   1.505 -0.4411  0.7682 -0.4786
 2528SOL    HW2 8484   4.421   5.417   1.468  1.3342  0.7119 -0.9766
 2529SOL     OW 8485   4.456   4.537   5.928 -0.1589  0.7450 -0.3843
 2529SOL    HW1 8486   4.490   4.493   5.844 -1.2743 -0.5315 -0.1969
 2529SOL    HW2 8487   4.360   4.560   5.917 -0.7110 -0.7267  1.0187
 2530SOL     OW 8488   6.862   6.321   5.470 -0.2576  0.0660  0.2699
 2530SOL    HW1 8489   6.886   6.292   5.377  1.2203 -1.3311  1.0408
 2530SOL    HW2 8490   6.937   6.374   5.509  0.6924 -2.2467  1.8341
 2531SOL     OW 8491   5.124   4.207   5.902  0.3605  0.3812 -0.7546
 2531SOL    HW1 8492   5.036   4.191   5.857  0.4215 -0.5745 -0.5449
 2531SOL    HW2 8493   5.125   4.300   5.940  0.0627  0.9828 -2.1401
 2532SOL     OW 8494   1.190   3.946   5.848  0.2339  0.3040 -0.2968
 2532SOL    HW1 8495   1.116   4.005   5.881  0.3189  0.6285 -0.6860
 2532SOL    HW2 8496   1.276   3.996   5.850  0.4264 -0.0314  0.0275
 2533SOL     OW 8497   4.816   5.600   5.074 -0.0168 -0.5136  0.0801
 2533SOL    HW1 8498   4.762   5.517   5.057  2.8526 -2.7474  1.0411
 2533SOL    HW2 8499   4.861   5.593   5.163  2.0766  1.0413 -0.7708
 2534SOL     OW 8500   2.669   1.529   4.533  0.1279 -0.0308 -0.6460
 2534SOL    HW1 8501   2.708   1.480   4.455 -0.0979 -0.9712 -0.1906
 2534SOL    HW2 8502   2.612   1.466   4.586  0.4703  0.5197  0.4112
 2535SOL     OW 8503   0.640   0.959   3.930  0.0839  0.2978 -0.1048
 2535SOL    HW1 8504   0.604   0.923   3.844 -0.5290  0.5395  0.0491
 2535SOL    HW2 8505   0.567   1.005   3.981  0.6839  1.0777  0.0643
 2536SOL     OW 8506   1.313   2.654   4.014 -0.0221  0.6965  0.0171
 2536SOL    HW1 8507   1.391   2.716   4.012  0.0786  0.5522 -1.2604
 2536SOL    HW2 8508   1.246   2.686   4.081  0.4151  1.7046 -0.0204
 2537SOL     OW 8509   5.510   6.644   1.363  0.0248 -0.3612  0.1137
 2537SOL    HW1 8510   5.605   6.647   1.335 -0.3733  0.8078 -1.2327
 2537SOL    HW2 8511   5.453   6.613   1.287 -0.8446  0.6029  0.3410
 2538SOL     OW 8512   2.379   5.703   6.153 -0.0626 -0.0250  0.1957
 2538SOL    HW1 8513   2.295   5.716   6.100  0.5709  0.8019 -0.6355
 2538SOL    HW2 8514   2.443   5.646   6.102  0.4008  0.4569  0.2261
 2539SOL     OW 8515   2.550   0.231   5.565  0.1451  0.2042 -0.3602
 2539SOL    HW1 8516   2.487   0.260   5.493 -0.3673 -1.3034 -0.5511
 2539SOL    HW2 8517   2.602   0.310   5.598  0.5643  0.9029 -2.5327
 2540SOL     OW 8518   6.055   1.626   2.209  0.3124 -0.6033 -0.4311
 2540SOL    HW1 8519   5.979   1.660   2.153  0.5124 -0.5585 -0.6808
 2540SOL    HW2 8520   6.097   1.702   2.258 -0.0397 -0.6862 -0.0043
 2541SOL     OW 8521   2.460   5.443   6.390  0.1486  0.3604 -0.3048
 2541SOL    HW1 8522   2.361   5.435   6.402  0.3665 -1.0054  0.8448
 2541SOL    HW2 8523   2.489   5.535   6.415 -0.6083  0.1940  1.3613
 2542SOL     OW 8524   4.862   1.841   5.648  0.0174 -0.5559 -0.2204
 2542SOL    HW1 8525   4.890   1.839   5.552  1.7917 -1.3551  0.2719
 2542SOL    HW2 8526   4.845   1.748   5.680 -1.8549 -0.2014 -0.0768
 2543SOL     OW 8527   2.095   4.998   3.246  0.0868 -0.3512 -0.0713
 2543SOL    HW1 8528   2.103   4.901   3.269 -0.7456 -1.2172 -2.9970
 2543SOL    HW2 8529   1.999   5.021   3.232  0.4239  0.3192 -1.4467
 2544SOL     OW 8530   1.064   4.215   2.515 -0.0970 -0.0847  0.0795
 2544SOL    HW1 8531   1.056   4.122   2.551  2.9757 -0.2569  0.5986
 2544SOL    HW2 8532   1.061   4.280   2.591  1.8623 -0.1185  0.2340
 2545SOL     OW 8533   1.989   2.225   0.341  0.0551  0.4672 -0.5042
 2545SOL    HW1 8534   1.971   2.223   0.439  0.2756 -1.1951 -0.4737
 2545SOL    HW2 8535   1.970   2.317   0.306 -1.5018  0.6943  0.8104
 2546SOL     OW 8536   0.750   3.140   1.029 -0.4975 -0.0170 -0.4614
 2546SOL    HW1 8537   0.688   3.062   1.028  0.5000 -0.8623  1.0198
 2546SOL    HW2 8538   0.709   3.214   1.082 -0.3176 -0.5295  0.4085
 2547SOL     OW 8539   5.988   5.676   3.015 -0.3771  0.5974  0.2390
 2547SOL    HW1 8540   5.909   5.701   3.071 -1.2188 -1.1394 -0.0987
 2547SOL    HW2 8541   5.962   5.678   2.918  0.2367  0.7890  0.0733
 2548SOL     OW 8542   1.507   0.695   4.425 -0.2877 -0.3884  0.1980
 2548SOL    HW1 8543   1.540   0.740   4.342 -1.3753 -2.0301 -1.1956
 2548SOL    HW2 8544   1.576   0.701   4.497  1.0649  0.2840 -1.1119
 2549SOL     OW 8545   2.283   0.544   1.096  0.1202  0.4272  0.3614
 2549SOL    HW1 8546   2.220   0.472   1.126 -0.8386  1.2669  0.4445
 2549SOL    HW2 8547   2.251   0.632   1.131  2.3300  0.7023  1.9207
 2550SOL     OW 8548   6.087   0.922   1.275 -0.4812 -0.6866 -0.0836
 2550SOL    HW1 8549   5.994   0.954   1.293 -0.6100 -0.5958 -0.8966
 2550SOL    HW2 8550   6.149   0.961   1.343 -0.3692  2.5825 -1.8738
 2551SOL     OW 8551   3.620   5.412   6.760 -0.2239 -0.2615 -0.0600
 2551SOL    HW1 8552   3.632   5.473   6.681 -0.4132  0.3839  0.4031
 2551SOL    HW2 8553   3.689   5.340   6.757  1.3519  1.1609  0.4765
 2552SOL     OW 8554   2.350   5.866   6.523 -0.5988 -0.0329  0.1193
 2552SOL    HW1 8555   2.333   5.846   6.620 -2.5849  0.6108 -0.0507
 2552SOL    HW2 8556   2.284   5.817   6.467 -0.7992  1.2102 -0.7682
 2553SOL     OW 8557   5.255   3.629   4.748  0.4000 -0.6244  0.3360
 2553SOL    HW1 8558   5.266   3.673   4.837 -0.4921 -0.9630  0.6189
 2553SOL    HW2 8559   5.319   3.671   4.683  1.2082 -0.5146  1.1726
 2554SOL     OW 8560   1.693   6.491   6.250  0.1861 -0.2771  0.8451
 2554SOL    HW1 8561   1.618   6.425   6.251  0.3125 -0.5572 -1.6128
 2554SOL    HW2 8562   1.778   6.443   6.230  0.2600  0.5809 -1.0799
 2555SOL     OW 8563   5.218   0.185   0.089  0.4163  0.1459 -0.6472
 2555SOL    HW1 8564   5.212   0.285   0.085  0.5949  0.1257 -2.0277
 2555SOL    HW2 8565   5.145   0.150   0.147  0.5304  1.0891  0.0992
 2556SOL     OW 8566   3.412   1.184   1.201  0.3141  0.2208 -0.0907
 2556SOL    HW1 8567   3.423   1.272   1.154  1.5083  0.3403  0.4010
 2556SOL    HW2 8568   3.485   1.172   1.267 -0.8547 -0.3492  1.1389
 2557SOL     OW 8569   4.264   0.245   0.398 -0.2992 -0.3767  0.5584
 2557SOL    HW1 8570   4.345   0.276   0.447 -0.8063  0.2412  1.0162
 2557SOL    HW2 8571   4.289   0.220   0.305  0.3903 -0.0454  0.6498
 2558SOL     OW 8572   5.546   5.721   4.412 -0.3133 -0.0941 -0.1582
 2558SOL    HW1 8573   5.537   5.671   4.498 -0.8501 -1.0030 -0.7197
 2558SOL    HW2 8574   5.520   5.817   4.425 -0.6291 -0.2834  0.6308
 2559SOL     OW 8575   4.912   3.708   5.422 -0.0753 -0.2463 -0.0159
 2559SOL    HW1 8576   4.959   3.625   5.453  0.7910  0.6002  1.0084
 2559SOL    HW2 8577   4.813   3.694   5.428  0.0190 -0.3107  2.7700
 2560SOL     OW 8578   5.887   4.207   4.146  0.4348 -0.5919 -0.0527
 2560SOL    HW1 8579   5.857   4.113   4.163  0.3406 -0.3271  1.3136
 2560SOL    HW2 8580   5.987   4.210   4.144  0.5378 -0.3295  2.5622
 2561SOL     OW 8581   3.805   1.137   1.076  0.3832  0.1083  0.3897
 2561SOL    HW1 8582   3.879   1.078   1.108  1.4471  2.7769  3.4227
 2561SOL    HW2 8583   3.843   1.216   1.028 -0.7985 -0.2456 -1.2013
 2562SOL     OW 8584   2.895   5.630   3.531 -0.2036 -0.0477 -0.3539
 2562SOL    HW1 8585   2.852   5.719   3.547  1.0757  0.2055  2.0072
 2562SOL    HW2 8586   2.829   5.570   3.486 -2.4059  0.9253  1.3683
 2563SOL     OW 8587   4.477   1.195   6.117  0.3522  0.5277  0.3734
 2563SOL    HW1 8588   4.526   1.140   6.049 -0.7326 -0.9546  0.7359
 2563SOL    HW2 8589   4.526   1.192   6.204 -1.8222 -3.8054  1.7645
 2564SOL     OW 8590   2.492   1.631   5.736 -0.3934  0.4864  0.3284
 2564SOL    HW1 8591   2.581   1.612   5.777  1.1691  3.4111 -1.4041
 2564SOL    HW2 8592   2.424   1.642   5.809  0.6572 -1.3832  1.7076
 2565SOL     OW 8593   6.173   2.142   0.327 -0.3177  0.0487 -0.2543
 2565SOL    HW1 8594   6.087   2.189   0.307 -0.0498 -0.1610 -2.0948
 2565SOL    HW2 8595   6.239   2.160   0.253  1.2029  0.1220  1.0641
 2566SOL     OW 8596   4.012   5.120   3.839 -0.4124  0.2271 -0.3226
 2566SOL    HW1 8597   3.968   5.032   3.819 -0.9913  0.1238  1.3032
 2566SOL    HW2 8598   4.077   5.108   3.913 -0.6225  1.2043  0.0219
 2567SOL     OW 8599   1.552   2.965   0.113  0.0101  0.3461 -1.4252
 2567SOL    HW1 8600   1.462   2.927   0.092  0.2939 -0.6849 -0.8484
 2567SOL    HW2 8601   1.543   3.061   0.140 -0.8817  0.3112 -1.5763
 2568SOL     OW 8602   3.465   7.021   1.926  0.1099  0.1170  0.9370
 2568SOL    HW1 8603   3.394   7.012   1.997  0.0797 -0.4371  0.8388
 2568SOL    HW2 8604   3.555   7.026   1.969  0.1781 -1.2059  0.9902
 2569SOL     OW 8605   1.839   2.071   2.076  0.3411 -0.1540  0.1346
 2569SOL    HW1 8606   1.775   2.004   2.038 -0.0967  0.5753 -0.4333
 2569SOL    HW2 8607   1.913   2.023   2.124  0.9496 -1.1111 -1.6935
 2570SOL     OW 8608   6.431   0.155   6.370  0.4947 -0.2654 -0.0111
 2570SOL    HW1 8609   6.364   0.082   6.384 -0.2216  0.5122  0.7946
 2570SOL    HW2 8610   6.438   0.209   6.454  1.5511  0.1511 -0.3549
 2571SOL     OW 8611   4.077   3.713   3.265  0.5291  0.2018 -0.2970
 2571SOL    HW1 8612   4.029   3.778   3.324 -1.8928 -0.6078 -1.2843
 2571SOL    HW2 8613   4.075   3.622   3.307  1.2093  0.1392 -0.3779
 2572SOL     OW 8614   2.456   6.938   2.599 -0.0700 -0.3905  0.3215
 2572SOL    HW1 8615   2.497   7.022   2.637 -0.2652 -0.2865  0.3021
 2572SOL    HW2 8616   2.493   6.859   2.647  0.4992 -0.3253 -0.0018
 2573SOL     OW 8617   6.390   3.133   3.463  0.1432  0.2111 -0.0149
 2573SOL    HW1 8618   6.407   3.217   3.514  0.7670 -0.2907  0.6170
 2573SOL    HW2 8619   6.296   3.103   3.478 -0.2644  1.1018 -0.7100
 2574SOL     OW 8620   0.137   4.808   0.779  0.3630 -0.0220  0.0063
 2574SOL    HW1 8621   0.063   4.776   0.838 -0.1649  0.7858 -0.1985
 2574SOL    HW2 8622   0.215   4.746   0.786 -1.7160 -3.3676 -2.9153
 2575SOL     OW 8623   6.389   2.529   7.003 -0.1461  0.3621  0.2693
 2575SOL    HW1 8624   6.307   2.584   7.021 -0.7168 -0.4612  0.1953
 2575SOL    HW2 8625   6.465   2.566   7.056 -0.4455  1.4076  0.0004
 2576SOL     OW 8626   2.479   1.439   2.600 -0.4271  0.5473  0.0507
 2576SOL    HW1 8627   2.533   1.516   2.635 -0.3047  1.5476 -2.1580
 2576SOL    HW2 8628   2.524   1.353   2.623  0.6990  1.2390  0.5345
 2577SOL     OW 8629   4.601   1.095   3.400  0.1418 -0.2552 -0.3466
 2577SOL    HW1 8630   4.654   1.076   3.483 -1.2029 -1.7406  0.2101
 2577SOL    HW2 8631   4.503   1.093   3.422 -0.2554 -1.2515 -2.0890
 2578SOL     OW 8632   4.716   2.832   4.198  0.1578 -0.0895  0.0627
 2578SOL    HW1 8633   4.688   2.738   4.214  0.7556 -0.4655 -1.0017
 2578SOL    HW2 8634   4.726   2.879   4.286 -3.0844 -0.1049  0.5747
 2579SOL     OW 8635   0.414   0.270   5.664 -0.9055  0.0698  0.3935
 2579SOL    HW1 8636   0.347   0.205   5.628 -1.0637  1.2292 -1.5161
 2579SOL    HW2 8637   0.408   0.271   5.764 -0.6993 -2.9973  0.5283
 2580SOL     OW 8638   1.094   2.352   0.116  0.2630  0.1652  0.1141
 2580SOL    HW1 8639   1.076   2.287   0.190 -1.2313  0.9800  0.5059
 2580SOL    HW2 8640   1.193   2.360   0.102  0.4957 -1.5597  0.6007
 2581SOL     OW 8641   5.291   5.296   2.126  0.2653  0.3267 -0.2392
 2581SOL    HW1 8642   5.384   5.334   2.128  0.0182  0.9831 -1.1974
 2581SOL    HW2 8643   5.224   5.370   2.124 -0.2398 -0.1387 -1.2328
 2582SOL     OW 8644   2.761   5.481   3.375  0.0751  0.2934  0.2362
 2582SOL    HW1 8645   2.699   5.438   3.308 -0.8798  1.1209  0.5610
 2582SOL    HW2 8646   2.849   5.434   3.373  0.0059  0.1553 -1.4525
 2583SOL     OW 8647   0.563   6.861   1.767  0.1071  0.0031 -0.0703
 2583SOL    HW1 8648   0.514   6.932   1.817  0.4894 -0.9086  1.6631
 2583SOL    HW2 8649   0.655   6.893   1.746  0.1082  0.2153  0.2502
 2584SOL     OW 8650   2.819   1.043   0.834 -0.7396 -0.2620  0.2684
 2584SOL    HW1 8651   2.834   0.954   0.878  1.3977  0.1034  0.4105
 2584SOL    HW2 8652   2.855   1.040   0.741 -2.3040 -0.0538 -0.3684
 2585SOL     OW 8653   4.158   2.186   0.426  0.6729  0.6574  0.2333
 2585SOL    HW1 8654   4.190   2.094   0.401 -1.5330 -0.3121  0.7097
 2585SOL    HW2 8655   4.227   2.232   0.481  1.5133 -1.0480  0.6674
 2586SOL     OW 8656   5.153   3.000   4.897 -0.3807 -0.5045 -0.1213
 2586SOL    HW1 8657   5.112   2.917   4.861 -0.1257 -1.7684  2.3027
 2586SOL    HW2 8658   5.082   3.062   4.929 -0.5085 -0.6347 -0.1542
 2587SOL     OW 8659   5.729   0.234   3.516 -0.1710  0.1176  0.1121
 2587SOL    HW1 8660   5.675   0.166   3.467 -2.2367  1.2017  0.7401
 2587SOL    HW2 8661   5.794   0.277   3.454 -0.6733 -0.5784 -0.9223
 2588SOL     OW 8662   6.433   0.952   2.371 -0.2841  0.4664  0.0795
 2588SOL    HW1 8663   6.454   0.868   2.422 -2.2017 -0.2842 -0.2592
 2588SOL    HW2 8664   6.496   1.024   2.397  0.6437 -0.7407  1.3009
 2589SOL     OW 8665   0.396   0.287   5.944  0.0658 -0.4531  0.1182
 2589SOL    HW1 8666   0.320   0.290   6.009  2.4173  0.1243  3.0648
 2589SOL    HW2 8667   0.438   0.378   5.938  0.3793 -0.6842 -1.6874
 2590SOL     OW 8668   3.006   5.832   3.199  0.1553  0.8489 -0.3317
 2590SOL    HW1 8669   3.096   5.874   3.205  0.4434  0.2117 -0.1640
 2590SOL    HW2 8670   2.989   5.777   3.280 -1.2525  2.6293  0.6462
 2591SOL     OW 8671   6.194   3.862   1.638  0.5922 -0.4448  0.1928
 2591SOL    HW1 8672   6.101   3.885   1.668  0.6327 -0.6254  0.4544
 2591SOL    HW2 8673   6.237   3.801   1.705  1.4971  0.9452  0.9459
 2592SOL     OW 8674   3.282   5.621   1.541  0.1614  0.0580  0.5490
 2592SOL    HW1 8675   3.378   5.611   1.565 -0.0265  1.4753  2.0962
 2592SOL    HW2 8676   3.225   5.576   1.609 -0.3059 -1.3355 -0.6972
 2593SOL     OW 8677   3.699   6.540   2.795  0.2199  0.0420 -0.3734
 2593SOL    HW1 8678   3.705   6.469   2.864 -2.5282 -0.7533 -0.8263
 2593SOL    HW2 8679   3.695   6.498   2.704 -0.9205  0.7446 -0.6781
 2594SOL     OW 8680   1.193   5.081   4.414  0.0949  0.2848  0.0103
 2594SOL    HW1 8681   1.111   5.083   4.358 -0.6004  2.6890  0.9792
 2594SOL    HW2 8682   1.173   5.119   4.504  2.0547  0.0266  0.6037
 2595SOL     OW 8683   6.764   2.087   5.921  0.0271  0.0503 -0.4688
 2595SOL    HW1 8684   6.713   2.056   6.001  0.4756 -0.4671 -0.3805
 2595SOL    HW2 8685   6.701   2.098   5.844 -0.5376  1.2965  0.1441
 2596SOL     OW 8686   4.641   1.758   2.132 -0.4573 -0.0466 -0.5610
 2596SOL    HW1 8687   4.715   1.732   2.193 -0.5496 -0.8899 -0.7947
 2596SOL    HW2 8688   4.645   1.856   2.114  0.0580  0.0692  0.1391
 2597SOL     OW 8689   3.125   2.365   6.770  0.1462 -0.9008 -0.5789
 2597SOL    HW1 8690   3.109   2.267   6.784  1.1522 -0.9171  0.7254
 2597SOL    HW2 8691   3.193   2.397   6.836  0.4441  0.5164 -1.5242
 2598SOL     OW 8692   6.790   2.874   4.872  0.3369  0.7287  0.2684
 2598SOL    HW1 8693   6.840   2.947   4.917  0.2709 -0.1518  1.8454
 2598SOL    HW2 8694   6.729   2.912   4.802 -0.7539  2.3341  2.0117
 2599SOL     OW 8695   3.763   4.075   0.687 -0.7412 -0.3131  0.4896
 2599SOL    HW1 8696   3.804   4.116   0.606 -0.2463 -1.2644  0.2533
 2599SOL    HW2 8697   3.822   4.001   0.721 -2.7647 -2.4688 -0.4990
 2600SOL     OW 8698   5.185   3.713   4.321 -0.0148 -0.5223 -0.1139
 2600SOL    HW1 8699   5.183   3.768   4.238 -1.1544  0.9352  0.8436
 2600SOL    HW2 8700   5.158   3.769   4.400 -1.4981 -2.5021  0.8765
 2601SOL     OW 8701   5.217   3.383   0.274 -0.0483 -0.3114 -0.2216
 2601SOL    HW1 8702   5.305   3.399   0.319 -0.5358  0.4980  0.4638
 2601SOL    HW2 8703   5.153   3.341   0.338  0.2411 -2.2025 -1.1141
 2602SOL     OW 8704   6.439   4.271   2.096 -0.6446 -0.1534 -0.1160
 2602SOL    HW1 8705   6.517   4.281   2.158  0.8089 -0.5764 -1.7889
 2602SOL    HW2 8706   6.398   4.360   2.079  0.4544  0.3215 -0.3918
 2603SOL     OW 8707   3.520   3.584   1.292  0.2709  0.0999  0.0708
 2603SOL    HW1 8708   3.510   3.632   1.380  1.7642 -1.1847  1.0022
 2603SOL    HW2 8709   3.463   3.502   1.293  1.2118 -0.5601  0.3474
 2604SOL     OW 8710   5.740   1.311   2.842 -0.2769 -0.4525 -0.1013
 2604SOL    HW1 8711   5.672   1.272   2.780 -0.0484 -1.3454  0.1883
 2604SOL    HW2 8712   5.701   1.315   2.934 -1.2542  2.5006 -0.5530
 2605SOL     OW 8713   4.196   5.421   3.276  0.1515  0.7373  0.0140
 2605SOL    HW1 8714   4.118   5.454   3.222  0.1778  0.1361 -0.3951
 2605SOL    HW2 8715   4.276   5.478   3.258 -0.3928  1.8834  1.0645
 2606SOL     OW 8716   0.983   5.086   1.255 -0.1586  0.1196 -1.0240
 2606SOL    HW1 8717   0.964   4.991   1.279  0.9023 -0.0240 -0.6835
 2606SOL    HW2 8718   1.082   5.101   1.253 -0.2815  0.9670 -2.0649
 2607SOL     OW 8719   6.682   2.581   3.439 -0.3952 -0.3399 -0.1057
 2607SOL    HW1 8720   6.665   2.679   3.425  0.0259 -0.2240  0.1738
 2607SOL    HW2 8721   6.777   2.567   3.466  0.1257 -1.0101 -2.0789
 2608SOL     OW 8722   4.823   0.032   3.089  1.0007 -0.2614 -0.1541
 2608SOL    HW1 8723   4.850   0.014   2.995 -1.1369 -0.7536 -0.7170
 2608SOL    HW2 8724   4.824   0.131   3.105 -0.6474 -0.0053 -1.3809
 2609SOL     OW 8725   0.530   3.310   5.498 -0.8984  0.0660  0.1223
 2609SOL    HW1 8726   0.482   3.222   5.504  1.2141 -1.2558 -1.0146
 2609SOL    HW2 8727   0.513   3.351   5.408 -2.1292  1.0347  0.7615
 2610SOL     OW 8728   0.947   4.901   5.520 -0.8484 -0.6116  0.1819
 2610SOL    HW1 8729   0.978   4.816   5.477 -0.1987 -0.2043 -0.1786
 2610SOL    HW2 8730   0.997   4.916   5.606  0.3828  0.2982 -0.6464
 2611SOL     OW 8731   5.989   0.444   0.452  0.5768 -0.2244 -0.5250
 2611SOL    HW1 8732   5.896   0.477   0.464  0.1234 -1.2532 -1.1416
 2611SOL    HW2 8733   5.997   0.394   0.366  1.0685 -2.2820  0.6547
 2612SOL     OW 8734   5.894   1.040   5.046  0.0671 -0.2274 -0.3687
 2612SOL    HW1 8735   5.858   1.013   4.956 -1.1413  0.7360 -0.2012
 2612SOL    HW2 8736   5.878   0.966   5.111 -0.2066 -0.4324 -0.6606
 2613SOL     OW 8737   1.854   1.192   3.777 -0.5631  0.3584 -0.4111
 2613SOL    HW1 8738   1.807   1.247   3.846  1.8292  1.4087  0.4577
 2613SOL    HW2 8739   1.835   1.230   3.686 -1.4277  0.7066 -0.0949
 2614SOL     OW 8740   0.159   5.502   0.354 -0.2848  0.3380  0.2641
 2614SOL    HW1 8741   0.202   5.589   0.333 -0.5606 -0.4634 -5.1973
 2614SOL    HW2 8742   0.067   5.517   0.391 -0.4534  2.3762 -0.8823
 2615SOL     OW 8743   5.119   5.090   2.172  0.2022  0.5307  0.3597
 2615SOL    HW1 8744   5.036   5.072   2.118  0.7886 -0.3759 -0.2820
 2615SOL    HW2 8745   5.155   5.180   2.149 -0.4007  0.7844  0.3806
 2616SOL     OW 8746   3.197   4.083   2.805 -0.7127  0.3004 -0.4338
 2616SOL    HW1 8747   3.187   4.008   2.740 -3.9854  1.6516 -1.7468
 2616SOL    HW2 8748   3.141   4.064   2.886 -0.8669  0.9067 -0.3906
 2617SOL     OW 8749   3.164   1.188   1.062 -0.0600 -0.0936 -0.3461
 2617SOL    HW1 8750   3.232   1.128   1.105 -2.1446 -3.2912 -1.1919
 2617SOL    HW2 8751   3.211   1.252   1.002  2.4478  0.6112  2.1322
 2618SOL     OW 8752   6.149   5.726   4.432 -0.4326 -0.2414  0.0398
 2618SOL    HW1 8753   6.207   5.673   4.371  0.2083  0.6414 -0.1346
 2618SOL    HW2 8754   6.183   5.718   4.526 -0.1201  0.1352 -0.0376
 2619SOL     OW 8755   1.731   2.310   3.176 -0.2283  0.7197  0.2859
 2619SOL    HW1 8756   1.727   2.343   3.270  0.7777  0.6407  0.3752
 2619SOL    HW2 8757   1.641   2.315   3.134 -0.7383  0.5006  1.3377
 2620SOL     OW 8758   1.214   6.624   3.537 -0.1444 -0.1652 -0.3701
 2620SOL    HW1 8759   1.208   6.670   3.449 -0.8920 -0.1189 -0.2986
 2620SOL    HW2 8760   1.294   6.659   3.587 -0.4740  0.7656 -0.4783
 2621SOL     OW 8761   1.751   0.156   3.891 -0.5971 -0.1790 -0.0368
 2621SOL    HW1 8762   1.716   0.111   3.973 -1.5185 -1.9486 -1.3301
 2621SOL    HW2 8763   1.692   0.135   3.813  1.5466 -0.6029 -1.6658
 2622SOL     OW 8764   2.630   3.211   5.725  0.1782  0.1463  0.0500
 2622SOL    HW1 8765   2.710   3.215   5.785  1.8473  0.7642 -2.1129
 2622SOL    HW2 8766   2.547   3.207   5.781  1.5552  1.9830  2.4127
 2623SOL     OW 8767   4.960   2.329   4.385 -0.0704 -0.4875  0.4560
 2623SOL    HW1 8768   4.947   2.360   4.291  2.3984  3.2906  1.1360
 2623SOL    HW2 8769   4.908   2.389   4.447  1.4350 -0.3630  1.6540
 2624SOL     OW 8770   5.910   2.914   1.997  0.2268 -0.1081  0.0681
 2624SOL    HW1 8771   5.823   2.872   2.021  0.8989 -1.7623 -0.2653
 2624SOL    HW2 8772   5.974   2.905   2.073  0.2724  0.6878  0.1365
 2625SOL     OW 8773   1.656   1.987   4.159  0.0700  0.4429 -0.6421
 2625SOL    HW1 8774   1.717   2.038   4.219 -0.0851  1.2483 -1.1414
 2625SOL    HW2 8775   1.564   2.026   4.165 -0.2685 -0.3892 -0.3286
 2626SOL     OW 8776   6.190   0.566   4.036  0.1496 -0.0693  0.3911
 2626SOL    HW1 8777   6.260   0.604   3.975 -0.1015  0.2691  0.3127
 2626SOL    HW2 8778   6.179   0.626   4.115  1.1983 -1.0185  1.2937
 2627SOL     OW 8779   1.478   0.708   3.558  0.4626  0.1381  0.0222
 2627SOL    HW1 8780   1.496   0.692   3.655  0.2713 -0.8189 -0.0962
 2627SOL    HW2 8781   1.514   0.798   3.533  0.1391  0.5796  1.0711
 2628SOL     OW 8782   4.770   6.610   6.442 -0.9345 -0.2722 -0.5300
 2628SOL    HW1 8783   4.736   6.618   6.536 -0.4522  1.1481 -0.4541
 2628SOL    HW2 8784   4.709   6.550   6.390 -1.2988 -0.9492  0.6337
 2629SOL     OW 8785   2.880   3.582   2.800 -0.7374 -0.0676 -0.1047
 2629SOL    HW1 8786   2.838   3.525   2.871  0.0089 -1.7121 -0.9304
 2629SOL    HW2 8787   2.979   3.584   2.812 -0.5924 -0.4327 -1.1149
 2630SOL     OW 8788   5.020   1.181   1.650 -0.1033  0.5652 -0.6523
 2630SOL    HW1 8789   5.002   1.178   1.552  1.5408 -1.0006 -0.9733
 2630SOL    HW2 8790   5.021   1.276   1.682  1.5041  1.2633 -2.6205
 2631SOL     OW 8791   5.927   1.761   3.265  0.2256 -0.1835 -0.1808
 2631SOL    HW1 8792   5.926   1.754   3.166 -0.5896 -1.4074 -0.0996
 2631SOL    HW2 8793   5.927   1.670   3.306  1.1223  0.2902  0.9499
 2632SOL     OW 8794   1.869   2.654   6.777  0.1499 -0.2714 -0.0991
 2632SOL    HW1 8795   1.781   2.614   6.803  1.5340 -2.5025  1.4968
 2632SOL    HW2 8796   1.901   2.714   6.850 -0.3229  1.1347 -1.0006
 2633SOL     OW 8797   6.407   3.760   6.011 -0.1660 -0.2198  0.4197
 2633SOL    HW1 8798   6.316   3.781   6.047 -0.3991 -2.1771  1.1314
 2633SOL    HW2 8799   6.455   3.844   5.989 -2.2425  0.8668 -0.2051
 2634SOL     OW 8800   1.178   3.836   1.161 -0.1853 -0.2193 -0.1009
 2634SOL    HW1 8801   1.105   3.897   1.131 -0.1770 -0.1065  0.1047
 2634SOL    HW2 8802   1.255   3.843   1.099 -1.2746 -2.2068 -1.8225
 2635SOL     OW 8803   4.512   5.913   5.270  0.3913 -0.2873 -0.0217
 2635SOL    HW1 8804   4.450   5.925   5.347 -0.7256  0.7276 -1.0442
 2635SOL    HW2 8805   4.606   5.931   5.300 -0.0990  0.7421  0.9658
 2636SOL     OW 8806   5.270   0.034   6.243  0.3157 -0.1744 -0.2494
 2636SOL    HW1 8807   5.355  -0.018   6.230 -0.3326 -1.2765 -0.2495
 2636SOL    HW2 8808   5.258   0.054   6.341  1.6245  1.8839 -0.4470
 2637SOL     OW 8809   6.987   1.423   4.532  0.2660 -0.3573  0.0032
 2637SOL    HW1 8810   7.058   1.397   4.597  1.0920 -0.0185 -0.7326
 2637SOL    HW2 8811   6.973   1.522   4.535 -1.1691 -0.5587  1.1035
 2638SOL     OW 8812   6.952   6.834   2.421 -0.7012 -0.1899  0.3680
 2638SOL    HW1 8813   6.988   6.822   2.513  0.6035  0.9001  0.0289
 2638SOL    HW2 8814   6.926   6.929   2.408 -1.0297 -0.3718 -0.3445
 2639SOL     OW 8815   6.603   1.003   0.969  0.2685 -0.2319 -0.0924
 2639SOL    HW1 8816   6.516   1.050   0.955  0.6050  0.7166  0.8677
 2639SOL    HW2 8817   6.586   0.911   1.003 -0.3625  0.1448  0.6474
 2640SOL     OW 8818   0.170   5.983   5.473  0.0586 -0.6163 -0.2303
 2640SOL    HW1 8819   0.210   5.901   5.513  0.0700 -0.7349 -0.4810
 2640SOL    HW2 8820   0.180   5.980   5.373  1.5221  0.4512 -0.1425
 2641SOL     OW 8821   5.432   2.879   1.322  0.6825 -0.5880 -0.6687
 2641SOL    HW1 8822   5.422   2.964   1.374 -1.1818 -1.2312  0.0940
 2641SOL    HW2 8823   5.373   2.883   1.241  2.1350 -0.3656 -1.7507
 2642SOL     OW 8824   4.083   0.318   5.422  0.0447  0.9530  0.2489
 2642SOL    HW1 8825   4.141   0.362   5.354 -2.2284 -0.8319 -3.1410
 2642SOL    HW2 8826   4.120   0.228   5.445 -0.4714  0.4870 -0.6789
 2643SOL     OW 8827   6.796   3.577   2.218 -0.4036 -0.2006 -0.5689
 2643SOL    HW1 8828   6.770   3.579   2.122 -1.2209 -1.0848 -0.3845
 2643SOL    HW2 8829   6.845   3.661   2.242 -1.9263  0.9241 -1.2727
 2644SOL     OW 8830   1.878   4.428   5.402  0.2377 -0.2424  0.3654
 2644SOL    HW1 8831   1.956   4.367   5.418  1.3382  1.5685  2.5419
 2644SOL    HW2 8832   1.803   4.402   5.463  0.0062 -0.5213 -0.0316
 2645SOL     OW 8833   4.949   5.897   6.192 -0.0227  0.6032 -0.2461
 2645SOL    HW1 8834   5.045   5.879   6.170 -0.4699 -0.9332 -1.0747
 2645SOL    HW2 8835   4.914   5.825   6.252 -0.1799  2.1608  1.6356
 2646SOL     OW 8836   0.837   6.293   1.134  0.3910  0.6296 -0.6014
 2646SOL    HW1 8837   0.885   6.304   1.221  0.1692  2.7488 -0.6773
 2646SOL    HW2 8838   0.770   6.220   1.141  0.7284  0.4360  0.8404
 2647SOL     OW 8839   4.615   0.935   1.946  0.1295 -0.3503 -0.2763
 2647SOL    HW1 8840   4.647   0.954   1.853 -0.7079  0.0141 -0.5002
 2647SOL    HW2 8841   4.596   1.022   1.992  1.3254 -0.4919  0.5310
 2648SOL     OW 8842   0.865   0.152   4.163 -0.1243  0.0045 -0.1976
 2648SOL    HW1 8843   0.847   0.218   4.236 -0.6990 -0.3997  0.0288
 2648SOL    HW2 8844   0.945   0.181   4.111  0.9633 -0.2557  1.2620
 2649SOL     OW 8845   3.873   3.616   4.784  0.5725 -0.5704  0.5757
 2649SOL    HW1 8846   3.867   3.556   4.864 -0.0860 -0.9475  0.2466
 2649SOL    HW2 8847   3.945   3.684   4.799  0.6140 -0.7870  1.3892
 2650SOL     OW 8848   6.605   4.844   6.096 -0.2147 -0.5828  0.1930
 2650SOL    HW1 8849   6.592   4.926   6.041  0.3912  0.0429  0.9582
 2650SOL    HW2 8850   6.578   4.763   6.043 -0.0829  0.0366 -0.8407
 2651SOL     OW 8851   0.660   0.312   1.263  0.2439  0.1080 -0.3102
 2651SOL    HW1 8852   0.683   0.244   1.193  0.6618  1.1223 -1.1856
 2651SOL    HW2 8853   0.726   0.306   1.338 -0.1388 -0.9136 -0.0409
 2652SOL     OW 8854   2.931   3.511   3.188 -0.2977 -0.2268  0.2469
 2652SOL    HW1 8855   2.999   3.462   3.242  1.4807 -0.5839 -2.1226
 2652SOL    HW2 8856   2.897   3.451   3.115  0.3157  1.3301 -1.3983
 2653SOL     OW 8857   3.900   6.272   6.977 -0.1284  0.1883  0.0550
 2653SOL    HW1 8858   3.977   6.312   7.027  0.5919 -1.1212  0.0463
 2653SOL    HW2 8859   3.848   6.345   6.932 -0.9639  1.4537  2.8650
 2654SOL     OW 8860   3.360   3.083   6.853  0.6594  0.1154  0.3883
 2654SOL    HW1 8861   3.276   3.028   6.853  0.2256  0.6748  2.7580
 2654SOL    HW2 8862   3.370   3.129   6.765 -0.2578 -1.8018 -0.7809
 2655SOL     OW 8863   5.998   3.814   3.823  0.5347  0.6833 -0.3469
 2655SOL    HW1 8864   6.060   3.862   3.760  3.3047 -2.1685 -0.0467
 2655SOL    HW2 8865   5.973   3.725   3.784 -0.6153  0.3407  1.0859
 2656SOL     OW 8866   4.715   5.579   4.651 -0.0013  0.3249 -0.0576
 2656SOL    HW1 8867   4.685   5.653   4.590 -1.1279  1.6159  1.9633
 2656SOL    HW2 8868   4.667   5.585   4.738  2.7649 -0.3787  1.6644
 2657SOL     OW 8869   2.816   5.103   6.498  0.0871 -1.2006  0.1522
 2657SOL    HW1 8870   2.721   5.125   6.479  0.3509 -0.4699 -0.3702
 2657SOL    HW2 8871   2.852   5.164   6.569  0.2816 -1.2003  0.0564
 2658SOL     OW 8872   4.418   4.498   0.811  0.2855 -0.5103  0.2271
 2658SOL    HW1 8873   4.336   4.554   0.817  0.9786  0.5768 -0.2011
 2658SOL    HW2 8874   4.470   4.505   0.896  1.8454  1.8863 -0.8212
 2659SOL     OW 8875   5.327   3.370   4.188 -0.1145  0.5533 -0.2222
 2659SOL    HW1 8876   5.395   3.313   4.235 -0.9535 -0.7640 -0.5503
 2659SOL    HW2 8877   5.355   3.384   4.093  0.1162  0.7431 -0.1287
 2660SOL     OW 8878   6.972   1.911   1.157 -0.6631  0.5599 -0.0158
 2660SOL    HW1 8879   6.918   1.932   1.076  1.3049  0.1741 -1.5170
 2660SOL    HW2 8880   7.057   1.864   1.129  0.1579  0.5754  2.2547
 2661SOL     OW 8881   3.157   5.067   3.585 -0.1537 -0.1107 -0.6870
 2661SOL    HW1 8882   3.228   5.013   3.629 -0.7254 -1.3449 -1.2417
 2661SOL    HW2 8883   3.179   5.165   3.594  0.8445 -0.4114  0.4077
 2662SOL     OW 8884   4.155   0.023   4.942  0.0567 -0.0382  0.3239
 2662SOL    HW1 8885   4.172  -0.004   4.847 -1.5839  0.3857 -0.1299
 2662SOL    HW2 8886   4.113   0.114   4.943 -1.8586 -0.8656  1.2848
 2663SOL     OW 8887   4.096   4.361   0.315  0.0969 -0.3681  0.0152
 2663SOL    HW1 8888   4.174   4.328   0.262  1.0458  0.2005  1.0179
 2663SOL    HW2 8889   4.109   4.339   0.411 -1.8489 -1.8580 -0.0073
 2664SOL     OW 8890   2.939   3.745   3.332 -0.6938 -0.2755 -0.1139
 2664SOL    HW1 8891   2.934   3.665   3.273 -3.4917 -0.2522 -0.0618
 2664SOL    HW2 8892   2.924   3.717   3.427  1.6145 -0.0411  0.3679
 2665SOL     OW 8893   2.611   3.136   6.680  0.0384  0.4755 -0.1469
 2665SOL    HW1 8894   2.566   3.092   6.757 -0.3486 -0.8302 -1.0805
 2665SOL    HW2 8895   2.648   3.225   6.708 -0.5919  0.2755  1.3674
 2666SOL     OW 8896   4.634   3.094   6.142 -0.5556  0.3074  0.0873
 2666SOL    HW1 8897   4.724   3.099   6.185 -0.4280 -2.6680  0.4117
 2666SOL    HW2 8898   4.564   3.120   6.208  0.0190  3.9338 -0.5463
 2667SOL     OW 8899   1.917   5.523   4.052 -0.3588  0.1965 -0.1955
 2667SOL    HW1 8900   1.982   5.477   4.114  0.8935  0.9810 -0.8852
 2667SOL    HW2 8901   1.866   5.592   4.103 -0.5680 -0.3269  0.3225
 2668SOL     OW 8902   6.775   3.819   2.809  0.1306 -0.1463 -0.2829
 2668SOL    HW1 8903   6.684   3.851   2.781 -0.2347 -0.9848 -0.0814
 2668SOL    HW2 8904   6.786   3.833   2.907  1.1590  2.1806 -0.6735
 2669SOL     OW 8905   3.309   3.437   4.443  0.0184 -0.4000  0.3193
 2669SOL    HW1 8906   3.317   3.494   4.525  0.0346 -2.1194  1.5549
 2669SOL    HW2 8907   3.305   3.496   4.363 -0.4433  1.3566  1.5692
 2670SOL     OW 8908   5.569   1.315   2.354  0.4616 -0.1980  0.8370
 2670SOL    HW1 8909   5.515   1.352   2.278 -0.1039 -0.4585  1.1001
 2670SOL    HW2 8910   5.666   1.333   2.339  0.1747  1.9561  1.2839
 2671SOL     OW 8911   3.171   6.125   0.718 -0.2165  0.5477  0.6293
 2671SOL    HW1 8912   3.254   6.168   0.753  0.3073 -2.3820  3.4042
 2671SOL    HW2 8913   3.192   6.034   0.682 -2.1282 -0.1260  1.0855
 2672SOL     OW 8914   2.541   5.727   6.384 -0.0885  0.0457 -0.2603
 2672SOL    HW1 8915   2.499   5.732   6.294 -0.9675 -1.8418 -0.0075
 2672SOL    HW2 8916   2.487   5.779   6.450 -1.7859 -1.8261 -0.0707
 2673SOL     OW 8917   5.858   2.165   2.088  0.6736  0.4179 -0.1629
 2673SOL    HW1 8918   5.841   2.087   2.028  0.1107  0.9372 -0.6804
 2673SOL    HW2 8919   5.796   2.161   2.166  0.0684  0.7994 -0.6204
 2674SOL     OW 8920   1.946   3.885   5.438 -0.3036 -0.1803 -0.2755
 2674SOL    HW1 8921   1.848   3.899   5.452 -0.8923 -1.4514 -2.6090
 2674SOL    HW2 8922   1.976   3.940   5.360  0.2839 -1.5611 -1.0572
 2675SOL     OW 8923   0.394   4.191   5.220 -0.5033 -0.2150  0.6259
 2675SOL    HW1 8924   0.374   4.122   5.290 -1.8348 -1.6599 -1.1089
 2675SOL    HW2 8925   0.490   4.182   5.192 -1.2247 -3.1010 -1.2913
 2676SOL     OW 8926   4.288   6.199   4.758 -0.0508  0.5156  0.0305
 2676SOL    HW1 8927   4.349   6.149   4.697  1.6069  2.7979 -0.3168
 2676SOL    HW2 8928   4.341   6.239   4.833 -1.8208 -0.9681  2.2086
 2677SOL     OW 8929   3.677   3.085   1.172 -0.0323 -0.5258  0.3955
 2677SOL    HW1 8930   3.737   3.145   1.224 -1.5154  0.3805  1.1420
 2677SOL    HW2 8931   3.725   3.001   1.148  1.3982  0.0203  1.2492
 2678SOL     OW 8932   0.702   3.856   6.937  0.5064 -0.2535 -0.3107
 2678SOL    HW1 8933   0.655   3.838   6.850 -0.9314  0.4417  0.2941
 2678SOL    HW2 8934   0.775   3.788   6.949  0.2905 -0.7895 -1.7244
 2679SOL     OW 8935   4.470   6.677   1.364  0.2909  0.5625 -0.1879
 2679SOL    HW1 8936   4.376   6.669   1.397 -0.2641  0.6144 -1.6701
 2679SOL    HW2 8937   4.530   6.707   1.438 -0.7575 -0.0307  0.9175
 2680SOL     OW 8938   1.748   1.397   1.164  0.3103  0.4564  0.6312
 2680SOL    HW1 8939   1.797   1.401   1.077 -1.7335 -2.0249 -0.7950
 2680SOL    HW2 8940   1.718   1.489   1.190  1.3106  1.3101 -1.0776
 2681SOL     OW 8941   0.633   2.018   3.329 -0.0398  0.0698  0.2424
 2681SOL    HW1 8942   0.601   2.074   3.253 -0.7583 -1.3527 -0.5524
 2681SOL    HW2 8943   0.681   1.937   3.292 -1.1665 -1.0966  1.2563
 2682SOL     OW 8944   5.673   4.221   1.787 -0.1719 -0.4592 -0.2243
 2682SOL    HW1 8945   5.715   4.186   1.703 -0.3051 -1.2079  0.0109
 2682SOL    HW2 8946   5.619   4.302   1.766 -0.9900 -1.1849 -1.0482
 2683SOL     OW 8947   2.339   5.108   6.979 -0.4231 -0.0893  0.1482
 2683SOL    HW1 8948   2.368   5.105   6.883  0.7366 -0.6100  0.4947
 2683SOL    HW2 8949   2.276   5.032   6.997 -0.6315 -0.0011 -0.1863
 2684SOL     OW 8950   3.011   0.214   3.019 -0.5620 -0.7325 -0.2477
 2684SOL    HW1 8951   2.959   0.287   3.064 -1.6430 -0.7682 -1.3707
 2684SOL    HW2 8952   3.087   0.254   2.968 -1.2361 -0.3400 -0.9810
 2685SOL     OW 8953   0.412   5.103   5.922 -0.9150 -0.4507  0.3626
 2685SOL    HW1 8954   0.440   5.190   5.881 -1.1747 -1.0733 -1.2228
 2685SOL    HW2 8955   0.363   5.049   5.854 -0.5949 -1.9283  1.2593
 2686SOL     OW 8956   0.301   3.197   5.128 -0.4194  0.3922 -1.0213
 2686SOL    HW1 8957   0.364   3.250   5.184 -1.2079 -0.4567  0.7603
 2686SOL    HW2 8958   0.208   3.209   5.162 -0.7835 -1.0332 -1.4527
 2687SOL     OW 8959   5.433   4.144   4.345  0.5290 -0.3236 -0.0960
 2687SOL    HW1 8960   5.360   4.146   4.414  1.3474 -3.5462  1.0730
 2687SOL    HW2 8961   5.518   4.176   4.386  0.2280  1.6444 -0.9081
 2688SOL     OW 8962   3.623   6.057   6.177 -0.5675  0.3921 -0.2865
 2688SOL    HW1 8963   3.718   6.065   6.147 -0.7704 -0.3988 -1.1999
 2688SOL    HW2 8964   3.619   5.996   6.256 -0.4561 -0.7670 -1.1461
 2689SOL     OW 8965   0.304   1.090   2.744  0.2593 -0.2351 -0.5053
 2689SOL    HW1 8966   0.249   1.052   2.670  0.9976 -0.0788 -1.1423
 2689SOL    HW2 8967   0.272   1.053   2.831 -1.3559  0.4342 -0.7669
 2690SOL     OW 8968   3.301   3.522   4.973 -0.3013  0.0193 -0.3033
 2690SOL    HW1 8969   3.206   3.510   4.946 -0.7117 -0.7826  1.3857
 2690SOL    HW2 8970   3.317   3.617   4.999 -1.3726 -0.3535  1.9242
 2691SOL     OW 8971   2.755   5.165   3.465 -0.3389  0.0465  0.2002
 2691SOL    HW1 8972   2.682   5.228   3.488 -1.4419 -0.7379 -0.9932
 2691SOL    HW2 8973   2.740   5.077   3.510  0.3622  0.1518  0.6558
 2692SOL     OW 8974   5.270   5.209   6.431  0.6804  0.0210  0.2087
 2692SOL    HW1 8975   5.314   5.283   6.380  0.1196 -0.4094 -0.9420
 2692SOL    HW2 8976   5.338   5.138   6.453  0.7436 -0.2776 -0.8778
 2693SOL     OW 8977   1.927   4.618   1.942  0.2029  0.2166 -0.0954
 2693SOL    HW1 8978   1.905   4.599   1.847 -2.9215 -2.9250  1.0288
 2693SOL    HW2 8979   1.886   4.705   1.969 -3.6879 -1.3013 -0.4617
 2694SOL     OW 8980   3.142   0.446   2.702  0.4589  0.1723  0.0325
 2694SOL    HW1 8981   3.201   0.508   2.650  1.2912  0.1996  0.9722
 2694SOL    HW2 8982   3.089   0.389   2.638  0.8331  0.7709 -0.8349
 2695SOL     OW 8983   0.769   1.426   1.115 -0.1680 -0.4067  0.7756
 2695SOL    HW1 8984   0.742   1.456   1.023 -1.8771  0.3598  1.4690
 2695SOL    HW2 8985   0.868   1.425   1.123 -0.0128  0.8237 -0.6691
 2696SOL     OW 8986   3.610   3.339   4.534  0.1460 -0.3589 -0.3786
 2696SOL    HW1 8987   3.582   3.315   4.627  0.9789 -0.3545 -0.1173
 2696SOL    HW2 8988   3.535   3.319   4.470  0.0336 -1.6216  0.1106
 2697SOL     OW 8989   5.589   1.711   3.917  0.2019 -0.1635  0.2841
 2697SOL    HW1 8990   5.515   1.645   3.925  0.0240  0.1849  1.8860
 2697SOL    HW2 8991   5.563   1.782   3.851  0.2092 -1.3991 -1.0975
 2698SOL     OW 8992   2.764   0.129   0.761 -0.7285  0.5894 -0.1403
 2698SOL    HW1 8993   2.685   0.174   0.801 -1.2876  0.4894 -1.1111
 2698SOL    HW2 8994   2.804   0.186   0.690  0.3634  0.8416  0.6517
 2699SOL     OW 8995   3.562   6.994   3.331 -0.2671 -0.0387 -0.1320
 2699SOL    HW1 8996   3.469   7.028   3.318 -1.4559 -2.5965  0.9813
 2699SOL    HW2 8997   3.569   6.902   3.294  1.3548 -0.5198  1.2552
 2700SOL     OW 8998   3.046   3.727   1.324 -0.3408 -0.2782  0.3482
 2700SOL    HW1 8999   3.129   3.768   1.362 -1.4838 -0.0412  2.7674
 2700SOL    HW2 9000   3.071   3.659   1.256  1.8962 -0.9161  1.7019
 2701SOL     OW 9001   3.071   5.807   6.568  0.1883  0.4606  0.2387
 2701SOL    HW1 9002   3.136   5.863   6.516 -0.8215  1.4247 -0.0381
 2701SOL    HW2 9003   3.057   5.847   6.658 -0.6018  0.7153  0.0117
 2702SOL     OW 9004   6.419   1.787   4.196 -0.0589  0.5390 -0.2670
 2702SOL    HW1 9005   6.418   1.691   4.222 -0.7338  0.1012 -1.7909
 2702SOL    HW2 9006   6.498   1.833   4.237  1.1000 -0.9990 -0.7090
 2703SOL     OW 9007   0.795   0.521   3.063  0.3061 -0.3945  0.1387
 2703SOL    HW1 9008   0.715   0.516   3.003  0.2425 -0.3621  0.2201
 2703SOL    HW2 9009   0.799   0.438   3.120  0.7047 -0.7030 -0.3343
 2704SOL     OW 9010   0.936   4.789   6.646 -0.0519 -0.2222 -0.0391
 2704SOL    HW1 9011   0.862   4.768   6.582 -1.0152  0.8856  0.6729
 2704SOL    HW2 9012   0.952   4.710   6.705 -1.1484 -0.2393  0.2555
 2705SOL     OW 9013   0.023   4.342   4.197  0.4351  0.2238  0.1289
 2705SOL    HW1 9014  -0.067   4.330   4.154  1.2338 -1.0984 -1.2857
 2705SOL    HW2 9015   0.041   4.439   4.209 -0.7592  0.5524 -0.5396
 2706SOL     OW 9016   1.782   6.034   1.784  0.5267 -0.2359  0.2126
 2706SOL    HW1 9017   1.754   5.987   1.868  0.4432 -0.1899  0.2104
 2706SOL    HW2 9018   1.855   5.981   1.739 -1.0001 -1.5139 -0.8949
 2707SOL     OW 9019   1.928   1.338   5.069  0.0426 -0.2225 -0.0500
 2707SOL    HW1 9020   1.851   1.386   5.111  0.2346 -0.0710  0.1354
 2707SOL    HW2 9021   1.895   1.256   5.023 -0.0257 -1.1316  1.5516
 2708SOL     OW 9022   1.183   1.197   0.668 -0.0942  0.1829  0.2774
 2708SOL    HW1 9023   1.181   1.253   0.750  0.7570  0.9364 -0.1989
 2708SOL    HW2 9024   1.248   1.122   0.680 -0.3999 -0.0436  0.5061
 2709SOL     OW 9025   5.528   0.845   1.607  0.5180  0.2915 -0.1228
 2709SOL    HW1 9026   5.576   0.932   1.597 -1.3507  1.4666  0.7245
 2709SOL    HW2 9027   5.560   0.782   1.536  0.9751  2.1038 -1.6212
 2710SOL     OW 9028   0.440   1.902   1.263  0.2287  0.3236 -0.1762
 2710SOL    HW1 9029   0.441   1.820   1.206 -1.3872  1.2313 -1.5753
 2710SOL    HW2 9030   0.385   1.885   1.344  1.0857 -0.4048  0.2769
 2711SOL     OW 9031   1.855   0.853   1.416 -0.6367 -0.4007  0.0785
 2711SOL    HW1 9032   1.845   0.759   1.383 -1.6407 -0.4901  0.5883
 2711SOL    HW2 9033   1.767   0.900   1.408 -0.9614 -0.4425  2.6001
 2712SOL     OW 9034   3.743   6.613   3.299 -0.2979 -0.8098  0.7689
 2712SOL    HW1 9035   3.763   6.530   3.350  0.8181 -0.3767  1.0678
 2712SOL    HW2 9036   3.798   6.616   3.216 -0.8915 -0.7215  0.3682
 2713SOL     OW 9037   2.418   0.800   4.410  0.3445 -0.2145 -0.3224
 2713SOL    HW1 9038   2.463   0.822   4.497  0.1657 -2.3388  0.3675
 2713SOL    HW2 9039   2.486   0.802   4.337  0.6871  0.7033  0.0088
 2714SOL     OW 9040   5.119   2.772   0.066 -0.0682 -0.1330 -0.0774
 2714SOL    HW1 9041   5.062   2.801  -0.010  1.1585  1.2608 -0.5139
 2714SOL    HW2 9042   5.169   2.689   0.041 -0.0311  0.0524 -0.6245
 2715SOL     OW 9043   6.665   6.435   0.428 -0.7246  0.0608  0.1858
 2715SOL    HW1 9044   6.670   6.388   0.516 -1.7486  1.6475  1.1434
 2715SOL    HW2 9045   6.598   6.389   0.370  1.5829 -2.4081 -0.7620
 2716SOL     OW 9046   3.527   5.904   1.319 -0.1492 -0.2161  0.2275
 2716SOL    HW1 9047   3.519   5.981   1.257 -1.8653  0.0194  0.7032
 2716SOL    HW2 9048   3.614   5.910   1.369 -0.3821  1.5769  0.4761
 2717SOL     OW 9049   0.998   5.361   0.916  0.1103  0.1383 -0.3392
 2717SOL    HW1 9050   0.914   5.341   0.865  0.3908 -1.1328 -0.3350
 2717SOL    HW2 9051   1.003   5.459   0.935 -1.1147  0.3036 -0.7879
 2718SOL     OW 9052   2.111   4.034   4.835  0.2466 -0.8819  0.2637
 2718SOL    HW1 9053   2.204   4.046   4.872  0.3928 -1.8299  0.2281
 2718SOL    HW2 9054   2.064   4.122   4.835  0.6161 -0.6600  1.7160
 2719SOL     OW 9055   3.444   4.654   1.414  0.0174  0.4499  0.2273
 2719SOL    HW1 9056   3.378   4.630   1.343  0.1100  2.1348 -0.4853
 2719SOL    HW2 9057   3.399   4.655   1.503 -0.0401 -1.9543  0.2946
 2720SOL     OW 9058   1.391   6.077   2.836 -0.5022  0.3733 -0.2891
 2720SOL    HW1 9059   1.477   6.085   2.886 -0.2285 -0.6642 -0.5806
 2720SOL    HW2 9060   1.322   6.137   2.878  0.7228  2.2971 -0.8729
 2721SOL     OW 9061   2.531   1.339   4.948 -0.5779 -0.0368 -0.4579
 2721SOL    HW1 9062   2.618   1.386   4.962 -0.3436 -0.6083  0.0532
 2721SOL    HW2 9063   2.506   1.290   5.032  0.1791 -2.4842 -1.5655
 2722SOL     OW 9064   0.185   6.060   2.789  0.0781  0.3345 -0.0251
 2722SOL    HW1 9065   0.167   5.979   2.845  3.3046 -1.8455 -1.7643
 2722SOL    HW2 9066   0.167   6.039   2.693  0.9212  1.6741 -0.5107
 2723SOL     OW 9067   1.204   0.126   5.915 -0.5475  0.1594 -0.0403
 2723SOL    HW1 9068   1.189   0.224   5.900 -1.4851  0.1566  0.8184
 2723SOL    HW2 9069   1.120   0.084   5.949 -0.5947 -1.2513 -1.7839
 2724SOL     OW 9070   1.696   1.524   5.437  0.2586 -0.0985 -0.0184
 2724SOL    HW1 9071   1.740   1.613   5.427  0.6942 -0.4097 -1.1176
 2724SOL    HW2 9072   1.760   1.453   5.406 -0.2108 -0.7594  0.5104
 2725SOL     OW 9073   4.917   5.695   1.906  0.0943 -0.5645  0.1698
 2725SOL    HW1 9074   5.005   5.705   1.859 -0.7047 -0.2153 -1.3285
 2725SOL    HW2 9075   4.924   5.731   1.999  1.2886  0.3254 -0.2378
 2726SOL     OW 9076   5.826   3.283   0.273  0.3960  0.3227 -0.3622
 2726SOL    HW1 9077   5.735   3.241   0.270 -0.2397  1.6668 -1.3886
 2726SOL    HW2 9078   5.825   3.367   0.218  1.0711  2.6922  2.8991
 2727SOL     OW 9079   4.702   4.993   4.282  0.4347 -0.3729 -0.2019
 2727SOL    HW1 9080   4.654   5.029   4.361 -1.2284 -0.1152 -1.2850
 2727SOL    HW2 9081   4.797   4.974   4.307 -0.1617 -0.7936  1.9679
 2728SOL     OW 9082   3.292   1.629   4.245 -0.2881  0.2460 -0.0642
 2728SOL    HW1 9083   3.215   1.655   4.304  1.8370  0.4036  2.8178
 2728SOL    HW2 9084   3.366   1.695   4.256  1.2648 -1.3228 -0.7860
 2729SOL     OW 9085   6.213   5.714   2.615  0.2862 -0.0480  0.3705
 2729SOL    HW1 9086   6.146   5.741   2.545  1.1942 -0.4261 -0.6767
 2729SOL    HW2 9087   6.182   5.631   2.660 -0.5340  0.4530  0.7613
 2730SOL     OW 9088   1.936   6.670   0.857  0.3930  0.8476  0.3676
 2730SOL    HW1 9089   2.016   6.704   0.907  1.4870  0.8627 -1.3027
 2730SOL    HW2 9090   1.930   6.571   0.867  2.1399  0.4866 -1.4621
 2731SOL     OW 9091   4.566   3.308   0.413  0.1996  0.1480 -0.3007
 2731SOL    HW1 9092   4.471   3.314   0.381  0.2284 -0.6688 -0.5481
 2731SOL    HW2 9093   4.611   3.396   0.399  0.2456 -0.1873 -2.6335
 2732SOL     OW 9094   6.213   4.701   1.155  0.2543  0.2136  0.3041
 2732SOL    HW1 9095   6.216   4.602   1.162  2.8576  0.2908  1.4241
 2732SOL    HW2 9096   6.134   4.728   1.100 -0.2821 -2.4616 -0.3888
 2733SOL     OW 9097   6.934   0.059   4.190 -0.0964  0.4282  0.2455
 2733SOL    HW1 9098   6.845   0.015   4.176 -0.6138  2.0355 -2.0054
 2733SOL    HW2 9099   6.919   0.152   4.225  0.6609  0.8902 -0.6343
 2734SOL     OW 9100   4.391   5.235   2.808 -0.4032  0.0138 -0.7135
 2734SOL    HW1 9101   4.453   5.169   2.850  0.8563  1.3678 -0.3617
 2734SOL    HW2 9102   4.365   5.203   2.717  0.5152 -0.7561 -0.7176
 2735SOL     OW 9103   0.131   4.518   0.995  0.3030  0.5646 -0.2119
 2735SOL    HW1 9104   0.127   4.420   1.014 -1.1179  0.3897 -1.2654
 2735SOL    HW2 9105   0.227   4.548   0.996  0.6627 -0.4801  1.6784
 2736SOL     OW 9106   3.251   1.397   4.500 -0.2415  0.6313 -0.1841
 2736SOL    HW1 9107   3.196   1.481   4.500  1.5297  1.8629  1.3847
 2736SOL    HW2 9108   3.346   1.419   4.476  0.0495 -1.1206 -0.7885
 2737SOL     OW 9109   2.244   2.936   5.817  0.4512  0.2331  0.3595
 2737SOL    HW1 9110   2.204   2.970   5.732 -0.9169 -1.2294  0.3539
 2737SOL    HW2 9111   2.317   2.871   5.796  1.4286  1.3163  0.3450
 2738SOL     OW 9112   4.516   4.922   5.027  0.0753 -0.0279 -0.4415
 2738SOL    HW1 9113   4.614   4.935   5.014 -0.0686  0.5389 -0.9854
 2738SOL    HW2 9114   4.477   5.004   5.070 -0.1667 -0.2502 -0.2282
 2739SOL     OW 9115   6.362   0.127   0.819  0.1348 -0.0085  0.2072
 2739SOL    HW1 9116   6.285   0.185   0.794  0.5589  0.6901  0.4804
 2739SOL    HW2 9117   6.334   0.031   0.817 -0.4869  0.1752 -0.5931
 2740SOL     OW 9118   4.590   2.187   2.396 -0.0116 -0.0380 -0.3628
 2740SOL    HW1 9119   4.537   2.183   2.311 -0.2136 -1.5611 -0.2077
 2740SOL    HW2 9120   4.617   2.281   2.414 -1.1421  0.5208 -1.3872
 2741SOL     OW 9121   6.982   6.603   6.514  0.1120 -0.0281 -0.5507
 2741SOL    HW1 9122   7.058   6.656   6.551 -0.0021 -0.4987  0.3901
 2741SOL    HW2 9123   6.953   6.643   6.427  0.9349  0.6065 -0.5485
 2742SOL     OW 9124   1.055   0.765   6.244  0.1227 -0.4693 -0.3445
 2742SOL    HW1 9125   0.971   0.713   6.235  0.5725 -1.4634  0.8963
 2742SOL    HW2 9126   1.046   0.852   6.195 -2.2803  0.2542  1.2056
 2743SOL     OW 9127   6.206   4.114   1.228  0.2230  0.0340 -0.1219
 2743SOL    HW1 9128   6.231   4.144   1.137 -0.9509 -1.9438 -1.1632
 2743SOL    HW2 9129   6.260   4.035   1.254  0.0048  0.1004  0.5786
 2744SOL     OW 9130   5.048   2.869   6.220  0.1151 -0.0628 -0.1214
 2744SOL    HW1 9131   4.988   2.877   6.140  1.7062 -0.9678 -1.4812
 2744SOL    HW2 9132   5.143   2.880   6.192  1.0054 -3.3986  1.0289
 2745SOL     OW 9133   1.793   0.404   0.627 -0.2072 -0.2066  0.5800
 2745SOL    HW1 9134   1.820   0.315   0.591 -2.5688 -1.0417  0.7522
 2745SOL    HW2 9135   1.703   0.429   0.592 -0.8063  0.8438  2.6781
 2746SOL     OW 9136   1.282   2.099   6.143  0.6292  0.4792 -0.2133
 2746SOL    HW1 9137   1.312   2.093   6.048  1.1357  0.3042 -0.0427
 2746SOL    HW2 9138   1.262   2.194   6.166  2.7874  0.8647  0.1996
 2747SOL     OW 9139   3.444   4.545   5.616 -0.0749 -0.5008 -0.4082
 2747SOL    HW1 9140   3.472   4.486   5.693  0.6630  0.0082 -0.2782
 2747SOL    HW2 9141   3.518   4.550   5.550  0.1341  0.8018 -0.1053
 2748SOL     OW 9142   5.540   0.362   6.568  0.2811  0.2641  0.7138
 2748SOL    HW1 9143   5.453   0.402   6.541 -0.0197  0.1375  1.4825
 2748SOL    HW2 9144   5.550   0.367   6.667  1.3543  0.6989  0.6032
 2749SOL     OW 9145   6.256   4.789   4.691  0.0535  0.5223  0.0083
 2749SOL    HW1 9146   6.179   4.790   4.755  0.8875  1.3378  1.0142
 2749SOL    HW2 9147   6.234   4.848   4.613 -0.2250  1.0163  0.4514
 2750SOL     OW 9148   0.297   5.632   1.434 -0.4908  0.0029  0.7026
 2750SOL    HW1 9149   0.355   5.587   1.365 -0.6170  0.4603  0.2979
 2750SOL    HW2 9150   0.355   5.674   1.503 -0.2421  1.8775 -0.5694
 2751SOL     OW 9151   1.247   0.048   1.218  0.4997  0.5008 -0.0970
 2751SOL    HW1 9152   1.166  -0.010   1.225  2.0521 -1.6933  1.3888
 2751SOL    HW2 9153   1.291   0.033   1.129  0.3772  0.0952 -0.0903
 2752SOL     OW 9154   0.576   6.441   0.455  0.1801 -0.6331  0.4608
 2752SOL    HW1 9155   0.606   6.423   0.361  0.9485  0.7514  0.4099
 2752SOL    HW2 9156   0.648   6.414   0.519  0.9944  1.2907  0.4297
 2753SOL     OW 9157   0.733   6.313   5.203 -0.2944 -0.2306 -0.4207
 2753SOL    HW1 9158   0.811   6.330   5.264 -1.0413 -0.8134  0.7201
 2753SOL    HW2 9159   0.738   6.376   5.125  1.7838 -0.8286 -0.8331
 2754SOL     OW 9160   6.751   6.489   2.124  0.2872 -0.0038 -0.7500
 2754SOL    HW1 9161   6.765   6.522   2.030 -0.4752 -0.3032 -0.9775
 2754SOL    HW2 9162   6.787   6.396   2.132 -0.1000 -0.1695 -0.8921
 2755SOL     OW 9163   2.625   0.446   3.968 -0.2210  0.3029  0.2592
 2755SOL    HW1 9164   2.696   0.509   3.938 -0.7395  1.4088  1.2536
 2755SOL    HW2 9165   2.653   0.352   3.950  0.7298  0.7918 -0.9260
 2756SOL     OW 9166   6.468   5.734   5.640  0.0841  0.5831  0.7282
 2756SOL    HW1 9167   6.492   5.648   5.685  0.0736  0.5545  0.6793
 2756SOL    HW2 9168   6.548   5.771   5.593 -0.2797 -0.2112 -0.5873
 2757SOL     OW 9169   4.177   2.571   6.764 -0.4031 -0.2457 -0.0697
 2757SOL    HW1 9170   4.146   2.540   6.674 -0.0767  0.3055 -0.3766
 2757SOL    HW2 9171   4.203   2.667   6.759 -0.4459 -0.1913  0.6326
 2758SOL     OW 9172   6.322   6.400   2.633  0.6436  0.0471 -0.1406
 2758SOL    HW1 9173   6.291   6.343   2.557 -0.0692 -1.0314  0.9224
 2758SOL    HW2 9174   6.422   6.404   2.633  0.6676 -0.3771 -0.8109
 2759SOL     OW 9175   3.192   6.601   4.756 -0.1624 -0.2437  0.0228
 2759SOL    HW1 9176   3.229   6.690   4.728 -0.9462 -0.4156 -1.7041
 2759SOL    HW2 9177   3.156   6.608   4.849 -1.2641  1.5829 -0.4938
 2760SOL     OW 9178   0.017   5.689   3.391 -0.4285 -0.5785 -0.0667
 2760SOL    HW1 9179   0.032   5.765   3.327 -2.4704  0.4528  0.5911
 2760SOL    HW2 9180   0.007   5.725   3.484 -1.0242 -1.6960  0.3235
 2761SOL     OW 9181   1.410   2.363   3.413 -0.1076 -0.0800  0.4156
 2761SOL    HW1 9182   1.394   2.338   3.318 -0.1072  1.1868  0.0681
 2761SOL    HW2 9183   1.506   2.385   3.427 -0.1212 -0.1822  0.6878
 2762SOL     OW 9184   3.136   0.087   6.095 -0.0963 -0.2719 -0.0591
 2762SOL    HW1 9185   3.134   0.171   6.150  0.0224 -0.6144  0.4699
 2762SOL    HW2 9186   3.046   0.074   6.052  0.1239  0.5560 -0.8089
 2763SOL     OW 9187   5.180   1.738   4.789  0.5799 -0.7527 -0.0646
 2763SOL    HW1 9188   5.241   1.784   4.725  0.4524 -0.4377  0.0388
 2763SOL    HW2 9189   5.156   1.647   4.754  1.5289 -1.0922  0.1470
 2764SOL     OW 9190   1.463   6.641   2.844 -0.3915  0.1159 -0.3525
 2764SOL    HW1 9191   1.530   6.568   2.831 -1.8142 -1.7090  1.6630
 2764SOL    HW2 9192   1.501   6.728   2.813  2.7908 -0.8546  0.4729
 2765SOL     OW 9193   6.291   6.742   6.930 -0.3551  0.2226  0.0449
 2765SOL    HW1 9194   6.375   6.708   6.973 -0.6413  0.0396  0.4663
 2765SOL    HW2 9195   6.228   6.773   7.000 -0.8889 -0.2140 -0.2334
 2766SOL     OW 9196   3.634   1.948   0.507 -0.1279 -0.1023 -0.0077
 2766SOL    HW1 9197   3.661   2.036   0.469  1.2986 -0.6302 -0.2675
 2766SOL    HW2 9198   3.565   1.906   0.449  0.5156  0.0367 -0.8950
 2767SOL     OW 9199   6.924   3.819   0.340 -0.5624 -0.8284  0.0045
 2767SOL    HW1 9200   7.022   3.811   0.324 -0.3654 -0.8071  1.1761
 2767SOL    HW2 9201   6.901   3.783   0.430 -1.5916 -0.5524 -0.1306
 2768SOL     OW 9202   2.891   1.047   6.869 -0.0726  0.1381  0.9839
 2768SOL    HW1 9203   2.926   0.963   6.830 -1.0589  0.3609 -0.4541
 2768SOL    HW2 9204   2.900   1.121   6.802 -1.1520  0.6920  1.4261
 2769SOL     OW 9205   4.402   6.083   5.089 -0.1518  0.2102 -0.2081
 2769SOL    HW1 9206   4.345   6.017   5.041  0.9973  1.3084 -3.2852
 2769SOL    HW2 9207   4.481   6.036   5.128  1.4475 -0.2137 -3.6257
 2770SOL     OW 9208   4.394   4.746   6.711  0.1134  0.3052 -0.1960
 2770SOL    HW1 9209   4.450   4.730   6.630  1.0267  0.1665  0.4457
 2770SOL    HW2 9210   4.439   4.813   6.770 -0.2167 -0.0767  0.5026
 2771SOL     OW 9211   6.755   6.002   3.849  0.1991  0.2269 -0.1892
 2771SOL    HW1 9212   6.763   5.931   3.778 -0.2974 -0.4180  0.3938
 2771SOL    HW2 9213   6.692   6.073   3.818 -1.3635 -0.9026  0.2697
 2772SOL     OW 9214   5.420   0.505   4.222  0.6523  0.4166 -0.2187
 2772SOL    HW1 9215   5.464   0.442   4.286 -0.8405 -0.6165 -0.1579
 2772SOL    HW2 9216   5.406   0.459   4.135 -1.0421  0.3977  0.0260
 2773SOL     OW 9217   1.941   2.479   4.924  0.0118 -0.6913  0.2943
 2773SOL    HW1 9218   1.999   2.497   5.004  0.0230  0.3395  0.0674
 2773SOL    HW2 9219   1.968   2.540   4.849 -1.2424 -0.3302  0.1237
 2774SOL     OW 9220   4.873   0.207   2.434 -0.2626 -0.6651 -0.4123
 2774SOL    HW1 9221   4.958   0.260   2.437 -0.1696 -0.5318 -3.0187
 2774SOL    HW2 9222   4.894   0.113   2.409 -0.7214 -1.1997  1.1187
 2775SOL     OW 9223   5.534   4.963   3.011 -0.9694 -0.1823  0.4939
 2775SOL    HW1 9224   5.522   4.890   3.077 -0.5599  0.4547  1.3003
 2775SOL    HW2 9225   5.446   5.007   2.993 -1.4220 -1.5897 -0.8730
 2776SOL     OW 9226   5.418   6.629   6.015  0.1458  0.3726  0.3000
 2776SOL    HW1 9227   5.444   6.631   5.919  0.0822 -0.5789  0.2581
 2776SOL    HW2 9228   5.405   6.535   6.045  1.4614  0.5687  1.6077
 2777SOL     OW 9229   2.463   1.528   5.210  0.4821 -0.7056  0.2725
 2777SOL    HW1 9230   2.556   1.534   5.245  0.1658 -1.1430  1.1978
 2777SOL    HW2 9231   2.402   1.494   5.281 -0.5095  0.1977 -0.1173
 2778SOL     OW 9232   1.946   6.689   6.429  0.0466 -0.0454 -0.3879
 2778SOL    HW1 9233   1.863   6.656   6.475  0.8762 -2.8543 -0.7323
 2778SOL    HW2 9234   1.946   6.658   6.334  1.1563  0.5848 -0.6128
 2779SOL     OW 9235   4.854   4.536   3.292 -0.6255 -0.3957  0.4048
 2779SOL    HW1 9236   4.794   4.559   3.369 -1.2269  0.6594 -0.3546
 2779SOL    HW2 9237   4.832   4.444   3.259 -3.9462  0.9387 -1.6805
 2780SOL     OW 9238   6.490   5.910   6.938 -0.3210  0.1917  0.2579
 2780SOL    HW1 9239   6.414   5.975   6.946  1.2010  1.8989  1.9501
 2780SOL    HW2 9240   6.454   5.817   6.944 -2.4048  0.8638 -0.5331
 2781SOL     OW 9241   0.775   2.080   3.551  0.1252 -0.6932  0.2354
 2781SOL    HW1 9242   0.729   2.057   3.466  0.9721 -1.3010 -0.0739
 2781SOL    HW2 9243   0.711   2.126   3.613 -0.4685 -0.1380 -0.7659
 2782SOL     OW 9244   4.323   0.909   4.385  0.1436  0.1305  0.5212
 2782SOL    HW1 9245   4.325   0.856   4.300  0.4753  0.8009  0.1029
 2782SOL    HW2 9246   4.232   0.947   4.398  0.1315  0.1461  0.3922
 2783SOL     OW 9247   5.593   2.181   3.697 -0.1470  0.3995  0.3486
 2783SOL    HW1 9248   5.691   2.162   3.706 -0.3058 -0.7594 -0.0877
 2783SOL    HW2 9249   5.575   2.277   3.715  1.1381  0.7270 -0.0507
 2784SOL     OW 9250   3.990   2.114   2.044 -0.0038  0.5453  0.5559
 2784SOL    HW1 9251   4.006   2.027   2.091  0.1252 -0.3578 -1.0827
 2784SOL    HW2 9252   3.892   2.126   2.031  0.0327  0.1021 -0.1703
 2785SOL     OW 9253   4.311   2.365   6.879  0.4896  0.2618 -0.1994
 2785SOL    HW1 9254   4.264   2.450   6.854  0.6582  0.1840 -0.7989
 2785SOL    HW2 9255   4.249   2.287   6.864  1.2732 -0.0034 -2.5291
 2786SOL     OW 9256   5.691   0.236   2.827 -0.2361 -0.0703  0.3477
 2786SOL    HW1 9257   5.670   0.231   2.924  0.9701  1.4009  0.7054
 2786SOL    HW2 9258   5.619   0.288   2.780  0.1004  0.7802  0.7610
 2787SOL     OW 9259   0.330   5.741   5.674  0.1301  0.2688  0.4797
 2787SOL    HW1 9260   0.370   5.659   5.633 -0.4443  0.4580 -0.4752
 2787SOL    HW2 9261   0.279   5.716   5.757 -1.0920 -0.5331 -0.4842
 2788SOL     OW 9262   2.173   6.377   5.545  0.4879 -0.1881 -0.3294
 2788SOL    HW1 9263   2.127   6.401   5.459 -1.6513  0.7062  0.9798
 2788SOL    HW2 9264   2.194   6.460   5.596 -0.7388 -0.7637  1.1953
 2789SOL     OW 9265   1.306   1.278   3.011 -0.2548 -0.3829  0.0585
 2789SOL    HW1 9266   1.398   1.305   2.981 -0.0540 -2.0832 -0.9776
 2789SOL    HW2 9267   1.275   1.340   3.083  0.8658  1.4714 -0.9693
 2790SOL     OW 9268   3.055   5.350   0.606 -0.0524  0.6327 -0.2536
 2790SOL    HW1 9269   3.054   5.267   0.662  0.5765  0.3869 -0.5902
 2790SOL    HW2 9270   2.965   5.364   0.566 -0.3105  0.4056  0.2301
 2791SOL     OW 9271   5.917   4.312   4.588 -0.3329  0.0170 -0.1955
 2791SOL    HW1 9272   5.902   4.278   4.681 -0.7818 -0.8370 -0.5668
 2791SOL    HW2 9273   5.966   4.399   4.591 -0.2815 -0.0436  0.8358
 2792SOL     OW 9274   4.963   0.122   4.384  0.3265 -0.2031  0.9048
 2792SOL    HW1 9275   5.054   0.165   4.385  1.0069 -1.6026  0.9846
 2792SOL    HW2 9276   4.933   0.105   4.478 -0.5824  1.3409  0.9350
 2793SOL     OW 9277   6.238   4.437   1.141 -0.3534 -0.1007  0.6515
 2793SOL    HW1 9278   6.206   4.395   1.056  2.0457  0.8321 -0.8318
 2793SOL    HW2 9279   6.336   4.417   1.153 -0.5985 -0.1729  3.2337
 2794SOL     OW 9280   0.420   1.829   5.885  0.4469  0.0603  0.9121
 2794SOL    HW1 9281   0.462   1.779   5.961 -1.4511 -0.1992  1.8496
 2794SOL    HW2 9282   0.369   1.765   5.827  0.9429  0.4240  0.0596
 2795SOL     OW 9283   0.275   4.909   1.966 -0.7596 -0.6358 -0.0543
 2795SOL    HW1 9284   0.243   4.820   1.999 -1.7873  0.8963  3.4892
 2795SOL    HW2 9285   0.372   4.902   1.941 -0.8655 -2.7689 -0.0872
 2796SOL     OW 9286   0.548   3.660   4.872  0.2642  0.0756 -0.7256
 2796SOL    HW1 9287   0.594   3.723   4.935 -0.6958  0.6450 -0.5580
 2796SOL    HW2 9288   0.461   3.632   4.913  0.5375 -1.1183 -0.9435
 2797SOL     OW 9289   4.917   0.264   6.886  0.1092  0.1884  0.1588
 2797SOL    HW1 9290   4.993   0.205   6.858 -1.0277 -0.2240 -2.3347
 2797SOL    HW2 9291   4.954   0.347   6.928  1.7786 -1.6156  2.5372
 2798SOL     OW 9292   6.811   5.802   3.081 -0.8207 -0.2490 -0.5469
 2798SOL    HW1 9293   6.810   5.781   2.983 -1.7425 -0.2332 -0.5505
 2798SOL    HW2 9294   6.719   5.828   3.110 -0.7633 -1.1457  0.5117
 2799SOL     OW 9295   4.824   6.910   3.901  0.1497  0.5033  0.4339
 2799SOL    HW1 9296   4.782   6.879   3.987  0.0131  1.1264  0.6003
 2799SOL    HW2 9297   4.867   6.999   3.916  1.7404 -0.2164  0.3320
 2800SOL     OW 9298   5.812   3.435   5.750 -0.1469  0.1883 -0.6703
 2800SOL    HW1 9299   5.844   3.364   5.687  0.1353 -0.8836  0.6260
 2800SOL    HW2 9300   5.722   3.466   5.723  0.0723 -0.0763 -1.7339
 2801SOL     OW 9301   2.239   6.647   6.755 -0.0451 -0.2777 -0.0473
 2801SOL    HW1 9302   2.221   6.655   6.853  1.3347  0.1489  0.1901
 2801SOL    HW2 9303   2.208   6.730   6.709  1.7528  0.7200  0.4439
 2802SOL     OW 9304   6.967   6.046   5.847 -0.4916 -0.2315  0.0509
 2802SOL    HW1 9305   6.999   6.140   5.856 -0.2132 -0.2359 -0.7902
 2802SOL    HW2 9306   6.885   6.033   5.902 -0.6738  0.5698 -0.0233
 2803SOL     OW 9307   3.298   3.020   4.598 -0.0148  0.2780  0.1695
 2803SOL    HW1 9308   3.261   2.933   4.629 -0.3906  0.4881  0.3195
 2803SOL    HW2 9309   3.336   3.070   4.676  0.9387 -0.0985 -0.0391
 2804SOL     OW 9310   0.782   4.030   1.314 -0.4494  0.0021 -0.2850
 2804SOL    HW1 9311   0.850   4.101   1.328 -0.3580 -0.0362 -0.5270
 2804SOL    HW2 9312   0.777   3.972   1.396 -1.3524  0.9744  0.3583
 2805SOL     OW 9313   5.099   2.908   3.014 -0.0736 -0.1396 -0.2243
 2805SOL    HW1 9314   5.176   2.896   2.952  0.4278  0.5958  0.2469
 2805SOL    HW2 9315   5.081   2.822   3.062 -0.9758 -0.9641 -1.9284
 2806SOL     OW 9316   6.367   5.240   6.490  0.6190  0.0270 -0.3400
 2806SOL    HW1 9317   6.439   5.289   6.441  0.3814 -1.2581 -2.0932
 2806SOL    HW2 9318   6.298   5.304   6.523  0.2633  0.9038 -2.6391
 2807SOL     OW 9319   6.036   6.252   2.579  0.1749  0.1195 -0.0935
 2807SOL    HW1 9320   6.018   6.322   2.648 -0.1932 -1.0123  0.9956
 2807SOL    HW2 9321   5.990   6.167   2.605 -0.7761 -0.0884 -2.2222
 2808SOL     OW 9322   5.720   6.428   0.957 -0.0182 -0.1339 -0.2542
 2808SOL    HW1 9323   5.695   6.374   0.877 -1.1778  0.8201 -0.5585
 2808SOL    HW2 9324   5.638   6.450   1.010  0.1397  2.6163 -0.9869
 2809SOL     OW 9325   6.661   3.527   0.538  0.3518 -0.3235 -0.1018
 2809SOL    HW1 9326   6.711   3.611   0.516  0.2848  0.0923  1.1935
 2809SOL    HW2 9327   6.686   3.498   0.631 -0.6389 -0.9855 -0.0327
 2810SOL     OW 9328   1.038   4.803   2.845  0.2363 -0.2569 -0.7323
 2810SOL    HW1 9329   1.002   4.851   2.925  0.4639  0.2525 -0.9298
 2810SOL    HW2 9330   1.060   4.708   2.869  2.2175  0.4228  0.3612
 2811SOL     OW 9331   6.928   0.025   1.420  0.5249 -0.0533  0.1425
 2811SOL    HW1 9332   6.862   0.059   1.353 -1.1182 -1.1736  1.1407
 2811SOL    HW2 9333   6.905   0.061   1.510  0.8586 -1.0052  0.6204
 2812SOL     OW 9334   4.491   2.260   0.237  0.7475 -0.6264  0.0096
 2812SOL    HW1 9335   4.527   2.217   0.320  2.1939 -0.7482 -0.6640
 2812SOL    HW2 9336   4.562   2.317   0.196 -1.1023  2.6635  0.9862
 2813SOL     OW 9337   0.176   1.520   1.898 -0.1796 -0.3244  0.8364
 2813SOL    HW1 9338   0.164   1.461   1.818  1.5458  0.8223 -0.3583
 2813SOL    HW2 9339   0.200   1.613   1.867  2.9929 -0.4084  2.6348
 2814SOL     OW 9340   3.832   4.891   5.563 -0.7537  0.4386 -0.2461
 2814SOL    HW1 9341   3.752   4.854   5.516 -0.1773 -0.0952 -0.8426
 2814SOL    HW2 9342   3.902   4.916   5.495  0.3599 -0.9647  0.3230
 2815SOL     OW 9343   1.025   6.471   5.028 -0.3565  0.2054 -0.0586
 2815SOL    HW1 9344   0.932   6.444   5.003 -0.4433  0.1083  0.3605
 2815SOL    HW2 9345   1.067   6.519   4.951 -1.0090  0.8964  0.0069
 2816SOL     OW 9346   6.927   3.911   5.998  0.0278  0.3767  0.1970
 2816SOL    HW1 9347   6.964   3.944   6.084  0.9388 -1.4526  0.5674
 2816SOL    HW2 9348   6.828   3.909   6.002  0.0336  1.1228  0.8618
 2817SOL     OW 9349   3.952   1.252   1.809 -0.6614 -0.5377 -0.8580
 2817SOL    HW1 9350   3.886   1.177   1.818 -1.3081 -0.0389 -1.3310
 2817SOL    HW2 9351   4.021   1.229   1.741 -0.5753 -0.9066 -0.6438
 2818SOL     OW 9352   6.316   1.368   1.032 -0.0944  0.1890 -0.2700
 2818SOL    HW1 9353   6.382   1.296   1.052  0.1492  0.4018 -0.3125
 2818SOL    HW2 9354   6.267   1.393   1.117 -0.5249 -0.3677 -0.3506
 2819SOL     OW 9355   1.315   0.691   0.203 -0.0252  1.1588  0.0464
 2819SOL    HW1 9356   1.319   0.591   0.206  0.8298  1.1464 -1.0061
 2819SOL    HW2 9357   1.225   0.722   0.232 -0.0057  0.1336  1.3232
 2820SOL     OW 9358   0.493   1.946   0.917 -0.4212 -0.0181 -0.0206
 2820SOL    HW1 9359   0.469   1.997   0.834 -1.4549 -0.6911 -0.1463
 2820SOL    HW2 9360   0.506   2.010   0.993 -0.8672  0.4901 -0.3659
 2821SOL     OW 9361   2.508   5.511   1.012  0.1175  0.3302 -0.6635
 2821SOL    HW1 9362   2.565   5.586   1.047 -1.2453  0.0559  2.5093
 2821SOL    HW2 9363   2.414   5.543   1.002 -0.3556 -0.7816  0.1293
 2822SOL     OW 9364   4.391   1.516   5.718 -1.1666 -0.2583 -0.4374
 2822SOL    HW1 9365   4.419   1.611   5.727 -2.8461  0.1595  1.0235
 2822SOL    HW2 9366   4.361   1.498   5.624 -0.6541  0.5940 -0.7677
 2823SOL     OW 9367   6.179   0.652   0.106  0.4510 -0.4588 -0.4160
 2823SOL    HW1 9368   6.123   0.678   0.027  0.1465 -1.7931 -0.6611
 2823SOL    HW2 9369   6.200   0.555   0.102  1.2027 -0.3664  0.6826
 2824SOL     OW 9370   1.060   3.864   2.830  0.2593  0.1690 -0.1441
 2824SOL    HW1 9371   1.123   3.915   2.772  0.7769  0.1876  0.4199
 2824SOL    HW2 9372   0.966   3.881   2.801  0.5492 -1.4356 -2.3112
 2825SOL     OW 9373   6.468   1.110   6.295 -0.1890 -0.0885 -0.3335
 2825SOL    HW1 9374   6.551   1.098   6.241 -0.2561 -0.8053 -0.2788
 2825SOL    HW2 9375   6.388   1.086   6.240 -0.3975  0.9380 -0.5020
 2826SOL     OW 9376   0.324   3.945   6.805 -0.3573  0.3094 -0.4905
 2826SOL    HW1 9377   0.279   3.859   6.825  0.0148  0.0151 -0.8876
 2826SOL    HW2 9378   0.373   3.977   6.886 -0.3149  0.0307 -0.4039
 2827SOL     OW 9379   6.205   2.357   6.189  0.0899  0.2844 -0.8254
 2827SOL    HW1 9380   6.188   2.270   6.235 -1.3842  2.5318  3.3015
 2827SOL    HW2 9381   6.303   2.378   6.194  0.3320 -0.6678 -1.1347
 2828SOL     OW 9382   0.618   4.656   3.579  0.1695  0.7559 -0.5573
 2828SOL    HW1 9383   0.642   4.567   3.618 -0.1414  0.3582 -1.2496
 2828SOL    HW2 9384   0.701   4.712   3.571  0.6560 -0.0576 -1.5479
 2829SOL     OW 9385   3.782   3.572   5.735 -0.0886  0.0823 -0.4107
 2829SOL    HW1 9386   3.800   3.617   5.823 -2.6487  1.4953 -0.5159
 2829SOL    HW2 9387   3.812   3.477   5.740  2.3685  0.8366  1.0075
 2830SOL     OW 9388   3.318   3.121   5.124 -0.0415  0.1145  0.1203
 2830SOL    HW1 9389   3.326   3.023   5.138  1.3091  0.3437  1.2145
 2830SOL    HW2 9390   3.410   3.161   5.115 -0.5203  1.3599  0.5282
 2831SOL     OW 9391   0.319   1.358   2.364 -0.0152 -0.1088 -0.1328
 2831SOL    HW1 9392   0.401   1.386   2.314  1.0116 -2.0068  0.4075
 2831SOL    HW2 9393   0.303   1.260   2.351 -0.5301 -0.3788  2.0454
 2832SOL     OW 9394   1.659   4.206   3.216 -0.0507 -0.1327  0.1270
 2832SOL    HW1 9395   1.714   4.260   3.153 -0.8438  0.2488 -0.2482
 2832SOL    HW2 9396   1.591   4.153   3.165 -0.1727 -0.4415  0.5981
 2833SOL     OW 9397   0.896   0.793   2.491 -0.5103 -0.1596 -0.0792
 2833SOL    HW1 9398   0.849   0.713   2.528 -1.1377  0.0181 -0.4738
 2833SOL    HW2 9399   0.907   0.862   2.563 -0.9672 -0.1548 -0.0149
 2834SOL     OW 9400   5.232   0.658   6.424  0.1051  0.1454 -0.2637
 2834SOL    HW1 9401   5.319   0.708   6.422  1.2088 -1.7115 -0.6307
 2834SOL    HW2 9402   5.246   0.568   6.465 -1.3808 -0.6704 -1.4351
 2835SOL     OW 9403   0.102   6.608   1.673  0.2470 -0.4201 -0.1388
 2835SOL    HW1 9404   0.006   6.631   1.658  0.3470  0.7674  0.8551
 2835SOL    HW2 9405   0.158   6.645   1.598  0.2629  1.7413  0.8505
 2836SOL     OW 9406   2.344   5.295   1.635 -0.1082  0.5286 -0.5416
 2836SOL    HW1 9407   2.288   5.331   1.709 -0.6492  1.6247 -1.4516
 2836SOL    HW2 9408   2.378   5.370   1.579  1.2578 -0.2053 -0.7418
 2837SOL     OW 9409   4.376   5.099   2.565 -0.5743  0.2235  0.1385
 2837SOL    HW1 9410   4.428   5.023   2.604 -0.3723 -0.4622 -1.3943
 2837SOL    HW2 9411   4.291   5.065   2.525 -0.1087  0.6525 -1.2823
 2838SOL     OW 9412   6.377   3.229   6.599 -0.2791 -0.5651 -0.4054
 2838SOL    HW1 9413   6.428   3.228   6.685 -0.6585 -0.0987 -0.1706
 2838SOL    HW2 9414   6.379   3.137   6.558  1.2705 -0.4241 -0.7221
 2839SOL     OW 9415   6.889   0.870   3.211 -0.4543 -0.5658  0.0164
 2839SOL    HW1 9416   6.947   0.791   3.228 -1.6003 -1.5708 -0.5707
 2839SOL    HW2 9417   6.805   0.863   3.265 -0.6736  0.1311 -0.2140
 2840SOL     OW 9418   6.781   4.867   1.283  0.3610  0.5205 -0.2738
 2840SOL    HW1 9419   6.803   4.898   1.376  0.6157  2.1662 -0.8435
 2840SOL    HW2 9420   6.761   4.946   1.226 -1.0946 -0.5623 -1.3160
 2841SOL     OW 9421   5.630   3.066   0.201  0.1874 -0.0464  0.0388
 2841SOL    HW1 9422   5.551   3.043   0.257  0.0547 -1.2515 -0.6169
 2841SOL    HW2 9423   5.600   3.093   0.109  0.5354 -0.6159 -0.2461
 2842SOL     OW 9424   1.672   5.420   4.616  0.5468 -0.1092 -0.1903
 2842SOL    HW1 9425   1.585   5.398   4.572  0.3718  1.8595 -0.9330
 2842SOL    HW2 9426   1.657   5.429   4.715  0.1829 -1.0011 -0.1552
 2843SOL     OW 9427   1.484   2.168   3.615 -0.4273  0.1290  0.6381
 2843SOL    HW1 9428   1.459   2.260   3.585 -0.5581  0.1463  0.8011
 2843SOL    HW2 9429   1.577   2.148   3.583 -1.0209 -0.3385 -0.8599
 2844SOL     OW 9430   6.321   4.045   2.258  0.2441  0.1439  0.3939
 2844SOL    HW1 9431   6.308   4.094   2.344 -0.1504  1.3839 -0.3499
 2844SOL    HW2 9432   6.357   4.107   2.188 -0.1830 -0.6340 -0.5536
 2845SOL     OW 9433   4.794   2.763   3.937 -0.1335  0.1617 -0.1838
 2845SOL    HW1 9434   4.749   2.769   4.026 -0.7417 -1.8534 -0.2895
 2845SOL    HW2 9435   4.803   2.854   3.897  0.2837  1.1173  1.9842
 2846SOL     OW 9436   3.963   6.457   6.164 -0.3690  0.4401 -0.2683
 2846SOL    HW1 9437   4.046   6.411   6.133 -1.6633 -2.1987 -0.0325
 2846SOL    HW2 9438   3.980   6.502   6.252  0.2984 -1.9315  0.8883
 2847SOL     OW 9439   4.904   3.993   2.145 -0.2294  0.1448  0.8461
 2847SOL    HW1 9440   4.880   4.073   2.091  1.8184 -0.8315 -1.7672
 2847SOL    HW2 9441   4.894   3.911   2.089  0.1630 -1.1805  2.6110
 2848SOL     OW 9442   2.342   2.351   4.782 -0.8460  0.1456 -1.2009
 2848SOL    HW1 9443   2.398   2.399   4.850 -1.4058 -2.9963  1.7741
 2848SOL    HW2 9444   2.402   2.304   4.717 -0.1113 -0.3824 -0.1612
 2849SOL     OW 9445   1.642   0.457   1.887  0.1892 -0.1564  0.0748
 2849SOL    HW1 9446   1.588   0.485   1.967  2.3380  0.4135  1.3986
 2849SOL    HW2 9447   1.692   0.535   1.851  1.1841 -0.9221 -0.2611
 2850SOL     OW 9448   1.992   5.719   3.198  0.6577  0.6917 -0.4255
 2850SOL    HW1 9449   2.038   5.772   3.127 -0.5082  0.4904 -1.3599
 2850SOL    HW2 9450   1.938   5.780   3.256  0.9625  0.7586 -0.2091
 2851SOL     OW 9451   4.274   3.488   0.870  0.1845  0.3078  0.6757
 2851SOL    HW1 9452   4.313   3.403   0.834  0.0618 -0.2588  1.8480
 2851SOL    HW2 9453   4.291   3.495   0.968 -0.5489  1.2311  0.7586
 2852SOL     OW 9454   6.788   4.920   0.171  0.1245 -0.2643 -0.0994
 2852SOL    HW1 9455   6.710   4.962   0.217 -2.6935 -2.1125 -2.7765
 2852SOL    HW2 9456   6.825   4.847   0.229 -0.6889  0.0538  0.8605
 2853SOL     OW 9457   5.823   3.864   6.099  0.1669 -0.3333 -0.0527
 2853SOL    HW1 9458   5.784   3.784   6.145 -0.1223 -0.0188  0.2602
 2853SOL    HW2 9459   5.754   3.937   6.095  0.3439 -0.1916 -0.5692
 2854SOL     OW 9460   1.480   1.254   1.089 -0.0082 -0.1752 -0.1632
 2854SOL    HW1 9461   1.414   1.276   1.162  0.0726 -2.3651  0.6342
 2854SOL    HW2 9462   1.571   1.284   1.117 -0.3604  1.4707 -0.6124
 2855SOL     OW 9463   1.257   1.909   2.950  0.1803  0.4275 -0.0740
 2855SOL    HW1 9464   1.190   1.882   3.019  1.4471 -0.1561  0.9770
 2855SOL    HW2 9465   1.306   1.990   2.982  0.3049  0.5632 -0.6124
 2856SOL     OW 9466   0.962   0.093   3.255  0.3163 -0.6880  0.3909
 2856SOL    HW1 9467   0.947   0.005   3.211  1.7438 -0.0394 -1.5471
 2856SOL    HW2 9468   0.998   0.080   3.347 -0.9842 -2.0981  0.7278
 2857SOL     OW 9469   0.140   3.699   0.576  0.0532  0.1184 -0.3532
 2857SOL    HW1 9470   0.159   3.761   0.500  0.2004  2.1098  1.2217
 2857SOL    HW2 9471   0.224   3.681   0.628 -0.1877 -0.5847 -0.1843
 2858SOL     OW 9472   4.904   5.388   4.674  0.1154 -0.3144 -0.1039
 2858SOL    HW1 9473   4.954   5.374   4.759  0.8759  0.5548 -0.3955
 2858SOL    HW2 9474   4.835   5.459   4.686  1.6335  1.3604 -0.7228
 2859SOL     OW 9475   6.193   4.980   0.793 -0.1726 -0.0313  0.1685
 2859SOL    HW1 9476   6.269   4.927   0.755 -1.6679 -1.4524 -0.9737
 2859SOL    HW2 9477   6.161   5.046   0.725 -0.5817 -0.1005  0.2941
 2860SOL     OW 9478   2.333   5.810   2.897  0.2929  0.6237 -0.1698
 2860SOL    HW1 9479   2.425   5.846   2.913  0.1969  0.7739  0.0524
 2860SOL    HW2 9480   2.266   5.864   2.948  0.1182  0.2928 -0.0404
 2861SOL     OW 9481   3.310   3.718   5.326 -0.3684 -0.1228 -0.0564
 2861SOL    HW1 9482   3.326   3.749   5.232  1.6816  1.2462  0.6825
 2861SOL    HW2 9483   3.348   3.626   5.337 -0.2338 -0.1192 -0.4466
 2862SOL     OW 9484   4.360   2.970   1.596  0.0942 -0.0772 -0.7870
 2862SOL    HW1 9485   4.268   2.954   1.559  0.0791 -0.3756 -0.6256
 2862SOL    HW2 9486   4.367   2.928   1.687 -0.0662  1.1700 -0.1812
 2863SOL     OW 9487   5.576   2.151   6.965 -0.3165 -0.0824  0.0714
 2863SOL    HW1 9488   5.489   2.109   6.993 -0.1708 -0.6222 -0.2632
 2863SOL    HW2 9489   5.606   2.215   7.035 -0.2370 -0.9904  0.8955
 2864SOL     OW 9490   2.013   3.279   0.942 -0.6889 -0.0153 -0.6252
 2864SOL    HW1 9491   2.074   3.249   0.869  0.1075 -0.4942  0.2133
 2864SOL    HW2 9492   2.009   3.379   0.943  1.6909  0.1442  0.5227
 2865SOL     OW 9493   5.107   2.081   5.207 -0.0283 -0.2878 -0.1515
 2865SOL    HW1 9494   5.050   2.098   5.127 -1.2676 -2.1079  0.2978
 2865SOL    HW2 9495   5.199   2.056   5.178  0.0082  0.6776 -0.9312
 2866SOL     OW 9496   7.002   4.799   2.222  0.1681 -0.2934 -0.2519
 2866SOL    HW1 9497   6.990   4.898   2.216  0.1612 -0.3217 -0.7442
 2866SOL    HW2 9498   7.097   4.778   2.248  0.0988 -0.1505  0.1093
 2867SOL     OW 9499   6.821   6.521   1.865  0.0783 -0.3334 -0.2073
 2867SOL    HW1 9500   6.906   6.498   1.912 -0.0347  0.9412  0.6848
 2867SOL    HW2 9501   6.760   6.442   1.866  0.2147 -0.4586  1.5242
 2868SOL     OW 9502   2.206   0.224   4.244 -0.2391  0.2597  0.2071
 2868SOL    HW1 9503   2.165   0.305   4.202  0.3867  0.9757  0.9302
 2868SOL    HW2 9504   2.140   0.181   4.305 -0.3805  0.5753  0.2795
 2869SOL     OW 9505   5.785   6.022   5.872 -0.2941  0.1557 -0.5169
 2869SOL    HW1 9506   5.864   5.992   5.819 -0.8643  0.2802 -1.4523
 2869SOL    HW2 9507   5.746   6.104   5.829  0.8407  1.9232  1.5886
 2870SOL     OW 9508   0.081   1.581   0.754 -0.2140  0.4285  0.3268
 2870SOL    HW1 9509   0.032   1.608   0.671  0.7074 -0.5398 -0.5602
 2870SOL    HW2 9510   0.058   1.487   0.778  0.4768  0.2781  0.4315
 2871SOL     OW 9511   0.639   0.902   6.957 -0.3603 -0.1843 -0.2269
 2871SOL    HW1 9512   0.707   0.849   6.907 -0.5911  1.0882 -1.9903
 2871SOL    HW2 9513   0.685   0.964   7.020  0.1805  0.8244 -1.5664
 2872SOL     OW 9514   3.769   0.398   1.611 -0.1849  0.2565 -0.4042
 2872SOL    HW1 9515   3.689   0.400   1.670 -1.2315 -0.8969 -1.7044
 2872SOL    HW2 9516   3.814   0.488   1.612 -0.2958  0.3275  1.9008
 2873SOL     OW 9517   7.000   5.636   1.142 -0.1404  1.0492 -0.3791
 2873SOL    HW1 9518   6.983   5.718   1.088 -0.3339  1.2102 -0.0720
 2873SOL    HW2 9519   6.942   5.637   1.223 -0.4324  0.4237 -0.5710
 2874SOL     OW 9520   4.038   0.621   1.552 -0.3931 -0.2526  0.1496
 2874SOL    HW1 9521   4.101   0.550   1.584 -1.1906 -0.8163  0.4821
 2874SOL    HW2 9522   4.064   0.648   1.459 -0.8881 -1.9450 -0.5201
 2875SOL     OW 9523   5.446   6.966   3.640 -0.1041  0.0737  0.3266
 2875SOL    HW1 9524   5.388   6.898   3.596 -1.0038 -0.8945  2.7904
 2875SOL    HW2 9525   5.526   6.921   3.680 -0.8650  0.3423  2.2487
 2876SOL     OW 9526   0.698   5.587   1.523  0.4180  0.0858 -0.1383
 2876SOL    HW1 9527   0.623   5.521   1.529  0.7044 -0.5561 -2.5704
 2876SOL    HW2 9528   0.782   5.539   1.499  1.4876  0.8990  1.8221
 2877SOL     OW 9529   1.024   1.543   0.605  0.0215 -0.5715 -0.1306
 2877SOL    HW1 9530   1.071   1.560   0.519 -1.9186  0.1840 -1.1019
 2877SOL    HW2 9531   1.086   1.563   0.682  0.5150  3.0597 -1.2729
 2878SOL     OW 9532   3.199   3.455   2.578 -0.1550 -0.5307 -0.0322
 2878SOL    HW1 9533   3.283   3.485   2.533 -0.7965  0.0135 -0.8904
 2878SOL    HW2 9534   3.120   3.498   2.535 -1.0200 -2.4204 -0.4460
 2879SOL     OW 9535   5.102   5.654   1.288 -0.1172  0.7393  0.2026
 2879SOL    HW1 9536   5.103   5.562   1.249 -0.6567  0.6728  0.3472
 2879SOL    HW2 9537   5.090   5.721   1.214 -0.5915  0.6434  0.1900
 2880SOL     OW 9538   6.684   0.567   3.884  0.5197  0.1439  0.5420
 2880SOL    HW1 9539   6.703   0.610   3.972  1.1301 -0.6702  0.8194
 2880SOL    HW2 9540   6.732   0.616   3.812  2.3654 -0.8727  1.0276
 2881SOL     OW 9541   3.303   6.686   0.141  0.1872  0.1031 -0.0567
 2881SOL    HW1 9542   3.219   6.734   0.116  0.4574 -0.7849 -3.0779
 2881SOL    HW2 9543   3.280   6.601   0.188 -0.5753  0.2481 -0.1558
 2882SOL     OW 9544   5.995   5.708   1.049 -0.6723 -0.1539 -0.5363
 2882SOL    HW1 9545   6.008   5.807   1.048 -1.2184 -0.0738  0.0171
 2882SOL    HW2 9546   6.034   5.670   1.132  0.1304 -0.4937 -1.0577
 2883SOL     OW 9547   6.637   6.307   3.191  0.4615 -0.0009 -0.9216
 2883SOL    HW1 9548   6.714   6.348   3.142 -0.5237  1.8058 -1.0704
 2883SOL    HW2 9549   6.590   6.378   3.245 -1.7119 -0.7902 -1.6523
 2884SOL     OW 9550   0.246   2.924   1.685 -0.9958 -0.3613  0.2100
 2884SOL    HW1 9551   0.252   2.886   1.592  2.1824 -0.3339  0.3010
 2884SOL    HW2 9552   0.272   3.020   1.684  0.2631 -0.6592  1.2513
 2885SOL     OW 9553   2.640   0.135   2.252 -0.3666  0.8580 -0.2377
 2885SOL    HW1 9554   2.597   0.207   2.197 -0.0042 -1.1340 -3.3907
 2885SOL    HW2 9555   2.569   0.076   2.291 -0.6372  0.0535 -1.8718
 2886SOL     OW 9556   2.973   2.425   7.008  0.3796 -0.7540  0.5663
 2886SOL    HW1 9557   2.902   2.360   7.038  0.2004  0.0881  2.0237
 2886SOL    HW2 9558   3.063   2.387   7.029  0.2733 -0.5287  1.4971
 2887SOL     OW 9559   6.438   5.417   3.539  0.7871  0.1406 -0.1096
 2887SOL    HW1 9560   6.499   5.440   3.463  1.2555  1.6072  0.6852
 2887SOL    HW2 9561   6.353   5.469   3.531 -0.2508 -1.5722 -0.9698
 2888SOL     OW 9562   5.865   0.350   0.698  0.0467  0.4799  0.0507
 2888SOL    HW1 9563   5.937   0.391   0.643 -0.6993  0.2416 -1.1214
 2888SOL    HW2 9564   5.804   0.422   0.732 -0.1560  0.5208 -0.3982
 2889SOL     OW 9565   1.260   0.044   2.724  0.4786 -0.2130  0.2607
 2889SOL    HW1 9566   1.194   0.012   2.655 -0.2897  0.4465  0.6759
 2889SOL    HW2 9567   1.291   0.136   2.701 -0.1140  0.1862  1.0174
 2890SOL     OW 9568   2.509   5.035   2.661  0.0615 -0.1562  0.2752
 2890SOL    HW1 9569   2.584   5.071   2.605 -1.0595  1.0779 -0.5131
 2890SOL    HW2 9570   2.424   5.081   2.635 -1.1133 -2.0323  0.6359
 2891SOL     OW 9571   1.647   3.203   3.284  0.6198  0.0130  0.6453
 2891SOL    HW1 9572   1.726   3.145   3.300  1.1679  1.0285  1.7849
 2891SOL    HW2 9573   1.583   3.194   3.361 -0.0115 -0.2174  0.1025
 2892SOL     OW 9574   0.151   2.790   0.371 -0.2427 -0.0991 -0.2145
 2892SOL    HW1 9575   0.199   2.869   0.333  0.4640 -0.2700  0.3082
 2892SOL    HW2 9576   0.084   2.757   0.305 -2.2854  2.3919  0.4236
 2893SOL     OW 9577   1.860   6.996   3.639 -0.1018  0.9530 -0.7479
 2893SOL    HW1 9578   1.909   7.056   3.701 -0.8400 -1.9907  3.0392
 2893SOL    HW2 9579   1.925   6.945   3.583  0.7826  1.5037 -0.2385
 2894SOL     OW 9580   2.266   4.788   0.644 -0.2717  0.0361  0.2685
 2894SOL    HW1 9581   2.323   4.754   0.718 -1.3558 -1.0278  0.6444
 2894SOL    HW2 9582   2.259   4.719   0.572  1.0637  1.1872 -1.0467
 2895SOL     OW 9583   3.832   1.523   5.528  0.1314 -0.5260  0.7513
 2895SOL    HW1 9584   3.742   1.564   5.543  0.0881 -0.3048 -0.0998
 2895SOL    HW2 9585   3.822   1.425   5.513  0.0601 -0.5436  0.9068
 2896SOL     OW 9586   5.881   6.712   6.644 -0.0484 -0.1172  0.3250
 2896SOL    HW1 9587   5.874   6.620   6.605 -0.1444 -1.2472  2.7796
 2896SOL    HW2 9588   5.976   6.742   6.639 -0.4305  0.9606 -3.0272
 2897SOL     OW 9589   5.521   4.528   2.513  0.0728 -0.0232 -0.2616
 2897SOL    HW1 9590   5.595   4.494   2.454  0.0929  0.5900 -0.5965
 2897SOL    HW2 9591   5.540   4.504   2.608  0.9162  0.4792 -0.2946
 2898SOL     OW 9592   5.290   4.735   3.059 -0.0154 -0.1044 -0.2120
 2898SOL    HW1 9593   5.304   4.756   2.963  0.9977 -1.5280 -0.4210
 2898SOL    HW2 9594   5.348   4.794   3.115 -0.2258  0.3781 -0.4955
 2899SOL     OW 9595   6.785   3.449   1.824 -0.1797 -0.3641  0.7120
 2899SOL    HW1 9596   6.859   3.396   1.866 -0.7453 -1.6288  0.1631
 2899SOL    HW2 9597   6.763   3.410   1.735  0.5543  1.8824 -0.5191
 2900SOL     OW 9598   3.769   5.677   6.953  0.2933  0.4890  0.4609
 2900SOL    HW1 9599   3.792   5.607   7.021 -0.3130  0.7638  0.9601
 2900SOL    HW2 9600   3.670   5.685   6.945  0.3549  1.0773  0.1948
 2901SOL     OW 9601   6.383   4.350   3.627  0.5308 -0.4557  0.1432
 2901SOL    HW1 9602   6.288   4.379   3.617  0.2150 -1.2697  0.7087
 2901SOL    HW2 9603   6.391   4.284   3.702  1.4354 -0.8775 -0.2973
 2902SOL     OW 9604   0.976   6.448   3.015 -0.1840 -0.0038 -0.7923
 2902SOL    HW1 9605   0.924   6.377   3.062 -0.2436  0.1134 -0.6774
 2902SOL    HW2 9606   0.963   6.441   2.917  2.8621 -2.6140 -1.1713
 2903SOL     OW 9607   4.002   0.717   2.812 -0.3886  0.3236 -0.3202
 2903SOL    HW1 9608   3.910   0.725   2.849  0.2469 -0.9948  1.7154
 2903SOL    HW2 9609   3.998   0.680   2.720 -1.9322  1.5539 -0.7930
 2904SOL     OW 9610   2.200   4.001   3.880 -0.0221  0.5037  0.5170
 2904SOL    HW1 9611   2.207   4.100   3.878 -0.1577  0.5235  0.9386
 2904SOL    HW2 9612   2.204   3.969   3.975 -1.6948  0.2373  0.5209
 2905SOL     OW 9613   1.902   4.900   3.640  0.0952 -0.2997  0.4674
 2905SOL    HW1 9614   1.979   4.902   3.704  0.2080 -0.5855  0.3394
 2905SOL    HW2 9615   1.821   4.867   3.688  0.2055 -0.6197  0.4339
 2906SOL     OW 9616   5.294   1.307   1.652  0.1499  0.2117  0.0454
 2906SOL    HW1 9617   5.216   1.247   1.669 -0.7858  1.6843  1.1607
 2906SOL    HW2 9618   5.306   1.320   1.553 -0.7478 -0.3702 -0.1455
 2907SOL     OW 9619   0.528   2.028   3.930 -0.8118  0.1368  0.4912
 2907SOL    HW1 9620   0.608   2.069   3.973  0.3494 -1.3736 -0.1307
 2907SOL    HW2 9621   0.483   2.095   3.872  0.8336  0.6471 -0.2546
 2908SOL     OW 9622   4.580   6.596   3.690  0.2044 -0.3504  0.5488
 2908SOL    HW1 9623   4.513   6.590   3.616 -1.0730  1.3780  1.5029
 2908SOL    HW2 9624   4.541   6.560   3.774  0.4759  0.6182  1.1048
 2909SOL     OW 9625   0.713   5.717   4.331  0.1931 -0.0896 -0.0059
 2909SOL    HW1 9626   0.765   5.686   4.251 -0.3599  1.1076 -0.8672
 2909SOL    HW2 9627   0.638   5.775   4.300 -0.9771 -0.8751  1.2976
 2910SOL     OW 9628   0.386   0.886   4.263 -0.1270  0.6018 -0.3790
 2910SOL    HW1 9629   0.460   0.846   4.316 -1.5228 -3.5527 -1.1913
 2910SOL    HW2 9630   0.422   0.930   4.181  1.5472  0.9666  0.5230
 2911SOL     OW 9631   1.037   4.497   3.136  0.0881  0.3120  0.1760
 2911SOL    HW1 9632   0.943   4.464   3.129  0.1399 -0.0419  1.0514
 2911SOL    HW2 9633   1.089   4.438   3.198  0.6550  1.0145  0.3828
 2912SOL     OW 9634   0.808   5.197   2.062  0.0252 -0.2554 -0.6794
 2912SOL    HW1 9635   0.800   5.246   2.149  1.6856  0.5134 -0.9268
 2912SOL    HW2 9636   0.725   5.212   2.008 -0.7947 -0.2929  0.5282
 2913SOL     OW 9637   1.971   3.509   1.867 -0.1887 -0.7976 -0.2834
 2913SOL    HW1 9638   1.891   3.474   1.915  0.3733 -0.0766  1.2477
 2913SOL    HW2 9639   2.050   3.508   1.928  0.1706  1.7936 -0.5781
 2914SOL     OW 9640   4.187   5.480   2.629  0.1485 -0.5711  0.3117
 2914SOL    HW1 9641   4.273   5.481   2.578 -1.1567 -0.2984 -2.0230
 2914SOL    HW2 9642   4.143   5.391   2.619 -0.7443 -0.0898 -0.1240
 2915SOL     OW 9643   3.542   2.042   3.830 -0.1328 -0.1898 -0.0075
 2915SOL    HW1 9644   3.636   2.020   3.855 -0.4719 -0.5779  0.9684
 2915SOL    HW2 9645   3.538   2.065   3.733  1.2576  1.5464  0.2826
 2916SOL     OW 9646   2.256   5.997   0.517  0.2016  0.4716  0.3999
 2916SOL    HW1 9647   2.229   5.987   0.422 -2.2384 -0.1114  1.0888
 2916SOL    HW2 9648   2.312   5.918   0.544  0.3838  0.3276 -0.3800
 2917SOL     OW 9649   3.347   0.627   3.865  0.2165 -0.2525 -0.5544
 2917SOL    HW1 9650   3.359   0.541   3.914 -0.7527 -0.5682 -0.8471
 2917SOL    HW2 9651   3.296   0.691   3.922 -1.1029 -0.6947 -1.2008
 2918SOL     OW 9652   6.523   3.109   5.934 -0.0772 -0.0891 -0.1474
 2918SOL    HW1 9653   6.515   3.102   6.033 -0.0520 -0.1827 -0.1514
 2918SOL    HW2 9654   6.610   3.070   5.905 -0.2507 -0.4153 -0.2426
 2919SOL     OW 9655   5.926   6.289   3.266  0.1633  0.3602  0.1483
 2919SOL    HW1 9656   5.853   6.305   3.332  0.4263  2.0170  0.0918
 2919SOL    HW2 9657   5.993   6.226   3.305 -1.6210 -1.8332 -0.1049
 2920SOL     OW 9658   3.976   6.470   3.173  0.2333  0.4096 -0.0700
 2920SOL    HW1 9659   4.049   6.487   3.238 -0.9875  1.2009  1.1662
 2920SOL    HW2 9660   3.961   6.372   3.163  1.7654  0.2225 -0.7398
 2921SOL     OW 9661   0.442   6.581   6.476  0.6446 -0.6346 -0.4532
 2921SOL    HW1 9662   0.393   6.533   6.403 -1.1046 -0.0335  0.2667
 2921SOL    HW2 9663   0.452   6.520   6.555 -0.6172 -0.2169  0.0629
 2922SOL     OW 9664   4.267   0.075   2.698 -0.1250 -0.0214 -1.0167
 2922SOL    HW1 9665   4.276  -0.002   2.762 -2.6288 -0.5621 -1.2113
 2922SOL    HW2 9666   4.298   0.159   2.743 -0.4690 -0.6146  0.4006
 2923SOL     OW 9667   5.064   4.934   4.925  0.1197  0.0794  0.1738
 2923SOL    HW1 9668   5.140   4.871   4.943 -0.3426 -0.5014  0.1106
 2923SOL    HW2 9669   5.100   5.019   4.887  0.9493  0.6023  2.0049
 2924SOL     OW 9670   0.135   1.358   5.590  0.5099 -0.0713  0.3631
 2924SOL    HW1 9671   0.072   1.305   5.646 -1.4340  0.2770 -1.3830
 2924SOL    HW2 9672   0.091   1.442   5.559  0.7837 -1.0540 -3.0822
 2925SOL     OW 9673   6.331   1.900   1.053 -0.8422 -0.1941 -0.5503
 2925SOL    HW1 9674   6.288   1.828   1.108  1.0090  0.7008  2.3216
 2925SOL    HW2 9675   6.430   1.889   1.057 -0.6065  0.5835 -2.9502
 2926SOL     OW 9676   6.711   2.082   5.451  0.3730  0.7034  0.0164
 2926SOL    HW1 9677   6.716   1.983   5.460 -1.3634  0.4030 -1.7194
 2926SOL    HW2 9678   6.686   2.107   5.358 -1.0009  2.6844  0.8205
 2927SOL     OW 9679   1.556   4.901   0.295  0.4314  0.5084 -0.3383
 2927SOL    HW1 9680   1.544   4.917   0.197 -0.8464  0.6400 -0.1730
 2927SOL    HW2 9681   1.475   4.932   0.344  0.9914  0.2899  0.7529
 2928SOL     OW 9682   6.208   1.729   1.212  0.2201 -0.0004 -0.3474
 2928SOL    HW1 9683   6.265   1.680   1.278  1.0943 -0.5464 -1.4681
 2928SOL    HW2 9684   6.113   1.701   1.223  0.2217  0.4870  1.1674
 2929SOL     OW 9685   0.480   0.510   6.488 -0.1627 -0.4161  0.2080
 2929SOL    HW1 9686   0.456   0.607   6.499  0.3779 -0.3499  0.8896
 2929SOL    HW2 9687   0.579   0.499   6.502 -0.3325 -1.1714  0.8851
 2930SOL     OW 9688   5.962   6.419   6.019 -0.2289 -0.3025 -0.0685
 2930SOL    HW1 9689   5.951   6.323   6.045 -1.5558  0.4567  2.5369
 2930SOL    HW2 9690   5.873   6.463   6.015  0.4657  1.2391  0.6208
 2931SOL     OW 9691   4.027   6.236   6.712 -0.4334  0.7355  0.0479
 2931SOL    HW1 9692   3.949   6.209   6.656 -0.3823  0.3915  0.1374
 2931SOL    HW2 9693   3.999   6.245   6.807  0.2240 -2.4388  0.6581
 2932SOL     OW 9694   5.749   6.416   1.857 -0.2981 -0.2204  0.0693
 2932SOL    HW1 9695   5.793   6.327   1.847  0.5258  0.0449  1.1450
 2932SOL    HW2 9696   5.802   6.485   1.808 -1.2887 -0.3933 -1.3146
 2933SOL     OW 9697   1.681   6.110   1.511 -0.2049 -0.3121 -0.1851
 2933SOL    HW1 9698   1.678   6.114   1.611 -1.3656  1.8637 -0.2546
 2933SOL    HW2 9699   1.774   6.086   1.483 -0.1288 -2.1989  1.3746
 2934SOL     OW 9700   5.383   1.926   0.746 -0.3534  0.1074  0.2487
 2934SOL    HW1 9701   5.429   1.927   0.657 -1.0966 -0.2713 -0.1410
 2934SOL    HW2 9702   5.441   1.877   0.811  0.6547  1.2268  0.2458
 2935SOL     OW 9703   1.127   0.883   6.489 -0.2545 -0.0707  0.0429
 2935SOL    HW1 9704   1.124   0.837   6.401 -1.3804  1.8715 -1.0222
 2935SOL    HW2 9705   1.064   0.838   6.552 -0.5238 -0.6230 -0.6041
 2936SOL     OW 9706   3.611   6.995   0.388 -0.0593 -0.4183 -0.0406
 2936SOL    HW1 9707   3.689   7.057   0.393 -0.1056 -0.3659  0.0312
 2936SOL    HW2 9708   3.526   7.047   0.398 -0.0774 -0.5675  0.6680
 2937SOL     OW 9709   1.850   6.019   0.222  0.3981  0.2160  0.1146
 2937SOL    HW1 9710   1.907   6.023   0.304 -0.6626  0.7532  0.8510
 2937SOL    HW2 9711   1.761   5.980   0.245 -0.3684  1.5376 -0.4794
 2938SOL     OW 9712   4.681   6.385   1.311  0.3648 -0.1592  0.0190
 2938SOL    HW1 9713   4.597   6.362   1.261 -0.9049 -0.5909  2.2031
 2938SOL    HW2 9714   4.657   6.410   1.405  2.6284  0.7390  0.4090
 2939SOL     OW 9715   0.429   6.853   0.491 -0.5569 -0.0841 -0.0787
 2939SOL    HW1 9716   0.361   6.867   0.420  0.0529  1.0048 -0.4710
 2939SOL    HW2 9717   0.440   6.937   0.545  1.1977  0.1397 -0.6937
 2940SOL     OW 9718   4.854   5.072   6.533 -0.1833 -0.5413  0.4560
 2940SOL    HW1 9719   4.938   5.114   6.568 -0.8333 -0.5121  2.0860
 2940SOL    HW2 9720   4.786   5.144   6.517  0.3464 -0.4516 -1.7586
 2941SOL     OW 9721   1.447   1.246   2.073  0.1310  0.8283 -0.5072
 2941SOL    HW1 9722   1.469   1.250   1.975  0.2890  2.0600 -0.4413
 2941SOL    HW2 9723   1.490   1.166   2.114 -0.5245 -0.1149 -1.5801
 2942SOL     OW 9724   3.381   2.780   6.193  0.1303  0.0684 -0.7224
 2942SOL    HW1 9725   3.350   2.701   6.245 -1.4269  0.8217 -0.4491
 2942SOL    HW2 9726   3.474   2.805   6.221 -0.3751 -0.0181  1.1380
 2943SOL     OW 9727   6.325   4.996   4.320 -0.0574 -0.5848  0.2110
 2943SOL    HW1 9728   6.291   4.996   4.226  0.4309 -1.0116  0.0223
 2943SOL    HW2 9729   6.252   4.969   4.382 -0.7691  1.0155  0.1246
 2944SOL     OW 9730   1.302   5.774   2.786  0.3625 -0.0996 -0.3087
 2944SOL    HW1 9731   1.369   5.709   2.821 -1.1595 -1.2712  0.5234
 2944SOL    HW2 9732   1.321   5.865   2.824 -2.3807 -1.5297  5.8463
 2945SOL     OW 9733   5.086   3.671   0.888 -0.0602 -0.4334 -0.2082
 2945SOL    HW1 9734   5.018   3.723   0.940  1.6204  1.0230  0.6693
 2945SOL    HW2 9735   5.121   3.728   0.813 -0.9783 -1.7824 -1.7361
 2946SOL     OW 9736   1.852   3.585   6.059 -0.3799 -0.1663  0.0752
 2946SOL    HW1 9737   1.801   3.609   6.141  0.3222 -1.1661  0.8378
 2946SOL    HW2 9738   1.845   3.486   6.043  0.5769 -0.1915 -0.2863
 2947SOL     OW 9739   1.883   5.398   0.240  0.7790  0.3771  1.0178
 2947SOL    HW1 9740   1.849   5.310   0.206  1.6026  0.3131  0.3385
 2947SOL    HW2 9741   1.980   5.390   0.261  1.1444  1.4373 -0.1820
 2948SOL     OW 9742   0.448   4.971   2.981 -0.5724  0.4136  0.0393
 2948SOL    HW1 9743   0.488   4.982   3.072  0.8450  2.3818 -0.7518
 2948SOL    HW2 9744   0.487   4.890   2.937  0.5326  0.7724  0.3288
 2949SOL     OW 9745   0.196   4.231   0.031  0.0330 -0.1622  0.0830
 2949SOL    HW1 9746   0.295   4.218   0.043 -0.0163  1.3086  3.0844
 2949SOL    HW2 9747   0.150   4.142   0.030  1.2433 -0.8095  0.2371
 2950SOL     OW 9748   6.233   6.048   3.189  0.4933 -0.5380 -0.1067
 2950SOL    HW1 9749   6.183   5.962   3.195  1.6782 -1.2517 -0.1961
 2950SOL    HW2 9750   6.289   6.060   3.271  1.9610 -0.9002 -1.0321
 2951SOL     OW 9751   4.447   1.500   1.625 -0.0013 -0.2375 -0.0706
 2951SOL    HW1 9752   4.539   1.518   1.590 -0.8852 -1.0054 -3.0613
 2951SOL    HW2 9753   4.429   1.401   1.621 -1.8903  0.0953 -2.3847
 2952SOL     OW 9754   0.685   2.828   4.038  0.3234 -0.3540  0.4328
 2952SOL    HW1 9755   0.669   2.888   4.116 -0.5263  0.1304 -0.0957
 2952SOL    HW2 9756   0.640   2.866   3.957  0.4159 -1.3168 -0.0847
 2953SOL     OW 9757   1.597   4.873   2.807 -0.1338  0.1287 -0.2184
 2953SOL    HW1 9758   1.680   4.837   2.850 -1.1328 -1.9070  0.1328
 2953SOL    HW2 9759   1.517   4.846   2.860 -1.0913  1.5980 -0.8329
 2954SOL     OW 9760   6.953   6.329   6.486 -0.0447  0.0923  0.1068
 2954SOL    HW1 9761   6.948   6.420   6.528  1.4897 -0.9152  2.7254
 2954SOL    HW2 9762   7.026   6.328   6.418  0.9047  0.5177  1.0755
 2955SOL     OW 9763   0.658   4.910   0.817 -0.0630 -0.3454  0.4520
 2955SOL    HW1 9764   0.681   4.832   0.876 -0.8179 -0.1029  1.0750
 2955SOL    HW2 9765   0.681   4.995   0.864 -0.6549 -0.1531  0.4033
 2956SOL     OW 9766   6.136   6.704   3.924  0.0307 -0.2532  0.1627
 2956SOL    HW1 9767   6.053   6.648   3.929 -0.6631  0.3034 -2.9275
 2956SOL    HW2 9768   6.110   6.799   3.905  1.3345  0.4195  1.5865
 2957SOL     OW 9769   4.890   4.436   2.274  0.6420  0.1134  0.7539
 2957SOL    HW1 9770   4.949   4.356   2.284  1.1421  0.5271  1.1688
 2957SOL    HW2 9771   4.796   4.406   2.255  1.2825 -0.5354 -1.7246
 2958SOL     OW 9772   2.758   5.421   5.143  0.2005 -0.1416  0.1895
 2958SOL    HW1 9773   2.690   5.359   5.105 -0.2696  0.6711 -0.3265
 2958SOL    HW2 9774   2.732   5.447   5.236  0.5842 -0.9795  0.5419
 2959SOL     OW 9775   5.476   2.426   3.744 -0.5122  0.4331  0.2508
 2959SOL    HW1 9776   5.548   2.475   3.694 -2.3855  1.5608 -1.4507
 2959SOL    HW2 9777   5.400   2.487   3.763 -1.7598 -1.1371  0.5081
 2960SOL     OW 9778   4.603   0.619   0.853  0.2512 -0.2719 -0.1973
 2960SOL    HW1 9779   4.515   0.666   0.860 -0.0186 -0.7714 -0.2004
 2960SOL    HW2 9780   4.668   0.659   0.918  0.6398  1.4304 -1.5697
 2961SOL     OW 9781   5.895   4.680   3.775 -0.0859  0.4260  0.8084
 2961SOL    HW1 9782   5.949   4.683   3.691  1.3251  2.1207  1.6984
 2961SOL    HW2 9783   5.799   4.701   3.753 -0.2608 -1.6054 -0.6566
 2962SOL     OW 9784   6.591   6.490   3.770  0.5441 -0.5680  0.1359
 2962SOL    HW1 9785   6.508   6.543   3.785 -1.0999 -2.8351 -0.3509
 2962SOL    HW2 9786   6.637   6.522   3.687 -0.0718  0.4504  0.1740
 2963SOL     OW 9787   2.233   0.927   6.486  0.4221  0.0864  1.3495
 2963SOL    HW1 9788   2.231   0.831   6.459 -1.3109  0.2431  0.7321
 2963SOL    HW2 9789   2.229   0.934   6.586  0.4336 -0.4871  1.3945
 2964SOL     OW 9790   1.506   4.038   3.519 -0.1203 -0.2155 -0.5521
 2964SOL    HW1 9791   1.476   4.022   3.613  0.9900 -0.4039 -0.2147
 2964SOL    HW2 9792   1.550   4.128   3.513 -0.9651  0.1755 -1.0983
 2965SOL     OW 9793   1.096   0.782   4.430  0.1061 -0.7660 -0.1679
 2965SOL    HW1 9794   1.126   0.842   4.505  0.5237  0.7291 -1.4862
 2965SOL    HW2 9795   1.144   0.694   4.437  0.6787 -0.3856  0.9063
 2966SOL     OW 9796   5.375   4.179   3.541 -0.7324 -0.5075  0.6341
 2966SOL    HW1 9797   5.386   4.081   3.557  0.8060 -0.5395 -0.3499
 2966SOL    HW2 9798   5.309   4.194   3.467 -0.4880 -0.8596  0.3385
 2967SOL     OW 9799   6.354   1.904   5.193 -0.2606  0.0034 -0.0709
 2967SOL    HW1 9800   6.398   1.986   5.156 -0.1268 -0.3475 -0.7015
 2967SOL    HW2 9801   6.390   1.823   5.147 -0.7993 -0.3708  0.1506
 2968SOL     OW 9802   2.628   1.456   0.555  0.1753  0.0103 -0.5245
 2968SOL    HW1 9803   2.529   1.459   0.550  0.1193 -1.7142 -0.9147
 2968SOL    HW2 9804   2.661   1.539   0.602 -1.3419  1.0897 -1.2770
 2969SOL     OW 9805   5.005   4.816   2.521 -0.8259 -0.5748  0.3202
 2969SOL    HW1 9806   5.047   4.840   2.609  0.0610  0.5184 -0.3719
 2969SOL    HW2 9807   4.932   4.880   2.501 -0.2735 -0.1155 -0.2570
 2970SOL     OW 9808   3.166   3.253   6.315 -0.4689 -0.1599 -0.2255
 2970SOL    HW1 9809   3.160   3.352   6.303 -2.1909 -0.4099 -1.8798
 2970SOL    HW2 9810   3.105   3.225   6.390 -1.3484 -0.1218 -0.9075
 2971SOL     OW 9811   6.631   3.349   0.016 -0.2144  0.1857  0.1873
 2971SOL    HW1 9812   6.638   3.273   0.080 -1.6902  0.9044  1.2649
 2971SOL    HW2 9813   6.723   3.377  -0.013  0.4149 -1.0182  0.9368
 2972SOL     OW 9814   5.477   6.412   6.943 -0.6535  0.3394 -0.1338
 2972SOL    HW1 9815   5.431   6.493   6.980 -1.8881 -0.2064 -0.4467
 2972SOL    HW2 9816   5.523   6.363   7.017  0.1503  1.3432  0.0521
 2973SOL     OW 9817   5.570   6.134   3.175  0.0711  0.3269  0.0790
 2973SOL    HW1 9818   5.624   6.191   3.113  0.3831  1.9824  1.7874
 2973SOL    HW2 9819   5.527   6.192   3.244 -2.7043 -1.1188 -0.3202
 2974SOL     OW 9820   6.221   4.771   1.513 -0.5034  0.6299 -0.0970
 2974SOL    HW1 9821   6.291   4.830   1.472 -1.4707  1.6269 -0.3486
 2974SOL    HW2 9822   6.142   4.766   1.452 -1.7140  1.6253  1.3365
 2975SOL     OW 9823   0.253   6.458   2.632  0.3118 -0.0460  0.0015
 2975SOL    HW1 9824   0.273   6.538   2.574  2.3724 -0.6137 -0.1773
 2975SOL    HW2 9825   0.336   6.402   2.639 -1.0541 -2.1184  0.2171
 2976SOL     OW 9826   4.487   0.927   2.490 -0.1995  0.1712  0.5257
 2976SOL    HW1 9827   4.563   0.864   2.508  1.0731  1.6767  0.6538
 2976SOL    HW2 9828   4.481   0.945   2.392 -0.1550  0.2950  0.5440
 2977SOL     OW 9829   2.295   6.796   2.215 -0.4536 -0.5611  0.5034
 2977SOL    HW1 9830   2.228   6.721   2.205  1.0401 -1.8408 -0.3162
 2977SOL    HW2 9831   2.352   6.800   2.133  1.6540 -0.7065  1.8970
 2978SOL     OW 9832   3.844   3.571   1.310 -0.4947 -0.0288 -0.0782
 2978SOL    HW1 9833   3.822   3.636   1.237  0.4503  0.9858  0.5077
 2978SOL    HW2 9834   3.912   3.611   1.371  1.4946 -2.2238 -0.6799
 2979SOL     OW 9835   3.342   0.607   4.847  0.3087 -0.4146 -0.6789
 2979SOL    HW1 9836   3.278   0.548   4.797 -1.1285 -0.0850  0.6932
 2979SOL    HW2 9837   3.412   0.640   4.784 -0.0381 -1.9174 -1.9333
 2980SOL     OW 9838   3.519   4.769   6.428 -0.1415 -0.8770 -0.7753
 2980SOL    HW1 9839   3.597   4.758   6.490 -0.2360 -0.0301 -0.4911
 2980SOL    HW2 9840   3.544   4.832   6.354 -0.5204 -0.6734 -0.7323
 2981SOL     OW 9841   3.520   2.324   6.840  0.1729 -0.1683  0.0090
 2981SOL    HW1 9842   3.549   2.243   6.789 -0.6574 -0.5020  0.0493
 2981SOL    HW2 9843   3.453   2.375   6.786  2.2095  1.6724 -0.9425
 2982SOL     OW 9844   2.829   5.773   2.989 -0.7682 -0.3642  0.0677
 2982SOL    HW1 9845   2.789   5.693   3.032  0.0962 -0.7506  0.1744
 2982SOL    HW2 9846   2.897   5.814   3.051 -1.9057  1.0505  0.4402
 2983SOL     OW 9847   1.896   4.081   1.031  0.5931 -0.0066  0.4306
 2983SOL    HW1 9848   1.982   4.034   1.013  0.3880 -0.0020 -0.6221
 2983SOL    HW2 9849   1.865   4.059   1.123  0.7915 -1.4961  0.1761
 2984SOL     OW 9850   6.513   5.247   6.185  0.4538  0.4266 -0.4192
 2984SOL    HW1 9851   6.578   5.289   6.248 -0.4326  0.5151  0.4582
 2984SOL    HW2 9852   6.446   5.315   6.155 -0.9684 -0.2854  0.9821
 2985SOL     OW 9853   6.545   1.768   3.420 -0.0520  0.1647  0.4176
 2985SOL    HW1 9854   6.459   1.749   3.468 -1.4227  3.3625 -0.5136
 2985SOL    HW2 9855   6.608   1.691   3.434 -2.0196 -1.1231  3.3852
 2986SOL     OW 9856   3.283   3.889   1.988  0.1718  0.0604 -0.0294
 2986SOL    HW1 9857   3.319   3.914   2.078  0.3717  0.4072 -0.2023
 2986SOL    HW2 9858   3.357   3.850   1.933  0.3300  0.8755 -0.4247
 2987SOL     OW 9859   1.160   0.836   2.816 -0.2398 -0.0971  0.6800
 2987SOL    HW1 9860   1.173   0.910   2.882 -2.0720  2.2000 -1.3204
 2987SOL    HW2 9861   1.062   0.826   2.796  0.0682 -2.3026  0.0022
 2988SOL     OW 9862   1.568   0.042   2.499 -0.2580 -0.2070 -0.0466
 2988SOL    HW1 9863   1.481   0.088   2.517  0.8875  2.3274 -0.5400
 2988SOL    HW2 9864   1.592   0.052   2.403  2.5954  3.2676  0.7563
 2989SOL     OW 9865   4.835   4.040   4.597 -0.2407 -0.1544 -0.0371
 2989SOL    HW1 9866   4.835   4.038   4.497 -2.2553  0.3135 -0.0937
 2989SOL    HW2 9867   4.856   4.132   4.629  3.6123 -0.9288  0.1391
 2990SOL     OW 9868   6.128   3.047   3.482  0.2957  0.4366 -0.9346
 2990SOL    HW1 9869   6.149   2.976   3.415 -1.4632 -0.8026 -0.2426
 2990SOL    HW2 9870   6.065   3.011   3.551 -0.9949  2.7634 -0.7723
 2991SOL     OW 9871   0.198   3.823   4.863 -0.1264  0.4151  0.0076
 2991SOL    HW1 9872   0.258   3.744   4.874  0.4481  0.6854 -1.1150
 2991SOL    HW2 9873   0.223   3.894   4.929  0.5541  0.3959 -0.2323
 2992SOL     OW 9874   1.910   3.600   5.691 -0.0175 -0.0342  0.0232
 2992SOL    HW1 9875   1.970   3.631   5.617  0.3844  0.8400  0.6943
 2992SOL    HW2 9876   1.957   3.611   5.779 -1.0153  0.2985  0.5295
 2993SOL     OW 9877   6.610   3.817   6.685  0.3372  0.3249 -0.1778
 2993SOL    HW1 9878   6.605   3.719   6.705  0.5585  0.0616 -1.3274
 2993SOL    HW2 9879   6.544   3.840   6.614 -0.4809  1.2409  0.8422
 2994SOL     OW 9880   5.027   6.841   0.260 -0.1648 -0.3170  0.5334
 2994SOL    HW1 9881   5.013   6.770   0.191 -0.3555 -0.1616  0.4129
 2994SOL    HW2 9882   5.030   6.799   0.351 -0.2364 -0.4832  0.4588
 2995SOL     OW 9883   4.312   0.127   6.504  0.0701 -0.0651 -0.6489
 2995SOL    HW1 9884   4.392   0.121   6.564  0.0037 -1.0870 -0.6535
 2995SOL    HW2 9885   4.296   0.223   6.479  0.7411  0.2480  0.0924
 2996SOL     OW 9886   2.276   1.598   3.818  0.6636 -0.5303 -0.2930
 2996SOL    HW1 9887   2.272   1.545   3.733  1.9369 -1.4128  0.1658
 2996SOL    HW2 9888   2.319   1.687   3.800 -0.4786 -0.0662 -0.8482
 2997SOL     OW 9889   3.386   6.829   4.100 -0.2733  0.6848 -0.1741
 2997SOL    HW1 9890   3.383   6.859   4.005  1.5554 -0.5450 -0.6692
 2997SOL    HW2 9891   3.303   6.778   4.122 -1.3824  2.2241 -0.6253
 2998SOL     OW 9892   2.827   1.395   4.342  0.4207 -0.2235  0.0637
 2998SOL    HW1 9893   2.853   1.308   4.383  3.2206  0.4809  0.0009
 2998SOL    HW2 9894   2.864   1.401   4.249 -1.2287  0.3567 -0.5891
 2999SOL     OW 9895   3.817   2.513   5.894  0.5142 -0.0695  0.4474
 2999SOL    HW1 9896   3.762   2.568   5.958 -0.8283 -0.3541 -0.4165
 2999SOL    HW2 9897   3.768   2.505   5.807  1.4640 -1.2319 -0.0022
 3000SOL     OW 9898   1.323   3.278   1.160 -0.1838 -0.7255  0.4439
 3000SOL    HW1 9899   1.418   3.307   1.148 -0.0868 -1.4037 -0.4951
 3000SOL    HW2 9900   1.264   3.359   1.161  0.3367 -0.3407  0.4005
 3001SOL     OW 9901   5.582   1.147   0.159 -0.0712 -0.4697  0.1740
 3001SOL    HW1 9902   5.574   1.243   0.184 -0.1862 -0.5727  0.5404
 3001SOL    HW2 9903   5.609   1.094   0.240 -0.1517 -0.7650  0.0075
 3002SOL     OW 9904   2.825   2.057   6.256 -0.0576  0.3998  0.1596
 3002SOL    HW1 9905   2.894   2.095   6.317 -1.3075  1.3082  1.0585
 3002SOL    HW2 9906   2.812   2.118   6.178 -2.0943  2.0134  1.6227
 3003SOL     OW 9907   0.787   6.785   1.568  0.5093 -0.0307  0.2450
 3003SOL    HW1 9908   0.734   6.724   1.628  1.3716 -0.8001  0.2331
 3003SOL    HW2 9909   0.846   6.731   1.509  2.3439  0.8271  1.2037
 3004SOL     OW 9910   2.176   3.934   4.139 -0.2962 -0.1911  0.5330
 3004SOL    HW1 9911   2.204   4.006   4.201  1.9685 -0.1359 -0.4679
 3004SOL    HW2 9912   2.195   3.845   4.180 -0.3584 -0.1861  0.5737
 3005SOL     OW 9913   0.613   3.620   4.381  0.5814  0.1214 -0.4803
 3005SOL    HW1 9914   0.579   3.546   4.323 -0.8638  0.6879 -0.4152
 3005SOL    HW2 9915   0.577   3.609   4.474  1.3065  0.2795 -0.1729
 3006SOL     OW 9916   6.290   0.926   4.406 -0.3039 -0.0923  0.3049
 3006SOL    HW1 9917   6.331   0.855   4.463 -2.1385 -1.6780 -0.2597
 3006SOL    HW2 9918   6.251   0.884   4.324 -1.5608  1.5567  0.0174
 3007SOL     OW 9919   4.617   6.466   6.255 -0.1218 -0.0858  0.4231
 3007SOL    HW1 9920   4.611   6.367   6.267  0.3521  0.0836  2.3371
 3007SOL    HW2 9921   4.527   6.507   6.264  0.1117 -0.0291  3.4011
 3008SOL     OW 9922   3.290   2.518   6.956 -0.0826  0.7011 -0.1632
 3008SOL    HW1 9923   3.284   2.546   7.052  2.1110 -0.7508  0.4784
 3008SOL    HW2 9924   3.357   2.576   6.909 -1.9189  2.1105 -1.1723
 3009SOL     OW 9925   1.134   1.787   3.221  0.1456  0.0843 -0.4876
 3009SOL    HW1 9926   1.057   1.845   3.249 -0.8650  0.2028 -3.2725
 3009SOL    HW2 9927   1.210   1.800   3.286 -0.8670  2.7445  0.2990
 3010SOL     OW 9928   3.671   6.735   5.441 -0.3670 -0.2284  0.2435
 3010SOL    HW1 9929   3.747   6.671   5.450 -1.3598 -1.2616  1.8235
 3010SOL    HW2 9930   3.635   6.731   5.348 -0.7772 -2.4436  0.4423
 3011SOL     OW 9931   6.484   0.268   1.198  0.1044 -0.0302  0.7560
 3011SOL    HW1 9932   6.429   0.186   1.183  1.8229 -1.7391  2.9403
 3011SOL    HW2 9933   6.554   0.248   1.268  1.1625  3.0623  0.7167
 3012SOL     OW 9934   3.661   2.810   6.238 -0.7760  0.5358 -0.2307
 3012SOL    HW1 9935   3.736   2.853   6.188  1.0525 -1.9097  0.2597
 3012SOL    HW2 9936   3.657   2.847   6.331  0.7159 -0.2437  0.1642
 3013SOL     OW 9937   5.579   6.252   3.676  0.0534 -0.2771 -0.5880
 3013SOL    HW1 9938   5.553   6.325   3.739 -0.1906  0.1345 -1.1581
 3013SOL    HW2 9939   5.608   6.171   3.728 -0.7619 -0.1680  0.0438
 3014SOL     OW 9940   4.205   0.916   4.097  0.4599  0.6215  0.4167
 3014SOL    HW1 9941   4.204   0.970   4.013  2.1480 -0.3784 -0.2852
 3014SOL    HW2 9942   4.295   0.876   4.110 -0.0648 -0.0596  2.1984
 3015SOL     OW 9943   3.696   2.873   2.374  0.2535 -0.3405  0.1744
 3015SOL    HW1 9944   3.751   2.794   2.348  2.9515  1.6002 -0.4254
 3015SOL    HW2 9945   3.746   2.928   2.442 -2.1006  0.2321  1.5636
 3016SOL     OW 9946   2.248   0.023   3.708  0.1412  1.0845  0.0400
 3016SOL    HW1 9947   2.284   0.070   3.628 -0.5878 -0.2027 -1.0867
 3016SOL    HW2 9948   2.173   0.077   3.748  1.1581  2.2091  0.4851
 3017SOL     OW 9949   6.227   4.723   2.276 -0.1658 -0.3561 -0.2994
 3017SOL    HW1 9950   6.204   4.749   2.182  2.2656  1.2362 -0.5226
 3017SOL    HW2 9951   6.288   4.644   2.274  1.0789  0.5681 -0.1952
 3018SOL     OW 9952   2.467   6.772   0.433  0.1743  0.5510 -0.0618
 3018SOL    HW1 9953   2.409   6.705   0.481 -1.0621  0.9614 -0.9353
 3018SOL    HW2 9954   2.548   6.792   0.489  1.7171 -3.2160 -0.6235
 3019SOL     OW 9955   0.426   5.917   6.203 -1.2275 -0.2952  0.2770
 3019SOL    HW1 9956   0.370   5.918   6.285  1.5533 -1.7635  2.3547
 3019SOL    HW2 9957   0.429   5.824   6.166 -0.0232 -0.2988  0.3548
 3020SOL     OW 9958   4.812   3.770   0.718 -0.5006  0.0601  0.2390
 3020SOL    HW1 9959   4.863   3.698   0.672  0.4993  0.0156  1.3619
 3020SOL    HW2 9960   4.767   3.828   0.651  0.4715 -0.3186 -0.7596
 3021SOL     OW 9961   1.666   6.058   4.226  0.1089 -0.7362 -0.3111
 3021SOL    HW1 9962   1.617   6.136   4.186 -3.6674 -3.3878 -1.4692
 3021SOL    HW2 9963   1.714   6.010   4.153 -0.1652 -1.1771 -0.2028
 3022SOL     OW 9964   4.159   6.000   5.499  0.5930 -0.0232  0.1099
 3022SOL    HW1 9965   4.164   6.097   5.476 -0.0639 -0.0702 -0.2508
 3022SOL    HW2 9966   4.250   5.967   5.523  0.6004  1.0514  1.7412
 3023SOL     OW 9967   2.635   0.551   3.162  0.5560 -0.2284  0.4001
 3023SOL    HW1 9968   2.596   0.638   3.194 -0.4069 -0.2903 -0.5275
 3023SOL    HW2 9969   2.733   0.562   3.147  0.1701  1.3246 -1.5650
 3024SOL     OW 9970   0.060   5.608   6.672 -0.3804  0.4324 -0.7075
 3024SOL    HW1 9971   0.051   5.510   6.690 -0.2667  0.6671  0.7738
 3024SOL    HW2 9972   0.146   5.626   6.625  0.5268  0.0050  0.7396
 3025SOL     OW 9973   3.533   1.082   3.330 -0.0565  0.3324 -0.1283
 3025SOL    HW1 9974   3.540   1.038   3.420 -1.0052 -0.0255 -0.2181
 3025SOL    HW2 9975   3.607   1.051   3.271 -1.1863 -1.8888 -0.4903
 3026SOL     OW 9976   6.861   0.675   0.158 -0.0540  0.2835 -0.0104
 3026SOL    HW1 9977   6.807   0.672   0.242 -2.2290  1.2932 -1.2838
 3026SOL    HW2 9978   6.874   0.582   0.124 -0.5192 -0.0267  0.6297
 3027SOL     OW 9979   4.793   0.905   0.734  0.0920 -0.3550 -0.3222
 3027SOL    HW1 9980   4.777   0.848   0.815 -1.4706 -0.5457 -0.7318
 3027SOL    HW2 9981   4.870   0.966   0.751 -0.0116 -0.6058  1.1877
 3028SOL     OW 9982   2.255   4.173   6.007 -0.0542  0.4296  0.0106
 3028SOL    HW1 9983   2.318   4.181   6.084 -0.5364 -2.8487  0.8882
 3028SOL    HW2 9984   2.306   4.148   5.924  0.2022  1.7449 -0.2477
 3029SOL     OW 9985   1.139   1.674   0.997 -0.2941  0.1478  0.3103
 3029SOL    HW1 9986   1.073   1.677   1.072 -0.1803  0.6851  0.3873
 3029SOL    HW2 9987   1.191   1.759   0.994  0.1526 -0.1319  0.0261
 3030SOL     OW 9988   1.341   4.413   1.980  0.7946 -0.0940  0.1824
 3030SOL    HW1 9989   1.407   4.364   1.922 -0.5060  1.7003 -3.1506
 3030SOL    HW2 9990   1.266   4.352   2.005  0.8327 -0.6910 -1.0552
 3031SOL     OW 9991   0.764   5.624   6.605  0.2259 -0.0439  0.0981
 3031SOL    HW1 9992   0.809   5.713   6.610  0.1421  0.0799 -1.0658
 3031SOL    HW2 9993   0.833   5.552   6.606  0.4276  0.1202 -1.0055
 3032SOL     OW 9994   3.776   6.347   2.956  0.4058 -0.9115  0.2563
 3032SOL    HW1 9995   3.746   6.265   2.909 -0.2901 -0.4370 -0.1482
 3032SOL    HW2 9996   3.772   6.332   3.055 -2.2432 -0.5702  0.2979
 3033SOL     OW 9997   5.958   2.186   2.591  0.6562 -0.3012 -0.1337
 3033SOL    HW1 9998   6.003   2.254   2.649 -0.0811  2.3944 -2.5002
 3033SOL    HW2 9999   5.885   2.140   2.643  1.1515  0.7280  1.5308
 3034SOL     OW10000   0.496   5.171   3.534  0.2591  0.7085 -0.0628
 3034SOL    HW110001   0.591   5.139   3.532 -0.2110 -0.7680 -2.2010
 3034SOL    HW210002   0.460   5.173   3.441 -1.6223  1.8888  0.6427
 3035SOL     OW10003   2.169   1.785   6.707  0.2106  0.4255  0.2841
 3035SOL    HW110004   2.085   1.832   6.735  0.2958  1.9439 -1.7809
 3035SOL    HW210005   2.249   1.833   6.743  0.2635  1.2429 -0.8684
 3036SOL     OW10006   1.496   0.486   1.305 -0.3502  0.2531 -0.3458
 3036SOL    HW110007   1.513   0.432   1.387  0.0127 -0.4062 -0.8365
 3036SOL    HW210008   1.473   0.580   1.330  1.3311  0.4807  0.4626
 3037SOL     OW10009   6.352   5.917   6.086 -0.3585  0.1813 -0.8348
 3037SOL    HW110010   6.318   6.004   6.052  1.7902  2.0752  1.4523
 3037SOL    HW210011   6.276   5.866   6.129 -1.2448  2.0370 -0.0892
 3038SOL     OW10012   5.493   4.891   4.692 -0.0201  0.0057  0.0708
 3038SOL    HW110013   5.418   4.826   4.701 -0.3421  0.4352  0.5558
 3038SOL    HW210014   5.511   4.934   4.780  0.4279  0.3164 -0.1651
 3039SOL     OW10015   0.790   3.804   6.319 -0.7048 -0.5264  0.0549
 3039SOL    HW110016   0.880   3.831   6.284  0.5835  0.1251  3.4857
 3039SOL    HW210017   0.740   3.886   6.347 -1.4854 -1.0171  0.1046
 3040SOL     OW10018   4.561   3.488   5.470  0.3158 -0.0802 -0.6729
 3040SOL    HW110019   4.645   3.463   5.518 -0.1322  0.6443  0.4946
 3040SOL    HW210020   4.581   3.557   5.401  0.5925  0.4567 -0.0550
 3041SOL     OW10021   1.264   4.507   6.808  0.2923 -0.0932  0.7085
 3041SOL    HW110022   1.332   4.462   6.866  0.4489 -1.1438 -0.2446
 3041SOL    HW210023   1.252   4.601   6.837  1.2610 -0.2488  1.6647
 3042SOL     OW10024   5.779   5.706   3.229 -0.3116  0.5046  0.0755
 3042SOL    HW110025   5.809   5.794   3.267  0.5049  0.2558  0.0174
 3042SOL    HW210026   5.680   5.696   3.243 -0.6208  1.9343 -0.9343
 3043SOL     OW10027   2.507   1.956   6.627  0.2080  0.2535  0.5241
 3043SOL    HW110028   2.502   1.857   6.636  1.4313  0.2238  0.9995
 3043SOL    HW210029   2.489   1.982   6.532 -1.6198 -0.2877  0.6853
 3044SOL     OW10030   1.650   3.665   4.298  0.1332  0.4985 -0.0344
 3044SOL    HW110031   1.737   3.702   4.265 -0.1680  3.1404  1.8834
 3044SOL    HW210032   1.574   3.714   4.255 -0.2825  1.9044  2.1649
 3045SOL     OW10033   3.733   0.749   2.576  0.0454  0.1572 -0.0499
 3045SOL    HW110034   3.638   0.767   2.552  0.1826  0.6881 -0.2003
 3045SOL    HW210035   3.788   0.831   2.560  0.2961  0.2733  1.2969
 3046SOL     OW10036   3.378   5.877   5.371 -0.0236  1.0485  0.3411
 3046SOL    HW110037   3.447   5.915   5.310  0.5532 -0.1396  0.2309
 3046SOL    HW210038   3.416   5.800   5.421 -0.8668  1.2279  1.2993
 3047SOL     OW10039   5.829   5.471   1.055  0.2570  0.0527 -0.6470
 3047SOL    HW110040   5.896   5.544   1.068 -0.3563  1.1502 -3.1096
 3047SOL    HW210041   5.874   5.392   1.013  0.7205 -0.6903  1.1509
 3048SOL     OW10042   4.379   4.237   6.405 -0.2127 -0.1032 -0.4986
 3048SOL    HW110043   4.371   4.278   6.314 -0.0304  0.0566 -0.4414
 3048SOL    HW210044   4.293   4.190   6.428  0.0936 -1.0445 -1.1878
 3049SOL     OW10045   6.973   0.128   6.223 -0.0696  0.0688 -0.2402
 3049SOL    HW110046   7.031   0.204   6.195 -1.1671  0.8415 -0.4956
 3049SOL    HW210047   7.029   0.048   6.241  1.1512  1.0122  0.3080
 3050SOL     OW10048   2.705   4.354   0.865  0.0562  0.0228 -0.3780
 3050SOL    HW110049   2.644   4.321   0.937 -0.4904  0.2975 -0.7015
 3050SOL    HW210050   2.653   4.413   0.803  0.8598  0.9651 -0.1733
 3051SOL     OW10051   1.430   5.816   5.426  0.0724 -0.5135 -0.1218
 3051SOL    HW110052   1.492   5.824   5.503 -1.0132  0.3655  0.6901
 3051SOL    HW210053   1.354   5.879   5.437  0.6466  0.7906 -2.6577
 3052SOL     OW10054   5.683   5.424   3.459 -0.3178  0.1587  0.0635
 3052SOL    HW110055   5.628   5.508   3.456  0.2359  0.4993 -1.4227
 3052SOL    HW210056   5.627   5.346   3.432 -0.2692  0.4055 -0.7865
 3053SOL     OW10057   0.374   2.943   6.854  0.9432 -0.8140 -0.3072
 3053SOL    HW110058   0.408   2.990   6.774  0.9754  1.7082  1.0854
 3053SOL    HW210059   0.409   2.849   6.856 -0.9694 -1.8095 -4.3871
 3054SOL     OW10060   6.631   2.313   3.543  0.3167 -0.9964  0.2101
 3054SOL    HW110061   6.542   2.267   3.549  0.5414 -1.2911  1.6142
 3054SOL    HW210062   6.619   2.405   3.505 -0.1853 -2.0300 -2.3866
 3055SOL     OW10063   6.469   0.493   4.989 -0.0869  0.7776 -0.2888
 3055SOL    HW110064   6.447   0.585   4.954 -0.7298  0.6573 -0.2092
 3055SOL    HW210065   6.568   0.480   4.987 -0.1146  0.2447 -3.4285
 3056SOL     OW10066   0.662   1.910   4.710  0.1890 -0.6391  0.0417
 3056SOL    HW110067   0.699   1.834   4.764 -0.0375 -0.6161  0.2308
 3056SOL    HW210068   0.591   1.956   4.763  1.8856  1.1683  0.9145
 3057SOL     OW10069   5.913   6.341   4.964  0.3442 -0.0217 -0.1344
 3057SOL    HW110070   5.976   6.339   4.886  0.7661 -0.1382  0.2062
 3057SOL    HW210071   5.937   6.418   5.024  0.0715  0.0195 -0.0792
 3058SOL     OW10072   0.589   4.333   1.686  0.4474 -0.1531 -0.1012
 3058SOL    HW110073   0.552   4.263   1.748  1.1542 -0.8520 -0.4537
 3058SOL    HW210074   0.681   4.359   1.717 -0.4384  1.8886  1.0266
 3059SOL     OW10075   2.540   0.574   4.171  0.4862 -0.1055 -0.1284
 3059SOL    HW110076   2.551   0.530   4.082 -1.2413  0.7381 -0.7971
 3059SOL    HW210077   2.524   0.504   4.241  2.2746 -0.8082 -0.3515
 3060SOL     OW10078   3.167   4.394   6.965  0.6856 -0.5945  0.3387
 3060SOL    HW110079   3.237   4.462   6.942 -0.2064 -0.2188 -1.4516
 3060SOL    HW210080   3.205   4.327   7.029  2.6377 -0.3267 -0.4806
 3061SOL     OW10081   6.638   6.567   5.288  0.0397  1.0022  0.0974
 3061SOL    HW110082   6.583   6.520   5.219 -0.1466  0.2955  0.7071
 3061SOL    HW210083   6.579   6.626   5.344 -0.6390 -1.5996  2.3394
 3062SOL     OW10084   3.341   0.711   0.666  0.0531 -0.6989  0.3799
 3062SOL    HW110085   3.439   0.733   0.667 -0.2331  0.5944  0.5475
 3062SOL    HW210086   3.330   0.614   0.644  1.3089 -0.3400 -2.3696
 3063SOL     OW10087   0.755   3.588   6.825 -0.0041  0.3157 -0.2306
 3063SOL    HW110088   0.673   3.569   6.771  0.4413 -1.4294 -0.3740
 3063SOL    HW210089   0.836   3.564   6.771  0.7082  2.9396 -0.4723
 3064SOL     OW10090   5.707   3.063   6.141  0.3781 -0.3894 -0.5310
 3064SOL    HW110091   5.764   2.982   6.155  0.6020  0.2455  3.2128
 3064SOL    HW210092   5.766   3.144   6.139 -0.0767 -0.0576 -1.6631
 3065SOL     OW10093   1.648   1.990   0.301  0.1622  0.3103 -0.2455
 3065SOL    HW110094   1.722   1.945   0.252  1.1270  3.2268 -1.6821
 3065SOL    HW210095   1.585   1.921   0.337  0.4350 -2.1279 -3.9039
 3066SOL     OW10096   2.700   6.903   0.237  0.3024  0.3370  0.6098
 3066SOL    HW110097   2.629   6.936   0.300  0.6077  0.7674  0.7332
 3066SOL    HW210098   2.728   6.978   0.176  2.0704  0.7644  1.8727
 3067SOL     OW10099   0.946   0.730   2.188 -0.0540 -0.2291 -0.3069
 3067SOL    HW110100   1.044   0.745   2.198 -0.1145  1.1654 -1.4530
 3067SOL    HW210101   0.899   0.762   2.271  0.4301 -0.7374  0.1700
 3068SOL     OW10102   0.576   6.261   5.928 -0.1278  0.5827 -0.9247
 3068SOL    HW110103   0.497   6.230   5.981  1.0163  0.8457  0.9905
 3068SOL    HW210104   0.639   6.185   5.912  0.5665  0.9511 -0.0121
 3069SOL     OW10105   5.863   6.115   4.104  0.5061 -0.1540  0.0807
 3069SOL    HW110106   5.926   6.068   4.041  1.1723 -0.9343  1.2788
 3069SOL    HW210107   5.862   6.067   4.192 -1.6640 -0.0652  0.1667
 3070SOL     OW10108   3.627   0.701   0.105  0.1329  0.8660  0.5307
 3070SOL    HW110109   3.712   0.662   0.141  0.4248  1.3484  0.3802
 3070SOL    HW210110   3.575   0.740   0.181 -0.4544 -0.3359  0.7695
 3071SOL     OW10111   0.559   5.229   1.919  0.3466 -0.0304 -0.2015
 3071SOL    HW110112   0.476   5.224   1.975  0.9721  1.5122  0.9391
 3071SOL    HW210113   0.570   5.322   1.885  0.4161 -0.7526 -2.2893
 3072SOL     OW10114   1.777   6.915   0.956  0.3548 -0.2639  0.0092
 3072SOL    HW110115   1.817   6.824   0.944 -0.9134 -0.7809 -0.5307
 3072SOL    HW210116   1.682   6.906   0.984  0.0359  0.8874 -0.6160
 3073SOL     OW10117   6.955   5.824   0.745 -0.1961  0.0745 -0.1270
 3073SOL    HW110118   6.950   5.869   0.834 -0.1475  0.6688 -0.4170
 3073SOL    HW210119   6.961   5.725   0.758 -2.1785 -0.0110  0.4905
 3074SOL     OW10120   7.020   3.966   2.789 -0.4637 -0.2971  0.2180
 3074SOL    HW110121   6.948   3.899   2.805 -1.2113  0.8476  2.0000
 3074SOL    HW210122   7.008   4.006   2.699 -0.7461 -1.6454 -0.3712
 3075SOL     OW10123   2.739   4.795   4.838 -0.1563  0.3209  0.8251
 3075SOL    HW110124   2.673   4.743   4.784  0.3387 -0.5399  1.0180
 3075SOL    HW210125   2.776   4.736   4.910  0.9818  0.7059  0.5787
 3076SOL     OW10126   6.988   0.550   4.447  0.2511 -0.3781 -0.0735
 3076SOL    HW110127   6.975   0.499   4.531 -2.2634 -6.7396 -3.6447
 3076SOL    HW210128   6.905   0.600   4.424  0.6713  0.7285  0.7366
 3077SOL     OW10129   5.482   3.497   0.683  0.2819  0.6777 -0.4641
 3077SOL    HW110130   5.467   3.399   0.686 -0.5911  0.7540 -1.5751
 3077SOL    HW210131   5.454   3.538   0.770  0.7593 -0.0557  0.0455
 3078SOL     OW10132   6.076   4.672   0.839  0.1768  1.0227  0.2721
 3078SOL    HW110133   6.107   4.670   0.744 -2.3393  0.2191 -0.6203
 3078SOL    HW210134   6.057   4.767   0.866  2.5252  1.4601  0.6316
 3079SOL     OW10135   3.113   2.107   4.790 -0.6576  0.3614 -0.1840
 3079SOL    HW110136   3.137   2.175   4.859 -0.6614  1.9032 -1.6281
 3079SOL    HW210137   3.154   2.019   4.814  1.9066  1.5673  0.2339
 3080SOL     OW10138   6.511   3.571   2.836 -0.4243 -0.3037  0.2631
 3080SOL    HW110139   6.601   3.529   2.825  0.3965  0.7916  2.2167
 3080SOL    HW210140   6.460   3.562   2.751  1.8080 -0.2913 -1.1854
 3081SOL     OW10141   1.427   3.428   5.497 -0.7753 -0.1695  0.6575
 3081SOL    HW110142   1.356   3.403   5.432 -0.9446 -0.3637  0.9114
 3081SOL    HW210143   1.414   3.522   5.528  0.4245  0.6149 -1.0362
 3082SOL     OW10144   3.034   6.029   4.799  0.2418  0.2164  0.6286
 3082SOL    HW110145   3.077   6.118   4.780 -2.3355  1.8030  1.6636
 3082SOL    HW210146   3.063   5.996   4.888  0.4052  0.5577  0.7047
 3083SOL     OW10147   3.608   5.189   3.617 -0.3104 -0.1492  0.0256
 3083SOL    HW110148   3.557   5.139   3.547  0.3996 -1.0253  0.1033
 3083SOL    HW210149   3.627   5.282   3.585 -2.8042  0.5670  0.4244
 3084SOL     OW10150   0.503   4.705   3.335 -0.3289 -0.0079 -0.2512
 3084SOL    HW110151   0.531   4.669   3.424 -1.6928 -2.0837 -0.5812
 3084SOL    HW210152   0.557   4.663   3.263 -2.4180 -2.1690 -0.6966
 3085SOL     OW10153   6.239   5.044   1.655  0.1619 -0.5320  0.4706
 3085SOL    HW110154   6.139   5.045   1.646  0.1997 -0.1326  0.0354
 3085SOL    HW210155   6.267   4.970   1.715 -0.3349 -1.3290 -0.2630
 3086SOL     OW10156   4.978   0.849   6.002 -0.1595 -0.3604  0.4003
 3086SOL    HW110157   5.044   0.776   5.984 -1.0887 -1.2510  0.5288
 3086SOL    HW210158   5.017   0.937   5.974  0.7233 -0.9829 -0.3661
 3087SOL     OW10159   1.885   6.706   2.564 -0.0488  0.1775  0.2415
 3087SOL    HW110160   1.888   6.770   2.641 -2.2623 -0.6670  1.1209
 3087SOL    HW210161   1.792   6.703   2.527  0.3596 -1.4238 -0.7616
 3088SOL     OW10162   1.345   2.428   5.852  0.0373 -0.2562  0.4263
 3088SOL    HW110163   1.418   2.496   5.843  0.3713 -0.8347 -1.8681
 3088SOL    HW210164   1.258   2.468   5.824 -0.0609 -0.3275  0.6228
 3089SOL     OW10165   3.833   2.427   5.328 -0.4834 -0.0192 -0.0194
 3089SOL    HW110166   3.800   2.349   5.381  1.9230  0.1780  1.9821
 3089SOL    HW210167   3.933   2.430   5.333 -0.4731  2.9822 -0.3388
 3090SOL     OW10168   1.138   0.483   0.314 -0.1922  0.3685 -0.6116
 3090SOL    HW110169   1.193   0.403   0.337 -1.3889  0.1568  1.8968
 3090SOL    HW210170   1.140   0.548   0.390 -1.2392  1.5788 -1.5661
 3091SOL     OW10171   1.916   6.735   0.294 -0.0024  0.4874 -0.3388
 3091SOL    HW110172   1.881   6.723   0.386  0.8008  0.2490 -0.0610
 3091SOL    HW210173   2.012   6.762   0.298 -0.2260  1.4583 -1.0780
 3092SOL     OW10174   6.089   5.409   1.320 -0.3532 -0.0340  0.5377
 3092SOL    HW110175   6.072   5.396   1.418 -0.5988 -1.5558  0.3245
 3092SOL    HW210176   6.049   5.333   1.269 -1.6034  1.5271 -0.9094
 3093SOL     OW10177   5.464   0.537   4.764  0.4602 -0.0203 -0.4299
 3093SOL    HW110178   5.433   0.599   4.836  1.6276 -0.1843  0.2321
 3093SOL    HW210179   5.478   0.589   4.680 -0.7316  0.2029 -0.5152
 3094SOL     OW10180   3.306   1.161   4.660 -0.1217 -0.1181 -0.1812
 3094SOL    HW110181   3.255   1.218   4.596 -0.2251  0.4895  0.4257
 3094SOL    HW210182   3.254   1.077   4.678 -1.3318  0.8483  1.0388
 3095SOL     OW10183   1.494   5.370   6.240  0.3682  0.5077  0.2650
 3095SOL    HW110184   1.454   5.408   6.323 -1.5852  1.4455 -1.0175
 3095SOL    HW210185   1.510   5.272   6.253  0.2003  0.6616  1.7718
 3096SOL     OW10186   0.843   3.609   5.431  0.5222 -0.4019  0.2450
 3096SOL    HW110187   0.817   3.670   5.506  1.2495 -0.1094  0.2667
 3096SOL    HW210188   0.856   3.516   5.467 -1.5800 -0.8259  0.0413
 3097SOL     OW10189   5.531   2.072   6.072  0.8162  0.1870 -0.3172
 3097SOL    HW110190   5.507   2.025   6.157  1.1907  0.6732  0.0590
 3097SOL    HW210191   5.477   2.034   5.997 -0.7843  0.8963  0.4228
 3098SOL     OW10192   1.675   3.914   0.894  0.0644  0.4694 -0.1748
 3098SOL    HW110193   1.595   3.961   0.931 -0.9059  0.3927 -2.0480
 3098SOL    HW210194   1.754   3.930   0.954 -0.2782  4.2168 -0.4722
 3099SOL     OW10195   6.626   4.530   3.020 -0.2016 -0.3060  0.2047
 3099SOL    HW110196   6.544   4.566   3.064  0.0008 -1.0009  1.1821
 3099SOL    HW210197   6.605   4.444   2.974  0.3446 -1.5521  2.1410
 3100SOL     OW10198   5.754   2.181   4.447  0.1308 -0.4715 -0.0495
 3100SOL    HW110199   5.693   2.257   4.465  1.5558  0.8890 -0.7180
 3100SOL    HW210200   5.725   2.133   4.364 -0.6745 -0.5792  0.2837
 3101SOL     OW10201   3.498   5.637   0.112  0.4661 -0.2563  0.2264
 3101SOL    HW110202   3.518   5.711   0.048  0.6379 -0.7513 -0.2999
 3101SOL    HW210203   3.582   5.586   0.131  0.2169 -0.7286  0.0655
 3102SOL     OW10204   1.074   6.641   0.935  0.2090 -0.1741 -0.3345
 3102SOL    HW110205   1.032   6.613   1.021  2.0283 -2.5772 -0.1156
 3102SOL    HW210206   1.010   6.627   0.860  0.2622 -3.0417  0.0686
 3103SOL     OW10207   4.450   1.339   1.317 -0.3485  0.0064  0.4576
 3103SOL    HW110208   4.421   1.416   1.259 -1.5188  0.8255  2.0316
 3103SOL    HW210209   4.369   1.297   1.358  0.4723  0.0105  2.1471
 3104SOL     OW10210   3.825   0.179   1.448  0.4351 -0.2993  0.1704
 3104SOL    HW110211   3.777   0.252   1.497 -0.2195 -1.9437  2.1088
 3104SOL    HW210212   3.923   0.192   1.457  0.3593  0.8842 -0.4272
 3105SOL     OW10213   4.614   4.349   0.980  0.3756  0.6288  0.1698
 3105SOL    HW110214   4.547   4.299   0.925  1.8238  0.5331 -1.5757
 3105SOL    HW210215   4.633   4.297   1.064 -0.1789 -0.3607 -0.2980
 3106SOL     OW10216   5.106   6.720   4.841  0.3650  0.1323  0.2513
 3106SOL    HW110217   5.090   6.621   4.839  1.4348 -0.1260  1.9859
 3106SOL    HW210218   5.030   6.765   4.888 -0.5542  0.2777 -1.3061
 3107SOL     OW10219   3.596   6.651   5.166 -0.2288 -0.1618 -0.1799
 3107SOL    HW110220   3.634   6.558   5.169 -0.2458 -0.1918 -0.7461
 3107SOL    HW210221   3.510   6.654   5.217  0.9289  0.1024  1.8484
 3108SOL     OW10222   3.335   6.084   3.530  0.3373  0.3011  0.1778
 3108SOL    HW110223   3.434   6.082   3.520  0.6776  1.3322  2.5168
 3108SOL    HW210224   3.305   6.178   3.549 -0.8288 -0.2563  1.2757
 3109SOL     OW10225   0.129   1.326   2.851  0.0290  0.5942 -0.9324
 3109SOL    HW110226   0.184   1.323   2.768  0.3811 -1.4049 -0.6765
 3109SOL    HW210227   0.163   1.259   2.917  0.0286  2.4027  1.0364
 3110SOL     OW10228   1.735   1.715   2.532  0.2261  0.4511 -0.3289
 3110SOL    HW110229   1.714   1.812   2.525 -0.5529  0.1732 -2.2811
 3110SOL    HW210230   1.653   1.661   2.513  0.5561 -0.6228  1.0776
 3111SOL     OW10231   6.413   4.551   3.334 -0.5861 -0.0142  0.5450
 3111SOL    HW110232   6.436   4.610   3.256  1.1732 -0.2745  0.8222
 3111SOL    HW210233   6.315   4.559   3.354 -0.8653  0.8980 -0.9828
 3112SOL     OW10234   3.344   1.344   6.558 -0.1989  0.0000 -0.6581
 3112SOL    HW110235   3.382   1.362   6.649  0.3070 -1.8931 -0.4586
 3112SOL    HW210236   3.301   1.427   6.523 -0.1810  0.8394  1.1998
 3113SOL     OW10237   2.123   3.319   4.028  0.5468 -0.0425  0.5554
 3113SOL    HW110238   2.118   3.338   4.126 -3.2687 -0.7965  0.6612
 3113SOL    HW210239   2.139   3.221   4.014 -0.1482 -0.1604  0.5126
 3114SOL     OW10240   4.712   1.214   7.001 -0.0848 -0.2008  0.3058
 3114SOL    HW110241   4.657   1.284   7.046 -0.1037 -1.1341  1.8151
 3114SOL    HW210242   4.665   1.126   7.007 -1.4563  0.0217 -4.0888
 3115SOL     OW10243   4.004   3.850   4.230 -0.2691 -0.1301 -0.0473
 3115SOL    HW110244   4.004   3.855   4.130 -1.2326 -0.3061 -0.0662
 3115SOL    HW210245   3.990   3.755   4.259  0.5890 -0.1732  0.2686
 3116SOL     OW10246   5.265   1.495   0.878 -0.1961  0.4043 -0.1907
 3116SOL    HW110247   5.228   1.587   0.869 -0.5186  0.2540 -0.4035
 3116SOL    HW210248   5.330   1.478   0.804  0.5800  0.7928  0.3791
 3117SOL     OW10249   5.405   3.419   5.970  0.2463 -0.1730  0.0239
 3117SOL    HW110250   5.496   3.383   5.949 -0.6320 -3.2293  1.0040
 3117SOL    HW210251   5.413   3.496   6.033  2.2520  1.9615 -2.5886
 3118SOL     OW10252   2.235   6.857   2.924  0.3664  0.5297 -0.2271
 3118SOL    HW110253   2.193   6.778   2.880 -1.6601  1.4875 -0.0907
 3118SOL    HW210254   2.210   6.940   2.875  2.8663  1.1071 -0.6672
 3119SOL     OW10255   3.374   3.765   4.371 -0.3666  0.2022  0.3635
 3119SOL    HW110256   3.469   3.764   4.401 -0.0759  2.8437 -0.2902
 3119SOL    HW210257   3.315   3.789   4.448 -0.4931 -0.9170  0.6399
 3120SOL     OW10258   2.932   6.751   4.365 -0.3862 -0.2452  0.2487
 3120SOL    HW110259   2.950   6.830   4.423 -2.2869 -1.0786  2.0909
 3120SOL    HW210260   2.860   6.773   4.299 -0.3225 -0.1939  0.1959
 3121SOL     OW10261   5.679   1.319   5.311  0.3282 -0.2193 -0.0019
 3121SOL    HW110262   5.640   1.305   5.220 -1.1027 -1.1664  0.7204
 3121SOL    HW210263   5.746   1.247   5.329  1.0140  0.2824 -0.4988
 3122SOL     OW10264   4.006   5.179   5.603  0.7813 -0.4389 -0.8695
 3122SOL    HW110265   3.965   5.124   5.676  1.4809 -0.0678 -0.1873
 3122SOL    HW210266   4.075   5.125   5.555  1.2104 -0.2911 -0.4339
 3123SOL     OW10267   0.042   0.038   2.998 -0.0925 -0.5531  1.1000
 3123SOL    HW110268  -0.018  -0.005   2.931 -0.8218  1.2368  0.5313
 3123SOL    HW210269   0.079  -0.031   3.060  0.1474 -2.1896 -0.7755
 3124SOL     OW10270   3.158   5.475   5.581 -0.0444  0.4851 -0.8152
 3124SOL    HW110271   3.134   5.478   5.678  1.4261  1.9817 -0.4556
 3124SOL    HW210272   3.250   5.436   5.570 -0.1780  0.3680 -1.6086
 3125SOL     OW10273   0.842   2.202   5.850 -0.0095  0.0232  1.1133
 3125SOL    HW110274   0.889   2.271   5.905 -0.8416  0.3983  1.3635
 3125SOL    HW210275   0.816   2.125   5.908  0.7782 -0.4324  0.8654
 3126SOL     OW10276   4.816   4.059   4.972  0.3104 -0.5248 -0.7526
 3126SOL    HW110277   4.864   3.971   4.980 -1.8748 -1.7016  0.5547
 3126SOL    HW210278   4.780   4.068   4.879 -1.4970 -2.2620 -0.3093
 3127SOL     OW10279   0.857   1.281   6.243  0.6575 -0.7322 -0.2561
 3127SOL    HW110280   0.773   1.259   6.193  0.6733  0.6164 -0.9131
 3127SOL    HW210281   0.882   1.376   6.226  0.9507 -0.3678  1.9419
 3128SOL     OW10282   4.220   0.281   1.663  0.2180  0.2963  0.6779
 3128SOL    HW110283   4.134   0.305   1.706  1.1893 -0.5381  3.2507
 3128SOL    HW210284   4.277   0.363   1.653 -0.5426  0.7185 -0.3400
 3129SOL     OW10285   4.056   3.518   1.097 -0.2629 -0.1420 -0.1101
 3129SOL    HW110286   3.978   3.468   1.134 -0.9189  0.6865 -0.3427
 3129SOL    HW210287   4.137   3.459   1.098 -1.1431 -1.4006 -0.9629
 3130SOL     OW10288   1.363   2.822   0.477  0.1048 -0.1904  0.0655
 3130SOL    HW110289   1.286   2.790   0.533  0.0645 -2.9856 -1.3986
 3130SOL    HW210290   1.369   2.767   0.394  1.9276  1.9197 -1.3166
 3131SOL     OW10291   1.994   2.695   2.077  0.7932  0.3676 -0.6015
 3131SOL    HW110292   1.943   2.765   2.026 -0.8191 -0.0154  0.4282
 3131SOL    HW210293   1.999   2.612   2.022  1.2390  0.7385 -1.1345
 3132SOL     OW10294   3.890   3.912   6.845 -0.7418 -0.0341  0.2416
 3132SOL    HW110295   3.815   3.973   6.819  0.1090  0.6327 -0.7248
 3132SOL    HW210296   3.952   3.959   6.907 -1.1153 -0.5946  1.0617
 3133SOL     OW10297   3.923   1.919   2.723 -0.1612 -0.2747 -0.0737
 3133SOL    HW110298   3.869   2.001   2.742 -1.0525 -0.0443 -3.0679
 3133SOL    HW210299   4.013   1.944   2.689 -0.6787 -0.4754 -1.6522
 3134SOL     OW10300   3.011   5.856   1.435  0.1883  0.5051 -0.3618
 3134SOL    HW110301   3.102   5.882   1.402  1.1993 -0.0187  1.8374
 3134SOL    HW210302   3.006   5.873   1.534 -0.8387 -2.7696  0.2544
 3135SOL     OW10303   5.852   4.529   0.219 -0.5011  0.1606  0.1507
 3135SOL    HW110304   5.902   4.477   0.289  0.5989 -0.8520 -1.3280
 3135SOL    HW210305   5.770   4.479   0.192  0.3579 -0.6498 -1.0019
 3136SOL     OW10306   5.348   5.408   1.805 -0.8930 -0.3212  0.6292
 3136SOL    HW110307   5.251   5.390   1.823 -1.6544  0.9742 -1.6497
 3136SOL    HW210308   5.384   5.471   1.874 -1.4491 -1.3418  1.8897
 3137SOL     OW10309   5.971   6.056   2.088  0.1287  0.0916 -0.1629
 3137SOL    HW110310   5.976   6.106   2.001 -1.6357 -0.7332 -0.7746
 3137SOL    HW210311   5.983   6.121   2.164  1.4641  0.8576 -0.9869
 3138SOL     OW10312   6.706   4.375   4.802 -0.3372  0.2504  0.0691
 3138SOL    HW110313   6.759   4.447   4.847  0.4288  1.1066 -2.1040
 3138SOL    HW210314   6.619   4.413   4.769  0.2088  0.3101 -1.3712
 3139SOL     OW10315   2.511   3.151   1.002  0.5081  0.8721  0.3684
 3139SOL    HW110316   2.464   3.228   0.958  0.2426  0.5273  0.0406
 3139SOL    HW210317   2.567   3.185   1.077  0.4224  1.3928  0.2043
 3140SOL     OW10318   6.758   0.047   6.036  0.1736 -0.0490 -0.3037
 3140SOL    HW110319   6.689  -0.006   6.086  0.9793 -0.3526  0.5231
 3140SOL    HW210320   6.844   0.047   6.088  1.0433 -0.3597 -1.6731
 3141SOL     OW10321   6.378   0.454   5.737  0.0018  0.0260  0.3241
 3141SOL    HW110322   6.465   0.452   5.786  0.5768 -0.2787 -0.6937
 3141SOL    HW210323   6.386   0.512   5.656 -0.3125 -1.1264 -0.5598
 3142SOL     OW10324   2.518   6.217   3.035  0.5829  0.6093 -0.4723
 3142SOL    HW110325   2.515   6.155   2.957  0.4194  0.2764 -0.2036
 3142SOL    HW210326   2.608   6.261   3.039  1.0699 -0.3882 -0.0709
 3143SOL     OW10327   6.615   0.424   5.875 -0.3553 -0.2901 -0.2905
 3143SOL    HW110328   6.609   0.388   5.968  1.7028 -0.7307 -0.2749
 3143SOL    HW210329   6.703   0.399   5.836 -1.4613 -0.7738 -2.6603
 3144SOL     OW10330   2.767   3.761   1.416  0.2281  0.5347  0.0137
 3144SOL    HW110331   2.741   3.831   1.349 -1.6211 -1.9909 -2.1128
 3144SOL    HW210332   2.865   3.744   1.411  0.7695  2.9862  0.7237
 3145SOL     OW10333   2.266   0.140   3.184  0.4000  0.7458  0.3243
 3145SOL    HW110334   2.366   0.128   3.186  0.1434 -2.2038  0.2797
 3145SOL    HW210335   2.243   0.212   3.119  2.4706  0.1402 -1.2045
 3146SOL     OW10336   3.215   1.669   3.640  0.6942 -0.5508 -0.2449
 3146SOL    HW110337   3.240   1.761   3.672  0.3105 -0.6137  0.2412
 3146SOL    HW210338   3.192   1.674   3.542 -7.0518  1.6186  1.0156
 3147SOL     OW10339   2.494   5.277   0.849  0.2070  0.9068 -0.2004
 3147SOL    HW110340   2.483   5.360   0.905 -0.3990  0.7933 -0.1441
 3147SOL    HW210341   2.409   5.261   0.798  1.0503  1.5101 -1.8514
 3148SOL     OW10342   0.485   0.809   3.018 -0.0190 -0.6741 -0.1861
 3148SOL    HW110343   0.527   0.745   2.954 -0.6783  0.5586 -1.9272
 3148SOL    HW210344   0.386   0.796   3.018  0.0083 -0.9801  0.9775
 3149SOL     OW10345   2.354   0.947   0.270  0.5898 -0.0732  0.0443
 3149SOL    HW110346   2.421   0.926   0.198  2.1164  0.2178  1.3179
 3149SOL    HW210347   2.347   0.870   0.333 -0.1829 -0.0368  0.0128
 3150SOL     OW10348   7.000   5.197   5.793 -0.7643 -0.4796 -0.1584
 3150SOL    HW110349   7.000   5.208   5.694  1.9349 -0.7394 -0.2667
 3150SOL    HW210350   6.906   5.197   5.827 -1.7515 -0.3808 -2.6897
 3151SOL     OW10351   0.677   2.493   6.064  1.0344  0.3366  0.2754
 3151SOL    HW110352   0.677   2.518   5.967 -1.0692  1.4020  0.4873
 3151SOL    HW210353   0.623   2.410   6.077  0.7050  0.5911  0.5871
 3152SOL     OW10354   0.210   4.499   5.877  0.6206 -0.1264  0.1986
 3152SOL    HW110355   0.248   4.466   5.963 -1.1981 -0.1132  1.0439
 3152SOL    HW210356   0.242   4.441   5.802  1.8419 -0.4274  0.9229
 3153SOL     OW10357   6.491   6.055   0.794 -0.3652  0.9930 -0.0691
 3153SOL    HW110358   6.395   6.085   0.795 -1.5269 -2.2376 -1.3850
 3153SOL    HW210359   6.518   6.031   0.701  1.4231  0.9070  0.4350
 3154SOL     OW10360   6.227   1.959   2.010 -0.0274  0.1691 -0.3000
 3154SOL    HW110361   6.180   2.036   2.053  0.5961  1.0082 -1.0870
 3154SOL    HW210362   6.161   1.901   1.963 -0.4482  0.4727 -0.0822
 3155SOL     OW10363   4.916   5.727   1.001 -0.1848  0.1141 -0.1223
 3155SOL    HW110364   4.880   5.648   0.951  1.4405 -0.7915  0.0760
 3155SOL    HW210365   4.886   5.722   1.097  0.3878 -0.5933  0.0283
 3156SOL     OW10366   3.001   3.780   2.030 -0.2308 -0.4276  0.2178
 3156SOL    HW110367   2.987   3.683   2.050 -0.5530 -0.3041  0.6139
 3156SOL    HW210368   3.094   3.807   2.056 -1.0461  0.0564  3.0159
 3157SOL     OW10369   2.191   3.036   5.549 -0.1017  0.5227 -0.2465
 3157SOL    HW110370   2.181   2.945   5.508 -0.1973  0.2995  0.2659
 3157SOL    HW210371   2.271   3.082   5.510  0.2094  0.0394 -0.1781
 3158SOL     OW10372   3.479   0.731   4.139  0.6345  0.2619 -0.3643
 3158SOL    HW110373   3.384   0.726   4.108  1.1804 -2.4868 -1.9052
 3158SOL    HW210374   3.481   0.773   4.230 -2.1391 -0.1050 -0.0198
 3159SOL     OW10375   5.254   0.164   0.505  0.1472  0.0768 -1.0154
 3159SOL    HW110376   5.317   0.132   0.575  0.4117  2.3694 -0.1406
 3159SOL    HW210377   5.301   0.226   0.442 -0.8985  0.7602 -1.1562
 3160SOL     OW10378   1.662   6.472   5.487 -0.1069 -0.5571 -0.0750
 3160SOL    HW110379   1.689   6.376   5.497 -1.1821 -1.0141 -1.3245
 3160SOL    HW210380   1.603   6.482   5.407  1.2606  1.4269 -0.9165
 3161SOL     OW10381   1.572   2.439   2.326  0.7164 -0.2419 -0.3367
 3161SOL    HW110382   1.596   2.533   2.301  0.1087 -0.4196 -1.6498
 3161SOL    HW210383   1.632   2.375   2.279  0.7080 -0.5463  0.0577
 3162SOL     OW10384   0.434   5.125   2.364 -0.3679  0.3928 -0.2736
 3162SOL    HW110385   0.388   5.085   2.443  3.1597 -1.0497  1.2877
 3162SOL    HW210386   0.448   5.223   2.380 -0.5814  0.3160  0.4152
 3163SOL     OW10387   1.822   4.706   0.075  0.2987  0.3957  0.3398
 3163SOL    HW110388   1.901   4.747   0.122 -0.5083  0.0143  2.1155
 3163SOL    HW210389   1.763   4.661   0.143  0.4627 -2.6071 -1.3425
 3164SOL     OW10390   3.455   6.593   3.774 -0.3998 -0.2809 -0.3884
 3164SOL    HW110391   3.488   6.559   3.862 -0.6663 -0.2524 -0.2773
 3164SOL    HW210392   3.361   6.561   3.759 -0.2955 -0.4279 -0.7386
 3165SOL     OW10393   1.241   4.862   1.314 -0.3779  0.3651 -0.3503
 3165SOL    HW110394   1.256   4.832   1.220  2.3131 -0.7552  0.3472
 3165SOL    HW210395   1.272   4.957   1.324 -0.9102  0.5733 -0.6261
 3166SOL     OW10396   6.146   2.813   4.368  0.1060 -0.2406 -0.4185
 3166SOL    HW110397   6.226   2.851   4.321 -1.7078  0.6356 -3.0729
 3166SOL    HW210398   6.075   2.883   4.372 -0.8452 -1.2627  1.1134
 3167SOL     OW10399   0.306   5.601   6.544 -0.3110  0.2308  0.5469
 3167SOL    HW110400   0.373   5.581   6.616 -1.1148  1.5333  1.7206
 3167SOL    HW210401   0.353   5.615   6.457  0.9936  1.3014  1.3721
 3168SOL     OW10402   0.481   2.291   0.937  0.4641 -0.1918 -0.3808
 3168SOL    HW110403   0.560   2.277   0.876  1.2640 -0.1599  0.6185
 3168SOL    HW210404   0.493   2.235   1.019 -1.7420 -2.1089 -1.2411
 3169SOL     OW10405   2.109   4.423   3.731  1.0492  0.2726  0.7713
 3169SOL    HW110406   2.082   4.349   3.669  0.4820  0.4925  0.7563
 3169SOL    HW210407   2.204   4.448   3.712  1.1052 -0.1426  0.4698
 3170SOL     OW10408   4.080   6.378   4.660 -0.3869  0.0960 -0.5760
 3170SOL    HW110409   4.006   6.404   4.722  0.4229  0.2404  0.3573
 3170SOL    HW210410   4.155   6.339   4.712  0.1179 -0.2534 -1.5337
 3171SOL     OW10411   0.339   2.928   1.014  0.1100 -0.8191  0.0182
 3171SOL    HW110412   0.376   2.947   1.105  1.4406  1.2034 -0.8689
 3171SOL    HW210413   0.288   3.008   0.981 -0.7665 -1.7001 -0.8446
 3172SOL     OW10414   1.105   5.040   1.646  0.1500  0.7697 -0.3668
 3172SOL    HW110415   1.058   4.959   1.610  0.1578  1.2092 -1.3951
 3172SOL    HW210416   1.198   5.016   1.673  0.6058  0.6928 -1.9102
 3173SOL     OW10417   2.232   2.246   1.116  0.6287  0.5442 -0.1328
 3173SOL    HW110418   2.268   2.285   1.031 -0.0101  2.9590  0.6329
 3173SOL    HW210419   2.247   2.310   1.191  0.6693 -1.2898  1.5013
 3174SOL     OW10420   3.939   2.354   6.629 -0.3642  0.7476 -0.0973
 3174SOL    HW110421   4.029   2.313   6.620 -0.5200  0.2539  0.5729
 3174SOL    HW210422   3.870   2.290   6.595 -0.3688  1.6397 -1.8696
 3175SOL     OW10423   5.608   2.544   1.993 -0.5251  0.9476  0.0824
 3175SOL    HW110424   5.569   2.499   1.913 -0.7511  0.6704  0.3449
 3175SOL    HW210425   5.699   2.507   2.012 -0.1997  1.4647 -0.4207
 3176SOL     OW10426   0.969   1.667   4.361 -0.8462  0.8125 -0.9980
 3176SOL    HW110427   1.026   1.727   4.305  1.0529 -0.1761 -0.1834
 3176SOL    HW210428   0.941   1.587   4.306  1.6815 -0.5652 -0.4064
 3177SOL     OW10429   6.205   4.948   3.347 -0.0670  0.2776  0.3242
 3177SOL    HW110430   6.193   4.920   3.443  0.4822 -0.4318  0.1939
 3177SOL    HW210431   6.131   4.911   3.292  0.5837 -0.8524  0.1760
 3178SOL     OW10432   6.556   2.377   6.831  0.0557  0.6397  0.4029
 3178SOL    HW110433   6.540   2.395   6.734  1.9998  0.5554  0.0260
 3178SOL    HW210434   6.488   2.425   6.886 -0.5319  1.4149 -0.9705
 3179SOL     OW10435   1.724   0.651   0.057  0.4617  0.5055 -0.1366
 3179SOL    HW110436   1.771   0.726   0.011  1.6834 -0.9733 -1.3839
 3179SOL    HW210437   1.692   0.585  -0.011  0.5068 -0.7276  1.0019
 3180SOL     OW10438   4.545   6.201   7.012  0.0107  0.7070 -0.4126
 3180SOL    HW110439   4.573   6.278   6.954  1.9425 -0.7921 -1.6024
 3180SOL    HW210440   4.570   6.116   6.967  0.5836 -0.5716  2.1696
 3181SOL     OW10441   0.991   1.916   5.063 -0.2522  0.0602  0.2902
 3181SOL    HW110442   0.904   1.966   5.065 -0.6221 -0.6121  1.4469
 3181SOL    HW210443   1.041   1.933   5.147  0.2544 -0.4048  0.0853
 3182SOL     OW10444   2.889   0.422   5.196  0.0891  0.2028 -0.6184
 3182SOL    HW110445   2.875   0.416   5.097 -0.7649 -1.3123 -0.4412
 3182SOL    HW210446   2.915   0.333   5.232 -0.1395  0.6023  0.6015
 3183SOL     OW10447   4.311   6.078   0.268  0.1602  0.1875 -0.1087
 3183SOL    HW110448   4.388   6.120   0.221  1.0358 -0.4206  0.7449
 3183SOL    HW210449   4.336   6.058   0.363 -1.0577  0.0007  0.2008
 3184SOL     OW10450   1.287   1.421   1.278  0.0841  0.1636 -0.0931
 3184SOL    HW110451   1.256   1.473   1.357  0.5457  0.1604  0.0927
 3184SOL    HW210452   1.285   1.479   1.196 -2.2010 -0.3500 -0.4676
 3185SOL     OW10453   5.502   6.547   5.039  0.0828  0.5701 -0.1317
 3185SOL    HW110454   5.549   6.525   4.954  0.5268 -0.1140  0.2812
 3185SOL    HW210455   5.467   6.463   5.081 -0.5677  0.9555  0.1098
 3186SOL     OW10456   4.128   2.844   1.515 -0.0493  0.2879 -0.4315
 3186SOL    HW110457   4.158   2.823   1.422  0.0861  1.2789 -0.6153
 3186SOL    HW210458   4.036   2.809   1.529  0.3194 -0.7894 -0.5944
 3187SOL     OW10459   1.891   6.559   2.281  0.6136  0.3420  0.0784
 3187SOL    HW110460   1.905   6.658   2.294  1.7866  0.2922 -0.7441
 3187SOL    HW210461   1.848   6.521   2.364  0.6649  1.4341  0.6270
 3188SOL     OW10462   1.225   5.801   4.195 -0.1522  0.2637  0.6461
 3188SOL    HW110463   1.199   5.839   4.283  0.3588  1.0959  0.4407
 3188SOL    HW210464   1.321   5.774   4.197 -0.5345 -1.1784  0.8367
 3189SOL     OW10465   0.171   0.823   0.457 -0.6872 -0.5820  0.4513
 3189SOL    HW110466   0.195   0.727   0.470  1.4656  0.2060  3.5634
 3189SOL    HW210467   0.086   0.843   0.508 -0.9147 -0.7475  0.1378
 3190SOL     OW10468   0.756   4.823   6.449 -0.0313  0.1146  0.4666
 3190SOL    HW110469   0.727   4.919   6.447  0.3487  0.3040  2.2722
 3190SOL    HW210470   0.690   4.770   6.503  0.0333 -0.5651 -0.1029
 3191SOL     OW10471   4.280   4.756   2.483 -0.6998 -0.4768 -0.8564
 3191SOL    HW110472   4.227   4.792   2.560  1.8609  2.6439 -0.2789
 3191SOL    HW210473   4.360   4.707   2.518 -0.0548  0.0745 -1.5165
 3192SOL     OW10474   2.631   2.771   6.556  0.1204  0.2641 -0.1674
 3192SOL    HW110475   2.661   2.757   6.462 -1.1482  0.4624 -0.6276
 3192SOL    HW210476   2.556   2.708   6.577 -0.2819  0.8978  0.3572
 3193SOL     OW10477   5.228   1.059   4.722 -0.0265 -0.5073 -0.3857
 3193SOL    HW110478   5.253   1.008   4.640 -1.2411  0.1549 -1.1944
 3193SOL    HW210479   5.260   1.154   4.713 -1.1444 -0.1394 -0.6139
 3194SOL     OW10480   1.088   0.916   6.020 -0.1942  0.1361  0.3346
 3194SOL    HW110481   1.052   1.007   6.003 -0.4241 -0.1684 -0.9402
 3194SOL    HW210482   1.183   0.910   5.987  0.3662  0.3383  1.8111
 3195SOL     OW10483   6.769   0.181   1.624 -0.0373 -0.1702  0.3054
 3195SOL    HW110484   6.850   0.143   1.670  0.1742  1.4869  1.3843
 3195SOL    HW210485   6.687   0.151   1.673 -0.2246 -2.6242 -1.3327
 3196SOL     OW10486   6.236   0.131   0.056 -0.0381 -0.4571 -0.7255
 3196SOL    HW110487   6.321   0.079   0.040  0.2753 -0.1593 -0.0959
 3196SOL    HW210488   6.190   0.094   0.138  0.3589  0.4521 -0.0761
 3197SOL     OW10489   1.761   2.023   5.341  0.1882  0.5625  0.8585
 3197SOL    HW110490   1.861   2.022   5.346  0.2658 -1.2413 -0.2557
 3197SOL    HW210491   1.732   2.070   5.258  0.3312 -2.3241 -0.9634
 3198SOL     OW10492   5.294   3.210   2.710 -0.0359  0.3358 -0.8658
 3198SOL    HW110493   5.389   3.183   2.721 -0.1292 -0.3158 -1.5512
 3198SOL    HW210494   5.241   3.132   2.677 -1.3841 -0.1249  2.1237
 3199SOL     OW10495   5.088   4.017   2.922 -0.7234  0.3278  0.3211
 3199SOL    HW110496   5.096   4.113   2.895 -0.4607  0.8201  2.0267
 3199SOL    HW210497   5.133   4.004   3.010 -0.4383 -1.4574 -0.0554
 3200SOL     OW10498   6.620   3.169   3.040 -0.1998  0.1244 -0.0862
 3200SOL    HW110499   6.702   3.117   3.016 -1.0554 -2.1001  1.5071
 3200SOL    HW210500   6.567   3.187   2.957  1.4488  0.9152 -1.0288
 3201SOL     OW10501   5.539   4.508   2.820 -0.2663 -0.2984  0.6220
 3201SOL    HW110502   5.554   4.410   2.807 -1.0696 -0.3470 -0.0089
 3201SOL    HW210503   5.600   4.541   2.892 -1.3980 -1.6583  2.2713
 3202SOL     OW10504   0.973   4.330   5.680  0.6115  0.1273  0.1064
 3202SOL    HW110505   1.036   4.405   5.698 -1.5355  1.7646  1.3256
 3202SOL    HW210506   0.939   4.336   5.586  1.0246  0.2160 -0.0376
 3203SOL     OW10507   4.500   0.262   0.800  0.5372 -0.3546 -0.0931
 3203SOL    HW110508   4.588   0.219   0.780 -0.6864 -2.6488 -0.9396
 3203SOL    HW210509   4.486   0.339   0.738  0.9122 -1.5189 -1.7029
 3204SOL     OW10510   4.468   6.432   4.935 -0.7443  0.1882  0.4270
 3204SOL    HW110511   4.402   6.500   4.901  0.4076  1.4529  0.6301
 3204SOL    HW210512   4.466   6.430   5.035  1.0541  1.8878  0.5514
 3205SOL     OW10513   4.771   4.622   6.937  1.0614  0.5035  0.1880
 3205SOL    HW110514   4.754   4.701   6.879 -0.0065  1.8510  2.2119
 3205SOL    HW210515   4.867   4.619   6.962  1.1912  0.8887 -0.2567
 3206SOL     OW10516   1.984   4.567   0.925  0.2063 -0.2673  0.3861
 3206SOL    HW110517   1.919   4.628   0.879  1.3701  2.0480  1.6024
 3206SOL    HW210518   1.934   4.502   0.982 -1.0976 -0.6821 -1.1460
 3207SOL     OW10519   1.727   6.669   4.447 -0.3258 -0.1133 -0.0897
 3207SOL    HW110520   1.785   6.696   4.524  0.0055 -1.3882  0.1339
 3207SOL    HW210521   1.750   6.575   4.419 -3.1159 -1.1736  0.8480
 3208SOL     OW10522   3.645   0.243   1.118 -0.1860  0.6774  0.5501
 3208SOL    HW110523   3.569   0.249   1.052 -0.4402  1.9511  0.9209
 3208SOL    HW210524   3.612   0.269   1.209  0.1397 -1.1592  1.2256
 3209SOL     OW10525   3.305   5.068   6.049 -0.8750 -0.5164 -0.1150
 3209SOL    HW110526   3.356   5.085   6.133 -2.0161  0.4869  0.4031
 3209SOL    HW210527   3.253   4.983   6.058 -0.3666 -0.8282 -0.1178
 3210SOL     OW10528   1.192   5.292   0.721  0.0854 -0.3943  0.1928
 3210SOL    HW110529   1.116   5.327   0.776 -2.0464 -4.2851  0.1013
 3210SOL    HW210530   1.270   5.272   0.779 -0.7551 -0.8711  1.1829
 3211SOL     OW10531   3.146   6.690   0.455  0.2907  0.3297 -0.0010
 3211SOL    HW110532   3.193   6.615   0.501 -1.0924 -0.9955 -0.6304
 3211SOL    HW210533   3.207   6.769   0.448  2.3661 -1.2247 -0.6377
 3212SOL     OW10534   2.584   6.384   4.265 -0.2186  0.0851 -1.1483
 3212SOL    HW110535   2.678   6.399   4.232 -0.2524  1.1116 -0.8054
 3212SOL    HW210536   2.586   6.324   4.344  0.1018 -0.2811 -1.4262
 3213SOL     OW10537   0.863   0.704   0.181 -0.0849  0.3412  0.2938
 3213SOL    HW110538   0.863   0.775   0.252 -0.3658  0.8025 -0.1665
 3213SOL    HW210539   0.799   0.632   0.206  0.8018 -0.1720  1.1733
 3214SOL     OW10540   2.580   5.821   0.830  0.5244  0.3314  0.2703
 3214SOL    HW110541   2.590   5.798   0.927  1.3238  0.9120  0.3372
 3214SOL    HW210542   2.661   5.871   0.799 -1.2940  3.6141  0.2877
 3215SOL     OW10543   1.235   4.862   2.590  0.1001 -0.3309 -0.1630
 3215SOL    HW110544   1.137   4.850   2.606  0.4566 -1.4279  1.4615
 3215SOL    HW210545   1.274   4.776   2.556  0.7804 -0.4388  0.8450
 3216SOL     OW10546   4.625   5.880   6.944 -0.3747 -0.4897 -0.5589
 3216SOL    HW110547   4.670   5.868   6.855  0.1429 -1.5452 -0.1652
 3216SOL    HW210548   4.528   5.859   6.935 -0.0678 -1.9676 -0.5885
 3217SOL     OW10549   1.284   5.050   4.700 -0.3102  0.4326  0.5542
 3217SOL    HW110550   1.315   4.969   4.650 -1.1516  0.3441  0.1550
 3217SOL    HW210551   1.363   5.103   4.730  0.2415 -0.3411  0.4982
 3218SOL     OW10552   4.887   3.429   3.763 -0.3041  0.7220 -0.2492
 3218SOL    HW110553   4.870   3.395   3.856 -1.6025 -2.2419 -1.4457
 3218SOL    HW210554   4.983   3.457   3.755  0.2130 -0.3660  1.5810
 3219SOL     OW10555   6.327   0.081   4.453 -0.3045 -0.0307 -0.1735
 3219SOL    HW110556   6.359  -0.013   4.442 -0.5201 -0.0637 -0.5507
 3219SOL    HW210557   6.396   0.136   4.499 -0.5366 -0.5951  0.8784
 3220SOL     OW10558   6.376   4.865   6.227 -0.5197 -0.1518  0.2908
 3220SOL    HW110559   6.472   4.885   6.209 -0.0379 -1.0488  1.6745
 3220SOL    HW210560   6.367   4.769   6.256 -1.8688 -0.1576 -0.0663
 3221SOL     OW10561   2.595   6.730   2.765  0.6126  1.0896 -0.5568
 3221SOL    HW110562   2.690   6.699   2.756  0.3533  0.2272 -0.4480
 3221SOL    HW210563   2.535   6.650   2.769  0.0025  1.5929  0.7938
 3222SOL     OW10564   1.750   5.437   3.861  0.0463  0.5339  0.2968
 3222SOL    HW110565   1.820   5.467   3.926  0.0524  2.9651 -0.7154
 3222SOL    HW210566   1.688   5.513   3.841 -2.1847 -1.2042  0.2235
 3223SOL     OW10567   1.775   1.752   1.079 -0.3559  0.2047  0.6988
 3223SOL    HW110568   1.702   1.730   1.143 -1.9355  0.7926 -0.8237
 3223SOL    HW210569   1.861   1.713   1.112 -1.1720  0.1483  2.9332
 3224SOL     OW10570   6.127   2.893   2.180  0.1108 -0.7384 -0.0354
 3224SOL    HW110571   6.220   2.864   2.205  0.4566  1.0656  0.9861
 3224SOL    HW210572   6.082   2.932   2.261  0.0562  2.3645 -1.4462
 3225SOL     OW10573   4.527   0.980   5.619  0.2287 -0.3466 -0.1179
 3225SOL    HW110574   4.494   0.918   5.690 -1.2886 -0.2268 -0.6856
 3225SOL    HW210575   4.597   0.933   5.565  2.2922 -0.0526  2.1058
 3226SOL     OW10576   2.566   0.036   1.819 -0.1732 -0.6053  0.2328
 3226SOL    HW110577   2.620   0.062   1.900  0.9145  1.0620 -0.9550
 3226SOL    HW210578   2.479   0.085   1.820  0.2021  0.0813 -0.0133
 3227SOL     OW10579   4.892   3.116   6.733 -0.3686  0.6590 -0.2899
 3227SOL    HW110580   4.815   3.180   6.734 -0.0102  1.1321 -1.4017
 3227SOL    HW210581   4.875   3.045   6.664 -0.5382 -0.1880  0.5951
 3228SOL     OW10582   0.544   4.450   0.367  0.3935 -0.2235  0.0631
 3228SOL    HW110583   0.458   4.487   0.402  1.5769  2.7989  0.0564
 3228SOL    HW210584   0.548   4.463   0.268  0.6085 -1.0237 -0.0475
 3229SOL     OW10585   2.561   0.247   6.925 -0.2672  1.2942 -0.4991
 3229SOL    HW110586   2.485   0.308   6.949  0.2376  1.3364  1.1069
 3229SOL    HW210587   2.525   0.165   6.881 -1.2538  1.2836  0.2880
 3230SOL     OW10588   2.279   4.602   5.040  0.4459 -0.0387 -0.0397
 3230SOL    HW110589   2.257   4.519   5.091 -3.5596 -0.9596 -2.8936
 3230SOL    HW210590   2.329   4.579   4.957  0.8253  0.6605 -0.0212
 3231SOL     OW10591   1.217   0.237   4.240 -0.3980 -0.4901  0.2810
 3231SOL    HW110592   1.166   0.168   4.189 -0.1450  0.4355 -1.2900
 3231SOL    HW210593   1.315   0.220   4.231 -0.3590 -0.8476  1.2549
 3232SOL     OW10594   3.619   6.180   4.562 -0.0330  0.5929  0.0172
 3232SOL    HW110595   3.709   6.223   4.551 -0.4278  1.5641  0.3990
 3232SOL    HW210596   3.569   6.186   4.476  0.5819 -0.7495 -0.4592
 3233SOL     OW10597   0.728   2.580   0.227 -0.4152  0.2834  0.2366
 3233SOL    HW110598   0.809   2.604   0.173 -0.7666  1.8392  0.3672
 3233SOL    HW210599   0.756   2.553   0.319 -0.0107  0.3094  0.1231
 3234SOL     OW10600   6.702   1.656   6.088 -0.8010  0.2851  0.3299
 3234SOL    HW110601   6.730   1.560   6.095 -1.2348  0.2374  1.7156
 3234SOL    HW210602   6.777   1.715   6.120 -1.4594  0.2558  2.0325
 3235SOL     OW10603   6.245   6.904   2.597 -0.1118 -0.8192 -0.2724
 3235SOL    HW110604   6.165   6.949   2.557 -1.5913 -2.5196  0.5929
 3235SOL    HW210605   6.215   6.823   2.647  2.0634 -0.8674  1.0755
 3236SOL     OW10606   1.110   2.464   1.379  0.2503 -0.5979 -0.2518
 3236SOL    HW110607   1.082   2.517   1.459 -0.5874 -2.9022  1.0573
 3236SOL    HW210608   1.106   2.523   1.298 -0.2886  1.4117  1.1472
 3237SOL     OW10609   6.592   2.229   1.369 -0.4573  0.4131  0.0762
 3237SOL    HW110610   6.647   2.150   1.341 -1.3783  0.1195 -0.9922
 3237SOL    HW210611   6.550   2.210   1.458  0.9690  0.5663  0.8224
 3238SOL     OW10612   1.470   0.359   0.124 -0.6554  0.2581 -0.5307
 3238SOL    HW110613   1.559   0.314   0.128 -0.8304 -0.0760 -0.3570
 3238SOL    HW210614   1.412   0.327   0.198 -0.8494  0.6368 -0.5127
 3239SOL     OW10615   6.888   0.115   2.006  0.1268 -0.0845  0.0538
 3239SOL    HW110616   6.960   0.134   1.940 -0.0390  1.1357  0.2011
 3239SOL    HW210617   6.887   0.018   2.028 -0.1320 -0.6217 -2.1160
 3240SOL     OW10618   0.621   1.125   0.373 -0.4516  0.0547  0.6030
 3240SOL    HW110619   0.532   1.082   0.365  0.7107 -2.4874  0.2017
 3240SOL    HW210620   0.673   1.081   0.447  1.3828 -0.4126 -0.8614
 3241SOL     OW10621   5.310   5.957   5.246 -0.2700  0.1115 -0.0301
 3241SOL    HW110622   5.263   6.027   5.191 -0.8245 -0.1604  0.0930
 3241SOL    HW210623   5.396   5.932   5.201 -1.6166 -1.5288 -1.8374
 3242SOL     OW10624   4.299   3.837   5.303 -0.8678 -0.6471  0.2390
 3242SOL    HW110625   4.199   3.847   5.299 -0.7222  1.3983  0.9831
 3242SOL    HW210626   4.323   3.743   5.278 -3.0647 -1.5855  1.3433
 3243SOL     OW10627   2.069   6.895   6.550  0.3754 -0.4696  0.3973
 3243SOL    HW110628   2.051   6.911   6.647  3.0482 -2.2069  1.2988
 3243SOL    HW210629   2.032   6.806   6.523  1.7549 -1.1017  0.5210
 3244SOL     OW10630   3.350   4.904   6.761 -0.0724  0.6128  0.4902
 3244SOL    HW110631   3.436   4.948   6.735  0.9631 -1.7814 -0.4241
 3244SOL    HW210632   3.280   4.924   6.692  0.8854 -0.5430 -0.8803
 3245SOL     OW10633   6.850   2.094   4.804 -0.1745 -0.0770  0.2511
 3245SOL    HW110634   6.808   2.159   4.866 -0.1151 -0.9422  1.2304
 3245SOL    HW210635   6.797   2.089   4.719 -0.3101  1.0427  0.2596
 3246SOL     OW10636   6.289   0.649   1.450  0.1352 -0.1569  0.6653
 3246SOL    HW110637   6.315   0.736   1.491  1.1956 -0.7739  1.3645
 3246SOL    HW210638   6.202   0.658   1.403  0.5992  1.4828  0.0639
 3247SOL     OW10639   5.462   4.795   2.331  0.3183  0.0015 -0.0174
 3247SOL    HW110640   5.542   4.853   2.346 -0.4646  0.5135  2.6928
 3247SOL    HW210641   5.399   4.840   2.268  2.4329 -0.8159 -2.9548
 3248SOL     OW10642   6.953   3.703   1.728  0.2253 -0.2826 -0.2018
 3248SOL    HW110643   6.899   3.663   1.654  0.6968 -2.4342  0.5577
 3248SOL    HW210644   6.957   3.802   1.716 -0.2252 -0.5008 -2.7057
 3249SOL     OW10645   3.903   3.937   3.423  0.5820 -0.1897  0.1359
 3249SOL    HW110646   3.877   3.925   3.519 -1.1811 -0.8728 -0.3864
 3249SOL    HW210647   3.869   4.025   3.390  0.9868 -0.0567  0.0726
 3250SOL     OW10648   4.340   0.034   3.054 -0.3119  0.0965 -0.3556
 3250SOL    HW110649   4.431  -0.005   3.065 -0.6695 -0.6043  0.2243
 3250SOL    HW210650   4.331   0.116   3.110  0.2850  0.7506 -1.1976
 3251SOL     OW10651   1.735   2.218   4.586 -0.8966 -0.5052 -0.5594
 3251SOL    HW110652   1.775   2.307   4.609  0.1851 -1.3021  0.8294
 3251SOL    HW210653   1.752   2.154   4.661 -3.5292 -1.3241 -0.5783
 3252SOL     OW10654   1.795   0.730   2.557  0.7104 -0.1205 -0.4619
 3252SOL    HW110655   1.720   0.795   2.571  1.4787  0.3601  1.8523
 3252SOL    HW210656   1.762   0.652   2.503 -0.6790  1.3571 -1.8451
 3253SOL     OW10657   4.454   4.423   0.467 -0.1050  0.3845 -0.0437
 3253SOL    HW110658   4.488   4.427   0.373 -0.0771  0.6391 -0.0234
 3253SOL    HW210659   4.506   4.487   0.524  0.3796 -0.3124  0.3099
 3254SOL     OW10660   4.372   1.307   0.415  0.2450 -0.4916 -0.0735
 3254SOL    HW110661   4.383   1.381   0.481  2.5825  0.2983 -1.2437
 3254SOL    HW210662   4.277   1.276   0.416 -0.1517  0.5582  2.4691
 3255SOL     OW10663   5.428   1.413   0.666  0.1061 -0.1521  0.2294
 3255SOL    HW110664   5.502   1.381   0.607 -0.7394 -0.8352 -0.4916
 3255SOL    HW210665   5.346   1.429   0.611  0.0108  1.6314  0.8487
 3256SOL     OW10666   3.370   1.876   6.869  0.1454 -0.1593  0.1368
 3256SOL    HW110667   3.339   1.944   6.935 -1.2863  0.5469 -1.1927
 3256SOL    HW210668   3.470   1.878   6.864  0.1701  1.3786  0.6365
 3257SOL     OW10669   2.583   2.364   2.578 -0.1548  0.0114 -0.6819
 3257SOL    HW110670   2.658   2.347   2.514 -1.4864 -1.7152 -1.8685
 3257SOL    HW210671   2.532   2.445   2.549  0.2950  0.2503 -0.8035
 3258SOL     OW10672   2.973   5.761   3.776  0.1712  0.6443 -0.5817
 3258SOL    HW110673   2.918   5.816   3.839  0.0359  1.0863 -1.0779
 3258SOL    HW210674   2.999   5.817   3.697  2.1007  0.7148  0.0637
 3259SOL     OW10675   3.988   5.395   5.394 -0.2573 -0.6848 -0.3202
 3259SOL    HW110676   3.990   5.355   5.485  0.1347  1.4628  0.6677
 3259SOL    HW210677   3.898   5.437   5.378  0.3454  0.7912 -0.0349
 3260SOL     OW10678   2.458   4.382   1.834  0.3007 -0.5454  0.4064
 3260SOL    HW110679   2.473   4.479   1.854 -0.4459 -0.0894 -1.1255
 3260SOL    HW210680   2.547   4.337   1.823  0.6609  0.3951 -0.7604
 3261SOL     OW10681   5.428   1.574   2.355 -0.1025 -0.1355  0.3337
 3261SOL    HW110682   5.444   1.527   2.268  2.2049  0.9652  0.0901
 3261SOL    HW210683   5.392   1.666   2.336 -1.2563 -0.5062  0.6517
 3262SOL     OW10684   5.826   2.451   1.150  0.7638  0.1885 -0.3280
 3262SOL    HW110685   5.830   2.538   1.199  0.8390 -0.7503  1.3804
 3262SOL    HW210686   5.901   2.392   1.180  1.5673  0.0147 -2.4957
 3263SOL     OW10687   0.827   6.679   4.126 -0.1281  0.1464  0.2843
 3263SOL    HW110688   0.892   6.615   4.085  1.3354  2.4176 -1.1995
 3263SOL    HW210689   0.796   6.744   4.056  1.2928  3.2667  2.3119
 3264SOL     OW10690   2.565   6.164   6.916  0.2731  0.8633  0.4960
 3264SOL    HW110691   2.606   6.076   6.939 -1.4352  0.2202  1.2405
 3264SOL    HW210692   2.634   6.236   6.923  1.8085 -0.4447 -0.5617
 3265SOL     OW10693   6.137   0.805   4.206 -0.9567 -0.3820 -0.1944
 3265SOL    HW110694   6.053   0.794   4.260 -1.5403  1.6628 -0.5896
 3265SOL    HW210695   6.123   0.876   4.137  0.8951 -0.4969 -0.7398
 3266SOL     OW10696   2.673   4.047   0.267  0.2396 -0.5492  0.0209
 3266SOL    HW110697   2.758   3.999   0.247 -1.3880 -3.6250 -0.0737
 3266SOL    HW210698   2.618   3.993   0.330 -1.2682  1.8310  0.8992
 3267SOL     OW10699   4.062   0.266   2.275  0.0266  0.5275 -0.5900
 3267SOL    HW110700   4.048   0.205   2.197  1.4104 -1.8704  0.9272
 3267SOL    HW210701   4.074   0.213   2.358 -0.7923  2.9865  1.2369
 3268SOL     OW10702   1.038   3.401   0.845 -0.3561 -0.0319 -1.0369
 3268SOL    HW110703   1.136   3.377   0.845  0.0749  1.5868 -0.1906
 3268SOL    HW210704   1.021   3.469   0.916 -2.2660 -0.8351 -0.6701
 3269SOL     OW10705   6.672   5.341   2.476  0.1329  0.0049  0.3161
 3269SOL    HW110706   6.736   5.334   2.399  0.3850  0.0969  0.5155
 3269SOL    HW210707   6.723   5.338   2.562 -0.1728 -0.3820  0.4857
 3270SOL     OW10708   2.374   3.162   5.909 -0.2289 -0.6373 -0.2861
 3270SOL    HW110709   2.337   3.075   5.877 -1.1811 -1.3441  2.4811
 3270SOL    HW210710   2.308   3.235   5.891 -0.8900 -1.0766  0.3244
 3271SOL     OW10711   0.984   3.902   2.253  0.2606 -0.1745 -0.2669
 3271SOL    HW110712   0.992   3.807   2.222 -0.7328 -0.1323 -0.6773
 3271SOL    HW210713   1.072   3.949   2.239  1.1741 -1.3589  1.1338
 3272SOL     OW10714   4.044   4.857   6.402  1.0751  1.2906  0.0110
 3272SOL    HW110715   4.046   4.903   6.491  1.6712  0.2841  0.5284
 3272SOL    HW210716   4.114   4.786   6.398 -0.9798 -0.8962 -0.0342
 3273SOL     OW10717   4.796   4.379   0.561 -0.3730 -0.3387  0.5151
 3273SOL    HW110718   4.816   4.393   0.464 -0.0146  2.0057  0.8833
 3273SOL    HW210719   4.739   4.453   0.594 -1.1888 -1.5554  1.9335
 3274SOL     OW10720   4.854   0.470   0.246 -0.3740  0.6663 -0.2887
 3274SOL    HW110721   4.756   0.471   0.228 -0.3792  0.4294 -0.2740
 3274SOL    HW210722   4.869   0.487   0.344 -0.4077  0.5688 -0.2658
 3275SOL     OW10723   3.848   0.723   5.192  0.3918  0.0746 -0.6666
 3275SOL    HW110724   3.846   0.650   5.261  0.6553  0.9497  0.2876
 3275SOL    HW210725   3.776   0.706   5.125  0.2581 -0.9099 -0.3021
 3276SOL     OW10726   1.521   5.585   6.694 -0.5606  0.6844 -0.1307
 3276SOL    HW110727   1.494   5.496   6.731 -0.7403  0.0958 -1.6062
 3276SOL    HW210728   1.453   5.654   6.720 -0.7214  0.2795  0.5373
 3277SOL     OW10729   2.212   0.924   6.783 -0.0221 -0.1930 -0.1168
 3277SOL    HW110730   2.309   0.946   6.783 -0.2287  0.7864 -0.6113
 3277SOL    HW210731   2.174   0.939   6.874  0.1185  0.2586 -0.1294
 3278SOL     OW10732   1.165   0.364   5.825  0.4064 -0.4112 -0.4013
 3278SOL    HW110733   1.197   0.439   5.767  0.9560 -1.1120 -1.0307
 3278SOL    HW210734   1.066   0.354   5.814  0.1216  1.0103  0.6549
 3279SOL     OW10735   4.372   0.906   1.121  0.4609  0.3228 -0.3143
 3279SOL    HW110736   4.362   1.000   1.089  0.0323  0.3521 -0.1010
 3279SOL    HW210737   4.455   0.897   1.176  0.2205  0.7064  0.1189
 3280SOL     OW10738   3.473   5.016   5.439  0.2582  0.3259 -0.7210
 3280SOL    HW110739   3.471   5.001   5.538 -0.5957  4.7017  0.1344
 3280SOL    HW210740   3.407   4.955   5.395 -2.5176  1.1194  1.9954
 3281SOL     OW10741   1.968   5.088   0.494  1.1342  0.2151  0.5446
 3281SOL    HW110742   2.017   5.041   0.568 -0.2760  0.0473  1.4243
 3281SOL    HW210743   1.914   5.163   0.533  1.0456  0.6771 -0.4459
 3282SOL     OW10744   6.162   4.135   4.538 -0.3238 -0.1893  0.1697
 3282SOL    HW110745   6.141   4.233   4.536 -1.3925 -0.4203 -1.0228
 3282SOL    HW210746   6.189   4.109   4.631 -1.1577  1.0060  0.7805
 3283SOL     OW10747   2.889   0.729   2.423 -0.1618 -0.0299 -0.7828
 3283SOL    HW110748   2.939   0.735   2.509  0.7272 -0.9800 -1.2071
 3283SOL    HW210749   2.877   0.633   2.398 -1.8638  0.1761 -0.9090
 3284SOL     OW10750   1.763   5.008   5.440 -0.2448  0.6111 -0.1519
 3284SOL    HW110751   1.663   5.002   5.441 -0.3092  0.6876 -2.3632
 3284SOL    HW210752   1.791   5.100   5.415  0.3227  0.0209 -1.8132
 3285SOL     OW10753   5.145   3.178   3.107  0.0746  0.1834  0.6761
 3285SOL    HW110754   5.113   3.206   3.016  0.3633 -1.4844  0.0226
 3285SOL    HW210755   5.132   3.079   3.118  0.5380  0.2682  2.2578
 3286SOL     OW10756   3.680   3.671   1.098  0.1119 -0.1512 -0.1504
 3286SOL    HW110757   3.618   3.667   1.019  0.0609  0.4107 -0.1426
 3286SOL    HW210758   3.629   3.647   1.181  0.2838 -1.2339 -0.3471
 3287SOL     OW10759   5.855   5.958   1.792 -0.0466 -0.1245  0.9321
 3287SOL    HW110760   5.781   5.958   1.725  0.4989  0.3097  0.3171
 3287SOL    HW210761   5.878   6.052   1.816  1.1264 -0.1930  0.1769
 3288SOL     OW10762   1.110   0.358   1.628 -0.2365 -0.5864 -0.5112
 3288SOL    HW110763   1.090   0.342   1.725  1.7651  2.0771  0.4743
 3288SOL    HW210764   1.198   0.405   1.620  0.3202 -1.8975 -3.7687
 3289SOL     OW10765   3.069   2.427   6.325 -0.1433  0.6647  0.6250
 3289SOL    HW110766   2.993   2.438   6.388 -0.6136 -0.3296  0.2492
 3289SOL    HW210767   3.034   2.416   6.232  0.3557 -1.2880  0.6273
 3290SOL     OW10768   6.501   4.569   0.657  0.2343  0.3874 -0.4369
 3290SOL    HW110769   6.593   4.589   0.691  0.2090  1.9470 -1.2066
 3290SOL    HW210770   6.440   4.550   0.734  1.0272  0.0302  0.1203
 3291SOL     OW10771   2.935   2.562   6.563  0.5628  0.5937 -0.2029
 3291SOL    HW110772   2.999   2.632   6.595  0.5511  0.4590  0.1264
 3291SOL    HW210773   2.868   2.603   6.501  0.4832  0.8960  0.0812
 3292SOL     OW10774   6.962   1.044   2.085  0.5338  0.3055 -0.2331
 3292SOL    HW110775   6.980   0.962   2.139  0.7546  0.3693 -0.2114
 3292SOL    HW210776   7.034   1.057   2.018  1.3628  1.3598  0.8104
 3293SOL     OW10777   0.400   3.438   0.939 -0.5138 -0.1316 -0.6253
 3293SOL    HW110778   0.441   3.368   0.879  1.4451  1.3234 -1.0829
 3293SOL    HW210779   0.375   3.518   0.884 -0.2843  0.5597  0.2655
 3294SOL     OW10780   5.474   4.880   5.783  0.0358 -0.7230 -0.9192
 3294SOL    HW110781   5.511   4.961   5.829  0.2192 -1.2598 -0.0871
 3294SOL    HW210782   5.423   4.908   5.702 -0.6746  0.2978 -0.1504
 3295SOL     OW10783   0.549   2.955   1.516 -0.1384 -0.1814  0.0992
 3295SOL    HW110784   0.614   2.890   1.555 -0.0283 -0.2540 -0.2046
 3295SOL    HW210785   0.510   3.011   1.589  0.6415  0.2069  0.2229
 3296SOL     OW10786   5.820   0.602   2.097 -0.3671  0.7548 -0.4619
 3296SOL    HW110787   5.877   0.684   2.101 -0.2781  0.6578  0.4123
 3296SOL    HW210788   5.724   0.627   2.114 -0.5994  0.9103 -1.8806
 3297SOL     OW10789   2.326   1.759   4.208 -0.2634  0.0199 -0.7534
 3297SOL    HW110790   2.408   1.726   4.255  0.1991  0.0121 -1.5502
 3297SOL    HW210791   2.290   1.839   4.256 -0.9701 -1.1611  0.7678
 3298SOL     OW10792   6.393   2.970   6.523  0.3995  0.0118  0.1778
 3298SOL    HW110793   6.359   2.921   6.443 -0.3913  0.8372 -0.0072
 3298SOL    HW210794   6.406   2.906   6.599 -2.2096 -0.2929  0.4658
 3299SOL     OW10795   3.123   6.470   1.944  0.5737 -0.0963 -0.6945
 3299SOL    HW110796   3.154   6.415   1.867  1.2609 -0.2582 -0.3119
 3299SOL    HW210797   3.046   6.425   1.988  1.4529 -1.0479 -0.0701
 3300SOL     OW10798   1.886   0.707   6.031  0.2604 -0.4735  0.3907
 3300SOL    HW110799   1.962   0.769   6.048  1.2459 -1.8161  1.0992
 3300SOL    HW210800   1.921   0.616   6.009 -1.1414 -0.7348 -0.9271
 3301SOL     OW10801   2.191   3.900   2.236 -0.7965  0.3915  0.3481
 3301SOL    HW110802   2.205   3.929   2.331 -1.1283  0.4647  0.3759
 3301SOL    HW210803   2.131   3.820   2.234 -0.6756  0.3042  0.2085
 3302SOL     OW10804   6.587   5.142   4.297  0.3508  0.0066 -0.1880
 3302SOL    HW110805   6.568   5.208   4.225  0.5040 -0.2685 -0.4790
 3302SOL    HW210806   6.517   5.071   4.296  0.4422 -0.0835 -0.1666
 3303SOL     OW10807   2.934   1.580   0.489 -0.2854 -0.8777  0.0679
 3303SOL    HW110808   2.902   1.575   0.394 -0.1940  2.2504 -0.2208
 3303SOL    HW210809   2.879   1.646   0.539  1.3921 -0.4334  1.4293
 3304SOL     OW10810   2.298   6.293   6.065  0.2386  0.4881  0.7183
 3304SOL    HW110811   2.243   6.213   6.091 -1.5919  0.6379 -2.2473
 3304SOL    HW210812   2.259   6.375   6.108 -1.2282  0.4237 -0.3820
 3305SOL     OW10813   2.259   0.525   2.788 -0.1973 -0.3636  0.4783
 3305SOL    HW110814   2.203   0.607   2.799  0.5034  0.2785 -0.5308
 3305SOL    HW210815   2.318   0.536   2.708 -0.2364 -1.9476  0.2036
 3306SOL     OW10816   0.336   3.590   3.499  0.3464  0.5203 -0.5486
 3306SOL    HW110817   0.237   3.582   3.492  0.4041  0.5319 -1.5475
 3306SOL    HW210818   0.365   3.679   3.463  0.7120  0.5541 -0.1774
 3307SOL     OW10819   0.724   0.475   5.314  0.6334 -0.7872  0.4428
 3307SOL    HW110820   0.781   0.517   5.244  0.4848 -1.7673 -0.2898
 3307SOL    HW210821   0.636   0.523   5.318  0.3726 -1.1581 -0.5508
 3308SOL     OW10822   1.757   4.998   0.871  0.0533  0.2589  0.3678
 3308SOL    HW110823   1.713   4.946   0.943  1.1820  1.4808  2.0039
 3308SOL    HW210824   1.688   5.041   0.813 -1.1282  3.6434  3.9153
 3309SOL     OW10825   6.565   5.937   3.159  0.0141 -0.2004 -0.6642
 3309SOL    HW110826   6.596   5.998   3.232  0.5763 -0.0883 -0.9911
 3309SOL    HW210827   6.594   5.974   3.070  0.6683 -1.1199 -0.8438
 3310SOL     OW10828   6.581   3.358   4.798 -0.0076  0.4094 -0.1169
 3310SOL    HW110829   6.509   3.427   4.800  1.1698  1.6474  0.2587
 3310SOL    HW210830   6.539   3.267   4.799 -1.5786  1.0916 -0.6375
 3311SOL     OW10831   3.192   6.391   0.145  0.0351 -0.1092 -0.0826
 3311SOL    HW110832   3.117   6.345   0.192 -2.0991  2.0773 -1.1225
 3311SOL    HW210833   3.160   6.426   0.057  2.8529 -0.7162 -1.4782
 3312SOL     OW10834   3.797   4.148   0.424 -0.1049  0.3882 -0.3729
 3312SOL    HW110835   3.893   4.161   0.398 -0.0851  1.4884  0.1995
 3312SOL    HW210836   3.758   4.073   0.370  0.5201  1.2171 -2.0534
 3313SOL     OW10837   2.054   5.919   5.553  0.8585  0.3331  0.2268
 3313SOL    HW110838   1.969   5.881   5.516  0.5903  0.6526  0.5153
 3313SOL    HW210839   2.128   5.905   5.488  0.7635 -0.6948  0.3238
 3314SOL     OW10840   3.786   0.011   3.745 -0.0285 -0.5231  0.0247
 3314SOL    HW110841   3.808   0.060   3.661  0.9032 -1.8428 -0.5243
 3314SOL    HW210842   3.869  -0.005   3.798 -0.3792 -1.0801  0.4257
 3315SOL     OW10843   5.919   4.825   5.906 -0.4631  0.3084  0.6980
 3315SOL    HW110844   5.965   4.914   5.896 -0.6469  0.3061 -0.3507
 3315SOL    HW210845   5.976   4.764   5.962  1.4599 -0.0991 -1.5315
 3316SOL     OW10846   3.436   0.012   5.070 -0.3248  0.1408  0.1288
 3316SOL    HW110847   3.484   0.094   5.101 -0.3857 -0.2126  1.2105
 3316SOL    HW210848   3.408  -0.042   5.150 -3.7654  1.0222 -0.3051
 3317SOL     OW10849   6.230   2.394   1.952 -0.3877 -0.0319 -0.3844
 3317SOL    HW110850   6.214   2.307   1.905 -0.1267 -0.0794 -0.3858
 3317SOL    HW210851   6.155   2.458   1.930 -1.0872 -0.5693  0.3905
 3318SOL     OW10852   2.004   1.683   1.201  0.1077  0.4160 -0.0952
 3318SOL    HW110853   1.995   1.774   1.240  0.1706  0.2689  0.2708
 3318SOL    HW210854   2.016   1.616   1.275  1.5532  0.2871 -0.4213
 3319SOL     OW10855   0.564   0.775   3.716  0.0708  0.2417  0.2976
 3319SOL    HW110856   0.510   0.780   3.633 -0.4567 -1.2944  0.5093
 3319SOL    HW210857   0.649   0.725   3.698  0.5644  1.0190  0.4033
 3320SOL     OW10858   4.929   6.817   6.411  0.0841 -0.1701  0.5325
 3320SOL    HW110859   4.871   6.735   6.411  1.4084 -1.1938 -1.5244
 3320SOL    HW210860   5.025   6.791   6.420  0.5543  1.1089 -0.4444
 3321SOL     OW10861   5.648   1.695   5.599 -0.2391 -0.1957 -0.2679
 3321SOL    HW110862   5.577   1.763   5.618 -0.6341 -0.7756  0.4198
 3321SOL    HW210863   5.720   1.702   5.668 -1.2134 -1.6896  0.9934
 3322SOL     OW10864   6.995   2.714   0.160  0.3145  0.0321 -0.3066
 3322SOL    HW110865   7.038   2.724   0.071  0.0714  0.3005 -0.3948
 3322SOL    HW210866   6.920   2.648   0.154  2.2724 -2.4644  0.3949
 3323SOL     OW10867   2.892   1.804   0.244  0.3779  0.0851  0.3584
 3323SOL    HW110868   2.805   1.766   0.212 -0.1649  1.6085 -0.0667
 3323SOL    HW210869   2.966   1.773   0.185 -0.1884  0.4352 -0.5566
 3324SOL     OW10870   4.290   4.932   5.770  0.6055  0.2582 -0.3463
 3324SOL    HW110871   4.223   4.888   5.829  1.2019 -0.3779 -0.1336
 3324SOL    HW210872   4.345   4.863   5.724  1.5185  0.7734 -0.0504
 3325SOL     OW10873   1.106   3.508   6.438 -0.3094 -0.8060  0.0811
 3325SOL    HW110874   1.160   3.462   6.367 -1.7991  1.3927 -2.6805
 3325SOL    HW210875   1.009   3.489   6.423 -0.7961  1.3642  0.1801
 3326SOL     OW10876   5.702   1.424   0.221 -0.0244 -0.0189 -0.5579
 3326SOL    HW110877   5.700   1.474   0.308 -0.3850  0.6070 -0.9201
 3326SOL    HW210878   5.781   1.362   0.220  0.4103  0.5194 -0.0914
 3327SOL     OW10879   1.426   4.445   4.969  0.1284  0.2441 -0.1378
 3327SOL    HW110880   1.439   4.436   4.870  1.9054  1.2248 -0.0448
 3327SOL    HW210881   1.504   4.493   5.008 -0.7323  0.2274  1.7069
 3328SOL     OW10882   5.995   2.428   0.707 -0.6093 -0.3436 -0.3545
 3328SOL    HW110883   5.903   2.467   0.696 -0.5062  0.7130  2.0726
 3328SOL    HW210884   6.051   2.452   0.628 -1.6131  1.3659 -0.5927
 3329SOL     OW10885   3.972   0.765   3.453  0.0547 -0.0874 -0.2600
 3329SOL    HW110886   3.964   0.703   3.374 -0.4085  0.0128 -0.2943
 3329SOL    HW210887   3.942   0.856   3.427 -2.7472 -0.6207  0.7060
 3330SOL     OW10888   0.648   3.287   1.230  0.0977  0.0159 -0.0599
 3330SOL    HW110889   0.695   3.370   1.263 -1.3772  2.6070 -3.7887
 3330SOL    HW210890   0.561   3.278   1.278  0.8885 -0.2890  1.3897
 3331SOL     OW10891   1.566   3.333   0.790  0.4310  0.0482 -0.4236
 3331SOL    HW110892   1.626   3.408   0.763 -0.1956  0.9658  0.6374
 3331SOL    HW210893   1.606   3.284   0.866  0.6029 -0.3819 -0.7891
 3332SOL     OW10894   0.359   5.648   6.099  0.7171  0.0502 -0.4069
 3332SOL    HW110895   0.322   5.666   6.008  0.6648 -0.7473 -0.5506
 3332SOL    HW210896   0.425   5.573   6.094 -0.2498 -0.8809  0.4168
 3333SOL     OW10897   3.743   6.107   0.119 -0.1725 -0.3891  0.1863
 3333SOL    HW110898   3.789   6.131   0.033  0.7471 -2.0174  0.1890
 3333SOL    HW210899   3.750   6.184   0.183 -0.0599  0.4949 -0.8570
 3334SOL     OW10900   1.971   3.115   1.605 -0.1988  0.2831  0.1284
 3334SOL    HW110901   1.943   3.025   1.640 -0.6497  0.2917 -0.2016
 3334SOL    HW210902   2.027   3.161   1.673  0.4339 -0.4458  0.1212
 3335SOL     OW10903   5.972   5.784   6.746  0.2887  0.3310  0.0239
 3335SOL    HW110904   6.035   5.707   6.737  0.6727  0.5140  1.0141
 3335SOL    HW210905   5.949   5.797   6.843 -2.8084 -0.9580 -0.3958
 3336SOL     OW10906   3.109   6.600   5.153 -0.4526 -0.7323  0.0812
 3336SOL    HW110907   3.036   6.607   5.221 -0.3997 -0.3411  0.1051
 3336SOL    HW210908   3.142   6.506   5.149 -2.2303 -1.3389 -1.2916
 3337SOL     OW10909   4.728   2.347   2.095  0.1322  0.2061  0.1349
 3337SOL    HW110910   4.778   2.421   2.049  0.1523 -0.2487 -0.5926
 3337SOL    HW210911   4.766   2.259   2.066 -1.0714 -0.1486 -0.4159
 3338SOL     OW10912   5.153   3.526   1.388  0.0716 -0.0752  0.2763
 3338SOL    HW110913   5.240   3.479   1.397  0.4430  0.5876  0.2452
 3338SOL    HW210914   5.083   3.480   1.443  1.2751  1.4298  3.3279
 3339SOL     OW10915   0.422   1.411   1.216 -0.3577  0.1363 -0.4201
 3339SOL    HW110916   0.497   1.369   1.165 -1.6829 -0.9724 -1.5291
 3339SOL    HW210917   0.346   1.346   1.225 -0.8605  0.9027  1.4755
 3340SOL     OW10918   3.207   1.310   6.100 -0.3420 -0.1395 -0.8051
 3340SOL    HW110919   3.212   1.228   6.158 -1.4683  0.1192 -0.3064
 3340SOL    HW210920   3.288   1.367   6.117 -0.7345  0.0325  0.7154
 3341SOL     OW10921   1.175   0.935   4.657  0.3122  0.5613  0.3975
 3341SOL    HW110922   1.273   0.942   4.675  0.5383 -3.1831  1.3049
 3341SOL    HW210923   1.126   0.917   4.743 -0.4113 -2.9584 -0.6114
 3342SOL     OW10924   3.599   6.069   3.451 -0.3402  0.2731  0.7202
 3342SOL    HW110925   3.620   5.975   3.479  1.1419 -0.8607 -3.5082
 3342SOL    HW210926   3.677   6.128   3.472 -0.8063  0.3724  2.3138
 3343SOL     OW10927   4.245   4.079   1.694  0.0907 -0.1179 -0.1580
 3343SOL    HW110928   4.290   4.001   1.651 -1.4765 -1.4500  0.4935
 3343SOL    HW210929   4.309   4.123   1.757  0.5879 -1.8161  0.5988
 3344SOL     OW10930   0.582   2.132   4.369 -0.2346  0.3032 -0.1278
 3344SOL    HW110931   0.672   2.088   4.373 -1.0026 -1.5435 -1.5058
 3344SOL    HW210932   0.544   2.137   4.462  0.6600 -0.3026  0.2920
 3345SOL     OW10933   1.244   4.063   5.439  0.1853 -0.2035 -0.2284
 3345SOL    HW110934   1.246   4.034   5.343  3.5434 -0.1922 -0.2974
 3345SOL    HW210935   1.216   4.159   5.443  1.3636  0.2452 -1.4361
 3346SOL     OW10936   1.570   0.975   0.677 -0.0468 -0.0063 -0.5428
 3346SOL    HW110937   1.593   1.067   0.644 -3.0751  0.9372 -0.2708
 3346SOL    HW210938   1.552   0.915   0.599 -2.6672  0.9711 -0.7662
 3347SOL     OW10939   5.588   6.010   3.838 -0.4552 -0.5218  0.4545
 3347SOL    HW110940   5.532   5.954   3.900  0.5770  0.4516  2.3745
 3347SOL    HW210941   5.683   5.980   3.844 -0.1762  0.2804  0.1219
 3348SOL     OW10942   3.460   4.134   2.710  0.0440 -0.1840  0.1032
 3348SOL    HW110943   3.438   4.088   2.624  1.4215  3.3692 -2.3485
 3348SOL    HW210944   3.375   4.155   2.759 -0.8113 -1.5271 -0.7207
 3349SOL     OW10945   1.961   3.687   5.094 -0.3246  0.1751 -0.3702
 3349SOL    HW110946   2.044   3.720   5.138 -0.9392 -0.3962  1.2906
 3349SOL    HW210947   1.959   3.717   4.999  1.4976  0.6717 -0.2811
 3350SOL     OW10948   0.867   0.601   6.952 -0.4536  0.2699  0.5658
 3350SOL    HW110949   0.951   0.547   6.959 -0.3745  0.0318 -1.5097
 3350SOL    HW210950   0.840   0.632   7.043 -0.3095 -2.9232  1.8405
 3351SOL     OW10951   5.653   0.727   3.811  0.6478  0.1269 -0.0309
 3351SOL    HW110952   5.729   0.784   3.780  2.6066 -2.0867  0.3986
 3351SOL    HW210953   5.676   0.687   3.900 -0.3739 -1.7233 -0.5591
 3352SOL     OW10954   1.240   3.324   0.513  0.2079  0.4176 -0.7065
 3352SOL    HW110955   1.291   3.260   0.456 -0.4917 -1.2350  0.4398
 3352SOL    HW210956   1.144   3.297   0.517  0.2178  0.5013  1.1632
 3353SOL     OW10957   2.920   6.314   2.053  0.3364  0.4293  0.0663
 3353SOL    HW110958   2.913   6.263   2.139 -0.3794 -0.5910 -0.5694
 3353SOL    HW210959   2.871   6.401   2.062  0.3695  0.3886  0.7172
 3354SOL     OW10960   5.619   2.307   5.361  0.4863 -0.4099  0.4601
 3354SOL    HW110961   5.645   2.372   5.432 -1.5873  0.7821  0.1865
 3354SOL    HW210962   5.636   2.347   5.271 -2.2919  0.5028  0.2647
 3355SOL     OW10963   6.542   0.718   0.995  0.4907  0.1619  0.0614
 3355SOL    HW110964   6.450   0.741   1.027  0.3542 -0.2535 -0.0328
 3355SOL    HW210965   6.554   0.619   0.997 -0.4674 -0.1928 -3.6714
 3356SOL     OW10966   0.380   4.630   5.486 -0.2928 -0.3724  0.0385
 3356SOL    HW110967   0.307   4.638   5.419 -1.4170 -2.7511  0.8708
 3356SOL    HW210968   0.442   4.557   5.460 -1.7197 -2.5812  2.2677
 3357SOL     OW10969   3.099   6.858   1.209 -0.1258  0.0290 -0.5976
 3357SOL    HW110970   3.193   6.842   1.181 -0.4511  0.8293 -2.3211
 3357SOL    HW210971   3.095   6.877   1.307  1.8809  2.5177 -0.8957
 3358SOL     OW10972   3.160   0.051   2.752  0.2383 -0.5227 -0.3941
 3358SOL    HW110973   3.089   0.068   2.684  0.4666 -1.7388 -0.9608
 3358SOL    HW210974   3.168   0.131   2.812 -0.4232  0.3072 -1.3718
 3359SOL     OW10975   0.565   1.422   4.411  0.1957  0.8498 -0.4026
 3359SOL    HW110976   0.549   1.514   4.374 -1.2057  0.2307 -1.4558
 3359SOL    HW210977   0.538   1.354   4.343  1.0084 -0.3540  0.4386
 3360SOL     OW10978   5.775   1.781   6.548  0.0589 -0.6204 -0.7396
 3360SOL    HW110979   5.722   1.809   6.628  0.0358  1.3681 -1.3948
 3360SOL    HW210980   5.750   1.687   6.523 -1.0422 -0.7435  0.6653
 3361SOL     OW10981   0.128   5.934   2.535  1.1068 -0.3408 -0.0313
 3361SOL    HW110982   0.183   5.853   2.556  1.3625 -0.7896 -2.1953
 3361SOL    HW210983   0.120   5.945   2.436 -1.1135  0.8215  0.1948
 3362SOL     OW10984   3.457   1.405   3.510 -0.3603 -0.1133 -0.1937
 3362SOL    HW110985   3.377   1.346   3.509 -1.2813  1.0760  0.4451
 3362SOL    HW210986   3.436   1.490   3.462  0.7379 -0.0526 -0.5838
 3363SOL     OW10987   0.361   6.448   1.222 -0.0196  0.0785  1.4779
 3363SOL    HW110988   0.281   6.470   1.167  0.8233  0.2649  0.2720
 3363SOL    HW210989   0.339   6.375   1.287 -0.9980 -0.2750  0.7644
 3364SOL     OW10990   1.287   5.363   6.977 -0.4074  0.5373 -0.6590
 3364SOL    HW110991   1.328   5.454   6.983 -0.4280  0.4691  1.0085
 3364SOL    HW210992   1.198   5.363   7.022 -0.0490 -0.4924  0.0903
 3365SOL     OW10993   0.649   1.074   5.326  0.3932 -0.1775  0.0557
 3365SOL    HW110994   0.609   1.078   5.234  1.9291 -0.5689 -0.6586
 3365SOL    HW210995   0.696   0.986   5.338  0.4981  0.0112  1.1037
 3366SOL     OW10996   0.748   6.023   6.155  0.3845 -0.5361 -0.0803
 3366SOL    HW110997   0.766   6.106   6.207  2.1099 -0.8819 -0.0803
 3366SOL    HW210998   0.660   5.985   6.183  0.3439  0.3880  1.1171
 3367SOL     OW10999   2.896   4.843   2.852  0.1368  0.2944 -0.0409
 3367SOL    HW111000   2.797   4.851   2.844 -0.0958 -0.3550  1.8165
 3367SOL    HW211001   2.921   4.830   2.947  1.9575 -0.3617 -0.5686
 3368SOL     OW11002   2.452   5.056   6.717  0.0034 -0.2636 -0.5996
 3368SOL    HW111003   2.484   5.150   6.705  0.8039 -0.7318 -2.4811
 3368SOL    HW211004   2.367   5.043   6.667 -2.1305  0.3431  2.5335
 3369SOL     OW11005   3.441   3.387   6.449 -0.3624  0.3968  0.3319
 3369SOL    HW111006   3.489   3.466   6.410 -1.8422  0.4753 -1.4642
 3369SOL    HW211007   3.345   3.390   6.423 -0.9275 -0.8719  2.0892
 3370SOL     OW11008   5.537   1.028   4.676 -0.3882 -0.2443  0.8233
 3370SOL    HW111009   5.634   1.013   4.657 -0.6209  0.1464 -0.7508
 3370SOL    HW211010   5.517   1.125   4.674 -1.3765 -0.4373 -1.9670
 3371SOL     OW11011   6.465   3.644   1.506 -0.0792 -0.3986 -0.0201
 3371SOL    HW111012   6.390   3.708   1.489  0.0955  0.0224  0.7611
 3371SOL    HW211013   6.440   3.553   1.472  0.6193  0.5438 -3.5292
 3372SOL     OW11014   1.202   1.888   6.898  0.1980  0.5193  0.0904
 3372SOL    HW111015   1.231   1.820   6.966 -2.0115 -0.7944 -0.1904
 3372SOL    HW211016   1.112   1.924   6.923 -1.0102 -0.5213 -2.4456
 3373SOL     OW11017   1.038   1.312   2.936 -0.6388 -0.4689  0.4657
 3373SOL    HW111018   1.000   1.381   2.998 -1.9639  0.8049 -1.6621
 3373SOL    HW211019   1.134   1.296   2.959 -0.9269  0.3537  2.4578
 3374SOL     OW11020   1.534   6.237   4.504  0.2368  0.0589 -0.3201
 3374SOL    HW111021   1.520   6.155   4.448 -0.2628 -1.9552  2.5281
 3374SOL    HW211022   1.450   6.259   4.554  0.7654  1.5155 -0.0108
 3375SOL     OW11023   3.270   4.221   1.717 -0.4554 -0.5467  0.4364
 3375SOL    HW111024   3.313   4.160   1.783  0.6625 -1.5308 -1.1095
 3375SOL    HW211025   3.315   4.311   1.720 -1.9583  0.2207  2.5617
 3376SOL     OW11026   3.704   2.891   3.051  0.3841 -0.0337 -0.4752
 3376SOL    HW111027   3.693   2.822   3.122 -1.7001 -1.1839 -1.7952
 3376SOL    HW211028   3.690   2.982   3.090 -1.1047 -0.6619  0.5400
 3377SOL     OW11029   6.167   6.169   3.950  0.2495  0.1489 -0.4475
 3377SOL    HW111030   6.219   6.252   3.926 -1.4474  0.7547 -2.3970
 3377SOL    HW211031   6.172   6.154   4.048  1.1962  2.1744 -0.1215
 3378SOL     OW11032   5.265   0.790   1.875  0.1013  0.4840  0.3958
 3378SOL    HW111033   5.281   0.868   1.935  1.1169  1.7071 -1.4046
 3378SOL    HW211034   5.351   0.762   1.833 -0.4747 -0.8182  0.0416
 3379SOL     OW11035   6.947   5.262   7.012 -0.0128  0.5511  0.6450
 3379SOL    HW111036   7.015   5.238   7.081 -1.1995  1.5562  2.2465
 3379SOL    HW211037   6.859   5.278   7.057 -1.1658 -0.0859 -1.2852
 3380SOL     OW11038   1.147   6.686   4.170  0.1167 -0.0603  0.5788
 3380SOL    HW111039   1.092   6.608   4.143  1.0099 -1.1360  1.7160
 3380SOL    HW211040   1.217   6.703   4.101 -0.1774 -0.1730  0.2521
 3381SOL     OW11041   0.496   1.878   0.079 -0.2087 -0.5586 -0.6731
 3381SOL    HW111042   0.417   1.835   0.121 -1.0600  0.0146 -1.6369
 3381SOL    HW211043   0.502   1.973   0.107  2.5372 -1.5161  2.6687
 3382SOL     OW11044   6.055   2.774   6.790  0.0548  0.3452 -0.1025
 3382SOL    HW111045   6.010   2.740   6.708 -0.6789  1.0781 -0.0258
 3382SOL    HW211046   6.087   2.868   6.775  0.1280  0.4018  0.3650
 3383SOL     OW11047   4.365   6.071   3.487  0.1594 -0.2020  0.1777
 3383SOL    HW111048   4.408   6.078   3.397 -0.7561 -3.9790 -0.7289
 3383SOL    HW211049   4.434   6.042   3.554  0.4599  0.8377  0.3355
 3384SOL     OW11050   1.647   4.136   6.377 -0.5128 -0.0509  0.3771
 3384SOL    HW111051   1.591   4.110   6.297  1.4512 -0.4545 -0.9427
 3384SOL    HW211052   1.625   4.229   6.403 -0.9472  0.2337 -0.8974
 3385SOL     OW11053   1.160   3.119   2.823  0.6379  0.2982 -0.2329
 3385SOL    HW111054   1.076   3.172   2.828  0.6586  0.5479 -1.9338
 3385SOL    HW211055   1.174   3.070   2.909 -2.4101 -1.5265 -0.6161
 3386SOL     OW11056   6.428   3.210   0.292 -0.0668 -0.2046 -0.0264
 3386SOL    HW111057   6.463   3.259   0.372  0.1408  2.1224 -1.4547
 3386SOL    HW211058   6.505   3.177   0.238 -0.1685 -0.0389 -0.2714
 3387SOL     OW11059   3.128   6.990   2.323  0.2078 -0.3166 -0.0086
 3387SOL    HW111060   3.103   6.893   2.321 -0.2120 -0.2157 -1.6789
 3387SOL    HW211061   3.047   7.045   2.342 -0.2655 -0.1652 -2.1836
 3388SOL     OW11062   0.204   3.904   2.032 -0.3346 -0.2153 -0.3523
 3388SOL    HW111063   0.158   3.992   2.021 -1.2209 -0.8441 -2.2163
 3388SOL    HW211064   0.140   3.830   2.010  1.2413 -1.1560 -2.1187
 3389SOL     OW11065   4.059   5.941   5.102  0.0994  0.6414 -0.1343
 3389SOL    HW111066   4.053   6.040   5.111 -1.2604  0.4907  1.0004
 3389SOL    HW211067   4.126   5.918   5.031 -0.4205  2.3912 -1.2652
 3390SOL     OW11068   5.703   5.180   0.875 -0.1824  0.3522 -0.0599
 3390SOL    HW111069   5.715   5.123   0.794 -1.9507 -1.4451  0.8417
 3390SOL    HW211070   5.786   5.233   0.892  1.0502 -0.9391 -1.7318
 3391SOL     OW11071   6.490   3.052   6.187  0.1144 -0.4324  0.4842
 3391SOL    HW111072   6.509   2.954   6.178 -1.0743 -0.5077 -1.8221
 3391SOL    HW211073   6.397   3.065   6.221 -0.3832 -0.1574 -0.9088
 3392SOL     OW11074   3.463   0.017   4.258  1.0259 -0.0334  0.0288
 3392SOL    HW111075   3.488   0.101   4.211  2.6646 -0.2643  0.3998
 3392SOL    HW211076   3.444  -0.055   4.191 -0.4363  0.6255 -0.2872
 3393SOL     OW11077   2.928   5.800   0.739  0.2506 -0.3069 -0.1110
 3393SOL    HW111078   2.938   5.753   0.651  1.6706 -0.5602  0.1632
 3393SOL    HW211079   2.990   5.759   0.806  0.4368  0.9874  0.5414
 3394SOL     OW11080   6.306   2.978   0.324 -0.5868 -0.4231 -0.0268
 3394SOL    HW111081   6.337   3.072   0.312 -2.1167  0.1805  0.5645
 3394SOL    HW211082   6.350   2.938   0.405 -0.6704  0.1125  0.2848
 3395SOL     OW11083   4.883   3.554   4.261  0.1660  0.0065  0.0263
 3395SOL    HW111084   4.867   3.462   4.298 -1.5281  0.2861  0.0823
 3395SOL    HW211085   4.890   3.619   4.337 -1.7479  0.3450 -0.0211
 3396SOL     OW11086   6.080   2.767   2.558 -0.3373  0.5805 -0.0543
 3396SOL    HW111087   6.098   2.698   2.488  1.0405 -0.5932  1.3652
 3396SOL    HW211088   6.045   2.850   2.515 -1.7443 -0.8515 -1.8668
 3397SOL     OW11089   3.963   1.901   4.610  0.0427 -0.3194  0.1070
 3397SOL    HW111090   4.013   1.896   4.524  0.2533  1.4928  0.0951
 3397SOL    HW211091   3.865   1.890   4.592 -0.0208  1.1318 -0.5263
 3398SOL     OW11092   2.738   6.032   4.448 -0.1312  0.0641 -0.2664
 3398SOL    HW111093   2.702   6.070   4.533 -0.9252  0.0970 -0.6088
 3398SOL    HW211094   2.811   6.091   4.414 -0.3171  0.4578  0.0054
 3399SOL     OW11095   4.621   4.636   3.941  0.1131  0.9329 -0.9139
 3399SOL    HW111096   4.680   4.565   3.902  0.9211  0.9478  0.2330
 3399SOL    HW211097   4.588   4.606   4.031 -0.8932  1.3214 -1.1350
 3400SOL     OW11098   3.547   2.138   4.397 -0.2616 -0.2542 -0.7982
 3400SOL    HW111099   3.566   2.149   4.300  0.9582 -2.7676 -0.9315
 3400SOL    HW211100   3.616   2.186   4.450 -1.0775  1.3414 -1.1286
 3401SOL     OW11101   1.063   2.318   1.029  0.0875  0.0994  0.4337
 3401SOL    HW111102   1.151   2.364   1.038 -0.1950  0.2410  3.2334
 3401SOL    HW211103   1.055   2.246   1.097 -2.0340  0.2033  0.3629
 3402SOL     OW11104   5.448   6.844   1.543  0.8007  0.2493  0.0812
 3402SOL    HW111105   5.457   6.797   1.630  0.0827 -0.8381 -0.4019
 3402SOL    HW211106   5.464   6.779   1.468 -1.6199  0.3484 -0.6384
 3403SOL     OW11107   4.173   6.758   6.467  0.2092 -0.1762 -0.4153
 3403SOL    HW111108   4.262   6.737   6.508  0.6099  1.0443 -0.6264
 3403SOL    HW211109   4.122   6.818   6.529 -0.3828 -0.6981 -0.3942
 3404SOL     OW11110   4.898   1.712   4.895 -0.2429 -0.1974 -0.3892
 3404SOL    HW111111   4.890   1.633   4.833  0.5761 -0.7248  0.1633
 3404SOL    HW211112   4.994   1.741   4.900 -0.3684  0.1072  0.3138
 3405SOL     OW11113   0.133   2.051   2.262  0.2864  0.9372  0.2970
 3405SOL    HW111114   0.193   1.972   2.251  0.7392  1.0690  1.6427
 3405SOL    HW211115   0.187   2.133   2.280 -0.2224  1.4005 -0.2213
 3406SOL     OW11116   1.306   5.460   0.507  0.0503 -0.1897  0.5397
 3406SOL    HW111117   1.274   5.412   0.588 -0.3025 -0.8212  0.0325
 3406SOL    HW211118   1.227   5.488   0.452  0.2954  0.0538  0.3095
 3407SOL     OW11119   6.723   3.791   5.745  0.1263  0.3930 -0.3130
 3407SOL    HW111120   6.678   3.867   5.791  2.1673  0.8706  1.0516
 3407SOL    HW211121   6.670   3.707   5.758 -1.4473  1.2869 -0.6852
 3408SOL     OW11122   4.502   5.099   4.428  0.3466 -0.0560 -1.0031
 3408SOL    HW111123   4.531   5.173   4.489  0.6995  0.8750 -2.2740
 3408SOL    HW211124   4.404   5.108   4.410  0.1782 -0.5116 -0.3524
 3409SOL     OW11125   4.114   6.482   6.746 -0.5613 -0.0270  0.8556
 3409SOL    HW111126   4.096   6.385   6.734 -1.8096  0.3525 -0.7134
 3409SOL    HW211127   4.187   6.510   6.683  0.2012 -0.0480  1.7173
 3410SOL     OW11128   0.261   1.759   1.446  0.2757  0.0662 -0.1694
 3410SOL    HW111129   0.209   1.676   1.425  0.6169 -0.0508 -0.5714
 3410SOL    HW211130   0.198   1.836   1.458 -0.0452 -0.2590  0.2452
 3411SOL     OW11131   2.546   0.169   3.124  0.2251  0.1067 -0.0396
 3411SOL    HW111132   2.528   0.077   3.090 -0.1142 -0.5630  1.8380
 3411SOL    HW211133   2.562   0.230   3.047  1.8850 -1.7936 -1.2923
 3412SOL     OW11134   6.880   4.103   0.922  0.6108  0.8661 -0.8022
 3412SOL    HW111135   6.930   4.019   0.944  2.4685  1.7956 -1.1900
 3412SOL    HW211136   6.901   4.129   0.827  1.3835  2.5851 -0.2040
 3413SOL     OW11137   5.804   0.846   2.420  0.2154  0.4083  0.4748
 3413SOL    HW111138   5.891   0.821   2.464 -0.2477 -0.9994  0.6324
 3413SOL    HW211139   5.729   0.801   2.468 -0.4244  0.0069 -0.8818
 3414SOL     OW11140   1.404   0.638   6.770  0.0047  0.2600 -0.4099
 3414SOL    HW111141   1.459   0.700   6.825 -0.4260 -0.0443  0.3836
 3414SOL    HW211142   1.399   0.672   6.676 -0.1721  1.3885 -0.0089
 3415SOL     OW11143   0.981   4.158   4.961 -0.5445 -0.7258  0.2270
 3415SOL    HW111144   0.999   4.209   4.877  1.0694 -1.3696  0.1443
 3415SOL    HW211145   0.901   4.098   4.947 -1.2338  0.2898 -0.3122
 3416SOL     OW11146   6.344   6.194   5.384 -0.1673 -0.1417 -0.3945
 3416SOL    HW111147   6.433   6.237   5.394 -0.9220  1.0597  1.6769
 3416SOL    HW211148   6.275   6.245   5.436 -2.0227 -1.2339 -1.6269
 3417SOL     OW11149   1.488   5.674   4.116  0.2623 -0.3819  0.2119
 3417SOL    HW111150   1.468   5.577   4.100  0.8705 -0.6006  0.7358
 3417SOL    HW211151   1.586   5.685   4.132  0.0189  0.1463  1.4113
 3418SOL     OW11152   3.427   6.188   5.424 -0.0136 -0.2098 -0.1397
 3418SOL    HW111153   3.514   6.140   5.412 -0.5679 -0.9872 -1.2002
 3418SOL    HW211154   3.415   6.212   5.520  0.8202 -1.1516  0.2095
 3419SOL     OW11155   4.656   4.909   4.025 -0.4486  0.1626 -0.1444
 3419SOL    HW111156   4.654   4.814   3.994 -1.9263  0.1629 -0.1232
 3419SOL    HW211157   4.664   4.911   4.125  1.3341  0.1101 -0.2653
 3420SOL     OW11158   4.923   3.471   3.072 -0.5980 -0.2524 -0.1404
 3420SOL    HW111159   4.963   3.450   2.983 -0.7601 -1.3088  0.0166
 3420SOL    HW211160   4.895   3.385   3.116  0.3939  0.1733  1.3638
 3421SOL     OW11161   0.016   1.401   6.722  0.0139 -0.1204  0.3855
 3421SOL    HW111162   0.116   1.404   6.728 -0.0458  1.0768  1.1478
 3421SOL    HW211163  -0.021   1.368   6.809 -0.2977  1.1364  0.7508
 3422SOL     OW11164   0.814   0.116   3.538 -0.0035  0.1604 -0.6268
 3422SOL    HW111165   0.892   0.060   3.511 -0.1098  0.4857 -1.6555
 3422SOL    HW211166   0.847   0.206   3.567  0.2868 -0.7861  2.2673
 3423SOL     OW11167   0.936   6.599   1.393  0.2276  0.1982  0.0762
 3423SOL    HW111168   0.929   6.589   1.294 -0.3312 -0.5547  0.1819
 3423SOL    HW211169   0.872   6.536   1.437  0.5587  0.4414  0.9173
 3424SOL     OW11170   1.910   6.128   3.450 -0.8744 -0.4699  0.3826
 3424SOL    HW111171   1.914   6.121   3.550 -1.3270 -0.0840  0.4288
 3424SOL    HW211172   1.875   6.043   3.412  0.5127 -1.1042  0.4630
 3425SOL     OW11173   5.946   3.970   1.708  0.2636  0.0690 -0.1972
 3425SOL    HW111174   5.891   3.919   1.775 -0.2808  0.8377 -0.0390
 3425SOL    HW211175   6.013   4.026   1.756  1.2919 -0.9423 -0.3940
 3426SOL     OW11176   1.947   1.875   6.434 -0.1738  0.0689 -0.1532
 3426SOL    HW111177   1.956   1.790   6.382  1.1177 -0.3640  0.7074
 3426SOL    HW211178   1.916   1.854   6.527  1.5727  0.3533  0.5227
 3427SOL     OW11179   5.742   0.592   0.188  0.4223  0.1459 -0.4704
 3427SOL    HW111180   5.737   0.583   0.287 -1.4976  1.9702 -0.3334
 3427SOL    HW211181   5.734   0.501   0.146 -1.1262 -0.4546  0.9997
 3428SOL     OW11182   2.901   5.419   0.202 -0.6094 -0.2968 -0.2783
 3428SOL    HW111183   2.905   5.330   0.157  1.7535 -0.4362  0.1106
 3428SOL    HW211184   2.857   5.409   0.291  0.8592 -1.3751  0.3567
 3429SOL     OW11185   0.295   6.890   5.750  0.2812  0.0513  0.1810
 3429SOL    HW111186   0.284   6.883   5.849 -1.8348  2.4650  0.1994
 3429SOL    HW211187   0.206   6.901   5.706  1.2605  0.3691 -1.8853
 3430SOL     OW11188   6.542   1.167   5.520  0.0283  0.0135  0.3048
 3430SOL    HW111189   6.496   1.253   5.497  2.6928  1.9953  1.9049
 3430SOL    HW211190   6.495   1.125   5.598 -0.8932  0.3380 -0.0551
 3431SOL     OW11191   2.201   5.066   2.534  0.3833 -0.1651 -0.1383
 3431SOL    HW111192   2.283   5.085   2.479 -1.1482  2.3139 -1.8006
 3431SOL    HW211193   2.160   4.980   2.504  2.8924 -2.0416  1.4995
 3432SOL     OW11194   4.406   3.541   0.160 -0.2814 -0.4055 -0.1212
 3432SOL    HW111195   4.411   3.512   0.256 -1.0813  0.2603  0.1320
 3432SOL    HW211196   4.353   3.625   0.153 -1.2207 -1.0502 -1.2667
 3433SOL     OW11197   0.910   6.453   5.377 -0.5023  0.2846 -0.1736
 3433SOL    HW111198   0.859   6.461   5.462 -0.2941 -0.2193  0.0067
 3433SOL    HW211199   0.912   6.541   5.330  0.1130  0.7860  0.7651
 3434SOL     OW11200   2.219   1.479   0.269 -0.0533 -0.2551 -0.6265
 3434SOL    HW111201   2.137   1.469   0.325 -0.1219 -2.3618 -1.0334
 3434SOL    HW211202   2.211   1.422   0.187  1.0429  0.9463 -1.6071
 3435SOL     OW11203   1.701   2.279   1.783 -0.2136  0.2043 -0.6113
 3435SOL    HW111204   1.797   2.273   1.810 -0.4498  1.9326  0.8457
 3435SOL    HW211205   1.680   2.208   1.716  1.4541 -1.7614  0.8389
 3436SOL     OW11206   3.112   6.847   0.030 -0.5520 -0.6258  0.0180
 3436SOL    HW111207   3.105   6.879  -0.065  0.8781 -0.4901 -0.0587
 3436SOL    HW211208   3.027   6.867   0.078 -0.5988  1.0634 -0.7107
 3437SOL     OW11209   3.328   6.700   1.182  0.3009  0.4302 -0.0575
 3437SOL    HW111210   3.279   6.626   1.228 -2.9796  2.0281 -0.6829
 3437SOL    HW211211   3.332   6.682   1.084 -2.2966  1.8368 -0.5103
 3438SOL     OW11212   6.667   0.883   0.059 -0.2516  0.8846  0.4147
 3438SOL    HW111213   6.597   0.868   0.128 -0.1853  0.5465  0.4106
 3438SOL    HW211214   6.757   0.860   0.096 -0.1879  0.9252  0.2888
 3439SOL     OW11215   1.742   5.763   4.483 -0.2781 -0.2017  0.1683
 3439SOL    HW111216   1.785   5.687   4.532  1.8385 -0.2845 -1.6577
 3439SOL    HW211217   1.810   5.836   4.468 -0.6130 -0.3704 -2.9381
 3440SOL     OW11218   3.471   4.107   1.854 -0.1191  0.3809  0.0683
 3440SOL    HW111219   3.501   4.018   1.889 -0.3548 -0.1773 -1.0978
 3440SOL    HW211220   3.485   4.177   1.924  3.6896  0.1330 -0.2348
 3441SOL     OW11221   4.178   0.705   4.603  0.2215  0.4811  0.5567
 3441SOL    HW111222   4.236   0.651   4.542 -0.2445 -0.3124  0.7891
 3441SOL    HW211223   4.235   0.757   4.666  0.7036 -1.2165  1.5898
 3442SOL     OW11224   2.065   4.252   2.763  0.1652  0.5272 -0.3386
 3442SOL    HW111225   1.983   4.202   2.790  0.3666  0.4107  0.0574
 3442SOL    HW211226   2.145   4.193   2.771 -0.0181 -0.3271 -3.4676
 3443SOL     OW11227   5.082   6.155   4.758  0.1195 -0.1672 -0.3418
 3443SOL    HW111228   5.080   6.098   4.840  1.7448 -0.4677 -0.4860
 3443SOL    HW211229   5.133   6.108   4.686  2.3792  1.8269 -0.1526
 3444SOL     OW11230   3.750   5.297   0.403  0.1831 -0.1237  0.3438
 3444SOL    HW111231   3.764   5.335   0.494 -1.4511 -0.4915  0.7697
 3444SOL    HW211232   3.668   5.336   0.362  1.4267  0.7961 -1.4194
 3445SOL     OW11233   6.408   6.625   5.973  0.1943 -0.4354  0.4045
 3445SOL    HW111234   6.438   6.537   6.008  0.8180  0.3489  1.9497
 3445SOL    HW211235   6.311   6.621   5.950 -0.2045 -1.0910  2.0528
 3446SOL     OW11236   6.833   2.515   0.024 -0.0581  0.0949 -0.3780
 3446SOL    HW111237   6.816   2.475  -0.066  1.0704 -1.9176  0.2322
 3446SOL    HW211238   6.925   2.492   0.054 -0.9056 -0.6374  1.9321
 3447SOL     OW11239   3.600   6.113   0.673 -0.8794  0.4045 -0.0054
 3447SOL    HW111240   3.641   6.030   0.634 -0.0206 -0.2888  2.2293
 3447SOL    HW211241   3.669   6.185   0.679 -1.3450  0.9431 -0.9317
 3448SOL     OW11242   2.095   1.054   0.697 -0.6899  0.5803 -0.6439
 3448SOL    HW111243   2.171   1.112   0.666 -1.0979  2.0204  0.8949
 3448SOL    HW211244   2.049   1.099   0.774 -1.3419 -1.5935  0.2985
 3449SOL     OW11245   5.187   5.919   4.567 -0.0843 -0.2670 -0.7376
 3449SOL    HW111246   5.193   5.928   4.467  0.2074 -0.5054 -0.7450
 3449SOL    HW211247   5.125   5.845   4.591 -0.2628 -0.1191 -0.7370
 3450SOL     OW11248   0.239   2.510   6.371 -0.5077  0.4785 -0.6466
 3450SOL    HW111249   0.338   2.514   6.361 -0.3078 -2.4310 -0.4417
 3450SOL    HW211250   0.196   2.518   6.281  0.0670 -0.9734 -1.0678
 3451SOL     OW11251   0.976   6.184   2.508 -0.3208  0.3589 -0.0913
 3451SOL    HW111252   0.949   6.231   2.424  0.0903 -0.6844 -0.8393
 3451SOL    HW211253   1.069   6.149   2.497  0.3403  1.5285  1.3926
 3452SOL     OW11254   4.631   1.008   5.985  0.1883 -0.0840  0.2839
 3452SOL    HW111255   4.682   0.997   5.900  1.6636 -1.1314  1.2333
 3452SOL    HW211256   4.639   0.924   6.039  1.0756  1.2464  2.3677
 3453SOL     OW11257   1.511   6.678   5.092 -0.1522  0.5775 -0.1771
 3453SOL    HW111258   1.495   6.648   4.998 -0.7982  0.0719  0.0907
 3453SOL    HW211259   1.428   6.720   5.129  0.3179  1.4438 -0.0733
 3454SOL     OW11260   2.440   2.716   5.784  0.5166  0.5460  0.0071
 3454SOL    HW111261   2.503   2.727   5.708 -0.0675 -1.5125 -0.8365
 3454SOL    HW211262   2.490   2.725   5.871  1.5390  1.0040 -0.6127
 3455SOL     OW11263   2.013   4.163   3.171 -0.1447 -0.2241  0.2863
 3455SOL    HW111264   1.983   4.107   3.248  0.3445 -0.6120  0.2022
 3455SOL    HW211265   2.080   4.112   3.117  0.8362  0.6811  0.6056
 3456SOL     OW11266   5.120   5.487   2.156 -0.3862 -0.2741  0.0646
 3456SOL    HW111267   5.138   5.460   2.250  1.3401 -1.4746 -0.5595
 3456SOL    HW211268   5.039   5.546   2.153  0.4627  1.1256  2.4669
 3457SOL     OW11269   2.739   6.177   4.024 -0.1973 -0.2822 -0.6306
 3457SOL    HW111270   2.664   6.136   4.075  0.0787  0.9706  0.8851
 3457SOL    HW211271   2.705   6.252   3.968 -0.2502 -0.5711 -0.9923
 3458SOL     OW11272   4.002   0.465   1.121  0.0425  0.0214  0.0181
 3458SOL    HW111273   3.930   0.526   1.152 -0.1531  0.5065 -1.3012
 3458SOL    HW211274   4.054   0.509   1.047  0.4910 -1.0427 -0.3258
 3459SOL     OW11275   6.964   3.845   2.236 -0.5232 -0.4896 -0.2763
 3459SOL    HW111276   7.005   3.806   2.153  1.2442  1.5285 -0.4495
 3459SOL    HW211277   6.903   3.920   2.211  0.8420  0.8397  0.2176
 3460SOL     OW11278   1.362   2.646   0.245 -0.3372 -0.7259  0.0558
 3460SOL    HW111279   1.268   2.633   0.276 -0.4950  1.7114  0.7937
 3460SOL    HW211280   1.363   2.675   0.150 -0.3132 -0.9251 -0.0054
 3461SOL     OW11281   2.971   6.290   4.531 -0.6078  0.1717 -0.2543
 3461SOL    HW111282   3.055   6.294   4.583 -0.5584  0.4901 -0.3532
 3461SOL    HW211283   2.909   6.363   4.561 -1.2568 -0.6637  0.5050
 3462SOL     OW11284   0.223   2.081   2.632  0.5309 -0.2451 -0.0648
 3462SOL    HW111285   0.223   1.982   2.643  0.2370 -0.4671 -1.8214
 3462SOL    HW211286   0.300   2.108   2.574  1.8577  0.7998  2.0589
 3463SOL     OW11287   1.543   3.071   2.481 -0.1607  0.0032 -0.4613
 3463SOL    HW111288   1.608   3.026   2.542  0.3373  2.8918  1.2991
 3463SOL    HW211289   1.456   3.083   2.529 -1.8714 -3.0314 -2.4919
 3464SOL     OW11290   0.600   2.282   1.338  0.2903  0.1360  0.1292
 3464SOL    HW111291   0.632   2.372   1.306 -1.1736  0.6756  0.1327
 3464SOL    HW211292   0.592   2.284   1.438  0.0898  0.0565  0.1133
 3465SOL     OW11293   5.786   3.786   1.875 -0.5549 -0.4179  0.0787
 3465SOL    HW111294   5.755   3.715   1.811 -1.5952  0.7696 -0.7765
 3465SOL    HW211295   5.723   3.791   1.953  0.5567 -1.6717  1.1079
 3466SOL     OW11296   5.621   5.302   1.147 -0.3281 -0.4041  0.4321
 3466SOL    HW111297   5.693   5.352   1.097 -1.5346  0.6727 -0.2884
 3466SOL    HW211298   5.638   5.204   1.139  2.1686 -0.1861  1.9888
 3467SOL     OW11299   2.041   0.789   0.673 -0.1516  0.2754 -0.0734
 3467SOL    HW111300   2.107   0.762   0.743 -0.1946 -1.9323 -0.7842
 3467SOL    HW211301   2.050   0.887   0.654  1.3324  0.4838  1.4510
 3468SOL     OW11302   5.168   0.903   3.655  0.3706  0.2279  0.1817
 3468SOL    HW111303   5.174   0.920   3.754 -0.3565 -1.4971  0.5760
 3468SOL    HW211304   5.107   0.825   3.639  0.2408  0.6680 -1.6695
 3469SOL     OW11305   4.855   3.111   4.111 -0.2289  0.3961  0.2589
 3469SOL    HW111306   4.837   3.016   4.136 -0.1141  0.3608  0.2099
 3469SOL    HW211307   4.855   3.168   4.193 -0.3820  0.3682  0.2785
 3470SOL     OW11308   1.116   1.307   2.364 -0.0844  0.4701 -0.0454
 3470SOL    HW111309   1.144   1.282   2.271  1.2127  1.0346  0.1761
 3470SOL    HW211310   1.091   1.224   2.414 -1.5172  0.2228 -1.1004
 3471SOL     OW11311   4.086   4.806   4.436 -0.0674  0.2293  0.4469
 3471SOL    HW111312   4.050   4.839   4.524 -0.6214  0.9383 -0.0312
 3471SOL    HW211313   4.019   4.823   4.364 -0.1022 -1.3937  0.0563
 3472SOL     OW11314   2.418   1.854   0.815 -0.3467  0.5886  0.1445
 3472SOL    HW111315   2.453   1.937   0.858 -0.0696  0.4233  0.2451
 3472SOL    HW211316   2.451   1.848   0.721  3.2127 -1.4532  1.2999
 3473SOL     OW11317   0.369   3.206   2.005 -0.1829 -0.4777  0.7448
 3473SOL    HW111318   0.395   3.281   1.945 -0.4290  0.1896  1.4546
 3473SOL    HW211319   0.396   3.228   2.099 -1.1820 -0.8087  1.1183
 3474SOL     OW11320   0.441   3.467   1.445 -0.1989 -0.0058  0.3145
 3474SOL    HW111321   0.432   3.531   1.369 -0.5595  1.5191  1.5991
 3474SOL    HW211322   0.523   3.489   1.498  0.0840 -1.0946  0.3664
 3475SOL     OW11323   1.805   4.838   2.061 -0.0038  0.5102 -0.8312
 3475SOL    HW111324   1.781   4.755   2.110  2.2571 -1.3988 -2.7400
 3475SOL    HW211325   1.840   4.907   2.125 -3.3096  0.7033  0.9827
 3476SOL     OW11326   1.636   1.013   1.419  0.1726  0.3043 -0.5939
 3476SOL    HW111327   1.549   0.991   1.373  0.0520  0.3212 -0.3729
 3476SOL    HW211328   1.689   1.074   1.360  1.1820 -1.7344 -1.9150
 3477SOL     OW11329   1.173   4.310   2.759  0.1710  0.0525 -0.2160
 3477SOL    HW111330   1.261   4.266   2.780  0.0270 -1.0313 -1.7152
 3477SOL    HW211331   1.099   4.260   2.806  0.1186 -0.6359 -1.0154
 3478SOL     OW11332   0.469   5.912   5.328  0.1919  0.1416 -0.2215
 3478SOL    HW111333   0.529   5.850   5.378  0.8887 -0.3644 -1.6104
 3478SOL    HW211334   0.460   5.998   5.377  0.3517 -0.5432  1.0399
 3479SOL     OW11335   1.462   6.422   3.472 -0.0294 -0.5570  0.2656
 3479SOL    HW111336   1.463   6.364   3.554 -1.8713  1.3962  1.7920
 3479SOL    HW211337   1.519   6.502   3.489  1.1073 -1.0242 -1.1619
 3480SOL     OW11338   5.667   3.952   4.679 -0.3549  0.0334  0.2870
 3480SOL    HW111339   5.746   4.012   4.684 -0.1863 -0.0372 -1.1253
 3480SOL    HW211340   5.583   4.007   4.682 -0.2430  0.1894  0.6867
 3481SOL     OW11341   4.391   6.074   0.543  0.6884 -0.1129 -0.3731
 3481SOL    HW111342   4.485   6.046   0.524  0.7274  0.9025 -1.7945
 3481SOL    HW211343   4.391   6.167   0.580  0.2405 -0.1030 -0.3985
 3482SOL     OW11344   6.217   3.272   1.752 -0.3556  0.4609  0.2106
 3482SOL    HW111345   6.209   3.231   1.842  2.6685 -1.5065 -0.3068
 3482SOL    HW211346   6.140   3.242   1.695 -0.2227 -1.4797  0.9795
 3483SOL     OW11347   4.619   2.687   3.111  0.3087 -0.1001 -0.2496
 3483SOL    HW111348   4.636   2.594   3.144  0.8945 -0.2909 -1.0590
 3483SOL    HW211349   4.606   2.748   3.189  3.3478 -0.2095  0.4577
 3484SOL     OW11350   0.751   1.684   6.786  0.2161  0.2714  0.0717
 3484SOL    HW111351   0.668   1.693   6.840  0.7979  0.2483  0.9853
 3484SOL    HW211352   0.806   1.768   6.795  0.5543  0.0674 -0.0671
 3485SOL     OW11353   0.848   2.097   4.396  0.1151 -0.5254  0.8606
 3485SOL    HW111354   0.935   2.145   4.385 -0.1163 -0.0026  1.2690
 3485SOL    HW211355   0.832   2.078   4.492 -0.1773 -0.7075  0.7783
 3486SOL     OW11356   3.215   0.770   4.067 -0.1785 -0.0789  0.6601
 3486SOL    HW111357   3.132   0.716   4.077  0.0200 -0.2884  1.2481
 3486SOL    HW211358   3.195   0.866   4.088 -0.4828  0.0481 -0.1715
 3487SOL     OW11359   1.330   2.251   1.738 -0.5780  0.2695  0.0248
 3487SOL    HW111360   1.291   2.199   1.814  0.1583  0.0201  0.2362
 3487SOL    HW211361   1.267   2.324   1.713 -0.5610  0.7374  1.2752
 3488SOL     OW11362   4.921   0.597   5.491 -0.3806  0.0282  0.5920
 3488SOL    HW111363   4.919   0.504   5.453  1.2120  0.5682 -1.0109
 3488SOL    HW211364   4.831   0.639   5.481 -0.7983 -0.9225  0.2050
 3489SOL     OW11365   3.625   0.630   2.025 -0.2304 -0.0181 -0.3584
 3489SOL    HW111366   3.617   0.711   1.966  0.5645  0.6721  0.4449
 3489SOL    HW211367   3.625   0.659   2.121  3.0987 -0.6303 -0.0711
 3490SOL     OW11368   2.399   3.888   1.268  0.7154  0.6158  0.3156
 3490SOL    HW111369   2.355   3.838   1.342  2.2466  1.4433  1.8484
 3490SOL    HW211370   2.498   3.890   1.283  1.2711 -0.3885 -2.5001
 3491SOL     OW11371   6.186   2.577   6.044  0.1074 -0.5550  0.9517
 3491SOL    HW111372   6.191   2.491   6.096  0.4528  0.9851  3.6522
 3491SOL    HW211373   6.278   2.612   6.029 -0.0676 -0.2569  0.5717
 3492SOL     OW11374   6.435   3.614   2.157  0.2476 -0.2117  0.5438
 3492SOL    HW111375   6.434   3.688   2.224  0.9126 -1.1311  1.6038
 3492SOL    HW211376   6.516   3.622   2.099  0.6121 -0.4029  1.0186
 3493SOL     OW11377   3.610   5.207   5.313  0.4411  0.6064 -0.5899
 3493SOL    HW111378   3.564   5.125   5.347  1.2037  0.9448  1.3949
 3493SOL    HW211379   3.545   5.263   5.261 -1.6275  1.2697  2.4159
 3494SOL     OW11380   2.000   6.714   2.009  0.5025  0.1635 -0.5267
 3494SOL    HW111381   2.002   6.814   2.002 -0.3429  0.1384 -1.2938
 3494SOL    HW211382   1.995   6.688   2.105  1.9402  0.8213 -0.2497
 3495SOL     OW11383   0.715   5.185   1.305 -0.2453  0.2252 -0.2654
 3495SOL    HW111384   0.701   5.210   1.401  0.6963  0.8407 -0.2740
 3495SOL    HW211385   0.808   5.151   1.293  0.0200  1.2144 -1.1690
 3496SOL     OW11386   0.405   5.584   1.173  0.2100 -0.2646 -0.0930
 3496SOL    HW111387   0.316   5.557   1.136  0.0265 -0.0469  0.1912
 3496SOL    HW211388   0.460   5.502   1.189  0.4301 -0.3506 -1.1768
 3497SOL     OW11389   3.024   1.022   3.455  0.4254 -0.2781  0.4817
 3497SOL    HW111390   3.003   1.103   3.508 -0.9360 -0.5438  0.3996
 3497SOL    HW211391   3.069   0.954   3.513 -0.1950 -0.2074  1.0545
 3498SOL     OW11392   5.329   2.341   0.532 -0.5943  0.1276  0.1342
 3498SOL    HW111393   5.306   2.336   0.630  1.4575 -1.6456  0.6017
 3498SOL    HW211394   5.345   2.436   0.507  0.4218  0.4929  1.9556
 3499SOL     OW11395   6.231   4.067   4.780  0.0868 -0.5300 -0.0141
 3499SOL    HW111396   6.256   4.121   4.860 -0.3066 -0.4321  0.0416
 3499SOL    HW211397   6.299   3.994   4.768  2.0562  1.4348 -1.5465
 3500SOL     OW11398   2.050   2.175   3.409  0.1182  0.2361 -0.0936
 3500SOL    HW111399   2.008   2.091   3.375  2.1361 -0.6753 -0.4754
 3500SOL    HW211400   2.046   2.245   3.338 -1.5927  0.5199  0.2338
 3501SOL     OW11401   0.850   3.833   5.577  0.3408  0.0374 -0.1357
 3501SOL    HW111402   0.948   3.842   5.597  0.2848 -1.8099  1.2184
 3501SOL    HW211403   0.797   3.862   5.656 -0.1563 -0.3452 -0.3233
 3502SOL     OW11404   5.519   3.516   1.627  0.0750  0.2646  0.1149
 3502SOL    HW111405   5.611   3.521   1.666 -0.0341  1.8916  0.2175
 3502SOL    HW211406   5.452   3.534   1.699 -0.4294 -1.9922  0.2906
 3503SOL     OW11407   4.616   4.761   4.723  0.5284 -0.1911  0.0372
 3503SOL    HW111408   4.544   4.767   4.654  2.1006  0.8224 -1.6486
 3503SOL    HW211409   4.612   4.841   4.783 -1.1722 -1.3364  1.5295
 3504SOL     OW11410   2.508   2.021   2.619  0.0455  0.2398  0.0097
 3504SOL    HW111411   2.497   1.936   2.568 -0.6791 -0.5171  1.3799
 3504SOL    HW211412   2.601   2.056   2.606 -0.0364 -0.0436 -1.5948
 3505SOL     OW11413   5.808   5.765   6.073  0.3573  0.4827  0.1997
 3505SOL    HW111414   5.717   5.777   6.034  0.4591  1.0933  0.1534
 3505SOL    HW211415   5.842   5.852   6.108  1.4163  0.4998 -0.8313
 3506SOL     OW11416   3.678   5.471   6.473  0.5162  0.6446 -0.0693
 3506SOL    HW111417   3.750   5.438   6.412 -0.4760  0.8636 -1.4196
 3506SOL    HW211418   3.649   5.562   6.444  0.8715  1.3066  1.5298
 3507SOL     OW11419   1.895   0.593   1.757 -0.6149 -0.2585  0.1657
 3507SOL    HW111420   1.848   0.509   1.730  0.8490 -0.5618 -1.6688
 3507SOL    HW211421   1.993   0.582   1.743 -0.4511  2.0062 -0.8577
 3508SOL     OW11422   2.890   1.253   6.689  0.7271  0.0875  0.5011
 3508SOL    HW111423   2.961   1.228   6.622  0.4037  1.2149 -0.2948
 3508SOL    HW211424   2.803   1.265   6.642  0.2275 -0.2891  1.3204
 3509SOL     OW11425   5.199   0.359   6.743  0.1972 -0.0291 -0.4723
 3509SOL    HW111426   5.202   0.366   6.644  2.0697 -0.5077 -0.4716
 3509SOL    HW211427   5.211   0.264   6.771 -1.5083 -0.0902  0.2206
 3510SOL     OW11428   0.338   6.712   1.857  0.1836 -0.7149 -0.2288
 3510SOL    HW111429   0.282   6.695   1.775 -0.2832  0.3206 -0.1454
 3510SOL    HW211430   0.426   6.751   1.829 -1.0655  2.4325 -0.1732
 3511SOL     OW11431   1.177   3.812   1.684  0.7568 -0.3518 -0.6082
 3511SOL    HW111432   1.171   3.903   1.643  1.5986 -0.5318 -1.1609
 3511SOL    HW211433   1.242   3.757   1.632  1.2251 -0.8527  0.4773
 3512SOL     OW11434   1.195   5.448   6.037 -0.1008 -0.3841 -0.4867
 3512SOL    HW111435   1.293   5.429   6.033  0.1434  0.4456  0.8661
 3512SOL    HW211436   1.166   5.492   5.952  1.1796  1.3946 -0.0617
 3513SOL     OW11437   0.565   3.839   6.686 -0.5308  0.2996 -0.0699
 3513SOL    HW111438   0.467   3.847   6.700 -0.3024  0.7018  1.3971
 3513SOL    HW211439   0.597   3.915   6.628 -0.7766  1.3492  1.1439
 3514SOL     OW11440   0.909   1.676   1.587 -0.2416  0.1051  0.4102
 3514SOL    HW111441   0.947   1.767   1.598 -2.9929  1.3242  0.7238
 3514SOL    HW211442   0.890   1.659   1.490 -0.4260  0.1701  0.4351
 3515SOL     OW11443   3.700   5.640   2.632  0.8930 -0.1568 -0.3699
 3515SOL    HW111444   3.798   5.636   2.617  0.7545  0.3037 -1.4833
 3515SOL    HW211445   3.656   5.688   2.556 -0.0675  0.6728  0.6644
 3516SOL     OW11446   4.124   5.248   2.924  0.4493  0.0713 -0.1863
 3516SOL    HW111447   4.101   5.345   2.923  0.7583  0.1587 -1.7138
 3516SOL    HW211448   4.220   5.237   2.899  0.3520 -0.6380 -0.2638
 3517SOL     OW11449   1.152   1.366   0.886 -0.2835  0.5664 -0.5848
 3517SOL    HW111450   1.133   1.273   0.916 -0.1350 -0.0554 -2.3389
 3517SOL    HW211451   1.105   1.430   0.947 -1.1253 -0.6676  0.1125
 3518SOL     OW11452   5.486   2.101   3.987  0.1462  0.0913 -0.5658
 3518SOL    HW111453   5.434   2.172   4.035 -1.6327 -0.8460 -1.0400
 3518SOL    HW211454   5.492   2.125   3.890  0.4982  0.1197 -0.5385
 3519SOL     OW11455   2.405   2.377   5.547  0.3445 -0.8614  0.2851
 3519SOL    HW111456   2.333   2.445   5.534  0.2039 -1.1960 -0.6979
 3519SOL    HW211457   2.470   2.412   5.615 -0.7702 -0.5994  1.2525
 3520SOL     OW11458   3.326   0.349   1.622 -0.9855  0.4323  0.1000
 3520SOL    HW111459   3.374   0.261   1.633 -1.6675  0.3399  3.3511
 3520SOL    HW211460   3.245   0.336   1.565 -0.3661 -0.7505 -0.5448
 3521SOL     OW11461   5.260   2.112   0.899 -0.1085 -0.6132  1.2477
 3521SOL    HW111462   5.182   2.053   0.881  0.1322 -0.4109 -0.6808
 3521SOL    HW211463   5.342   2.074   0.856  0.7999 -0.6103  2.8901
 3522SOL     OW11464   2.208   5.367   1.879  0.3456 -0.1945 -0.7135
 3522SOL    HW111465   2.244   5.322   1.961 -0.8402  1.7020  0.9205
 3522SOL    HW211466   2.112   5.390   1.893 -0.3112 -1.0361 -3.2119
 3523SOL     OW11467   1.746   5.261   0.515  0.2834 -0.5368 -0.1623
 3523SOL    HW111468   1.695   5.334   0.469  0.2311  0.4055  1.3274
 3523SOL    HW211469   1.683   5.193   0.551  0.2693 -0.7776 -0.6279
 3524SOL     OW11470   6.156   2.156   2.401 -0.2999  1.0551  0.0156
 3524SOL    HW111471   6.070   2.131   2.445  0.2061 -0.9370 -0.0492
 3524SOL    HW211472   6.144   2.154   2.302 -0.4107  1.6691  0.0152
 3525SOL     OW11473   1.519   5.010   2.205 -0.2412 -0.1264 -0.0191
 3525SOL    HW111474   1.552   4.931   2.257 -1.1955  1.2031  2.7925
 3525SOL    HW211475   1.431   4.986   2.162 -0.4813 -0.6366  0.7289
 3526SOL     OW11476   1.803   0.255   6.045 -0.1262  0.1867 -0.3572
 3526SOL    HW111477   1.824   0.281   6.140  0.2289  1.4264 -0.7539
 3526SOL    HW211478   1.799   0.156   6.038  0.2211  0.0676  0.8834
 3527SOL     OW11479   5.515   4.459   6.874  0.4246 -0.3767  0.4756
 3527SOL    HW111480   5.509   4.542   6.819 -1.5831 -0.0094  1.1938
 3527SOL    HW211481   5.449   4.463   6.948  1.1886 -2.0753  1.3000
 3528SOL     OW11482   6.800   4.115   5.826  0.5566  0.2272 -0.7958
 3528SOL    HW111483   6.858   4.037   5.846  0.4483  0.4036  0.2911
 3528SOL    HW211484   6.834   4.195   5.876 -0.2556  0.4763 -0.6294
 3529SOL     OW11485   5.424   0.079   0.704 -0.0639 -0.3551  0.3165
 3529SOL    HW111486   5.379   0.101   0.791 -0.3311  0.9240 -0.1179
 3529SOL    HW211487   5.514   0.038   0.723  0.2104  0.6049  1.2130
 3530SOL     OW11488   0.807   4.396   1.857 -0.0557  0.1371  0.3469
 3530SOL    HW111489   0.854   4.459   1.919  0.6315 -0.9820  0.9960
 3530SOL    HW211490   0.795   4.307   1.901 -2.4047  0.2242  0.0164
 3531SOL     OW11491   6.336   3.886   1.385  0.7309  0.1166  0.2819
 3531SOL    HW111492   6.258   3.897   1.447  0.7153 -0.7761  0.4325
 3531SOL    HW211493   6.421   3.891   1.438  0.7662  0.7413  0.1690
 3532SOL     OW11494   2.325   6.979   3.412 -0.0218 -0.5182 -0.1978
 3532SOL    HW111495   2.398   6.954   3.348  0.0755 -1.1746  0.1619
 3532SOL    HW211496   2.290   7.069   3.388 -0.9849 -1.3294 -2.0823
 3533SOL     OW11497   1.597   1.049   2.176  0.3180  0.1062  0.2515
 3533SOL    HW111498   1.678   0.997   2.148 -0.7947 -1.1656 -0.6878
 3533SOL    HW211499   1.608   1.078   2.271  0.9672 -1.8885  0.8378
 3534SOL     OW11500   0.753   1.867   0.649  0.2034  0.4929 -0.1494
 3534SOL    HW111501   0.666   1.854   0.603  1.0559 -0.5129 -1.5720
 3534SOL    HW211502   0.805   1.939   0.602  0.3270  0.7682  0.4041
 3535SOL     OW11503   0.418   6.192   6.778  0.1598  0.0696  0.1652
 3535SOL    HW111504   0.467   6.156   6.858 -2.7339 -0.6305  1.7981
 3535SOL    HW211505   0.397   6.117   6.715  2.2656  0.5893 -1.2441
 3536SOL     OW11506   1.565   0.991   3.404  0.1851 -0.2402 -0.4427
 3536SOL    HW111507   1.494   0.956   3.342 -0.5557  0.5724 -0.0598
 3536SOL    HW211508   1.579   1.088   3.387  0.3292 -0.1228  0.3367
 3537SOL     OW11509   4.148   5.818   3.905 -0.1683  0.3293  0.3706
 3537SOL    HW111510   4.076   5.804   3.973  0.7718 -1.3888  1.0626
 3537SOL    HW211511   4.161   5.735   3.852  0.0579  1.2149 -1.0288
 3538SOL     OW11512   0.942   6.002   4.296  0.0401  0.7873 -0.2679
 3538SOL    HW111513   0.884   5.968   4.221  0.4469 -0.7210  0.0682
 3538SOL    HW211514   0.954   5.930   4.364  2.1154  1.1375 -0.1966
 3539SOL     OW11515   4.965   3.352   4.012  0.0200 -0.6152  0.1505
 3539SOL    HW111516   4.931   3.258   4.010 -1.5073 -0.0946 -0.2354
 3539SOL    HW211517   4.903   3.409   4.066 -0.7683  0.7414 -2.0416
 3540SOL     OW11518   2.699   3.037   5.312  0.1746  0.1649 -0.2426
 3540SOL    HW111519   2.686   3.074   5.404  1.1703  0.5848 -0.2571
 3540SOL    HW211520   2.611   3.031   5.266 -0.1941  1.1700  0.2898
 3541SOL     OW11521   0.140   2.764   5.855 -0.1486  0.0162  0.3031
 3541SOL    HW111522   0.225   2.782   5.807  0.7049  0.7660  1.9932
 3541SOL    HW211523   0.084   2.700   5.803  0.8284  0.5788 -1.4926
 3542SOL     OW11524   1.761   5.380   3.536  0.0220  0.2257  0.6201
 3542SOL    HW111525   1.817   5.425   3.605  0.1644 -0.1361  0.7453
 3542SOL    HW211526   1.815   5.308   3.491  0.4326  1.4794 -0.9657
 3543SOL     OW11527   1.309   1.499   4.385  0.3001  0.3357 -0.0112
 3543SOL    HW111528   1.405   1.511   4.410  0.0703 -0.1524  1.1502
 3543SOL    HW211529   1.303   1.462   4.292  1.2346  0.2563 -0.0435
 3544SOL     OW11530   1.170   2.715   6.516  0.0510  0.3583 -0.0655
 3544SOL    HW111531   1.147   2.627   6.473  0.0695  1.5341 -2.6986
 3544SOL    HW211532   1.266   2.715   6.543  0.1003 -0.3775 -0.2187
 3545SOL     OW11533   4.708   6.118   6.621  0.1930  0.4220  0.1736
 3545SOL    HW111534   4.803   6.144   6.636  0.5110 -1.2950  1.4175
 3545SOL    HW211535   4.696   6.021   6.642 -1.8891  0.6570  0.2804
 3546SOL     OW11536   1.308   4.941   3.421 -0.1431 -0.0817 -0.2573
 3546SOL    HW111537   1.283   4.855   3.377 -2.6970 -0.3931  1.5825
 3546SOL    HW211538   1.264   4.947   3.510  1.5591  2.3075  0.5282
 3547SOL     OW11539   6.235   2.791   3.747 -0.6624 -0.1102  0.0000
 3547SOL    HW111540   6.204   2.714   3.692  0.8604 -0.3979 -0.5140
 3547SOL    HW211541   6.334   2.804   3.733 -0.4499  0.5014  1.8417
 3548SOL     OW11542   5.616   6.841   6.042  0.7942 -0.6532  0.5879
 3548SOL    HW111543   5.529   6.795   6.062  1.1815 -1.2776  0.8460
 3548SOL    HW211544   5.627   6.850   5.943  0.0021  0.2754  0.5660
 3549SOL     OW11545   5.967   5.923   4.301 -0.0539  0.2746 -0.6910
 3549SOL    HW111546   5.953   5.847   4.237 -1.3970  0.3229 -0.4759
 3549SOL    HW211547   6.033   5.896   4.371 -0.3148 -0.6038 -0.7763
 3550SOL     OW11548   0.957   1.620   1.845  0.2381 -0.9418  0.3670
 3550SOL    HW111549   0.960   1.527   1.880  0.2034 -1.1928 -0.2878
 3550SOL    HW211550   0.920   1.620   1.752 -0.3231 -0.2095  0.5792
 3551SOL     OW11551   3.640   0.407   1.868 -0.4249 -0.2191  0.0088
 3551SOL    HW111552   3.553   0.379   1.829 -0.1511  1.3749 -1.8835
 3551SOL    HW211553   3.625   0.486   1.929 -0.2345  0.6435 -1.0319
 3552SOL     OW11554   4.334   5.392   1.953 -0.6748 -0.7690  0.4351
 3552SOL    HW111555   4.332   5.322   1.882 -1.4502 -2.5446  2.1124
 3552SOL    HW211556   4.270   5.465   1.930 -1.9568 -2.0073 -0.0227
 3553SOL     OW11557   4.481   3.100   1.169  0.0165  0.2814 -0.2618
 3553SOL    HW111558   4.487   3.003   1.145  0.0405  0.6635 -1.8657
 3553SOL    HW211559   4.460   3.154   1.088  0.4804  1.6837  0.5118
 3554SOL     OW11560   5.861   2.256   6.860 -0.0831 -0.2011  0.3720
 3554SOL    HW111561   5.765   2.230   6.844 -0.4419  0.0654  1.8825
 3554SOL    HW211562   5.872   2.354   6.841  0.3549 -0.5966 -1.5899
 3555SOL     OW11563   2.052   3.685   2.568 -0.1689  0.1075  0.0308
 3555SOL    HW111564   2.100   3.598   2.554 -0.4072 -0.0798  0.3603
 3555SOL    HW211565   1.966   3.685   2.519 -0.1668  0.1616  0.0264
 3556SOL     OW11566   3.790   1.365   2.444  0.2712 -0.1267 -0.2357
 3556SOL    HW111567   3.791   1.431   2.369  2.2321 -1.2613 -1.2938
 3556SOL    HW211568   3.776   1.273   2.408 -0.9203 -0.5038  1.0598
 3557SOL     OW11569   6.953   0.867   3.571  0.1744 -0.1023  0.6786
 3557SOL    HW111570   6.906   0.944   3.614 -0.0248 -0.2731  0.7620
 3557SOL    HW211571   7.022   0.902   3.507 -0.8521  0.1411 -0.3166
 3558SOL     OW11572   1.725   6.400   1.445  0.4085 -0.9091  0.3931
 3558SOL    HW111573   1.807   6.371   1.396 -0.6098 -1.8115 -0.8282
 3558SOL    HW211574   1.711   6.341   1.524 -0.1722 -2.1092 -0.5694
 3559SOL     OW11575   6.088   6.184   4.356  0.1136  0.4145  0.2676
 3559SOL    HW111576   5.996   6.164   4.320  0.2948  0.9971 -0.5281
 3559SOL    HW211577   6.157   6.147   4.294  0.4305  1.6215 -0.1158
 3560SOL     OW11578   1.026   5.682   3.003  0.1553  0.0105  0.9220
 3560SOL    HW111579   1.119   5.673   2.967  0.0005 -0.7756  0.7005
 3560SOL    HW211580   1.022   5.648   3.096 -0.0840 -0.7118  0.6497
 3561SOL     OW11581   5.067   4.352   6.401  0.1478 -0.1200  0.2118
 3561SOL    HW111582   4.973   4.371   6.428  0.2794  0.0956  0.5157
 3561SOL    HW211583   5.129   4.419   6.442  0.4510 -0.3448  0.1297
 3562SOL     OW11584   4.865   0.400   3.630  0.2038  0.4988 -0.4205
 3562SOL    HW111585   4.826   0.332   3.693 -1.6365 -1.9701 -3.8693
 3562SOL    HW211586   4.965   0.392   3.631  0.4793  2.2091  3.6729
 3563SOL     OW11587   6.935   2.198   6.932 -0.3698  0.1707 -0.4519
 3563SOL    HW111588   6.885   2.125   6.978  0.0643  0.4702  0.5339
 3563SOL    HW211589   6.980   2.161   6.851  0.2473 -0.7813  0.2952
 3564SOL     OW11590   0.473   3.615   1.930 -0.1760 -0.2032 -0.0117
 3564SOL    HW111591   0.412   3.603   2.009 -1.6994 -2.1260 -1.3563
 3564SOL    HW211592   0.421   3.653   1.853  0.2321 -1.9306 -1.2112
 3565SOL     OW11593   3.981   6.195   5.776 -0.5932  0.1035  0.0861
 3565SOL    HW111594   4.048   6.122   5.791  1.2752  1.2282 -2.1496
 3565SOL    HW211595   3.913   6.164   5.709 -0.6557 -0.0685  0.2261
 3566SOL     OW11596   1.035   2.360   5.969 -0.6711 -0.2795 -0.1426
 3566SOL    HW111597   1.057   2.433   5.904  1.1956 -1.1668 -0.5556
 3566SOL    HW211598   1.110   2.347   6.033 -1.7695 -0.5914  1.1259
 3567SOL     OW11599   6.554   2.607   6.385 -0.1832 -0.1852  0.3244
 3567SOL    HW111600   6.515   2.568   6.469  1.0091 -0.8011  0.6151
 3567SOL    HW211601   6.627   2.671   6.409 -0.1133 -0.0555 -0.2320
 3568SOL     OW11602   4.538   4.670   3.246 -0.8445  0.3078 -0.0323
 3568SOL    HW111603   4.595   4.631   3.320  0.6218  0.5016 -1.0169
 3568SOL    HW211604   4.473   4.734   3.285 -0.3344  0.1477  1.1432
 3569SOL     OW11605   2.692   1.265   5.733 -0.2480 -0.8835  0.0044
 3569SOL    HW111606   2.669   1.348   5.783  1.1416 -0.7766  0.4796
 3569SOL    HW211607   2.701   1.286   5.636 -0.5709 -0.6214  0.0291
 3570SOL     OW11608   3.410   1.749   3.954  0.0856 -0.1036  0.1186
 3570SOL    HW111609   3.387   1.808   3.876  1.3023  0.3310  0.0588
 3570SOL    HW211610   3.326   1.717   3.998 -0.6115  1.9332  0.3506
 3571SOL     OW11611   1.704   2.013   4.787 -0.1205 -0.0598  0.1195
 3571SOL    HW111612   1.604   2.012   4.795 -0.6712  0.0071 -4.3627
 3571SOL    HW211613   1.741   1.928   4.824 -2.0070 -0.8253  0.3459
 3572SOL     OW11614   3.975   2.500   0.290 -0.3104 -0.4118  0.2438
 3572SOL    HW111615   4.057   2.460   0.248  1.4257  2.0931  0.9700
 3572SOL    HW211616   3.930   2.432   0.348 -0.6222 -2.8114 -2.5471
 3573SOL     OW11617   6.321   4.089   2.745 -0.5384 -0.4015  0.2738
 3573SOL    HW111618   6.256   4.064   2.673 -0.7299  0.6928  0.0528
 3573SOL    HW211619   6.414   4.073   2.712 -0.5514  1.5720 -0.8400
 3574SOL     OW11620   6.064   2.708   6.491  0.6470 -0.2158 -0.0472
 3574SOL    HW111621   6.032   2.628   6.440 -0.7019 -0.4563  1.1178
 3574SOL    HW211622   6.052   2.789   6.435  2.4854 -0.8435 -1.4325
 3575SOL     OW11623   4.886   5.775   4.419 -0.1936  0.5338  0.3017
 3575SOL    HW111624   4.923   5.826   4.497  1.0929  2.0384 -1.1996
 3575SOL    HW211625   4.895   5.831   4.337  0.0551 -1.6674 -1.2340
 3576SOL     OW11626   5.528   2.607   0.605  0.7609  0.4855 -0.3725
 3576SOL    HW111627   5.511   2.632   0.510  0.2902  2.0896  0.0991
 3576SOL    HW211628   5.444   2.618   0.658  0.6201 -1.8442 -0.0279
 3577SOL     OW11629   1.935   3.134   1.164  0.5098  0.2007 -0.0659
 3577SOL    HW111630   1.973   3.178   1.082 -0.7489  0.2759 -0.6223
 3577SOL    HW211631   1.941   3.198   1.240  0.1304  0.7718 -0.5039
 3578SOL     OW11632   5.319   1.963   7.013  0.6413 -0.1615  0.3546
 3578SOL    HW111633   5.339   1.968   6.915  2.2552  1.7708  0.7037
 3578SOL    HW211634   5.229   2.003   7.031  0.5645 -0.0299 -0.2958
 3579SOL     OW11635   2.055   3.246   1.382 -0.2550  0.8326  0.4350
 3579SOL    HW111636   2.038   3.171   1.445  0.7400 -0.3087 -0.6119
 3579SOL    HW211637   2.143   3.233   1.338 -1.3031  1.0873 -1.8765
 3580SOL     OW11638   6.755   3.874   1.332 -0.0926  0.4954 -0.0623
 3580SOL    HW111639   6.767   3.777   1.351  0.3393  0.9560  2.4009
 3580SOL    HW211640   6.696   3.915   1.402  1.3695  2.3684  0.1726
 3581SOL     OW11641   5.887   4.515   3.995  0.3669 -0.4896  0.0020
 3581SOL    HW111642   5.802   4.462   4.001 -0.6043  0.7726 -1.6731
 3581SOL    HW211643   5.882   4.578   3.918  2.7338 -0.1391  0.0528
 3582SOL     OW11644   1.822   2.649   6.248  0.2916  0.3275 -0.1109
 3582SOL    HW111645   1.862   2.622   6.161  1.1454 -0.7435  0.5878
 3582SOL    HW211646   1.777   2.738   6.238  0.9955  0.5565 -1.4462
 3583SOL     OW11647   3.867   3.334   5.755  0.1546 -0.3619  0.0692
 3583SOL    HW111648   3.841   3.253   5.808 -0.3997  0.2761  0.8029
 3583SOL    HW211649   3.964   3.328   5.731  0.3786 -0.7543  1.0214
 3584SOL     OW11650   5.168   5.433   1.138  0.5299  0.0904  0.5595
 3584SOL    HW111651   5.194   5.493   1.062  1.7249  1.1503  1.7316
 3584SOL    HW211652   5.093   5.374   1.111  1.4156 -0.1010 -1.6836
 3585SOL     OW11653   2.758   1.857   2.761 -0.2916 -0.1563 -0.0638
 3585SOL    HW111654   2.804   1.820   2.842 -1.8577 -0.6212  0.6324
 3585SOL    HW211655   2.704   1.937   2.787 -1.1877 -0.5931 -0.5698
 3586SOL     OW11656   0.405   2.215   3.746  1.2069 -0.1270  0.8953
 3586SOL    HW111657   0.467   2.271   3.692  0.4810  0.7027  0.8944
 3586SOL    HW211658   0.383   2.262   3.832  1.9940 -1.2290  1.7169
 3587SOL     OW11659   2.598   4.593   5.921  0.1449 -0.7548  0.1484
 3587SOL    HW111660   2.501   4.570   5.915 -0.5693  1.7577  1.2450
 3587SOL    HW211661   2.652   4.517   5.883 -2.2045 -2.1963 -0.5082
 3588SOL     OW11662   5.522   4.379   5.032  0.1275  0.2878  0.6769
 3588SOL    HW111663   5.563   4.295   5.067  1.5514  1.2114  1.2978
 3588SOL    HW211664   5.514   4.446   5.106  0.2243  1.1475 -0.0718
 3589SOL     OW11665   5.207   0.952   5.771  0.0984  0.4175  0.2379
 3589SOL    HW111666   5.147   1.025   5.804 -1.0138  0.0989 -0.9868
 3589SOL    HW211667   5.158   0.897   5.704  1.1510 -1.0479  0.6247
 3590SOL     OW11668   5.360   2.392   0.818  0.4229 -0.0247 -0.0137
 3590SOL    HW111669   5.301   2.329   0.868  0.7192  0.3726  0.8543
 3590SOL    HW211670   5.433   2.424   0.878 -0.9923  2.8808  0.3378
 3591SOL     OW11671   5.651   2.304   6.670  0.2070 -0.3897  0.6080
 3591SOL    HW111672   5.616   2.371   6.736 -2.1454  1.2994 -2.1607
 3591SOL    HW211673   5.588   2.227   6.664  0.0744 -0.2299 -0.0987
 3592SOL     OW11674   6.154   0.024   0.315 -0.1595 -0.0367  0.4061
 3592SOL    HW111675   6.065   0.062   0.341  0.3658  0.7737  1.1084
 3592SOL    HW211676   6.211   0.016   0.397  0.7786  0.4778 -0.1763
 3593SOL     OW11677   5.321   4.854   6.207 -0.4075  0.3668  0.0360
 3593SOL    HW111678   5.269   4.870   6.291  1.6143  2.3925  0.9750
 3593SOL    HW211679   5.257   4.846   6.130 -2.1706  1.4401  1.3102
 3594SOL     OW11680   3.098   6.976   4.159 -0.4936 -0.3441 -0.3690
 3594SOL    HW111681   3.098   6.877   4.173 -0.0826 -0.4451 -1.0154
 3594SOL    HW211682   3.142   6.997   4.071  1.9616  0.5812  0.9814
 3595SOL     OW11683   4.788   6.738   0.612 -0.5370 -0.3113 -0.6582
 3595SOL    HW111684   4.714   6.749   0.678  0.1577  0.1593  0.0634
 3595SOL    HW211685   4.762   6.781   0.525 -1.1788 -0.3098 -0.4689
 3596SOL     OW11686   4.365   1.503   5.444 -0.1602  0.5258  0.4150
 3596SOL    HW111687   4.401   1.564   5.374 -1.2843 -0.9430 -1.5333
 3596SOL    HW211688   4.266   1.493   5.432 -0.1156 -1.0829  1.1688
 3597SOL     OW11689   0.643   2.487   4.826 -0.3495 -0.3813 -1.0341
 3597SOL    HW111690   0.732   2.483   4.872  0.7448 -2.3914 -3.0728
 3597SOL    HW211691   0.592   2.566   4.857  1.8983  0.4907  0.6801
 3598SOL     OW11692   1.788   5.487   6.208  0.0088 -0.2835  0.1081
 3598SOL    HW111693   1.815   5.583   6.209 -0.3499 -0.1190 -1.8560
 3598SOL    HW211694   1.699   5.477   6.252 -0.5982  0.5414 -0.8661
 3599SOL     OW11695   5.192   3.683   0.038 -0.0540  0.3343 -0.5308
 3599SOL    HW111696   5.227   3.777   0.046  1.4988 -0.1342 -1.3867
 3599SOL    HW211697   5.119   3.681  -0.031  0.0081  0.8735 -0.6197
 3600SOL     OW11698   1.892   2.162   2.391  0.1071 -0.2368  0.1948
 3600SOL    HW111699   1.912   2.234   2.324 -1.7932  0.5068  0.3515
 3600SOL    HW211700   1.900   2.073   2.348  1.2317  0.1211 -0.3685
 3601SOL     OW11701   6.145   1.281   4.871  0.0049  0.3723  0.4308
 3601SOL    HW111702   6.192   1.370   4.869 -1.6731  1.2939 -1.3900
 3601SOL    HW211703   6.148   1.245   4.964 -0.5293  3.0711  1.6162
 3602SOL     OW11704   2.112   4.790   6.684  0.0223 -0.3607 -0.1273
 3602SOL    HW111705   2.210   4.800   6.705 -0.4437  0.9147  1.7543
 3602SOL    HW211706   2.086   4.694   6.692  1.1617 -0.7711 -0.9851
 3603SOL     OW11707   1.495   0.905   2.643  0.6226  0.3131 -0.1170
 3603SOL    HW111708   1.456   0.822   2.604 -0.5770  0.6021  0.4022
 3603SOL    HW211709   1.427   0.978   2.639  1.6371  1.2527 -0.4915
 3604SOL     OW11710   5.840   1.289   2.036 -0.0573 -0.1007 -0.4011
 3604SOL    HW111711   5.891   1.293   2.122  0.4181 -0.4083 -0.6646
 3604SOL    HW211712   5.801   1.379   2.017 -0.3095 -0.0741  0.2238
 3605SOL     OW11713   0.798   4.257   4.652 -1.4672  0.2314 -0.2674
 3605SOL    HW111714   0.879   4.197   4.651 -0.4945  1.4418  1.2617
 3605SOL    HW211715   0.815   4.336   4.593  0.2212  2.5329  3.0166
 3606SOL     OW11716   1.816   0.450   3.513 -0.0039 -0.0421  1.1966
 3606SOL    HW111717   1.729   0.409   3.486  0.3738  0.3926 -0.8543
 3606SOL    HW211718   1.809   0.486   3.606 -1.8578 -0.4149  1.2296
 3607SOL     OW11719   6.693   4.534   1.014  0.6389  0.1968 -0.3253
 3607SOL    HW111720   6.615   4.494   1.062  0.8001 -0.0736 -0.2872
 3607SOL    HW211721   6.667   4.624   0.978 -0.6876 -1.1216 -2.9690
 3608SOL     OW11722   5.123   2.093   4.301 -0.4770 -0.2411 -0.0063
 3608SOL    HW111723   5.084   2.175   4.343 -0.8849 -0.1184 -0.6127
 3608SOL    HW211724   5.218   2.083   4.330 -0.1654  0.8989 -0.5495
 3609SOL     OW11725   0.134   0.874   6.499 -0.0067  0.1803 -0.5179
 3609SOL    HW111726   0.122   0.874   6.399  1.1115  1.4436 -0.6814
 3609SOL    HW211727   0.092   0.956   6.537 -1.5785 -0.9213  0.2518
 3610SOL     OW11728   1.308   6.378   0.428 -0.1394  0.4876  0.2649
 3610SOL    HW111729   1.379   6.441   0.459 -1.7094  2.0140  0.9358
 3610SOL    HW211730   1.323   6.288   0.469  1.8561  0.5167 -0.3017
 3611SOL     OW11731   4.685   5.974   3.344  0.4003 -0.7343  0.0874
 3611SOL    HW111732   4.655   5.933   3.430 -0.2879 -0.3797  0.0237
 3611SOL    HW211733   4.607   6.018   3.299  0.4923 -1.9160 -1.2911
 3612SOL     OW11734   6.371   1.164   0.379 -0.0997 -0.1768  0.2762
 3612SOL    HW111735   6.334   1.090   0.323 -1.3489 -0.0833  0.9531
 3612SOL    HW211736   6.306   1.239   0.382  1.2573  1.0913 -0.6044
 3613SOL     OW11737   4.916   5.788   2.156 -0.8474  0.7590  0.1414
 3613SOL    HW111738   4.998   5.808   2.210 -0.1231 -0.5971 -0.4043
 3613SOL    HW211739   4.858   5.724   2.206 -0.1776 -0.4960 -0.6373
 3614SOL     OW11740   3.853   2.514   1.659 -0.4340  0.1230  0.5022
 3614SOL    HW111741   3.782   2.481   1.721 -0.7609  0.3671  0.2619
 3614SOL    HW211742   3.940   2.518   1.708 -0.4559 -0.7516  0.6315
 3615SOL     OW11743   4.683   3.827   5.888  0.4035  0.1165 -0.2958
 3615SOL    HW111744   4.611   3.794   5.948  2.1511 -1.6442  0.9351
 3615SOL    HW211745   4.646   3.838   5.795 -2.2536  2.5386  0.8687
 3616SOL     OW11746   1.189   0.428   6.107 -0.2797 -0.1715 -0.2323
 3616SOL    HW111747   1.091   0.442   6.118 -0.2798 -1.3037  1.6033
 3616SOL    HW211748   1.210   0.407   6.011 -2.1317 -2.1343 -0.2669
 3617SOL     OW11749   3.867   1.085   5.779  0.6238 -0.2578 -0.0161
 3617SOL    HW111750   3.885   0.987   5.788  1.6518 -0.3083 -2.1520
 3617SOL    HW211751   3.778   1.099   5.736  1.3705 -0.3495 -1.6633
 3618SOL     OW11752   2.189   3.460   5.226 -0.1631  0.0453 -0.2635
 3618SOL    HW111753   2.127   3.393   5.264 -2.5279  2.1905 -0.0496
 3618SOL    HW211754   2.177   3.464   5.126 -0.3250  0.4100 -0.2311
 3619SOL     OW11755   6.548   2.753   5.652  0.0387  0.2340 -0.5649
 3619SOL    HW111756   6.576   2.844   5.621  1.8304  0.1506  0.6683
 3619SOL    HW211757   6.449   2.753   5.667 -0.1131  1.7483 -1.3250
 3620SOL     OW11758   6.368   6.970   5.457  0.2273  0.0862 -0.2521
 3620SOL    HW111759   6.278   6.986   5.418  0.5158  2.3143 -0.1001
 3620SOL    HW211760   6.374   7.010   5.548  1.3070 -0.2531 -0.1499
 3621SOL     OW11761   3.541   2.739   5.544  0.5225  0.1530 -0.5051
 3621SOL    HW111762   3.458   2.748   5.488  1.6022  3.3005 -1.7826
 3621SOL    HW211763   3.620   2.722   5.485  1.5803  2.8088  0.0344
 3622SOL     OW11764   2.583   6.499   1.475 -0.2696  0.8155  0.4893
 3622SOL    HW111765   2.634   6.438   1.415 -1.9894  1.4455 -1.7614
 3622SOL    HW211766   2.639   6.579   1.497  0.7590  0.0831  0.5968
 3623SOL     OW11767   5.996   1.512   5.503  0.5805  0.0910  0.0693
 3623SOL    HW111768   5.900   1.502   5.528  0.7235 -2.1662 -0.0546
 3623SOL    HW211769   6.053   1.465   5.570  1.9337  3.8725  1.8551
 3624SOL     OW11770   0.603   6.957   3.739 -0.4310  0.0909  0.4629
 3624SOL    HW111771   0.512   6.998   3.732 -0.5633 -0.2963 -0.0768
 3624SOL    HW211772   0.672   7.022   3.706 -0.6486 -0.1359 -0.4680
 3625SOL     OW11773   6.469   4.211   5.964  0.3268 -0.3065 -0.1924
 3625SOL    HW111774   6.534   4.286   5.956  0.1464 -0.1085  0.1550
 3625SOL    HW211775   6.399   4.219   5.893  0.3061 -0.1465 -0.1531
 3626SOL     OW11776   0.608   1.642   3.027  0.7502  0.0471  0.2840
 3626SOL    HW111777   0.590   1.554   2.983 -4.4816  1.5689 -1.4089
 3626SOL    HW211778   0.564   1.645   3.117 -2.3878  1.7834 -1.1160
 3627SOL     OW11779   4.665   2.874   0.539 -0.2247  0.0873  0.2755
 3627SOL    HW111780   4.639   2.965   0.572 -0.8231  0.5807 -1.4111
 3627SOL    HW211781   4.599   2.807   0.573  0.4565  0.1765  1.8759
 3628SOL     OW11782   0.505   6.974   4.360  0.1685  0.2995 -0.6754
 3628SOL    HW111783   0.456   7.030   4.292  1.5282 -0.5461 -2.4457
 3628SOL    HW211784   0.603   6.977   4.340  0.3857 -1.7811 -0.1214
 3629SOL     OW11785   0.473   5.006   4.063 -0.4206 -0.0754  0.2789
 3629SOL    HW111786   0.513   4.942   4.129  1.3520  1.3168  0.6049
 3629SOL    HW211787   0.439   5.087   4.110  0.6196  0.8177 -0.4650
 3630SOL     OW11788   6.395   3.930   3.379 -0.2831  0.3045 -0.2870
 3630SOL    HW111789   6.321   3.946   3.313  0.2990  0.4386 -0.9146
 3630SOL    HW211790   6.434   4.018   3.406 -0.3560  0.2338  0.0580
 3631SOL     OW11791   0.231   5.882   3.937  0.4747 -0.1704  0.0373
 3631SOL    HW111792   0.227   5.789   3.974 -0.1887  0.3003  1.1682
 3631SOL    HW211793   0.326   5.913   3.937  0.5032 -0.2342  1.2266
 3632SOL     OW11794   5.175   4.743   2.048  0.4407  0.3960  0.1558
 3632SOL    HW111795   5.219   4.704   1.968 -0.6671 -0.3478 -0.1175
 3632SOL    HW211796   5.236   4.809   2.091  2.6438 -1.9753  0.9375
 3633SOL     OW11797   5.018   2.026   0.251  0.0630  0.4590 -0.2058
 3633SOL    HW111798   5.097   2.078   0.285 -0.6403  0.3367  1.7647
 3633SOL    HW211799   4.941   2.088   0.239  0.1191  0.3837 -1.0237
 3634SOL     OW11800   1.597   6.568   6.834 -0.1910 -0.4138  0.5325
 3634SOL    HW111801   1.543   6.640   6.878 -0.4738 -0.6898  0.6355
 3634SOL    HW211802   1.544   6.484   6.829 -0.7434 -0.0017 -1.6749
 3635SOL     OW11803   3.751   0.965   1.287 -0.1341 -0.0663  0.2764
 3635SOL    HW111804   3.793   1.038   1.341  0.4058  0.7034 -1.1157
 3635SOL    HW211805   3.660   0.994   1.258  0.0841  0.0593 -0.2859
 3636SOL     OW11806   6.471   1.991   0.173 -0.0943  0.2783 -0.8223
 3636SOL    HW111807   6.391   1.949   0.132  0.2349  0.3981 -1.5958
 3636SOL    HW211808   6.456   2.003   0.271 -0.1489 -1.7508 -0.5387
 3637SOL     OW11809   0.048   3.019   6.585  0.4156  0.0821  0.0981
 3637SOL    HW111810   0.104   3.082   6.639  2.6109 -2.0933  0.5494
 3637SOL    HW211811   0.095   2.931   6.578 -1.9764 -1.1684 -1.4782
 3638SOL     OW11812   6.370   4.839   2.479  0.4326  0.4695  0.3325
 3638SOL    HW111813   6.310   4.779   2.426  1.2822 -1.1383  1.1131
 3638SOL    HW211814   6.337   4.933   2.473 -1.7365 -0.2432  0.1422
 3639SOL     OW11815   4.396   6.319   0.680 -0.5347  0.0028 -0.3437
 3639SOL    HW111816   4.435   6.408   0.658 -1.4056  1.1251  2.2961
 3639SOL    HW211817   4.298   6.329   0.698 -0.5991 -1.4464  0.2286
 3640SOL     OW11818   5.060   2.081   6.201 -0.5563 -0.2719 -0.0088
 3640SOL    HW111819   5.145   2.108   6.246  0.6278 -0.7626 -1.8139
 3640SOL    HW211820   5.067   1.986   6.172 -2.1188 -0.6063  0.6504
 3641SOL     OW11821   6.370   6.391   1.084 -0.5262 -0.4190 -0.0567
 3641SOL    HW111822   6.309   6.466   1.110 -1.3289 -1.3250  0.6913
 3641SOL    HW211823   6.430   6.368   1.161  0.4337  0.1135 -0.6155
 3642SOL     OW11824   5.090   2.280   5.416 -0.5509 -0.1987 -0.5415
 3642SOL    HW111825   5.113   2.264   5.320 -0.8839 -1.0891 -0.4811
 3642SOL    HW211826   5.167   2.324   5.461  0.1878 -1.1011 -0.8765
 3643SOL     OW11827   5.484   6.342   0.195  0.2511 -0.1209  0.2325
 3643SOL    HW111828   5.388   6.367   0.178  0.5320  1.3630  0.7617
 3643SOL    HW211829   5.488   6.274   0.268 -0.3225  0.9636  1.3046
 3644SOL     OW11830   1.902   1.190   6.189 -0.5565  0.3842  0.2497
 3644SOL    HW111831   1.910   1.111   6.250  1.2672 -0.9518 -1.5711
 3644SOL    HW211832   1.993   1.229   6.173 -0.7563 -0.0870 -2.5237
 3645SOL     OW11833   1.407   2.679   3.124 -0.1809  0.1215 -0.1945
 3645SOL    HW111834   1.497   2.640   3.143 -0.0308  0.8198  0.5965
 3645SOL    HW211835   1.356   2.617   3.065  0.2764 -0.9837  0.5320
 3646SOL     OW11836   0.788   3.461   4.835  0.1509  0.2231  0.4087
 3646SOL    HW111837   0.697   3.501   4.849 -0.8514 -1.7084 -0.2194
 3646SOL    HW211838   0.827   3.496   4.750 -1.0369 -0.6424 -0.5298
 3647SOL     OW11839   1.716   4.686   6.241 -0.0785  0.0090  0.3215
 3647SOL    HW111840   1.638   4.625   6.254  1.3548 -1.6300  1.7675
 3647SOL    HW211841   1.737   4.692   6.143 -2.7249  1.5379 -0.2470
 3648SOL     OW11842   5.465   5.119   0.425 -0.3970  0.0356 -0.2092
 3648SOL    HW111843   5.484   5.206   0.472 -0.5547 -1.0378  1.9732
 3648SOL    HW211844   5.493   5.043   0.484 -1.2356 -1.4178 -1.6258
 3649SOL     OW11845   6.668   2.828   6.098  0.3809  0.0605  0.1747
 3649SOL    HW111846   6.709   2.882   6.024  1.6432 -1.7557 -0.5288
 3649SOL    HW211847   6.740   2.799   6.162 -0.2877 -0.6113  0.6333
 3650SOL     OW11848   5.854   6.913   0.525  0.2864  0.2657 -0.2674
 3650SOL    HW111849   5.795   6.832   0.528 -1.1412  1.2755 -0.3784
 3650SOL    HW211850   5.828   6.971   0.448  2.1351  0.2373 -0.9568
 3651SOL     OW11851   1.917   1.388   5.669 -0.1226 -0.3246  0.1403
 3651SOL    HW111852   1.933   1.484   5.691 -1.0603  0.5968 -2.7765
 3651SOL    HW211853   1.823   1.363   5.696 -1.0893  0.6506 -2.0548
 3652SOL     OW11854   5.714   1.064   2.655  0.6874  0.1956  0.4664
 3652SOL    HW111855   5.810   1.093   2.658  0.8074  0.2191 -2.0174
 3652SOL    HW211856   5.655   1.143   2.665  0.8839  0.1982  1.8676
 3653SOL     OW11857   1.611   1.132   2.443  0.0601  0.7920  0.2780
 3653SOL    HW111858   1.525   1.090   2.469 -1.7591  2.2457 -2.8203
 3653SOL    HW211859   1.614   1.226   2.477 -0.3904  1.2914 -1.0113
 3654SOL     OW11860   4.084   0.458   0.297  0.1818 -0.3525 -0.2574
 3654SOL    HW111861   4.145   0.498   0.228  1.1276  1.2936  1.4172
 3654SOL    HW211862   4.136   0.392   0.352 -0.1410 -0.5258 -0.1619
 3655SOL     OW11863   2.526   1.510   3.893  0.8706  0.2043 -0.2898
 3655SOL    HW111864   2.459   1.448   3.934  1.0509  0.7344  0.8650
 3655SOL    HW211865   2.479   1.578   3.837  0.6756 -0.9741 -1.5872
 3656SOL     OW11866   2.677   5.016   2.392 -0.0980  0.0298  0.1592
 3656SOL    HW111867   2.670   4.917   2.397  1.5202 -0.1830 -1.0513
 3656SOL    HW211868   2.755   5.047   2.447  0.4318  0.4370 -0.7935
 3657SOL     OW11869   4.268   5.648   5.673  0.1257  0.4090 -0.0464
 3657SOL    HW111870   4.175   5.635   5.708  0.3532 -0.7656  0.1599
 3657SOL    HW211871   4.265   5.664   5.575 -0.2935  0.1480 -0.0778
 3658SOL     OW11872   0.239   4.736   5.717 -0.4257 -0.2855 -0.9354
 3658SOL    HW111873   0.305   4.712   5.646 -0.0201  0.7153 -0.9174
 3658SOL    HW211874   0.233   4.661   5.783  2.0313  0.2641  0.0373
 3659SOL     OW11875   1.662   3.064   0.691 -0.7674  0.4441 -0.1073
 3659SOL    HW111876   1.570   3.093   0.718 -0.9384 -1.3320  1.4201
 3659SOL    HW211877   1.724   3.141   0.696 -1.8468  1.3035  0.4773
 3660SOL     OW11878   6.101   6.519   5.634  0.5961 -0.2120 -0.2268
 3660SOL    HW111879   6.095   6.605   5.583  1.6574  0.4085  0.6588
 3660SOL    HW211880   6.008   6.485   5.652  0.1801 -0.1470 -2.0209
 3661SOL     OW11881   6.862   1.695   3.849  0.7385  0.1767  0.0339
 3661SOL    HW111882   6.860   1.793   3.829 -0.5633 -0.3292 -2.8708
 3661SOL    HW211883   6.797   1.675   3.922 -0.0264  1.3434 -0.2919
 3662SOL     OW11884   3.741   0.215   4.567 -0.3161  0.0769 -0.5475
 3662SOL    HW111885   3.833   0.193   4.600 -0.2449  1.3424  0.1595
 3662SOL    HW211886   3.677   0.216   4.645 -0.6428  0.6273 -0.8229
 3663SOL     OW11887   1.523   3.039   4.493 -0.2458  0.2991 -0.1118
 3663SOL    HW111888   1.513   3.009   4.588  0.8495 -0.2976 -0.1699
 3663SOL    HW211889   1.548   3.136   4.491 -0.0376  0.2547  0.2194
 3664SOL     OW11890   5.428   3.922   0.964 -0.5179  0.1111  0.6571
 3664SOL    HW111891   5.333   3.939   0.989 -0.7966 -1.2828  0.6341
 3664SOL    HW211892   5.456   3.832   0.997  0.9349  0.6658  1.0131
 3665SOL     OW11893   0.182   6.045   5.188  0.4314 -0.0997 -0.1076
 3665SOL    HW111894   0.259   6.091   5.144  0.3077 -1.3356 -1.6869
 3665SOL    HW211895   0.112   6.113   5.212  1.9462  1.0528  1.3693
 3666SOL     OW11896   1.257   3.553   3.168  0.4922  0.6724 -0.2907
 3666SOL    HW111897   1.213   3.642   3.178 -0.1809  0.2738  0.3005
 3666SOL    HW211898   1.349   3.558   3.207  0.3104  0.9935  0.1094
 3667SOL     OW11899   1.778   1.519   2.876 -0.2806 -0.8794  0.0142
 3667SOL    HW111900   1.763   1.608   2.834 -1.9549  0.3182  2.8649
 3667SOL    HW211901   1.861   1.478   2.838  1.6354  2.7080 -0.1224
 3668SOL     OW11902   0.310   0.265   1.731 -0.2140 -0.1635  0.5990
 3668SOL    HW111903   0.302   0.276   1.632 -3.6964  1.1945  0.8739
 3668SOL    HW211904   0.359   0.344   1.769  2.7457 -1.5458 -0.0709
 3669SOL     OW11905   4.486   1.199   2.940 -0.0479  0.0681 -0.0074
 3669SOL    HW111906   4.505   1.296   2.955 -0.9264  0.2055  0.3047
 3669SOL    HW211907   4.467   1.183   2.843  2.2855 -0.2074 -0.4648
 3670SOL     OW11908   3.804   6.332   0.270 -0.0476  0.8716 -0.0790
 3670SOL    HW111909   3.900   6.311   0.290  0.3375  0.6567 -1.9486
 3670SOL    HW211910   3.775   6.411   0.324  0.9708  0.5421  0.9943
 3671SOL     OW11911   0.595   0.902   2.701 -0.6933 -0.1543 -0.2583
 3671SOL    HW111912   0.523   0.943   2.757 -0.8453  3.2424 -2.6563
 3671SOL    HW211913   0.561   0.891   2.607  1.0021 -1.2734 -0.7701
 3672SOL     OW11914   5.824   2.239   0.523 -0.4279  0.0391  0.0605
 3672SOL    HW111915   5.893   2.225   0.594  0.0881 -0.9209 -0.6169
 3672SOL    HW211916   5.866   2.281   0.443 -0.2079 -2.1127 -1.0138
 3673SOL     OW11917   3.177   5.178   0.434 -0.4945  0.2660 -0.4077
 3673SOL    HW111918   3.102   5.232   0.471  0.7831  0.7596  1.6595
 3673SOL    HW211919   3.170   5.084   0.466 -1.1626 -0.1476 -1.6855
 3674SOL     OW11920   2.903   4.085   5.967 -0.6300 -0.0152  0.2332
 3674SOL    HW111921   2.892   4.097   6.066  0.0693 -0.1630  0.3391
 3674SOL    HW211922   2.815   4.095   5.922 -0.6266  2.3410  0.6353
 3675SOL     OW11923   0.640   1.321   6.067 -0.0201  0.4236  0.0446
 3675SOL    HW111924   0.544   1.350   6.070 -0.4627 -1.0541  1.9058
 3675SOL    HW211925   0.650   1.247   6.001  0.1561  1.4939 -1.1702
 3676SOL     OW11926   6.684   4.266   2.204  0.0381  0.4159 -0.7995
 3676SOL    HW111927   6.767   4.320   2.188 -0.8359  2.0406 -0.0547
 3676SOL    HW211928   6.640   4.297   2.288  0.0045 -2.1771  0.2183
 3677SOL     OW11929   1.297   1.624   5.946 -0.0428  0.2131  0.1807
 3677SOL    HW111930   1.221   1.590   6.003 -0.2174  0.2907 -0.0059
 3677SOL    HW211931   1.381   1.626   6.001  0.2977 -1.8993 -0.1835
 3678SOL     OW11932   0.576   1.370   3.038 -0.1269  0.7291 -0.1780
 3678SOL    HW111933   0.655   1.351   2.980  0.8287  1.5823  0.7967
 3678SOL    HW211934   0.596   1.343   3.132 -0.9519  1.0574  0.1018
 3679SOL     OW11935   6.460   0.318   2.608 -0.1015 -0.0907 -0.2148
 3679SOL    HW111936   6.440   0.234   2.659  1.7646 -0.2659  0.3137
 3679SOL    HW211937   6.434   0.306   2.513 -0.4060 -1.0521 -0.0207
 3680SOL     OW11938   6.227   3.201   2.360  0.1789  0.0780  0.1957
 3680SOL    HW111939   6.325   3.208   2.376 -0.1411  0.8050  2.1194
 3680SOL    HW211940   6.194   3.281   2.311  0.5577 -0.2551 -0.6174
 3681SOL     OW11941   0.888   5.872   6.462 -0.0884 -0.0058 -0.2104
 3681SOL    HW111942   0.795   5.908   6.453 -0.3510 -0.3532  0.9106
 3681SOL    HW211943   0.897   5.787   6.409 -1.1075 -1.1830  1.4015
 3682SOL     OW11944   5.477   2.689   6.275 -0.5271  0.5128  0.0130
 3682SOL    HW111945   5.549   2.620   6.285 -0.3024  0.7902  0.2997
 3682SOL    HW211946   5.489   2.738   6.189  1.7528  2.9864  1.5919
 3683SOL     OW11947   0.627   0.809   4.399  0.4784  0.3970  0.5791
 3683SOL    HW111948   0.671   0.737   4.344  0.1968  1.8446 -1.6680
 3683SOL    HW211949   0.686   0.889   4.400 -0.9161  1.4720 -0.3016
 3684SOL     OW11950   2.567   3.823   6.588  0.1781 -0.4770  0.5215
 3684SOL    HW111951   2.569   3.866   6.678 -0.4370  2.1174 -0.6232
 3684SOL    HW211952   2.488   3.856   6.537  1.1699 -0.9685 -1.4220
 3685SOL     OW11953   1.786   6.336   1.712 -0.2048 -0.0865  0.1554
 3685SOL    HW111954   1.877   6.377   1.715  0.0807 -0.7617  1.7295
 3685SOL    HW211955   1.790   6.242   1.748 -1.6981  0.2448  1.3016
 3686SOL     OW11956   0.486   6.032   3.135 -0.4700 -0.0411  0.4454
 3686SOL    HW111957   0.459   6.008   3.042  1.7515  0.3120 -0.3422
 3686SOL    HW211958   0.415   6.091   3.176 -0.2746  2.0597 -2.0166
 3687SOL     OW11959   6.255   2.004   2.877 -0.3558  0.3542  0.5364
 3687SOL    HW111960   6.307   1.997   2.962 -0.1108  0.4721  0.3975
 3687SOL    HW211961   6.297   1.946   2.808 -0.7261  0.0303  0.5784
 3688SOL     OW11962   0.065   3.137   0.411 -0.0948 -0.5071 -0.0178
 3688SOL    HW111963   0.051   3.236   0.418  0.4274 -0.4791  0.7680
 3688SOL    HW211964   0.124   3.117   0.334  0.2577 -0.1521  0.1552
 3689SOL     OW11965   2.982   3.201   6.519  0.4368  0.3371  0.4002
 3689SOL    HW111966   2.898   3.214   6.466  2.0819  1.2539 -2.1346
 3689SOL    HW211967   2.968   3.127   6.585 -2.5921  1.0286  0.6993
 3690SOL     OW11968   3.874   6.065   6.066  0.1438  0.5292  0.3386
 3690SOL    HW111969   3.873   6.076   5.967  0.4456  0.8056  0.3640
 3690SOL    HW211970   3.955   6.012   6.093 -0.2389 -0.0373  0.3900
 3691SOL     OW11971   2.454   2.066   6.390 -0.2430 -0.4908  1.1217
 3691SOL    HW111972   2.361   2.054   6.425 -1.4277  1.4306 -1.0678
 3691SOL    HW211973   2.481   1.983   6.340 -1.9001 -0.1875 -0.4230
 3692SOL     OW11974   5.503   5.534   6.317 -0.4457  0.4537  0.1432
 3692SOL    HW111975   5.450   5.478   6.253  1.4186 -0.4874 -0.6348
 3692SOL    HW211976   5.557   5.474   6.377  3.3088  1.2248 -2.1317
 3693SOL     OW11977   1.796   0.873   3.762 -0.3122 -0.1004  0.2525
 3693SOL    HW111978   1.857   0.805   3.722 -0.6898 -0.6946  0.6757
 3693SOL    HW211979   1.792   0.954   3.703 -0.9056 -0.9773 -0.9450
 3694SOL     OW11980   1.790   6.664   2.868 -0.0317  0.1376 -0.1138
 3694SOL    HW111981   1.739   6.581   2.843 -4.1662  2.4516 -0.2303
 3694SOL    HW211982   1.795   6.671   2.968  0.5710 -0.3435 -0.1033
 3695SOL     OW11983   5.096   2.343   1.628 -0.0674 -0.6578  0.6011
 3695SOL    HW111984   5.003   2.328   1.662  0.4122 -1.1536  1.7573
 3695SOL    HW211985   5.138   2.418   1.679 -0.5105  0.9957 -1.3200
 3696SOL     OW11986   3.467   0.297   6.265  0.1527  0.6481  0.4492
 3696SOL    HW111987   3.499   0.221   6.208 -0.4317  0.9906 -0.3615
 3696SOL    HW211988   3.539   0.366   6.271  0.3581  0.4364  0.4487
 3697SOL     OW11989   1.032   5.267   3.611  0.0344 -0.3744 -0.3759
 3697SOL    HW111990   0.964   5.236   3.544 -0.6227 -0.1244  0.1636
 3697SOL    HW211991   1.068   5.187   3.661 -0.2068 -0.4658 -0.3460
 3698SOL     OW11992   1.946   0.961   3.505 -0.0440 -0.3652  0.4828
 3698SOL    HW111993   1.897   0.975   3.419  1.1915 -1.1207 -0.3872
 3698SOL    HW211994   1.944   0.864   3.530  0.4766 -0.3156  0.7448
 3699SOL     OW11995   0.131   0.716   4.265 -0.3671  0.4414  0.4692
 3699SOL    HW111996   0.201   0.776   4.305  0.5028 -0.5105  0.4065
 3699SOL    HW211997   0.094   0.656   4.336 -0.0876 -0.0339  0.2225
 3700SOL     OW11998   3.300   5.474   4.004 -0.4300 -0.2106 -0.1841
 3700SOL    HW111999   3.306   5.574   4.012  0.6476 -0.2336 -0.4418
 3700SOL    HW212000   3.322   5.448   3.910 -4.4544 -0.4714 -1.2344
 3701SOL     OW12001   0.315   1.733   4.536  0.0119  0.5007  0.5884
 3701SOL    HW112002   0.379   1.755   4.463 -0.5994  0.3206 -0.0078
 3701SOL    HW212003   0.347   1.650   4.583 -0.5728 -0.5007 -0.7047
 3702SOL     OW12004   5.488   6.324   4.273 -1.0396  0.2127  0.3398
 3702SOL    HW112005   5.556   6.260   4.309  0.1450 -0.2603 -2.4451
 3702SOL    HW212006   5.464   6.390   4.344 -0.5304 -1.8668  2.5777
 3703SOL     OW12007   0.563   2.153   0.128 -0.3870 -0.1579  0.2381
 3703SOL    HW112008   0.551   2.244   0.087 -0.5867 -0.3297 -0.0925
 3703SOL    HW212009   0.638   2.156   0.193  0.0991  0.0677 -0.3199
 3704SOL     OW12010   4.652   3.659   6.962  0.4271  0.0731 -0.3692
 3704SOL    HW112011   4.665   3.561   6.954  1.6043  0.2906 -1.5046
 3704SOL    HW212012   4.623   3.682   7.055  0.2581 -1.3217 -0.0616
 3705SOL     OW12013   3.958   5.280   1.788 -0.2236 -0.0247 -0.3013
 3705SOL    HW112014   4.020   5.358   1.787 -0.0530 -0.0948  1.4711
 3705SOL    HW212015   4.008   5.197   1.811 -0.6736 -0.3920 -0.6247
 3706SOL     OW12016   0.191   6.145   6.529  0.5226  0.1110 -0.2628
 3706SOL    HW112017   0.109   6.126   6.474  0.3662  1.3208 -0.4823
 3706SOL    HW212018   0.166   6.149   6.626  0.5138 -0.4995 -0.2352
 3707SOL     OW12019   4.799   5.819   4.902  0.2377  0.0534  0.1437
 3707SOL    HW112020   4.816   5.738   4.958  2.1907  1.7455  2.2010
 3707SOL    HW212021   4.713   5.807   4.851  0.2389 -3.0696  0.6558
 3708SOL     OW12022   3.809   5.927   2.979 -0.6583 -0.2850  0.3955
 3708SOL    HW112023   3.808   6.009   2.922 -4.0987 -1.5565 -1.7719
 3708SOL    HW212024   3.743   5.937   3.053  0.1618 -0.4989  1.1716
 3709SOL     OW12025   2.615   0.078   3.605  0.1825 -0.1912 -0.0493
 3709SOL    HW112026   2.515   0.070   3.606  0.2626 -1.7402 -1.0196
 3709SOL    HW212027   2.643   0.134   3.527  0.1001 -0.6085 -0.3842
 3710SOL     OW12028   1.354   5.595   4.703 -0.2317  0.3566 -0.2235
 3710SOL    HW112029   1.372   5.526   4.634  1.0939 -0.0568  0.5135
 3710SOL    HW212030   1.257   5.619   4.701 -0.3052  0.0133 -1.8886
 3711SOL     OW12031   0.169   6.236   4.334 -0.2002 -0.1557 -0.5548
 3711SOL    HW112032   0.196   6.325   4.299 -0.9330  0.1008 -0.4866
 3711SOL    HW212033   0.247   6.191   4.377 -0.2431  1.2383  1.0840
 3712SOL     OW12034   0.811   5.984   0.794 -0.7185 -0.1364 -0.3421
 3712SOL    HW112035   0.833   6.001   0.890  3.8741 -0.6571 -1.0517
 3712SOL    HW212036   0.741   5.913   0.788 -1.0317 -0.1934  2.6133
 3713SOL     OW12037   1.622   6.585   5.955  0.0260 -0.6556  0.1771
 3713SOL    HW112038   1.564   6.580   5.873 -0.5032 -2.0032  0.6094
 3713SOL    HW212039   1.566   6.608   6.034  0.4011 -0.1600  0.3025
 3714SOL     OW12040   0.056   3.659   6.006 -0.5804  0.4458 -0.7351
 3714SOL    HW112041   0.015   3.747   5.987 -0.2698  0.5528 -0.9251
 3714SOL    HW212042   0.046   3.637   6.103 -1.7164  0.1346 -0.9088
 3715SOL     OW12043   0.897   6.591   0.705  0.0484 -0.1459  0.3759
 3715SOL    HW112044   0.811   6.632   0.677  0.2782  0.3747  0.4077
 3715SOL    HW212045   0.921   6.517   0.643  1.6215  2.3418 -2.2401
 3716SOL     OW12046   6.356   0.036   2.105  0.3111 -0.1668  0.0939
 3716SOL    HW112047   6.288  -0.033   2.130  0.0083 -0.8077 -2.2397
 3716SOL    HW212048   6.310   0.116   2.067  0.7172  1.0606  2.0028
 3717SOL     OW12049   5.380   1.520   0.162  0.2551  0.0901 -0.7270
 3717SOL    HW112050   5.412   1.557   0.249  0.6565 -0.8252 -0.4826
 3717SOL    HW212051   5.327   1.591   0.114  0.0490  0.6109  0.2393
 3718SOL     OW12052   0.065   6.883   6.197  0.1005  0.5366 -0.5000
 3718SOL    HW112053   0.116   6.891   6.112  2.7070  1.2486  1.0059
 3718SOL    HW212054   0.036   6.788   6.210  3.0633 -0.4836 -0.4589
 3719SOL     OW12055   5.074   1.801   6.152 -0.3195  0.0915  0.2051
 3719SOL    HW112056   5.073   1.775   6.249 -1.3964 -1.5114 -0.1907
 3719SOL    HW212057   5.110   1.725   6.097 -0.0845  0.8359 -0.6995
 3720SOL     OW12058   5.971   5.175   1.245  0.0829  0.3787  0.0225
 3720SOL    HW112059   6.020   5.103   1.294  0.4485  0.1708 -0.6430
 3720SOL    HW212060   5.885   5.138   1.209  0.5269  0.1190 -0.7895
 3721SOL     OW12061   6.772   5.881   0.519 -0.3382  0.6964 -0.3721
 3721SOL    HW112062   6.847   5.895   0.584 -1.4634  1.1601  0.8777
 3721SOL    HW212063   6.797   5.918   0.430  1.3406 -0.1573 -0.2996
 3722SOL     OW12064   6.738   5.824   3.620  0.4770  0.0700 -0.6111
 3722SOL    HW112065   6.654   5.798   3.573  0.1149  0.4067 -0.1519
 3722SOL    HW212066   6.802   5.746   3.619  0.2180 -0.1405 -1.0744
 3723SOL     OW12067   5.703   5.961   1.554  0.0456  0.3214  0.6406
 3723SOL    HW112068   5.607   5.989   1.561  0.2285  0.7032  1.8647
 3723SOL    HW212069   5.713   5.890   1.485 -1.2284 -0.2001  0.9809
 3724SOL     OW12070   6.865   2.988   4.412  0.1152  0.0515  0.2169
 3724SOL    HW112071   6.885   3.084   4.432  0.8060 -0.0111 -0.1310
 3724SOL    HW212072   6.793   2.983   4.343  0.3216  0.3244 -0.0211
 3725SOL     OW12073   6.541   6.415   5.682 -0.1631  0.4317 -0.4687
 3725SOL    HW112074   6.539   6.399   5.583 -1.1405  0.7946 -0.5229
 3725SOL    HW212075   6.609   6.356   5.724  0.3207  0.3240 -1.3669
 3726SOL     OW12076   6.523   4.538   0.014  0.1331 -0.3500 -0.3539
 3726SOL    HW112077   6.562   4.450  -0.012 -0.1695 -0.2916 -1.0183
 3726SOL    HW212078   6.442   4.557  -0.041 -0.0055  0.1874  0.0244
 3727SOL     OW12079   6.654   3.912   6.293  0.5622  0.2040  0.1849
 3727SOL    HW112080   6.664   3.815   6.314 -0.7589 -0.1301 -0.6212
 3727SOL    HW212081   6.696   3.966   6.366 -1.5908 -0.9309  2.4026
 3728SOL     OW12082   1.338   3.129   6.525  0.2160  0.4020  0.0781
 3728SOL    HW112083   1.326   3.095   6.432 -2.9570  1.0081  0.1635
 3728SOL    HW212084   1.315   3.056   6.590 -0.1829  0.7553  0.3370
 3729SOL     OW12085   1.548   0.305   3.645 -0.4243  0.0748 -0.5545
 3729SOL    HW112086   1.629   0.347   3.688 -1.0398  0.7470 -0.0253
 3729SOL    HW212087   1.483   0.377   3.621 -1.0375 -0.4987 -0.6130
 3730SOL     OW12088   4.193   6.876   5.154  0.1258 -0.0054  0.0969
 3730SOL    HW112089   4.188   6.776   5.146 -1.4288  0.0416  0.1202
 3730SOL    HW212090   4.184   6.917   5.063 -0.7405  0.1378  0.2408
 3731SOL     OW12091   0.714   0.272   0.433  0.3789  0.3519 -0.1733
 3731SOL    HW112092   0.642   0.209   0.402 -1.3769  3.0575 -1.9990
 3731SOL    HW212093   0.788   0.274   0.366  0.2421  0.5147 -0.3206
 3732SOL     OW12094   4.900   1.286   6.685  0.6304  0.0508  0.4911
 3732SOL    HW112095   4.962   1.226   6.736 -1.5902 -1.8419  1.1546
 3732SOL    HW212096   4.884   1.370   6.737  1.1460 -0.2942  1.2294
 3733SOL     OW12097   2.550   1.420   3.562 -0.0911  0.1426  0.3465
 3733SOL    HW112098   2.550   1.363   3.480  2.3281 -0.1371  0.4570
 3733SOL    HW212099   2.618   1.493   3.552  1.2855 -0.7103  2.5675
 3734SOL     OW12100   4.966   6.687   0.965  0.1229 -0.2124 -0.3561
 3734SOL    HW112101   4.950   6.778   1.003  0.4494  0.3377 -1.4830
 3734SOL    HW212102   4.902   6.621   1.006  0.1753  0.4324  0.7828
 3735SOL     OW12103   3.697   5.593   4.494  0.3135 -0.5364 -0.3287
 3735SOL    HW112104   3.657   5.537   4.422  0.9975 -0.6232 -0.6506
 3735SOL    HW212105   3.680   5.551   4.583  0.5490 -1.0836 -0.5429
 3736SOL     OW12106   5.652   1.513   0.850 -0.8376 -0.1973  0.3040
 3736SOL    HW112107   5.618   1.602   0.880 -1.0543  0.0191 -0.5678
 3736SOL    HW212108   5.598   1.481   0.773 -0.2427 -0.7121  0.0936
 3737SOL     OW12109   6.791   0.727   4.112 -0.2009 -0.3511  0.0880
 3737SOL    HW112110   6.890   0.738   4.121 -0.1739 -1.0802  0.8542
 3737SOL    HW212111   6.749   0.814   4.087  0.6477 -0.0726 -0.3962
 3738SOL     OW12112   6.607   0.020   1.757  0.1744  0.0923  0.1882
 3738SOL    HW112113   6.595  -0.057   1.818  0.0814 -0.9726 -1.1230
 3738SOL    HW212114   6.518   0.063   1.739  0.0177 -0.3584 -0.1430
 3739SOL     OW12115   1.911   6.383   0.269 -0.3192  0.2908  0.3992
 3739SOL    HW112116   1.965   6.335   0.200 -0.7991  0.3631 -0.0315
 3739SOL    HW212117   1.840   6.438   0.224  1.7074  3.3926  0.6704
 3740SOL     OW12118   0.467   5.003   6.787 -0.3136 -0.3156  0.2503
 3740SOL    HW112119   0.532   4.933   6.817 -0.6087 -0.2518  1.0557
 3740SOL    HW212120   0.397   4.961   6.729 -0.7248 -0.7841  1.0656
 3741SOL     OW12121   4.647   4.132   6.679  0.2919 -0.6989  0.1837
 3741SOL    HW112122   4.641   4.171   6.587  0.2228 -0.5868  0.2351
 3741SOL    HW212123   4.681   4.202   6.743 -0.9710 -0.3412  0.5039
 3742SOL     OW12124   4.122   1.145   5.832  0.2880 -0.5803 -0.1928
 3742SOL    HW112125   4.025   1.129   5.814  0.7646 -1.6972 -2.0097
 3742SOL    HW212126   4.175   1.124   5.750  2.1538 -0.7470  1.0000
 3743SOL     OW12127   5.412   4.609   1.133  0.2654 -0.2660  1.1587
 3743SOL    HW112128   5.383   4.574   1.045  3.3916 -1.7977  0.5880
 3743SOL    HW212129   5.432   4.532   1.194  0.6126  0.7154  2.3166
 3744SOL     OW12130   6.846   5.913   2.081 -0.0898 -0.4030  0.0169
 3744SOL    HW112131   6.831   5.825   2.125 -0.2565 -0.4093 -0.0512
 3744SOL    HW212132   6.862   5.899   1.983  0.1257 -0.3766  0.0487
 3745SOL     OW12133   6.651   2.843   1.377 -0.1394  0.3563  0.4006
 3745SOL    HW112134   6.569   2.872   1.328  0.3081  1.0654  0.0580
 3745SOL    HW212135   6.665   2.745   1.363  0.0160  0.5527 -0.9572
 3746SOL     OW12136   5.166   0.283   4.451 -0.4165 -0.3012  0.0457
 3746SOL    HW112137   5.171   0.306   4.549 -0.6301 -0.0454 -0.0016
 3746SOL    HW212138   5.164   0.367   4.397 -1.2516 -0.4311 -0.1296
 3747SOL     OW12139   4.746   4.940   0.397  0.2427  0.7196  0.0748
 3747SOL    HW112140   4.813   4.911   0.328  1.6605  2.6286  0.5696
 3747SOL    HW212141   4.771   5.030   0.432 -2.1991  1.1544  0.8664
 3748SOL     OW12142   5.668   1.477   3.636 -0.0293  0.4140  0.6201
 3748SOL    HW112143   5.659   1.381   3.660  1.1497  0.0395 -0.2805
 3748SOL    HW212144   5.711   1.527   3.711  0.1085  0.0645  0.7739
 3749SOL     OW12145   1.195   4.465   4.549 -0.2987  0.2012  0.4996
 3749SOL    HW112146   1.252   4.547   4.539 -1.7524  1.0588 -1.4089
 3749SOL    HW212147   1.242   4.387   4.508 -0.4991  0.9427 -1.2536
 3750SOL     OW12148   0.586   4.171   0.394  0.2104 -0.2136 -0.5133
 3750SOL    HW112149   0.679   4.137   0.388 -0.3869 -1.9743 -0.3180
 3750SOL    HW212150   0.587   4.271   0.404  2.0638 -0.2390 -0.1696
 3751SOL     OW12151   6.587   2.037   6.154  0.2229  0.0230  0.5908
 3751SOL    HW112152   6.493   2.066   6.176 -0.2912 -0.4547 -0.8703
 3751SOL    HW212153   6.630   2.001   6.237 -1.2257 -0.6434  1.0960
 3752SOL     OW12154   2.477   6.768   1.801 -0.1962 -0.6464 -0.2762
 3752SOL    HW112155   2.474   6.805   1.708 -2.5886  0.6004  0.2165
 3752SOL    HW212156   2.512   6.838   1.863  1.7880 -1.6100 -0.2166
 3753SOL     OW12157   0.411   0.392   5.025  0.1726  0.2741 -0.3377
 3753SOL    HW112158   0.430   0.489   5.043  1.0064  0.0461  0.0548
 3753SOL    HW212159   0.497   0.341   5.026 -0.5353 -1.3822  4.7087
 3754SOL     OW12160   4.808   4.808   1.552 -0.2262 -0.0596 -0.3048
 3754SOL    HW112161   4.762   4.886   1.510  1.3521  1.4451  0.6356
 3754SOL    HW212162   4.756   4.777   1.632 -0.2675  0.8155  0.0180
 3755SOL     OW12163   5.415   6.345   5.718 -0.0385 -0.8250  0.0467
 3755SOL    HW112164   5.342   6.410   5.736  0.0254 -0.4058 -1.1578
 3755SOL    HW212165   5.408   6.269   5.783 -1.4229 -0.7029  0.0746
 3756SOL     OW12166   1.178   0.231   6.885 -0.0356  0.0864 -0.1812
 3756SOL    HW112167   1.211   0.208   6.794  2.6433 -2.3554  1.2211
 3756SOL    HW212168   1.231   0.309   6.921 -0.8265  0.8004 -0.5379
 3757SOL     OW12169   5.216   6.099   1.875  0.4466 -0.6538 -0.5536
 3757SOL    HW112170   5.209   6.103   1.775 -0.1790 -0.3457 -0.5004
 3757SOL    HW212171   5.126   6.116   1.915  1.2703  2.6411  0.1641
 3758SOL     OW12172   0.190   0.182   3.302  0.6838 -0.1044 -0.0961
 3758SOL    HW112173   0.189   0.096   3.353  1.4358 -0.5996 -0.8741
 3758SOL    HW212174   0.251   0.173   3.223  0.7585  1.1437 -0.2061
 3759SOL     OW12175   4.426   4.906   6.250 -0.0155 -0.0015 -0.2345
 3759SOL    HW112176   4.381   4.969   6.186 -0.4417  0.1223  0.1865
 3759SOL    HW212177   4.522   4.934   6.262 -0.6513  1.7185  1.3612
 3760SOL     OW12178   2.574   2.499   3.632  0.4932  0.4733  0.3412
 3760SOL    HW112179   2.475   2.489   3.640  0.5382  0.3770  0.7761
 3760SOL    HW212180   2.597   2.531   3.539  0.0525  0.5901  0.2715
 3761SOL     OW12181   0.734   0.782   4.669  0.1089  0.4623 -0.2968
 3761SOL    HW112182   0.664   0.813   4.604  0.6100  0.3175 -0.9118
 3761SOL    HW212183   0.813   0.748   4.619  1.4792  2.5083  0.3443
 3762SOL     OW12184   1.811   0.297   6.328  0.4718  0.2018 -0.0258
 3762SOL    HW112185   1.785   0.215   6.379 -2.0060  1.4992  0.9849
 3762SOL    HW212186   1.902   0.327   6.357  0.5188 -0.9894  1.1451
 3763SOL     OW12187   5.371   5.074   0.152 -0.0684  0.1315 -0.0449
 3763SOL    HW112188   5.405   4.984   0.123  0.3234  0.2849 -0.0624
 3763SOL    HW212189   5.410   5.097   0.241 -1.2937 -0.3532  0.6550
 3764SOL     OW12190   0.544   0.248   3.575 -0.5144 -0.4734  0.7983
 3764SOL    HW112191   0.643   0.234   3.578 -0.4261 -0.5254 -1.0986
 3764SOL    HW212192   0.519   0.324   3.636  0.8527  0.3192  0.4035
 3765SOL     OW12193   5.320   3.254   1.889 -0.3729  0.0636 -0.0726
 3765SOL    HW112194   5.301   3.263   1.987 -0.6741 -0.5990 -0.0568
 3765SOL    HW212195   5.327   3.344   1.847 -2.4813  0.3897  0.1453
 3766SOL     OW12196   1.246   1.568   4.074 -0.9190 -0.4272 -0.3521
 3766SOL    HW112197   1.284   1.613   3.993 -0.3090  1.1579  0.7641
 3766SOL    HW212198   1.176   1.626   4.115 -1.2120 -1.2041  0.2731
 3767SOL     OW12199   1.304   6.381   0.032 -0.1485  0.2608  0.1490
 3767SOL    HW112200   1.320   6.285   0.055 -1.0945 -0.3996 -1.8019
 3767SOL    HW212201   1.241   6.421   0.098  0.2873 -0.4208  1.0056
 3768SOL     OW12202   1.877   5.482   5.047  0.2766  0.1842  0.5314
 3768SOL    HW112203   1.921   5.572   5.043 -0.1423  0.4295  1.2003
 3768SOL    HW212204   1.938   5.413   5.008 -0.1996  1.0419 -1.9416
 3769SOL     OW12205   5.892   6.917   5.993  0.5614 -0.3321  0.1573
 3769SOL    HW112206   5.826   6.865   6.047 -0.0819  1.4247  1.1377
 3769SOL    HW212207   5.864   7.013   5.988  1.1524 -0.2183 -2.4882
 3770SOL     OW12208   2.189   6.685   4.860  0.4118  0.2298 -0.1395
 3770SOL    HW112209   2.286   6.667   4.872  0.3070 -1.3723 -1.2227
 3770SOL    HW212210   2.142   6.599   4.839 -1.7315  0.4302  3.0793
 3771SOL     OW12211   5.765   1.525   6.276  0.3223 -0.2797  0.7998
 3771SOL    HW112212   5.757   1.600   6.210  1.3497 -0.2058  0.7377
 3771SOL    HW212213   5.857   1.485   6.270 -0.1959 -1.5266  0.8611
 3772SOL     OW12214   6.026   1.698   1.445 -0.0326  0.4105 -0.3579
 3772SOL    HW112215   6.104   1.721   1.504 -1.2735 -0.4101  1.7075
 3772SOL    HW212216   5.947   1.752   1.472 -0.6253  0.0481 -1.3206
 3773SOL     OW12217   5.602   3.262   4.870  0.4182  0.1667 -0.1511
 3773SOL    HW112218   5.639   3.219   4.787  0.1773  3.2199 -1.9786
 3773SOL    HW212219   5.502   3.264   4.865  0.4268  0.9166 -0.1088
 3774SOL     OW12220   1.164   6.769   6.936 -0.5681  0.4678 -0.4104
 3774SOL    HW112221   1.125   6.770   7.028 -2.6196  0.9048 -1.2180
 3774SOL    HW212222   1.259   6.798   6.940 -0.2317 -0.6844  1.6955
 3775SOL     OW12223   5.193   3.907   2.700  0.5193 -0.2091 -0.1315
 3775SOL    HW112224   5.120   3.895   2.633  0.9035  2.0956 -1.0459
 3775SOL    HW212225   5.153   3.934   2.788  0.2288  0.8537 -0.5744
 3776SOL     OW12226   3.863   1.797   0.506  0.2652 -1.0107  0.1504
 3776SOL    HW112227   3.780   1.852   0.510 -0.6776 -2.2826 -1.0192
 3776SOL    HW212228   3.916   1.811   0.589 -1.1873 -0.2817  0.9944
 3777SOL     OW12229   3.698   5.807   4.761  1.0131 -0.0763  0.3039
 3777SOL    HW112230   3.624   5.743   4.739  1.1573  0.1905 -1.0017
 3777SOL    HW212231   3.778   5.756   4.791  0.4938 -0.3960  1.1946
 3778SOL     OW12232   1.378   4.646   2.510  0.1966  0.3634  0.1752
 3778SOL    HW112233   1.429   4.590   2.575 -0.1525 -1.4876 -1.0495
 3778SOL    HW212234   1.373   4.599   2.422 -0.6176  2.1026 -0.7697
 3779SOL     OW12235   1.394   5.950   1.307  0.0559 -0.0464 -0.3613
 3779SOL    HW112236   1.412   6.035   1.258  2.2000  0.1907  0.7429
 3779SOL    HW212237   1.436   5.953   1.397 -0.7321 -1.8782  0.1259
 3780SOL     OW12238   3.577   6.319   6.935 -0.1834  0.9984  0.1856
 3780SOL    HW112239   3.552   6.223   6.920  0.5594  0.6554  1.0783
 3780SOL    HW212240   3.606   6.359   6.848  1.1722 -0.0941  0.0913
 3781SOL     OW12241   1.031   0.039   4.624  0.3429  0.4677 -0.2264
 3781SOL    HW112242   1.036   0.138   4.616  1.5904  0.5031  0.8728
 3781SOL    HW212243   0.992   0.014   4.712 -0.1766 -0.0275 -0.5888
 3782SOL     OW12244   4.601   1.531   4.800  0.2227  0.2224 -0.1452
 3782SOL    HW112245   4.590   1.580   4.714  1.6605 -0.9369 -1.0224
 3782SOL    HW212246   4.698   1.514   4.817 -0.1210 -0.6342  1.1029
 3783SOL     OW12247   3.892   5.269   0.012  0.0291  0.0305  0.1330
 3783SOL    HW112248   3.909   5.267  -0.086 -0.5640 -3.2593 -0.0345
 3783SOL    HW212249   3.978   5.274   0.062  0.3961  0.5824 -0.5486
 3784SOL     OW12250   5.905   2.926   3.653  0.5869 -0.3513  0.9526
 3784SOL    HW112251   5.860   3.014   3.668 -0.9499 -1.3046  2.2634
 3784SOL    HW212252   5.940   2.891   3.741  1.2128 -1.0270  0.4461
 3785SOL     OW12253   6.961   6.890   5.263 -0.4277  0.3289  0.0144
 3785SOL    HW112254   6.919   6.802   5.285 -1.2735  0.8670  0.6129
 3785SOL    HW212255   7.059   6.886   5.284 -0.7081 -0.0388  1.3800
 3786SOL     OW12256   2.104   6.196   4.626 -0.6016 -0.1473  0.4650
 3786SOL    HW112257   2.027   6.148   4.668 -1.2081  1.2114  0.9684
 3786SOL    HW212258   2.070   6.253   4.551 -0.1141  0.5049  0.7292
 3787SOL     OW12259   6.783   0.403   3.665  0.5912  0.8790 -0.4075
 3787SOL    HW112260   6.732   0.368   3.743  0.4091  0.9957 -0.4737
 3787SOL    HW212261   6.791   0.503   3.673  1.0588  0.8313 -0.2473
 3788SOL     OW12262   0.431   1.571   2.519 -0.0748 -0.4774  0.2250
 3788SOL    HW112263   0.375   1.511   2.463  0.2114 -0.2339 -0.3240
 3788SOL    HW212264   0.401   1.565   2.615 -0.9562 -0.4425 -0.0410
 3789SOL     OW12265   0.977   1.853   3.557 -0.1160 -0.0889  0.7230
 3789SOL    HW112266   1.008   1.823   3.647 -1.6315 -0.4792  1.1410
 3789SOL    HW212267   0.922   1.937   3.567  0.0643  0.1063  0.1134
 3790SOL     OW12268   2.452   2.746   5.291  0.8027  0.6273 -0.3748
 3790SOL    HW112269   2.453   2.837   5.250 -0.8391  0.4315 -0.9540
 3790SOL    HW212270   2.458   2.676   5.219 -0.0868  0.2865 -0.1351
 3791SOL     OW12271   5.846   6.797   1.482  0.7271  0.0663 -1.1449
 3791SOL    HW112272   5.854   6.789   1.581  0.0942  2.7474 -0.7992
 3791SOL    HW212273   5.930   6.837   1.444  0.7918 -0.5193 -1.6281
 3792SOL     OW12274   0.894   6.921   3.075  0.1443  0.0362 -0.5640
 3792SOL    HW112275   0.885   6.828   3.113  0.8180 -1.2433 -3.2656
 3792SOL    HW212276   0.817   6.939   3.014 -1.1157  2.1759  1.5205
 3793SOL     OW12277   0.973   0.524   4.755  0.0261 -0.9768  0.0148
 3793SOL    HW112278   0.973   0.558   4.849 -0.6863 -0.4192 -0.1809
 3793SOL    HW212279   1.036   0.447   4.747  1.5598  0.1827  0.5154
 3794SOL     OW12280   1.814   4.366   0.792 -0.4191  0.3105  0.2815
 3794SOL    HW112281   1.802   4.376   0.891  0.2583  1.6919  0.2511
 3794SOL    HW212282   1.859   4.279   0.773  1.9662  1.1703  1.4522
 3795SOL     OW12283   2.690   5.972   1.856 -0.5307 -0.6590 -0.3160
 3795SOL    HW112284   2.757   6.045   1.844  0.4623 -1.7035 -1.2735
 3795SOL    HW212285   2.613   5.987   1.794 -0.4676 -0.2786 -0.3030
 3796SOL     OW12286   1.940   1.424   0.033 -0.3201  0.4861  0.2887
 3796SOL    HW112287   1.880   1.382  -0.035  0.5337  0.6075 -0.5621
 3796SOL    HW212288   1.893   1.429   0.121 -0.8456 -1.2030  0.1294
 3797SOL     OW12289   5.410   3.427   1.364  0.6362 -0.0901  0.0305
 3797SOL    HW112290   5.464   3.411   1.447  0.0544 -1.3349  0.1958
 3797SOL    HW212291   5.462   3.396   1.285  0.4914 -0.5363  0.1087
 3798SOL     OW12292   3.644   5.356   3.964 -0.2713  0.5208  0.2302
 3798SOL    HW112293   3.574   5.404   4.018  0.0554 -1.2400  2.3885
 3798SOL    HW212294   3.602   5.277   3.919 -0.1647  0.9295 -0.5900
 3799SOL     OW12295   0.454   2.099   2.445 -0.0349  0.6437 -0.1070
 3799SOL    HW112296   0.507   2.027   2.490 -1.0072  1.1602  1.9804
 3799SOL    HW212297   0.487   2.188   2.476 -0.9205  1.0126 -0.2037
 3800SOL     OW12298   5.373   1.694   4.970 -0.8122 -0.0969 -0.2446
 3800SOL    HW112299   5.379   1.742   5.058  2.4937  1.2405 -1.0401
 3800SOL    HW212300   5.300   1.735   4.915 -0.3101  1.7733  0.3951
 3801SOL     OW12301   6.322   6.393   3.312  0.0431  0.0774 -0.5888
 3801SOL    HW112302   6.265   6.385   3.394 -0.0987  2.1046 -0.4245
 3801SOL    HW212303   6.305   6.316   3.252 -2.3940  0.2510 -0.2335
 3802SOL     OW12304   1.618   1.405   4.841 -0.6938  0.5024  0.1661
 3802SOL    HW112305   1.647   1.481   4.783  0.7986 -0.0082  0.2012
 3802SOL    HW212306   1.623   1.320   4.790  2.6394 -0.2635  1.4833
 3803SOL     OW12307   5.233   2.280   1.975 -0.3488  0.4926 -0.1783
 3803SOL    HW112308   5.234   2.371   1.934 -1.0038  0.8573  0.5975
 3803SOL    HW212309   5.283   2.281   2.061 -0.5625  0.1714 -0.0480
 3804SOL     OW12310   5.105   2.900   2.679 -0.0450 -0.1930 -0.2218
 3804SOL    HW112311   5.090   2.838   2.602 -0.8474 -1.2833  0.7731
 3804SOL    HW212312   5.031   2.967   2.682  1.2872  1.4428 -1.8245
 3805SOL     OW12313   2.030   3.629   0.888  0.6941  0.3029 -0.1770
 3805SOL    HW112314   2.030   3.663   0.982 -1.7562 -0.4158  0.1534
 3805SOL    HW212315   2.038   3.706   0.824 -0.8820  1.1801  0.6177
 3806SOL     OW12316   3.348   2.230   5.809  0.0927 -0.3829  0.2436
 3806SOL    HW112317   3.425   2.279   5.850  0.4002 -0.3702 -0.3459
 3806SOL    HW212318   3.279   2.212   5.880  1.7383 -2.6863  1.4267
 3807SOL     OW12319   0.491   6.669   3.858  0.1384  0.1700  0.2625
 3807SOL    HW112320   0.512   6.757   3.900  1.1417  0.7711 -1.3799
 3807SOL    HW212321   0.576   6.621   3.836 -0.3843 -0.8408  0.3645
 3808SOL     OW12322   5.423   0.466   2.185  0.0885  0.2566  0.0092
 3808SOL    HW112323   5.329   0.491   2.208  0.3356 -0.7916  2.4481
 3808SOL    HW212324   5.485   0.542   2.207  0.0715  0.0767  0.6741
 3809SOL     OW12325   5.994   3.131   0.464  0.1975 -0.1701  0.2554
 3809SOL    HW112326   5.901   3.153   0.437  0.3873  0.8712  0.4218
 3809SOL    HW212327   6.056   3.202   0.432  0.8292 -0.4557  0.8182
 3810SOL     OW12328   3.953   2.838   5.274 -0.4641  0.2010  0.3986
 3810SOL    HW112329   3.972   2.843   5.176 -0.7049  1.0340  0.3835
 3810SOL    HW212330   4.024   2.886   5.325 -0.3500 -0.2135  0.6303
 3811SOL     OW12331   6.918   3.275   4.479  0.1216  0.0455  0.4994
 3811SOL    HW112332   6.871   3.355   4.514 -0.3675  0.5014 -1.0917
 3811SOL    HW212333   7.014   3.296   4.462 -0.2614  0.7232 -1.0538
 3812SOL     OW12334   4.878   1.475   4.761 -0.2708  0.1128  0.2090
 3812SOL    HW112335   4.910   1.513   4.674  0.3389  0.3527  0.5326
 3812SOL    HW212336   4.950   1.417   4.800 -0.8686 -0.6926  0.1362
 3813SOL     OW12337   3.900   4.022   0.110  0.3764 -0.2192 -0.0299
 3813SOL    HW112338   3.990   4.064   0.112 -0.4682  1.8152  2.7653
 3813SOL    HW212339   3.891   3.957   0.186 -0.6884  0.0911  0.1326
 3814SOL     OW12340   2.429   6.542   2.833 -0.1339  0.3517  0.4308
 3814SOL    HW112341   2.348   6.572   2.781  1.6959 -0.1891 -3.0331
 3814SOL    HW212342   2.400   6.502   2.920 -3.5155  0.8170 -0.3390
 3815SOL     OW12343   4.912   4.211   1.390 -0.0094 -0.1288  0.5336
 3815SOL    HW112344   4.938   4.257   1.305  1.9597  0.1231  1.2323
 3815SOL    HW212345   4.866   4.125   1.367 -2.4258  1.3821 -0.7729
 3816SOL     OW12346   6.599   6.416   0.933  0.5646 -0.4094  0.1269
 3816SOL    HW112347   6.509   6.394   0.971 -0.3009 -1.5560 -2.3777
 3816SOL    HW212348   6.618   6.513   0.947 -1.3230 -0.0240  0.2390
 3817SOL     OW12349   5.015   2.672   2.536  0.2314 -0.5358  0.8653
 3817SOL    HW112350   4.917   2.654   2.548 -0.2497  0.5494 -0.9819
 3817SOL    HW212351   5.052   2.610   2.466  0.0174  1.2473 -0.9254
 3818SOL     OW12352   3.157   0.542   6.582  0.2931  0.3866 -0.1769
 3818SOL    HW112353   3.139   0.460   6.528 -2.4110  0.5178  0.3653
 3818SOL    HW212354   3.146   0.521   6.679 -0.1808  1.2934 -0.0156
 3819SOL     OW12355   5.575   5.313   0.592  0.2331  0.5006  0.5035
 3819SOL    HW112356   5.514   5.259   0.650  0.2514 -0.5465 -0.4101
 3819SOL    HW212357   5.611   5.391   0.643 -0.9176  0.4463  1.4243
 3820SOL     OW12358   0.441   1.030   4.794 -0.1578 -0.1203  0.8097
 3820SOL    HW112359   0.540   1.036   4.799 -0.2311  0.0098  2.9474
 3820SOL    HW212360   0.414   0.934   4.787  0.0883 -0.2478  1.5735
 3821SOL     OW12361   3.858   1.388   6.927  0.1399 -0.0137  0.2818
 3821SOL    HW112362   3.877   1.291   6.944  0.6869 -0.0599 -0.5246
 3821SOL    HW212363   3.790   1.397   6.855  1.4137  0.1848 -0.9562
 3822SOL     OW12364   1.962   6.307   3.094 -0.5324  0.2571 -0.1858
 3822SOL    HW112365   2.023   6.308   3.173 -3.0281  0.7057  1.8923
 3822SOL    HW212366   2.015   6.307   3.010  2.2622 -0.7353  1.4686
 3823SOL     OW12367   4.057   1.526   5.794 -0.5099  0.0027  0.4826
 3823SOL    HW112368   4.048   1.625   5.788 -1.0619 -0.0674  0.1254
 3823SOL    HW212369   4.039   1.485   5.705 -0.2277 -0.4172  0.6148
 3824SOL     OW12370   4.920   1.875   4.506 -0.4168 -0.7579 -0.3946
 3824SOL    HW112371   4.947   1.919   4.591 -1.3579 -0.6481 -0.1440
 3824SOL    HW212372   4.872   1.940   4.448  1.6334 -0.3478 -1.7490
 3825SOL     OW12373   1.162   5.151   2.230  0.6669 -0.5249 -0.4853
 3825SOL    HW112374   1.206   5.077   2.179  0.4096  0.5862 -2.4335
 3825SOL    HW212375   1.198   5.239   2.198 -2.3445  0.3975 -1.6387
 3826SOL     OW12376   6.391   5.312   5.381  0.1061 -0.1437 -0.0915
 3826SOL    HW112377   6.459   5.311   5.307 -0.7792 -2.1909 -0.9456
 3826SOL    HW212378   6.311   5.365   5.352 -0.3855 -1.2292 -0.7934
 3827SOL     OW12379   2.445   3.956   6.812 -0.4614 -0.3767  0.2005
 3827SOL    HW112380   2.448   3.911   6.901 -1.4067  0.6535  0.7766
 3827SOL    HW212381   2.496   4.042   6.816  0.8364 -1.0817 -0.7197
 3828SOL     OW12382   3.587   1.683   0.146  0.0516 -0.3753  0.4233
 3828SOL    HW112383   3.613   1.772   0.107 -0.1265 -0.5933 -0.2165
 3828SOL    HW212384   3.666   1.621   0.142 -0.5031 -1.0314 -1.5022
 3829SOL     OW12385   2.088   3.658   5.478  0.6258 -0.1036 -0.3246
 3829SOL    HW112386   2.047   3.749   5.468  1.0188  0.1077 -0.0163
 3829SOL    HW212387   2.114   3.624   5.387  0.0386 -0.1181 -0.4939
 3830SOL     OW12388   6.160   6.800   6.218 -0.0239  0.3624 -0.0863
 3830SOL    HW112389   6.115   6.711   6.223 -1.7081  1.2112  0.3209
 3830SOL    HW212390   6.192   6.815   6.124 -0.4343 -0.3348 -0.3480
 3831SOL     OW12391   5.011   2.304   3.043  0.1332 -0.2520 -0.1304
 3831SOL    HW112392   4.961   2.341   3.122 -1.2698  0.1168 -1.1646
 3831SOL    HW212393   4.992   2.206   3.034 -0.6992 -0.0533 -0.7002
 3832SOL     OW12394   6.911   0.786   1.483  0.0600 -0.0435 -0.7671
 3832SOL    HW112395   6.840   0.856   1.477 -0.5360 -0.6636 -1.1269
 3832SOL    HW212396   6.984   0.807   1.418 -0.0445  0.3133 -0.7747
 3833SOL     OW12397   1.476   5.975   6.389 -0.1617  0.1809  1.1244
 3833SOL    HW112398   1.429   6.034   6.323 -2.3813 -1.1225  1.4206
 3833SOL    HW212399   1.469   5.880   6.358  0.8957 -0.2109  2.0464
 3834SOL     OW12400   4.198   2.781   0.434  0.2687  0.3511  0.0203
 3834SOL    HW112401   4.119   2.839   0.415  1.4415  1.9436 -0.1559
 3834SOL    HW212402   4.205   2.764   0.532  0.2579  1.0224  0.1400
 3835SOL     OW12403   4.571   6.446   5.724  0.6759  0.4454 -0.0292
 3835SOL    HW112404   4.507   6.524   5.723 -0.3935 -0.4114 -0.2707
 3835SOL    HW212405   4.638   6.458   5.651 -0.2735  0.5219 -0.9181
 3836SOL     OW12406   2.031   4.215   3.559 -0.1178  0.7360  0.0717
 3836SOL    HW112407   1.944   4.178   3.591  0.2834  1.1198  1.6801
 3836SOL    HW212408   2.100   4.143   3.560 -0.0557  0.7980  0.2793
 3837SOL     OW12409   3.961   3.273   5.356  0.0894  0.2140 -0.3720
 3837SOL    HW112410   3.892   3.232   5.417  1.5443 -0.5362  0.8348
 3837SOL    HW212411   3.929   3.363   5.326  0.2613  1.7591  3.4946
 3838SOL     OW12412   6.275   4.323   4.019 -1.0112  0.7410 -0.5354
 3838SOL    HW112413   6.210   4.280   4.083 -1.0529  0.2524 -0.9057
 3838SOL    HW212414   6.235   4.327   3.928 -0.4711  0.3319 -0.7919
 3839SOL     OW12415   4.529   0.741   0.418  0.5869  0.1501 -0.0746
 3839SOL    HW112416   4.476   0.825   0.423  0.8163  0.2739  0.3379
 3839SOL    HW212417   4.491   0.674   0.482 -1.1668 -0.9767 -2.1702
 3840SOL     OW12418   2.828   1.761   5.933  0.2741 -0.4873 -0.1132
 3840SOL    HW112419   2.799   1.675   5.891  2.2813  0.0321 -2.8287
 3840SOL    HW212420   2.748   1.819   5.947 -1.0309 -2.4474  1.1515
 3841SOL     OW12421   6.070   3.414   3.161  0.0069 -0.3498 -0.0523
 3841SOL    HW112422   6.134   3.341   3.183  0.2336  0.0941  0.7646
 3841SOL    HW212423   6.106   3.502   3.192 -0.6635  0.0021 -0.2414
 3842SOL     OW12424   0.177   2.378   1.193 -0.3593  0.3161 -0.1346
 3842SOL    HW112425   0.238   2.320   1.246 -1.4061  0.8718  1.7738
 3842SOL    HW212426   0.215   2.470   1.186 -0.2027  0.2326 -0.3884
 3843SOL     OW12427   6.630   5.008   0.772  0.4245 -0.2527  0.2309
 3843SOL    HW112428   6.719   4.980   0.738 -0.0561 -0.5530 -0.8223
 3843SOL    HW212429   6.624   5.108   0.772  0.5341 -0.2452 -0.3136
 3844SOL     OW12430   0.485   5.239   4.988  0.2939  0.1443 -0.3781
 3844SOL    HW112431   0.579   5.220   5.016  0.3750  0.3100 -0.5362
 3844SOL    HW212432   0.423   5.176   5.034  0.5410 -0.3849 -0.7638
 3845SOL     OW12433   3.842   3.251   2.764 -0.0669 -0.1432 -0.1921
 3845SOL    HW112434   3.871   3.220   2.854  0.6783  0.7662 -0.1031
 3845SOL    HW212435   3.745   3.229   2.751  0.0689 -1.1619  0.4261
 3846SOL     OW12436   1.247   2.842   1.874 -0.0186  0.2007 -0.1123
 3846SOL    HW112437   1.161   2.799   1.899  0.2912 -0.0261  0.6019
 3846SOL    HW212438   1.273   2.815   1.781 -0.6859  0.2347 -0.3104
 3847SOL     OW12439   0.226   1.218   0.359  0.6937  0.2029  0.1405
 3847SOL    HW112440   0.267   1.127   0.352 -1.0824 -0.6749  0.4988
 3847SOL    HW212441   0.203   1.251   0.267 -0.2282 -0.4980  0.1014
 3848SOL     OW12442   3.740   5.447   3.624  0.3728  0.0656 -0.1392
 3848SOL    HW112443   3.824   5.398   3.648  0.6659  0.4157 -0.4587
 3848SOL    HW212444   3.722   5.518   3.692  1.1395  0.9782 -0.8680
 3849SOL     OW12445   2.299   2.139   0.572 -0.0167  0.4793  0.8177
 3849SOL    HW112446   2.343   2.061   0.525 -1.5839  1.2943 -2.2834
 3849SOL    HW212447   2.370   2.195   0.616  2.2410  1.3801 -3.3767
 3850SOL     OW12448   0.811   4.102   2.303  0.6580  0.4143  0.0227
 3850SOL    HW112449   0.883   4.035   2.284  0.1510  0.1995 -1.2443
 3850SOL    HW212450   0.797   4.109   2.402  1.7341 -0.2606  0.2371
 3851SOL     OW12451   0.571   4.560   2.602 -0.4418 -0.3155  0.4498
 3851SOL    HW112452   0.554   4.653   2.571  0.8848 -0.1271  0.2225
 3851SOL    HW212453   0.507   4.536   2.675 -1.8961  0.1687 -0.6087
 3852SOL     OW12454   4.519   0.512   4.148  0.2993  0.9937  0.1211
 3852SOL    HW112455   4.454   0.531   4.222  1.0886  0.2528  1.0284
 3852SOL    HW212456   4.469   0.486   4.066 -0.5753  1.2173  0.5702
 3853SOL     OW12457   2.199   3.258   3.246  0.0617  0.3793 -0.0812
 3853SOL    HW112458   2.224   3.161   3.245 -0.3887  0.2414  0.8242
 3853SOL    HW212459   2.166   3.285   3.156 -1.7205 -0.8217  0.1528
 3854SOL     OW12460   2.238   4.699   1.746  0.1871 -0.6692  0.1882
 3854SOL    HW112461   2.301   4.714   1.821  0.9069  0.3850 -0.6013
 3854SOL    HW212462   2.252   4.769   1.675 -4.2166  1.9653  1.4996
 3855SOL     OW12463   3.789   6.728   1.389  0.2255  0.3478  0.4508
 3855SOL    HW112464   3.775   6.827   1.391  1.6533  0.5706  2.4397
 3855SOL    HW212465   3.886   6.708   1.373 -0.2976 -0.8067 -1.6036
 3856SOL     OW12466   6.990   6.426   5.037  0.0213  0.0654  0.1343
 3856SOL    HW112467   6.992   6.360   4.962  0.2995 -0.9432  1.0081
 3856SOL    HW212468   7.050   6.503   5.015 -0.0878 -0.0907 -0.7725
 3857SOL     OW12469   1.834   5.398   5.947 -0.2162  0.0678  0.3147
 3857SOL    HW112470   1.859   5.473   5.885  0.0764  0.5613  1.0202
 3857SOL    HW212471   1.814   5.435   6.038  0.8153 -0.7943  0.9116
 3858SOL     OW12472   2.221   5.211   3.466  0.1521  0.2340 -0.6411
 3858SOL    HW112473   2.149   5.158   3.422  1.1495 -0.4655 -1.4650
 3858SOL    HW212474   2.304   5.208   3.411 -0.2453  4.2149 -1.7104
 3859SOL     OW12475   2.039   2.487   1.928 -0.4042 -0.0455  0.2278
 3859SOL    HW112476   1.997   2.397   1.937  1.3692 -1.0439 -0.9701
 3859SOL    HW212477   2.037   2.515   1.832  0.7633  0.3326  0.3076
 3860SOL     OW12478   2.463   5.195   2.949 -0.1657 -0.2766 -0.3879
 3860SOL    HW112479   2.419   5.118   2.903  1.0012 -0.8696 -0.5560
 3860SOL    HW212480   2.408   5.224   3.026 -1.4827 -0.1488 -1.3480
 3861SOL     OW12481   6.390   5.850   2.862 -0.1708  0.1065  0.1259
 3861SOL    HW112482   6.342   5.913   2.922 -1.3468 -0.0527 -0.5925
 3861SOL    HW212483   6.378   5.879   2.767  1.7837  0.4510 -0.0585
 3862SOL     OW12484   6.594   6.206   4.335  0.4114  0.6533  0.1351
 3862SOL    HW112485   6.642   6.283   4.377  1.0776  0.6700 -0.6341
 3862SOL    HW212486   6.550   6.237   4.251  0.2299  0.3052  0.1005
 3863SOL     OW12487   3.710   4.108   6.549  0.0932  0.3983 -0.1179
 3863SOL    HW112488   3.666   4.110   6.639  2.4227 -0.5826  1.1372
 3863SOL    HW212489   3.762   4.192   6.535  1.0260 -0.1167  0.1796
 3864SOL     OW12490   3.118   1.607   4.563 -0.9974 -0.8739 -0.3363
 3864SOL    HW112491   3.167   1.620   4.649 -1.4801 -1.8132  0.1017
 3864SOL    HW212492   3.110   1.694   4.515  1.0689 -0.6796 -0.4222
 3865SOL     OW12493   4.091   1.441   2.259 -0.1819 -0.1639  0.6263
 3865SOL    HW112494   4.172   1.427   2.317 -0.5645 -0.4262  1.1126
 3865SOL    HW212495   4.110   1.410   2.166  1.2553  2.4856 -0.0320
 3866SOL     OW12496   4.897   1.711   0.065  0.0227  0.0418  0.4132
 3866SOL    HW112497   4.872   1.614   0.067  1.5790 -0.3770  0.3744
 3866SOL    HW212498   4.815   1.766   0.046 -1.1960 -1.1133  2.1095
 3867SOL     OW12499   0.961   3.738   4.041 -0.1538  0.2684 -0.4205
 3867SOL    HW112500   1.005   3.779   3.961  0.1975  2.2250  0.7240
 3867SOL    HW212501   1.006   3.651   4.063 -1.7790 -1.6002 -3.7007
 3868SOL     OW12502   2.743   5.322   2.267 -0.7843  0.4029 -0.0911
 3868SOL    HW112503   2.811   5.264   2.313 -0.8876  0.2144 -0.1772
 3868SOL    HW212504   2.748   5.307   2.168 -2.0133 -0.7633  0.0121
 3869SOL     OW12505   6.775   1.576   3.328  0.1244  0.6414  0.2905
 3869SOL    HW112506   6.845   1.639   3.294  1.1049 -0.7010 -0.2924
 3869SOL    HW212507   6.808   1.532   3.411 -0.2660  0.3941  0.3147
 3870SOL     OW12508   4.153   5.966   0.606  0.0485  0.0945  0.5349
 3870SOL    HW112509   4.183   5.904   0.678  1.9227 -0.4692 -0.6586
 3870SOL    HW212510   4.231   6.019   0.573 -0.8484  0.6523 -0.7747
 3871SOL     OW12511   2.607   1.104   0.974 -0.1506  0.3812  0.2713
 3871SOL    HW112512   2.674   1.100   0.900  0.2940  0.9981  0.6271
 3871SOL    HW212513   2.589   1.011   1.008 -1.1414 -0.0291 -1.2690
 3872SOL     OW12514   3.202   2.144   1.007 -0.1446 -0.2200 -0.1365
 3872SOL    HW112515   3.298   2.153   0.983  0.0494 -1.5449  0.0289
 3872SOL    HW212516   3.159   2.075   0.947 -1.2321  1.0096 -0.8274
 3873SOL     OW12517   4.120   5.244   0.167 -0.2640 -0.0157 -0.3202
 3873SOL    HW112518   4.083   5.217   0.256  0.5973  0.4521  0.2003
 3873SOL    HW212519   4.177   5.326   0.179 -1.2070  0.8431 -1.5206
 3874SOL     OW12520   4.528   5.481   6.714 -0.0035 -0.1029 -0.4667
 3874SOL    HW112521   4.607   5.524   6.759 -0.3502  0.0614 -0.0119
 3874SOL    HW212522   4.457   5.549   6.699 -0.2690 -0.3632 -0.3995
 3875SOL     OW12523   0.231   4.979   2.848 -0.3403 -0.3715  1.2183
 3875SOL    HW112524   0.300   4.961   2.918  0.6440  0.9830  0.6662
 3875SOL    HW212525   0.243   5.073   2.814  0.1065 -1.3853 -1.6931
 3876SOL     OW12526   4.015   5.384   6.821  0.7590  0.0549 -0.5918
 3876SOL    HW112527   4.088   5.401   6.755  0.3179  0.2783 -1.0330
 3876SOL    HW212528   4.000   5.467   6.875  2.0516 -0.5418  0.7551
 3877SOL     OW12529   6.525   0.849   1.324 -0.4259  0.1869  0.1882
 3877SOL    HW112530   6.544   0.890   1.414  1.2598  1.0674 -0.5194
 3877SOL    HW212531   6.582   0.893   1.255 -1.5243 -0.6343 -1.3053
 3878SOL     OW12532   2.237   0.034   5.369  0.5510  0.6145  0.2470
 3878SOL    HW112533   2.182  -0.036   5.415  0.2149  0.6723 -0.0580
 3878SOL    HW212534   2.328   0.037   5.409 -0.1754  1.6750  1.9134
 3879SOL     OW12535   5.220   5.671   2.828  0.1574  0.3591  0.6725
 3879SOL    HW112536   5.264   5.648   2.915  1.1537 -2.6282 -0.5099
 3879SOL    HW212537   5.164   5.595   2.797  1.9868  0.1533 -2.5803
 3880SOL     OW12538   5.186   3.322   0.861 -0.6756  0.3849 -0.3473
 3880SOL    HW112539   5.206   3.225   0.854 -1.0055  0.2360  0.6803
 3880SOL    HW212540   5.159   3.344   0.954 -1.9569  1.2086 -0.8932
 3881SOL     OW12541   4.482   6.555   2.195  0.0365 -1.2359  0.0118
 3881SOL    HW112542   4.474   6.653   2.178  2.0338 -0.9605  0.3942
 3881SOL    HW212543   4.396   6.521   2.235 -0.4656  0.4768  0.4896
 3882SOL     OW12544   6.205   1.372   0.362  0.0067 -0.2312 -0.2828
 3882SOL    HW112545   6.216   1.375   0.263 -0.5317 -0.6100 -0.3601
 3882SOL    HW212546   6.199   1.466   0.397  0.8301 -0.0776 -0.5234
 3883SOL     OW12547   4.558   3.118   5.321  0.0376  0.0429  0.1679
 3883SOL    HW112548   4.511   3.032   5.301  1.3307 -0.5910 -0.2495
 3883SOL    HW212549   4.513   3.162   5.399 -1.0443 -0.6834 -0.0183
 3884SOL     OW12550   1.567   6.162   4.947 -0.3264  0.6417 -0.2077
 3884SOL    HW112551   1.618   6.168   5.033 -0.3228  0.2907 -0.1830
 3884SOL    HW212552   1.626   6.190   4.871 -0.2371  0.6695 -0.1283
 3885SOL     OW12553   6.269   2.190   4.170  0.2680  0.3167  0.2269
 3885SOL    HW112554   6.333   2.263   4.190 -0.1578  0.4806  1.0031
 3885SOL    HW212555   6.278   2.117   4.238 -1.1295  0.8419  1.0118
 3886SOL     OW12556   0.398   0.607   4.498  0.4589  0.3064 -0.5069
 3886SOL    HW112557   0.452   0.690   4.484 -0.0553  1.1603  1.9245
 3886SOL    HW212558   0.458   0.528   4.507  1.5467  1.3341  2.8697
 3887SOL     OW12559   3.658   2.016   5.240 -0.4228 -0.2634  0.0871
 3887SOL    HW112560   3.618   2.096   5.285 -0.5879  0.0058 -0.5274
 3887SOL    HW212561   3.635   1.934   5.292  2.0225  0.3077  2.2885
 3888SOL     OW12562   0.292   6.810   6.004  0.2239 -0.3102  0.0074
 3888SOL    HW112563   0.275   6.711   5.997  0.8936 -0.3538 -1.2192
 3888SOL    HW212564   0.365   6.826   6.070 -1.7610 -0.4015  2.3496
 3889SOL     OW12565   0.939   5.244   5.721  0.5093  0.1155  0.4258
 3889SOL    HW112566   0.990   5.158   5.727  0.8930  0.2163 -1.0530
 3889SOL    HW212567   0.870   5.237   5.649  1.0607  1.2900 -0.2455
 3890SOL     OW12568   0.981   5.373   1.216  0.2789 -0.2270  0.2401
 3890SOL    HW112569   1.065   5.332   1.180  0.1123 -1.2460  0.9607
 3890SOL    HW212570   0.904   5.313   1.196 -0.1411  0.2494  0.4114
 3891SOL     OW12571   3.076   5.935   3.563  0.3095 -0.0987  0.3604
 3891SOL    HW112572   3.164   5.947   3.517 -0.1714 -0.4422 -0.6774
 3891SOL    HW212573   3.052   6.019   3.611  0.7407  0.3384 -0.1756
 3892SOL     OW12574   6.018   5.907   5.778 -0.2116 -0.3283 -0.0194
 3892SOL    HW112575   6.050   5.813   5.790 -1.0165 -0.6224 -0.1191
 3892SOL    HW212576   6.077   5.954   5.712  0.1233 -0.7969 -0.0596
 3893SOL     OW12577   3.673   5.621   2.918  0.3772 -0.3618 -0.4285
 3893SOL    HW112578   3.668   5.662   2.828  2.1899  0.8286 -0.0399
 3893SOL    HW212579   3.761   5.643   2.960 -0.5584 -0.5677  1.7843
 3894SOL     OW12580   2.057   3.063   6.713 -0.2307 -0.2610  0.0870
 3894SOL    HW112581   2.089   3.123   6.639 -0.0181  0.6787  0.9219
 3894SOL    HW212582   2.104   3.087   6.798  1.7064 -3.2094 -0.0045
 3895SOL     OW12583   1.261   0.945   3.794  0.0696 -0.4219 -1.0994
 3895SOL    HW112584   1.162   0.957   3.794  0.0501 -0.5128 -0.2241
 3895SOL    HW212585   1.288   0.882   3.721 -0.5204 -0.4717 -1.2749
 3896SOL     OW12586   6.103   0.518   5.606  0.7511  0.0904 -0.8810
 3896SOL    HW112587   6.181   0.495   5.664 -0.0179  0.9296  0.5354
 3896SOL    HW212588   6.058   0.599   5.642 -1.8196 -1.3586 -0.6251
 3897SOL     OW12589   3.439   5.002   2.760 -0.0231 -0.1176 -0.2347
 3897SOL    HW112590   3.519   4.990   2.818 -0.5813 -1.3770  0.3179
 3897SOL    HW212591   3.463   4.981   2.665  0.7189  1.2675 -0.3797
 3898SOL     OW12592   3.048   3.120   4.017  0.8628  0.3593  0.1823
 3898SOL    HW112593   3.117   3.048   4.011 -0.1805 -0.6057 -0.9206
 3898SOL    HW212594   3.030   3.141   4.113  0.7021 -1.3656  0.5760
 3899SOL     OW12595   0.195   1.430   3.726  0.3240 -0.0287 -0.1160
 3899SOL    HW112596   0.146   1.482   3.796 -1.5352 -1.9950  0.1539
 3899SOL    HW212597   0.178   1.332   3.740  1.5358 -0.5834 -2.1497
 3900SOL     OW12598   6.185   1.413   2.857 -0.1187 -0.3083  0.8202
 3900SOL    HW112599   6.264   1.399   2.797 -1.0936 -2.1237 -0.1245
 3900SOL    HW212600   6.101   1.391   2.807 -1.0443 -0.9005  2.5502
 3901SOL     OW12601   2.275   4.558   6.498 -0.6725 -0.4704  0.4569
 3901SOL    HW112602   2.248   4.647   6.462 -0.1189  0.0076  1.1980
 3901SOL    HW212603   2.374   4.556   6.512 -0.4065 -1.8600 -1.3092
 3902SOL     OW12604   4.353   5.131   5.110 -0.7857 -0.0553 -0.3178
 3902SOL    HW112605   4.283   5.141   5.039 -0.6707  2.8489 -0.1451
 3902SOL    HW212606   4.334   5.194   5.185  2.1262  1.0479 -0.3822
 3903SOL     OW12607   3.400   2.699   0.563 -0.1607  0.0444  0.4917
 3903SOL    HW112608   3.471   2.659   0.504  1.0245  1.9010  0.5720
 3903SOL    HW212609   3.378   2.635   0.636  4.2175  0.7027  2.7162
 3904SOL     OW12610   1.729   0.243   0.096  0.2413  0.6087 -0.0009
 3904SOL    HW112611   1.738   0.147   0.122 -0.7540  0.2951 -0.7820
 3904SOL    HW212612   1.714   0.250  -0.002 -2.0085  1.3920  0.3437
 3905SOL     OW12613   6.225   6.444   6.904 -0.2885  0.0064 -0.1527
 3905SOL    HW112614   6.306   6.398   6.941 -1.3879 -0.5364  1.7046
 3905SOL    HW212615   6.230   6.542   6.925 -0.2392 -0.0746  0.2265
 3906SOL     OW12616   1.703   3.851   3.552  0.4617  0.2574  0.6379
 3906SOL    HW112617   1.624   3.910   3.531 -0.7523 -1.2825  0.7292
 3906SOL    HW212618   1.732   3.866   3.647  0.2392  0.7720  0.6275
 3907SOL     OW12619   6.819   0.223   4.768  0.1618 -0.4915  0.1553
 3907SOL    HW112620   6.878   0.143   4.783 -0.4035 -0.9770 -0.1798
 3907SOL    HW212621   6.742   0.220   4.832  0.5789  0.2276  0.7036
 3908SOL     OW12622   0.764   1.849   0.930  0.2817 -0.5652  0.0183
 3908SOL    HW112623   0.757   1.882   0.835 -0.1499 -2.4621 -0.6447
 3908SOL    HW212624   0.684   1.879   0.981 -0.3648 -0.9783 -0.7154
 3909SOL     OW12625   5.450   4.133   4.752 -0.3296  0.3696  0.1085
 3909SOL    HW112626   5.397   4.211   4.720 -1.7296 -0.6720 -0.2387
 3909SOL    HW212627   5.427   4.114   4.848 -0.3899  0.0720  0.0369
 3910SOL     OW12628   4.600   3.617   1.619  0.3051  0.2042 -0.3008
 3910SOL    HW112629   4.518   3.560   1.621  0.4639 -0.0557 -0.9793
 3910SOL    HW212630   4.663   3.588   1.692 -0.7052  1.1894  1.0085
 3911SOL     OW12631   0.763   2.223   0.306  0.1454 -0.9719 -0.5248
 3911SOL    HW112632   0.800   2.299   0.252  1.0827 -0.5618  0.6353
 3911SOL    HW212633   0.838   2.167   0.341 -0.4207 -1.1673  0.4193
 3912SOL     OW12634   2.988   2.428   5.843 -0.0834 -0.3669  0.1822
 3912SOL    HW112635   2.954   2.401   5.753 -1.0226 -0.9167  0.6867
 3912SOL    HW212636   3.054   2.359   5.875 -0.2167 -0.4986  0.1755
 3913SOL     OW12637   3.454   6.063   1.096 -0.3404  0.6598  0.4225
 3913SOL    HW112638   3.437   6.002   1.018  0.8271  1.7945 -0.7734
 3913SOL    HW212639   3.372   6.118   1.113 -0.1052  1.5424 -1.0937
 3914SOL     OW12640   6.607   1.857   1.070  0.4840  0.2741 -0.2265
 3914SOL    HW112641   6.626   1.946   1.029 -0.1098 -0.3057 -1.8725
 3914SOL    HW212642   6.667   1.788   1.029  0.6877 -0.1482  0.7629
 3915SOL     OW12643   4.131   0.665   6.035 -0.2968  0.2745 -0.5955
 3915SOL    HW112644   4.213   0.637   5.986  0.0506  1.3508 -0.6666
 3915SOL    HW212645   4.057   0.600   6.018  1.0962 -1.8745  1.1249
 3916SOL     OW12646   2.677   0.980   3.278  0.0755  0.2835 -0.1666
 3916SOL    HW112647   2.730   1.043   3.220  0.8414  0.7958  1.0430
 3916SOL    HW212648   2.662   1.022   3.368 -2.6382  0.2771 -0.5094
 3917SOL     OW12649   3.470   6.698   2.489 -0.4737  0.5632 -0.1898
 3917SOL    HW112650   3.413   6.640   2.547  1.4266  0.2426  1.4644
 3917SOL    HW212651   3.440   6.793   2.498 -2.9626  0.0638 -2.1391
 3918SOL     OW12652   6.063   1.217   1.875  0.4439 -0.1673  0.6290
 3918SOL    HW112653   6.123   1.285   1.832 -1.4213  0.3795 -1.2474
 3918SOL    HW212654   5.983   1.262   1.914 -0.4158 -1.1930  0.0996
 3919SOL     OW12655   5.382   6.183   1.238  0.1088 -0.0714 -0.2553
 3919SOL    HW112656   5.396   6.232   1.152  2.6462 -2.6092 -1.5024
 3919SOL    HW212657   5.287   6.192   1.267 -0.6686  1.5167 -2.9221
 3920SOL     OW12658   2.247   1.889   0.305 -0.0225  0.3913 -0.4256
 3920SOL    HW112659   2.326   1.828   0.300  0.4812  0.8656  1.2311
 3920SOL    HW212660   2.275   1.983   0.284 -0.4573  0.3405 -1.2843
 3921SOL     OW12661   6.981   1.672   6.695  0.7434  0.3493  0.3784
 3921SOL    HW112662   7.008   1.590   6.744 -0.0142  0.4791  1.0483
 3921SOL    HW212663   6.951   1.648   6.602  1.7445  0.0424  0.1304
 3922SOL     OW12664   3.373   4.993   1.017 -0.2234 -0.1542  0.3787
 3922SOL    HW112665   3.369   5.086   0.981  0.0620 -0.3058 -0.0527
 3922SOL    HW212666   3.290   4.974   1.071 -0.1104  0.4664  0.7733
 3923SOL     OW12667   0.027   2.571   1.470 -0.1124 -0.0923  0.6338
 3923SOL    HW112668   0.023   2.507   1.547 -0.9641  0.4187  1.0208
 3923SOL    HW212669   0.033   2.520   1.384 -2.9963 -0.7857  0.7753
 3924SOL     OW12670   6.882   4.814   3.872 -0.3693 -0.4506  0.6974
 3924SOL    HW112671   6.886   4.780   3.966  1.3617  0.6998  1.0854
 3924SOL    HW212672   6.880   4.914   3.873  1.5127 -0.3459 -0.4878
 3925SOL     OW12673   6.145   4.514   0.072 -0.3058  0.0953 -0.1521
 3925SOL    HW112674   6.208   4.497   0.149 -0.6289  2.6671  0.7730
 3925SOL    HW212675   6.056   4.540   0.108 -1.5356 -2.0107 -1.4743
 3926SOL     OW12676   2.220   0.400   6.502  0.0967 -0.6514 -0.3223
 3926SOL    HW112677   2.127   0.405   6.539  0.2222 -0.4443 -0.0316
 3926SOL    HW212678   2.235   0.478   6.440  0.2437 -0.3962  0.0268
 3927SOL     OW12679   6.699   2.095   4.576  0.0375  0.0913 -0.4180
 3927SOL    HW112680   6.614   2.146   4.588  0.9038  1.4934  0.0356
 3927SOL    HW212681   6.686   2.024   4.507 -1.4310  0.4195 -0.5108
 3928SOL     OW12682   0.732   1.285   4.622  0.1642 -0.0734 -0.0380
 3928SOL    HW112683   0.826   1.277   4.590 -0.0300 -0.6092 -0.4997
 3928SOL    HW212684   0.678   1.337   4.556  0.3715  1.1592  0.7434
 3929SOL     OW12685   0.720   1.221   4.235 -0.1295 -0.2644 -0.0826
 3929SOL    HW112686   0.620   1.228   4.237 -0.0695  1.2602  2.5284
 3929SOL    HW212687   0.748   1.134   4.273 -0.4361 -0.9465 -1.3637
 3930SOL     OW12688   1.327   2.184   3.867 -0.6865  0.0081  0.3069
 3930SOL    HW112689   1.275   2.146   3.791 -0.8315  0.1695  0.3233
 3930SOL    HW212690   1.410   2.130   3.882  0.6673  1.4461 -1.5948
 3931SOL     OW12691   3.466   2.186   0.969 -0.0245  0.1757 -0.1730
 3931SOL    HW112692   3.494   2.173   0.874  0.3113 -1.1739  0.0835
 3931SOL    HW212693   3.529   2.136   1.029  0.1574  1.5374  0.8255
 3932SOL     OW12694   0.046   4.605   4.233  0.5548 -0.3191 -0.0404
 3932SOL    HW112695   0.114   4.675   4.252  1.7371 -1.1434 -1.0964
 3932SOL    HW212696  -0.039   4.648   4.203  0.6491  0.7134  1.1082
 3933SOL     OW12697   1.252   5.130   1.338  0.3469 -0.4528 -0.5315
 3933SOL    HW112698   1.253   5.176   1.427 -0.4377 -1.3132 -0.0673
 3933SOL    HW212699   1.235   5.198   1.267 -1.4098 -0.0696  0.1952
 3934SOL     OW12700   0.109   6.156   3.434 -0.0732 -0.4499  0.0068
 3934SOL    HW112701   0.185   6.168   3.370 -0.2861 -1.1476 -0.3885
 3934SOL    HW212702   0.023   6.150   3.383 -0.3163 -0.3616  0.4017
 3935SOL     OW12703   0.428   3.443   6.440 -0.5459 -0.6080  0.1511
 3935SOL    HW112704   0.389   3.467   6.529 -0.5796 -0.0274 -0.0191
 3935SOL    HW212705   0.524   3.471   6.437 -0.3755 -1.1676  0.2184
 3936SOL     OW12706   0.288   0.534   5.617 -0.0147  0.1888  0.5329
 3936SOL    HW112707   0.306   0.565   5.710  0.1129 -0.0594  0.5933
 3936SOL    HW212708   0.328   0.443   5.604  0.5087  0.4870  0.0400
 3937SOL     OW12709   6.410   5.500   3.152 -0.2074  0.3857 -0.2781
 3937SOL    HW112710   6.498   5.490   3.199 -0.4945  1.2899  0.4862
 3937SOL    HW212711   6.425   5.539   3.061  0.2254  0.0071 -0.3734
 3938SOL     OW12712   5.854   4.622   5.187 -0.1617  0.1652 -0.3497
 3938SOL    HW112713   5.818   4.688   5.252 -3.8772 -1.4158 -0.5780
 3938SOL    HW212714   5.813   4.636   5.097  0.2730 -1.3797 -0.8344
 3939SOL     OW12715   0.357   6.700   1.565  0.3953 -0.7410  0.4670
 3939SOL    HW112716   0.340   6.709   1.467 -0.9890  0.0007  0.7472
 3939SOL    HW212717   0.447   6.658   1.580 -0.1621 -2.6393 -1.1168
 3940SOL     OW12718   2.260   4.059   3.630 -0.2861  0.0733  0.1680
 3940SOL    HW112719   2.310   4.145   3.629 -0.2132  0.0548 -1.6788
 3940SOL    HW212720   2.254   4.024   3.724  1.5830  0.9740  0.6570
 3941SOL     OW12721   5.058   6.371   5.145 -0.6656 -0.8165  0.6409
 3941SOL    HW112722   5.035   6.442   5.079  0.3624 -3.1671 -2.4855
 3941SOL    HW212723   5.131   6.403   5.205 -2.6311  1.9158  1.7891
 3942SOL     OW12724   1.033   5.559   4.055  0.4364  0.4738  0.0206
 3942SOL    HW112725   1.118   5.599   4.092  0.4920  0.8348 -0.4854
 3942SOL    HW212726   1.056   5.491   3.986  0.3652 -1.0593  1.4515
 3943SOL     OW12727   0.081   4.968   1.463  0.3017 -0.4853  0.2096
 3943SOL    HW112728  -0.011   4.970   1.502  0.5965  0.2157  0.9023
 3943SOL    HW212729   0.140   4.912   1.521  1.1049  1.7549  1.6687
 3944SOL     OW12730   0.670   2.590   5.797 -0.3514  0.6366 -0.3204
 3944SOL    HW112731   0.747   2.631   5.748  1.3174 -1.1832  0.6898
 3944SOL    HW212732   0.605   2.553   5.730  1.3889 -0.9080 -1.2399
 3945SOL     OW12733   6.680   0.576   3.346 -1.0307 -0.0639  0.2425
 3945SOL    HW112734   6.612   0.511   3.311 -1.1923  0.2567 -0.0411
 3945SOL    HW212735   6.646   0.617   3.431 -0.6166 -0.8800  0.8281
 3946SOL     OW12736   6.584   4.185   6.656 -0.1365 -0.0304  0.1224
 3946SOL    HW112737   6.648   4.155   6.585  0.9648  1.6632  0.3503
 3946SOL    HW212738   6.522   4.254   6.618 -1.2707 -1.0125  0.1445
 3947SOL     OW12739   5.166   4.337   2.941  0.4643 -0.3012  0.4972
 3947SOL    HW112740   5.201   4.378   3.025  1.0526 -1.2914  0.7472
 3947SOL    HW212741   5.219   4.371   2.863  0.1777  0.3096  0.5637
 3948SOL     OW12742   2.390   2.217   7.002  0.4538  0.2383 -0.0696
 3948SOL    HW112743   2.485   2.240   7.023  0.2043 -1.0483  2.9573
 3948SOL    HW212744   2.332   2.297   7.017  0.7307  0.2812  0.7798
 3949SOL     OW12745   5.848   0.612   3.434  0.2658 -0.5837 -0.3264
 3949SOL    HW112746   5.913   0.548   3.394 -1.5615 -1.6982 -1.7056
 3949SOL    HW212747   5.766   0.616   3.377  0.4863  3.4506 -0.5981
 3950SOL     OW12748   3.955   4.271   6.975 -0.0551 -0.3836  1.0639
 3950SOL    HW112749   3.908   4.295   7.060 -0.6096  0.3686  0.5470
 3950SOL    HW212750   4.047   4.237   6.997 -0.9474 -2.3181  2.1175
 3951SOL     OW12751   0.045   2.638   4.073  0.4668  0.2962 -0.7558
 3951SOL    HW112752  -0.021   2.709   4.049  0.6234  0.7098  0.0397
 3951SOL    HW212753   0.122   2.678   4.121 -0.1977 -0.5991  1.1846
 3952SOL     OW12754   6.366   2.663   4.101 -0.2538 -0.1222 -1.1841
 3952SOL    HW112755   6.337   2.734   4.165  0.6580  0.1822 -1.0904
 3952SOL    HW212756   6.425   2.597   4.149  2.3326  1.3563 -2.1610
 3953SOL     OW12757   3.249   4.834   6.193  0.3990  0.5580 -0.6445
 3953SOL    HW112758   3.295   4.794   6.113 -0.7422  0.3238 -1.1988
 3953SOL    HW212759   3.260   4.772   6.271  2.1311  1.1234 -0.3979
 3954SOL     OW12760   0.981   2.587   4.958 -0.3983 -0.9523  0.0364
 3954SOL    HW112761   1.070   2.633   4.950  0.4476 -2.4541  0.3996
 3954SOL    HW212762   0.913   2.652   4.993  0.6182  0.1561  0.0077
 3955SOL     OW12763   3.534   5.682   6.355  0.0066  0.1259 -0.4483
 3955SOL    HW112764   3.468   5.661   6.427  0.0886 -0.6743 -0.5995
 3955SOL    HW212765   3.489   5.732   6.282 -0.4751 -0.5655 -0.6294
 3956SOL     OW12766   6.268   4.261   5.004 -0.0425 -0.1512 -0.2798
 3956SOL    HW112767   6.342   4.290   5.065  0.2378  2.1038 -1.5892
 3956SOL    HW212768   6.180   4.289   5.042 -0.0869 -1.0033  0.2759
 3957SOL     OW12769   4.906   6.478   3.967 -0.3927 -0.0851 -0.5827
 3957SOL    HW112770   4.998   6.508   3.993  0.6335 -2.0586 -1.7036
 3957SOL    HW212771   4.883   6.519   3.879  0.0934 -0.8181 -1.0612
 3958SOL     OW12772   6.735   5.090   5.589 -0.3322 -0.3511 -0.1685
 3958SOL    HW112773   6.639   5.107   5.566 -0.0236  0.9229 -0.6342
 3958SOL    HW212774   6.742   5.062   5.685 -1.1942 -0.7370 -0.2096
 3959SOL     OW12775   2.541   5.324   1.213 -0.5201 -0.8117  0.8012
 3959SOL    HW112776   2.509   5.348   1.305 -0.8431 -1.3811  0.8460
 3959SOL    HW212777   2.504   5.390   1.147  1.7987  1.1483  1.3448
 3960SOL     OW12778   5.999   1.380   6.994 -0.0338  0.0675  0.7932
 3960SOL    HW112779   6.053   1.335   6.923 -1.9504 -0.8885 -0.1636
 3960SOL    HW212780   6.049   1.380   7.080  1.3055 -1.0781  0.0481
 3961SOL     OW12781   5.415   1.569   3.477 -0.0405  0.2129  0.5772
 3961SOL    HW112782   5.354   1.491   3.459  1.3111 -0.5361 -1.0635
 3961SOL    HW212783   5.494   1.537   3.530  0.2484  0.5994  0.3798
 3962SOL     OW12784   1.931   0.901   1.033 -0.1421 -0.3014  0.4923
 3962SOL    HW112785   1.890   0.934   0.948 -1.3673 -0.0612  1.1590
 3962SOL    HW212786   1.959   0.805   1.022 -0.8819 -0.4690  0.0224
 3963SOL     OW12787   4.564   5.784   1.835 -0.0651 -0.0734 -0.2771
 3963SOL    HW112788   4.657   5.746   1.829  0.3897  0.7890  0.7894
 3963SOL    HW212789   4.508   5.725   1.894  0.5958  0.7746  1.2549
 3964SOL     OW12790   5.096   0.601   4.792  0.0190  0.2983 -0.2412
 3964SOL    HW112791   5.089   0.684   4.847  0.1176  0.1913 -0.0675
 3964SOL    HW212792   5.036   0.530   4.829  0.1247  0.2089 -0.2381
 3965SOL     OW12793   3.905   5.881   6.319 -0.0799  0.7398 -0.6191
 3965SOL    HW112794   3.996   5.893   6.280  0.4770  1.3107  0.7617
 3965SOL    HW212795   3.861   5.801   6.279  1.5335 -0.2848 -0.4358
 3966SOL     OW12796   5.836   5.019   6.789 -0.1153  0.0269  0.2793
 3966SOL    HW112797   5.750   5.067   6.774 -0.0415 -0.3981 -1.7769
 3966SOL    HW212798   5.911   5.071   6.749  0.2836 -0.6335  0.1573
 3967SOL     OW12799   0.166   0.683   4.599 -0.2667 -0.3256  0.0039
 3967SOL    HW112800   0.093   0.623   4.568  1.1791 -2.7699  1.0910
 3967SOL    HW212801   0.254   0.646   4.569  0.6512  1.8034 -0.1007
 3968SOL     OW12802   5.859   5.649   2.752  0.2292  0.2091  0.6610
 3968SOL    HW112803   5.796   5.597   2.810 -0.3723 -1.7005 -1.5526
 3968SOL    HW212804   5.809   5.692   2.677  1.3374 -0.1541 -0.3277
 3969SOL     OW12805   6.433   6.618   3.397  0.0787  0.0932  0.0670
 3969SOL    HW112806   6.512   6.658   3.351 -0.0527  1.2617  0.8215
 3969SOL    HW212807   6.405   6.535   3.349  1.8728 -0.4474 -0.1045
 3970SOL     OW12808   4.780   5.635   2.627 -0.0073 -0.1714 -0.3081
 3970SOL    HW112809   4.877   5.620   2.647  0.2269  0.1338 -1.1583
 3970SOL    HW212810   4.727   5.629   2.712  0.5327 -2.0258 -0.0460
 3971SOL     OW12811   1.123   4.380   4.240  0.0403  0.0461 -0.2031
 3971SOL    HW112812   1.177   4.353   4.160 -0.0566 -0.4565 -0.1025
 3971SOL    HW212813   1.128   4.479   4.252  1.6678 -0.0628  0.3135
 3972SOL     OW12814   6.617   5.687   2.232 -0.3513  0.5315  0.2393
 3972SOL    HW112815   6.563   5.766   2.260 -0.2480  0.8364 -0.4190
 3972SOL    HW212816   6.633   5.690   2.133 -1.2176 -0.8283  0.0251
 3973SOL     OW12817   3.607   2.985   4.692  0.0600 -0.2780 -0.2017
 3973SOL    HW112818   3.518   2.956   4.726  0.3962  0.7793  1.6820
 3973SOL    HW212819   3.605   2.985   4.592 -2.8323  1.9083 -0.2905
 3974SOL     OW12820   5.245   0.369   4.704 -0.0411 -0.1137 -0.1723
 3974SOL    HW112821   5.330   0.421   4.706  0.7940 -1.4619  0.8382
 3974SOL    HW212822   5.170   0.426   4.739  1.1684 -0.0459  2.6273
 3975SOL     OW12823   5.939   1.290   0.260 -0.1983  0.7142  0.1182
 3975SOL    HW112824   5.954   1.215   0.196 -0.9282  0.3793  0.3222
 3975SOL    HW212825   6.019   1.300   0.319 -0.4952 -0.5990  0.7842
 3976SOL     OW12826   1.230   5.296   1.113  0.2299 -0.1950 -0.2736
 3976SOL    HW112827   1.182   5.314   1.028  0.1263 -0.1987 -0.2162
 3976SOL    HW212828   1.304   5.363   1.125 -1.0923  1.1548  0.6630
 3977SOL     OW12829   3.010   1.308   5.880  0.4005 -0.4908  0.1612
 3977SOL    HW112830   2.960   1.235   5.834  0.8551 -0.4498 -0.4117
 3977SOL    HW212831   3.079   1.268   5.940 -0.4655 -0.5511  1.1340
 3978SOL     OW12832   6.137   1.837   4.950 -0.1292  0.3514  0.0963
 3978SOL    HW112833   6.099   1.916   4.901  0.2165  0.8681  0.6354
 3978SOL    HW212834   6.118   1.847   5.048  1.5755  0.7618  0.4173
 3979SOL     OW12835   0.088   6.784   0.512  0.0981 -0.3132  0.2220
 3979SOL    HW112836   0.148   6.733   0.451  0.0398  1.5342 -1.4512
 3979SOL    HW212837   0.138   6.808   0.595  0.9449 -0.7725 -0.1418
 3980SOL     OW12838   6.041   2.368   4.219 -0.2851 -0.5625 -0.3290
 3980SOL    HW112839   6.100   2.291   4.195  2.0601  1.4536 -1.5249
 3980SOL    HW212840   6.096   2.438   4.265 -2.4873  0.1635  1.3407
 3981SOL     OW12841   0.141   1.528   6.500  0.5855  0.3792  0.1447
 3981SOL    HW112842   0.079   1.449   6.493 -1.6163  1.9782  0.5710
 3981SOL    HW212843   0.132   1.569   6.591  1.6433  1.1849 -0.0968
 3982SOL     OW12844   4.183   2.084   3.650 -0.8058 -0.3095  0.0810
 3982SOL    HW112845   4.255   2.098   3.582 -0.5653  1.0838  0.5793
 3982SOL    HW212846   4.210   2.010   3.712  0.5805  0.6913  0.7277
 3983SOL     OW12847   3.758   1.417   3.395  0.3765 -0.2692  0.3149
 3983SOL    HW112848   3.665   1.385   3.378  0.0697  0.9754 -0.4774
 3983SOL    HW212849   3.803   1.356   3.460 -1.6425  0.1650  2.2397
 3984SOL     OW12850   2.561   5.319   3.569 -0.1494 -0.0650  0.2787
 3984SOL    HW112851   2.501   5.273   3.503  0.1510 -1.2657  0.8143
 3984SOL    HW212852   2.556   5.418   3.555  0.5151 -0.3019 -2.0742
 3985SOL     OW12853   6.927   3.378   6.298 -0.3417  0.0604  0.7580
 3985SOL    HW112854   6.999   3.328   6.250 -0.5350  0.0738  0.4511
 3985SOL    HW212855   6.875   3.432   6.232 -0.7908 -0.1468  0.9419
 3986SOL     OW12856   0.905   0.080   2.350 -0.6733 -0.0499  0.5636
 3986SOL    HW112857   0.977   0.056   2.284 -0.0770 -0.1799  1.2526
 3986SOL    HW212858   0.848   0.152   2.312  0.3644  0.6814  0.3641
 3987SOL     OW12859   3.071   2.771   6.749  0.4201 -0.8403  0.3313
 3987SOL    HW112860   2.990   2.825   6.725  0.8108  0.4057  1.6668
 3987SOL    HW212861   3.132   2.766   6.670 -0.7514 -1.4548 -0.5690
 3988SOL     OW12862   4.052   2.811   5.823 -0.0300  0.1699 -0.0017
 3988SOL    HW112863   4.017   2.737   5.766 -1.8228  1.3185 -0.4845
 3988SOL    HW212864   4.024   2.899   5.784  1.3030  1.0910  1.0205
 3989SOL     OW12865   0.059   0.588   5.982 -0.1789 -0.2771 -0.0403
 3989SOL    HW112866   0.029   0.499   5.947  1.8506 -2.4670  3.1697
 3989SOL    HW212867  -0.015   0.632   6.032 -1.2533 -0.0002 -1.7991
 3990SOL     OW12868   1.030   3.458   3.056  0.6512 -0.1723  0.3603
 3990SOL    HW112869   1.123   3.479   3.084  0.5807  0.4208  0.1655
 3990SOL    HW212870   1.026   3.450   2.957  0.1696  1.6442  0.1817
 3991SOL     OW12871   0.657   0.939   3.320  0.2352  0.5323 -0.2701
 3991SOL    HW112872   0.649   0.997   3.240  0.4962 -1.4135 -1.7814
 3991SOL    HW212873   0.632   0.845   3.297 -0.1247 -0.0214  2.0526
 3992SOL     OW12874   5.996   5.251   6.746  0.0958 -0.7706 -0.5066
 3992SOL    HW112875   6.066   5.227   6.813  0.4171 -0.1527 -0.6108
 3992SOL    HW212876   5.924   5.304   6.790  0.1825 -0.5760 -0.5975
 3993SOL     OW12877   4.867   1.012   2.137  0.1420 -0.5780 -0.1581
 3993SOL    HW112878   4.835   0.946   2.205 -1.4538  0.1077 -0.1953
 3993SOL    HW212879   4.795   1.028   2.070  1.0833  0.0199 -1.0574
 3994SOL     OW12880   2.733   2.435   5.148 -0.1931 -0.5458 -0.0385
 3994SOL    HW112881   2.735   2.357   5.085 -0.0798 -0.2851 -0.3620
 3994SOL    HW212882   2.639   2.451   5.179 -0.0825 -1.4076  0.7888
 3995SOL     OW12883   1.814   3.388   2.563  0.3517 -0.6081 -0.2886
 3995SOL    HW112884   1.759   3.374   2.645 -0.1376 -0.2643 -0.5537
 3995SOL    HW212885   1.776   3.334   2.488 -0.7765  1.0603 -0.9767
 3996SOL     OW12886   1.491   1.760   6.857 -0.5313  0.0390 -0.7982
 3996SOL    HW112887   1.426   1.711   6.913 -0.6917 -0.1093 -1.1118
 3996SOL    HW212888   1.522   1.842   6.905 -2.3259  1.0964 -1.3690
 3997SOL     OW12889   4.851   4.460   3.836 -0.0104 -0.0459 -0.5726
 3997SOL    HW112890   4.834   4.414   3.748  2.8613 -0.3762 -1.0561
 3997SOL    HW212891   4.949   4.475   3.847 -0.4637  1.7317  1.7637
 3998SOL     OW12892   3.876   1.494   1.729 -0.8597  0.2122 -0.2934
 3998SOL    HW112893   3.893   1.404   1.769  0.4308  0.1444 -0.9347
 3998SOL    HW212894   3.779   1.504   1.707 -0.9086 -1.2773 -0.8046
 3999SOL     OW12895   4.797   3.756   1.472 -0.4033 -0.0782  0.0882
 3999SOL    HW112896   4.746   3.783   1.390  0.2704  0.1817 -0.2493
 3999SOL    HW212897   4.735   3.710   1.535 -0.8269 -0.7669 -0.7950
 4000SOL     OW12898   3.826   6.722   3.874 -0.6932  0.3410  0.1745
 4000SOL    HW112899   3.837   6.653   3.804 -2.3334  0.1779  0.0312
 4000SOL    HW212900   3.804   6.679   3.961 -1.1333  0.6337  0.2172
 4001SOL     OW12901   3.896   2.874   6.058 -0.1854  0.2450 -0.0921
 4001SOL    HW112902   3.916   2.858   5.961  0.0158  1.0899 -0.1989
 4001SOL    HW212903   3.980   2.861   6.111 -0.5578 -1.4756  0.1572
 4002SOL     OW12904   3.189   3.699   5.800 -0.2253 -0.3408  0.2724
 4002SOL    HW112905   3.182   3.776   5.863 -3.0227  0.0906 -0.4492
 4002SOL    HW212906   3.272   3.709   5.745 -0.3157  1.9574  0.4581
 4003SOL     OW12907   4.707   1.908   0.015  0.0108  0.2391 -0.7378
 4003SOL    HW112908   4.726   1.955  -0.072  0.1579 -0.3025 -0.9989
 4003SOL    HW212909   4.608   1.899   0.027 -0.0059 -1.5293 -1.8585
 4004SOL     OW12910   0.767   2.229   2.795  0.1630 -0.1814 -0.0072
 4004SOL    HW112911   0.821   2.306   2.828  1.2468 -1.5284  1.5172
 4004SOL    HW212912   0.682   2.224   2.846  0.8210 -0.9218  1.0467
 4005SOL     OW12913   3.652   4.163   2.058  0.0806  0.4873  0.7702
 4005SOL    HW112914   3.694   4.244   2.100  3.2863  0.2625 -1.6120
 4005SOL    HW212915   3.675   4.082   2.111  0.3902  0.6818  0.9392
 4006SOL     OW12916   5.241   5.695   1.522 -0.1339 -0.1982  0.1037
 4006SOL    HW112917   5.318   5.632   1.513  1.4396  1.8983 -3.1602
 4006SOL    HW212918   5.176   5.679   1.447  0.0605  1.6365 -0.5179
 4007SOL     OW12919   1.625   2.075   3.900 -0.0652  0.1516 -0.0315
 4007SOL    HW112920   1.605   2.038   3.991 -0.1203 -1.1111 -0.5405
 4007SOL    HW212921   1.708   2.033   3.864 -0.9801 -0.6795 -1.2693
 4008SOL     OW12922   3.524   5.935   0.153 -0.5094  0.6596 -0.5010
 4008SOL    HW112923   3.554   6.028   0.171  2.1618 -0.2385  0.0965
 4008SOL    HW212924   3.546   5.877   0.232 -2.7892 -0.3878 -0.5398
 4009SOL     OW12925   4.768   1.336   0.978  0.1809  0.3599  0.7625
 4009SOL    HW112926   4.751   1.263   1.044  1.9873 -0.5890  0.2651
 4009SOL    HW212927   4.867   1.349   0.968  0.2215 -1.5947 -3.8343
 4010SOL     OW12928   2.878   2.269   6.526  0.6954  0.2210 -0.2649
 4010SOL    HW112929   2.832   2.206   6.589 -0.0386  1.3828  0.3910
 4010SOL    HW212930   2.966   2.296   6.564 -0.2411  1.8330  0.8906
 4011SOL     OW12931   1.693   4.672   0.378  0.5757  0.3606 -0.6988
 4011SOL    HW112932   1.752   4.707   0.451  0.9269  0.3147 -0.9602
 4011SOL    HW212933   1.638   4.746   0.340  0.0250  0.2969 -0.0556
 4012SOL     OW12934   5.173   1.398   2.307  0.1272  0.1976  0.1906
 4012SOL    HW112935   5.172   1.298   2.302  1.5564  0.1817 -0.1237
 4012SOL    HW212936   5.205   1.427   2.398 -2.5064  0.4158  1.1343
 4013SOL     OW12937   0.684   6.144   4.052 -0.4861  0.0154 -0.6219
 4013SOL    HW112938   0.679   6.233   4.007  3.1650  1.1345  0.8109
 4013SOL    HW212939   0.744   6.083   4.000 -0.3684 -0.4732  0.0617
 4014SOL     OW12940   3.157   6.748   3.205 -0.5116  0.2199  0.1780
 4014SOL    HW112941   3.093   6.806   3.155 -1.3227 -1.2188 -0.5208
 4014SOL    HW212942   3.139   6.754   3.303 -0.9361  0.7188  0.0722
 4015SOL     OW12943   5.828   3.822   5.581 -0.3991 -0.7685 -0.1857
 4015SOL    HW112944   5.865   3.914   5.579  1.5059 -1.4836 -1.9681
 4015SOL    HW212945   5.772   3.807   5.499 -0.7845 -1.1701  0.1427
 4016SOL     OW12946   1.927   5.651   7.001  0.2282 -0.1217  0.1754
 4016SOL    HW112947   1.982   5.645   7.085 -0.8434  1.3055  1.0275
 4016SOL    HW212948   1.981   5.693   6.928  0.8310 -0.3889  0.4603
 4017SOL     OW12949   0.699   5.471   4.441  0.4056  0.7038 -0.2574
 4017SOL    HW112950   0.726   5.486   4.536  1.3159  1.4703 -0.6194
 4017SOL    HW212951   0.690   5.560   4.395 -0.2989  0.3519 -0.8186
 4018SOL     OW12952   3.779   6.954   4.074  0.4066  0.0807 -0.4033
 4018SOL    HW112953   3.734   7.042   4.082 -0.8520 -0.5386 -0.4280
 4018SOL    HW212954   3.716   6.887   4.034  1.1999 -0.9193 -0.0373
 4019SOL     OW12955   6.583   4.702   1.791 -0.3696  0.1559 -0.0487
 4019SOL    HW112956   6.584   4.728   1.695 -2.1865 -1.4317 -0.5580
 4019SOL    HW212957   6.592   4.603   1.799 -3.6061 -0.1431  1.1595
 4020SOL     OW12958   0.027   3.519   5.507 -0.4042 -0.5605  0.3789
 4020SOL    HW112959   0.071   3.438   5.547 -1.3752 -0.7371  1.1403
 4020SOL    HW212960   0.045   3.598   5.565 -1.8484 -0.8236  1.2263
 4021SOL     OW12961   2.982   3.892   4.280 -0.1849  0.2134  0.0864
 4021SOL    HW112962   2.912   3.821   4.286 -1.2922  1.1644 -0.9466
 4021SOL    HW212963   3.039   3.878   4.199  1.3713 -0.9857  1.3206
 4022SOL     OW12964   3.535   6.199   1.673 -0.2504 -0.1942  0.0683
 4022SOL    HW112965   3.574   6.112   1.701 -1.5433 -1.4298 -1.7055
 4022SOL    HW212966   3.475   6.234   1.745  1.3267 -0.0421  1.3545
 4023SOL     OW12967   6.044   2.090   5.115 -0.1266 -0.2848  0.2033
 4023SOL    HW112968   6.037   1.994   5.141  0.9329  0.0379  1.7530
 4023SOL    HW212969   6.011   2.148   5.190 -0.2404  0.5922 -0.5041
 4024SOL     OW12970   2.564   6.351   3.478 -0.0298 -0.0566 -0.2264
 4024SOL    HW112971   2.650   6.399   3.460  0.5520 -1.1581 -0.5030
 4024SOL    HW212972   2.490   6.417   3.488  1.1227  1.0422  1.7468
 4025SOL     OW12973   1.459   5.339   3.545  0.3769 -0.4447 -0.4127
 4025SOL    HW112974   1.439   5.411   3.611 -1.4360 -0.5152 -0.8500
 4025SOL    HW212975   1.555   5.345   3.518  0.2087  2.0074 -0.6704
 4026SOL     OW12976   6.568   6.964   5.270 -0.4498  0.5552 -0.5614
 4026SOL    HW112977   6.485   6.970   5.326 -0.6148 -0.3516 -0.6919
 4026SOL    HW212978   6.544   6.934   5.178 -0.0427  0.8869 -0.7787
 4027SOL     OW12979   4.500   2.385   6.459 -0.3134 -0.5868 -0.1117
 4027SOL    HW112980   4.434   2.317   6.427  0.0812 -2.3665  2.5540
 4027SOL    HW212981   4.453   2.454   6.514 -0.1410 -1.3480  1.0296
 4028SOL     OW12982   4.806   2.325   3.729 -0.2979 -0.0480 -0.2084
 4028SOL    HW112983   4.894   2.309   3.773 -0.2014 -0.1140 -0.4200
 4028SOL    HW212984   4.735   2.332   3.798 -0.1870 -0.3908 -0.0558
 4029SOL     OW12985   2.368   4.092   5.389  0.2191  0.1062 -0.2073
 4029SOL    HW112986   2.373   4.191   5.378 -1.1167  0.2707  0.4658
 4029SOL    HW212987   2.389   4.047   5.302  1.1536  0.9626 -0.4368
 4030SOL     OW12988   0.062   2.158   1.623  0.8400 -0.1250 -0.3013
 4030SOL    HW112989  -0.033   2.187   1.636  1.4742  2.7415 -1.4905
 4030SOL    HW212990   0.095   2.115   1.707 -1.0524  0.0905  0.6132
 4031SOL     OW12991   4.977   4.834   4.246  0.4397 -0.5862 -0.1868
 4031SOL    HW112992   5.054   4.813   4.306 -0.0741 -1.7002  0.1186
 4031SOL    HW212993   4.902   4.771   4.265 -0.7102  0.7169 -0.1928
 4032SOL     OW12994   6.610   0.232   0.205  0.6250 -0.0049  0.4362
 4032SOL    HW112995   6.572   0.315   0.164  1.3328  0.3385  0.4485
 4032SOL    HW212996   6.578   0.222   0.299  1.0504  0.6137  0.6535
 4033SOL     OW12997   1.513   1.341   1.493  0.1331 -0.0390 -0.5452
 4033SOL    HW112998   1.448   1.397   1.442 -0.4998  0.6698  0.9725
 4033SOL    HW212999   1.470   1.255   1.519  0.4898 -0.4448 -1.2521
 4034SOL     OW13000   4.322   3.979   5.827  0.2134  0.5687  0.2645
 4034SOL    HW113001   4.372   3.924   5.894  0.1961  1.0022  0.6438
 4034SOL    HW213002   4.315   3.930   5.741 -1.5276 -0.8925  1.1630
 4035SOL     OW13003   6.373   1.553   1.373 -0.4121 -0.1837  0.3802
 4035SOL    HW113004   6.402   1.464   1.407 -0.0910 -0.5122 -0.7086
 4035SOL    HW213005   6.448   1.618   1.381 -0.4361 -0.1789  0.5703
 4036SOL     OW13006   4.500   4.446   4.673  0.5053 -0.1722  0.1338
 4036SOL    HW113007   4.546   4.358   4.672  1.5472  0.3559 -1.5536
 4036SOL    HW213008   4.538   4.503   4.746  0.6047 -0.6891  0.4956
 4037SOL     OW13009   1.345   2.796   5.761  0.1509 -0.3396 -0.9085
 4037SOL    HW113010   1.384   2.887   5.774 -0.1876 -0.2141 -0.7692
 4037SOL    HW213011   1.390   2.731   5.823 -2.1233  0.4395  1.7725
 4038SOL     OW13012   2.924   2.608   1.716  0.2045 -0.0058  0.1893
 4038SOL    HW113013   2.919   2.558   1.802 -0.5020  0.6192  0.5222
 4038SOL    HW213014   2.962   2.699   1.732  2.2735 -0.6824 -0.5402
 4039SOL     OW13015   4.123   0.057   3.273 -0.0069 -0.2720 -0.5995
 4039SOL    HW113016   4.182  -0.020   3.249  0.7149 -0.0710  0.4951
 4039SOL    HW213017   4.063   0.077   3.195  0.2982 -1.4533 -1.1757
 4040SOL     OW13018   2.773   1.106   4.707 -0.1842 -0.4166 -0.2621
 4040SOL    HW113019   2.830   1.181   4.672 -0.3877 -0.3421 -0.4363
 4040SOL    HW213020   2.806   1.019   4.670  0.9148 -0.5765  1.0133
 4041SOL     OW13021   2.850   6.102   6.428 -0.0770 -0.2375  0.8832
 4041SOL    HW113022   2.830   6.021   6.484  0.6015  0.0754  1.5978
 4041SOL    HW213023   2.789   6.103   6.348  0.2806 -1.7499  0.5564
 4042SOL     OW13024   5.442   6.260   5.075  0.3320 -0.2735  0.5604
 4042SOL    HW113025   5.489   6.247   4.987 -0.9761  0.0926 -0.2205
 4042SOL    HW213026   5.353   6.214   5.072 -1.9292  3.7249 -0.1690
 4043SOL     OW13027   5.088   1.321   0.435 -0.1098 -0.4489  0.3011
 4043SOL    HW113028   5.153   1.308   0.361 -0.2100 -0.3734  0.1985
 4043SOL    HW213029   5.112   1.403   0.488 -0.6329  0.1035 -0.2884
 4044SOL     OW13030   5.265   3.917   1.524 -0.3983  0.0165 -0.6899
 4044SOL    HW113031   5.295   4.007   1.556  2.1985 -1.2467  0.8351
 4044SOL    HW213032   5.193   3.882   1.585 -1.0840  0.8556 -1.0123
 4045SOL     OW13033   3.247   5.954   6.369  0.3642  0.2754  0.2831
 4045SOL    HW113034   3.277   6.048   6.385 -0.3053  0.4311  0.6253
 4045SOL    HW213035   3.297   5.917   6.290 -1.2688  1.8263 -1.6004
 4046SOL     OW13036   0.403   0.426   1.964 -0.3639  0.0417  0.2023
 4046SOL    HW113037   0.488   0.375   1.975  0.7211  1.7476 -0.0332
 4046SOL    HW213038   0.423   0.520   1.938 -2.3732  0.0992 -1.3916
 4047SOL     OW13039   3.698   1.641   5.835 -0.7368 -0.2531 -0.0789
 4047SOL    HW113040   3.725   1.545   5.833  0.8909  0.0066  3.3978
 4047SOL    HW213041   3.604   1.648   5.868 -0.5881 -0.6249  0.4284
 4048SOL     OW13042   4.921   6.094   2.399  0.0579  0.5482  0.3595
 4048SOL    HW113043   4.994   6.029   2.377  0.0005  1.0263 -1.3454
 4048SOL    HW213044   4.949   6.186   2.372 -1.5689  0.5854 -1.3088
 4049SOL     OW13045   5.522   6.799   5.502  0.3292 -0.3762  0.0053
 4049SOL    HW113046   5.534   6.704   5.475  1.2702  0.2012 -1.8114
 4049SOL    HW213047   5.490   6.804   5.596  1.6142 -2.4473  0.6101
 4050SOL     OW13048   0.738   5.652   2.060 -0.0786 -0.6274  0.3973
 4050SOL    HW113049   0.789   5.735   2.040 -0.7072 -0.5362 -0.8794
 4050SOL    HW213050   0.712   5.651   2.157 -0.3275  0.8053  0.3546
 4051SOL     OW13051   5.237   1.326   5.850 -0.2984 -0.7036 -0.1303
 4051SOL    HW113052   5.181   1.300   5.771 -0.4388 -1.8740  0.3320
 4051SOL    HW213053   5.333   1.334   5.821  0.0608 -3.5097 -0.0149
 4052SOL     OW13054   5.302   1.453   2.916  0.6983  0.1825  0.1770
 4052SOL    HW113055   5.380   1.399   2.947  0.8595  1.2916  1.8310
 4052SOL    HW213056   5.329   1.508   2.838  2.3829  2.3381  2.1372
 4053SOL     OW13057   4.428   0.229   3.969  0.4030 -0.0402  0.2323
 4053SOL    HW113058   4.371   0.211   4.049  0.8992 -0.1017  0.5837
 4053SOL    HW213059   4.406   0.319   3.931 -0.9328 -0.6634 -0.5229
 4054SOL     OW13060   5.722   4.264   2.050  0.2410  0.3185 -0.1168
 4054SOL    HW113061   5.690   4.220   1.966 -0.6817  1.2737 -0.2974
 4054SOL    HW213062   5.672   4.350   2.063  0.3193  0.1549  1.4504
 4055SOL     OW13063   2.604   4.178   6.863 -0.1743 -0.4521 -0.2483
 4055SOL    HW113064   2.616   4.269   6.903  0.4301 -0.3456 -0.6561
 4055SOL    HW213065   2.693   4.135   6.852 -0.4809 -1.2044  0.1893
 4056SOL     OW13066   5.174   3.046   0.837 -0.3141 -0.5867 -0.8685
 4056SOL    HW113067   5.232   2.971   0.805 -0.4886 -0.7709 -0.7524
 4056SOL    HW213068   5.083   3.036   0.798 -0.0971  0.0666 -1.5880
 4057SOL     OW13069   0.929   4.516   6.158 -0.2411  0.3777 -0.3906
 4057SOL    HW113070   0.841   4.551   6.191  0.1042  1.8299 -0.9297
 4057SOL    HW213071   0.921   4.418   6.141 -0.9865 -0.0637  2.0823
 4058SOL     OW13072   3.952   0.235   4.066 -0.0047  0.5470 -0.5059
 4058SOL    HW113073   3.946   0.330   4.098 -1.8316  0.0043  0.9330
 4058SOL    HW213074   4.017   0.185   4.122 -0.0212  0.6344 -0.4094
 4059SOL     OW13075   1.311   2.043   2.521 -0.3677 -0.1997 -0.8170
 4059SOL    HW113076   1.332   2.027   2.618 -0.7787 -0.8548 -0.8270
 4059SOL    HW213077   1.325   2.140   2.499  1.8241 -0.4268 -0.6356
 4060SOL     OW13078   3.906   5.154   5.282 -0.1400 -0.3227 -0.3543
 4060SOL    HW113079   3.813   5.162   5.319 -0.2455  0.8788 -0.8340
 4060SOL    HW213080   3.968   5.211   5.336 -0.4211  2.0202 -2.3352
 4061SOL     OW13081   6.754   4.345   1.359 -0.1110  0.7277  0.2264
 4061SOL    HW113082   6.781   4.441   1.354  1.2650  0.4115  1.1036
 4061SOL    HW213083   6.754   4.305   1.268  0.7051  1.1930  0.0183
 4062SOL     OW13084   1.755   1.772   0.564  0.7474  0.3351  0.4457
 4062SOL    HW113085   1.808   1.777   0.649  1.5449 -3.0310  0.3137
 4062SOL    HW213086   1.671   1.721   0.581  0.2473  0.8082 -0.5334
 4063SOL     OW13087   6.963   0.152   1.015 -0.3942 -0.9930 -0.2639
 4063SOL    HW113088   7.063   0.157   1.010 -0.4546 -0.9285 -1.7392
 4063SOL    HW213089   6.930   0.080   0.955 -1.2671 -0.7545 -0.0839
 4064SOL     OW13090   1.293   1.355   3.520 -0.2533  0.4420 -0.5618
 4064SOL    HW113091   1.290   1.366   3.619 -1.0964 -0.8012 -0.4372
 4064SOL    HW213092   1.230   1.283   3.492 -1.3640  1.9716 -2.1887
 4065SOL     OW13093   1.552   0.451   0.835  0.2876 -0.1371  0.2790
 4065SOL    HW113094   1.644   0.445   0.797 -0.5536 -1.7350 -1.7351
 4065SOL    HW213095   1.490   0.393   0.781 -2.6195  3.4373 -0.6763
 4066SOL     OW13096   5.495   3.658   3.047 -0.4415 -0.0541 -0.3196
 4066SOL    HW113097   5.488   3.715   3.129  0.9216 -0.6006  0.2079
 4066SOL    HW213098   5.525   3.714   2.970  1.1343 -0.0544  0.2524
 4067SOL     OW13099   5.741   3.205   3.353 -0.5788 -0.2669  0.2804
 4067SOL    HW113100   5.733   3.208   3.452 -1.0828  0.8641  0.2301
 4067SOL    HW213101   5.726   3.112   3.320  1.4821 -1.0516  1.3936
 4068SOL     OW13102   2.273   1.532   5.606 -0.2374  0.4570 -0.3718
 4068SOL    HW113103   2.212   1.611   5.605  0.3847  0.9607 -2.1076
 4068SOL    HW213104   2.353   1.552   5.663 -1.8343 -0.4149  2.3955
 4069SOL     OW13105   2.954   5.329   1.432 -0.2971 -0.3764 -0.0059
 4069SOL    HW113106   3.029   5.286   1.482 -0.0589 -0.1588 -0.1792
 4069SOL    HW213107   2.869   5.279   1.451 -0.2184 -0.2618  0.6566
 4070SOL     OW13108   6.042   4.279   2.577 -0.5067  0.2034  0.5861
 4070SOL    HW113109   6.035   4.337   2.496 -1.9177 -0.6768  0.0417
 4070SOL    HW213110   6.082   4.191   2.553 -1.2708 -0.2002  0.7578
 4071SOL     OW13111   2.308   2.405   3.140  0.3446  0.5317  0.1217
 4071SOL    HW113112   2.275   2.448   3.056  2.5053  3.2899  0.5388
 4071SOL    HW213113   2.272   2.454   3.219 -0.2166 -0.9254  0.8161
 4072SOL     OW13114   1.241   3.604   3.972 -0.2120 -0.2529  0.0587
 4072SOL    HW113115   1.158   3.550   3.987 -0.5144 -0.2806 -1.6032
 4072SOL    HW213116   1.263   3.605   3.875 -0.4765  3.0038 -0.0725
 4073SOL     OW13117   2.708   6.722   5.216 -0.1341  0.2370  0.1396
 4073SOL    HW113118   2.781   6.692   5.277  1.4233  2.1000 -0.6958
 4073SOL    HW213119   2.663   6.642   5.176  0.6637 -0.9715  1.5588
 4074SOL     OW13120   1.044   3.820   0.306  0.0328  0.2764  0.2532
 4074SOL    HW113121   0.996   3.827   0.393 -1.5430  0.9518 -0.6275
 4074SOL    HW213122   1.141   3.800   0.322 -0.1408  0.8172  2.1486
 4075SOL     OW13123   5.018   1.067   2.542 -0.6905  0.1138 -0.7609
 4075SOL    HW113124   5.082   1.143   2.536 -0.0986 -0.4209 -1.3472
 4075SOL    HW213125   4.929   1.101   2.571 -0.1421  0.8632  0.0813
 4076SOL     OW13126   1.811   1.877   6.677  0.3928 -0.5817 -0.0561
 4076SOL    HW113127   1.823   1.788   6.721  2.1576 -0.3366  0.0531
 4076SOL    HW213128   1.775   1.942   6.743 -0.1665 -1.0309  0.0843
 4077SOL     OW13129   4.876   0.411   0.955 -0.2735 -0.1662  0.3336
 4077SOL    HW113130   4.949   0.450   1.012 -1.1660  1.0720  0.6763
 4077SOL    HW213131   4.787   0.435   0.994 -0.8799 -0.5878 -0.7524
 4078SOL     OW13132   1.579   3.828   1.211 -0.4469 -0.4650  0.4340
 4078SOL    HW113133   1.605   3.769   1.134 -1.9741 -2.0052  1.0204
 4078SOL    HW213134   1.633   3.804   1.291  2.1082  2.0362 -0.3534
 4079SOL     OW13135   1.087   0.805   3.432 -0.1876  0.2994 -0.5340
 4079SOL    HW113136   1.096   0.743   3.354 -1.2178  1.4182 -1.5864
 4079SOL    HW213137   1.094   0.753   3.517  2.6633 -0.7197 -1.2958
 4080SOL     OW13138   3.866   3.944   6.337 -0.4704 -0.2954 -0.0916
 4080SOL    HW113139   3.801   3.987   6.400 -1.2409 -0.3457 -0.8366
 4080SOL    HW213140   3.952   3.925   6.386  0.4348  3.2537 -0.0298
 4081SOL     OW13141   2.448   2.550   4.468  0.0297  0.0390 -0.2949
 4081SOL    HW113142   2.468   2.558   4.370 -0.6673 -0.7082 -0.5103
 4081SOL    HW213143   2.526   2.507   4.514  0.0451 -0.3446 -0.6651
 4082SOL     OW13144   7.020   3.327   4.800  0.0525  0.3593  0.0234
 4082SOL    HW113145   6.928   3.287   4.794 -0.0853  0.7370 -0.5388
 4082SOL    HW213146   7.027   3.402   4.735  0.7371  0.3886  0.1255
 4083SOL     OW13147   1.217   2.648   2.180  0.0253  0.3330 -0.1478
 4083SOL    HW113148   1.188   2.609   2.267  0.2138  0.9529  0.1956
 4083SOL    HW213149   1.223   2.576   2.111 -1.1952  0.0050  0.0717
 4084SOL     OW13150   5.269   4.501   2.730 -0.0284 -0.1317 -0.3195
 4084SOL    HW113151   5.198   4.550   2.781 -0.4735  0.0493 -1.0934
 4084SOL    HW213152   5.357   4.547   2.741 -0.2037  0.1424 -0.0642
 4085SOL     OW13153   1.981   5.270   1.645  0.3687  0.0084 -0.3923
 4085SOL    HW113154   1.980   5.205   1.569 -1.2583  0.2006 -0.5773
 4085SOL    HW213155   1.994   5.221   1.731  2.2231 -0.2107 -0.7677
 4086SOL     OW13156   0.704   5.854   1.750  0.5778 -0.3720  0.6474
 4086SOL    HW113157   0.780   5.827   1.690  1.6102  0.8328  1.3572
 4086SOL    HW213158   0.670   5.773   1.798  0.8509 -1.0694 -0.2891
 4087SOL     OW13159   4.888   1.656   4.182  0.3589 -0.2580  0.4546
 4087SOL    HW113160   4.807   1.642   4.237 -0.6385 -0.6917 -1.0503
 4087SOL    HW213161   4.871   1.728   4.115  0.6808 -1.3204 -0.8239
 4088SOL     OW13162   0.912   4.184   0.588 -0.1335 -0.2767 -0.2687
 4088SOL    HW113163   0.844   4.225   0.648  1.7208 -0.1533  1.8427
 4088SOL    HW213164   0.977   4.254   0.558  1.7489 -1.1400  1.5603
 4089SOL     OW13165   4.745   4.777   5.644 -0.0401  0.4140 -0.0559
 4089SOL    HW113166   4.667   4.727   5.607 -1.2094  1.4594  0.8716
 4089SOL    HW213167   4.712   4.851   5.703  1.6866  0.0880  1.4177
 4090SOL     OW13168   6.141   4.745   6.529 -0.7693  0.0408 -0.0763
 4090SOL    HW113169   6.185   4.821   6.577  0.9274 -1.2996  0.5771
 4090SOL    HW213170   6.143   4.763   6.430 -2.0319  1.6540  0.1578
 4091SOL     OW13171   0.599   5.786   0.833  0.0412  0.5938  0.0895
 4091SOL    HW113172   0.660   5.767   0.910  0.7002  3.1949  0.2942
 4091SOL    HW213173   0.509   5.815   0.868 -0.3065 -0.1214 -0.1825
 4092SOL     OW13174   6.422   2.058   4.542  0.1474 -0.2235 -0.2760
 4092SOL    HW113175   6.375   2.141   4.571 -1.4369 -1.3681  0.5816
 4092SOL    HW213176   6.386   2.028   4.454 -1.0532 -1.3083  0.5566
 4093SOL     OW13177   4.923   1.528   3.094  0.0118 -0.2177 -0.5608
 4093SOL    HW113178   4.971   1.464   3.035  0.0979  0.4423 -1.2239
 4093SOL    HW213179   4.987   1.600   3.124 -0.5845  0.7690 -1.5986
 4094SOL     OW13180   3.623   1.407   4.633 -0.1071 -0.1852  0.0231
 4094SOL    HW113181   3.688   1.463   4.684  0.5645 -1.0521  0.1417
 4094SOL    HW213182   3.595   1.329   4.690 -2.6696  1.1151  0.6856
 4095SOL     OW13183   6.850   2.804   5.694  0.4648  0.3950 -0.1861
 4095SOL    HW113184   6.874   2.710   5.720 -0.2959  0.1327 -0.3843
 4095SOL    HW213185   6.761   2.803   5.648  0.3549  1.2450  0.0028
 4096SOL     OW13186   5.077   0.076   0.282  0.1999 -0.6618  0.2698
 4096SOL    HW113187   5.048  -0.019   0.283  1.4246 -1.0823 -1.0958
 4096SOL    HW213188   5.136   0.094   0.361  2.0508 -1.7657 -0.7928
 4097SOL     OW13189   2.336   3.611   5.849  0.4563  0.2878  0.5963
 4097SOL    HW113190   2.241   3.609   5.880  0.7088 -0.1735  1.3559
 4097SOL    HW213191   2.340   3.650   5.757 -0.6612 -1.2992 -0.1638
 4098SOL     OW13192   0.491   3.480   0.058 -0.0329  0.7307 -0.0721
 4098SOL    HW113193   0.542   3.549   0.109  0.3327 -0.1810  0.8180
 4098SOL    HW213194   0.554   3.417   0.014 -0.3541  1.3203 -1.4251
 4099SOL     OW13195   3.174   6.886   1.457 -0.2882  0.3318 -0.5800
 4099SOL    HW113196   3.274   6.884   1.467  0.1955 -0.7696 -4.2613
 4099SOL    HW213197   3.134   6.812   1.511  0.9142  0.4122  0.4789
 4100SOL     OW13198   6.110   3.858   4.501  0.4395  0.0077  0.3312
 4100SOL    HW113199   6.014   3.848   4.476  0.6655  0.3853 -0.7672
 4100SOL    HW213200   6.132   3.955   4.509  0.4303 -0.0964  1.8662
 4101SOL     OW13201   5.890   1.389   0.945  0.4541 -0.0880 -0.0187
 4101SOL    HW113202   5.965   1.411   0.882 -0.1718  2.9012  0.1364
 4101SOL    HW213203   5.813   1.450   0.928 -1.7993 -2.6911  0.2176
 4102SOL     OW13204   5.548   5.719   2.172 -0.5390 -0.1615  0.6482
 4102SOL    HW113205   5.466   5.680   2.130 -1.3624  1.9042  0.2331
 4102SOL    HW213206   5.557   5.815   2.146  2.4306 -0.4788  0.1160
 4103SOL     OW13207   6.592   0.029   0.649 -0.0181  0.0045  0.1224
 4103SOL    HW113208   6.525   0.101   0.668 -0.2681  0.5650 -2.5239
 4103SOL    HW213209   6.547  -0.061   0.653 -0.5643  0.2646 -0.1523
 4104SOL     OW13210   2.036   4.792   1.473 -0.2875 -0.2417 -0.0131
 4104SOL    HW113211   2.024   4.702   1.431 -0.7179 -0.5451  0.7517
 4104SOL    HW213212   1.948   4.838   1.479  0.0772  0.7468 -1.4862
 4105SOL     OW13213   3.897   0.855   2.286 -0.1988 -0.4372 -0.4184
 4105SOL    HW113214   3.886   0.915   2.207 -3.3081 -0.0054  0.1978
 4105SOL    HW213215   3.921   0.909   2.366 -2.3347  0.0179 -0.0106
 4106SOL     OW13216   6.055   2.032   3.719 -0.0749  0.4003  0.2731
 4106SOL    HW113217   5.956   2.040   3.721 -0.1535 -0.2883  3.0206
 4106SOL    HW213218   6.096   2.108   3.769  0.3829 -2.0783  4.0686
 4107SOL     OW13219   1.088   5.299   4.548  0.3580 -0.3589 -0.1572
 4107SOL    HW113220   1.033   5.345   4.479 -0.2328 -0.4111  0.2673
 4107SOL    HW213221   1.029   5.241   4.605  0.5690  0.7790  1.3018
 4108SOL     OW13222   7.019   4.840   4.960  0.6584 -0.2809 -0.3109
 4108SOL    HW113223   6.921   4.849   4.980  0.9584 -0.7678  1.6163
 4108SOL    HW213224   7.038   4.874   4.868 -0.9257  2.2886  0.2101
 4109SOL     OW13225   5.577   6.699   6.301 -0.4005  0.0867 -0.1269
 4109SOL    HW113226   5.551   6.700   6.398  0.4795  0.2609  0.1135
 4109SOL    HW213227   5.558   6.788   6.260  0.3332  0.4002  0.1952
 4110SOL     OW13228   5.972   3.169   6.757  0.2441  0.7891  0.2449
 4110SOL    HW113229   6.040   3.102   6.788 -1.2755 -0.2610  1.5034
 4110SOL    HW213230   6.001   3.261   6.784  0.1341  0.1508  2.8459
 4111SOL     OW13231   3.194   2.600   0.193  0.2938  0.2020  0.5255
 4111SOL    HW113232   3.211   2.686   0.241  1.8769  0.3820 -0.2856
 4111SOL    HW213233   3.116   2.611   0.132  0.4370  1.0378  0.4796
 4112SOL     OW13234   4.362   6.968   6.187  0.2896 -0.2076  0.0267
 4112SOL    HW113235   4.411   6.918   6.258  2.3245  0.8315 -0.5575
 4112SOL    HW213236   4.414   6.964   6.102 -1.9782 -1.2471 -1.4216
 4113SOL     OW13237   5.554   5.003   5.097  0.2761  0.4938 -0.6174
 4113SOL    HW113238   5.490   5.063   5.049  0.5600 -0.0253 -1.6735
 4113SOL    HW213239   5.584   5.047   5.182 -2.3964  0.2398  0.5580
 4114SOL     OW13240   3.235   1.968   3.728 -0.1177  0.6134 -0.0751
 4114SOL    HW113241   3.321   1.989   3.681  0.1102  0.5483  0.3103
 4114SOL    HW213242   3.173   2.047   3.721 -1.4039 -0.5002 -3.3297
 4115SOL     OW13243   3.879   5.953   2.638  0.0671 -0.0442  0.4896
 4115SOL    HW113244   3.957   6.015   2.637  0.0703  0.0054 -1.9975
 4115SOL    HW213245   3.911   5.859   2.635  0.0243 -0.1308  1.9915
 4116SOL     OW13246   2.749   1.244   1.568 -0.6536 -0.5505 -0.1576
 4116SOL    HW113247   2.747   1.215   1.472  0.6129  0.7683 -0.6277
 4116SOL    HW213248   2.694   1.326   1.579 -0.7218 -0.6477  0.2266
 4117SOL     OW13249   1.806   5.495   0.648  0.5967  0.3858  0.1432
 4117SOL    HW113250   1.767   5.410   0.613 -1.3477  1.0399  0.6359
 4117SOL    HW213251   1.782   5.570   0.587  1.5084  0.7585  0.2178
 4118SOL     OW13252   3.161   5.222   1.568  0.3977 -0.1741 -0.5698
 4118SOL    HW113253   3.174   5.277   1.651 -1.5707  0.0107 -0.3344
 4118SOL    HW213254   3.144   5.127   1.593  0.1279 -0.1781 -0.7587
 4119SOL     OW13255   4.446   1.917   4.198 -0.4680 -0.6578 -0.3944
 4119SOL    HW113256   4.413   1.823   4.188  0.4132 -1.0267  0.1027
 4119SOL    HW213257   4.369   1.980   4.185 -2.0127 -1.5761  3.1060
 4120SOL     OW13258   2.942   0.912   1.558 -0.8052  0.2305 -0.4163
 4120SOL    HW113259   2.998   0.962   1.623  1.7893  1.3784 -3.2689
 4120SOL    HW213260   2.969   0.816   1.557 -0.4302  0.3316 -0.1905
 4121SOL     OW13261   1.040   1.251   3.845 -0.0823 -0.4895  0.4211
 4121SOL    HW113262   0.944   1.251   3.871 -0.4865 -0.1225 -0.9511
 4121SOL    HW213263   1.062   1.167   3.796 -0.5547  0.6717 -1.9676
 4122SOL     OW13264   1.977   4.563   3.900 -0.2445  0.1794 -0.2421
 4122SOL    HW113265   1.990   4.662   3.891 -1.7402  0.3127 -1.1636
 4122SOL    HW213266   2.027   4.517   3.827  0.3660  0.2394  0.1250
 4123SOL     OW13267   5.210   5.452   6.770  0.9223 -0.0332  0.1785
 4123SOL    HW113268   5.208   5.449   6.870 -0.2202  1.3296  0.2307
 4123SOL    HW213269   5.171   5.538   6.738 -0.6878 -1.2899 -1.5088
 4124SOL     OW13270   4.126   6.348   0.770  0.2597 -0.1199  0.2730
 4124SOL    HW113271   4.087   6.439   0.780  1.1639  0.1742  1.4578
 4124SOL    HW213272   4.063   6.289   0.719  0.8889  1.9249 -3.1972
 4125SOL     OW13273   2.905   0.482   2.305  0.4114  0.2418  0.1895
 4125SOL    HW113274   2.951   0.410   2.358 -1.5093 -2.1997 -1.2280
 4125SOL    HW213275   2.924   0.469   2.208  0.4943  2.0785 -0.0714
 4126SOL     OW13276   0.926   2.521   1.961  0.0091 -0.6433  0.1535
 4126SOL    HW113277   0.938   2.476   2.050 -0.0952 -2.6954 -0.8105
 4126SOL    HW213278   0.980   2.472   1.892  0.1807  0.9825 -0.9031
 4127SOL     OW13279   3.957   5.508   6.379  0.5712 -0.1645  0.7962
 4127SOL    HW113280   3.978   5.548   6.290  0.5103  0.7649  1.1888
 4127SOL    HW213281   3.973   5.576   6.451 -2.1985  0.1378  1.2512
 4128SOL     OW13282   0.356   2.529   1.023  0.2080  0.4276 -0.1827
 4128SOL    HW113283   0.372   2.603   0.958  2.0546 -0.5664 -0.9485
 4128SOL    HW213284   0.397   2.445   0.988  0.9404 -0.2444  2.0976
 4129SOL     OW13285   4.821   2.101   5.688  0.0784 -0.9794 -0.5720
 4129SOL    HW113286   4.827   2.003   5.668 -1.2830 -1.1106 -0.4112
 4129SOL    HW213287   4.766   2.115   5.770  1.0238 -0.1163 -0.0539
 4130SOL     OW13288   6.250   2.504   5.337  0.0186 -0.0965  0.1961
 4130SOL    HW113289   6.241   2.526   5.434 -1.0073  0.1183  0.0659
 4130SOL    HW213290   6.252   2.404   5.326  0.8025 -0.1165  0.4831
 4131SOL     OW13291   1.352   0.048   3.337 -0.5133 -0.8826  0.2494
 4131SOL    HW113292   1.341   0.063   3.435 -1.5632 -0.4545  0.0738
 4131SOL    HW213293   1.322   0.129   3.287 -1.6876 -1.7495 -0.5022
 4132SOL     OW13294   5.603   4.556   2.232  0.2423  0.5336  0.6213
 4132SOL    HW113295   5.546   4.628   2.271 -1.7565 -1.1017  0.9145
 4132SOL    HW213296   5.679   4.536   2.294 -1.0019  0.2407  2.1118
 4133SOL     OW13297   3.626   1.386   1.111 -0.3698 -0.2648 -0.3616
 4133SOL    HW113298   3.703   1.449   1.099  0.0673 -0.5163  1.0149
 4133SOL    HW213299   3.659   1.292   1.108 -0.4741 -0.3671  0.9771
 4134SOL     OW13300   3.785   2.234   1.564  0.7284  0.2495 -0.7156
 4134SOL    HW113301   3.774   2.175   1.644 -0.8499  0.6674 -0.5905
 4134SOL    HW213302   3.791   2.330   1.593  1.3392  0.3244 -1.0459
 4135SOL     OW13303   2.229   0.904   3.002 -0.2307 -0.1688  0.4143
 4135SOL    HW113304   2.172   0.899   3.084  2.2302 -1.5928  2.1953
 4135SOL    HW213305   2.325   0.903   3.029  0.6914 -1.2703 -2.5227
 4136SOL     OW13306   7.016   6.751   2.666 -0.3271  0.1413  0.1192
 4136SOL    HW113307   7.073   6.816   2.715 -2.2593  3.0907 -1.2259
 4136SOL    HW213308   7.034   6.659   2.699  2.8144  1.2582  1.9173
 4137SOL     OW13309   0.949   5.026   6.854 -0.1091  0.7652  0.1111
 4137SOL    HW113310   0.917   5.120   6.846  2.2822  1.5613 -1.1359
 4137SOL    HW213311   0.909   4.970   6.782  1.2154  1.7464 -1.4538
 4138SOL     OW13312   4.204   5.274   1.507  0.2067  0.5282 -0.2054
 4138SOL    HW113313   4.223   5.358   1.456 -2.3473 -0.0334 -2.3372
 4138SOL    HW213314   4.254   5.198   1.466  0.5694  0.5877  0.1238
 4139SOL     OW13315   2.747   1.514   5.782  0.0346 -0.3829 -0.3195
 4139SOL    HW113316   2.743   1.529   5.683 -0.4477 -1.0572 -0.4102
 4139SOL    HW213317   2.839   1.481   5.807  0.1403 -0.2650 -0.5517
 4140SOL     OW13318   3.187   1.615   5.870 -0.4451  0.0413  0.3278
 4140SOL    HW113319   3.146   1.582   5.955 -1.8878  0.9171  0.0081
 4140SOL    HW213320   3.144   1.569   5.792  0.0529  0.0817  0.0260
 4141SOL     OW13321   4.703   0.465   1.163  0.1047 -0.0604  0.4035
 4141SOL    HW113322   4.718   0.387   1.225  0.0152  0.1307  0.6691
 4141SOL    HW213323   4.605   0.480   1.152  0.1069  0.9850  1.6016
 4142SOL     OW13324   0.700   6.273   0.663 -0.5094  0.4074  0.4038
 4142SOL    HW113325   0.737   6.185   0.689 -0.8572  0.3266  0.6352
 4142SOL    HW213326   0.651   6.314   0.741 -1.6870  0.0947 -0.1454
 4143SOL     OW13327   1.216   1.638   6.660  0.1497 -0.0126 -0.1734
 4143SOL    HW113328   1.180   1.594   6.743  0.5352 -2.4272 -1.2029
 4143SOL    HW213329   1.302   1.683   6.682  0.8984 -1.6786  0.5587
 4144SOL     OW13330   6.112   3.833   6.089  0.2140  1.0037 -0.1203
 4144SOL    HW113331   6.118   3.748   6.036 -0.8493  1.6933 -1.3980
 4144SOL    HW213332   6.029   3.882   6.064  0.7367  2.3622  0.6990
 4145SOL     OW13333   3.881   5.984   0.530  0.0111  0.0913 -0.2508
 4145SOL    HW113334   3.973   5.980   0.568  0.0898  1.2539 -0.2853
 4145SOL    HW213335   3.883   5.952   0.435  0.4119  0.2186 -0.2893
 4146SOL     OW13336   6.497   2.275   4.845  0.3280  0.2055 -0.8276
 4146SOL    HW113337   6.464   2.365   4.872 -0.6934 -0.0040 -1.3340
 4146SOL    HW213338   6.518   2.221   4.926 -0.6030  0.3399 -0.4904
 4147SOL     OW13339   4.656   2.808   4.778 -0.0309  0.0944 -0.5952
 4147SOL    HW113340   4.634   2.786   4.873 -0.5942 -1.6038 -1.0975
 4147SOL    HW213341   4.740   2.862   4.775  1.4803 -2.0676  0.7295
 4148SOL     OW13342   0.841   0.658   3.605  0.1882 -0.0775  0.1725
 4148SOL    HW113343   0.834   0.593   3.530  1.3836  0.2192 -0.2137
 4148SOL    HW213344   0.937   0.668   3.632 -0.2265 -0.2297  1.7927
 4149SOL     OW13345   0.706   2.755   0.607  0.3064 -0.0634 -0.1259
 4149SOL    HW113346   0.796   2.788   0.635  1.2409 -2.9860  0.6919
 4149SOL    HW213347   0.642   2.763   0.684  0.6438 -0.5190  0.2093
 4150SOL     OW13348   1.132   6.687   5.460  0.1442 -0.3668 -0.3893
 4150SOL    HW113349   1.093   6.605   5.417  1.0051 -0.7382 -0.4788
 4150SOL    HW213350   1.118   6.682   5.559  1.1936 -1.1916 -0.2636
 4151SOL     OW13351   4.879   5.699   6.357  0.6586  0.7110  0.6498
 4151SOL    HW113352   4.788   5.674   6.388  0.9300 -0.0367  0.8767
 4151SOL    HW213353   4.937   5.617   6.357  0.8956  0.8528 -1.0067
 4152SOL     OW13354   1.784   0.088   1.530 -0.0354 -0.1997 -0.4312
 4152SOL    HW113355   1.707   0.132   1.576  1.9879  0.9752  2.0613
 4152SOL    HW213356   1.785   0.116   1.434 -1.1365  2.0629  0.1384
 4153SOL     OW13357   5.291   2.368   0.241  0.2274  1.1108  0.5454
 4153SOL    HW113358   5.236   2.297   0.286  0.5758  1.1477  1.0319
 4153SOL    HW213359   5.383   2.369   0.280  1.3233 -0.4315 -1.7293
 4154SOL     OW13360   6.131   3.443   5.232 -0.4971  0.1255 -0.5174
 4154SOL    HW113361   6.219   3.396   5.228 -0.3621  0.4484 -2.2487
 4154SOL    HW213362   6.121   3.503   5.152 -2.1534  0.3465 -0.1938
 4155SOL     OW13363   6.368   2.928   2.455 -0.1320 -0.1176  0.1856
 4155SOL    HW113364   6.401   3.006   2.402 -0.1164  0.8391  1.5563
 4155SOL    HW213365   6.428   2.849   2.438  0.7275  0.5760 -0.0959
 4156SOL     OW13366   6.672   1.360   5.133  0.0964  0.3156  0.8101
 4156SOL    HW113367   6.677   1.346   5.034 -0.3675 -0.0713  0.8369
 4156SOL    HW213368   6.668   1.272   5.179 -2.4306  0.4416  1.0069
 4157SOL     OW13369   4.582   5.074   4.774  0.2768  0.4685 -0.4052
 4157SOL    HW113370   4.625   5.121   4.698  0.3862  0.7771 -0.1542
 4157SOL    HW213371   4.500   5.026   4.742  2.6664 -3.1766 -1.6841
 4158SOL     OW13372   0.307   5.171   3.277  0.4184 -0.2151 -0.4748
 4158SOL    HW113373   0.284   5.263   3.247  1.3918  0.0096 -0.5758
 4158SOL    HW213374   0.223   5.118   3.292 -0.2575  1.3882  1.9098
 4159SOL     OW13375   0.376   2.997   3.000  0.2243  0.8582  0.4157
 4159SOL    HW113376   0.355   3.068   3.068 -2.5893 -1.6610  2.5152
 4159SOL    HW213377   0.387   2.909   3.047 -0.8336 -0.8535 -2.3143
 4160SOL     OW13378   5.486   0.660   1.793  0.0804 -0.0852  0.1147
 4160SOL    HW113379   5.542   0.686   1.714  1.9370 -3.4672  0.1199
 4160SOL    HW213380   5.423   0.587   1.767 -0.0941 -0.4564  1.4946
 4161SOL     OW13381   2.290   6.603   5.680  0.4401 -0.2140 -0.0962
 4161SOL    HW113382   2.330   6.596   5.772  0.5380  3.3931  0.2539
 4161SOL    HW213383   2.361   6.634   5.616 -0.0390 -1.0935 -1.0720
 4162SOL     OW13384   6.295   5.528   4.307  0.4084 -0.2217  0.3538
 4162SOL    HW113385   6.394   5.529   4.315  0.3700 -1.0434  1.0249
 4162SOL    HW213386   6.257   5.451   4.359 -0.4749 -0.8029 -1.0606
 4163SOL     OW13387   6.909   0.502   3.213  0.0669  0.0020  0.6377
 4163SOL    HW113388   6.834   0.530   3.274 -0.6125 -0.9935  0.2815
 4163SOL    HW213389   6.912   0.403   3.208  0.6613  0.0605 -0.2938
 4164SOL     OW13390   1.627   0.497   6.250 -0.2987  0.0898  0.2045
 4164SOL    HW113391   1.537   0.453   6.256 -0.4908  0.4132 -0.2041
 4164SOL    HW213392   1.698   0.431   6.270 -0.5343 -0.6297 -1.2159
 4165SOL     OW13393   3.561   6.518   0.781 -0.1907 -0.0924 -0.0005
 4165SOL    HW113394   3.611   6.597   0.745  3.0710 -1.9498  0.0993
 4165SOL    HW213395   3.548   6.451   0.709 -2.3197  0.1676  0.0872
 4166SOL     OW13396   0.440   3.930   0.389  0.0996 -0.4608 -0.1540
 4166SOL    HW113397   0.485   4.019   0.388 -2.7361  1.1017 -2.1452
 4166SOL    HW213398   0.489   3.867   0.328  1.0779  0.3171 -0.1933
 4167SOL     OW13399   0.935   4.292   0.082  0.0525  0.1795  0.2779
 4167SOL    HW113400   0.906   4.238   0.003  0.0209  0.9426 -0.2475
 4167SOL    HW213401   0.948   4.232   0.161  3.8938 -1.2672 -1.2470
 4168SOL     OW13402   6.133   5.425   2.882 -0.4692  0.0708 -0.2385
 4168SOL    HW113403   6.146   5.406   2.979 -0.1885 -1.0322 -0.4862
 4168SOL    HW213404   6.039   5.401   2.856 -0.5130  0.2691 -0.2697
 4169SOL     OW13405   0.053   3.522   2.474 -0.3604 -0.1777 -0.2963
 4169SOL    HW113406   0.133   3.562   2.518 -1.3658 -1.0658  2.5509
 4169SOL    HW213407  -0.026   3.527   2.535 -1.5687 -2.6746 -1.4702
 4170SOL     OW13408   2.849   3.633   5.156  0.2259  0.3480  0.2608
 4170SOL    HW113409   2.849   3.602   5.061  0.5580  0.9436  0.0601
 4170SOL    HW213410   2.802   3.566   5.213  0.2989 -0.1660 -0.2748
 4171SOL     OW13411   3.695   4.363   1.523  0.7968 -0.6303  0.2253
 4171SOL    HW113412   3.611   4.308   1.522  0.4981 -0.1995  0.7142
 4171SOL    HW213413   3.745   4.346   1.608 -0.4781  1.5349  1.5283
 4172SOL     OW13414   6.944   1.347   4.024 -0.6488 -0.1865 -0.0460
 4172SOL    HW113415   6.876   1.373   4.093 -1.9871  1.9530 -2.0436
 4172SOL    HW213416   7.009   1.421   4.012 -0.6349 -0.3938 -1.3058
 4173SOL     OW13417   5.759   5.693   6.322 -0.2981  0.1243 -0.0012
 4173SOL    HW113418   5.793   5.741   6.241  0.4584  2.0886  1.3998
 4173SOL    HW213419   5.681   5.635   6.296 -0.1181  0.7263 -2.0951
 4174SOL     OW13420   4.530   0.718   3.470 -0.6299 -0.1180 -0.4766
 4174SOL    HW113421   4.445   0.753   3.430 -1.3759 -0.8467  0.3975
 4174SOL    HW213422   4.544   0.760   3.559 -0.7804 -0.9496 -0.0456
 4175SOL     OW13423   1.253   5.379   4.286 -0.3821 -0.3098 -0.3686
 4175SOL    HW113424   1.230   5.298   4.339  0.0625  0.2443  0.6921
 4175SOL    HW213425   1.201   5.457   4.318  0.1822  0.1217 -0.4783
 4176SOL     OW13426   2.673   1.059   3.557 -0.2549  0.2959 -0.0767
 4176SOL    HW113427   2.694   0.967   3.589 -1.1269 -0.0369 -0.4462
 4176SOL    HW213428   2.652   1.118   3.636  2.7916  0.8946  0.4328
 4177SOL     OW13429   0.468   5.491   5.563  0.4555 -0.3616  0.4820
 4177SOL    HW113430   0.412   5.486   5.481  0.7032 -2.2738  0.3876
 4177SOL    HW213431   0.545   5.554   5.548  1.3357 -1.7678 -1.3105
 4178SOL     OW13432   4.866   3.211   3.152  0.5563  0.9261 -0.4826
 4178SOL    HW113433   4.824   3.205   3.242  2.0283 -0.7442  0.1566
 4178SOL    HW213434   4.958   3.172   3.155  1.4358  2.6729 -2.2652
 4179SOL     OW13435   6.005   2.117   4.840 -0.0554  0.1416  0.5226
 4179SOL    HW113436   5.927   2.086   4.787 -0.7252 -0.1755  1.6522
 4179SOL    HW213437   5.984   2.109   4.938  1.7294 -0.8585  0.8633
 4180SOL     OW13438   5.267   2.231   1.157 -0.4923  0.0434  0.3463
 4180SOL    HW113439   5.172   2.254   1.177 -0.4376  1.5701 -0.9253
 4180SOL    HW213440   5.272   2.184   1.069  0.1330  2.8330 -1.2250
 4181SOL     OW13441   2.519   2.097   5.814 -0.4473  0.3222  0.3359
 4181SOL    HW113442   2.538   2.195   5.807  0.9065  0.1113  0.7559
 4181SOL    HW213443   2.420   2.082   5.818 -0.6731  1.9271  3.7799
 4182SOL     OW13444   6.773   6.610   3.523  0.1124 -0.0380 -0.5453
 4182SOL    HW113445   6.735   6.627   3.432  0.6974  0.5893 -0.6798
 4182SOL    HW213446   6.796   6.697   3.566 -1.3851 -0.2433  0.7444
 4183SOL     OW13447   4.163   0.294   6.768 -0.1709  0.4178  0.1645
 4183SOL    HW113448   4.090   0.240   6.727 -0.6093  0.6398  0.6489
 4183SOL    HW213449   4.221   0.235   6.824  0.4119  0.1181 -0.7299
 4184SOL     OW13450   5.407   5.150   0.731 -0.4628 -0.2836 -0.4503
 4184SOL    HW113451   5.408   5.145   0.831  1.7451  0.2150 -0.4027
 4184SOL    HW213452   5.348   5.078   0.695 -0.0837 -1.4743  1.1828
 4185SOL     OW13453   6.307   5.647   1.803 -0.3312 -0.0848 -0.1261
 4185SOL    HW113454   6.247   5.711   1.756 -0.3503 -1.6342 -2.4041
 4185SOL    HW213455   6.257   5.601   1.876 -2.1372 -1.5383 -2.1350
 4186SOL     OW13456   3.044   0.841   0.948  0.0040  0.1042  0.2830
 4186SOL    HW113457   3.063   0.803   1.038 -0.4418  1.9541  1.2096
 4186SOL    HW213458   3.121   0.899   0.920  0.2457 -0.6461 -0.6535
 4187SOL     OW13459   3.311   4.030   5.527  0.1282 -0.0082  0.4647
 4187SOL    HW113460   3.332   3.934   5.547  1.4194  0.2910  0.6177
 4187SOL    HW213461   3.257   4.069   5.601 -1.0981 -0.8180  0.0331
 4188SOL     OW13462   4.719   6.225   3.616  0.0416  0.2024 -0.0466
 4188SOL    HW113463   4.763   6.243   3.703  0.0220 -0.4558  0.0999
 4188SOL    HW213464   4.711   6.311   3.565 -1.7805  0.9875  1.4388
 4189SOL     OW13465   3.033   0.366   6.122  0.1169  0.1301 -0.5819
 4189SOL    HW113466   3.039   0.418   6.208  1.1728 -1.2366  0.2134
 4189SOL    HW213467   2.941   0.328   6.114 -0.4576  1.5025 -0.8355
 4190SOL     OW13468   1.452   5.397   5.098  0.4917  0.2714  0.2718
 4190SOL    HW113469   1.445   5.328   5.171  0.5672  0.3046  0.3094
 4190SOL    HW213470   1.457   5.488   5.139 -1.4577  0.4535  0.2055
 4191SOL     OW13471   5.888   3.786   2.922 -0.1357  0.0465  0.2871
 4191SOL    HW113472   5.904   3.830   3.011  1.8827  0.0897 -0.0614
 4191SOL    HW213473   5.789   3.784   2.904 -0.4768  1.9532  1.5558
 4192SOL     OW13474   6.255   1.480   3.115 -0.0058 -0.2756 -0.1037
 4192SOL    HW113475   6.220   1.451   3.026 -0.7863 -2.0993  0.7443
 4192SOL    HW213476   6.314   1.560   3.103 -1.6245  0.7164 -1.9970
 4193SOL     OW13477   3.040   5.856   2.442 -0.6611 -1.0787  0.3549
 4193SOL    HW113478   3.124   5.801   2.440 -0.0483 -0.1647 -1.2692
 4193SOL    HW213479   3.031   5.900   2.531  1.8648  0.6773 -0.1405
 4194SOL     OW13480   6.945   1.919   5.226 -0.5655 -0.2340 -0.4007
 4194SOL    HW113481   6.934   1.987   5.298 -0.4608  0.0528 -0.6549
 4194SOL    HW213482   7.035   1.876   5.233 -0.6107 -0.3087 -0.2750
 4195SOL     OW13483   3.863   1.817   0.933  0.2525  0.9582  0.1523
 4195SOL    HW113484   3.784   1.868   0.899 -0.6019 -0.0301  0.5906
 4195SOL    HW213485   3.831   1.736   0.983  1.4747  1.6083  2.1122
 4196SOL     OW13486   5.793   1.421   6.565  0.0742 -0.7274 -0.0354
 4196SOL    HW113487   5.736   1.420   6.483  0.8405 -0.2854 -0.5939
 4196SOL    HW213488   5.866   1.353   6.556 -0.0159 -0.8902  0.4210
 4197SOL     OW13489   3.702   4.882   6.232 -0.7369  0.2277  0.5012
 4197SOL    HW113490   3.799   4.894   6.210  0.0534 -0.7593  3.0590
 4197SOL    HW213491   3.661   4.816   6.170  0.8401 -1.0406  0.7594
 4198SOL     OW13492   5.670   3.633   6.303  0.2919 -0.0458  0.1940
 4198SOL    HW113493   5.627   3.554   6.346  2.8442 -1.1683  0.8802
 4198SOL    HW213494   5.600   3.691   6.262 -1.9410 -0.9424  2.4840
 4199SOL     OW13495   3.997   4.052   5.030  0.1841  0.1015  0.3109
 4199SOL    HW113496   4.049   4.132   5.061 -0.3883 -0.0761  1.7868
 4199SOL    HW213497   3.899   4.073   5.030  0.0813 -0.3331 -0.1480
 4200SOL     OW13498   5.592   6.515   5.498  0.4034  0.0688  0.5408
 4200SOL    HW113499   5.597   6.422   5.461  0.1542  0.3747 -0.2784
 4200SOL    HW213500   5.533   6.515   5.579  0.5357 -0.5135  0.6461
 4201SOL     OW13501   4.486   4.633   3.672  0.6360 -0.8260 -0.2233
 4201SOL    HW113502   4.396   4.670   3.649  0.6233 -1.4757 -1.2937
 4201SOL    HW213503   4.501   4.639   3.771 -0.8726 -1.3337  0.0557
 4202SOL     OW13504   4.747   6.111   5.432  0.1093 -0.2917  0.4836
 4202SOL    HW113505   4.810   6.182   5.399  2.4686 -2.0049  1.0031
 4202SOL    HW213506   4.752   6.032   5.371 -0.1305 -1.1565  1.5682
 4203SOL     OW13507   4.079   5.223   2.588  0.2061 -0.2666 -0.3020
 4203SOL    HW113508   4.048   5.213   2.494  1.5606 -0.4847 -0.7540
 4203SOL    HW213509   4.100   5.133   2.626 -0.7425 -0.2132  0.3607
 4204SOL     OW13510   5.025   2.463   1.378  0.0010  0.2631 -0.1748
 4204SOL    HW113511   5.025   2.391   1.309  0.8516  0.0955 -0.0135
 4204SOL    HW213512   5.024   2.421   1.469  1.2972  0.4135 -0.0689
 4205SOL     OW13513   3.779   5.311   4.406  0.9232 -0.1957  0.1386
 4205SOL    HW113514   3.737   5.260   4.481 -0.2871  0.6402  0.0558
 4205SOL    HW213515   3.708   5.339   4.341  1.8450 -0.2082 -0.9085
 4206SOL     OW13516   5.035   1.117   5.948  0.3185 -0.8687  0.3822
 4206SOL    HW113517   4.945   1.141   5.913  1.1412 -0.1371 -1.3518
 4206SOL    HW213518   5.055   1.171   6.030  0.2756  1.0067 -0.7998
 4207SOL     OW13519   5.480   1.633   0.392  0.7805  0.2722  0.3595
 4207SOL    HW113520   5.447   1.719   0.354  0.8564  0.1557  0.0232
 4207SOL    HW213521   5.564   1.649   0.444  1.1892  0.2957 -0.3012
 4208SOL     OW13522   0.712   2.793   6.788  0.0968 -0.6338 -0.1816
 4208SOL    HW113523   0.616   2.768   6.794 -0.6439  1.1376 -2.7148
 4208SOL    HW213524   0.757   2.739   6.717 -0.0663  1.0569 -1.6534
 4209SOL     OW13525   6.442   0.701   4.498  0.1893 -0.0685 -0.0916
 4209SOL    HW113526   6.507   0.741   4.563  0.3262  2.9330 -1.8834
 4209SOL    HW213527   6.492   0.670   4.416 -0.3602 -0.3684 -0.3198
 4210SOL     OW13528   1.783   3.791   2.108 -0.0371  0.2781 -0.4443
 4210SOL    HW113529   1.878   3.779   2.079  0.0678 -0.5541  0.1777
 4210SOL    HW213530   1.741   3.701   2.119 -1.1879  0.6470 -1.6044
 4211SOL     OW13531   5.081   5.379   5.178  0.0458 -0.3065 -0.3512
 4211SOL    HW113532   5.031   5.442   5.238 -0.4151  0.2126 -1.2462
 4211SOL    HW213533   5.175   5.369   5.210 -0.3182 -0.4031  0.7120
 4212SOL     OW13534   6.776   3.867   2.491  0.5103  0.1613 -0.0638
 4212SOL    HW113535   6.823   3.779   2.496 -1.5812 -1.0153 -0.0010
 4212SOL    HW213536   6.842   3.939   2.472  2.0512 -1.6600 -2.1413
 4213SOL     OW13537   2.275   0.455   1.936  0.8619  0.1860 -0.1434
 4213SOL    HW113538   2.249   0.503   1.852  1.8912  2.3592  0.6973
 4213SOL    HW213539   2.216   0.483   2.011  0.6303 -0.9258  0.1128
 4214SOL     OW13540   4.977   4.699   0.431 -0.7458 -0.1399 -0.1810
 4214SOL    HW113541   4.881   4.687   0.408 -0.5274  1.5487 -2.2247
 4214SOL    HW213542   5.024   4.611   0.427 -2.2384 -1.0840  1.3746
 4215SOL     OW13543   3.870   6.334   5.465  0.5057 -0.5290  0.0091
 4215SOL    HW113544   3.890   6.432   5.465  0.5922 -0.5458  0.0956
 4215SOL    HW213545   3.953   6.283   5.440  0.1893 -0.5308 -1.0598
 4216SOL     OW13546   1.640   0.674   2.230 -0.5724 -0.1690  0.7044
 4216SOL    HW113547   1.584   0.626   2.163  0.3527  0.6839 -0.7323
 4216SOL    HW213548   1.700   0.608   2.276 -0.0703 -0.5683 -0.4825
 4217SOL     OW13549   5.824   0.437   4.617 -0.2085 -0.2732 -0.0646
 4217SOL    HW113550   5.761   0.386   4.676 -0.7098 -0.4530 -0.7402
 4217SOL    HW213551   5.882   0.373   4.567 -0.0340 -0.1384 -0.0335
 4218SOL     OW13552   5.620   6.490   0.376  0.3678  0.2213 -0.3076
 4218SOL    HW113553   5.553   6.564   0.371 -2.4895 -1.5832  4.4256
 4218SOL    HW213554   5.588   6.413   0.320  0.0113  0.3342 -0.2585
 4219SOL     OW13555   4.277   5.373   4.482 -0.2817  0.3074 -0.4116
 4219SOL    HW113556   4.225   5.456   4.465 -1.5340 -0.2083  0.7425
 4219SOL    HW213557   4.325   5.380   4.569 -3.2243 -1.4172  1.5371
 4220SOL     OW13558   6.518   2.785   2.990 -0.3159 -0.0543  0.2981
 4220SOL    HW113559   6.468   2.821   2.911  1.7620  2.5624  0.0492
 4220SOL    HW213560   6.536   2.688   2.976 -1.9526 -0.1949 -1.3414
 4221SOL     OW13561   4.540   4.961   6.818  0.2586 -0.7099 -0.0367
 4221SOL    HW113562   4.633   4.925   6.817  1.0298  1.0563  1.5263
 4221SOL    HW213563   4.525   5.020   6.738  0.2104 -1.5662 -0.6705
 4222SOL     OW13564   6.749   2.122   3.070  0.1727  0.4023  0.1849
 4222SOL    HW113565   6.747   2.036   3.121  0.7786  0.4375  0.2761
 4222SOL    HW213566   6.712   2.195   3.127 -0.8433  0.1164 -0.0791
 4223SOL     OW13567   3.418   3.101   3.366 -0.0802  0.0338 -0.3814
 4223SOL    HW113568   3.367   3.028   3.322 -0.4897  0.6367 -0.9246
 4223SOL    HW213569   3.435   3.077   3.462  0.3357 -1.0386 -0.7146
 4224SOL     OW13570   5.194   1.358   3.364  0.4311  0.4265 -0.2052
 4224SOL    HW113571   5.121   1.422   3.389  1.0054  1.7260 -1.6433
 4224SOL    HW213572   5.219   1.303   3.443 -0.0975  1.9995  1.1102
 4225SOL     OW13573   5.998   0.776   5.711 -0.0992 -0.0088  0.2348
 4225SOL    HW113574   5.952   0.801   5.626 -0.6212 -0.1694  0.4655
 4225SOL    HW213575   5.987   0.849   5.778 -0.7844 -0.4203  0.5827
 4226SOL     OW13576   2.488   6.949   2.984 -0.7416  0.5691 -0.2817
 4226SOL    HW113577   2.557   6.887   2.945  0.5987 -0.1126  2.8342
 4226SOL    HW213578   2.398   6.927   2.947  0.2865 -0.4962 -2.2821
 4227SOL     OW13579   3.142   4.663   0.906  0.0940  0.3881 -0.2358
 4227SOL    HW113580   3.153   4.568   0.877  0.3842  0.8249 -1.6629
 4227SOL    HW213581   3.082   4.667   0.985 -2.5788 -0.7613 -2.0517
 4228SOL     OW13582   6.823   4.018   2.121  0.8157  0.1271 -0.2908
 4228SOL    HW113583   6.779   4.012   2.031  1.0369  1.2513 -0.4876
 4228SOL    HW213584   6.776   4.087   2.176 -0.2855 -1.5897  1.0429
 4229SOL     OW13585   4.020   5.024   6.622 -0.1187 -0.5662  0.3897
 4229SOL    HW113586   4.099   5.086   6.623 -0.7963  0.3174  0.3783
 4229SOL    HW213587   4.008   4.985   6.713  1.0190 -1.6299  0.1199
 4230SOL     OW13588   4.360   1.442   4.743  0.3167 -0.1102 -0.1621
 4230SOL    HW113589   4.446   1.474   4.782  0.0069 -0.0758  0.4925
 4230SOL    HW213590   4.376   1.413   4.648  1.0052  0.0796 -0.1105
 4231SOL     OW13591   5.293   0.323   5.156  0.3989 -0.0956  0.1605
 4231SOL    HW113592   5.384   0.349   5.125  1.1112 -1.6755  0.8281
 4231SOL    HW213593   5.252   0.259   5.091 -0.2745  0.6700 -0.1770
 4232SOL     OW13594   1.593   5.896   0.223 -0.2467  0.1024 -0.4486
 4232SOL    HW113595   1.609   5.801   0.196 -0.4488  0.3202 -1.3754
 4232SOL    HW213596   1.497   5.920   0.208 -0.6804 -0.1200  1.6633
 4233SOL     OW13597   0.134   6.903   6.469  0.2073 -0.4263 -0.1589
 4233SOL    HW113598   0.122   6.928   6.373 -2.3234 -0.8734 -0.0449
 4233SOL    HW213599   0.093   6.974   6.527 -1.9226 -2.0044  0.3836
 4234SOL     OW13600   1.503   0.834   5.638  0.1063  0.6312 -0.3104
 4234SOL    HW113601   1.578   0.898   5.657  2.8642 -2.7975  1.5417
 4234SOL    HW213602   1.462   0.804   5.724  0.3358 -1.5496 -0.9017
 4235SOL     OW13603   6.214   3.186   4.351 -0.2744  0.3760 -1.0324
 4235SOL    HW113604   6.138   3.122   4.346 -1.7251  1.6745  2.1991
 4235SOL    HW213605   6.280   3.155   4.419  0.5168  0.8701 -1.5468
 4236SOL     OW13606   5.687   4.199   5.168  0.4253  0.2122  0.0643
 4236SOL    HW113607   5.782   4.222   5.190  0.3301  0.4017  0.2840
 4236SOL    HW213608   5.636   4.182   5.252  0.9909 -2.9421 -0.1112
 4237SOL     OW13609   0.287   5.339   2.103 -0.1150 -0.3956  0.1792
 4237SOL    HW113610   0.269   5.437   2.112  1.8226 -0.0656  1.1475
 4237SOL    HW213611   0.340   5.308   2.182 -0.5609 -2.1992 -0.1966
 4238SOL     OW13612   3.400   5.375   5.533 -0.3661 -0.1921 -0.0011
 4238SOL    HW113613   3.441   5.335   5.615 -1.7579 -1.3272  0.1667
 4238SOL    HW213614   3.449   5.460   5.510  2.7219 -1.9113 -0.4056
 4239SOL     OW13615   0.127   6.438   4.626  0.3901  0.0916 -0.2247
 4239SOL    HW113616   0.097   6.532   4.638  0.4250 -0.0448  1.0967
 4239SOL    HW213617   0.052   6.383   4.590 -0.2707  0.2168  0.9199
 4240SOL     OW13618   2.272   6.302   1.560  0.5991 -0.6502  1.1954
 4240SOL    HW113619   2.334   6.257   1.496  0.8802 -0.1084  1.0850
 4240SOL    HW213620   2.325   6.345   1.633  0.7653  3.2281 -0.9499
 4241SOL     OW13621   5.676   6.977   0.860 -0.5308  0.0692  0.2499
 4241SOL    HW113622   5.656   6.968   0.958 -0.2814  0.2189  0.3154
 4241SOL    HW213623   5.756   7.036   0.848  0.0623 -0.7618  0.0180
 4242SOL     OW13624   1.714   0.114   2.784  0.0898 -0.4099 -0.1008
 4242SOL    HW113625   1.698   0.162   2.697 -0.1922 -1.5883 -0.7275
 4242SOL    HW213626   1.652   0.149   2.854 -0.3562 -0.1095 -0.6391
 4243SOL     OW13627   1.021   1.694   2.941 -0.2749 -0.5500  0.1780
 4243SOL    HW113628   1.039   1.727   3.034 -0.5544 -2.7450  1.0871
 4243SOL    HW213629   1.107   1.664   2.900 -0.4480 -1.9765  0.7750
 4244SOL     OW13630   5.004   6.341   2.282 -0.1952 -0.8729  0.3122
 4244SOL    HW113631   4.994   6.351   2.183 -1.9978 -0.7953  0.4671
 4244SOL    HW213632   4.938   6.400   2.328  1.0390 -0.4410  1.6025
 4245SOL     OW13633   6.477   1.804   6.688  0.7205 -0.1408 -0.5438
 4245SOL    HW113634   6.430   1.880   6.732 -0.0096 -0.2229 -1.1724
 4245SOL    HW213635   6.420   1.722   6.692  1.3934 -0.5974 -0.0963
 4246SOL     OW13636   6.057   2.614   2.107 -0.0175 -0.2000  0.0806
 4246SOL    HW113637   6.154   2.632   2.123 -0.0085 -0.6012  0.5001
 4246SOL    HW213638   6.008   2.700   2.101  0.4950  0.0288 -0.9854
 4247SOL     OW13639   1.839   5.420   6.884 -0.2919  0.2155  0.0001
 4247SOL    HW113640   1.906   5.363   6.932 -0.5449  0.0277  0.1317
 4247SOL    HW213641   1.861   5.517   6.900 -0.3863  0.1553  0.5144
 4248SOL     OW13642   2.780   2.111   2.505 -0.4982 -0.1343  0.8893
 4248SOL    HW113643   2.795   2.189   2.443 -1.1181  0.0819  1.0129
 4248SOL    HW213644   2.816   2.133   2.595 -1.1417  0.2125  1.0645
 4249SOL     OW13645   6.858   1.678   5.146 -0.1100 -0.5357  0.0386
 4249SOL    HW113646   6.885   1.770   5.173 -0.5550 -0.1063 -0.9200
 4249SOL    HW213647   6.829   1.626   5.227  0.3539  0.0861  0.6112
 4250SOL     OW13648   6.940   0.213   5.547 -0.3649 -0.6572 -0.1859
 4250SOL    HW113649   6.900   0.163   5.470 -2.8515  1.0079 -0.1068
 4250SOL    HW213650   6.877   0.209   5.625  0.0687  1.2321  0.3167
 4251SOL     OW13651   5.623   2.229   0.685  0.1087 -0.4852  0.7377
 4251SOL    HW113652   5.625   2.323   0.720 -1.1930 -0.2897  0.3519
 4251SOL    HW213653   5.692   2.219   0.614  1.0637 -0.1717  1.5904
 4252SOL     OW13654   5.724   5.849   0.867 -0.0848 -0.3399 -0.0987
 4252SOL    HW113655   5.713   5.822   0.963  1.0218 -0.7195 -0.0698
 4252SOL    HW213656   5.813   5.819   0.834 -0.8004 -1.0052 -1.5182
 4253SOL     OW13657   0.610   4.566   4.238 -0.4997 -0.0707  0.0314
 4253SOL    HW113658   0.515   4.550   4.212 -0.5862  0.1551  0.2026
 4253SOL    HW213659   0.659   4.479   4.242  0.1057  0.0165 -3.0488
 4254SOL     OW13660   1.759   4.384   0.360 -0.8263  0.0430  0.6399
 4254SOL    HW113661   1.697   4.371   0.437 -0.6467  1.1565  1.0020
 4254SOL    HW213662   1.776   4.482   0.349  1.5326 -0.2608  1.0968
 4255SOL     OW13663   6.637   3.037   3.577 -0.1159 -0.4488  0.0920
 4255SOL    HW113664   6.708   3.107   3.568  0.6410 -0.8596  2.1793
 4255SOL    HW213665   6.548   3.077   3.556  0.6843  0.0388 -2.7360
 4256SOL     OW13666   0.409   6.540   0.183 -0.0193 -0.5247  0.0919
 4256SOL    HW113667   0.365   6.560   0.271 -0.0428 -0.7694  0.1368
 4256SOL    HW213668   0.346   6.489   0.125 -1.2822  2.4929 -1.3840
 4257SOL     OW13669   4.817   0.704   2.062  0.4409  0.4002 -0.4781
 4257SOL    HW113670   4.753   0.690   1.987  0.7439 -3.0671 -0.2497
 4257SOL    HW213671   4.907   0.727   2.025  0.6225 -1.4369 -1.2599
 4258SOL     OW13672   3.619   0.362   1.365  0.2427 -0.5185  0.8341
 4258SOL    HW113673   3.604   0.421   1.444 -1.0551  0.3500 -0.0226
 4258SOL    HW213674   3.697   0.301   1.383  1.0100  0.7788  2.1245
 4259SOL     OW13675   1.448   6.242   1.560 -0.1793  0.3407  0.3415
 4259SOL    HW113676   1.523   6.199   1.510 -1.4388 -0.3795 -0.9986
 4259SOL    HW213677   1.480   6.267   1.652  1.2962 -1.1934  0.3044
 4260SOL     OW13678   2.847   0.706   4.328  0.6420 -0.1596  0.8603
 4260SOL    HW113679   2.804   0.659   4.406 -0.1667 -0.4074  0.2827
 4260SOL    HW213680   2.775   0.744   4.269  1.2261 -0.3995 -0.0221
 4261SOL     OW13681   0.848   5.423   3.770 -0.1662 -0.4072  0.5216
 4261SOL    HW113682   0.751   5.398   3.765 -0.0419 -0.7996 -0.0061
 4261SOL    HW213683   0.901   5.364   3.709  0.4184 -0.2491  0.8663
 4262SOL     OW13684   0.634   2.382   4.269 -0.3414  0.0979 -0.0304
 4262SOL    HW113685   0.644   2.298   4.322  2.2249 -0.2213 -0.8883
 4262SOL    HW213686   0.540   2.417   4.279 -0.6390 -1.2274  2.7095
 4263SOL     OW13687   3.838   0.650   3.230 -0.0741 -0.7925  0.6535
 4263SOL    HW113688   3.740   0.642   3.249 -0.4526  1.2904 -0.0770
 4263SOL    HW213689   3.876   0.560   3.210 -2.0452 -1.5328 -0.0061
 4264SOL     OW13690   6.139   0.062   4.869 -0.3573  0.2414 -0.8464
 4264SOL    HW113691   6.080  -0.018   4.856 -0.7378  0.2553  0.6195
 4264SOL    HW213692   6.235   0.034   4.863 -0.4385  0.3083 -3.7736
 4265SOL     OW13693   3.743   1.046   6.315  0.6144  0.0410 -0.1423
 4265SOL    HW113694   3.721   0.982   6.241 -0.3075 -2.4013  2.0791
 4265SOL    HW213695   3.676   1.120   6.317 -0.5646 -0.9781 -0.5666
 4266SOL     OW13696   2.741   0.361   6.733 -0.3910  0.2148  0.2317
 4266SOL    HW113697   2.713   0.367   6.637 -1.2407  2.6779  0.5473
 4266SOL    HW213698   2.698   0.282   6.776  0.5823 -1.3667 -1.5452
 4267SOL     OW13699   2.547   5.575   4.914 -0.1941 -0.3153 -0.7153
 4267SOL    HW113700   2.638   5.591   4.953 -1.2148  0.2805  1.6087
 4267SOL    HW213701   2.531   5.477   4.905 -0.5985 -0.6333  2.3681
 4268SOL     OW13702   2.218   6.663   0.557 -0.3961  0.0640 -0.1751
 4268SOL    HW113703   2.247   6.621   0.643  0.8462  1.2861  0.0319
 4268SOL    HW213704   2.173   6.594   0.500  2.4787 -1.8689 -0.2971
 4269SOL     OW13705   3.422   6.790   4.397 -0.2230 -0.5987  0.4473
 4269SOL    HW113706   3.391   6.873   4.350 -2.1807 -2.4677 -1.8336
 4269SOL    HW213707   3.521   6.786   4.395 -0.1355  0.9889 -0.7262
 4270SOL     OW13708   3.855   2.635   0.678  0.5276  0.3104  0.1688
 4270SOL    HW113709   3.789   2.560   0.678  0.7475  0.0849 -1.4482
 4270SOL    HW213710   3.807   2.722   0.668  0.3575  0.2915  0.8040
 4271SOL     OW13711   0.080   0.794   1.265  0.0208 -0.0954  0.4044
 4271SOL    HW113712   0.006   0.734   1.235  0.1105  0.5453 -1.1856
 4271SOL    HW213713   0.153   0.739   1.306 -0.6544 -0.8811  0.5823
 4272SOL     OW13714   1.147   2.978   5.245 -0.2547 -0.1370 -0.5160
 4272SOL    HW113715   1.050   2.966   5.267 -0.1053 -0.4002  0.0137
 4272SOL    HW213716   1.159   2.978   5.145 -0.7887 -0.1645 -0.5826
 4273SOL     OW13717   5.699   0.256   4.821  0.3297  0.4628  0.2175
 4273SOL    HW113718   5.669   0.162   4.839  0.1896  0.2989 -0.7826
 4273SOL    HW213719   5.743   0.293   4.902 -0.8695  0.0322  1.0920
 4274SOL     OW13720   1.180   6.202   2.958 -0.5753  0.0862  0.5468
 4274SOL    HW113721   1.121   6.279   2.935 -0.1356  0.4388  0.5975
 4274SOL    HW213722   1.149   6.160   3.043 -0.9009  0.1169  0.4450
 4275SOL     OW13723   0.497   2.473   5.151 -0.4275  0.5157  0.2715
 4275SOL    HW113724   0.580   2.420   5.168 -1.7121 -1.9226 -0.5522
 4275SOL    HW213725   0.521   2.558   5.105  1.5594 -0.6287 -0.9657
 4276SOL     OW13726   4.664   6.734   4.589  0.5298  0.0576  0.2566
 4276SOL    HW113727   4.573   6.707   4.557  1.3624 -0.8289 -1.4577
 4276SOL    HW213728   4.678   6.700   4.682 -1.0588  0.6393  0.7389
 4277SOL     OW13729   6.750   3.537   3.376 -0.5362 -0.2816 -0.2695
 4277SOL    HW113730   6.755   3.557   3.474 -0.8367  0.8782 -0.4803
 4277SOL    HW213731   6.670   3.583   3.336 -0.9542 -1.4965 -0.8905
 4278SOL     OW13732   0.083   6.006   1.747  0.2971 -0.4999 -0.6754
 4278SOL    HW113733   0.083   6.033   1.650  0.9183 -1.9066 -1.1024
 4278SOL    HW213734   0.171   6.031   1.788  0.4394 -0.8355 -0.7693
 4279SOL     OW13735   1.893   0.761   2.165 -0.2138 -0.1977  0.3133
 4279SOL    HW113736   1.798   0.730   2.166 -0.7518  1.3593  0.4206
 4279SOL    HW213737   1.899   0.850   2.119  0.9065  0.5873  1.8842
 4280SOL     OW13738   6.448   5.740   4.967  0.8623 -0.7588 -0.1896
 4280SOL    HW113739   6.385   5.814   4.991  0.3752 -0.7885 -1.2875
 4280SOL    HW213740   6.472   5.748   4.870  2.3788 -0.8846  0.1496
 4281SOL     OW13741   5.296   5.251   4.564  0.1951  0.2903  0.7881
 4281SOL    HW113742   5.259   5.335   4.526  1.2812  0.7751  0.7569
 4281SOL    HW213743   5.286   5.177   4.497 -2.4037 -0.0747  1.5053
 4282SOL     OW13744   3.999   4.854   1.160  0.1645  0.1320  0.1662
 4282SOL    HW113745   3.982   4.849   1.061 -0.2237 -0.2919  0.2495
 4282SOL    HW213746   3.931   4.914   1.203  0.8410  0.9880  0.0684
 4283SOL     OW13747   1.512   1.278   3.353  0.1574 -0.1414 -0.0766
 4283SOL    HW113748   1.568   1.359   3.371 -0.5248  0.5561 -1.0108
 4283SOL    HW213749   1.438   1.274   3.420  1.5425 -1.3421  1.4837
 4284SOL     OW13750   2.495   5.944   2.054  0.3267 -0.2406 -0.6232
 4284SOL    HW113751   2.558   5.966   1.980 -0.1032 -1.6402 -1.4289
 4284SOL    HW213752   2.404   5.927   2.017 -0.0318 -0.3775  0.2970
 4285SOL     OW13753   2.325   1.164   5.908 -0.6856  0.0138  0.2926
 4285SOL    HW113754   2.382   1.246   5.901 -1.2820  0.6122  1.8826
 4285SOL    HW213755   2.243   1.176   5.852 -0.8557  0.6011  0.6533
 4286SOL     OW13756   6.988   0.074   6.917 -0.4642 -0.1752 -0.7289
 4286SOL    HW113757   6.973   0.005   6.988 -0.4324 -1.1898 -1.6772
 4286SOL    HW213758   7.086   0.087   6.904 -0.4704  0.6114 -0.0321
 4287SOL     OW13759   4.556   0.920   6.401 -0.3879  0.2663  0.5881
 4287SOL    HW113760   4.492   0.897   6.474 -0.6734 -0.9069 -0.0144
 4287SOL    HW213761   4.545   0.856   6.325  1.2533  0.2506  0.3190
 4288SOL     OW13762   6.854   6.440   3.119  0.7711 -0.5083  0.8684
 4288SOL    HW113763   6.828   6.483   3.033 -3.8536 -0.9984  1.7261
 4288SOL    HW213764   6.934   6.486   3.157  0.2763  2.6897 -1.5409
 4289SOL     OW13765   2.017   2.389   5.379 -0.1238  0.5120  0.2471
 4289SOL    HW113766   1.925   2.428   5.378 -0.1752  0.4898  1.6771
 4289SOL    HW213767   2.011   2.290   5.361 -0.4471  0.4156  0.8467
 4290SOL     OW13768   6.580   6.324   5.423 -0.1415 -0.4379 -0.0117
 4290SOL    HW113769   6.630   6.381   5.358 -0.1490  0.6125  0.8869
 4290SOL    HW213770   6.640   6.251   5.456  0.1548 -0.4004 -0.4504
 4291SOL     OW13771   5.051   5.481   6.405  0.0735 -0.5848 -0.4159
 4291SOL    HW113772   5.143   5.492   6.365 -0.1915  0.2395 -0.8325
 4291SOL    HW213773   5.013   5.393   6.378  0.6782 -0.8597 -0.3813
 4292SOL     OW13774   5.586   4.752   6.692 -0.1844  0.8555 -0.1850
 4292SOL    HW113775   5.678   4.790   6.703  0.4556 -1.0951  1.9445
 4292SOL    HW213776   5.582   4.700   6.607  0.6214  1.1568 -0.4183
 4293SOL     OW13777   4.124   2.872   0.071 -0.6215  0.1122 -0.0356
 4293SOL    HW113778   4.033   2.832   0.079 -0.8171 -0.1005 -2.4456
 4293SOL    HW213779   4.191   2.811   0.114 -1.5156 -0.0500  1.1798
 4294SOL     OW13780   2.229   1.551   6.073  0.1314  0.0721  0.3168
 4294SOL    HW113781   2.255   1.597   6.157  1.2799  0.0608 -0.0229
 4294SOL    HW213782   2.232   1.616   5.997  0.2483 -0.1919  0.0935
 4295SOL     OW13783   4.282   0.203   3.427 -0.0596  0.5963  0.0831
 4295SOL    HW113784   4.248   0.296   3.413  0.6783  0.5124 -3.2110
 4295SOL    HW213785   4.219   0.138   3.385  1.2806 -0.0004 -1.1186
 4296SOL     OW13786   4.007   1.353   1.368  0.3524 -0.3785  1.0878
 4296SOL    HW113787   4.056   1.313   1.291  0.3681  0.1406  0.8246
 4296SOL    HW213788   3.925   1.300   1.388 -1.1244  0.9995 -1.0093
 4297SOL     OW13789   0.508   5.045   2.720  0.2739  0.0924  0.3152
 4297SOL    HW113790   0.514   5.038   2.820  0.5061 -0.2434  0.2781
 4297SOL    HW213791   0.573   4.983   2.678 -0.7167 -0.7244 -0.0622
 4298SOL     OW13792   3.102   6.477   2.439  0.5091  0.2277  0.2118
 4298SOL    HW113793   3.181   6.431   2.399  1.4023  1.7484  0.1367
 4298SOL    HW213794   3.032   6.410   2.461  0.7770 -0.8916 -2.0621
 4299SOL     OW13795   0.380   2.519   0.551  0.0799  0.2394  0.5469
 4299SOL    HW113796   0.428   2.507   0.465 -1.8741  0.6629 -0.6717
 4299SOL    HW213797   0.316   2.444   0.565 -1.0175  1.1542  0.6275
 4300SOL     OW13798   2.570   1.117   0.348  0.0349 -0.2382 -0.1130
 4300SOL    HW113799   2.595   1.119   0.251  0.4463  1.0595 -0.0025
 4300SOL    HW213800   2.482   1.071   0.359 -0.8797  1.1312 -1.3342
 4301SOL     OW13801   3.943   6.368   1.815  0.1349 -0.5866  0.2925
 4301SOL    HW113802   3.956   6.270   1.802 -0.2208 -0.5370 -0.4953
 4301SOL    HW213803   3.935   6.413   1.725  0.1750  0.1450  0.6454
 4302SOL     OW13804   6.191   0.940   6.682  0.4725 -0.4950 -0.1398
 4302SOL    HW113805   6.171   0.999   6.604  1.6417 -0.1831 -0.2292
 4302SOL    HW213806   6.285   0.906   6.674  0.3716 -1.0153  0.7844
 4303SOL     OW13807   1.538   4.015   2.421 -0.3863 -0.0766 -0.1859
 4303SOL    HW113808   1.460   3.970   2.378 -2.2286  2.2632  0.4910
 4303SOL    HW213809   1.620   4.000   2.366 -1.6047 -1.3575 -1.7412
 4304SOL     OW13810   3.016   3.921   2.973  0.6058 -0.1845 -0.1019
 4304SOL    HW113811   3.091   3.857   2.991  1.2726  0.3679 -0.8306
 4304SOL    HW213812   2.930   3.870   2.965  0.7616 -0.7575  1.4618
 4305SOL     OW13813   6.978   6.269   4.509  0.7955 -0.1438 -0.2441
 4305SOL    HW113814   7.058   6.268   4.449  2.4601 -1.4718  1.8450
 4305SOL    HW213815   6.964   6.178   4.548  0.9604  1.0103  2.7988
 4306SOL     OW13816   4.136   4.180   5.913  0.0515 -0.0924  0.6187
 4306SOL    HW113817   4.214   4.122   5.893  0.2447  0.0580  0.9396
 4306SOL    HW213818   4.054   4.124   5.923 -0.3670 -0.1069 -1.9922
 4307SOL     OW13819   4.793   2.805   5.102  0.1336 -0.0565 -0.2218
 4307SOL    HW113820   4.834   2.775   5.016  0.1100  0.3340 -0.3695
 4307SOL    HW213821   4.864   2.841   5.162  0.1662 -0.4305 -0.0302
 4308SOL     OW13822   4.048   6.463   0.465 -0.0408  0.4480 -0.6511
 4308SOL    HW113823   4.078   6.386   0.408  2.1174  1.5612 -1.1370
 4308SOL    HW213824   4.092   6.456   0.554 -2.7348 -0.8132  0.7082
 4309SOL     OW13825   0.968   3.980   0.986  0.3449 -0.0178 -0.2929
 4309SOL    HW113826   0.972   3.989   0.887 -0.3039 -1.6307 -0.4902
 4309SOL    HW213827   0.874   3.988   1.017  0.3374 -1.0900  0.0035
 4310SOL     OW13828   1.293   2.837   1.322  0.3417  0.1567  0.0227
 4310SOL    HW113829   1.242   2.914   1.284  0.7309  0.3971 -0.0180
 4310SOL    HW213830   1.277   2.756   1.267 -1.3625 -0.2090  0.9912
 4311SOL     OW13831   6.456   6.737   2.543  0.4855  0.3667  0.3007
 4311SOL    HW113832   6.403   6.812   2.584 -0.1816 -0.1888  0.4719
 4311SOL    HW213833   6.506   6.689   2.615 -0.9277 -0.8028  0.5556
 4312SOL     OW13834   1.158   6.765   2.687  0.0794 -0.4221 -0.0593
 4312SOL    HW113835   1.171   6.852   2.639  0.4246 -0.0712  0.6554
 4312SOL    HW213836   1.191   6.774   2.781 -0.2231 -1.2191  0.1272
 4313SOL     OW13837   3.812   1.469   0.585  0.2525  0.6355  0.5803
 4313SOL    HW113838   3.750   1.391   0.597  1.1409 -0.2209 -0.2726
 4313SOL    HW213839   3.758   1.550   0.563 -0.7662  0.4963  2.3829
 4314SOL     OW13840   0.440   2.414   3.528  0.4918 -0.5714  0.1517
 4314SOL    HW113841   0.486   2.486   3.579 -0.7060 -1.0638  2.0306
 4314SOL    HW213842   0.507   2.362   3.476  1.7470  0.1773  0.9746
 4315SOL     OW13843   2.337   2.788   4.584  0.4927 -0.0442 -0.5793
 4315SOL    HW113844   2.396   2.715   4.550  0.0263 -2.1241  2.6039
 4315SOL    HW213845   2.337   2.786   4.684 -4.2658  0.3477 -0.3450
 4316SOL     OW13846   4.721   5.445   2.861  0.5695  0.0834  0.1095
 4316SOL    HW113847   4.769   5.495   2.934  0.3832 -0.5509  0.6690
 4316SOL    HW213848   4.714   5.349   2.885  1.0220 -0.2452 -1.0225
 4317SOL     OW13849   3.408   0.004   3.808  0.0409  0.1536 -0.0952
 4317SOL    HW113850   3.482  -0.055   3.841  0.3375 -0.5328 -1.8527
 4317SOL    HW213851   3.447   0.087   3.769 -0.2121  0.3844  0.1398
 4318SOL     OW13852   1.199   0.325   5.461  0.6461 -0.3075  0.1121
 4318SOL    HW113853   1.262   0.247   5.463  1.3772  0.1672 -2.0661
 4318SOL    HW213854   1.245   0.407   5.495  0.2290 -0.5471  1.3208
 4319SOL     OW13855   1.228   1.193   1.420  0.1095  0.4224  0.0435
 4319SOL    HW113856   1.257   1.270   1.362 -0.3849 -0.4890 -1.4641
 4319SOL    HW213857   1.129   1.182   1.413  0.2001 -0.4793  0.0998
 4320SOL     OW13858   5.109   5.895   3.056  0.2713 -0.1071  0.5533
 4320SOL    HW113859   5.168   5.962   3.012  1.0065 -1.4328 -0.5612
 4320SOL    HW213860   5.165   5.831   3.109 -0.2588 -0.7880  0.3056
 4321SOL     OW13861   6.680   5.346   3.067 -0.7221  0.4237  0.6409
 4321SOL    HW113862   6.698   5.435   3.025  0.5166 -0.2939 -0.4108
 4321SOL    HW213863   6.664   5.358   3.165 -2.5677  2.0158  0.2206
 4322SOL     OW13864   6.830   2.508   4.868 -0.1678 -0.2616  0.2399
 4322SOL    HW113865   6.927   2.505   4.846 -0.4668  0.6039 -1.4462
 4322SOL    HW213866   6.814   2.574   4.942  0.3152  1.6016 -1.2292
 4323SOL     OW13867   3.820   4.578   5.916  0.2929  0.2107 -0.8363
 4323SOL    HW113868   3.737   4.611   5.960  0.9269  1.8411 -0.8117
 4323SOL    HW213869   3.870   4.518   5.978 -0.4392 -0.1124 -0.5510
 4324SOL     OW13870   4.491   5.315   5.569  0.1677 -0.2314 -0.3468
 4324SOL    HW113871   4.522   5.220   5.559 -0.1729 -0.3967  0.1336
 4324SOL    HW213872   4.402   5.326   5.524 -1.1826 -0.8782  1.9989
 4325SOL     OW13873   1.076   0.691   1.843 -0.0400 -0.9979 -0.0649
 4325SOL    HW113874   1.136   0.644   1.778  0.3441 -1.9779  0.9482
 4325SOL    HW213875   1.040   0.774   1.802  2.0783 -0.3266 -0.6850
 4326SOL     OW13876   4.598   4.021   1.699 -0.0505  0.0612 -0.8844
 4326SOL    HW113877   4.529   3.954   1.673 -0.3362  0.1488 -0.3481
 4326SOL    HW213878   4.556   4.096   1.750  0.5348 -0.2155  0.0368
 4327SOL     OW13879   3.293   5.150   5.131 -0.6977 -0.2771  0.1338
 4327SOL    HW113880   3.381   5.196   5.119 -0.0229 -1.8465 -1.4068
 4327SOL    HW213881   3.272   5.143   5.228  1.4203 -0.7939  0.6153
 4328SOL     OW13882   5.382   6.163   5.920  0.6519 -0.0460 -0.3671
 4328SOL    HW113883   5.396   6.070   5.888 -0.7333 -0.4682  0.1873
 4328SOL    HW213884   5.304   6.166   5.983  0.7765  1.4513 -0.2375
 4329SOL     OW13885   2.054   3.234   6.452 -0.0887  0.1132 -0.5280
 4329SOL    HW113886   2.057   3.158   6.388 -0.0496 -1.5579  1.3573
 4329SOL    HW213887   2.139   3.287   6.445 -0.0843 -0.0240 -1.8057
 4330SOL     OW13888   1.558   4.807   4.869  0.1045 -0.7995  0.3187
 4330SOL    HW113889   1.571   4.732   4.934 -0.4803  1.2898  3.0509
 4330SOL    HW213890   1.586   4.893   4.912 -1.8566  0.9316 -1.6329
 4331SOL     OW13891   0.166   0.238   1.434 -0.6652 -0.0467  0.5912
 4331SOL    HW113892   0.227   0.179   1.382 -2.6165 -3.1969  1.5581
 4331SOL    HW213893   0.086   0.260   1.377 -2.0113 -2.1268  1.5412
 4332SOL     OW13894   4.785   4.640   2.810 -0.5167  0.5894 -0.8110
 4332SOL    HW113895   4.751   4.546   2.814 -1.5043  0.9074 -1.3587
 4332SOL    HW213896   4.823   4.657   2.720  1.0773  0.2662 -0.2330
 4333SOL     OW13897   4.273   2.329   4.777  0.2900  0.3146  0.0621
 4333SOL    HW113898   4.194   2.354   4.721 -0.1553 -1.0823  0.0146
 4333SOL    HW213899   4.263   2.367   4.869 -1.1086 -0.9021  0.4547
 4334SOL     OW13900   2.308   1.597   1.809  0.6484 -0.2115 -0.2251
 4334SOL    HW113901   2.320   1.513   1.757  1.2543 -0.1618 -0.1693
 4334SOL    HW213902   2.392   1.650   1.808  0.7373 -0.2933  0.9472
 4335SOL     OW13903   3.300   3.837   1.375  0.2853 -0.2189  0.1259
 4335SOL    HW113904   3.360   3.773   1.423  0.0176 -0.7514 -0.2372
 4335SOL    HW213905   3.338   3.929   1.380  0.8888 -0.4756  0.2993
 4336SOL     OW13906   3.258   4.665   6.394 -0.0825 -0.2017 -0.1729
 4336SOL    HW113907   3.222   4.658   6.487 -0.3605  0.7819 -0.1918
 4336SOL    HW213908   3.357   4.682   6.398  0.0190 -0.7796 -0.0798
 4337SOL     OW13909   0.971   0.157   0.526 -0.4798  0.1990  0.3306
 4337SOL    HW113910   0.872   0.158   0.537 -0.2383 -0.5100  4.4559
 4337SOL    HW213911   1.009   0.243   0.560  0.3941 -0.2135  0.4181
 4338SOL     OW13912   0.419   5.361   0.445 -0.2831  0.0735 -0.4786
 4338SOL    HW113913   0.334   5.412   0.457  1.0247  1.9337  1.8188
 4338SOL    HW213914   0.490   5.422   0.410  0.1484 -1.4585 -2.4384
 4339SOL     OW13915   1.636   3.342   4.491  0.2809 -0.5808 -0.5592
 4339SOL    HW113916   1.549   3.392   4.500  1.3041  0.9880  1.6079
 4339SOL    HW213917   1.689   3.352   4.575  1.3535 -3.9744 -0.6807
 4340SOL     OW13918   5.785   4.203   2.311 -0.3244  0.2820 -0.8388
 4340SOL    HW113919   5.761   4.227   2.218  0.5008  3.9785 -0.2707
 4340SOL    HW213920   5.795   4.286   2.366  0.8093 -1.6310  2.1669
 4341SOL     OW13921   6.174   3.823   5.787 -0.8716 -0.7420 -0.1919
 4341SOL    HW113922   6.122   3.751   5.741  0.8895 -2.1169 -0.1372
 4341SOL    HW213923   6.262   3.835   5.740 -0.0867 -0.4226  1.3101
 4342SOL     OW13924   4.922   4.252   2.997 -0.3030 -0.2476  0.1320
 4342SOL    HW113925   5.010   4.300   2.993 -0.9216  1.0458  1.2964
 4342SOL    HW213926   4.851   4.309   2.956 -0.4645 -1.7377 -1.8014
 4343SOL     OW13927   2.215   5.824   5.761 -0.4233  0.2819 -0.3655
 4343SOL    HW113928   2.129   5.856   5.722 -0.8545 -1.4907 -0.9672
 4343SOL    HW213929   2.275   5.792   5.687  0.3176  0.4559  0.1435
 4344SOL     OW13930   1.888   1.644   3.812  0.0842  0.3923  0.0049
 4344SOL    HW113931   1.930   1.704   3.881 -0.3037  1.0503 -0.3208
 4344SOL    HW213932   1.960   1.603   3.756  0.3185  1.3588 -0.4265
 4345SOL     OW13933   3.396   2.859   3.579  0.0611 -0.0036 -0.1064
 4345SOL    HW113934   3.433   2.860   3.672  1.4430  3.0975 -0.5841
 4345SOL    HW213935   3.297   2.876   3.582  0.1310  0.2699  0.8040
 4346SOL     OW13936   2.444   0.775   1.364 -0.2718  0.6960 -0.2107
 4346SOL    HW113937   2.448   0.677   1.382 -0.3824  0.9430  1.3320
 4346SOL    HW213938   2.519   0.802   1.305  0.3628 -0.1574  0.1932
 4347SOL     OW13939   6.455   4.812   3.421 -0.1433  0.2559 -0.0478
 4347SOL    HW113940   6.426   4.718   3.402  1.2720  0.3151 -3.2555
 4347SOL    HW213941   6.548   4.812   3.455 -0.2693  0.4864  0.2985
 4348SOL     OW13942   6.313   3.652   4.451 -0.1053 -0.3614 -0.3394
 4348SOL    HW113943   6.277   3.564   4.482 -0.0814 -0.5268 -0.7766
 4348SOL    HW213944   6.244   3.723   4.463 -0.4401 -0.6042 -0.8114
 4349SOL     OW13945   5.824   4.392   2.674 -0.6700 -0.2997  0.1353
 4349SOL    HW113946   5.743   4.337   2.696 -1.2292 -0.0455 -1.2116
 4349SOL    HW213947   5.905   4.334   2.671 -1.1093 -0.8873 -0.3854
 4350SOL     OW13948   0.078   2.113   5.828  0.4891 -0.0323 -0.4233
 4350SOL    HW113949   0.174   2.085   5.825  0.7642  0.7281 -4.3963
 4350SOL    HW213950   0.072   2.212   5.845  0.5112  0.1048 -1.1755
 4351SOL     OW13951   1.089   5.229   2.507 -0.6661 -0.1335 -0.4204
 4351SOL    HW113952   1.116   5.188   2.420 -0.6379 -0.9755 -0.0278
 4351SOL    HW213953   1.035   5.311   2.490 -0.5865 -0.2396 -1.2311
 4352SOL     OW13954   0.081   4.511   1.337 -0.0001  0.6232 -0.0343
 4352SOL    HW113955  -0.018   4.516   1.334  0.0485  1.7823 -2.5933
 4352SOL    HW213956   0.113   4.450   1.263  1.2012  0.7789  0.3401
 4353SOL     OW13957   2.762   2.687   6.809 -0.3374  0.1376  0.1875
 4353SOL    HW113958   2.733   2.724   6.720  3.0431  2.1774 -0.2369
 4353SOL    HW213959   2.712   2.733   6.882 -1.0954  0.5428 -0.5655
 4354SOL     OW13960   6.473   2.123   6.553 -0.3464  0.2638  0.4310
 4354SOL    HW113961   6.444   2.037   6.511 -1.7944 -0.7946  3.3149
 4354SOL    HW213962   6.552   2.106   6.611  0.4549  1.3075 -0.3087
 4355SOL     OW13963   1.426   5.572   3.714 -0.3093 -0.3923  0.5711
 4355SOL    HW113964   1.373   5.637   3.659 -0.3017 -1.0914 -0.2674
 4355SOL    HW213965   1.518   5.608   3.730 -0.6765  0.3411  1.1365
 4356SOL     OW13966   2.991   2.844   0.706 -0.7143 -0.5519 -0.5427
 4356SOL    HW113967   2.986   2.830   0.805 -1.6066  1.3572 -0.2749
 4356SOL    HW213968   3.031   2.763   0.663  0.5978 -1.0288  1.4631
 4357SOL     OW13969   0.350   3.905   1.286 -0.3732 -0.2197  1.1910
 4357SOL    HW113970   0.385   3.829   1.230  1.7344  0.8485  0.9429
 4357SOL    HW213971   0.422   3.937   1.347 -1.4703  1.0680  1.8573
 4358SOL     OW13972   6.434   6.845   6.338 -0.0877  0.1419 -0.3864
 4358SOL    HW113973   6.484   6.863   6.254  1.0534  0.3962  0.3211
 4358SOL    HW213974   6.339   6.821   6.317  0.6265 -1.6267 -1.8565
 4359SOL     OW13975   1.805   1.148   1.270 -0.2672  0.1133 -0.1218
 4359SOL    HW113976   1.896   1.121   1.237  0.5056  1.3408  0.9160
 4359SOL    HW213977   1.781   1.237   1.232 -1.2263 -0.3604 -0.6762
 4360SOL     OW13978   2.335   1.761   5.148  0.3050  0.5464 -0.8222
 4360SOL    HW113979   2.254   1.751   5.090 -2.2558  2.7054  2.0461
 4360SOL    HW213980   2.362   1.671   5.184 -2.4509 -0.0138  0.0731
 4361SOL     OW13981   2.396   1.368   1.698  0.0102  0.6652  0.0754
 4361SOL    HW113982   2.368   1.272   1.691  0.2577  0.7174 -2.3378
 4361SOL    HW213983   2.442   1.396   1.614 -1.9106  3.4894 -0.1603
 4362SOL     OW13984   5.733   4.216   5.826 -0.2081  0.0364  0.6225
 4362SOL    HW113985   5.685   4.164   5.897 -0.9896  0.0052  0.0830
 4362SOL    HW213986   5.756   4.307   5.861 -0.8712  0.1355  0.8226
 4363SOL     OW13987   5.429   1.847   0.218  0.1207  0.1414 -0.1492
 4363SOL    HW113988   5.507   1.796   0.181  0.1725  1.2225 -1.6268
 4363SOL    HW213989   5.386   1.899   0.145  1.7868  4.5102  1.6145
 4364SOL     OW13990   3.516   3.995   3.298 -0.2736  0.2224 -0.4235
 4364SOL    HW113991   3.598   4.036   3.260  0.7457 -2.2438 -1.0478
 4364SOL    HW213992   3.435   4.038   3.257  0.6676  1.8527 -0.6875
 4365SOL     OW13993   3.233   1.627   1.125  0.3902 -0.1404 -0.0444
 4365SOL    HW113994   3.184   1.541   1.135  1.1583 -0.4367  1.4601
 4365SOL    HW213995   3.177   1.702   1.161 -0.7688  0.2227 -2.4058
 4366SOL     OW13996   5.292   5.533   4.901  0.3070  0.1165 -0.5233
 4366SOL    HW113997   5.362   5.516   4.970 -1.3934  0.0840  1.2739
 4366SOL    HW213998   5.227   5.457   4.900 -1.2284  1.3723 -0.1856
 4367SOL     OW13999   3.301   6.347   2.239  0.4991  0.0032  0.1820
 4367SOL    HW114000   3.335   6.278   2.303 -0.3316  0.9065  1.6423
 4367SOL    HW214001   3.219   6.312   2.193  0.7055 -0.3911  0.1070
 4368SOL     OW14002   3.317   0.563   3.063  0.0157 -0.4123 -1.1450
 4368SOL    HW114003   3.273   0.507   2.993 -1.7878  0.1877 -0.5446
 4368SOL    HW214004   3.248   0.599   3.126  0.9639  2.9481 -1.8002
 4369SOL     OW14005   2.416   7.022   5.595  0.2143  0.4798 -0.7727
 4369SOL    HW114006   2.478   7.096   5.620 -1.6268  1.8139  0.0797
 4369SOL    HW214007   2.469   6.945   5.557  2.2672  1.8018 -0.7388
 4370SOL     OW14008   3.327   3.652   2.750  0.2251  0.4495 -0.2830
 4370SOL    HW114009   3.264   3.614   2.818  0.6388 -0.9578 -0.6485
 4370SOL    HW214010   3.403   3.697   2.796  0.4932 -0.4740  0.2114
 4371SOL     OW14011   1.830   2.778   0.621  0.9129  0.3486 -0.1776
 4371SOL    HW114012   1.875   2.853   0.669  0.7769  0.1184  0.3096
 4371SOL    HW214013   1.730   2.789   0.627  0.8327 -1.0363  1.7931
 4372SOL     OW14014   2.287   2.775   3.340  0.3586 -0.3623 -0.0774
 4372SOL    HW114015   2.382   2.747   3.330  0.3318  0.3327 -3.3504
 4372SOL    HW214016   2.229   2.695   3.350  1.0055 -1.0538 -1.5760
 4373SOL     OW14017   3.556   1.707   4.913  0.7289  0.0539  0.2106
 4373SOL    HW114018   3.610   1.638   4.865 -0.1677  0.6528 -1.7713
 4373SOL    HW214019   3.589   1.798   4.888  0.2741  0.3810  0.7908
 4374SOL     OW14020   0.236   2.560   6.962 -0.0234 -0.5836 -0.1972
 4374SOL    HW114021   0.157   2.504   6.988 -0.0757 -0.0170  0.9027
 4374SOL    HW214022   0.205   2.652   6.937  0.0994 -0.9096 -1.6690
 4375SOL     OW14023   3.253   6.147   1.449  0.3269  0.4389 -0.1216
 4375SOL    HW114024   3.291   6.055   1.460  0.0447  0.3210 -0.1371
 4375SOL    HW214025   3.170   6.142   1.394 -0.4787  0.5218  1.0465
 4376SOL     OW14026   0.226   2.433   1.851  0.2374  0.4469  0.2584
 4376SOL    HW114027   0.169   2.371   1.906 -0.2968 -0.5453 -1.3277
 4376SOL    HW214028   0.177   2.518   1.836 -0.9637 -0.4468 -1.2081
 4377SOL     OW14029   3.239   6.273   6.810  0.1450  0.1912  0.1743
 4377SOL    HW114030   3.279   6.202   6.868 -0.6390 -0.4702 -0.0752
 4377SOL    HW214031   3.191   6.340   6.867  1.7044  1.0709  0.4844
 4378SOL     OW14032   0.877   4.735   3.502 -0.0306 -0.0715 -0.8695
 4378SOL    HW114033   0.863   4.817   3.558  0.0180 -0.3626 -0.4219
 4378SOL    HW214034   0.957   4.685   3.537 -0.3850 -0.5916 -0.7993
 4379SOL     OW14035   2.647   0.999   3.956  0.4192  0.1202  0.3835
 4379SOL    HW114036   2.648   1.092   3.992  2.3208  0.9112 -1.5269
 4379SOL    HW214037   2.563   0.984   3.905  0.3108  0.9655  0.3022
 4380SOL     OW14038   2.950   3.672   5.961  0.1807 -0.2775  0.3792
 4380SOL    HW114039   3.036   3.719   5.940 -0.9147  2.2014  0.9789
 4380SOL    HW214040   2.890   3.675   5.882  0.7797 -2.5070 -0.2279
 4381SOL     OW14041   3.340   5.419   4.651  0.9459 -0.2726  0.1784
 4381SOL    HW114042   3.382   5.329   4.663  2.2339  0.3650  0.5995
 4381SOL    HW214043   3.325   5.435   4.554  0.2133 -1.1498  0.1306
 4382SOL     OW14044   6.222   4.428   6.845  0.5602 -0.0117 -0.1348
 4382SOL    HW114045   6.168   4.486   6.906 -0.9149  0.1530 -1.5024
 4382SOL    HW214046   6.232   4.337   6.885  1.0337  0.5401  1.0537
 4383SOL     OW14047   6.451   3.010   5.111  0.7550 -0.6731  0.1969
 4383SOL    HW114048   6.388   2.975   5.042  1.5792 -0.4257 -0.7066
 4383SOL    HW214049   6.511   2.936   5.141  1.4641 -0.4152 -0.5579
 4384SOL     OW14050   4.003   1.225   6.582  0.0430 -0.2515  0.0915
 4384SOL    HW114051   4.078   1.289   6.600  0.1617 -0.2224 -0.4735
 4384SOL    HW214052   3.915   1.273   6.591  0.0611 -0.4150  1.2730
 4385SOL     OW14053   6.981   2.125   3.673  0.1349  0.7640 -0.0082
 4385SOL    HW114054   7.068   2.084   3.704 -0.1273 -1.0061 -1.4519
 4385SOL    HW214055   6.994   2.167   3.584 -0.4523  0.6953 -0.1280
 4386SOL     OW14056   6.697   3.920   6.939  0.0490  0.2340 -0.4268
 4386SOL    HW114057   6.648   3.882   6.861  0.2573 -2.1393  0.5000
 4386SOL    HW214058   6.681   4.019   6.944 -0.2548  0.4092 -3.2123
 4387SOL     OW14059   0.995   3.134   0.915  0.6464 -0.0875 -0.0071
 4387SOL    HW114060   1.003   3.233   0.900 -0.1638 -0.0321 -0.1222
 4387SOL    HW214061   0.901   3.112   0.942  0.7536 -0.8593 -0.2473
 4388SOL     OW14062   4.585   0.478   0.235 -0.3447  0.0648  0.9470
 4388SOL    HW114063   4.558   0.412   0.306 -1.5055  0.3613  0.8089
 4388SOL    HW214064   4.545   0.568   0.257  0.2280  0.4320  0.5086
 4389SOL     OW14065   5.709   2.728   1.674  0.4790 -0.0801  0.2761
 4389SOL    HW114066   5.702   2.692   1.768  0.0454  0.0596  0.2963
 4389SOL    HW214067   5.618   2.735   1.634  0.2624  3.2061  1.0861
 4390SOL     OW14068   4.559   1.665   2.514 -0.1442  0.5305  0.0580
 4390SOL    HW114069   4.630   1.729   2.544  0.6121 -0.6130  0.7892
 4390SOL    HW214070   4.478   1.716   2.487  0.9319  1.8726 -0.7779
 4391SOL     OW14071   1.152   5.950   6.454 -0.1429  0.0345  0.2159
 4391SOL    HW114072   1.187   5.886   6.386 -0.1087  1.2379 -0.9474
 4391SOL    HW214073   1.060   5.923   6.482 -0.0507 -0.6207 -0.1135
 4392SOL     OW14074   5.688   2.500   6.119 -0.0942 -0.1061  0.2184
 4392SOL    HW114075   5.783   2.469   6.133  0.4972  1.0559 -0.9786
 4392SOL    HW214076   5.675   2.522   6.023 -1.3428  0.5665  0.5269
 4393SOL     OW14077   6.003   4.698   3.516 -0.4521  0.0926 -0.7920
 4393SOL    HW114078   5.909   4.730   3.511 -0.2860  0.9148  0.5989
 4393SOL    HW214079   6.064   4.776   3.532  0.2695 -0.6019 -0.0460
 4394SOL     OW14080   4.924   6.740   1.688  0.1236  0.6325  0.3137
 4394SOL    HW114081   4.836   6.693   1.689 -0.2265  1.2693  1.4392
 4394SOL    HW214082   4.944   6.770   1.595 -0.3634 -0.3891 -0.1363
 4395SOL     OW14083   4.337   0.504   6.747 -0.2879  0.2355  0.0444
 4395SOL    HW114084   4.428   0.493   6.707 -0.4424 -0.5787 -0.0946
 4395SOL    HW214085   4.295   0.415   6.760 -0.5760  0.5314  1.2732
 4396SOL     OW14086   1.739   1.598   5.089  0.2074  0.0938  0.2256
 4396SOL    HW114087   1.699   1.509   5.064 -1.2439  0.9566 -0.6682
 4396SOL    HW214088   1.694   1.632   5.172 -0.8836  1.0115 -0.7124
 4397SOL     OW14089   0.613   2.474   3.931  0.4233 -0.0188 -0.2759
 4397SOL    HW114090   0.690   2.490   3.992  0.5607  3.1289 -1.0937
 4397SOL    HW214091   0.619   2.382   3.892  2.0672 -0.9137  1.9421
 4398SOL     OW14092   1.168   4.815   3.925 -0.0096 -0.0130  0.3774
 4398SOL    HW114093   1.188   4.910   3.946 -1.5162  0.0697  1.5572
 4398SOL    HW214094   1.234   4.756   3.972 -0.3530  0.3726  1.3667
 4399SOL     OW14095   0.638   0.778   2.046 -0.0047 -0.3939  0.4751
 4399SOL    HW114096   0.669   0.873   2.042 -0.5902 -0.2327 -0.9426
 4399SOL    HW214097   0.711   0.718   2.013 -0.6340 -0.1398 -1.5080
 4400SOL     OW14098   1.941   5.940   4.419 -0.3309  0.4189  0.0114
 4400SOL    HW114099   1.933   5.986   4.330  0.1991  2.1804  0.8352
 4400SOL    HW214100   2.038   5.924   4.439 -0.4547 -0.0306  0.2537
 4401SOL     OW14101   5.744   0.628   4.161  0.1365  0.1184  0.2031
 4401SOL    HW114102   5.826   0.622   4.105 -0.4410 -0.0644 -0.6398
 4401SOL    HW214103   5.758   0.576   4.246  0.7571 -0.2164 -0.0982
 4402SOL     OW14104   0.782   4.395   4.397  0.2462  0.0393  0.5337
 4402SOL    HW114105   0.826   4.471   4.445  0.1826 -0.1527  0.9019
 4402SOL    HW214106   0.843   4.360   4.327 -0.0898  1.0431 -0.2884
 4403SOL     OW14107   7.016   5.507   2.307 -0.2931  0.4244  0.4012
 4403SOL    HW114108   6.947   5.463   2.249 -0.2669 -0.1253  0.7805
 4403SOL    HW214109   6.971   5.549   2.386 -0.3145  1.0597  0.0581
 4404SOL     OW14110   6.836   5.097   4.687 -0.0106 -0.2403 -0.7362
 4404SOL    HW114111   6.756   5.106   4.628  0.4882 -0.8709 -1.5287
 4404SOL    HW214112   6.889   5.017   4.659 -0.3338 -1.2309  1.2651
 4405SOL     OW14113   3.335   5.431   6.034 -0.2912 -0.3930 -0.1473
 4405SOL    HW114114   3.260   5.372   6.004 -0.4192  1.1887 -3.4342
 4405SOL    HW214115   3.318   5.462   6.128 -1.5357 -3.3319  0.7000
 4406SOL     OW14116   6.711   3.666   0.236  0.3357 -0.2948  0.2232
 4406SOL    HW114117   6.768   3.743   0.263  0.7166 -0.0957 -1.1244
 4406SOL    HW214118   6.627   3.666   0.292 -0.0663  1.5805 -0.3243
 4407SOL     OW14119   6.899   5.356   0.949 -0.4343  0.0904 -0.2397
 4407SOL    HW114120   6.853   5.406   1.022  1.6591  1.0121  0.5194
 4407SOL    HW214121   6.950   5.280   0.987 -1.0012 -0.7025 -1.0233
 4408SOL     OW14122   5.366   1.256   1.389  0.5922 -0.0114 -0.0181
 4408SOL    HW114123   5.367   1.290   1.295 -2.5726 -0.3801 -0.2669
 4408SOL    HW214124   5.443   1.194   1.402  1.8142  0.9810 -1.9609
 4409SOL     OW14125   2.548   0.845   1.033  0.2092 -0.0126 -0.0563
 4409SOL    HW114126   2.449   0.854   1.021  0.2048  0.9078  0.5700
 4409SOL    HW214127   2.586   0.789   0.959 -0.5747  0.8437 -1.1389
 4410SOL     OW14128   3.092   6.827   6.763 -0.2996  0.5743  0.5155
 4410SOL    HW114129   3.183   6.842   6.724 -0.0306  1.5548  1.4634
 4410SOL    HW214130   3.060   6.735   6.740  0.1505  0.8607 -1.3582
 4411SOL     OW14131   4.071   3.836   3.030  0.0541 -0.4642 -0.4853
 4411SOL    HW114132   4.099   3.795   3.117 -0.5615  0.4867  0.1781
 4411SOL    HW214133   4.151   3.853   2.974  0.4985 -0.6775  0.0750
 4412SOL     OW14134   3.172   1.754   2.489  0.6947 -0.0261 -0.1309
 4412SOL    HW114135   3.110   1.698   2.545  2.5732 -0.5223  1.5569
 4412SOL    HW214136   3.122   1.833   2.453 -1.5908 -1.7842 -1.1137
 4413SOL     OW14137   3.898   4.887   4.599  0.4487 -0.2803  0.1784
 4413SOL    HW114138   3.906   4.914   4.695 -0.3871  0.0971  0.1533
 4413SOL    HW214139   3.807   4.848   4.583 -0.2172  1.6258 -0.9270
 4414SOL     OW14140   3.722   4.883   3.362 -0.3254  0.0315 -0.3119
 4414SOL    HW114141   3.667   4.878   3.445 -0.9052  0.1752 -0.6861
 4414SOL    HW214142   3.753   4.978   3.348 -1.5702  0.3431 -1.1134
 4415SOL     OW14143   3.517   5.203   0.659 -0.0065 -0.3396  0.7961
 4415SOL    HW114144   3.433   5.210   0.714  0.7424 -1.6586  2.1782
 4415SOL    HW214145   3.501   5.244   0.569 -2.6167 -1.8035  0.4793
 4416SOL     OW14146   3.588   1.149   5.700 -0.0594 -0.0181  0.9353
 4416SOL    HW114147   3.524   1.115   5.632  0.0828 -0.2899  0.9350
 4416SOL    HW214148   3.648   1.218   5.659 -1.0345  1.0059  1.2041
 4417SOL     OW14149   0.463   5.460   2.918  0.4745 -0.1588 -0.0964
 4417SOL    HW114150   0.543   5.520   2.913  0.6864 -0.3535  0.7823
 4417SOL    HW214151   0.448   5.416   2.830  3.0047 -2.2666  0.4293
 4418SOL     OW14152   4.342   0.367   2.800 -0.1769  0.6636  0.2681
 4418SOL    HW114153   4.406   0.348   2.874  0.0687 -0.1844 -0.1459
 4418SOL    HW214154   4.258   0.406   2.838  0.0686  0.5432  0.9539
 4419SOL     OW14155   6.218   5.755   3.098 -0.7244  0.6296 -0.2424
 4419SOL    HW114156   6.139   5.712   3.055  0.4553 -1.4982 -0.4369
 4419SOL    HW214157   6.301   5.728   3.049  0.4661 -0.2050  2.1000
 4420SOL     OW14158   5.596   0.731   0.612 -0.5155  0.2572  0.3252
 4420SOL    HW114159   5.611   0.827   0.637  0.0429  0.4306 -0.6315
 4420SOL    HW214160   5.498   0.714   0.604 -0.5958  1.1801 -1.0371
 4421SOL     OW14161   0.688   2.299   3.682  0.3786 -0.4251  0.0838
 4421SOL    HW114162   0.702   2.306   3.583 -0.2788 -0.7602 -0.0328
 4421SOL    HW214163   0.777   2.284   3.727  0.7097 -0.0024 -0.4280
 4422SOL     OW14164   1.950   4.583   6.051 -0.1724 -0.4095 -0.1196
 4422SOL    HW114165   1.954   4.508   6.117  2.3825 -0.0859  0.2148
 4422SOL    HW214166   1.972   4.548   5.960 -1.7130 -0.5091 -0.4709
 4423SOL     OW14167   0.926   1.877   6.144 -0.0321 -0.5534 -0.5334
 4423SOL    HW114168   0.943   1.966   6.188  2.1620 -0.5097 -1.3607
 4423SOL    HW214169   0.913   1.891   6.046 -3.6651 -0.7912 -0.2243
 4424SOL     OW14170   6.776   6.322   3.542  0.0315  0.2282 -0.4262
 4424SOL    HW114171   6.813   6.302   3.633  1.2696 -1.5842 -1.2684
 4424SOL    HW214172   6.779   6.421   3.526 -0.0121  0.5573  1.4045
 4425SOL     OW14173   2.706   5.846   5.908 -0.3584 -0.0689  0.7333
 4425SOL    HW114174   2.608   5.856   5.887 -0.3963 -1.1893  0.2665
 4425SOL    HW214175   2.726   5.890   5.995 -0.8092  2.1700 -0.2352
 4426SOL     OW14176   5.646   1.148   5.924 -0.6137  0.1204 -0.2458
 4426SOL    HW114177   5.703   1.181   5.849 -2.0975  0.9892 -1.0344
 4426SOL    HW214178   5.565   1.103   5.887 -0.9803 -0.1304  0.8327
 4427SOL     OW14179   5.641   0.631   3.253 -1.2034 -0.4716 -0.8242
 4427SOL    HW114180   5.643   0.730   3.235  0.7184 -0.6085 -1.6534
 4427SOL    HW214181   5.557   0.608   3.302 -0.2851  2.0815  2.3510
 4428SOL     OW14182   1.763   3.936   3.809 -0.0715 -0.1645 -0.3673
 4428SOL    HW114183   1.847   3.907   3.855 -0.6296 -1.7344 -0.2655
 4428SOL    HW214184   1.684   3.901   3.859 -0.7591  0.3897 -1.0488
 4429SOL     OW14185   3.270   6.842   4.635  0.6168  0.0528  0.1538
 4429SOL    HW114186   3.297   6.930   4.674 -3.0675  0.8107  1.3863
 4429SOL    HW214187   3.278   6.846   4.536  1.7769  1.2601  0.2569
 4430SOL     OW14188   5.026   2.987   3.440  0.5542 -0.1888 -0.4701
 4430SOL    HW114189   5.125   2.976   3.437  0.7017  1.0265 -2.9292
 4430SOL    HW214190   4.988   2.964   3.350 -1.2477  0.4571  0.0945
 4431SOL     OW14191   2.638   2.351   1.865 -0.2757 -0.8672 -0.1313
 4431SOL    HW114192   2.602   2.263   1.896  0.4016 -1.2396 -0.3889
 4431SOL    HW214193   2.737   2.352   1.873 -0.1199 -0.7821 -1.7419
 4432SOL     OW14194   3.133   3.564   2.938  0.4993 -0.4296  0.0206
 4432SOL    HW114195   3.086   3.513   3.010  1.2751 -1.3688 -0.1153
 4432SOL    HW214196   3.181   3.642   2.979  0.5320 -0.6725  0.4531
 4433SOL     OW14197   6.071   6.841   4.541 -0.3590  0.3837  0.5123
 4433SOL    HW114198   6.024   6.854   4.628 -2.1022  0.9191 -0.4681
 4433SOL    HW214199   6.068   6.925   4.488  0.1561 -0.1076 -0.3225
 4434SOL     OW14200   4.955   1.610   4.489 -0.3268  0.2405 -0.1552
 4434SOL    HW114201   4.873   1.578   4.442 -1.4515  0.1972  1.7187
 4434SOL    HW214202   4.960   1.710   4.483  1.1524  0.1040 -2.7820
 4435SOL     OW14203   3.454   4.070   0.339  0.0965  0.3933  0.5060
 4435SOL    HW114204   3.425   4.159   0.373  0.1589  0.3230  0.7520
 4435SOL    HW214205   3.492   4.016   0.415  0.6617  0.3989  0.2335
 4436SOL     OW14206   5.653   2.288   0.145 -0.1015  0.0843  0.3014
 4436SOL    HW114207   5.641   2.326   0.237 -0.6353 -0.4618  0.4603
 4436SOL    HW214208   5.725   2.219   0.146  0.1106  0.3003  0.2373
 4437SOL     OW14209   6.452   1.688   5.070  0.4801 -0.1453 -0.4381
 4437SOL    HW114210   6.539   1.654   5.034 -0.9551 -1.4688 -3.0067
 4437SOL    HW214211   6.388   1.612   5.080 -0.4580  0.8095  1.2762
 4438SOL     OW14212   4.469   1.878   6.686 -0.0110 -0.5791 -0.4866
 4438SOL    HW114213   4.499   1.935   6.763 -0.0956  1.1526 -1.6824
 4438SOL    HW214214   4.544   1.868   6.620 -0.4740 -0.5837 -1.0183
 4439SOL     OW14215   1.436   5.850   1.628  0.4282 -0.4901  0.1069
 4439SOL    HW114216   1.514   5.824   1.571 -0.2097 -1.0503 -0.5287
 4439SOL    HW214217   1.411   5.774   1.688  0.3459 -0.3258  0.2829
 4440SOL     OW14218   2.007   4.987   6.882  0.2578 -0.1727 -0.4192
 4440SOL    HW114219   1.939   4.925   6.921  0.2844 -0.4776 -0.8528
 4440SOL    HW214220   2.026   4.961   6.787 -0.0508  0.7687 -0.7512
 4441SOL     OW14221   0.016   6.771   3.392 -0.2170 -0.5305 -0.2626
 4441SOL    HW114222  -0.018   6.862   3.412 -0.7155 -0.9426  0.8591
 4441SOL    HW214223   0.075   6.740   3.467  0.4474 -0.8884 -0.9204
 4442SOL     OW14224   2.143   4.885   5.047 -0.6014  0.0397 -0.8934
 4442SOL    HW114225   2.069   4.930   5.096  0.2737  0.4768  0.0519
 4442SOL    HW214226   2.107   4.804   5.001 -2.5660  2.3480 -3.8661
 4443SOL     OW14227   1.613   2.787   6.016 -0.4105  0.0195 -0.4976
 4443SOL    HW114228   1.699   2.792   5.965 -0.4369 -0.7953 -0.6331
 4443SOL    HW214229   1.602   2.870   6.071  2.3015 -1.3628  2.4522
 4444SOL     OW14230   3.724   6.623   0.020  0.7660  0.4060  0.0545
 4444SOL    HW114231   3.752   6.559  -0.051  1.2903 -1.0591  1.5273
 4444SOL    HW214232   3.693   6.573   0.101  0.0721  2.0162  0.8474
 4445SOL     OW14233   0.346   5.875   1.040  0.3685 -0.2045 -0.1495
 4445SOL    HW114234   0.314   5.866   1.134 -0.7233  2.7113 -0.1625
 4445SOL    HW214235   0.424   5.938   1.036 -0.5529  0.9265 -1.3233
 4446SOL     OW14236   5.563   3.935   1.690  0.0155  0.0373  0.1329
 4446SOL    HW114237   5.645   3.991   1.704  0.6586 -0.5851 -1.0030
 4446SOL    HW214238   5.573   3.882   1.606 -0.8226 -1.3586  0.8800
 4447SOL     OW14239   0.640   3.793   5.115 -0.2629 -0.1848 -0.2418
 4447SOL    HW114240   0.711   3.759   5.176 -0.8059 -1.4784 -0.3026
 4447SOL    HW214241   0.560   3.820   5.169 -0.8030 -1.4783 -0.3623
 4448SOL     OW14242   2.455   4.998   0.961 -0.0592 -0.0857  0.4507
 4448SOL    HW114243   2.503   5.086   0.953 -0.1220 -0.1012 -0.2079
 4448SOL    HW214244   2.358   5.011   0.939  0.3289 -0.6912 -1.9652
 4449SOL     OW14245   5.075   0.841   6.547  0.4617 -0.0379  0.0203
 4449SOL    HW114246   5.104   0.763   6.491  0.0542  1.2605 -2.1511
 4449SOL    HW214247   5.154   0.893   6.576  0.6246  0.3562 -1.0707
 4450SOL     OW14248   3.565   2.911   4.104  0.3589  0.3643 -0.0986
 4450SOL    HW114249   3.640   2.866   4.153  0.5488  1.1312  0.3414
 4450SOL    HW214250   3.590   3.007   4.087 -0.2691  0.4628 -0.4993
 4451SOL     OW14251   6.274   2.990   4.010 -0.2347 -0.2517 -0.0791
 4451SOL    HW114252   6.253   2.914   3.949  0.2426  0.1508 -0.7493
 4451SOL    HW214253   6.234   3.074   3.974  1.4584  0.3056 -0.7532
 4452SOL     OW14254   4.105   6.246   0.268  0.4960  0.0959 -0.1230
 4452SOL    HW114255   4.100   6.283   0.176 -2.2800 -0.1228 -0.1459
 4452SOL    HW214256   4.174   6.175   0.272  2.0072  1.4134 -1.4993
 4453SOL     OW14257   0.715   2.500   0.484 -0.2259  0.2784 -0.0419
 4453SOL    HW114258   0.738   2.591   0.517  1.0265 -0.6986  2.0124
 4453SOL    HW214259   0.646   2.459   0.544  0.7956 -0.8913  0.3804
 4454SOL     OW14260   4.107   3.886   6.437  0.4805 -0.6043  0.0292
 4454SOL    HW114261   4.112   3.791   6.469  0.2320 -0.7803 -0.4504
 4454SOL    HW214262   4.129   3.889   6.339 -0.7704 -0.3275 -0.2492
 4455SOL     OW14263   1.877   6.402   0.823 -0.9247 -0.0622 -0.2496
 4455SOL    HW114264   1.943   6.339   0.864  0.5834  0.8342 -1.2032
 4455SOL    HW214265   1.878   6.391   0.724  1.2557  3.0401 -0.7459
 4456SOL     OW14266   0.226   5.703   4.563  0.2618  0.4322  0.1157
 4456SOL    HW114267   0.158   5.766   4.524 -0.1825 -0.5398 -0.7142
 4456SOL    HW214268   0.190   5.610   4.562  1.4705 -0.0566 -0.0186
 4457SOL     OW14269   4.583   3.871   0.542  0.1735  0.2710 -0.5609
 4457SOL    HW114270   4.560   3.783   0.583 -0.0559  0.8843  0.6876
 4457SOL    HW214271   4.590   3.940   0.614  1.6068  1.0137 -1.3674
 4458SOL     OW14272   2.588   5.177   0.442 -0.0376  0.0900 -0.5120
 4458SOL    HW114273   2.513   5.121   0.479  0.0546  0.0419 -0.3966
 4458SOL    HW214274   2.559   5.272   0.435  0.3441  0.3307  0.8499
 4459SOL     OW14275   4.454   0.149   4.635 -0.0026 -0.1381 -0.0927
 4459SOL    HW114276   4.539   0.168   4.585 -0.4519 -0.7607 -1.0964
 4459SOL    HW214277   4.450   0.209   4.715  1.8537 -0.7478  0.5321
 4460SOL     OW14278   1.241   3.359   5.303  0.1036  0.2764  0.0330
 4460SOL    HW114279   1.218   3.445   5.258 -3.8531 -0.1855  0.8062
 4460SOL    HW214280   1.272   3.292   5.235 -2.0380  0.7232 -1.4594
 4461SOL     OW14281   1.656   5.915   2.905 -0.4149  0.2207 -0.4463
 4461SOL    HW114282   1.688   5.953   2.818 -2.0175  1.1993 -0.6565
 4461SOL    HW214283   1.647   5.816   2.897 -2.2223  0.4557 -2.0244
 4462SOL     OW14284   7.015   3.050   6.997 -0.1231 -0.7793  0.2532
 4462SOL    HW114285   7.072   3.077   7.075 -0.6557 -1.9603  1.0913
 4462SOL    HW214286   6.976   3.131   6.955  0.9662 -0.0537  0.6053
 4463SOL     OW14287   4.639   4.122   0.158  0.4520 -0.1260 -0.1261
 4463SOL    HW114288   4.584   4.178   0.095  1.5599  0.8789 -0.2430
 4463SOL    HW214289   4.582   4.050   0.197 -1.0992  1.2084  0.1786
 4464SOL     OW14290   5.609   6.955   0.253 -0.5356  0.8700 -0.2322
 4464SOL    HW114291   5.569   6.925   0.166 -0.6401 -1.1772  0.4525
 4464SOL    HW214292   5.709   6.954   0.246 -0.4590 -1.3772  0.2102
 4465SOL     OW14293   2.620   4.782   4.535  0.2170  0.4956 -0.4171
 4465SOL    HW114294   2.671   4.861   4.567 -2.6780  2.6508 -0.7602
 4465SOL    HW214295   2.654   4.755   4.444  1.6546  0.9124 -0.0226
 4466SOL     OW14296   2.988   0.617   4.118  0.3803  0.5801 -0.2022
 4466SOL    HW114297   2.923   0.596   4.045  0.1429 -2.7545  0.8096
 4466SOL    HW214298   2.939   0.652   4.198 -0.2692 -1.7433  0.4900
 4467SOL     OW14299   0.601   6.447   4.489  0.1264  0.3675  0.0338
 4467SOL    HW114300   0.633   6.451   4.394  1.7525 -0.2837  0.5265
 4467SOL    HW214301   0.503   6.428   4.489  0.2446 -0.4446 -1.5156
 4468SOL     OW14302   0.062   0.782   0.038 -0.6689  0.1418 -0.0601
 4468SOL    HW114303  -0.020   0.732   0.067 -0.3255  0.4392  1.5719
 4468SOL    HW214304   0.143   0.732   0.067 -0.3030  2.0005  2.5380
 4469SOL     OW14305   2.200   0.262   1.654 -1.1579 -0.4601  0.0337
 4469SOL    HW114306   2.159   0.247   1.564 -1.9873 -2.7998  0.7438
 4469SOL    HW214307   2.298   0.248   1.649 -1.2695 -1.1296 -0.4146
 4470SOL     OW14308   1.272   3.949   6.591  0.8887  0.0695  0.1178
 4470SOL    HW114309   1.339   3.996   6.648 -0.8203  1.3350  1.1978
 4470SOL    HW214310   1.180   3.978   6.618 -0.2326 -2.9906 -0.0309
 4471SOL     OW14311   0.631   3.554   1.636 -0.0244 -0.4289 -0.3300
 4471SOL    HW114312   0.654   3.494   1.713 -1.2604  1.2979  1.4615
 4471SOL    HW214313   0.549   3.606   1.658  0.1216  0.8030 -2.4738
 4472SOL     OW14314   1.535   1.486   4.116 -0.5589 -0.3593 -0.0628
 4472SOL    HW114315   1.588   1.568   4.137  0.6157 -0.7689 -1.2830
 4472SOL    HW214316   1.441   1.511   4.095 -0.0618  0.7659 -1.0484
 4473SOL     OW14317   5.498   1.885   3.718  0.7000 -0.3811  0.2649
 4473SOL    HW114318   5.510   1.981   3.692 -0.0848 -0.4112 -0.2602
 4473SOL    HW214319   5.545   1.826   3.652  0.9229 -0.3711  0.4134
 4474SOL     OW14320   3.132   1.003   2.079 -0.0895 -0.0532  0.4185
 4474SOL    HW114321   3.078   1.087   2.070 -0.0504 -0.1387 -0.6543
 4474SOL    HW214322   3.108   0.958   2.166 -0.4335  0.8265  0.7962
 4475SOL     OW14323   1.818   3.248   2.323  0.3562  0.4052 -0.3051
 4475SOL    HW114324   1.789   3.199   2.241  0.1847 -1.5659  0.8645
 4475SOL    HW214325   1.908   3.288   2.307  0.3038  0.0958 -1.4807
 4476SOL     OW14326   5.059   4.147   4.790  0.2516  0.5606 -0.4411
 4476SOL    HW114327   5.130   4.133   4.860 -0.3250  1.5599  0.3794
 4476SOL    HW214328   5.065   4.074   4.722  1.9290  0.5035 -0.2889
 4477SOL     OW14329   1.699   0.477   5.049  0.8693 -0.1872 -0.7430
 4477SOL    HW114330   1.734   0.525   4.969 -0.2314 -0.1569 -1.2307
 4477SOL    HW214331   1.630   0.410   5.020 -0.4736  0.6988  0.2648
 4478SOL     OW14332   4.480   6.152   2.518 -0.2069  0.0741 -0.2872
 4478SOL    HW114333   4.560   6.093   2.522  0.6339  1.2528  1.5785
 4478SOL    HW214334   4.471   6.203   2.603 -2.2288  0.9349 -0.9390
 4479SOL     OW14335   1.975   3.630   1.160  0.6305 -0.0870 -0.0263
 4479SOL    HW114336   1.976   3.589   1.251 -0.0874 -2.0640 -0.8438
 4479SOL    HW214337   1.883   3.627   1.122  0.7680  1.4153 -0.5367
 4480SOL     OW14338   3.261   4.204   0.121  0.1316 -0.0987 -0.7652
 4480SOL    HW114339   3.241   4.108   0.143  1.5099  0.0592  1.5599
 4480SOL    HW214340   3.360   4.217   0.117  0.0391  1.5251  0.7139
 4481SOL     OW14341   3.161   0.478   4.667  0.3485 -0.0687 -0.4186
 4481SOL    HW114342   3.155   0.480   4.567  1.3214  1.6499 -0.4823
 4481SOL    HW214343   3.069   0.478   4.706 -0.0418 -0.0369 -1.3177
 4482SOL     OW14344   1.704   4.386   4.385 -0.3474 -0.3890 -0.1576
 4482SOL    HW114345   1.749   4.319   4.326 -0.1315  0.4668 -0.9878
 4482SOL    HW214346   1.706   4.354   4.480 -0.3478 -1.6006 -0.5502
 4483SOL     OW14347   6.367   2.152   1.860  0.6053 -0.4176  0.4889
 4483SOL    HW114348   6.440   2.122   1.921  0.0457 -0.8678  0.9466
 4483SOL    HW214349   6.293   2.085   1.862 -0.1341  0.3984  0.5866
 4484SOL     OW14350   3.513   2.275   0.425 -0.5965  0.3451  0.2263
 4484SOL    HW114351   3.436   2.325   0.386 -1.1150 -1.0211 -0.5404
 4484SOL    HW214352   3.579   2.254   0.354 -0.4528 -0.1949  0.5150
 4485SOL     OW14353   6.233   2.987   5.309  0.5864 -0.0988 -0.6240
 4485SOL    HW114354   6.242   3.016   5.405  0.5249 -0.6359 -0.4546
 4485SOL    HW214355   6.324   2.980   5.268  0.6029  0.3526 -0.6777
 4486SOL     OW14356   5.742   0.828   2.753 -0.0453 -0.6368 -0.3671
 4486SOL    HW114357   5.749   0.754   2.685 -0.1971  0.3845 -1.5243
 4486SOL    HW214358   5.742   0.916   2.706  1.5566  0.1876  1.0763
 4487SOL     OW14359   2.217   3.827   6.734 -0.5126 -0.0782  0.2620
 4487SOL    HW114360   2.235   3.740   6.688 -0.6267 -0.1781  0.4032
 4487SOL    HW214361   2.301   3.861   6.775  0.4473  1.7356 -2.8821
 4488SOL     OW14362   5.002   1.997   1.401 -0.3002 -0.4455 -0.0207
 4488SOL    HW114363   4.920   1.957   1.361 -0.2978 -1.0507  0.5619
 4488SOL    HW214364   4.990   2.005   1.500 -0.0978  0.5285 -0.0717
 4489SOL     OW14365   6.556   5.759   4.650  0.2071 -0.1512  0.6195
 4489SOL    HW114366   6.478   5.729   4.594 -0.4977 -0.3470  1.6748
 4489SOL    HW214367   6.551   5.859   4.662  0.1605 -0.1521  0.6128
 4490SOL     OW14368   5.831   1.749   2.111 -0.0668 -0.3798 -0.3761
 4490SOL    HW114369   5.831   1.705   2.022  0.1992 -1.3938  0.1104
 4490SOL    HW214370   5.809   1.846   2.101 -1.9673 -0.8672 -1.3479
 4491SOL     OW14371   1.441   2.690   4.564  0.3479  0.1420 -0.0176
 4491SOL    HW114372   1.505   2.618   4.591  0.2370 -0.5516 -1.4853
 4491SOL    HW214373   1.491   2.766   4.523  0.3677  0.4084  0.4899
 4492SOL     OW14374   6.438   3.905   6.480  1.0079  0.1917 -0.2197
 4492SOL    HW114375   6.466   3.893   6.385  1.7291  0.5492 -0.0568
 4492SOL    HW214376   6.363   3.971   6.484 -0.1922 -1.1027 -0.6983
 4493SOL     OW14377   3.974   5.653   5.737 -0.3704 -0.8739 -0.3119
 4493SOL    HW114378   3.892   5.709   5.749  0.4340  0.1119  0.8631
 4493SOL    HW214379   3.948   5.557   5.731 -1.6925 -0.4916 -1.1639
 4494SOL     OW14380   0.387   1.077   1.020 -0.0673 -0.3265 -0.3754
 4494SOL    HW114381   0.311   1.053   0.960 -0.6651 -0.0410  0.2537
 4494SOL    HW214382   0.352   1.101   1.111  0.3625  3.4495 -1.0275
 4495SOL     OW14383   4.280   6.237   4.365  0.1757 -0.1912 -0.1899
 4495SOL    HW114384   4.216   6.182   4.419 -0.3140 -0.0401 -0.6071
 4495SOL    HW214385   4.229   6.292   4.299  0.7184  0.1759 -0.3061
 4496SOL     OW14386   3.588   4.449   0.321  0.2908 -0.2124 -0.1645
 4496SOL    HW114387   3.554   4.392   0.396 -2.3256  1.1870 -0.1722
 4496SOL    HW214388   3.554   4.414   0.234  1.5774 -0.6056 -0.5328
 4497SOL     OW14389   3.796   6.454   1.024  1.0449  0.6079  0.4986
 4497SOL    HW114390   3.729   6.526   1.008  0.5591  0.2507  0.8949
 4497SOL    HW214391   3.782   6.414   1.115  0.4051 -0.9137 -0.2247
 4498SOL     OW14392   0.865   1.787   5.827  0.1188  0.1130 -0.2321
 4498SOL    HW114393   0.813   1.727   5.887  1.1108 -0.7894 -0.2299
 4498SOL    HW214394   0.807   1.818   5.752 -0.3656 -1.0493 -0.3583
 4499SOL     OW14395   5.819   3.246   3.082  0.2661 -0.2649  0.1968
 4499SOL    HW114396   5.804   3.154   3.118 -1.5614  0.2829  0.9356
 4499SOL    HW214397   5.891   3.291   3.135  0.3114 -0.8310  0.6274
 4500SOL     OW14398   3.692   3.247   3.820  0.4294 -0.2057 -0.1303
 4500SOL    HW114399   3.635   3.303   3.760 -0.5015 -0.1956  0.7571
 4500SOL    HW214400   3.760   3.305   3.865  0.3446 -0.0143 -0.2468
 4501SOL     OW14401   6.446   3.317   5.175 -0.1419 -0.2340  0.2603
 4501SOL    HW114402   6.495   3.321   5.262 -0.0297  1.5482  0.1519
 4501SOL    HW214403   6.451   3.224   5.138  1.3656 -0.5870  1.2547
 4502SOL     OW14404   2.404   4.566   0.143  0.4434  0.1016 -0.0446
 4502SOL    HW114405   2.423   4.662   0.163 -0.6615  0.5386 -1.0354
 4502SOL    HW214406   2.350   4.558   0.060 -2.6461 -1.1219  1.8999
 4503SOL     OW14407   3.094   0.646   3.209 -0.6621  0.6579 -0.3050
 4503SOL    HW114408   3.015   0.696   3.245 -0.1910 -0.0732  1.8628
 4503SOL    HW214409   3.174   0.663   3.266 -0.4789 -2.5449  0.5892
 4504SOL     OW14410   0.062   1.624   4.921 -0.1369  0.1527 -0.3047
 4504SOL    HW114411   0.008   1.612   5.004  0.3286  1.9318  0.2950
 4504SOL    HW214412   0.028   1.703   4.871 -0.4472 -0.9249 -1.8803
 4505SOL     OW14413   6.483   0.419   3.751 -0.7486 -0.2144  1.0149
 4505SOL    HW114414   6.556   0.473   3.795 -1.5647  0.6686  1.3149
 4505SOL    HW214415   6.468   0.335   3.804  3.3371 -2.9917 -1.6081
 4506SOL     OW14416   6.612   2.616   5.430 -0.4448  0.5620 -0.6084
 4506SOL    HW114417   6.593   2.668   5.514  2.2674 -0.9353  1.0438
 4506SOL    HW214418   6.555   2.534   5.429 -0.5965  0.6601 -0.3118
 4507SOL     OW14419   6.532   3.772   1.739 -0.2199 -0.3733  0.0286
 4507SOL    HW114420   6.440   3.757   1.774 -1.0723 -1.2880 -2.3850
 4507SOL    HW214421   6.544   3.720   1.654  2.0540  0.8191 -0.4522
 4508SOL     OW14422   5.323   4.037   5.276  0.0704 -0.1661  0.1105
 4508SOL    HW114423   5.342   4.131   5.306  0.2851 -0.0685 -0.3161
 4508SOL    HW214424   5.386   3.974   5.321 -0.3484 -0.1578  0.7185
 4509SOL     OW14425   4.770   2.715   3.444 -0.1337  0.6017 -0.3183
 4509SOL    HW114426   4.689   2.662   3.422 -0.6194 -0.1821  2.8550
 4509SOL    HW214427   4.791   2.705   3.542  1.2337  4.2688 -0.0844
 4510SOL     OW14428   5.096   0.500   5.759  0.2149  0.1034 -0.7391
 4510SOL    HW114429   5.041   0.440   5.701  0.6660 -0.0652 -0.9945
 4510SOL    HW214430   5.188   0.509   5.721  0.2980  0.5721 -0.4431
 4511SOL     OW14431   5.994   4.316   5.446 -0.6417 -0.9829 -0.1651
 4511SOL    HW114432   6.091   4.319   5.472 -0.7278 -0.7617  0.1436
 4511SOL    HW214433   5.975   4.386   5.378 -0.9152  0.0529  0.9452
 4512SOL     OW14434   2.228   0.001   6.347 -0.3509 -0.2574 -0.4284
 4512SOL    HW114435   2.160  -0.003   6.420 -0.7883 -0.4885 -0.8440
 4512SOL    HW214436   2.188  -0.032   6.261  0.1240  0.1027 -0.7995
 4513SOL     OW14437   5.879   0.095   0.293 -0.4113  0.0404  0.0838
 4513SOL    HW114438   5.934   0.178   0.284 -0.7378  0.3784  1.0906
 4513SOL    HW214439   5.889   0.040   0.210 -0.0127  0.9700 -0.5095
 4514SOL     OW14440   5.603   7.014   4.859  0.5119  0.2866 -0.2633
 4514SOL    HW114441   5.519   7.062   4.835  0.4477  0.1405 -0.3323
 4514SOL    HW214442   5.592   6.917   4.841  0.7930  0.3048 -0.5373
 4515SOL     OW14443   4.121   4.450   6.294 -0.4582  0.5951  0.0970
 4515SOL    HW114444   4.041   4.503   6.324 -0.0359  0.4493  1.5663
 4515SOL    HW214445   4.204   4.500   6.318 -0.0915  0.7036 -1.3425
 4516SOL     OW14446   1.951   1.402   5.402  0.4584 -0.4877  0.1370
 4516SOL    HW114447   1.965   1.402   5.501  2.0846  0.2072 -0.0501
 4516SOL    HW214448   2.028   1.449   5.358 -0.7371  0.1243 -1.3978
 4517SOL     OW14449   1.516   0.132   6.685 -0.5871 -0.0014 -0.3401
 4517SOL    HW114450   1.506   0.035   6.707 -0.9668 -0.7934 -3.4798
 4517SOL    HW214451   1.426   0.173   6.672 -0.4106  0.6901  0.4965
 4518SOL     OW14452   6.029   0.641   4.587  0.3677  0.4279  0.5215
 4518SOL    HW114453   5.966   0.563   4.588  0.3997  0.2883 -2.0352
 4518SOL    HW214454   6.111   0.619   4.640  0.3910 -1.3172 -0.1684
 4519SOL     OW14455   0.471   6.327   2.693 -0.3200  1.0219  0.1674
 4519SOL    HW114456   0.504   6.234   2.681 -0.3597  1.1365 -0.9783
 4519SOL    HW214457   0.548   6.391   2.688 -0.4140  1.1181 -0.0716
 4520SOL     OW14458   6.772   5.047   2.256  0.5158 -0.4003 -0.0493
 4520SOL    HW114459   6.678   5.015   2.257 -0.4781  2.2436  0.0377
 4520SOL    HW214460   6.807   5.052   2.350  1.4081 -2.9669 -0.1772
 4521SOL     OW14461   6.422   1.527   4.262  0.5268  0.1896 -0.0914
 4521SOL    HW114462   6.475   1.529   4.346 -0.7779  0.6261  0.7586
 4521SOL    HW214463   6.448   1.447   4.207  0.9736 -0.4360  1.0065
 4522SOL     OW14464   4.223   5.914   4.897 -0.0020 -0.2194  0.2290
 4522SOL    HW114465   4.250   5.821   4.875  0.8386  0.4662 -1.9004
 4522SOL    HW214466   4.261   5.977   4.829  0.4961  1.8447  2.2674
 4523SOL     OW14467   2.440   3.512   6.080  0.1459 -0.3315  0.2809
 4523SOL    HW114468   2.416   3.536   5.986  1.2550 -0.1279  0.0287
 4523SOL    HW214469   2.449   3.413   6.089 -0.4232 -0.3843  0.2964
 4524SOL     OW14470   3.966   3.132   6.373 -0.2102  0.0930  0.3923
 4524SOL    HW114471   3.877   3.177   6.376 -0.6247 -0.2784 -2.8062
 4524SOL    HW214472   3.956   3.036   6.401 -0.9720 -0.0939 -0.4605
 4525SOL     OW14473   0.071   1.297   4.268 -0.2289  0.3236  0.2131
 4525SOL    HW114474  -0.009   1.326   4.319  0.9627  1.0598  1.7306
 4525SOL    HW214475   0.133   1.247   4.328  0.2913 -0.5821 -1.0323
 4526SOL     OW14476   3.609   0.830   6.660 -0.1656  0.4389 -0.0665
 4526SOL    HW114477   3.630   0.848   6.756 -0.0264 -0.2225  0.0300
 4526SOL    HW214478   3.535   0.763   6.653  0.3280 -0.0914 -0.4083
 4527SOL     OW14479   4.521   6.624   5.357  0.0408 -0.0948  0.5164
 4527SOL    HW114480   4.572   6.710   5.352 -0.6898  0.2772 -1.1814
 4527SOL    HW214481   4.446   6.634   5.422  0.9758 -0.0401  1.6229
 4528SOL     OW14482   4.679   6.394   6.870 -0.3748 -0.5532  0.2541
 4528SOL    HW114483   4.682   6.476   6.927 -1.3072  0.1691 -0.6977
 4528SOL    HW214484   4.769   6.349   6.871  0.5340  1.1655 -0.1668
 4529SOL     OW14485   2.793   1.332   2.489 -0.9155  0.3944  0.6814
 4529SOL    HW114486   2.792   1.383   2.575 -0.4679 -1.4533  1.8188
 4529SOL    HW214487   2.824   1.239   2.505  0.3573  0.3298 -1.6990
 4530SOL     OW14488   0.903   3.427   5.072 -0.8579  0.2910  0.8204
 4530SOL    HW114489   0.991   3.469   5.094  0.6381 -1.6535 -1.0261
 4530SOL    HW214490   0.878   3.450   4.978 -2.3626  0.8093  1.3175
 4531SOL     OW14491   0.460   2.655   2.185  0.1346  0.0681 -0.3103
 4531SOL    HW114492   0.392   2.608   2.242 -0.2693 -0.4153 -1.1713
 4531SOL    HW214493   0.466   2.751   2.213 -0.3457 -0.0679  0.2847
 4532SOL     OW14494   1.324   6.506   1.720  0.4806 -0.4134 -0.3805
 4532SOL    HW114495   1.332   6.584   1.782  1.2796 -1.4551  0.8786
 4532SOL    HW214496   1.387   6.433   1.749 -0.1755 -1.5021 -1.5677
 4533SOL     OW14497   2.786   6.915   2.616  0.2430 -0.4431 -0.4441
 4533SOL    HW114498   2.757   6.855   2.542 -1.9601 -0.1008  0.0619
 4533SOL    HW214499   2.719   6.911   2.690  1.8095  0.0800  1.0677
 4534SOL     OW14500   5.425   2.875   4.514  0.0564 -0.0704  0.3339
 4534SOL    HW114501   5.483   2.886   4.595 -0.3576 -0.9087  0.7475
 4534SOL    HW214502   5.337   2.919   4.529  1.3805  3.6189 -1.2665
 4535SOL     OW14503   3.996   1.408   2.714 -0.1541 -0.8919  0.2431
 4535SOL    HW114504   3.923   1.379   2.652 -1.9180  2.0668  0.7534
 4535SOL    HW214505   4.082   1.416   2.663 -1.1025 -0.4993 -1.3633
 4536SOL     OW14506   4.430   2.157   4.640  0.0376 -0.0220 -0.0933
 4536SOL    HW114507   4.401   2.062   4.643  1.3920 -0.4358  0.9279
 4536SOL    HW214508   4.371   2.213   4.698  0.3667 -0.5802  0.7858
 4537SOL     OW14509   5.782   2.601   6.405  0.6150 -0.6207 -0.5744
 4537SOL    HW114510   5.788   2.660   6.485 -2.6925  1.1964 -1.5104
 4537SOL    HW214511   5.780   2.505   6.435 -0.3764 -0.0058  1.5390
 4538SOL     OW14512   3.237   1.604   2.939  0.1350  0.3382 -0.5179
 4538SOL    HW114513   3.297   1.677   2.972  1.8163 -0.9436 -0.6056
 4538SOL    HW214514   3.160   1.644   2.890  0.3757  2.0829  0.4503
 4539SOL     OW14515   2.371   2.488   5.080  0.0745 -0.0481  0.6100
 4539SOL    HW114516   2.374   2.393   5.109  1.2816 -0.0940  0.3847
 4539SOL    HW214517   2.447   2.507   5.018 -0.4191  0.9465  0.2798
 4540SOL     OW14518   2.876   3.907   5.164 -0.5927 -0.4022  0.0012
 4540SOL    HW114519   2.786   3.949   5.159 -0.8207 -0.6528  1.5073
 4540SOL    HW214520   2.869   3.810   5.142 -0.9868 -0.7641  1.5977
 4541SOL     OW14521   4.480   1.426   6.335  0.0207 -0.6682  0.1964
 4541SOL    HW114522   4.515   1.332   6.333  1.8740 -0.0545  1.4344
 4541SOL    HW214523   4.452   1.448   6.429 -3.0183 -0.8180 -0.5492
 4542SOL     OW14524   6.268   6.190   2.436  0.2272 -0.0778  0.5572
 4542SOL    HW114525   6.264   6.166   2.339  0.9164  0.7512  0.3131
 4542SOL    HW214526   6.176   6.211   2.468  0.0424  0.0589 -0.0347
 4543SOL     OW14527   3.858   0.099   6.249  0.4642 -0.1607  0.1460
 4543SOL    HW114528   3.769   0.065   6.277  0.7665 -2.8451 -1.7820
 4543SOL    HW214529   3.929   0.062   6.308  0.5173 -0.1373  0.0973
 4544SOL     OW14530   1.641   4.622   5.071  0.2176 -0.3003  0.9332
 4544SOL    HW114531   1.740   4.625   5.087  0.2563  1.0189  0.5156
 4544SOL    HW214532   1.593   4.663   5.148  0.0501 -0.1353  0.7434
 4545SOL     OW14533   6.258   2.821   5.685 -0.1683  0.2791  0.2386
 4545SOL    HW114534   6.304   2.838   5.772 -1.7544  0.2948  1.0970
 4545SOL    HW214535   6.160   2.813   5.699 -0.6567  1.7853 -1.7486
 4546SOL     OW14536   0.283   1.206   0.628 -0.2070 -0.1064  0.2032
 4546SOL    HW114537   0.363   1.263   0.647 -0.5747  1.0585 -1.5118
 4546SOL    HW214538   0.257   1.217   0.532 -1.4189 -1.7754  0.3007
 4547SOL     OW14539   5.417   3.507   4.434 -0.0077  0.2929 -0.4490
 4547SOL    HW114540   5.371   3.485   4.348  1.3221 -0.1781 -1.0520
 4547SOL    HW214541   5.447   3.423   4.479  0.1680  0.5879 -0.0053
 4548SOL     OW14542   1.869   4.117   4.458  0.1629 -0.2323  0.2193
 4548SOL    HW114543   1.900   4.161   4.373 -1.7681 -1.9131 -1.4826
 4548SOL    HW214544   1.933   4.045   4.484  0.8119  0.3489  0.2520
 4549SOL     OW14545   6.201   3.974   2.523  0.2701 -0.1090 -0.6573
 4549SOL    HW114546   6.177   3.902   2.588  1.0115 -1.2599 -1.6192
 4549SOL    HW214547   6.134   3.977   2.449 -0.1181  0.6495 -0.2902
 4550SOL     OW14548   6.391   5.891   1.705 -0.2162 -0.0201 -0.1631
 4550SOL    HW114549   6.318   5.919   1.642  1.8270 -1.7579 -3.6439
 4550SOL    HW214550   6.369   5.802   1.744  0.3411 -1.0820 -2.0864
 4551SOL     OW14551   0.779   1.189   3.963 -0.1798  0.3297 -0.3700
 4551SOL    HW114552   0.785   1.211   4.060 -0.6083 -0.0331 -0.2583
 4551SOL    HW214553   0.728   1.103   3.951  0.5821 -0.0684 -0.8592
 4552SOL     OW14554   1.323   2.864   0.029  0.9983  0.5770  0.0164
 4552SOL    HW114555   1.264   2.818  -0.036  2.2259  0.5651 -1.1339
 4552SOL    HW214556   1.268   2.925   0.087 -0.2316 -0.0988 -0.4024
 4553SOL     OW14557   3.617   0.911   0.485 -0.0045 -0.3751 -0.4864
 4553SOL    HW114558   3.647   0.893   0.578 -0.1785 -0.1163 -0.3816
 4553SOL    HW214559   3.565   0.996   0.481  0.7353  0.0675 -0.9662
 4554SOL     OW14560   2.942   1.647   1.258  0.4641  0.2830 -0.3826
 4554SOL    HW114561   2.980   1.712   1.325 -0.7296  0.6838 -0.0717
 4554SOL    HW214562   3.003   1.568   1.250  1.2493  0.8100  0.2602
 4555SOL     OW14563   5.230   1.767   5.889  0.2161 -0.2474 -0.7730
 4555SOL    HW114564   5.297   1.693   5.880  0.8222 -0.3330  2.8998
 4555SOL    HW214565   5.269   1.851   5.852  1.9153 -0.5567  0.2028
 4556SOL     OW14566   5.373   2.159   3.537  0.1812  0.1267  0.0982
 4556SOL    HW114567   5.301   2.145   3.605  1.8631 -0.0520  1.8943
 4556SOL    HW214568   5.462   2.152   3.580  1.3776 -1.6657 -2.4325
 4557SOL     OW14569   4.969   6.239   5.850 -0.1507  0.1564 -0.6936
 4557SOL    HW114570   4.921   6.327   5.857  2.5150  1.6069  0.8567
 4557SOL    HW214571   4.946   6.196   5.763 -1.6550  2.3053 -1.4642
 4558SOL     OW14572   0.544   2.333   5.790  0.1257 -0.3887 -0.1026
 4558SOL    HW114573   0.468   2.316   5.853  1.2026 -0.0394  1.3372
 4558SOL    HW214574   0.631   2.322   5.839  1.0037 -0.2185 -1.5709
 4559SOL     OW14575   2.639   4.301   0.333 -0.1600 -0.2859  0.2943
 4559SOL    HW114576   2.668   4.209   0.307  0.5329 -0.4538  1.5915
 4559SOL    HW214577   2.638   4.360   0.252  1.4882 -0.8983 -0.2052
 4560SOL     OW14578   5.645   4.008   2.471 -0.5967 -0.4387  0.2499
 4560SOL    HW114579   5.682   4.089   2.424  0.5221 -0.3039  1.3150
 4560SOL    HW214580   5.577   4.038   2.538 -1.3588 -0.5369 -0.4608
 4561SOL     OW14581   3.961   2.272   1.826  0.2115 -0.0193 -0.2430
 4561SOL    HW114582   3.868   2.305   1.847  0.4088  0.0131  0.6296
 4561SOL    HW214583   3.989   2.207   1.896  1.2625  0.7842  0.1057
 4562SOL     OW14584   2.584   6.174   6.312  0.1588 -0.0281 -0.1061
 4562SOL    HW114585   2.582   6.165   6.412 -1.4236  0.1510 -0.0991
 4562SOL    HW214586   2.538   6.259   6.286 -0.9921 -0.9239 -1.0761
 4563SOL     OW14587   6.220   2.524   5.653  0.0645 -0.2632 -0.0666
 4563SOL    HW114588   6.202   2.621   5.640  1.6176 -0.0707 -1.0815
 4563SOL    HW214589   6.140   2.471   5.626 -0.1438  0.6590 -1.3463
 4564SOL     OW14590   1.126   5.803   6.850  0.3745 -0.2843 -0.7977
 4564SOL    HW114591   1.040   5.798   6.799  0.8631  3.0512 -2.2244
 4564SOL    HW214592   1.108   5.789   6.947 -2.1247  1.8103 -0.8442
 4565SOL     OW14593   5.692   1.907   4.991  0.4081 -0.0977  0.1460
 4565SOL    HW114594   5.682   1.825   5.047 -0.7899  0.1336  0.2924
 4565SOL    HW214595   5.628   1.902   4.914  2.9833 -1.0852 -2.0848
 4566SOL     OW14596   5.570   0.710   2.056  0.2811  0.4275 -0.3516
 4566SOL    HW114597   5.561   0.809   2.056  1.2247  0.5531 -1.8175
 4566SOL    HW214598   5.543   0.675   1.966  1.4119 -0.4724 -0.3662
 4567SOL     OW14599   1.302   1.399   1.742  0.4103  0.6980 -0.2504
 4567SOL    HW114600   1.395   1.361   1.748  0.4119  0.6019 -0.7715
 4567SOL    HW214601   1.299   1.487   1.789  0.4427  0.1236  0.8500
 4568SOL     OW14602   2.057   3.918   5.968 -0.5075  0.2545  0.0793
 4568SOL    HW114603   2.115   3.999   5.978 -0.8850  0.6961 -1.0989
 4568SOL    HW214604   1.980   3.925   6.031  0.3837 -0.0635  1.2480
 4569SOL     OW14605   2.809   6.518   4.576  0.4127 -0.2230  0.4187
 4569SOL    HW114606   2.782   6.561   4.662  1.3037  2.0610 -0.3683
 4569SOL    HW214607   2.847   6.587   4.515 -2.5828 -1.2047 -2.8835
 4570SOL     OW14608   0.445   4.130   2.602 -0.7662  0.2982  0.2731
 4570SOL    HW114609   0.510   4.125   2.679 -1.4211  0.7118  0.8654
 4570SOL    HW214610   0.496   4.129   2.516 -0.0692 -1.3774  0.6547
 4571SOL     OW14611   4.387   2.834   5.330 -0.1853 -0.0497  0.1867
 4571SOL    HW114612   4.454   2.798   5.395 -0.6053 -0.0875  0.6017
 4571SOL    HW214613   4.307   2.868   5.380 -0.9586 -0.9966 -0.3622
 4572SOL     OW14614   6.885   0.801   6.657  0.3203  0.0596  0.4950
 4572SOL    HW114615   6.941   0.771   6.581 -0.2794 -1.1536  0.4923
 4572SOL    HW214616   6.900   0.740   6.735  1.2692  1.5508  1.5249
 4573SOL     OW14617   6.505   0.386   6.624  0.4863 -0.6386  0.0474
 4573SOL    HW114618   6.440   0.312   6.644 -2.3343  1.5274 -0.4330
 4573SOL    HW214619   6.497   0.457   6.694  0.1327  1.0267 -1.6065
 4574SOL     OW14620   0.580   5.799   1.197 -0.0380  0.4341  0.2276
 4574SOL    HW114621   0.597   5.778   1.294 -0.2424  0.4835  0.2752
 4574SOL    HW214622   0.511   5.736   1.161  0.8172 -0.2897 -0.1824
 4575SOL     OW14623   6.399   1.886   6.421 -1.0698 -0.2109 -0.2525
 4575SOL    HW114624   6.411   1.848   6.329  0.1528  0.5688 -0.4444
 4575SOL    HW214625   6.457   1.836   6.485 -0.5374  0.3720 -0.2564
 4576SOL     OW14626   2.933   6.586   5.353 -0.2514 -0.2942  0.2876
 4576SOL    HW114627   2.910   6.617   5.445  0.1108  0.0146  0.2730
 4576SOL    HW214628   2.951   6.488   5.355 -0.2499 -0.2899  0.5424
 4577SOL     OW14629   1.353   1.569   3.382  0.0265 -0.2526  0.0972
 4577SOL    HW114630   1.315   1.645   3.435  2.0247 -0.2354  1.5849
 4577SOL    HW214631   1.332   1.483   3.427  1.1651 -0.2799  0.6192
 4578SOL     OW14632   0.939   5.283   4.081 -0.2106 -0.1926 -0.5815
 4578SOL    HW114633   0.975   5.286   3.988 -0.4860 -1.5303 -0.7443
 4578SOL    HW214634   0.845   5.318   4.081 -0.1943 -0.1439 -0.7960
 4579SOL     OW14635   6.640   1.895   3.211 -0.3199 -0.1830  0.2858
 4579SOL    HW114636   6.610   1.855   3.297 -1.0705  0.4949  0.3491
 4579SOL    HW214637   6.561   1.929   3.160  0.3198  2.0076  0.6362
 4580SOL     OW14638   5.976   4.966   0.938 -0.1098  0.5401  0.0620
 4580SOL    HW114639   5.966   4.897   1.010  1.7020 -0.2592 -0.3901
 4580SOL    HW214640   6.070   4.963   0.903 -0.8434  1.1566 -2.0839
 4581SOL     OW14641   4.951   5.542   3.336  0.1600  0.0182 -0.2601
 4581SOL    HW114642   4.959   5.534   3.436  0.5635 -1.2386 -0.3807
 4581SOL    HW214643   5.040   5.521   3.294  0.0586  0.7806 -0.8901
 4582SOL     OW14644   6.357   6.497   6.415  0.2479  0.2826 -0.2645
 4582SOL    HW114645   6.317   6.439   6.344  0.2900  1.3342 -1.1731
 4582SOL    HW214646   6.440   6.540   6.379 -0.3139  1.6612  0.0329
 4583SOL     OW14647   3.264   1.231   3.483 -0.1085  0.5365 -0.5357
 4583SOL    HW114648   3.333   1.160   3.480 -0.0698  0.4365  1.4931
 4583SOL    HW214649   3.174   1.191   3.469 -0.0067  0.2104 -0.2731
 4584SOL     OW14650   1.423   5.205   5.638 -0.4074 -0.2246 -0.1416
 4584SOL    HW114651   1.481   5.221   5.718 -0.6484 -0.1758  0.0239
 4584SOL    HW214652   1.451   5.120   5.593 -0.5560 -0.4792  0.2470
 4585SOL     OW14653   4.107   6.042   4.438 -0.2066  0.2470  0.1316
 4585SOL    HW114654   4.162   5.963   4.411 -1.1430 -0.4515  0.1938
 4585SOL    HW214655   4.061   6.022   4.525 -3.2726 -0.6174 -1.5601
 4586SOL     OW14656   6.046   5.779   1.716 -0.0478 -0.0125  0.0417
 4586SOL    HW114657   6.000   5.859   1.754  1.1087  1.3505 -1.3279
 4586SOL    HW214658   6.004   5.754   1.629  0.3423 -0.1506 -0.1116
 4587SOL     OW14659   3.549   2.896   1.824 -0.2072 -0.5183 -0.0449
 4587SOL    HW114660   3.538   2.923   1.919  1.6830  1.0036 -0.2033
 4587SOL    HW214661   3.553   2.796   1.818  0.1454 -0.6190  1.5385
 4588SOL     OW14662   3.307   3.728   6.282  0.5036  0.9087 -0.0923
 4588SOL    HW114663   3.251   3.810   6.286 -1.9032 -0.6219 -0.3311
 4588SOL    HW214664   3.358   3.727   6.196 -0.6379  1.4448 -0.7982
 4589SOL     OW14665   6.340   6.670   4.125 -0.3893  0.3129 -0.4004
 4589SOL    HW114666   6.277   6.615   4.180  0.9916 -2.1479 -1.0737
 4589SOL    HW214667   6.292   6.704   4.044 -1.5784  1.1072  0.6013
 4590SOL     OW14668   5.633   5.742   3.716  0.7938 -0.1073 -0.2686
 4590SOL    HW114669   5.607   5.670   3.779 -2.1224  0.8838 -0.1537
 4590SOL    HW214670   5.678   5.816   3.766 -0.1236  0.0064  0.4138
 4591SOL     OW14671   0.418   5.119   4.658 -0.7749 -0.4590 -0.1608
 4591SOL    HW114672   0.363   5.069   4.591  0.7072  0.3278 -2.0686
 4591SOL    HW214673   0.411   5.217   4.641  0.4668 -0.3000  0.1382
 4592SOL     OW14674   4.862   1.991   1.687  0.1965  0.2323 -0.7600
 4592SOL    HW114675   4.931   1.956   1.750 -0.1325  0.7429 -0.1103
 4592SOL    HW214676   4.805   1.916   1.655 -0.3492  0.1175  0.4314
 4593SOL     OW14677   5.896   6.545   3.927 -0.1763 -0.1292 -0.0860
 4593SOL    HW114678   5.834   6.622   3.944 -1.3968 -1.1733  0.3473
 4593SOL    HW214679   5.894   6.483   4.005 -0.2950 -1.3102 -0.9996
 4594SOL     OW14680   3.662   2.080   1.143  0.5905  0.0060 -0.7824
 4594SOL    HW114681   3.670   1.985   1.173  0.0660 -0.4645 -2.0407
 4594SOL    HW214682   3.652   2.140   1.222  0.4512 -1.0375  0.0088
 4595SOL     OW14683   5.401   1.533   3.916 -0.0588  0.2194 -0.4638
 4595SOL    HW114684   5.419   1.435   3.904 -0.1270 -0.1373  1.8630
 4595SOL    HW214685   5.327   1.545   3.983  0.0945  1.8604 -0.5640
 4596SOL     OW14686   7.004   5.587   3.091  0.5066 -0.2542  0.1850
 4596SOL    HW114687   7.052   5.653   3.149 -0.8629  0.1896  0.8519
 4596SOL    HW214688   6.943   5.636   3.028 -1.5882 -0.8575  1.6250
 4597SOL     OW14689   3.832   4.759   0.924 -0.0296 -0.3135  0.2609
 4597SOL    HW114690   3.762   4.771   0.854  0.6233  1.4072 -0.1472
 4597SOL    HW214691   3.918   4.731   0.882  0.5422  1.3610  0.2449
 4598SOL     OW14692   0.484   4.777   4.795 -0.6276  0.1793  0.7776
 4598SOL    HW114693   0.523   4.868   4.785  0.3852 -0.2833  0.4449
 4598SOL    HW214694   0.471   4.736   4.705  1.1305 -0.9050  0.9643
 4599SOL     OW14695   0.211   4.836   0.012  0.1684 -0.3536  0.2747
 4599SOL    HW114696   0.293   4.888   0.037  1.6738 -2.4848  0.0499
 4599SOL    HW214697   0.134   4.899  -0.001  1.9238  1.8101 -0.2420
 4600SOL     OW14698   1.906   5.104   5.150 -0.1041 -0.2908  0.0610
 4600SOL    HW114699   1.859   5.182   5.190 -0.0282  0.2792 -0.9379
 4600SOL    HW214700   1.930   5.039   5.222 -0.8405  0.2416  0.8046
 4601SOL     OW14701   1.746   1.850   5.767 -0.1193  0.0358 -0.1157
 4601SOL    HW114702   1.690   1.769   5.781  0.5513 -1.0921 -3.1670
 4601SOL    HW214703   1.692   1.932   5.787 -1.3016 -1.0759  1.4810
 4602SOL     OW14704   0.038   4.427   6.913  0.1180 -0.0658 -0.5386
 4602SOL    HW114705   0.065   4.347   6.966 -0.5757  0.5854  0.8274
 4602SOL    HW214706  -0.052   4.458   6.941 -0.0412  0.6372 -1.7292
 4603SOL     OW14707   4.741   1.235   2.345  0.0046  0.3454  0.2726
 4603SOL    HW114708   4.668   1.303   2.348 -1.8781 -1.5738  0.0897
 4603SOL    HW214709   4.750   1.191   2.435  0.5431  0.1804  0.1431
 4604SOL     OW14710   0.424   1.907   1.635  0.5864  0.1303 -0.0067
 4604SOL    HW114711   0.522   1.892   1.623  0.4816 -0.2036 -0.4403
 4604SOL    HW214712   0.373   1.850   1.572  0.1494  1.3319 -0.7734
 4605SOL     OW14713   4.779   0.656   3.010 -0.3206 -0.1325 -0.1200
 4605SOL    HW114714   4.788   0.752   3.036 -0.0227  0.0101 -0.7262
 4605SOL    HW214715   4.793   0.647   2.911  2.1490 -1.1147  0.2445
 4606SOL     OW14716   6.940   0.693   3.001 -0.6999 -0.2489 -0.1023
 4606SOL    HW114717   6.893   0.769   3.047  0.1774 -0.1656  0.7014
 4606SOL    HW214718   6.911   0.607   3.043  1.7964 -0.0586  2.3466
 4607SOL     OW14719   1.329   2.397   6.640  0.1715 -0.3604 -0.8123
 4607SOL    HW114720   1.315   2.398   6.739  1.2010  0.9446 -0.6533
 4607SOL    HW214721   1.417   2.439   6.618 -0.3005 -0.0805 -2.3318
 4608SOL     OW14722   1.162   4.558   2.892 -0.3110  0.2528 -0.4593
 4608SOL    HW114723   1.166   4.465   2.857  1.2882  0.0380  0.2212
 4608SOL    HW214724   1.132   4.556   2.987  1.7774  0.1856  0.2485
 4609SOL     OW14725   2.967   4.782   5.897 -0.2036 -0.1916  0.0705
 4609SOL    HW114726   2.930   4.786   5.990 -1.0639  0.0882 -0.2788
 4609SOL    HW214727   3.043   4.716   5.895  0.8257  0.8970  1.3004
 4610SOL     OW14728   1.992   1.412   0.641 -0.5014 -0.0736  0.1930
 4610SOL    HW114729   2.029   1.389   0.550 -1.3101 -2.8170  0.4728
 4610SOL    HW214730   2.009   1.508   0.660  0.3447  0.4116 -2.5582
 4611SOL     OW14731   6.492   4.997   6.578 -0.1811  0.3546  0.9959
 4611SOL    HW114732   6.478   5.048   6.494  1.6482 -0.9935 -0.2013
 4611SOL    HW214733   6.587   5.006   6.607 -0.6816  0.4665  2.7318
 4612SOL     OW14734   2.565   6.128   0.646  0.3615 -0.0130  0.2221
 4612SOL    HW114735   2.661   6.101   0.655  0.4301  0.6869  2.1570
 4612SOL    HW214736   2.550   6.215   0.693 -1.3869 -0.5294  0.6977
 4613SOL     OW14737   2.387   4.307   2.980  0.1242 -0.0513  0.6298
 4613SOL    HW114738   2.291   4.327   2.999 -0.6384 -0.2373 -2.4955
 4613SOL    HW214739   2.443   4.388   2.999 -1.0702  0.9371  0.0269
 4614SOL     OW14740   0.716   3.595   6.133 -0.3269 -0.3588 -0.0478
 4614SOL    HW114741   0.751   3.660   6.201  1.1863 -2.1549  0.9704
 4614SOL    HW214742   0.623   3.567   6.158 -1.7341  2.5834 -1.4328
 4615SOL     OW14743   3.208   0.958   0.215  0.1795  0.0395  0.0181
 4615SOL    HW114744   3.282   1.006   0.167 -0.1418  2.2877  1.6400
 4615SOL    HW214745   3.120   0.986   0.177  0.0445 -0.5229 -0.0879
 4616SOL     OW14746   0.279   6.561   5.933  0.4075 -0.4105 -0.2216
 4616SOL    HW114747   0.182   6.547   5.914  0.5134 -0.1549 -1.0277
 4616SOL    HW214748   0.333   6.489   5.888  0.6902  0.3828 -1.2107
 4617SOL     OW14749   2.061   2.664   2.348 -0.2274 -0.3404 -0.0945
 4617SOL    HW114750   2.120   2.741   2.370 -0.2709 -0.2355 -0.3428
 4617SOL    HW214751   2.050   2.658   2.249  0.1256 -0.9231 -0.1032
 4618SOL     OW14752   1.397   1.836   5.195  0.1473  0.2496 -0.3584
 4618SOL    HW114753   1.305   1.875   5.185  0.5339  1.1154 -0.5582
 4618SOL    HW214754   1.427   1.845   5.289 -0.3796 -0.9793 -0.0478
 4619SOL     OW14755   5.760   5.366   2.359 -0.2497 -0.2970 -0.1213
 4619SOL    HW114756   5.851   5.327   2.349 -0.1931 -0.0474 -0.6013
 4619SOL    HW214757   5.727   5.349   2.452  1.3048  1.7692  0.9077
 4620SOL     OW14758   3.464   1.823   0.343 -0.2516 -0.0407 -0.5395
 4620SOL    HW114759   3.373   1.797   0.377  0.3761 -0.9031  0.5383
 4620SOL    HW214760   3.496   1.756   0.277  0.4241 -0.8640  0.5810
 4621SOL     OW14761   6.253   1.979   4.334  0.3104  0.0991  0.3366
 4621SOL    HW114762   6.163   1.942   4.358 -0.2161 -0.2255 -1.9705
 4621SOL    HW214763   6.303   1.914   4.277  1.3671  0.9427  0.2560
 4622SOL     OW14764   1.851   3.558   0.494 -0.0908  0.2448  0.0522
 4622SOL    HW114765   1.772   3.545   0.434 -0.0044  3.2615 -0.9164
 4622SOL    HW214766   1.913   3.625   0.453  0.7254  1.3625  2.8429
 4623SOL     OW14767   0.440   6.082   0.905 -0.0833  0.5423  1.1060
 4623SOL    HW114768   0.367   6.143   0.936 -2.0395 -1.5755  0.9043
 4623SOL    HW214769   0.425   6.057   0.810  1.5239  0.8598  0.7380
 4624SOL     OW14770   5.324   6.905   2.764  0.3553  0.3311 -0.4459
 4624SOL    HW114771   5.334   6.972   2.838  1.8135 -0.5978  0.2472
 4624SOL    HW214772   5.364   6.818   2.793 -0.1837 -0.4175 -1.8775
 4625SOL     OW14773   2.949   1.433   0.199 -0.0113  0.6457 -0.1286
 4625SOL    HW114774   3.000   1.366   0.253  0.2584  0.7903 -0.2023
 4625SOL    HW214775   3.013   1.490   0.147 -0.2300  1.0533  0.0427
 4626SOL     OW14776   0.373   4.965   1.361  0.3932 -0.8665  0.0512
 4626SOL    HW114777   0.293   5.023   1.374  1.2149  0.1820  0.6049
 4626SOL    HW214778   0.348   4.884   1.309 -0.6133  0.3889 -1.4787
 4627SOL     OW14779   3.266   5.915   4.524 -0.3189 -0.4196 -0.7218
 4627SOL    HW114780   3.318   5.971   4.589  0.7081  0.5001 -2.2706
 4627SOL    HW214781   3.327   5.848   4.482 -0.7007 -0.2678 -1.5398
 4628SOL     OW14782   0.025   4.482   2.744  0.3818 -0.0792 -0.4234
 4628SOL    HW114783  -0.013   4.568   2.709 -0.0957  0.1871  0.7189
 4628SOL    HW214784   0.109   4.462   2.695 -0.0961  0.4351 -1.5120
 4629SOL     OW14785   2.026   3.674   6.355  0.2179  0.1515  0.3094
 4629SOL    HW114786   2.097   3.664   6.285  0.2209  0.5174  0.2577
 4629SOL    HW214787   1.976   3.759   6.340 -0.2395 -0.1081  0.3416
 4630SOL     OW14788   4.252   5.820   1.585  0.8748  0.2870 -0.0894
 4630SOL    HW114789   4.208   5.740   1.544  0.0514  0.8806 -0.4073
 4630SOL    HW214790   4.351   5.808   1.585  0.7830 -0.5274 -0.5605
 4631SOL     OW14791   3.164   5.466   3.664  0.1935  0.0003  0.6600
 4631SOL    HW114792   3.185   5.397   3.594 -1.8427 -1.1447  1.1036
 4631SOL    HW214793   3.235   5.537   3.662  1.5615 -1.3019 -0.8263
 4632SOL     OW14794   4.796   6.162   3.911  0.1457  0.0378  0.1651
 4632SOL    HW114795   4.704   6.138   3.944 -1.0370  1.0711 -2.1510
 4632SOL    HW214796   4.837   6.229   3.973 -0.0143 -1.5049  2.0227
 4633SOL     OW14797   6.783   6.455   4.763  0.8291  0.7585  0.4268
 4633SOL    HW114798   6.864   6.399   4.783  0.4256  0.0981  0.2626
 4633SOL    HW214799   6.797   6.506   4.679  0.7699  0.0238 -0.0370
 4634SOL     OW14800   3.190   5.582   0.460  0.1564 -0.2739  0.0415
 4634SOL    HW114801   3.185   5.521   0.381  0.7583 -1.0637  0.5874
 4634SOL    HW214802   3.168   5.530   0.543  0.2706  0.3576  0.4756
 4635SOL     OW14803   4.979   3.577   2.759 -0.1056  0.1046 -0.3934
 4635SOL    HW114804   4.989   3.620   2.669  3.6336  1.3084  0.4353
 4635SOL    HW214805   4.965   3.647   2.829  2.2785 -0.2386  0.5169
 4636SOL     OW14806   2.576   5.992   1.414  0.6003  0.2012 -0.7769
 4636SOL    HW114807   2.571   5.892   1.415 -0.2904  0.1695 -3.1823
 4636SOL    HW214808   2.650   6.021   1.474 -0.3873 -1.7547  1.5791
 4637SOL     OW14809   1.758   0.240   1.265  0.1008  0.2888 -0.1158
 4637SOL    HW114810   1.719   0.304   1.332  1.0731 -0.2535  1.0172
 4637SOL    HW214811   1.686   0.209   1.203 -0.4161  2.4367 -0.6914
 4638SOL     OW14812   3.862   3.616   5.996  0.6429 -0.1791  0.1091
 4638SOL    HW114813   3.836   3.633   6.091  1.0776  1.4336 -0.0387
 4638SOL    HW214814   3.959   3.592   5.992  1.1847  1.9064 -0.1026
 4639SOL     OW14815   2.059   4.478   5.834  0.4529 -0.0579  0.0961
 4639SOL    HW114816   2.000   4.399   5.814  0.2684  0.1240 -0.0900
 4639SOL    HW214817   2.135   4.449   5.892 -0.2736 -0.1374  1.0370
 4640SOL     OW14818   4.949   6.500   2.019  0.1891  0.4893 -0.0866
 4640SOL    HW114819   4.977   6.451   1.936  0.7204  0.2132  0.2467
 4640SOL    HW214820   4.856   6.534   2.008 -0.3940 -1.0365 -0.1481
 4641SOL     OW14821   1.808   5.040   3.141 -0.1839 -0.7575 -0.3620
 4641SOL    HW114822   1.807   4.945   3.110 -0.8468 -1.2221  1.0049
 4641SOL    HW214823   1.718   5.080   3.126  0.0003 -0.4312 -0.6238
 4642SOL     OW14824   0.197   4.601   5.289  0.4573  0.4209  0.0756
 4642SOL    HW114825   0.185   4.622   5.192  0.3387  0.0389  0.0042
 4642SOL    HW214826   0.195   4.502   5.301  2.5994  0.3355  0.1678
 4643SOL     OW14827   5.823   3.122   1.156  0.0191  0.0134  0.1854
 4643SOL    HW114828   5.868   3.066   1.225 -2.1972 -2.0801  0.0749
 4643SOL    HW214829   5.773   3.196   1.200 -1.8940 -1.6711  0.9769
 4644SOL     OW14830   2.342   4.998   4.500  0.3203 -0.5473 -0.2230
 4644SOL    HW114831   2.285   4.933   4.550 -0.0601 -0.4748 -0.5543
 4644SOL    HW214832   2.438   4.985   4.524  0.1261 -0.4057  0.6448
 4645SOL     OW14833   1.348   0.467   3.540  0.5711  0.2308 -0.2788
 4645SOL    HW114834   1.398   0.553   3.532 -1.3757  1.3197 -1.7733
 4645SOL    HW214835   1.302   0.446   3.454  2.7500 -3.5721 -0.7389
 4646SOL     OW14836   2.501   6.107   2.798 -0.7156  0.0208 -0.2647
 4646SOL    HW114837   2.525   6.016   2.761  1.3834  0.0857  0.7673
 4646SOL    HW214838   2.421   6.142   2.750 -0.3256 -1.4782 -2.1711
 4647SOL     OW14839   0.532   6.806   4.646 -0.2432 -0.1697 -0.2120
 4647SOL    HW114840   0.617   6.854   4.620 -0.5203  1.0417  0.9921
 4647SOL    HW214841   0.459   6.873   4.658 -0.6238 -0.8743  1.6685
 4648SOL     OW14842   3.906   1.458   3.056  0.4924  0.1717 -0.5387
 4648SOL    HW114843   3.811   1.486   3.072  0.8841  0.5244  1.3288
 4648SOL    HW214844   3.949   1.523   2.993  0.3412  1.7768  0.9323
 4649SOL     OW14845   5.257   6.313   6.497  0.2410 -0.9660 -0.0109
 4649SOL    HW114846   5.190   6.253   6.452  2.6362 -3.1581 -0.9165
 4649SOL    HW214847   5.307   6.365   6.428  0.2203 -0.1643  0.5642
 4650SOL     OW14848   3.959   5.675   2.953  0.2342 -0.2656  0.0971
 4650SOL    HW114849   4.054   5.661   2.924  0.0684  0.8952 -1.1512
 4650SOL    HW214850   3.939   5.773   2.952 -1.0467 -0.5159  0.0993
 4651SOL     OW14851   6.842   2.357   1.414 -0.4872  0.1232 -0.5806
 4651SOL    HW114852   6.910   2.332   1.346  1.3483  0.1331  1.1499
 4651SOL    HW214853   6.767   2.290   1.413 -0.8141  0.4460 -2.9235
 4652SOL     OW14854   0.376   1.546   3.562 -0.1702 -0.2321  0.4028
 4652SOL    HW114855   0.312   1.511   3.629  2.5491 -1.3157  2.6466
 4652SOL    HW214856   0.469   1.544   3.600  1.4202  0.0998 -3.0531
 4653SOL     OW14857   0.111   6.085   1.168 -0.0717 -0.7908 -0.0141
 4653SOL    HW114858   0.166   6.145   1.110 -1.6161 -0.2889 -1.0294
 4653SOL    HW214859   0.159   5.998   1.181  0.8477 -0.4563 -1.0537
 4654SOL     OW14860   1.567   1.144   6.621  0.4548  0.1672 -0.3717
 4654SOL    HW114861   1.493   1.116   6.682  2.2396  0.9488  2.3835
 4654SOL    HW214862   1.531   1.204   6.550 -1.4613  1.4203  1.5190
 4655SOL     OW14863   1.702   4.972   2.566  0.2853 -0.1568  0.1240
 4655SOL    HW114864   1.659   4.932   2.485  1.0710 -1.1325  0.1777
 4655SOL    HW214865   1.651   4.945   2.647  0.4500 -0.5272  0.1032
 4656SOL     OW14866   6.773   0.296   4.304 -0.0024  0.0369 -0.0931
 4656SOL    HW114867   6.789   0.387   4.340 -0.6856  0.7455 -1.5098
 4656SOL    HW214868   6.679   0.289   4.270  0.8073 -0.2892 -2.4650
 4657SOL     OW14869   5.333   0.836   1.409  0.9951 -0.2137 -0.6172
 4657SOL    HW114870   5.411   0.856   1.469  0.5120  0.6708 -0.2674
 4657SOL    HW214871   5.279   0.919   1.396  0.7169 -0.5583 -1.7476
 4658SOL     OW14872   3.720   1.251   0.301 -0.6859  0.3659 -0.0100
 4658SOL    HW114873   3.741   1.230   0.397  0.6278 -0.1221 -0.3746
 4658SOL    HW214874   3.755   1.342   0.278  0.0143  0.0324 -0.3066
 4659SOL     OW14875   3.804   3.564   6.972 -0.3926 -0.5403 -0.2115
 4659SOL    HW114876   3.794   3.599   6.879  0.0368  2.2200  0.6806
 4659SOL    HW214877   3.728   3.502   6.993 -2.0707  0.9680 -1.5124
 4660SOL     OW14878   1.903   3.103   4.627 -0.5416 -0.2974  0.1073
 4660SOL    HW114879   1.855   3.032   4.575  0.5910 -0.9765 -0.0472
 4660SOL    HW214880   1.837   3.155   4.681 -1.3235 -1.8871  0.7433
 4661SOL     OW14881   4.836   2.266   5.466 -0.2747 -0.4844 -0.4541
 4661SOL    HW114882   4.821   2.210   5.547 -1.0303  2.5034  1.6618
 4661SOL    HW214883   4.934   2.270   5.447  0.0192 -0.5634  0.8953
 4662SOL     OW14884   2.458   1.401   5.963 -0.4236 -0.1110 -0.0164
 4662SOL    HW114885   2.537   1.406   6.024 -0.0690 -0.6242 -0.4211
 4662SOL    HW214886   2.380   1.446   6.006  0.0311  0.2256  0.4751
 4663SOL     OW14887   0.487   2.125   1.786 -0.2548 -0.4088 -0.2894
 4663SOL    HW114888   0.443   2.047   1.742  1.0321 -1.1551 -0.3071
 4663SOL    HW214889   0.489   2.202   1.722 -0.9156 -0.5817 -0.5242
 4664SOL     OW14890   3.804   3.225   6.737 -0.2678  0.2299 -0.4029
 4664SOL    HW114891   3.843   3.308   6.778  1.3456 -0.0987 -1.2080
 4664SOL    HW214892   3.731   3.190   6.797  1.6652  0.0021  2.0026
 4665SOL     OW14893   3.907   0.978   0.119  0.2969 -0.2858  0.8197
 4665SOL    HW114894   3.928   0.914   0.044 -0.2164 -1.1924  1.4314
 4665SOL    HW214895   3.815   1.014   0.107  0.6075  0.4074  0.4439
 4666SOL     OW14896   2.218   0.776   1.231 -1.0282 -0.4693  0.0931
 4666SOL    HW114897   2.227   0.848   1.162 -1.8953 -0.1698  0.2799
 4666SOL    HW214898   2.298   0.777   1.291 -0.7918 -0.0001 -0.2229
 4667SOL     OW14899   0.145   4.790   0.494  0.5735  0.6086  0.4335
 4667SOL    HW114900   0.203   4.712   0.471 -0.3744 -0.3754  1.2777
 4667SOL    HW214901   0.121   4.786   0.591 -1.1497  0.8218  0.0463
 4668SOL     OW14902   1.797   2.551   3.790  0.7918  0.0596  0.6613
 4668SOL    HW114903   1.771   2.462   3.828  1.1737 -0.6705 -0.6804
 4668SOL    HW214904   1.720   2.590   3.740  0.7594  0.2823  0.8822
 4669SOL     OW14905   5.175   0.397   0.895 -0.4288  0.0925 -0.0853
 4669SOL    HW114906   5.145   0.455   0.970 -1.8748  0.6680 -1.0543
 4669SOL    HW214907   5.177   0.451   0.810  0.1814 -0.7807 -0.6465
 4670SOL     OW14908   5.045   1.294   4.836  0.4762 -0.1608 -0.3016
 4670SOL    HW114909   5.077   1.208   4.878 -0.9496 -1.0044 -0.8587
 4670SOL    HW214910   5.032   1.280   4.738  0.4120  0.7657 -0.4290
 4671SOL     OW14911   1.031   2.280   3.480  0.4438  0.2245 -0.1980
 4671SOL    HW114912   0.949   2.268   3.425 -0.1197 -0.5581  0.7720
 4671SOL    HW214913   1.062   2.375   3.475 -1.5461  0.9711  0.8173
 4672SOL     OW14914   3.972   3.942   5.914  0.4367  0.6776 -0.4865
 4672SOL    HW114915   3.879   3.906   5.925  1.2807 -1.1295  1.3923
 4672SOL    HW214916   4.007   3.915   5.824 -0.2228 -0.1794 -0.5070
 4673SOL     OW14917   5.372   0.190   0.962 -0.1233 -0.2192 -0.7617
 4673SOL    HW114918   5.439   0.247   1.010 -0.2487 -1.2035  0.6373
 4673SOL    HW214919   5.292   0.246   0.940 -0.3044  0.1512  0.7187
 4674SOL     OW14920   4.503   0.128   6.679 -0.9293 -0.1890  0.1722
 4674SOL    HW114921   4.567   0.084   6.616 -0.9922  0.5297 -0.4112
 4674SOL    HW214922   4.553   0.161   6.759 -0.6307  0.0028 -0.0889
 4675SOL     OW14923   2.413   4.081   0.620 -0.4203  0.0633 -0.0212
 4675SOL    HW114924   2.392   4.160   0.562  0.1466  0.0067 -0.3138
 4675SOL    HW214925   2.479   4.022   0.573  0.8858  0.5667  1.1305
 4676SOL     OW14926   0.535   4.284   4.194 -0.5520 -0.1199 -0.1871
 4676SOL    HW114927   0.465   4.302   4.263 -0.8977  1.7669 -0.9825
 4676SOL    HW214928   0.493   4.286   4.103 -0.0502 -2.2962 -0.5328
 4677SOL     OW14929   2.122   1.103   0.290  0.2028 -0.2138  0.1561
 4677SOL    HW114930   2.034   1.074   0.327  0.0243  0.6260  0.4143
 4677SOL    HW214931   2.191   1.032   0.307 -0.4810 -1.0250 -0.3378
 4678SOL     OW14932   1.529   4.726   5.289 -0.0802  0.1442  0.6131
 4678SOL    HW114933   1.506   4.810   5.238  2.4004 -0.7265 -2.2399
 4678SOL    HW214934   1.591   4.749   5.364 -0.1168  0.9678  0.4016
 4679SOL     OW14935   4.705   1.549   2.876  0.4250 -0.1230  0.5180
 4679SOL    HW114936   4.771   1.554   2.951  2.1983 -1.0356 -0.8809
 4679SOL    HW214937   4.652   1.634   2.872  3.0307  1.6058  0.4104
 4680SOL     OW14938   2.712   0.832   5.613 -0.4894 -0.2474  0.2235
 4680SOL    HW114939   2.658   0.892   5.672 -0.8396  1.7710 -2.0049
 4680SOL    HW214940   2.654   0.757   5.580 -0.6312 -0.6737  1.3831
 4681SOL     OW14941   4.908   4.660   1.816 -0.5493 -0.2033 -0.1307
 4681SOL    HW114942   4.955   4.748   1.822 -1.9779  0.8522 -2.5868
 4681SOL    HW214943   4.815   4.670   1.853 -0.2988 -1.0608  0.7586
 4682SOL     OW14944   5.602   4.778   4.019 -0.9420 -0.7101  0.3904
 4682SOL    HW114945   5.554   4.707   4.071 -1.3481 -0.7917 -0.0868
 4682SOL    HW214946   5.638   4.740   3.934 -0.5633 -0.5010  0.4536
 4683SOL     OW14947   4.538   5.248   2.376  0.7555  0.1741  0.2581
 4683SOL    HW114948   4.629   5.249   2.418  0.4925 -0.5173  0.8603
 4683SOL    HW214949   4.477   5.191   2.430 -0.2827  1.3386  0.3655
 4684SOL     OW14950   5.073   6.979   5.899 -0.3672 -0.4268  0.1541
 4684SOL    HW114951   5.055   7.074   5.872  0.3538 -0.0336  1.0078
 4684SOL    HW214952   5.123   6.933   5.827  3.7081  1.2994  1.5776
 4685SOL     OW14953   3.037   3.756   5.377  0.1924 -0.0930  0.3509
 4685SOL    HW114954   3.129   3.725   5.354 -0.1158  0.5900 -2.0773
 4685SOL    HW214955   2.970   3.687   5.347 -0.1686  0.1472  0.5963
 4686SOL     OW14956   2.895   6.750   0.443 -0.2493  0.3042 -0.2747
 4686SOL    HW114957   2.863   6.802   0.363  0.2597 -1.0034 -1.3751
 4686SOL    HW214958   2.993   6.730   0.432 -0.3728 -0.6384  0.2545
 4687SOL     OW14959   4.851   4.314   3.590 -0.4365 -0.5680 -0.2894
 4687SOL    HW114960   4.804   4.229   3.613 -0.6757 -0.0062  1.4218
 4687SOL    HW214961   4.937   4.293   3.544 -1.1213 -1.6822 -1.1015
 4688SOL     OW14962   0.272   5.615   6.971  0.2143  0.0307 -0.1652
 4688SOL    HW114963   0.295   5.517   6.970  2.1728  0.4402 -0.5849
 4688SOL    HW214964   0.184   5.628   7.015  0.4899 -1.8218  1.0565
 4689SOL     OW14965   5.403   0.077   2.953 -0.1095 -0.4327  0.1518
 4689SOL    HW114966   5.315   0.068   2.999 -0.0443 -1.5466  0.0949
 4689SOL    HW214967   5.477   0.051   3.016  0.1314 -0.0812  0.0180
 4690SOL     OW14968   2.404   1.421   2.115  0.1019 -0.3889  0.1985
 4690SOL    HW114969   2.469   1.403   2.188  0.7620 -0.3171 -0.3643
 4690SOL    HW214970   2.450   1.465   2.038 -1.0724  2.0351  0.7598
 4691SOL     OW14971   3.219   4.113   6.563 -0.3680  0.5987 -0.0218
 4691SOL    HW114972   3.292   4.165   6.519 -1.0226  3.0824  1.6244
 4691SOL    HW214973   3.172   4.171   6.629 -5.4705 -0.0115 -2.6130
 4692SOL     OW14974   5.771   4.013   4.298 -0.3776 -0.1811 -0.3606
 4692SOL    HW114975   5.756   4.103   4.339  0.5559  0.0038 -0.4160
 4692SOL    HW214976   5.795   3.948   4.369 -2.7106 -0.8257 -0.0554
 4693SOL     OW14977   1.417   0.824   5.025 -0.0723  0.3447  0.5376
 4693SOL    HW114978   1.359   0.886   5.078  0.3879  1.3141 -0.0536
 4693SOL    HW214979   1.507   0.867   5.010  0.0693 -0.2292 -0.3460
 4694SOL     OW14980   2.705   1.472   0.288  0.4682 -0.0159 -0.4182
 4694SOL    HW114981   2.794   1.436   0.262 -0.3054 -2.7093  0.3452
 4694SOL    HW214982   2.675   1.429   0.373 -1.2143  1.4630 -0.1957
 4695SOL     OW14983   0.975   6.373   0.491 -0.2852 -0.3212  0.1437
 4695SOL    HW114984   1.074   6.387   0.499 -0.3409  0.7675 -0.7818
 4695SOL    HW214985   0.954   6.276   0.503  0.7089 -0.3654  1.9537
 4696SOL     OW14986   1.356   6.411   4.166  0.2532 -0.3922  0.0907
 4696SOL    HW114987   1.386   6.505   4.179 -0.8683 -0.0684  0.4267
 4696SOL    HW214988   1.292   6.385   4.239 -0.4125 -0.9944 -0.6842
 4697SOL     OW14989   0.246   2.835   2.492 -0.0401  0.4539  0.3984
 4697SOL    HW114990   0.184   2.878   2.426 -0.0932 -0.1392  0.0611
 4697SOL    HW214991   0.313   2.903   2.523 -0.8655  1.1046  0.7866
 4698SOL     OW14992   3.851   5.127   3.282  0.6912  0.1536  0.0285
 4698SOL    HW114993   3.819   5.200   3.342 -1.0043 -0.7991  0.3463
 4698SOL    HW214994   3.846   5.159   3.187 -1.7604 -0.0686  0.0133
 4699SOL     OW14995   1.098   5.785   1.868 -0.4268  0.6097  0.5648
 4699SOL    HW114996   1.190   5.746   1.875 -0.2486  0.7314 -0.7725
 4699SOL    HW214997   1.034   5.730   1.922  0.1400 -0.4732  0.1648
 4700SOL     OW14998   6.302   4.397   1.446  0.6448 -0.2187 -0.6592
 4700SOL    HW114999   6.284   4.386   1.348  2.3143  0.2885 -1.0669
 4700SOL    HW215000   6.355   4.480   1.461 -1.3108  0.8392  0.9474
 4701SOL     OW15001   1.731   3.687   6.279 -0.2859 -0.5557  0.6715
 4701SOL    HW115002   1.742   3.751   6.355  2.2217 -0.9526  0.7376
 4701SOL    HW215003   1.722   3.594   6.316 -0.1750 -0.6307  0.5120
 4702SOL     OW15004   3.442   4.447   1.680 -0.2031 -0.2807  0.2096
 4702SOL    HW115005   3.495   4.371   1.645 -0.5503  0.1492 -1.3255
 4702SOL    HW215006   3.501   4.507   1.734  0.0548 -1.6383  1.5249
 4703SOL     OW15007   1.000   5.531   1.969  0.2225  0.2730  0.5454
 4703SOL    HW115008   1.007   5.505   1.873  0.2541 -1.2511  0.9331
 4703SOL    HW215009   0.905   5.555   1.990  0.0135 -0.3637  0.3549
 4704SOL     OW15010   6.713   4.312   5.376 -0.5690 -0.6811 -0.4130
 4704SOL    HW115011   6.660   4.375   5.433 -0.8418 -0.5888 -0.7630
 4704SOL    HW215012   6.661   4.228   5.361  0.6097 -1.9080  1.7722
 4705SOL     OW15013   2.309   3.272   6.624 -0.0293 -0.0905 -0.3655
 4705SOL    HW115014   2.378   3.202   6.642  0.0358  0.3545  1.2723
 4705SOL    HW215015   2.344   3.337   6.557 -0.4032 -2.0353 -2.5485
 4706SOL     OW15016   1.099   0.668   1.196 -0.1775  0.0153 -0.6050
 4706SOL    HW115017   1.032   0.639   1.264  0.4396 -0.2471 -0.0968
 4706SOL    HW215018   1.167   0.596   1.183  1.7605  1.4172  1.1498
 4707SOL     OW15019   1.959   6.425   2.552  0.5344  0.2681  0.0115
 4707SOL    HW115020   1.929   6.513   2.587 -2.9660 -0.2156 -1.3879
 4707SOL    HW215021   1.937   6.353   2.618  1.1560  0.1534  0.1063
 4708SOL     OW15022   1.639   6.909   0.566  0.0630  0.2165  0.2797
 4708SOL    HW115023   1.572   6.864   0.626  1.1177  1.9187  2.9345
 4708SOL    HW215024   1.718   6.849   0.554 -0.1268 -0.1268  0.6965
 4709SOL     OW15025   3.625   5.611   5.133  0.3500  0.3132  0.2459
 4709SOL    HW115026   3.675   5.655   5.058 -2.0335 -0.1845 -1.7353
 4709SOL    HW215027   3.689   5.591   5.208  3.4785 -1.7180 -2.6872
 4710SOL     OW15028   5.906   5.833   0.000 -0.1342  0.2583  0.2911
 4710SOL    HW115029   5.818   5.838   0.048 -0.2899 -0.7292  0.1348
 4710SOL    HW215030   5.977   5.805   0.065  0.2856  2.0279  0.6528
 4711SOL     OW15031   1.164   2.163   1.954 -0.2048  0.0988  0.4756
 4711SOL    HW115032   1.184   2.067   1.970  1.2846  0.3736  0.3778
 4711SOL    HW215033   1.071   2.183   1.986 -1.0848 -1.6611 -0.7757
 4712SOL     OW15034   3.297   5.746   5.928 -0.0627  0.2872 -0.4917
 4712SOL    HW115035   3.232   5.821   5.915  0.0105  0.4542  0.0516
 4712SOL    HW215036   3.247   5.663   5.954 -0.0961  0.3132 -0.4744
 4713SOL     OW15037   2.407   5.016   0.618 -0.0826  0.4802  0.2443
 4713SOL    HW115038   2.362   5.102   0.642 -0.8231  0.1747 -0.0306
 4713SOL    HW215039   2.343   4.941   0.627  0.0760  0.1565 -1.0846
 4714SOL     OW15040   0.186   0.319   6.095  0.3042  0.7107 -0.2227
 4714SOL    HW115041   0.217   0.302   6.189 -2.4361 -2.3863  0.3320
 4714SOL    HW215042   0.153   0.413   6.087 -0.2244  0.7981  2.2348
 4715SOL     OW15043   0.900   4.241   1.571 -0.0457  0.3680  0.2550
 4715SOL    HW115044   0.825   4.292   1.531 -0.6816 -0.3833  0.4654
 4715SOL    HW215045   0.948   4.297   1.639 -2.6979 -0.3024  2.8638
 4716SOL     OW15046   4.604   6.106   5.948 -0.1375  0.5274 -0.3358
 4716SOL    HW115047   4.690   6.125   5.995  1.5206  0.0999 -2.9443
 4716SOL    HW215048   4.546   6.050   6.006  2.3150 -1.1226  0.7315
 4717SOL     OW15049   2.472   4.515   4.859 -0.1687  0.2285  0.0949
 4717SOL    HW115050   2.552   4.455   4.860  1.8517  2.5260 -3.1046
 4717SOL    HW215051   2.441   4.528   4.764 -3.3128  0.8132  1.0886
 4718SOL     OW15052   5.994   1.852   1.059  0.2477 -1.0106  0.1115
 4718SOL    HW115053   6.005   1.918   0.986  1.2986  1.0834  2.0426
 4718SOL    HW215054   6.076   1.795   1.066  1.4212  0.7137  1.3688
 4719SOL     OW15055   5.221   3.700   2.088 -0.2991 -0.3520  0.6185
 4719SOL    HW115056   5.314   3.676   2.061 -0.1034  0.4005  0.5995
 4719SOL    HW215057   5.206   3.797   2.072 -1.1040 -0.4724  0.5865
 4720SOL     OW15058   0.465   2.665   6.821  0.7693 -0.3145  0.6140
 4720SOL    HW115059   0.404   2.588   6.805 -1.2212  1.6234 -1.9608
 4720SOL    HW215060   0.463   2.690   6.917 -0.1347 -2.1215  1.1144
 4721SOL     OW15061   0.713   4.103   1.064 -0.1260 -0.0868  0.9125
 4721SOL    HW115062   0.716   4.052   1.150  0.7989 -1.2265  0.2498
 4721SOL    HW215063   0.644   4.062   1.004 -1.5351  1.3679  1.4633
 4722SOL     OW15064   0.745   4.885   2.186 -0.3320 -0.5008  0.8536
 4722SOL    HW115065   0.746   4.802   2.242 -0.1400 -0.3338  1.1042
 4722SOL    HW215066   0.651   4.917   2.176 -0.5570 -1.4867 -0.3633
 4723SOL     OW15067   3.342   3.482   3.748 -0.5082  0.0836 -0.0065
 4723SOL    HW115068   3.427   3.496   3.698  0.2269 -0.3343  1.0835
 4723SOL    HW215069   3.317   3.566   3.796 -2.5483  1.3054 -2.9460
 4724SOL     OW15070   5.664   6.048   2.089  0.2594  0.1028 -0.3323
 4724SOL    HW115071   5.607   6.072   2.010  0.8138 -1.1673 -1.1535
 4724SOL    HW215072   5.756   6.026   2.058  0.6800  0.2890  0.7614
 4725SOL     OW15073   5.929   4.759   1.109  0.4307 -0.4241  0.2092
 4725SOL    HW115074   5.957   4.761   1.205 -0.0407 -1.9802  0.4161
 4725SOL    HW215075   5.838   4.718   1.102  1.4985 -2.7970 -1.0813
 4726SOL     OW15076   0.064   2.497   4.736 -0.1848  0.3672  0.3485
 4726SOL    HW115077   0.085   2.399   4.736  0.0140  0.4084  0.5896
 4726SOL    HW215078   0.092   2.538   4.649 -0.2325  0.2183  0.2632
 4727SOL     OW15079   0.475   5.781   1.570 -0.0051 -0.9102  0.4099
 4727SOL    HW115080   0.559   5.733   1.544 -0.9813 -1.4104 -2.1727
 4727SOL    HW215081   0.496   5.875   1.594  1.3754 -1.2504  0.6163
 4728SOL     OW15082   6.689   0.204   2.895 -0.1163  0.7992  0.2878
 4728SOL    HW115083   6.628   0.180   2.819  1.2341 -0.1911 -0.5417
 4728SOL    HW215084   6.739   0.288   2.874  0.5126  0.3398 -0.1105
 4729SOL     OW15085   5.994   6.365   0.545  0.2767  0.4618 -0.3796
 4729SOL    HW115086   5.965   6.284   0.597  0.7838  0.0551 -0.7271
 4729SOL    HW215087   5.930   6.440   0.563  0.7882  0.5297  1.3279
 4730SOL     OW15088   2.716   4.846   6.425  0.5083 -0.1776  0.7425
 4730SOL    HW115089   2.641   4.861   6.360 -1.1536  0.4279  2.6593
 4730SOL    HW215090   2.754   4.935   6.453  3.7853 -0.5160 -2.0679
 4731SOL     OW15091   4.278   0.561   1.731  0.1027 -0.0807  0.0494
 4731SOL    HW115092   4.230   0.645   1.707  0.3851 -0.5141 -2.3475
 4731SOL    HW215093   4.358   0.583   1.787  0.1642  1.2544 -0.5328
 4732SOL     OW15094   0.911   3.812   6.641 -0.1358  0.2806 -0.3977
 4732SOL    HW115095   0.960   3.899   6.634  0.7944 -0.3148 -1.5508
 4732SOL    HW215096   0.814   3.827   6.618 -0.2927  1.2607  0.8319
 4733SOL     OW15097   1.501   5.328   2.838  0.0596 -0.1672  0.4249
 4733SOL    HW115098   1.470   5.293   2.750  1.0375 -0.7200  0.2882
 4733SOL    HW215099   1.422   5.359   2.891 -0.4986  0.7807 -0.8903
 4734SOL     OW15100   4.173   2.434   1.311  0.4102  0.6331 -0.1203
 4734SOL    HW115101   4.085   2.452   1.265 -0.1471 -1.7561 -0.1103
 4734SOL    HW215102   4.167   2.463   1.406 -1.2709 -1.5684  0.5375
 4735SOL     OW15103   6.598   4.740   3.802  0.1828 -0.7724  0.1877
 4735SOL    HW115104   6.691   4.730   3.838  0.9957 -0.4631 -1.6887
 4735SOL    HW215105   6.601   4.736   3.702 -1.3815  2.4827 -0.0971
 4736SOL     OW15106   0.424   3.414   5.275 -0.2242 -0.5932 -0.0389
 4736SOL    HW115107   0.336   3.455   5.252 -0.3033 -1.1337 -0.7326
 4736SOL    HW215108   0.498   3.469   5.236 -0.3096 -0.8039 -0.5095
 4737SOL     OW15109   2.699   3.402   6.726  0.2725 -0.4318 -0.1523
 4737SOL    HW115110   2.797   3.422   6.729 -0.0291  1.1834 -0.2089
 4737SOL    HW215111   2.652   3.470   6.670 -1.1368 -0.0024  1.4389
 4738SOL     OW15112   2.751   6.581   4.914  0.0360 -0.5469  0.8059
 4738SOL    HW115113   2.721   6.516   4.983 -2.1497  1.0447  1.4535
 4738SOL    HW215114   2.836   6.624   4.944  1.4705 -2.9193  0.4095
 4739SOL     OW15115   0.519   1.833   3.541  0.5846  0.4855 -0.4270
 4739SOL    HW115116   0.498   1.830   3.443  0.6505 -0.2185 -0.4204
 4739SOL    HW215117   0.617   1.845   3.554  0.8326 -1.2556 -0.4606
 4740SOL     OW15118   0.312   0.640   0.065 -0.2114  0.0197 -0.0982
 4740SOL    HW115119   0.301   0.541   0.078 -1.6556  0.0479 -0.9938
 4740SOL    HW215120   0.366   0.657  -0.017  0.4630 -0.0043  0.3239
 4741SOL     OW15121   4.450   3.885   0.831 -0.1419 -0.1226 -0.4149
 4741SOL    HW115122   4.526   3.944   0.856 -0.9547  0.1232  1.6830
 4741SOL    HW215123   4.481   3.790   0.828  0.4905  0.0894 -0.7860
 4742SOL     OW15124   2.090   5.629   2.565  0.3092  0.6394 -0.6216
 4742SOL    HW115125   2.176   5.617   2.615 -1.0100  0.2074  1.6924
 4742SOL    HW215126   2.049   5.716   2.590 -0.0486  0.7362 -1.5242
 4743SOL     OW15127   2.548   2.368   6.106 -0.1060 -0.0190 -0.5958
 4743SOL    HW115128   2.450   2.346   6.112  0.0465 -0.6082 -0.1339
 4743SOL    HW215129   2.580   2.401   6.194  0.1155  0.1530 -0.7419
 4744SOL     OW15130   1.947   2.865   6.930  0.3410  0.1808  0.6988
 4744SOL    HW115131   2.043   2.888   6.913  0.8583 -2.5068 -0.4985
 4744SOL    HW215132   1.888   2.922   6.872  1.3392  0.4711 -0.0538
 4745SOL     OW15133   2.358   5.672   6.860  0.1700  0.2841  0.0874
 4745SOL    HW115134   2.329   5.577   6.846 -0.8397  0.7964 -1.6337
 4745SOL    HW215135   2.278   5.732   6.853  0.9472  1.3426  0.1454
 4746SOL     OW15136   4.500   6.141   2.198 -0.3163 -0.1401 -0.3373
 4746SOL    HW115137   4.580   6.081   2.187  0.9671  1.8777 -3.0789
 4746SOL    HW215138   4.512   6.196   2.281  0.6089 -0.6078 -0.1423
 4747SOL     OW15139   1.406   4.068   6.785 -0.3959 -0.2100 -0.3278
 4747SOL    HW115140   1.319   4.095   6.826 -1.3119 -1.1733 -1.5801
 4747SOL    HW215141   1.472   4.142   6.797 -0.7261 -0.2440  2.4241
 4748SOL     OW15142   1.582   0.326   2.262  0.5286  0.3835 -0.4391
 4748SOL    HW115143   1.655   0.360   2.321  0.0646 -1.1011  1.0361
 4748SOL    HW215144   1.593   0.228   2.248 -0.5890  0.3283 -1.0746
 4749SOL     OW15145   1.684   0.475   6.579  0.3536  0.1325  0.4249
 4749SOL    HW115146   1.608   0.412   6.593  1.1948 -1.8128 -2.6220
 4749SOL    HW215147   1.650   0.569   6.577 -2.2077 -0.7066 -1.6465
 4750SOL     OW15148   6.966   3.027   3.782  0.2406 -1.0026  0.6469
 4750SOL    HW115149   7.014   2.954   3.734 -0.1458 -0.6678 -0.2754
 4750SOL    HW215150   6.953   3.105   3.720 -0.6151 -0.7086  1.1721
 4751SOL     OW15151   2.597   2.493   6.618 -0.4950 -0.2627 -0.3518
 4751SOL    HW115152   2.673   2.468   6.679 -1.4737 -2.0667  0.1837
 4751SOL    HW215153   2.612   2.452   6.528 -0.4094  0.1311 -0.5212
 4752SOL     OW15154   4.902   1.584   0.432 -0.8917 -0.3502  0.4860
 4752SOL    HW115155   4.848   1.513   0.478  0.1828 -1.8559 -0.4660
 4752SOL    HW215156   4.913   1.560   0.335 -0.3257  1.0286  0.1849
 4753SOL     OW15157   4.752   6.943   3.520  0.2310  0.3913 -0.3717
 4753SOL    HW115158   4.725   6.880   3.592  2.0704 -0.6384 -0.5170
 4753SOL    HW215159   4.674   7.000   3.494 -1.1765 -1.0270  0.5696
 4754SOL     OW15160   7.020   0.521   5.066 -0.1587 -0.2458  0.0654
 4754SOL    HW115161   7.084   0.589   5.031 -0.3135 -0.5923 -0.9168
 4754SOL    HW215162   7.045   0.497   5.160  0.4463  0.4803  0.0966
 4755SOL     OW15163   1.893   1.665   6.831  0.5036  0.2540 -0.2993
 4755SOL    HW115164   1.923   1.576   6.795  0.0796 -0.2614  0.5913
 4755SOL    HW215165   1.946   1.687   6.913 -0.1252  0.3013  0.1042
 4756SOL     OW15166   4.992   2.706   6.439 -0.6692  0.0738 -0.1947
 4756SOL    HW115167   4.910   2.706   6.382 -1.2669  1.2689  0.6230
 4756SOL    HW215168   5.066   2.752   6.391 -1.8307  3.2135  0.8088
 4757SOL     OW15169   0.357   0.504   4.004 -0.7518  0.2071  0.0050
 4757SOL    HW115170   0.390   0.597   3.989  0.1981 -0.1387 -0.0607
 4757SOL    HW215171   0.258   0.502   3.988 -0.4582  0.7368 -2.1623
 4758SOL     OW15172   3.945   5.086   4.401  0.5569  0.4731  0.0730
 4758SOL    HW115173   3.925   5.043   4.488  3.6481  0.9388  1.1334
 4758SOL    HW215174   3.887   5.167   4.389  1.1691  1.3477  2.5136
 4759SOL     OW15175   4.672   5.167   6.059 -0.2019  0.3259  0.8847
 4759SOL    HW115176   4.647   5.187   6.153 -1.7546 -0.7633  0.7440
 4759SOL    HW215177   4.622   5.227   5.997  0.2669  0.5507  0.7163
 4760SOL     OW15178   5.363   1.597   1.563 -0.0230  0.1890 -0.2271
 4760SOL    HW115179   5.342   1.517   1.620  0.7808 -0.2387 -0.5134
 4760SOL    HW215180   5.458   1.592   1.532  0.4317  1.9217  0.7879
 4761SOL     OW15181   6.609   1.345   6.879 -0.5717 -0.1020  0.1694
 4761SOL    HW115182   6.630   1.370   6.785  0.0895  0.6241  0.5069
 4761SOL    HW215183   6.612   1.426   6.937 -1.1317 -0.5182  0.7937
 4762SOL     OW15184   2.899   4.794   2.283 -0.0072  0.5923 -0.1379
 4762SOL    HW115185   2.863   4.802   2.190 -1.7310 -2.0730  0.2156
 4762SOL    HW215186   2.824   4.777   2.347  1.4823 -1.7026  1.1427
 4763SOL     OW15187   4.638   4.874   1.140  0.0330 -0.0124 -0.1398
 4763SOL    HW115188   4.705   4.860   1.067  0.5247 -0.0222  0.3022
 4763SOL    HW215189   4.558   4.921   1.104  0.7103  0.9221 -0.4603
 4764SOL     OW15190   5.895   4.507   4.830  0.7026 -0.5474 -0.1645
 4764SOL    HW115191   5.842   4.423   4.818 -0.5530  0.2457 -0.4290
 4764SOL    HW215192   5.971   4.509   4.764 -1.0745 -0.1117 -2.3444
 4765SOL     OW15193   4.420   5.010   5.444  0.1570  0.6589  0.3360
 4765SOL    HW115194   4.408   4.990   5.347 -1.2600  0.5875  0.5003
 4765SOL    HW215195   4.511   4.982   5.473  0.5875  0.6607 -0.9668
 4766SOL     OW15196   3.792   6.638   4.140  0.0026  0.0317 -0.2046
 4766SOL    HW115197   3.788   6.539   4.152  2.2011 -0.2814 -1.4510
 4766SOL    HW215198   3.856   6.678   4.206  1.7715  0.0953 -1.8714
 4767SOL     OW15199   2.480   6.731   6.182 -0.0257 -0.1558 -0.0284
 4767SOL    HW115200   2.423   6.716   6.264 -0.8755 -0.3817 -0.6483
 4767SOL    HW215201   2.461   6.822   6.145  0.2780 -0.0964 -0.0372
 4768SOL     OW15202   4.963   3.421   4.908  0.0048 -0.5005 -0.2085
 4768SOL    HW115203   4.916   3.507   4.927  0.3572 -0.8189  2.3920
 4768SOL    HW215204   5.050   3.418   4.957 -0.3934 -2.6827  0.4730
 4769SOL     OW15205   2.172   4.305   1.326  0.5159 -1.1835 -0.0188
 4769SOL    HW115206   2.212   4.264   1.244 -0.5394  0.8023 -1.6205
 4769SOL    HW215207   2.237   4.298   1.402  1.6813 -2.7550 -1.1020
 4770SOL     OW15208   1.492   5.909   3.970  0.4749  0.1289  0.2292
 4770SOL    HW115209   1.465   5.832   4.028  2.1505 -2.4367 -2.1039
 4770SOL    HW215210   1.412   5.941   3.918 -0.1152 -0.5126  0.7211
 4771SOL     OW15211   2.534   4.651   6.541 -1.4096  0.2993  0.3664
 4771SOL    HW115212   2.578   4.713   6.477 -0.0809  1.4575  2.2786
 4771SOL    HW215213   2.603   4.608   6.599 -2.4914 -1.2970  0.5273
 4772SOL     OW15214   3.260   6.341   3.542  0.3736  0.2889  0.7541
 4772SOL    HW115215   3.297   6.396   3.467  1.2268 -1.7884 -0.4168
 4772SOL    HW215216   3.232   6.402   3.616  0.6851  2.3295 -0.7022
 4773SOL     OW15217   5.003   5.100   5.455 -0.2774  0.5522  0.2883
 4773SOL    HW115218   4.964   5.129   5.543 -0.3897 -1.3669  0.9403
 4773SOL    HW215219   4.929   5.092   5.387 -0.2468  1.6826  0.1137
 4774SOL     OW15220   0.977   2.890   0.699 -0.2611 -0.0440  0.3043
 4774SOL    HW115221   1.059   2.835   0.714  1.3610  1.8679 -1.1518
 4774SOL    HW215222   0.942   2.922   0.788  1.8863  0.9228  0.8579
 4775SOL     OW15223   3.921   0.135   3.081 -0.2693  0.5811 -0.0927
 4775SOL    HW115224   3.939   0.187   2.998  2.0442  0.2004  0.0947
 4775SOL    HW215225   3.879   0.047   3.057 -1.7071  1.3947 -0.6316
 4776SOL     OW15226   1.166   0.737   5.123  0.2054  0.6737 -0.1020
 4776SOL    HW115227   1.175   0.687   5.210  0.1354  0.7619 -0.0441
 4776SOL    HW215228   1.256   0.744   5.080  0.3580  1.2348  0.3019
 4777SOL     OW15229   2.717   5.904   6.892 -0.3538  0.1318 -0.4193
 4777SOL    HW115230   2.635   5.868   6.937 -0.2123  0.2721 -0.0463
 4777SOL    HW215231   2.782   5.936   6.961  0.7355 -1.4899 -0.6164
 4778SOL     OW15232   6.070   2.585   2.870  0.5194 -0.0181 -0.3165
 4778SOL    HW115233   6.010   2.608   2.947 -0.4064  1.4095 -1.3960
 4778SOL    HW215234   6.107   2.669   2.830  1.9261 -0.7917 -0.7210
 4779SOL     OW15235   6.271   6.059   4.184 -0.3788  0.2439 -0.1414
 4779SOL    HW115236   6.356   6.106   4.203  0.4602 -1.5918  0.8809
 4779SOL    HW215237   6.287   5.960   4.180 -2.3279 -0.1038 -0.6556
 4780SOL     OW15238   1.192   2.016   4.916 -0.0681  0.1242 -0.3281
 4780SOL    HW115239   1.159   2.052   4.829 -0.9608 -0.4745 -0.2598
 4780SOL    HW215240   1.117   1.966   4.961  0.5944 -0.1934  0.4360
 4781SOL     OW15241   4.238   0.633   2.550 -0.0617  0.2763  0.4676
 4781SOL    HW115242   4.172   0.557   2.544 -0.6537  0.8707 -0.8661
 4781SOL    HW215243   4.331   0.596   2.549 -0.3376 -0.4370 -0.1651
 4782SOL     OW15244   4.496   6.121   1.502 -0.8960  0.0794 -0.2227
 4782SOL    HW115245   4.486   6.082   1.594 -2.4379 -0.7629 -0.7161
 4782SOL    HW215246   4.587   6.162   1.493 -1.0778  1.1387  2.0353
 4783SOL     OW15247   4.136   4.035   0.477 -0.1564  0.4733  0.1014
 4783SOL    HW115248   4.132   3.964   0.407 -2.4907  0.6429 -0.0050
 4783SOL    HW215249   4.223   4.084   0.471  0.9795 -1.5571 -0.6035
 4784SOL     OW15250   5.999   4.846   6.244  0.5325  0.0178 -0.3035
 4784SOL    HW115251   6.022   4.931   6.195  0.1141  1.1539  1.3674
 4784SOL    HW215252   6.020   4.768   6.186 -0.6249  1.2726 -2.5837
 4785SOL     OW15253   1.135   5.642   0.837 -0.6064  0.0608  0.4617
 4785SOL    HW115254   1.103   5.629   0.931  0.3686 -0.3823  0.7449
 4785SOL    HW215255   1.056   5.645   0.775 -1.5224  3.2084  1.5616
 4786SOL     OW15256   2.209   2.052   1.773 -0.2499 -0.3012  0.2547
 4786SOL    HW115257   2.232   2.022   1.866  1.7141 -0.1430 -0.1504
 4786SOL    HW215258   2.217   1.974   1.710 -3.4412 -0.9173  0.4033
 4787SOL     OW15259   1.899   1.900   3.417  0.3083  0.2867 -0.1867
 4787SOL    HW115260   1.841   1.863   3.345  0.2214  0.9877 -0.4877
 4787SOL    HW215261   1.967   1.831   3.444 -1.0174 -0.7545  0.5869
 4788SOL     OW15262   1.218   2.879   6.765  0.0895 -0.0215  0.3040
 4788SOL    HW115263   1.231   2.827   6.681  0.5573  2.4251 -1.2520
 4788SOL    HW215264   1.121   2.898   6.779  0.1595  1.6793 -1.1477
 4789SOL     OW15265   5.009   0.624   1.475 -0.2615 -0.5950 -0.4622
 4789SOL    HW115266   5.081   0.689   1.449  0.0269 -1.2830 -1.4456
 4789SOL    HW215267   5.004   0.618   1.575  0.0758  0.5148 -0.3623
 4790SOL     OW15268   6.284   2.276   0.080  0.6723 -0.0277 -0.1962
 4790SOL    HW115269   6.241   2.208   0.020  1.7776 -1.2054  0.3004
 4790SOL    HW215270   6.296   2.361   0.029 -0.6666 -0.2078 -0.8639
 4791SOL     OW15271   5.911   2.703   1.287  0.3038  0.3256  0.5899
 4791SOL    HW115272   5.913   2.647   1.369 -0.5188  0.0057  0.3987
 4791SOL    HW215273   5.989   2.678   1.228 -0.5870 -1.3432  0.0480
 4792SOL     OW15274   2.793   2.357   3.046 -0.0909 -0.3556 -0.0615
 4792SOL    HW115275   2.878   2.316   3.014  0.0602 -0.7779  0.8464
 4792SOL    HW215276   2.732   2.372   2.969  0.3764 -1.0666 -0.5830
 4793SOL     OW15277   0.738   1.388   0.084  0.6964  0.3812  0.4862
 4793SOL    HW115278   0.701   1.407   0.174  0.0867  2.0416 -0.0791
 4793SOL    HW215279   0.823   1.440   0.070  1.0837 -0.2883  0.2937
 4794SOL     OW15280   3.721   0.637   3.603  0.2289 -0.0844  0.8921
 4794SOL    HW115281   3.798   0.696   3.580  0.5379 -0.4005  1.1028
 4794SOL    HW215282   3.749   0.541   3.597 -0.3806 -0.2239  0.1696
 4795SOL     OW15283   0.300   2.577   3.063  0.4664  0.4477 -0.1446
 4795SOL    HW115284   0.260   2.487   3.079  0.4334  0.2863 -1.1224
 4795SOL    HW215285   0.286   2.605   2.968  1.7335  0.8548 -0.2343
 4796SOL     OW15286   6.753   3.183   5.256 -0.1828  0.4750  0.1216
 4796SOL    HW115287   6.692   3.255   5.290 -0.5105 -0.5365  1.8333
 4796SOL    HW215288   6.737   3.099   5.309  0.3290 -0.8071 -1.6817
 4797SOL     OW15289   0.254   4.581   6.390 -0.8127  0.5800 -0.3520
 4797SOL    HW115290   0.178   4.535   6.435 -0.9102  1.3332  0.2565
 4797SOL    HW215291   0.222   4.664   6.344 -0.1799  1.5641  0.9258
 4798SOL     OW15292   1.719   4.391   3.910 -0.2637 -0.1267  0.3374
 4798SOL    HW115293   1.788   4.464   3.917 -1.2156  0.8729 -0.3209
 4798SOL    HW215294   1.652   4.402   3.983 -1.2095  0.5511 -0.6078
 4799SOL     OW15295   4.881   2.916   5.989 -0.5849 -0.5142  0.4377
 4799SOL    HW115296   4.913   3.002   5.950  0.4895 -0.7937  0.6887
 4799SOL    HW215297   4.781   2.919   5.997 -0.5928  0.5652  0.1249
 4800SOL     OW15298   1.353   3.706   4.874  0.4732  0.7396  0.6071
 4800SOL    HW115299   1.380   3.723   4.780 -1.9935 -0.7720 -0.4541
 4800SOL    HW215300   1.378   3.785   4.930  1.5163  1.8986 -1.3855
 4801SOL     OW15301   2.286   3.026   1.692  0.6596 -0.3011  0.3716
 4801SOL    HW115302   2.245   2.978   1.770 -0.1043  1.2255  0.9523
 4801SOL    HW215303   2.234   3.004   1.609 -0.7390  0.7596  0.9174
 4802SOL     OW15304   3.294   5.217   2.677 -0.3201 -0.4460  0.0467
 4802SOL    HW115305   3.285   5.287   2.747 -2.2357 -1.2596  0.6600
 4802SOL    HW215306   3.349   5.141   2.712 -0.2611 -0.3154  0.2343
 4803SOL     OW15307   2.643   0.526   1.570  0.3575 -0.2996 -0.6158
 4803SOL    HW115308   2.549   0.506   1.544  0.4113 -0.3139 -0.8037
 4803SOL    HW215309   2.683   0.447   1.616 -0.0233  0.0379  0.3191
 4804SOL     OW15310   3.476   5.720   1.114 -0.6942 -0.1135  0.1723
 4804SOL    HW115311   3.417   5.650   1.154  0.0869 -0.0341  1.5058
 4804SOL    HW215312   3.503   5.785   1.185  0.9859 -0.1372 -0.4134
 4805SOL     OW15313   5.598   6.925   2.004  0.4308 -0.4178  0.4720
 4805SOL    HW115314   5.591   6.990   1.929 -0.2497 -0.8199  0.1805
 4805SOL    HW215315   5.608   6.974   2.090  1.4139  0.0469  0.1159
 4806SOL     OW15316   0.568   3.210   2.695  0.1257 -0.3890  0.5185
 4806SOL    HW115317   0.607   3.298   2.722  2.4973 -1.3646  0.5125
 4806SOL    HW215318   0.469   3.218   2.689  0.3686  2.9130 -1.7577
 4807SOL     OW15319   0.802   4.703   0.485  0.0735 -0.0697  0.2584
 4807SOL    HW115320   0.811   4.801   0.502  0.2198 -0.1908  0.8913
 4807SOL    HW215321   0.711   4.672   0.514  0.1494 -0.1855  0.3752
 4808SOL     OW15322   6.238   4.102   6.409 -0.5032  0.0563  0.0352
 4808SOL    HW115323   6.200   4.010   6.407  0.0956 -0.2186  0.7125
 4808SOL    HW215324   6.176   4.162   6.459 -0.4272 -0.2100  0.4546
 4809SOL     OW15325   4.382   3.493   5.932  0.3299  0.0650 -0.6019
 4809SOL    HW115326   4.408   3.538   6.018 -2.2125  1.4389 -0.4598
 4809SOL    HW215327   4.308   3.428   5.950 -0.2380  0.3748 -1.7327
 4810SOL     OW15328   2.929   6.748   1.628  0.3817 -0.1623 -0.2115
 4810SOL    HW115329   2.991   6.747   1.707  0.2109  1.0186 -0.0351
 4810SOL    HW215330   2.889   6.840   1.619 -1.6677 -0.9951 -0.0823
 4811SOL     OW15331   0.679   4.411   2.227 -0.2019 -0.5915 -1.0044
 4811SOL    HW115332   0.613   4.370   2.164 -0.8772  0.8147 -1.2332
 4811SOL    HW215333   0.718   4.339   2.284 -0.0196 -1.8104 -2.5949
 4812SOL     OW15334   2.055   4.238   5.445 -0.0512 -0.3013  0.5169
 4812SOL    HW115335   2.043   4.171   5.518 -0.5263  0.2157  0.9166
 4812SOL    HW215336   2.069   4.190   5.358 -0.6314 -0.9217  0.7598
 4813SOL     OW15337   2.660   1.293   0.054 -0.1724 -0.3746 -0.7031
 4813SOL    HW115338   2.631   1.358   0.124  0.9831  0.7042 -1.1723
 4813SOL    HW215339   2.582   1.268  -0.003 -0.2907  2.5082 -2.0078
 4814SOL     OW15340   5.950   1.582   6.745  0.8101  0.1921  0.4693
 4814SOL    HW115341   5.880   1.555   6.679 -1.3465  2.8599  1.4490
 4814SOL    HW215342   5.920   1.557   6.837  0.6333  2.1445  0.9905
 4815SOL     OW15343   5.096   4.310   2.641 -0.2108  0.0264 -0.0286
 4815SOL    HW115344   5.165   4.382   2.649  0.2914 -0.1830 -1.9554
 4815SOL    HW215345   5.029   4.319   2.715  1.8294  0.2622  1.9299
 4816SOL     OW15346   6.985   6.130   3.949  0.4355  0.2202  0.1008
 4816SOL    HW115347   7.015   6.177   3.866  0.3826 -0.6216 -0.4100
 4816SOL    HW215348   6.892   6.094   3.935 -0.1678  1.3350  1.0574
 4817SOL     OW15349   6.183   2.193   6.854 -0.3052  0.0112 -0.2353
 4817SOL    HW115350   6.168   2.286   6.820 -0.5947 -0.6824 -2.1280
 4817SOL    HW215351   6.095   2.145   6.861 -0.1249 -0.2419  0.3665
 4818SOL     OW15352   0.059   1.130   5.408 -0.1833  0.5442  0.3313
 4818SOL    HW115353   0.050   1.150   5.310  1.4118 -0.2982 -0.0296
 4818SOL    HW215354   0.113   1.202   5.452 -0.0115  0.3890  0.3745
 4819SOL     OW15355   1.875   3.874   5.777  1.1193  0.4748 -0.0773
 4819SOL    HW115356   1.869   3.784   5.734  0.8623  0.0238  0.8711
 4819SOL    HW215357   1.945   3.873   5.848  1.6701  1.2608 -0.5924
 4820SOL     OW15358   1.058   1.924   1.588 -0.5290 -0.1431 -0.0581
 4820SOL    HW115359   1.028   2.004   1.536 -0.6179 -0.2321 -0.1466
 4820SOL    HW215360   1.148   1.941   1.627 -1.0686  0.4668  0.9587
 4821SOL     OW15361   6.338   5.776   4.108 -0.4110 -0.1667 -0.8103
 4821SOL    HW115362   6.289   5.699   4.150  0.9730 -0.4852  0.2811
 4821SOL    HW215363   6.436   5.765   4.123 -0.2281  2.3729  0.3550
 4822SOL     OW15364   0.546   2.906   4.294 -0.1371  0.0812  0.0314
 4822SOL    HW115365   0.468   2.876   4.239 -0.4836  0.5392  0.2701
 4822SOL    HW215366   0.515   2.968   4.366  0.4754  0.4268  0.0050
 4823SOL     OW15367   1.256   0.541   4.451 -0.1819  0.4363  0.3001
 4823SOL    HW115368   1.294   0.507   4.536 -0.8123  4.4238  2.4078
 4823SOL    HW215369   1.330   0.576   4.393  0.2613 -2.4030 -1.0428
 4824SOL     OW15370   5.244   2.107   4.786 -0.5296 -0.0706 -0.6917
 4824SOL    HW115371   5.277   2.025   4.739 -0.9848 -0.0169 -1.1231
 4824SOL    HW215372   5.147   2.119   4.766 -0.4069  0.7199 -0.8581
 4825SOL     OW15373   0.358   1.049   5.147 -0.6347  0.4408 -0.1055
 4825SOL    HW115374   0.345   1.146   5.167  0.4990  0.8612 -1.3003
 4825SOL    HW215375   0.432   1.038   5.081  0.8987 -1.3865  1.7698
 4826SOL     OW15376   5.219   0.544   0.532  0.3852  0.3396  0.0838
 4826SOL    HW115377   5.263   0.477   0.473  0.8102  0.7380 -0.0594
 4826SOL    HW215378   5.120   0.543   0.515  0.2210 -1.1086  0.9733
 4827SOL     OW15379   5.633   1.422   1.218  0.3689  0.2107 -0.3432
 4827SOL    HW115380   5.714   1.476   1.242  0.0428 -0.4652  2.5412
 4827SOL    HW215381   5.663   1.338   1.173  1.3454 -0.1902  0.9786
 4828SOL     OW15382   4.658   2.390   1.261 -0.0791 -0.2822  0.5837
 4828SOL    HW115383   4.623   2.330   1.332  1.6361 -0.5300  1.2691
 4828SOL    HW215384   4.757   2.396   1.268  0.1554 -0.3341 -1.8159
 4829SOL     OW15385   4.255   1.702   4.840 -0.4039 -0.1911 -0.5059
 4829SOL    HW115386   4.274   1.612   4.801 -1.5775 -1.2194  1.1437
 4829SOL    HW215387   4.158   1.709   4.862 -0.0352  0.8138  0.9611
 4830SOL     OW15388   3.182   6.776   6.171  0.1698  0.1146 -0.1433
 4830SOL    HW115389   3.151   6.735   6.085  0.4836 -0.1954 -0.1063
 4830SOL    HW215390   3.212   6.870   6.153  0.6729 -0.1046 -0.4563
 4831SOL     OW15391   0.411   5.549   5.251 -0.4705  0.1204 -0.3865
 4831SOL    HW115392   0.354   5.630   5.268 -2.9630 -1.3263 -1.2795
 4831SOL    HW215393   0.440   5.547   5.156 -0.4513 -0.0474 -0.3780
 4832SOL     OW15394   3.466   2.873   3.856  0.2273  0.1809  0.1486
 4832SOL    HW115395   3.551   2.878   3.804  0.7860 -0.8001  0.9384
 4832SOL    HW215396   3.487   2.863   3.953 -0.7722 -0.9438  0.2702
 4833SOL     OW15397   0.938   2.019   2.890  0.6478  0.3027  0.1450
 4833SOL    HW115398   0.956   1.946   2.824 -3.0443 -3.1364  2.5050
 4833SOL    HW215399   0.868   2.080   2.853 -0.4571 -0.8333  0.3084
 4834SOL     OW15400   0.400   5.688   1.801  0.4231 -0.0030  0.3445
 4834SOL    HW115401   0.414   5.753   1.875  0.0146 -0.1904  0.5931
 4834SOL    HW215402   0.420   5.732   1.713  1.5349  0.0300  0.6013
 4835SOL     OW15403   6.786   4.376   0.013 -0.3068  0.4509  0.1259
 4835SOL    HW115404   6.743   4.294  -0.026 -2.2801  1.5304 -0.1097
 4835SOL    HW215405   6.813   4.358   0.108 -2.2293 -0.0279  0.6234
 4836SOL     OW15406   5.485   3.401   3.395 -0.1940 -0.0835  0.2661
 4836SOL    HW115407   5.392   3.366   3.385 -0.8798  1.8376 -0.5307
 4836SOL    HW215408   5.544   3.360   3.326 -1.6945  2.4894 -2.8497
 4837SOL     OW15409   4.849   3.753   4.073  0.5236  0.3315  0.1597
 4837SOL    HW115410   4.816   3.687   4.140  0.9253 -0.5523 -0.5092
 4837SOL    HW215411   4.948   3.744   4.062  0.3412 -0.1697 -1.2250
 4838SOL     OW15412   3.399   4.793   0.820 -0.2631 -0.6912  0.8238
 4838SOL    HW115413   3.409   4.848   0.903 -1.7937  1.5386 -0.3719
 4838SOL    HW215414   3.306   4.755   0.816 -0.1865 -0.8211  0.1687
 4839SOL     OW15415   6.626   3.225   5.604 -0.2428  0.1045 -0.2355
 4839SOL    HW115416   6.634   3.296   5.675  0.2000  1.6261 -1.7403
 4839SOL    HW215417   6.608   3.268   5.516 -0.1764 -1.7009 -1.1753
 4840SOL     OW15418   0.192   3.824   0.315 -0.0212 -0.3886  0.6758
 4840SOL    HW115419   0.215   3.784   0.226 -0.4841  0.7920  0.0120
 4840SOL    HW215420   0.261   3.892   0.339  1.0214 -1.8461  2.0229
 4841SOL     OW15421   2.243   4.087   4.343 -0.5837 -0.3029  0.3518
 4841SOL    HW115422   2.210   4.034   4.421  0.1579 -0.0607  0.8436
 4841SOL    HW215423   2.270   4.178   4.374 -1.2628  0.1687 -0.3755
 4842SOL     OW15424   1.934   3.733   3.472 -0.0915  0.3090 -0.2759
 4842SOL    HW115425   1.905   3.671   3.399  0.0003  1.4542 -1.3240
 4842SOL    HW215426   1.854   3.783   3.506 -0.3799 -1.2110  1.4247
 4843SOL     OW15427   0.133   4.849   3.766  0.3617 -0.2278 -0.8571
 4843SOL    HW115428   0.040   4.815   3.779  0.0935  1.4022  2.4151
 4843SOL    HW215429   0.177   4.863   3.854  2.5252  2.2056 -2.1552
 4844SOL     OW15430   5.981   4.972   5.528  0.1529 -0.4670  0.0017
 4844SOL    HW115431   5.951   4.877   5.539 -0.0505 -0.8060 -2.7449
 4844SOL    HW215432   5.927   5.031   5.589 -0.6372 -1.9349  0.8000
 4845SOL     OW15433   4.380   5.210   1.202  0.4071 -0.4271  0.0178
 4845SOL    HW115434   4.372   5.297   1.152  1.4680 -0.2302  0.1660
 4845SOL    HW215435   4.440   5.223   1.282 -0.7228 -0.9026  0.9737
 4846SOL     OW15436   0.721   2.828   3.527  0.0579 -0.2445 -0.2807
 4846SOL    HW115437   0.785   2.900   3.552 -0.4584  0.4363 -0.8731
 4846SOL    HW215438   0.760   2.739   3.550  0.9570  0.1915 -0.0844
 4847SOL     OW15439   2.823   2.839   5.586 -0.0659  0.1272  0.0782
 4847SOL    HW115440   2.881   2.791   5.520 -1.3364 -0.4920 -0.6182
 4847SOL    HW215441   2.813   2.935   5.559  0.0382  0.0580 -0.2089
 4848SOL     OW15442   3.345   1.378   4.068  0.3169  0.1463 -0.7302
 4848SOL    HW115443   3.323   1.462   4.118  0.6018  1.1790 -2.2513
 4848SOL    HW215444   3.313   1.387   3.974  1.0391 -1.1553 -1.1222
 4849SOL     OW15445   1.855   4.223   5.827  0.0405  0.1078  0.7305
 4849SOL    HW115446   1.849   4.188   5.921 -0.1408  0.2219  0.7621
 4849SOL    HW215447   1.933   4.180   5.781 -0.4597 -0.7133  0.6142
 4850SOL     OW15448   4.477   6.307   1.151 -0.0893  0.0444 -0.1855
 4850SOL    HW115449   4.418   6.376   1.110 -2.0184 -1.0138  0.6671
 4850SOL    HW215450   4.500   6.237   1.084  0.3750  0.5596 -0.5703
 4851SOL     OW15451   4.001   6.455   5.835 -0.0863  0.5946 -0.6087
 4851SOL    HW115452   3.914   6.502   5.849 -0.3480 -0.2055  0.6459
 4851SOL    HW215453   3.985   6.370   5.785 -0.3402 -0.5169  1.3008
 4852SOL     OW15454   2.446   5.713   5.280 -0.2297  0.3573 -0.2132
 4852SOL    HW115455   2.521   5.754   5.229  0.6948  0.5012  1.2159
 4852SOL    HW215456   2.455   5.613   5.280 -0.1362  0.3656 -0.2051
 4853SOL     OW15457   4.398   1.605   3.807  0.8225  0.3406  0.0995
 4853SOL    HW115458   4.475   1.591   3.869  0.4134  2.0987  1.0815
 4853SOL    HW215459   4.333   1.529   3.817  1.5799 -0.2630  0.5642
 4854SOL     OW15460   5.857   1.562   1.274 -0.3003  0.4147  0.5715
 4854SOL    HW115461   5.908   1.484   1.238  0.4229  2.0438 -2.2499
 4854SOL    HW215462   5.912   1.609   1.343  1.4599  1.2627 -1.3300
 4855SOL     OW15463   5.730   4.411   6.530 -1.0859  0.0971  0.0521
 4855SOL    HW115464   5.798   4.374   6.467 -2.3231 -0.5627 -0.9404
 4855SOL    HW215465   5.695   4.337   6.588 -1.6484  0.2384 -0.1053
 4856SOL     OW15466   1.037   1.344   1.899  0.1556  0.0827  0.4877
 4856SOL    HW115467   1.098   1.372   1.825  0.1540 -1.9432 -0.3519
 4856SOL    HW215468   1.088   1.292   1.967 -0.0511  1.0564  1.4099
 4857SOL     OW15469   1.649   2.215   1.136  0.1577  0.0144  0.2053
 4857SOL    HW115470   1.746   2.199   1.122  0.0263  0.7747 -1.9719
 4857SOL    HW215471   1.599   2.129   1.133  0.5773 -0.2084 -0.5880
 4858SOL     OW15472   4.911   0.829   4.106 -0.1676  0.3930 -0.4332
 4858SOL    HW115473   4.936   0.735   4.133 -1.9904  0.1627  0.6152
 4858SOL    HW215474   4.889   0.831   4.009 -0.5289 -0.3653 -0.3720
 4859SOL     OW15475   6.465   4.689   4.027 -0.4034 -0.2930  0.1702
 4859SOL    HW115476   6.501   4.708   3.936  2.6870  0.5728  1.4616
 4859SOL    HW215477   6.404   4.763   4.055  0.8818  0.8901 -0.1028
 4860SOL     OW15478   4.919   5.215   5.683 -0.2834  0.0036  0.0753
 4860SOL    HW115479   4.875   5.302   5.661  0.5166  0.9110  1.8727
 4860SOL    HW215480   4.954   5.217   5.776  1.8787 -1.3721 -0.6191
 4861SOL     OW15481   5.486   5.869   0.737  0.2723 -0.1907 -0.1553
 4861SOL    HW115482   5.564   5.854   0.797  0.4744 -1.7375 -0.7643
 4861SOL    HW215483   5.453   5.782   0.702 -2.0758  0.3592  0.4849
 4862SOL     OW15484   3.008   5.232   4.881 -0.1353  1.0150  0.0972
 4862SOL    HW115485   3.006   5.234   4.981 -1.5623  2.7311  0.0896
 4862SOL    HW215486   3.054   5.149   4.851 -0.7842 -0.1854  2.1684
 4863SOL     OW15487   6.144   2.843   2.816 -0.0543  0.1889  0.5455
 4863SOL    HW115488   6.117   2.828   2.721 -2.2130  1.1051  0.9597
 4863SOL    HW215489   6.225   2.902   2.819 -0.5002  0.8944 -0.7212
 4864SOL     OW15490   2.772   1.541   1.618 -0.7984 -0.0738  0.3876
 4864SOL    HW115491   2.785   1.608   1.546  0.0443 -1.5814 -0.9256
 4864SOL    HW215492   2.831   1.563   1.696 -0.4413  0.6278 -0.0757
 4865SOL     OW15493   3.741   6.486   5.654  0.0463 -0.3973 -0.3623
 4865SOL    HW115494   3.768   6.577   5.622 -1.0831  0.2461  0.4447
 4865SOL    HW215495   3.793   6.417   5.605 -1.4303  0.5239 -3.4988
 4866SOL     OW15496   0.608   4.748   1.100  0.3161  0.5276 -0.4349
 4866SOL    HW115497   0.514   4.718   1.089  0.3660 -1.0380  2.5742
 4866SOL    HW215498   0.610   4.843   1.130 -0.3632  0.3453  0.2150
 4867SOL     OW15499   3.923   6.786   4.889 -0.5496  0.1759 -0.3016
 4867SOL    HW115500   3.865   6.866   4.883  0.3458  0.7398 -2.3228
 4867SOL    HW215501   3.940   6.750   4.797 -1.4880 -2.7732  0.5721
 4868SOL     OW15502   6.458   5.093   2.072  0.1679  0.0383 -0.1279
 4868SOL    HW115503   6.483   5.175   2.123  2.2437  0.0165 -1.0117
 4868SOL    HW215504   6.363   5.100   2.041 -0.4070  1.0577  1.7288
 4869SOL     OW15505   2.054   3.177   6.981  0.1713 -0.0855  0.0556
 4869SOL    HW115506   2.072   3.271   6.950 -0.8487  0.1293  0.1005
 4869SOL    HW215507   1.956   3.161   6.983  0.3496 -1.3057 -0.3800
 4870SOL     OW15508   5.994   4.450   1.259 -0.1701 -0.2666 -0.3702
 4870SOL    HW115509   6.088   4.455   1.224  0.1391  0.5675  0.5355
 4870SOL    HW215510   5.980   4.362   1.304  0.6962  0.2181  0.8878
 4871SOL     OW15511   0.275   6.235   3.914  0.5401  0.2963  0.2331
 4871SOL    HW115512   0.207   6.164   3.896  1.7611 -0.8668  0.0941
 4871SOL    HW215513   0.233   6.308   3.968 -0.5470 -0.8826  1.0496
 4872SOL     OW15514   0.838   0.349   4.335 -0.2941  0.1501  0.9259
 4872SOL    HW115515   0.747   0.355   4.378 -0.3562 -5.6522  2.4240
 4872SOL    HW215516   0.908   0.340   4.406  1.1469  1.4802 -0.2553
 4873SOL     OW15517   6.061   4.530   4.614 -0.4579  0.2309 -0.3101
 4873SOL    HW115518   6.012   4.587   4.548  0.1155  1.0636 -0.0326
 4873SOL    HW215519   6.143   4.578   4.646 -0.4555 -0.3658  0.6293
 4874SOL     OW15520   1.261   3.462   1.496  0.0535 -0.4043  0.4214
 4874SOL    HW115521   1.309   3.549   1.508 -0.6404  0.1685 -0.8303
 4874SOL    HW215522   1.326   3.386   1.507  1.2669  0.3481 -1.1637
 4875SOL     OW15523   5.665   2.812   1.148  0.4837  0.4074 -0.0112
 4875SOL    HW115524   5.748   2.776   1.190  0.6286  2.5956  1.7878
 4875SOL    HW215525   5.592   2.813   1.216 -0.5602  0.0135 -1.1123
 4876SOL     OW15526   5.530   0.157   5.938 -0.4172 -0.0187  0.0977
 4876SOL    HW115527   5.460   0.184   5.872  1.4158  0.8508 -1.5830
 4876SOL    HW215528   5.523   0.213   6.020 -1.9186 -0.2312  0.1344
 4877SOL     OW15529   6.736   0.152   1.189  0.7123  0.6150  0.5048
 4877SOL    HW115530   6.666   0.167   1.119 -0.7212  1.6183  2.1021
 4877SOL    HW215531   6.819   0.117   1.145 -0.9377 -1.2520 -1.3930
 4878SOL     OW15532   6.757   2.642   2.259  0.7767  0.0223 -0.6771
 4878SOL    HW115533   6.813   2.569   2.297  0.6027  1.3795  2.4817
 4878SOL    HW215534   6.698   2.605   2.187  1.8661 -2.5431 -0.3544
 4879SOL     OW15535   4.352   5.790   4.507 -0.3632 -0.4497  0.3068
 4879SOL    HW115536   4.440   5.773   4.462 -0.2799  0.7723 -0.0384
 4879SOL    HW215537   4.282   5.731   4.468  0.0597 -0.5690 -0.2793
 4880SOL     OW15538   4.383   4.970   1.059 -0.1480 -0.5476 -0.0523
 4880SOL    HW115539   4.379   4.965   0.959  0.3453 -1.2586 -0.0444
 4880SOL    HW215540   4.380   5.066   1.087 -0.7046 -0.3519 -0.7229
 4881SOL     OW15541   3.059   5.358   6.541  0.0184 -0.0420 -0.4750
 4881SOL    HW115542   3.012   5.382   6.456 -0.8665  0.6546  0.1974
 4881SOL    HW215543   3.040   5.427   6.610 -0.2814 -1.2398  0.6643
 4882SOL     OW15544   0.579   1.527   5.463 -0.3015 -0.6063  0.5983
 4882SOL    HW115545   0.514   1.469   5.511  0.2297 -0.8518  1.0329
 4882SOL    HW215546   0.672   1.502   5.489 -0.0773  1.8513  2.4574
 4883SOL     OW15547   4.498   4.449   4.121 -0.0470 -1.1647  0.2112
 4883SOL    HW115548   4.457   4.464   4.211 -1.8572 -1.1605 -0.5663
 4883SOL    HW215549   4.568   4.377   4.128  0.9802 -0.0843  1.8813
 4884SOL     OW15550   2.202   0.187   0.815 -0.1204  0.3883  0.6493
 4884SOL    HW115551   2.237   0.176   0.908 -1.6179  0.5638  1.2520
 4884SOL    HW215552   2.114   0.141   0.806  0.3818 -0.3494 -0.9384
 4885SOL     OW15553   2.409   4.705   3.605  0.1487  0.6295  0.0125
 4885SOL    HW115554   2.330   4.673   3.553 -0.5194  0.8395  0.8809
 4885SOL    HW215555   2.459   4.627   3.643  0.9247  0.4448 -1.3096
 4886SOL     OW15556   1.655   6.016   6.746  0.8590  0.3017 -0.0610
 4886SOL    HW115557   1.675   5.920   6.731  2.4188  0.7273 -0.9130
 4886SOL    HW215558   1.565   6.038   6.707  0.3933 -0.8387  0.3431
 4887SOL     OW15559   1.176   1.215   2.109 -0.0424  0.1823  0.0143
 4887SOL    HW115560   1.133   1.129   2.081 -0.9903  0.9525 -0.9973
 4887SOL    HW215561   1.273   1.213   2.085  0.2015 -1.0239  1.0174
 4888SOL     OW15562   3.061   0.177   5.205 -0.3659 -0.4000  0.4756
 4888SOL    HW115563   3.026   0.130   5.286  1.2509  0.9122  2.0211
 4888SOL    HW215564   3.120   0.253   5.234 -2.2692  2.1606 -1.8802
 4889SOL     OW15565   0.309   1.168   6.604  0.9468 -0.0379 -0.1767
 4889SOL    HW115566   0.396   1.206   6.574  0.4477  0.0212 -1.6025
 4889SOL    HW215567   0.325   1.081   6.651  1.7107 -0.4822 -1.2270
 4890SOL     OW15568   1.109   1.803   3.813  0.2440  0.3299  0.4577
 4890SOL    HW115569   1.073   1.892   3.839  0.1383  0.5649 -0.4367
 4890SOL    HW215570   1.046   1.731   3.840 -0.3921  0.6523 -0.1461
 4891SOL     OW15571   1.070   5.983   0.166 -0.8887  0.0626  0.3266
 4891SOL    HW115572   1.037   5.998   0.259 -0.7348  1.2548  0.2081
 4891SOL    HW215573   1.037   6.056   0.106  0.8300  0.5518 -0.0822
 4892SOL     OW15574   2.583   4.821   2.800 -0.6527  0.1047  0.0482
 4892SOL    HW115575   2.554   4.888   2.731 -0.8997  0.3382  0.3763
 4892SOL    HW215576   2.606   4.735   2.755 -1.0141  0.1904 -0.3099
 4893SOL     OW15577   0.304   3.751   6.531  0.3054  0.8253 -0.0998
 4893SOL    HW115578   0.290   3.771   6.628  1.8766 -0.7270  0.5035
 4893SOL    HW215579   0.372   3.679   6.521 -0.2461  0.5280 -2.3605
 4894SOL     OW15580   2.119   6.310   2.876  0.5516  0.1766 -0.5132
 4894SOL    HW115581   2.184   6.326   2.951  1.4303  0.4186 -1.3058
 4894SOL    HW215582   2.169   6.286   2.793 -0.2347  2.0320 -1.5968
 4895SOL     OW15583   2.058   5.288   1.225 -0.3679  0.7116 -0.3206
 4895SOL    HW115584   2.128   5.350   1.261  0.6574 -1.5247  1.9112
 4895SOL    HW215585   1.970   5.307   1.268 -0.2467  1.1354 -0.2619
 4896SOL     OW15586   3.268   4.971   4.770  0.1119 -0.0641 -0.4724
 4896SOL    HW115587   3.182   4.920   4.768  0.5949 -0.9058  0.1088
 4896SOL    HW215588   3.322   4.943   4.849  1.5464 -0.5711 -1.5920
 4897SOL     OW15589   3.468   4.829   0.165 -0.4209  0.1457 -0.2518
 4897SOL    HW115590   3.450   4.925   0.144 -1.0811  0.4323  1.4303
 4897SOL    HW215591   3.551   4.799   0.118  0.7513  2.0371  0.5133
 4898SOL     OW15592   6.910   2.316   5.792  0.4206  0.3076 -0.1891
 4898SOL    HW115593   6.830   2.318   5.731  1.3429  1.2085 -1.4185
 4898SOL    HW215594   6.900   2.241   5.857 -0.5143 -0.8262 -1.5763
 4899SOL     OW15595   6.355   4.350   1.717  0.2073  0.4681 -0.0797
 4899SOL    HW115596   6.411   4.268   1.711  0.5967  0.7195  0.0899
 4899SOL    HW215597   6.315   4.370   1.628 -1.3052 -0.8859  0.2512
 4900SOL     OW15598   2.349   6.283   5.124 -0.0085 -0.4151 -0.0224
 4900SOL    HW115599   2.264   6.268   5.072 -0.7808  1.5070  0.6063
 4900SOL    HW215600   2.427   6.278   5.062 -0.9115  2.0460 -1.5188
 4901SOL     OW15601   2.604   6.272   5.625  0.1848 -0.5027  0.0982
 4901SOL    HW115602   2.584   6.202   5.557 -0.1944 -0.3282  0.0303
 4901SOL    HW215603   2.544   6.259   5.704  0.6961 -0.7723  0.4517
 4902SOL     OW15604   1.767   1.624   4.638  0.1881  0.5877 -0.0382
 4902SOL    HW115605   1.844   1.568   4.669  0.8748  1.2732 -0.4709
 4902SOL    HW215606   1.739   1.684   4.713 -0.0299  0.2264  0.1713
 4903SOL     OW15607   3.159   0.227   0.303  0.0053  0.1239  0.8234
 4903SOL    HW115608   3.200   0.180   0.225  1.2299  0.1227  1.4459
 4903SOL    HW215609   3.072   0.183   0.327  0.7911 -1.4051  0.9682
 4904SOL     OW15610   1.631   0.514   4.114  0.4908 -0.0707  0.0602
 4904SOL    HW115611   1.543   0.562   4.117  0.0372 -0.8958  0.0387
 4904SOL    HW215612   1.697   0.565   4.169  0.2953  1.1203 -0.7682
 4905SOL     OW15613   4.572   2.600   2.134 -0.5058  0.4743  0.2337
 4905SOL    HW115614   4.608   2.636   2.220  1.1608 -2.1738  0.7761
 4905SOL    HW215615   4.503   2.530   2.154 -0.5075  0.2367 -0.5696
 4906SOL     OW15616   5.683   1.197   6.692 -0.1367  0.3244 -0.6247
 4906SOL    HW115617   5.750   1.174   6.762  2.8455 -0.1324 -3.3773
 4906SOL    HW215618   5.704   1.287   6.654 -1.5297  0.4663 -1.1102
 4907SOL     OW15619   3.633   1.484   3.085  0.0592 -0.2008 -0.3948
 4907SOL    HW115620   3.575   1.564   3.068  0.3416  0.0809 -0.0307
 4907SOL    HW215621   3.575   1.405   3.104 -0.2476 -0.2766 -1.5445
 4908SOL     OW15622   2.926   4.659   1.138 -0.7724 -0.2015 -0.5447
 4908SOL    HW115623   2.910   4.758   1.149 -1.6760 -0.2372 -1.3916
 4908SOL    HW215624   2.877   4.610   1.210  0.8559  0.0230  0.7585
 4909SOL     OW15625   6.039   0.771   6.463  0.3131 -0.2529  0.3429
 4909SOL    HW115626   6.037   0.734   6.556 -0.1819 -1.2716 -0.0554
 4909SOL    HW215627   6.078   0.703   6.401  0.3056  0.2832 -0.2565
 4910SOL     OW15628   5.201   0.032   3.134  0.0502 -0.0526 -0.3952
 4910SOL    HW115629   5.153  -0.049   3.102  0.7856  0.0583 -1.8315
 4910SOL    HW215630   5.137   0.109   3.138  0.0004  0.0195 -1.9988
 4911SOL     OW15631   5.993   2.598   5.426  0.2474  0.5369 -0.2901
 4911SOL    HW115632   6.039   2.563   5.345  0.0838  0.2001 -0.2425
 4911SOL    HW215633   5.899   2.624   5.403 -0.1363 -0.5289 -0.0014
 4912SOL     OW15634   5.960   0.963   0.399  0.0766 -0.4892  0.1692
 4912SOL    HW115635   6.027   0.896   0.365  0.8616  0.3484  0.0103
 4912SOL    HW215636   6.000   1.014   0.475  0.4895  1.5122 -1.3059
 4913SOL     OW15637   4.044   3.842   4.857  0.3264  0.2922 -0.2765
 4913SOL    HW115638   4.062   3.920   4.917  1.3507  0.4547 -0.7770
 4913SOL    HW215639   4.039   3.874   4.762 -2.1483  0.1825 -0.2529
 4914SOL     OW15640   4.170   0.539   6.274  0.1817  0.2362 -0.2037
 4914SOL    HW115641   4.262   0.539   6.314 -0.1378  0.1586  0.5575
 4914SOL    HW215642   4.174   0.574   6.181  0.8670  1.0566  0.1168
 4915SOL     OW15643   3.602   6.527   4.460 -0.1326 -0.3810 -0.0140
 4915SOL    HW115644   3.637   6.543   4.552  0.1598 -4.9389  0.8698
 4915SOL    HW215645   3.504   6.506   4.465 -0.2405 -0.1039 -0.8298
 4916SOL     OW15646   1.607   1.362   2.610  0.4666  0.0215 -0.5904
 4916SOL    HW115647   1.579   1.450   2.571 -0.6380  0.1607  0.4448
 4916SOL    HW215648   1.598   1.366   2.710  1.0049 -1.0695 -0.4822
 4917SOL     OW15649   0.565   3.361   0.322  0.5594  0.7676  0.3877
 4917SOL    HW115650   0.576   3.262   0.331  3.4185  0.9863  0.1630
 4917SOL    HW215651   0.526   3.382   0.233  0.3992 -0.1330  0.2367
 4918SOL     OW15652   2.915   6.672   2.595 -0.1709 -0.3269  0.7881
 4918SOL    HW115653   3.003   6.650   2.551 -0.2911 -1.5682  1.1465
 4918SOL    HW215654   2.913   6.770   2.617  0.2466  0.1743 -1.1629
 4919SOL     OW15655   3.039   3.173   0.840  0.3192 -0.1531 -0.6682
 4919SOL    HW115656   2.950   3.133   0.816  0.4700 -0.9645  0.0807
 4919SOL    HW215657   3.028   3.271   0.855 -0.7953 -0.4885  0.9703
 4920SOL     OW15658   4.286   0.081   0.799  0.2168 -0.0224 -0.0584
 4920SOL    HW115659   4.250   0.040   0.882  0.3138  0.9244  0.4662
 4920SOL    HW215660   4.357   0.148   0.823 -1.5054  2.1493 -0.6952
 4921SOL     OW15661   1.010   4.590   2.632 -0.0264  0.1499 -0.1964
 4921SOL    HW115662   1.092   4.594   2.689 -0.6092  0.5646  0.6313
 4921SOL    HW215663   0.991   4.681   2.595 -0.1297  0.0614 -0.3637
 4922SOL     OW15664   0.163   4.333   5.257 -0.5177  0.1661  0.0249
 4922SOL    HW115665   0.250   4.290   5.231 -0.6743  0.6926 -1.5031
 4922SOL    HW215666   0.088   4.271   5.237 -0.5411 -0.1122  0.9267
 4923SOL     OW15667   5.317   1.161   0.947  0.0881 -0.4499  0.1758
 4923SOL    HW115668   5.357   1.084   0.996  0.4865 -0.0337  0.5141
 4923SOL    HW215669   5.326   1.244   1.002 -1.5229 -0.3862  0.4187
 4924SOL     OW15670   2.701   3.453   5.313 -0.0081  0.4510  0.1779
 4924SOL    HW115671   2.603   3.461   5.335  0.2892  2.5827  1.0005
 4924SOL    HW215672   2.720   3.361   5.279 -2.4272  0.1756 -0.6798
 4925SOL     OW15673   6.253   1.047   1.458 -0.3071  0.7703  0.6544
 4925SOL    HW115674   6.352   1.055   1.444 -0.2474 -0.4234  0.2825
 4925SOL    HW215675   6.235   0.995   1.541 -0.5861 -0.6556 -0.2637
 4926SOL     OW15676   6.762   3.178   2.442  0.4544 -0.4181 -0.2407
 4926SOL    HW115677   6.757   3.259   2.501 -1.5427  0.6182 -1.7259
 4926SOL    HW215678   6.857   3.147   2.436  1.5271  2.6383 -0.6945
 4927SOL     OW15679   3.797   3.048   4.254 -0.3528 -0.3301 -0.9008
 4927SOL    HW115680   3.733   2.995   4.310  0.0569 -1.9135 -1.8809
 4927SOL    HW215681   3.803   3.141   4.290 -0.0134 -1.2957  1.7905
 4928SOL     OW15682   6.454   6.666   0.548  0.0114 -0.2326  0.5171
 4928SOL    HW115683   6.386   6.593   0.557 -0.2942  0.1643  1.5609
 4928SOL    HW215684   6.533   6.632   0.499 -1.1049 -0.5881 -1.1171
 4929SOL     OW15685   2.227   4.561   3.469  0.6338  0.2934 -0.0891
 4929SOL    HW115686   2.269   4.494   3.409 -1.4440  0.0953 -1.4314
 4929SOL    HW215687   2.128   4.549   3.468  0.1391  3.4896 -0.5486
 4930SOL     OW15688   6.111   6.279   1.270  0.6148  0.1561  0.1418
 4930SOL    HW115689   6.074   6.194   1.308  0.6162 -0.3547 -0.9706
 4930SOL    HW215690   6.194   6.304   1.321 -0.1263  0.2378  1.3539
 4931SOL     OW15691   1.491   4.940   5.126 -1.1082  0.2366 -0.5770
 4931SOL    HW115692   1.405   4.990   5.115 -1.1322  0.1722 -0.6880
 4931SOL    HW215693   1.563   4.986   5.074 -1.0126  0.4486 -0.2575
 4932SOL     OW15694   2.600   2.932   1.555  0.0742  0.1985 -0.2216
 4932SOL    HW115695   2.533   2.888   1.495  0.6059  0.2831 -0.8881
 4932SOL    HW215696   2.624   2.870   1.630 -0.2950 -0.0629 -0.3198
 4933SOL     OW15697   3.822   0.141   5.212 -0.0458  0.3511 -0.1282
 4933SOL    HW115698   3.850   0.170   5.303  1.1093 -0.6469 -0.1363
 4933SOL    HW215699   3.819   0.041   5.208  1.1516  0.3341 -1.5038
 4934SOL     OW15700   1.506   3.721   2.604 -0.8297 -0.2564  0.0991
 4934SOL    HW115701   1.484   3.624   2.598 -0.5903 -0.3533  0.7522
 4934SOL    HW215702   1.429   3.775   2.571 -0.2765 -0.6999 -2.0774
 4935SOL     OW15703   1.843   2.343   6.114  0.0658 -0.1106 -0.1309
 4935SOL    HW115704   1.876   2.383   6.029 -1.1647 -3.5772 -2.4584
 4935SOL    HW215705   1.750   2.377   6.132 -0.2836 -0.5183 -1.0826
 4936SOL     OW15706   3.145   6.797   2.790  1.0708  0.2979  0.3281
 4936SOL    HW115707   3.147   6.809   2.691 -0.9793 -0.3223  0.1648
 4936SOL    HW215708   3.115   6.882   2.834 -0.5066 -0.1405  0.1779
 4937SOL     OW15709   6.889   3.929   5.069 -0.4933 -0.1841  0.0109
 4937SOL    HW115710   6.872   3.841   5.025  0.8605 -0.3844 -0.1572
 4937SOL    HW215711   6.953   3.917   5.144  0.2652  0.7502 -0.4634
 4938SOL     OW15712   4.015   5.195   2.276 -0.1848  0.0533 -0.0619
 4938SOL    HW115713   3.940   5.129   2.268 -0.7163  0.8489 -3.6429
 4938SOL    HW215714   4.102   5.149   2.257 -0.4289  0.0988 -1.4000
 4939SOL     OW15715   1.163   0.304   3.709 -0.6373  0.3365  0.3586
 4939SOL    HW115716   1.227   0.360   3.655  0.0991 -0.5450  0.2925
 4939SOL    HW215717   1.069   0.327   3.683 -0.3086 -0.0236 -1.2909
 4940SOL     OW15718   1.035   1.692   4.840 -0.1669  0.5506 -0.8659
 4940SOL    HW115719   1.038   1.746   4.923  2.6643  0.1519 -0.6265
 4940SOL    HW215720   1.011   1.597   4.863 -0.9916  0.7755 -0.7545
 4941SOL     OW15721   2.847   3.231   5.204  0.5641 -0.6285  0.2419
 4941SOL    HW115722   2.925   3.201   5.151 -0.0644 -0.9295 -0.5320
 4941SOL    HW215723   2.793   3.151   5.233 -0.0166 -0.3813 -0.1242
 4942SOL     OW15724   5.483   2.195   3.295  0.5643 -0.1630  0.2328
 4942SOL    HW115725   5.565   2.249   3.316  0.2380  0.9578 -1.2149
 4942SOL    HW215726   5.413   2.214   3.364  0.3585  1.5514 -0.3894
 4943SOL     OW15727   0.942   3.160   5.973  0.0729  0.1417 -0.1513
 4943SOL    HW115728   0.963   3.080   5.916  0.2666  0.5830 -0.7039
 4943SOL    HW215729   0.944   3.243   5.916  2.2363  0.8517  0.8769
 4944SOL     OW15730   1.432   4.166   1.472 -0.1877  0.0535 -0.3325
 4944SOL    HW115731   1.530   4.179   1.481 -0.4674  1.8619  0.5256
 4944SOL    HW215732   1.414   4.081   1.422  1.7630 -1.3062  1.1160
 4945SOL     OW15733   0.325   1.734   4.833 -0.2721 -0.6979  0.3683
 4945SOL    HW115734   0.291   1.777   4.749  0.0201  0.2646  0.7307
 4945SOL    HW215735   0.252   1.681   4.876 -0.6235 -0.6021 -0.1071
 4946SOL     OW15736   0.914   5.418   5.929 -0.3072 -0.2379 -0.9453
 4946SOL    HW115737   0.911   5.352   6.004 -0.5101  0.8924  0.0815
 4946SOL    HW215738   0.917   5.370   5.842  0.5064 -1.5970 -0.2030
 4947SOL     OW15739   0.628   0.154   2.002 -0.0845  0.3599 -0.3367
 4947SOL    HW115740   0.692   0.200   1.940 -1.5825  2.0187 -0.7135
 4947SOL    HW215741   0.569   0.093   1.950 -0.3225  0.5881 -0.3391
 4948SOL     OW15742   2.319   2.276   1.662  0.0277 -0.0239 -0.1822
 4948SOL    HW115743   2.372   2.239   1.586 -0.8503  0.0928 -0.8593
 4948SOL    HW215744   2.273   2.201   1.710 -0.1520 -0.0066 -0.3278
 4949SOL     OW15745   0.183   3.553   5.250  0.0755 -0.1622 -0.1263
 4949SOL    HW115746   0.166   3.524   5.344  0.8068 -1.0546 -0.2509
 4949SOL    HW215747   0.116   3.511   5.189 -0.6501  0.7339  0.0204
 4950SOL     OW15748   1.885   3.669   4.148 -0.4342 -0.0164 -0.5245
 4950SOL    HW115749   1.925   3.651   4.058  0.5339  2.6295 -0.7231
 4950SOL    HW215750   1.958   3.675   4.217 -1.0629 -0.8982  0.2459
 4951SOL     OW15751   5.885   6.546   5.314  0.2060 -0.6610 -0.6486
 4951SOL    HW115752   5.804   6.603   5.299 -0.7976 -1.6939  0.6590
 4951SOL    HW215753   5.967   6.600   5.293 -0.6034  1.8365  1.9002
 4952SOL     OW15754   1.533   1.647   6.089 -0.4018  0.0601  0.0668
 4952SOL    HW115755   1.542   1.624   6.186  1.5950  0.5665  0.0439
 4952SOL    HW215756   1.514   1.744   6.080  2.1493  0.6132 -0.0522
 4953SOL     OW15757   1.801   0.865   3.206 -0.3063 -0.7628  0.1911
 4953SOL    HW115758   1.777   0.771   3.182 -0.5518 -0.3193 -1.3956
 4953SOL    HW215759   1.718   0.917   3.225 -0.2990 -0.4392 -0.6288
 4954SOL     OW15760   1.593   1.941   1.396 -0.1296 -0.2655  0.2271
 4954SOL    HW115761   1.604   1.962   1.299 -0.1931 -0.1381  0.2473
 4954SOL    HW215762   1.551   1.851   1.406 -0.8795  0.0711  0.1305
 4955SOL     OW15763   2.855   0.106   6.480 -0.8128  0.2116  0.1646
 4955SOL    HW115764   2.933   0.168   6.469 -1.2791  0.7992  0.1453
 4955SOL    HW215765   2.821   0.079   6.389 -1.4426  0.9858  0.1668
 4956SOL     OW15766   6.770   0.349   6.592 -0.0851  0.6151 -0.6255
 4956SOL    HW115767   6.673   0.372   6.586 -0.2189  0.1976 -0.1695
 4956SOL    HW215768   6.815   0.369   6.505 -0.4994  1.1649 -0.7169
 4957SOL     OW15769   5.509   4.278   0.958 -0.3503  0.2357  0.1322
 4957SOL    HW115770   5.412   4.266   0.981 -0.7604  1.8342 -0.6015
 4957SOL    HW215771   5.565   4.220   1.016 -1.6365  0.7152  1.9314
 4958SOL     OW15772   1.226   4.921   5.315  0.0916  0.5401  0.3916
 4958SOL    HW115773   1.182   4.933   5.226 -0.3680  0.6200  0.6290
 4958SOL    HW215774   1.162   4.879   5.379  1.2954 -2.3270 -0.1144
 4959SOL     OW15775   6.784   1.843   0.326 -0.0216  0.8136 -0.1145
 4959SOL    HW115776   6.817   1.800   0.242  0.7559  0.3057  0.4360
 4959SOL    HW215777   6.858   1.896   0.367  0.1107 -0.2674  1.0982
 4960SOL     OW15778   6.123   5.154   3.664 -0.6577 -0.0261  0.4088
 4960SOL    HW115779   6.219   5.170   3.639  0.1954  0.5881  3.5788
 4960SOL    HW215780   6.080   5.242   3.685 -1.3672 -0.4465  0.7403
 4961SOL     OW15781   1.100   1.424   5.989  0.1310 -0.2797  0.4271
 4961SOL    HW115782   1.073   1.441   5.894  3.1682  1.0356 -0.2997
 4961SOL    HW215783   1.069   1.500   6.046  1.3553  0.7600 -0.2264
 4962SOL     OW15784   5.779   4.170   1.520 -0.2434 -0.0180  0.1682
 4962SOL    HW115785   5.877   4.150   1.510 -0.2268  0.6408 -1.2151
 4962SOL    HW215786   5.726   4.106   1.465 -0.6854 -1.0056  1.6810
 4963SOL     OW15787   1.901   6.304   1.254 -0.5018  0.3875 -0.0262
 4963SOL    HW115788   1.996   6.274   1.254 -1.4150 -3.1667  3.0122
 4963SOL    HW215789   1.848   6.249   1.189 -1.1455 -0.5076  1.2257
 4964SOL     OW15790   1.223   6.210   6.125 -0.0515 -0.4119  0.5485
 4964SOL    HW115791   1.203   6.265   6.044 -2.9579  0.9723  2.0803
 4964SOL    HW215792   1.177   6.122   6.118  1.6976 -1.3168 -0.3022
 4965SOL     OW15793   6.854   5.895   1.811 -0.0330  0.2222  0.4129
 4965SOL    HW115794   6.763   5.932   1.790  0.1437  0.4357  0.0165
 4965SOL    HW215795   6.921   5.936   1.749  0.8323  2.3759  2.6209
 4966SOL     OW15796   2.374   6.590   5.240 -0.5356  0.0021  0.5422
 4966SOL    HW115797   2.431   6.535   5.300 -0.0641 -1.3451 -1.0904
 4966SOL    HW215798   2.387   6.563   5.145 -1.7751  1.6038 -0.1558
 4967SOL     OW15799   3.343   6.039   6.961 -0.5162 -0.2530  0.4211
 4967SOL    HW115800   3.322   5.952   6.916  2.3262 -0.4982 -0.6167
 4967SOL    HW215801   3.286   6.048   7.043 -2.3525 -2.0865 -0.5350
 4968SOL     OW15802   6.782   0.444   2.830  0.0317 -0.4650  0.0239
 4968SOL    HW115803   6.862   0.403   2.874 -0.5001 -0.6878  0.7935
 4968SOL    HW215804   6.799   0.541   2.814  0.2526 -0.3876  0.6861
 4969SOL     OW15805   6.850   0.656   2.664 -0.2595  0.6922 -0.4483
 4969SOL    HW115806   6.778   0.708   2.711 -0.4630  1.6604 -1.7596
 4969SOL    HW215807   6.858   0.688   2.569  0.7076 -0.6114 -0.8481
 4970SOL     OW15808   1.807   0.483   2.402 -0.2773 -0.3817 -0.8343
 4970SOL    HW115809   1.821   0.443   2.493 -1.4087  1.8851  0.4390
 4970SOL    HW215810   1.894   0.487   2.354  0.4277 -1.2599  0.2984
 4971SOL     OW15811   4.736   5.985   2.167  0.1816 -0.0261 -0.1446
 4971SOL    HW115812   4.797   5.906   2.158 -0.2655 -0.3645 -0.2621
 4971SOL    HW215813   4.756   6.032   2.253  0.7803  0.0192 -0.3072
 4972SOL     OW15814   0.291   3.407   5.581  0.1115 -0.7557 -0.0159
 4972SOL    HW115815   0.379   3.367   5.556 -0.1639  0.4559 -3.5095
 4972SOL    HW215816   0.305   3.502   5.609  0.0872 -1.1794  1.4775
 4973SOL     OW15817   1.098   0.084   0.095  0.1250  0.6674  0.0741
 4973SOL    HW115818   1.134   0.143   0.023 -0.0540  0.8463  0.1315
 4973SOL    HW215819   1.015   0.038   0.063 -0.9414  2.0575  0.7391
 4974SOL     OW15820   6.326   6.346   1.420 -0.5807 -0.3833  0.4687
 4974SOL    HW115821   6.425   6.359   1.421 -0.1843 -2.9477  0.9626
 4974SOL    HW215822   6.296   6.318   1.511 -1.8475  0.6893  0.4063
 4975SOL     OW15823   5.107   4.089   0.172  0.1733 -0.5506 -0.0907
 4975SOL    HW115824   5.015   4.087   0.132  0.6595  1.0971 -1.3978
 4975SOL    HW215825   5.164   4.021   0.126  0.6147  1.0451 -2.0154
 4976SOL     OW15826   1.221   2.007   4.370  0.3629  0.3940  0.1320
 4976SOL    HW115827   1.249   1.952   4.449 -3.8480 -2.9005 -0.3036
 4976SOL    HW215828   1.159   2.080   4.400  0.2883  0.3622  0.0573
 4977SOL     OW15829   4.248   6.499   2.006  0.0168  0.0430 -0.5781
 4977SOL    HW115830   4.220   6.562   2.079  3.0323 -0.7558  1.4842
 4977SOL    HW215831   4.197   6.413   2.014  1.6773 -0.8209  2.0714
 4978SOL     OW15832   5.414   5.928   3.113 -0.6404 -0.0164  0.2655
 4978SOL    HW115833   5.365   5.968   3.036 -0.6550  1.7946  1.1630
 4978SOL    HW215834   5.466   6.000   3.160 -0.5213 -1.0962  1.8561
 4979SOL     OW15835   6.059   2.109   0.627 -0.7026  0.1060 -0.0611
 4979SOL    HW115836   6.076   2.023   0.675 -1.9810 -0.2001 -0.1106
 4979SOL    HW215837   6.090   2.100   0.532  0.0664  0.0524  0.1859
 4980SOL     OW15838   4.021   4.743   1.763  0.6335  0.0619 -0.1484
 4980SOL    HW115839   3.928   4.777   1.777  0.7903  1.0289 -1.2819
 4980SOL    HW215840   4.017   4.649   1.728  0.1227 -0.2090  0.5962
 4981SOL     OW15841   2.956   6.332   3.257  0.0019 -0.1745 -0.3177
 4981SOL    HW115842   3.049   6.325   3.222  0.1186 -1.0783  0.1622
 4981SOL    HW215843   2.951   6.407   3.323 -0.0860  1.1707 -1.7784
 4982SOL     OW15844   3.227   2.741   5.968 -0.0080 -0.1742  0.2655
 4982SOL    HW115845   3.148   2.744   6.030 -0.1426 -1.3181  0.1732
 4982SOL    HW215846   3.309   2.769   6.018 -0.5139  1.3556  0.2732
 4983SOL     OW15847   4.866   3.284   4.349 -0.4630 -1.0855  0.1962
 4983SOL    HW115848   4.819   3.311   4.433 -0.7663  0.7616 -0.5268
 4983SOL    HW215849   4.964   3.298   4.359 -0.6068  0.2552 -0.1326
 4984SOL     OW15850   4.634   4.787   2.987 -0.5245 -0.7657  0.0847
 4984SOL    HW115851   4.687   4.738   2.917  0.7671  1.5206 -0.6381
 4984SOL    HW215852   4.587   4.720   3.046  0.8611 -2.8344 -1.0189
 4985SOL     OW15853   4.763   6.403   2.832 -0.4729 -0.4647  0.6825
 4985SOL    HW115854   4.829   6.420   2.905  0.7336 -0.0924 -0.4491
 4985SOL    HW215855   4.795   6.327   2.776 -0.6796  0.1309 -0.2598
 4986SOL     OW15856   4.743   5.569   0.847 -0.1002 -0.1380  0.5197
 4986SOL    HW115857   4.744   5.470   0.861  0.3690 -0.4738 -1.5090
 4986SOL    HW215858   4.717   5.589   0.752  1.2821  1.6121  0.4504
 4987SOL     OW15859   2.906   0.410   3.169 -0.4330 -0.4413  0.0876
 4987SOL    HW115860   2.925   0.350   3.247  1.1538 -1.6368 -1.1556
 4987SOL    HW215861   2.978   0.479   3.162 -0.6827 -0.2072 -0.1880
 4988SOL     OW15862   0.622   2.002   2.665 -0.6135 -0.0288 -0.4223
 4988SOL    HW115863   0.612   1.960   2.755 -2.2780 -0.7742 -0.9077
 4988SOL    HW215864   0.677   2.085   2.673 -1.6836  0.5572  1.5062
 4989SOL     OW15865   6.977   1.617   0.467 -0.5319 -0.0875 -0.2512
 4989SOL    HW115866   6.942   1.658   0.383  0.8243  0.0673 -0.7589
 4989SOL    HW215867   6.967   1.517   0.461  1.7571 -0.2964 -1.6918
 4990SOL     OW15868   4.856   3.545   6.665  0.2563 -0.0635  0.3826
 4990SOL    HW115869   4.945   3.516   6.629 -0.6824  0.6975 -2.8545
 4990SOL    HW215870   4.803   3.464   6.693  0.5638 -0.8644 -1.2435
 4991SOL     OW15871   4.291   4.758   2.203  0.7006  0.3216  0.5368
 4991SOL    HW115872   4.285   4.745   2.302 -1.3888 -0.5070  0.3489
 4991SOL    HW215873   4.368   4.706   2.167 -0.8292 -2.6686  1.2728
 4992SOL     OW15874   5.304   6.698   3.303 -0.2486  0.0026  0.2478
 4992SOL    HW115875   5.404   6.698   3.289 -0.3112  0.0677 -0.2398
 4992SOL    HW215876   5.281   6.756   3.380  0.1818 -0.8747  1.0566
 4993SOL     OW15877   5.754   6.022   3.497  0.5160  0.3209  0.6245
 4993SOL    HW115878   5.752   6.109   3.448  0.1678  0.6881  1.2656
 4993SOL    HW215879   5.669   5.972   3.479  1.0225 -0.2152 -0.3103
 4994SOL     OW15880   1.491   4.463   3.635 -0.3832 -0.1181 -0.2352
 4994SOL    HW115881   1.579   4.509   3.636  0.6107 -1.9417  0.1388
 4994SOL    HW215882   1.503   4.368   3.606 -1.8433 -1.0680  1.9770
 4995SOL     OW15883   1.577   6.909   5.308  0.0946  0.2785 -0.6141
 4995SOL    HW115884   1.542   6.845   5.240 -1.4034 -0.1517  0.5064
 4995SOL    HW215885   1.626   6.858   5.379  0.0204  0.5125 -0.3928
 4996SOL     OW15886   5.925   0.325   3.341 -0.3304 -0.7384  0.0927
 4996SOL    HW115887   6.001   0.294   3.397  0.5601  0.5974 -0.3338
 4996SOL    HW215888   5.951   0.324   3.244 -1.1650 -1.1248 -0.1381
 4997SOL     OW15889   4.693   2.382   0.119 -0.2251  0.5481 -0.1323
 4997SOL    HW115890   4.785   2.416   0.099 -0.2169  1.3986  1.2344
 4997SOL    HW215891   4.646   2.362   0.033  1.1539  0.2817 -0.8612
 4998SOL     OW15892   0.673   5.246   5.636 -0.0894 -0.0593  0.7155
 4998SOL    HW115893   0.697   5.282   5.546  0.4380  0.0083  0.8780
 4998SOL    HW215894   0.606   5.306   5.679  0.0616  0.2030  0.5897
 4999SOL     OW15895   0.646   4.052   4.133  0.3193  0.2965  0.4344
 4999SOL    HW115896   0.596   4.136   4.153 -0.5884 -0.0778 -0.2098
 4999SOL    HW215897   0.589   3.973   4.158 -0.3880 -0.1813 -2.4114
 5000SOL     OW15898   3.879   6.539   3.605  0.3464 -0.0814  0.5395
 5000SOL    HW115899   3.972   6.504   3.612  0.4276 -0.4415 -1.5827
 5000SOL    HW215900   3.881   6.636   3.584  0.3391 -0.4001 -1.1046
 5001SOL     OW15901   0.605   3.566   2.249 -0.2543 -0.2073 -0.3154
 5001SOL    HW115902   0.511   3.597   2.233  0.3336  1.7788 -0.1828
 5001SOL    HW215903   0.662   3.591   2.171  0.1793 -1.5494 -0.4665
 5002SOL     OW15904   6.177   6.556   1.212  0.0706 -0.0051  0.1030
 5002SOL    HW115905   6.130   6.472   1.238 -1.2346  0.4789 -0.6485
 5002SOL    HW215906   6.191   6.613   1.294 -0.1066 -0.4134  0.4205
 5003SOL     OW15907   2.608   6.564   2.361  0.5797  0.7032  0.2106
 5003SOL    HW115908   2.583   6.563   2.458 -0.5384  0.7942 -0.0664
 5003SOL    HW215909   2.619   6.659   2.330  0.4259  0.6933  0.1247
 5004SOL     OW15910   1.442   3.376   6.467 -0.6054  0.2623  0.1321
 5004SOL    HW115911   1.402   3.289   6.498 -0.4942  0.2584  0.2680
 5004SOL    HW215912   1.455   3.436   6.546  1.6402 -0.5354  0.4528
 5005SOL     OW15913   3.582   1.599   6.656 -0.4398 -0.0541  0.4663
 5005SOL    HW115914   3.525   1.527   6.695 -1.1697 -0.1018 -0.6433
 5005SOL    HW215915   3.638   1.562   6.582  0.2360  0.2290  0.8240
 5006SOL     OW15916   0.050   6.445   1.340  0.0358 -0.1959 -0.2134
 5006SOL    HW115917   0.037   6.542   1.358 -0.5407 -0.2772 -0.1617
 5006SOL    HW215918  -0.033   6.407   1.297 -0.7632 -1.1967  2.0477
 5007SOL     OW15919   1.664   4.898   6.712 -0.2147  0.0189 -0.2276
 5007SOL    HW115920   1.744   4.919   6.656 -1.1663 -1.3090 -2.1940
 5007SOL    HW215921   1.594   4.854   6.656 -2.7909  2.0401  1.1511
 5008SOL     OW15922   6.690   6.892   1.292  0.1817 -0.3369  0.0030
 5008SOL    HW115923   6.645   6.978   1.317  1.3132  0.3122 -0.1187
 5008SOL    HW215924   6.623   6.818   1.296 -0.5465  0.3415  1.2782
 5009SOL     OW15925   6.471   3.339   0.528 -0.6157  0.1636 -0.3691
 5009SOL    HW115926   6.530   3.420   0.523 -0.9492  0.4934  0.8077
 5009SOL    HW215927   6.516   3.269   0.584 -1.6469  0.7055  1.1820
 5010SOL     OW15928   5.476   3.837   6.238  0.0188 -0.0122 -0.8083
 5010SOL    HW115929   5.515   3.902   6.172 -0.7322  1.2307 -0.0722
 5010SOL    HW215930   5.449   3.887   6.321  0.6563 -1.4890  0.3222
 5011SOL     OW15931   2.459   5.662   0.375  0.0664 -0.0456  0.3271
 5011SOL    HW115932   2.517   5.706   0.307 -0.5665 -0.0439 -0.2205
 5011SOL    HW215933   2.411   5.585   0.334  0.9924 -1.1368  1.2218
 5012SOL     OW15934   6.851   3.592   5.335  0.0804 -0.0331 -0.1709
 5012SOL    HW115935   6.878   3.532   5.259  0.2345 -0.1146 -0.0519
 5012SOL    HW215936   6.896   3.562   5.419  0.0292  0.1495 -0.0772
 5013SOL     OW15937   5.298   6.770   0.951  0.2868 -0.1664  0.2041
 5013SOL    HW115938   5.199   6.764   0.943  0.4180 -0.3137 -1.5622
 5013SOL    HW215939   5.322   6.854   1.002 -0.7268 -0.3000  0.9260
 5014SOL     OW15940   6.020   4.030   2.314 -0.7920 -0.7018 -0.5747
 5014SOL    HW115941   6.062   4.013   2.225 -0.5959  1.1989 -0.8859
 5014SOL    HW215942   5.941   4.090   2.303  0.5582  1.4552  0.7020
 5015SOL     OW15943   4.520   1.453   2.708  0.2635  0.0131 -1.2120
 5015SOL    HW115944   4.543   1.522   2.640 -1.1516  1.4838 -0.2794
 5015SOL    HW215945   4.577   1.466   2.790 -0.1781  0.2505 -0.9382
 5016SOL     OW15946   0.930   2.908   4.837 -0.0224 -0.4077  0.5435
 5016SOL    HW115947   0.941   2.840   4.765  1.0891  0.6917 -0.3501
 5016SOL    HW215948   0.881   2.866   4.914 -0.5152 -1.8298 -0.4948
 5017SOL     OW15949   1.072   4.510   0.070  0.6060 -0.3714  0.2814
 5017SOL    HW115950   1.157   4.482   0.116  0.0057  0.6213  2.0783
 5017SOL    HW215951   1.010   4.432   0.066 -0.5437  0.1230  4.0954
 5018SOL     OW15952   1.051   4.404   2.036 -0.5160 -0.0422  0.3223
 5018SOL    HW115953   0.980   4.470   2.063 -0.2953 -0.3937  1.8355
 5018SOL    HW215954   1.077   4.349   2.115 -1.6966 -2.9375 -1.1624
 5019SOL     OW15955   2.166   6.940   4.687  0.3682 -0.0819  0.1008
 5019SOL    HW115956   2.234   6.955   4.615 -1.0820  0.2953 -1.2678
 5019SOL    HW215957   2.173   6.846   4.720  0.5242 -0.5375 -1.1613
 5020SOL     OW15958   5.662   0.845   6.802  0.8183  0.1722  0.0124
 5020SOL    HW115959   5.577   0.793   6.798  0.1947  0.6596  3.3738
 5020SOL    HW215960   5.685   0.879   6.711 -1.0881 -2.2019 -1.4922
 5021SOL     OW15961   1.244   3.514   0.252  0.4219 -0.4076 -0.0744
 5021SOL    HW115962   1.167   3.511   0.187  1.0540 -1.9318 -0.8328
 5021SOL    HW215963   1.234   3.440   0.318 -1.0584  2.0907  2.6875
 5022SOL     OW15964   0.385   3.085   0.477 -0.3221  0.0980 -0.1349
 5022SOL    HW115965   0.337   3.167   0.505  1.4594  0.9468  0.6011
 5022SOL    HW215966   0.334   3.004   0.506 -1.8034  0.9317 -0.3485
 5023SOL     OW15967   0.109   4.017   6.184 -0.0780 -0.3413  0.2764
 5023SOL    HW115968   0.120   3.922   6.213 -2.8806 -1.5001 -2.0805
 5023SOL    HW215969   0.160   4.032   6.099 -0.8021 -0.1397 -0.1225
 5024SOL     OW15970   5.396   4.509   1.429 -0.2955  0.3277  0.0652
 5024SOL    HW115971   5.381   4.419   1.388 -0.5641 -0.2099  1.3057
 5024SOL    HW215972   5.308   4.555   1.441 -0.3936 -0.1719  1.4420
 5025SOL     OW15973   4.926   0.854   3.171 -0.0564  0.0615  0.1829
 5025SOL    HW115974   5.009   0.882   3.221  0.7653 -2.9488  0.6670
 5025SOL    HW215975   4.853   0.835   3.236  0.6360 -2.6472  0.2798
 5026SOL     OW15976   5.510   0.332   6.135  0.4879 -0.1238 -0.0153
 5026SOL    HW115977   5.531   0.418   6.089  1.0800  0.1199  0.6998
 5026SOL    HW215978   5.410   0.322   6.143  0.3290 -0.5000 -1.9251
 5027SOL     OW15979   6.796   5.334   2.171 -0.0248  0.4232  0.1095
 5027SOL    HW115980   6.785   5.236   2.155  1.1102  0.2447  0.2997
 5027SOL    HW215981   6.756   5.386   2.095 -0.5876 -0.1837 -0.0126
 5028SOL     OW15982   1.869   6.901   2.767  0.4893 -0.2592 -0.0463
 5028SOL    HW115983   1.829   6.827   2.821 -1.5754 -0.2422 -1.4054
 5028SOL    HW215984   1.810   6.982   2.773  3.1493  1.7178  2.1488
 5029SOL     OW15985   0.544   4.826   0.590 -0.1990  0.3376  0.0148
 5029SOL    HW115986   0.578   4.897   0.651 -1.8027  1.1556  0.0114
 5029SOL    HW215987   0.488   4.761   0.642 -0.2297  0.1107 -0.2989
 5030SOL     OW15988   6.736   4.376   5.974  0.2634  0.3167 -0.3282
 5030SOL    HW115989   6.815   4.372   6.036  0.1542 -0.6154 -0.2441
 5030SOL    HW215990   6.768   4.379   5.880  0.4162  1.1486 -0.2621
 5031SOL     OW15991   0.439   1.525   5.886  0.1678  0.4219 -0.0296
 5031SOL    HW115992   0.393   1.486   5.806  2.7668  0.9113 -1.8745
 5031SOL    HW215993   0.398   1.487   5.969 -2.9104  0.1971 -1.5000
 5032SOL     OW15994   2.153   2.583   4.519 -0.3658 -0.3863 -0.6866
 5032SOL    HW115995   2.131   2.678   4.498  0.5871  0.0704  0.3026
 5032SOL    HW215996   2.251   2.575   4.539  0.2767 -2.1348 -3.8397
 5033SOL     OW15997   2.915   5.852   4.593 -0.4923  0.4725 -0.4184
 5033SOL    HW115998   2.985   5.885   4.656 -0.6602  0.5004 -0.2491
 5033SOL    HW215999   2.866   5.930   4.554 -1.0303  0.4109  0.1418
 5034SOL     OW16000   3.728   6.381   4.286  0.6063 -0.3647  0.2966
 5034SOL    HW116001   3.687   6.454   4.341 -0.0724 -0.7157  0.2654
 5034SOL    HW216002   3.773   6.315   4.346 -0.2254 -0.8038  0.4497
 5035SOL     OW16003   6.611   5.754   6.436 -0.5696  0.1664  0.5204
 5035SOL    HW116004   6.617   5.830   6.371 -1.8733 -0.4664 -0.3750
 5035SOL    HW216005   6.688   5.759   6.500  0.0297  1.5418 -0.2664
 5036SOL     OW16006   1.215   5.749   5.909  0.6172 -0.1863  0.8963
 5036SOL    HW116007   1.225   5.839   5.866  3.8733 -0.2089  1.3883
 5036SOL    HW216008   1.179   5.684   5.841  2.7066  0.4581 -0.9387
 5037SOL     OW16009   3.764   5.006   1.581  0.0403 -0.5935  0.2595
 5037SOL    HW116010   3.779   4.959   1.668 -1.7957  0.8728  1.4602
 5037SOL    HW216011   3.844   5.062   1.559  0.7233 -1.3567  0.7449
 5038SOL     OW16012   3.338   4.585   6.841  0.3445  0.0409  0.2967
 5038SOL    HW116013   3.432   4.562   6.868  0.3576 -2.9426 -1.8308
 5038SOL    HW216014   3.339   4.665   6.781  1.0596  2.1469  2.9381
 5039SOL     OW16015   2.560   2.756   0.140  0.4182 -0.4677 -0.3021
 5039SOL    HW116016   2.463   2.779   0.139 -0.0272 -2.1949  0.0401
 5039SOL    HW216017   2.611   2.822   0.084 -0.6890  1.4527  0.8700
 5040SOL     OW16018   6.792   4.919   5.072 -0.1852 -0.1431  0.4443
 5040SOL    HW116019   6.785   5.018   5.087  0.1886 -0.4088  2.6828
 5040SOL    HW216020   6.846   4.878   5.145 -0.0671 -1.9937 -0.6204
 5041SOL     OW16021   1.801   1.524   2.280  0.4953 -0.6944  0.4563
 5041SOL    HW116022   1.780   1.584   2.203 -2.5531 -2.5569 -0.3821
 5041SOL    HW216023   1.807   1.578   2.364 -0.0507  0.9864 -0.5377
 5042SOL     OW16024   5.687   3.272   0.730 -0.2735 -0.1043  0.2613
 5042SOL    HW116025   5.748   3.222   0.792  2.1812  1.2192 -0.9535
 5042SOL    HW216026   5.619   3.322   0.784  0.0882 -1.1058  1.7178
 5043SOL     OW16027   3.552   0.141   5.566 -0.8582  0.1528  0.0651
 5043SOL    HW116028   3.646   0.152   5.534 -0.8991 -0.1131 -0.1550
 5043SOL    HW216029   3.550   0.139   5.666 -0.8140  1.7554  0.1162
 5044SOL     OW16030   2.183   5.691   6.381 -0.2156 -0.1802 -0.1610
 5044SOL    HW116031   2.101   5.717   6.330 -0.7702  0.5414  1.0548
 5044SOL    HW216032   2.244   5.637   6.322 -1.3543 -0.3495 -1.2120
 5045SOL     OW16033   5.356   6.177   6.882 -0.1079  0.5007 -0.3315
 5045SOL    HW116034   5.362   6.158   6.783 -1.7560 -0.0992 -0.3409
 5045SOL    HW216035   5.406   6.261   6.902  1.0888  0.1260 -1.5087
 5046SOL     OW16036   3.522   3.412   3.564 -0.3276  0.0652  0.1687
 5046SOL    HW116037   3.489   3.400   3.471  0.8166 -0.9821 -0.1212
 5046SOL    HW216038   3.606   3.467   3.563  0.7323 -1.5060  0.3668
 5047SOL     OW16039   0.648   3.526   0.953 -0.5695  0.1104  0.2155
 5047SOL    HW116040   0.560   3.489   0.984 -0.4420 -0.5279 -0.1629
 5047SOL    HW216041   0.698   3.563   1.031 -1.6758  1.5876  0.2683
 5048SOL     OW16042   0.719   6.535   3.873  0.4223  0.1667 -0.2330
 5048SOL    HW116043   0.769   6.603   3.819 -1.0096 -0.0488 -1.8905
 5048SOL    HW216044   0.741   6.443   3.839  0.2181 -0.0318  0.1694
 5049SOL     OW16045   6.716   3.461   0.830 -0.3036  0.4593 -0.5170
 5049SOL    HW116046   6.651   3.417   0.892 -2.9836  0.8452 -2.8399
 5049SOL    HW216047   6.726   3.557   0.854 -3.3531  1.2797 -1.9909
 5050SOL     OW16048   1.634   0.367   1.509  0.1867 -0.0987 -0.2224
 5050SOL    HW116049   1.574   0.313   1.568 -2.0219  0.9016 -1.4147
 5050SOL    HW216050   1.637   0.461   1.543  1.1255 -0.1421 -0.1649
 5051SOL     OW16051   4.726   2.633   1.577  0.2401 -0.1224  0.1003
 5051SOL    HW116052   4.672   2.673   1.651  0.2250 -1.1390  0.6684
 5051SOL    HW216053   4.805   2.586   1.616  0.6929  0.0437 -0.6056
 5052SOL     OW16054   2.013   1.984   0.197  0.5844 -0.7008 -0.1760
 5052SOL    HW116055   1.998   2.059   0.262  1.0530 -0.1750 -0.6488
 5052SOL    HW216056   2.077   1.919   0.236  0.7288 -0.4784 -0.0363
 5053SOL     OW16057   1.641   4.170   2.635  0.5982 -0.0193 -0.5466
 5053SOL    HW116058   1.607   4.107   2.565  0.0443 -0.3479  0.0060
 5053SOL    HW216059   1.681   4.250   2.591 -0.4624  0.1525 -1.2348
 5054SOL     OW16060   4.312   5.467   5.145 -0.0533  0.5322 -0.4473
 5054SOL    HW116061   4.389   5.530   5.154  0.6277 -0.4264  0.9899
 5054SOL    HW216062   4.298   5.419   5.232 -1.1758 -0.5693 -1.1907
 5055SOL     OW16063   2.169   2.046   6.423 -0.0282 -0.4078 -0.2750
 5055SOL    HW116064   2.157   2.102   6.341 -0.3497 -1.4815 -0.9782
 5055SOL    HW216065   2.094   1.980   6.429 -0.0698 -0.2629  0.9549
 5056SOL     OW16066   5.576   4.190   0.512 -0.2579  0.3584 -0.0564
 5056SOL    HW116067   5.603   4.139   0.593 -0.7515 -0.8488 -0.6174
 5056SOL    HW216068   5.552   4.283   0.537 -0.4929 -0.0213  1.1909
 5057SOL     OW16069   5.886   4.899   2.821  0.1324 -0.5888  0.1332
 5057SOL    HW116070   5.874   4.914   2.919  3.2183  3.5363  0.1435
 5057SOL    HW216071   5.812   4.945   2.771  0.6930  0.8478  0.5580
 5058SOL     OW16072   3.607   3.563   3.875 -0.4264  0.2278 -0.2837
 5058SOL    HW116073   3.630   3.491   3.941 -0.4149  0.2881 -0.2220
 5058SOL    HW216074   3.662   3.551   3.793 -0.7195 -0.0764 -0.4374
 5059SOL     OW16075   6.228   0.934   1.974  0.5351 -0.2856  0.2820
 5059SOL    HW116076   6.257   1.004   2.039 -0.1678  0.9416 -0.6958
 5059SOL    HW216077   6.157   0.971   1.914 -0.7136 -2.1848  0.4846
 5060SOL     OW16078   1.368   2.476   0.687  0.0178  0.2704  0.6071
 5060SOL    HW116079   1.340   2.476   0.591  2.2921 -0.2648 -0.1035
 5060SOL    HW216080   1.467   2.464   0.693  0.1336  1.8211  2.9813
 5061SOL     OW16081   3.768   2.913   0.642 -0.3018 -0.8397 -0.3481
 5061SOL    HW116082   3.811   2.915   0.552 -1.0902 -0.5903 -0.7347
 5061SOL    HW216083   3.811   2.981   0.701  2.8221 -3.4986  0.7501
 5062SOL     OW16084   6.068   0.188   1.234  0.2951  0.1494  0.2242
 5062SOL    HW116085   6.094   0.269   1.288  2.7372 -2.0490  2.6707
 5062SOL    HW216086   6.148   0.131   1.220 -1.5302 -2.4463 -0.3516
 5063SOL     OW16087   0.487   6.380   4.863 -0.3867  0.2495 -0.0609
 5063SOL    HW116088   0.452   6.309   4.923  0.8822 -0.6200 -0.3296
 5063SOL    HW216089   0.447   6.369   4.772 -2.0596  1.3765  0.4793
 5064SOL     OW16090   7.008   3.742   5.700  0.0128 -0.5519  0.5063
 5064SOL    HW116091   7.051   3.740   5.791 -0.0516  1.0095  0.6021
 5064SOL    HW216092   6.909   3.748   5.710 -0.0483 -1.1694  0.3143
 5065SOL     OW16093   3.012   6.930   5.658  0.0159 -0.0429 -0.3656
 5065SOL    HW116094   3.078   6.880   5.603 -0.5099  0.7250 -1.7331
 5065SOL    HW216095   3.060   6.986   5.726  0.6780 -0.8043 -0.1930
 5066SOL     OW16096   4.784   3.996   4.327 -0.3730  0.2770  0.2544
 5066SOL    HW116097   4.745   4.087   4.315  0.9395  0.5246 -3.2641
 5066SOL    HW216098   4.710   3.929   4.337 -1.3464  1.6268  2.8841
 5067SOL     OW16099   5.864   1.967   1.891  0.2139 -0.0794  0.1508
 5067SOL    HW116100   5.786   1.949   1.830  0.1752  0.0240  0.1706
 5067SOL    HW216101   5.927   1.889   1.887  0.6818  0.3321 -0.7524
 5068SOL     OW16102   3.972   2.983   6.705  0.6979  0.1099 -0.1330
 5068SOL    HW116103   3.907   3.039   6.756 -0.4973 -0.3032 -1.1349
 5068SOL    HW216104   4.032   3.043   6.651 -0.2211  0.4615 -0.7916
 5069SOL     OW16105   1.443   3.959   4.948 -0.3302  0.0543  0.6576
 5069SOL    HW116106   1.457   4.058   4.943  0.6288 -0.1252 -0.9245
 5069SOL    HW216107   1.528   3.912   4.924 -1.3201 -1.1234 -0.7700
 5070SOL     OW16108   5.036   4.454   4.840 -0.5954  0.1737  0.3866
 5070SOL    HW116109   5.121   4.444   4.893  0.8059  3.3717 -0.9628
 5070SOL    HW216110   5.020   4.370   4.787  2.8571  0.0720 -0.7611
 5071SOL     OW16111   5.464   2.337   4.426  0.0026  0.0555  0.4748
 5071SOL    HW116112   5.432   2.374   4.514  0.1048  0.4461  0.3467
 5071SOL    HW216113   5.405   2.371   4.353 -0.2780 -0.5232  0.4234
 5072SOL     OW16114   6.817   0.783   0.930  0.7888  0.5053  0.2234
 5072SOL    HW116115   6.728   0.738   0.919  1.2393 -0.1579 -0.7520
 5072SOL    HW216116   6.802   0.876   0.964 -0.2191  0.0916  0.9994
 5073SOL     OW16117   6.401   6.014   2.635  0.1946  0.1404  0.4254
 5073SOL    HW116118   6.499   6.000   2.616 -0.4911 -0.8277 -3.1505
 5073SOL    HW216119   6.368   6.093   2.584 -1.2279 -0.6298  0.0909
 5074SOL     OW16120   3.018   2.959   0.153  0.6220  0.2224 -0.7602
 5074SOL    HW116121   2.964   2.917   0.226  0.4818  2.1467  0.3014
 5074SOL    HW216122   3.086   3.020   0.192  0.0835  1.8390 -2.2211
 5075SOL     OW16123   1.218   0.775   2.185 -0.1219 -0.4150  0.4204
 5075SOL    HW116124   1.245   0.765   2.090  1.2200 -1.1977  0.8558
 5075SOL    HW216125   1.271   0.712   2.242  0.7322  1.5613  1.9580
 5076SOL     OW16126   4.820   0.778   0.502 -0.1554 -0.0595  0.2155
 5076SOL    HW116127   4.726   0.783   0.467  0.1131 -1.0356 -0.7065
 5076SOL    HW216128   4.821   0.801   0.599 -1.9528 -3.7197  1.2629
 5077SOL     OW16129   0.174   2.351   3.542 -0.6783 -0.0740  0.1155
 5077SOL    HW116130   0.273   2.356   3.536 -0.3602 -2.4173  1.9854
 5077SOL    HW216131   0.134   2.369   3.452  1.4420  0.3361 -0.7939
 5078SOL     OW16132   2.028   0.941   3.917 -0.7452 -0.1462 -0.0227
 5078SOL    HW116133   1.943   0.897   3.890 -1.8112  0.4300  2.2054
 5078SOL    HW216134   2.029   1.035   3.884 -2.2531  0.7063  2.1453
 5079SOL     OW16135   1.928   5.697   6.127  0.0992  0.7711  0.4956
 5079SOL    HW116136   2.011   5.694   6.070 -0.1494  1.3690  0.0848
 5079SOL    HW216137   1.871   5.773   6.097 -0.2172  0.8630  1.3106
 5080SOL     OW16138   5.781   0.145   5.982 -0.1593  0.0700  0.5328
 5080SOL    HW116139   5.827   0.198   6.053  1.1363  0.6330 -0.6778
 5080SOL    HW216140   5.686   0.177   5.973  0.7749  2.8852 -0.7115
 5081SOL     OW16141   3.641   3.678   5.227 -0.1371  0.0854  0.1524
 5081SOL    HW116142   3.736   3.653   5.245 -0.0038  0.9906  0.7680
 5081SOL    HW216143   3.581   3.637   5.296 -0.4162 -1.7752 -1.1066
 5082SOL     OW16144   0.504   5.936   5.724 -0.4664 -0.4236 -0.5873
 5082SOL    HW116145   0.439   5.863   5.702 -0.9814 -0.3213  0.5201
 5082SOL    HW216146   0.466   6.024   5.697  0.1293 -0.5386 -1.8682
 5083SOL     OW16147   2.764   6.551   3.455  0.2347 -0.7279  0.2555
 5083SOL    HW116148   2.863   6.563   3.464  0.3371 -1.5890  0.3297
 5083SOL    HW216149   2.723   6.637   3.423  0.8856 -0.0880  1.0836
 5084SOL     OW16150   0.738   3.920   5.841  0.5845 -0.5045 -0.0804
 5084SOL    HW116151   0.666   3.957   5.899 -0.6220 -1.3080 -1.0093
 5084SOL    HW216152   0.786   3.848   5.891  2.2884  1.5164  1.3664
 5085SOL     OW16153   4.822   4.342   0.263 -0.6695  0.1824 -0.1572
 5085SOL    HW116154   4.911   4.384   0.247 -0.5110  0.4483  1.3349
 5085SOL    HW216155   4.812   4.263   0.202 -0.6983  1.8888 -2.5384
 5086SOL     OW16156   6.674   5.039   3.363  0.0787  0.4235 -0.1326
 5086SOL    HW116157   6.728   4.998   3.290 -0.3703 -0.2240 -0.1149
 5086SOL    HW216158   6.735   5.078   3.432  0.5435 -0.8538  0.2053
 5087SOL     OW16159   6.578   4.851   2.277  0.0146 -0.0213  0.3463
 5087SOL    HW116160   6.533   4.842   2.366  0.4418 -0.7010  0.4992
 5087SOL    HW216161   6.513   4.830   2.204 -0.4804  1.0426  0.4680
 5088SOL     OW16162   4.538   5.776   4.811  0.4153 -0.5845  0.2844
 5088SOL    HW116163   4.501   5.866   4.785 -0.4520 -0.8983  0.4058
 5088SOL    HW216164   4.467   5.706   4.798  1.2156 -1.3190 -0.2116
 5089SOL     OW16165   5.206   3.938   3.538 -0.1440 -0.0473 -0.3927
 5089SOL    HW116166   5.136   3.866   3.532 -0.6908  0.3487  0.8099
 5089SOL    HW216167   5.285   3.903   3.589 -0.7340  0.4100  0.8832
 5090SOL     OW16168   1.035   3.496   2.224  0.0132 -0.3634 -0.2172
 5090SOL    HW116169   1.019   3.549   2.140 -1.5650  0.4312  0.5422
 5090SOL    HW216170   1.094   3.418   2.203 -0.7389 -0.4686 -2.1886
 5091SOL     OW16171   0.335   6.232   3.298  0.3599  0.2532 -0.4415
 5091SOL    HW116172   0.417   6.216   3.353  1.1251 -1.0185 -1.8999
 5091SOL    HW216173   0.345   6.317   3.246 -0.0879  1.1035  0.7829
 5092SOL     OW16174   3.481   3.704   1.534  0.0402 -0.1544 -0.0380
 5092SOL    HW116175   3.540   3.785   1.523  0.7474 -0.1140  3.1298
 5092SOL    HW216176   3.498   3.663   1.623 -1.6081 -2.8112 -0.8493
 5093SOL     OW16177   3.052   3.279   1.275  0.2007  0.2591  0.3890
 5093SOL    HW116178   3.074   3.183   1.293 -0.4137 -0.0090 -0.2693
 5093SOL    HW216179   2.956   3.288   1.250 -0.2704  1.3047  2.3553
 5094SOL     OW16180   0.373   5.462   4.871  0.3815  0.3733 -0.0265
 5094SOL    HW116181   0.425   5.382   4.901  1.2149  1.2589  0.9410
 5094SOL    HW216182   0.285   5.465   4.919  0.4144  0.1338  0.0522
 5095SOL     OW16183   0.833   3.140   2.550 -0.3506 -0.3508 -0.4887
 5095SOL    HW116184   0.769   3.132   2.627  0.4616  1.6342  0.4696
 5095SOL    HW216185   0.782   3.162   2.467 -1.0693 -0.5872 -0.1217
 5096SOL     OW16186   3.227   2.538   1.156  0.5046 -0.4204  0.2954
 5096SOL    HW116187   3.324   2.516   1.150  1.6021  3.4194  1.3323
 5096SOL    HW216188   3.190   2.553   1.064  1.6753  0.8386  0.0015
 5097SOL     OW16189   2.020   0.229   1.894 -0.1857 -0.0728  0.0377
 5097SOL    HW116190   2.077   0.207   1.815 -1.8667 -0.2571 -1.1833
 5097SOL    HW216191   2.074   0.220   1.978  1.5373 -0.2705 -1.0407
 5098SOL     OW16192   0.504   1.415   6.909 -0.0805 -0.2422 -0.1529
 5098SOL    HW116193   0.562   1.390   6.987  0.4262 -0.3488 -0.5572
 5098SOL    HW216194   0.457   1.502   6.929 -0.9957 -0.9316  0.8087
 5099SOL     OW16195   0.053   1.151   3.892 -0.1858  0.2330 -0.0576
 5099SOL    HW116196   0.014   1.215   3.958 -1.1460 -0.2019 -0.1943
 5099SOL    HW216197  -0.015   1.129   3.823  0.0486 -1.1450  0.1332
 5100SOL     OW16198   6.295   5.953   5.263 -0.4554  0.1743  0.2009
 5100SOL    HW116199   6.297   5.997   5.173  0.2417  0.8516  0.5395
 5100SOL    HW216200   6.295   6.022   5.334 -2.0586 -0.3354  0.7438
 5101SOL     OW16201   4.438   6.818   6.919  0.1872  0.2916  1.2003
 5101SOL    HW116202   4.484   6.746   6.971  0.7475 -0.0420  0.2839
 5101SOL    HW216203   4.349   6.838   6.960 -0.5049 -1.7489  0.8505
 5102SOL     OW16204   6.072   1.596   4.833 -0.7655  0.0657  0.7851
 5102SOL    HW116205   6.078   1.670   4.900  0.5598  0.5259  0.1779
 5102SOL    HW216206   6.125   1.619   4.752 -0.1305 -1.6427  0.6704
 5103SOL     OW16207   1.168   2.542   2.436 -0.3221 -0.0089 -0.2104
 5103SOL    HW116208   1.205   2.573   2.524 -1.1724  1.6296 -0.3922
 5103SOL    HW216209   1.069   2.552   2.437 -0.3975 -0.5747 -1.1587
 5104SOL     OW16210   1.423   6.895   3.058 -0.1412  0.1872 -0.3199
 5104SOL    HW116211   1.460   6.872   2.968 -1.2430 -5.2174  0.2540
 5104SOL    HW216212   1.323   6.902   3.052 -0.2591 -0.6348  0.4885
 5105SOL     OW16213   5.621   3.802   0.090 -0.0391  0.0473 -0.7391
 5105SOL    HW116214   5.611   3.847   0.002 -4.6059  0.9478  0.0061
 5105SOL    HW216215   5.559   3.723   0.094 -2.5978  1.9747  2.6377
 5106SOL     OW16216   3.390   1.546   2.598 -0.3626 -0.3119  0.1591
 5106SOL    HW116217   3.363   1.638   2.627  0.7844  0.2818 -0.5847
 5106SOL    HW216218   3.489   1.536   2.605 -0.4248 -1.3487 -0.1915
 5107SOL     OW16219   4.453   0.108   1.447  0.4872 -0.5827 -0.0045
 5107SOL    HW116220   4.402   0.056   1.379 -1.7973  0.9546  0.4075
 5107SOL    HW216221   4.393   0.132   1.523  1.7304  1.5573  0.4028
 5108SOL     OW16222   3.088   3.139   3.372  0.0568  0.3839  0.3084
 5108SOL    HW116223   3.103   3.113   3.468  2.4336 -2.7334 -0.7130
 5108SOL    HW216224   3.129   3.229   3.355  3.3397 -0.7232  1.4644
 5109SOL     OW16225   0.941   6.892   4.836  0.4612 -0.6683 -1.0084
 5109SOL    HW116226   0.938   6.911   4.934 -4.2413 -0.1226 -1.0499
 5109SOL    HW216227   0.987   6.804   4.821  1.0426 -0.9169  1.6668
 5110SOL     OW16228   0.857   5.833   6.800 -0.0282 -0.1693 -0.0766
 5110SOL    HW116229   0.818   5.916   6.761  0.8552  0.1580 -0.2927
 5110SOL    HW216230   0.811   5.811   6.886 -1.0988 -0.1561 -0.6360
 5111SOL     OW16231   6.836   6.028   0.299 -0.3369  0.8115 -0.2586
 5111SOL    HW116232   6.764   6.088   0.263 -0.9568  1.3731  1.7745
 5111SOL    HW216233   6.915   6.083   0.324  0.1235  0.4180 -0.8215
 5112SOL     OW16234   0.067   6.326   1.746 -0.0882 -0.1291 -0.2250
 5112SOL    HW116235   0.077   6.422   1.721 -0.4263 -0.0329 -0.0043
 5112SOL    HW216236   0.128   6.304   1.822  1.9407 -0.7617 -1.9688
 5113SOL     OW16237   2.615   6.539   1.880 -0.0489  0.7155 -0.2505
 5113SOL    HW116238   2.563   6.615   1.842 -0.1460  0.3275 -0.9133
 5113SOL    HW216239   2.707   6.570   1.905  1.1085  0.3671 -3.6385
 5114SOL     OW16240   3.110   3.377   0.177  0.3963  0.0735 -1.0247
 5114SOL    HW116241   3.183   3.309   0.170 -0.6945 -1.3032  0.2722
 5114SOL    HW216242   3.089   3.392   0.274 -1.0983  0.3545 -1.3677
 5115SOL     OW16243   1.199   6.319   5.846  0.2126 -0.0695 -0.3336
 5115SOL    HW116244   1.146   6.237   5.822 -0.8908  0.3626  0.5481
 5115SOL    HW216245   1.261   6.342   5.771  0.4120 -1.6022 -0.6727
 5116SOL     OW16246   0.185   5.368   5.923 -0.1757 -0.7934 -0.0195
 5116SOL    HW116247   0.218   5.339   6.012  1.8385 -1.4174 -0.9046
 5116SOL    HW216248   0.104   5.314   5.897 -0.5086 -0.9032  1.2041
 5117SOL     OW16249   0.138   5.759   1.896 -0.2864 -0.1769  0.3284
 5117SOL    HW116250   0.238   5.760   1.890 -0.3075 -1.3450 -0.7102
 5117SOL    HW216251   0.101   5.833   1.840 -0.0345 -0.7692 -0.6363
 5118SOL     OW16252   5.425   6.111   0.616 -0.2956  0.1830  0.1442
 5118SOL    HW116253   5.470   6.027   0.645 -1.6980 -0.8576 -0.5953
 5118SOL    HW216254   5.326   6.096   0.607 -0.2950  1.0909 -2.6619
 5119SOL     OW16255   6.545   0.760   3.066  0.3250  0.0774  0.4872
 5119SOL    HW116256   6.484   0.770   3.145 -0.0729  1.0484  0.0857
 5119SOL    HW216257   6.530   0.671   3.023  0.7321 -0.5684  1.6414
 5120SOL     OW16258   4.438   2.042   2.776  0.9505 -0.0718 -0.3921
 5120SOL    HW116259   4.360   2.089   2.816 -0.2481 -2.5331  0.3934
 5120SOL    HW216260   4.429   2.042   2.676 -0.4165 -0.7922 -0.2986
 5121SOL     OW16261   3.424   1.432   6.809 -0.6825 -0.1377 -0.4353
 5121SOL    HW116262   3.428   1.335   6.833  0.3006 -0.0782 -0.3192
 5121SOL    HW216263   3.374   1.482   6.880 -0.6717 -0.4680 -0.1925
 5122SOL     OW16264   3.800   1.725   4.262 -0.3129 -0.2709 -0.1898
 5122SOL    HW116265   3.745   1.710   4.180 -1.5352 -1.4420  0.7943
 5122SOL    HW216266   3.809   1.639   4.313  1.0040  0.2808  0.5596
 5123SOL     OW16267   4.844   4.561   5.003 -0.5205 -0.1589 -0.3464
 5123SOL    HW116268   4.747   4.565   4.978 -0.2647  2.0291 -1.2273
 5123SOL    HW216269   4.896   4.521   4.928 -0.6874 -1.0767  0.0148
 5124SOL     OW16270   2.688   3.954   6.261 -0.8624  0.6487 -0.6497
 5124SOL    HW116271   2.720   4.047   6.280 -0.1983  0.7931 -2.2992
 5124SOL    HW216272   2.767   3.893   6.254 -1.1976  0.2516 -0.9977
 5125SOL     OW16273   1.124   2.931   4.233 -0.5515  0.3639  0.4764
 5125SOL    HW116274   1.109   2.836   4.207 -1.6750  0.8365 -0.7143
 5125SOL    HW216275   1.222   2.948   4.243 -0.3905 -1.2158  2.0241
 5126SOL     OW16276   0.371   4.344   5.456 -0.0713 -0.2407 -0.1521
 5126SOL    HW116277   0.389   4.384   5.366 -0.6569 -0.6106 -0.4424
 5126SOL    HW216278   0.331   4.253   5.445  0.9678 -0.7927  0.4999
 5127SOL     OW16279   5.727   5.278   6.222 -0.5214 -0.1421  0.2146
 5127SOL    HW116280   5.666   5.200   6.235  2.1860 -2.3088  0.8599
 5127SOL    HW216281   5.733   5.331   6.306 -3.2306  1.5637 -0.5494
 5128SOL     OW16282   0.622   5.975   6.485  0.1366 -0.5266 -0.9049
 5128SOL    HW116283   0.628   6.075   6.481  0.3171 -0.4595  0.6648
 5128SOL    HW216284   0.533   5.948   6.520  0.6011 -0.8734  0.0246
 5129SOL     OW16285   4.414   0.245   2.339 -0.1004  0.1558 -0.5057
 5129SOL    HW116286   4.365   0.332   2.341 -1.4746 -0.5752 -0.9509
 5129SOL    HW216287   4.496   0.253   2.282  0.6232  1.5398  0.6423
 5130SOL     OW16288   6.505   4.610   5.349 -0.0336 -0.3143  0.6033
 5130SOL    HW116289   6.434   4.639   5.413 -0.8256 -0.0649 -0.3613
 5130SOL    HW216290   6.591   4.657   5.369  0.1022 -1.1827  2.2717
 5131SOL     OW16291   1.637   3.694   3.905 -0.5129  0.0974 -0.5630
 5131SOL    HW116292   1.695   3.617   3.933 -0.2951  0.2527 -0.5944
 5131SOL    HW216293   1.579   3.665   3.829 -1.1614 -0.3538  0.0836
 5132SOL     OW16294   3.893   2.081   5.806  0.2033  0.2894 -0.0363
 5132SOL    HW116295   3.952   2.115   5.732 -0.4589  0.5738 -0.4489
 5132SOL    HW216296   3.947   2.066   5.888  1.1552 -1.0094 -0.8588
 5133SOL     OW16297   2.023   6.195   5.257  0.2486  0.1397 -0.8326
 5133SOL    HW116298   1.926   6.207   5.277  0.8388 -0.7398  3.5948
 5133SOL    HW216299   2.069   6.284   5.265 -0.0008  0.3541 -1.7169
 5134SOL     OW16300   0.032   6.496   2.065  0.0440  0.1434 -0.0018
 5134SOL    HW116301   0.061   6.512   2.160 -0.0952 -1.6334  0.3806
 5134SOL    HW216302   0.108   6.456   2.014 -0.0878  0.4787 -0.4628
 5135SOL     OW16303   5.017   5.017   4.047  0.3778 -0.7768  0.2775
 5135SOL    HW116304   4.999   4.965   4.131  0.7986  0.9895  1.5012
 5135SOL    HW216305   4.930   5.044   4.005  0.1664 -0.8627  0.6584
 5136SOL     OW16306   6.694   1.632   4.917  0.4174  0.1018  0.3644
 5136SOL    HW116307   6.685   1.535   4.893  0.0692  0.1136  0.4357
 5136SOL    HW216308   6.754   1.642   4.995 -1.9793 -0.3563  2.3911
 5137SOL     OW16309   5.551   3.297   4.022 -0.0496  0.0752  0.1527
 5137SOL    HW116310   5.569   3.296   4.120 -0.0224  0.2918  0.1501
 5137SOL    HW216311   5.606   3.368   3.978 -0.5171  0.4008  0.0741
 5138SOL     OW16312   3.990   3.609   4.353 -0.0915 -0.0470 -0.1665
 5138SOL    HW116313   3.905   3.593   4.402 -0.7849  0.1492 -1.2634
 5138SOL    HW216314   4.066   3.614   4.418 -1.2078  2.1730  1.0661
 5139SOL     OW16315   0.345   6.686   4.405  0.0724  0.3590  0.1530
 5139SOL    HW116316   0.405   6.678   4.484  2.2863  0.8461 -1.3865
 5139SOL    HW216317   0.361   6.774   4.360 -1.9998  0.6051 -0.2044
 5140SOL     OW16318   3.708   3.140   5.877  0.4129  0.5849  0.2975
 5140SOL    HW116319   3.689   3.055   5.827 -0.2136  1.0251 -0.2281
 5140SOL    HW216320   3.705   3.122   5.975  1.6331 -0.2872  0.2033
 5141SOL     OW16321   0.266   1.680   6.321  0.3738  0.3190  0.4028
 5141SOL    HW116322   0.229   1.600   6.368  1.9724 -2.4327 -2.5676
 5141SOL    HW216323   0.356   1.703   6.358  1.7117 -1.9525 -1.1727
 5142SOL     OW16324   6.259   6.519   4.851  0.1532 -0.3725  0.0597
 5142SOL    HW116325   6.308   6.468   4.780  1.3194  1.4927 -0.5391
 5142SOL    HW216326   6.228   6.456   4.922 -1.1679 -2.3500 -2.1223
 5143SOL     OW16327   6.924   4.845   6.321 -0.1280 -0.8077  0.2706
 5143SOL    HW116328   6.850   4.908   6.301  0.0466 -0.9730 -1.0278
 5143SOL    HW216329   6.886   4.761   6.360 -0.8294 -1.4054 -1.5405
 5144SOL     OW16330   0.565   3.791   4.177 -0.1790 -0.5818 -0.0765
 5144SOL    HW116331   0.588   3.736   4.258  0.7499  0.7080  0.5818
 5144SOL    HW216332   0.618   3.758   4.099 -0.4714 -1.3310  0.0361
 5145SOL     OW16333   4.911   6.888   1.154  0.0682  0.2430 -0.3207
 5145SOL    HW116334   4.816   6.907   1.178  0.8474  0.9604  2.5476
 5145SOL    HW216335   4.969   6.964   1.185  1.7523 -0.8262 -0.7332
 5146SOL     OW16336   3.737   2.928   3.545 -0.0728 -0.1043 -0.2945
 5146SOL    HW116337   3.713   3.022   3.523  0.8984 -0.1730 -1.7839
 5146SOL    HW216338   3.687   2.866   3.485  1.3079 -0.3843 -1.2044
 5147SOL     OW16339   6.912   3.824   4.651 -0.2808  0.1720 -0.2203
 5147SOL    HW116340   6.905   3.813   4.750 -0.7694 -1.0297 -0.3758
 5147SOL    HW216341   6.821   3.833   4.611 -0.2810 -1.7870 -0.7873
 5148SOL     OW16342   0.202   0.198   0.953 -0.4596  0.7137 -0.0656
 5148SOL    HW116343   0.295   0.186   0.987 -0.6921  0.8953  0.6614
 5148SOL    HW216344   0.201   0.268   0.882  0.1371 -0.1160 -0.9196
 5149SOL     OW16345   4.642   5.393   5.045  0.1423  0.3880  0.0380
 5149SOL    HW116346   4.727   5.340   5.047 -0.1013 -0.0253 -0.4151
 5149SOL    HW216347   4.564   5.331   5.038 -0.4129  0.5436  3.1147
 5150SOL     OW16348   2.737   4.706   3.747  0.0274 -0.3382  0.2676
 5150SOL    HW116349   2.748   4.752   3.659  1.7620 -0.5208  0.3494
 5150SOL    HW216350   2.827   4.689   3.787 -0.5652 -3.2042  0.5540
 5151SOL     OW16351   0.969   3.151   1.594 -0.4569  0.2302 -0.1503
 5151SOL    HW116352   0.932   3.087   1.662 -2.4416  1.1897 -0.2456
 5151SOL    HW216353   0.909   3.152   1.513  0.4858  0.9507 -0.8650
 5152SOL     OW16354   2.775   5.204   6.802 -0.1139 -0.2983  0.2590
 5152SOL    HW116355   2.753   5.108   6.816  1.1599 -0.8169 -1.0303
 5152SOL    HW216356   2.710   5.245   6.739  0.0049 -0.6315 -0.0839
 5153SOL     OW16357   7.012   1.062   0.118 -0.3457 -0.7512 -0.0050
 5153SOL    HW116358   6.971   1.033   0.205 -2.6183 -1.2663 -1.1808
 5153SOL    HW216359   7.050   0.983   0.071 -2.1889 -1.0980 -0.9926
 5154SOL     OW16360   1.547   3.840   6.715  0.9563  0.4078  0.2108
 5154SOL    HW116361   1.500   3.917   6.758 -1.8500 -0.6954 -0.6701
 5154SOL    HW216362   1.617   3.874   6.653 -1.5021  2.4440 -1.6658
 5155SOL     OW16363   4.030   1.780   0.727  0.0928  0.4522 -0.0415
 5155SOL    HW116364   4.122   1.781   0.765  0.5706 -2.3035 -0.8675
 5155SOL    HW216365   3.964   1.807   0.797  1.4822  2.7642  0.4757
 5156SOL     OW16366   0.175   5.595   2.110 -0.1274  0.2703 -0.0641
 5156SOL    HW116367   0.102   5.581   2.177  1.5044  2.0326  2.2789
 5156SOL    HW216368   0.143   5.658   2.039 -0.6330  2.0487  1.6176
 5157SOL     OW16369   3.598   0.592   3.133 -0.4748 -0.2047 -0.3973
 5157SOL    HW116370   3.512   0.613   3.087 -1.6715 -3.9166 -0.1474
 5157SOL    HW216371   3.674   0.614   3.073 -1.5504  2.3420 -0.9712
 5158SOL     OW16372   6.687   2.088   6.692 -0.3174 -0.4264  0.6012
 5158SOL    HW116373   6.678   2.110   6.789 -3.2770 -1.7853  0.7432
 5158SOL    HW216374   6.722   1.996   6.682 -0.6915 -0.5493  0.4112
 5159SOL     OW16375   6.529   3.134   6.830 -0.1571 -0.0088 -0.1221
 5159SOL    HW116376   6.618   3.109   6.793 -0.0774 -2.5936  1.5395
 5159SOL    HW216377   6.542   3.190   6.912 -0.1582  0.8383 -0.6818
 5160SOL     OW16378   0.198   4.915   4.049 -0.5372 -0.4185 -0.0941
 5160SOL    HW116379   0.285   4.964   4.052  1.4030 -3.6648  1.6657
 5160SOL    HW216380   0.123   4.980   4.066  1.7091  2.1124  0.8863
 5161SOL     OW16381   2.018   2.494   0.261  0.3155 -0.4302  0.3971
 5161SOL    HW116382   1.967   2.574   0.290  0.3383  0.5765 -2.1436
 5161SOL    HW216383   2.102   2.487   0.316  1.0658  2.1686 -0.2837
 5162SOL     OW16384   1.479   6.044   1.823  0.3237  0.1137 -0.5400
 5162SOL    HW116385   1.573   6.017   1.839  0.6386  0.9394 -0.9220
 5162SOL    HW216386   1.450   6.012   1.733  0.4376  0.3607 -0.6661
 5163SOL     OW16387   4.817   1.461   0.180  0.1698 -0.0670 -0.0610
 5163SOL    HW116388   4.878   1.383   0.173  0.1072 -0.1320  0.1095
 5163SOL    HW216389   4.740   1.438   0.239  0.5821  0.3967  0.6691
 5164SOL     OW16390   4.418   1.590   0.891 -0.3645 -0.2460 -0.3474
 5164SOL    HW116391   4.442   1.515   0.829 -0.3586 -1.1665  0.7171
 5164SOL    HW216392   4.498   1.616   0.945 -0.7935 -0.7184  0.5424
 5165SOL     OW16393   1.040   5.003   0.278  0.1656  0.0067  0.5450
 5165SOL    HW116394   1.078   5.095   0.288 -0.4615  0.2773  0.4816
 5165SOL    HW216395   0.957   4.995   0.333 -0.3892 -0.1675 -0.2993
 5166SOL     OW16396   1.855   2.986   2.518  0.0507  0.1886  0.2266
 5166SOL    HW116397   1.952   2.971   2.533  0.3953 -1.3037 -2.7005
 5166SOL    HW216398   1.841   3.074   2.474  0.3548 -0.3564 -1.0235
 5167SOL     OW16399   0.627   5.371   4.023 -0.3593  0.1161 -0.9366
 5167SOL    HW116400   0.611   5.361   3.925 -1.3326  0.0618 -0.7893
 5167SOL    HW216401   0.570   5.305   4.073 -0.4290  0.6313 -0.3116
 5168SOL     OW16402   5.760   2.110   3.064 -1.0448  0.0862 -0.2636
 5168SOL    HW116403   5.734   2.120   3.160 -1.1476  1.3208 -0.3960
 5168SOL    HW216404   5.682   2.132   3.006 -0.3773  1.6075 -0.6343
 5169SOL     OW16405   4.697   1.904   2.643  0.1596 -0.2832 -0.6526
 5169SOL    HW116406   4.721   2.001   2.649  1.1572 -0.6281  1.9562
 5169SOL    HW216407   4.646   1.877   2.724  0.5483 -2.1112 -0.9857
 5170SOL     OW16408   1.286   2.404   4.330  0.0549 -0.6467 -0.2582
 5170SOL    HW116409   1.359   2.384   4.396  0.1488 -2.5186 -0.8813
 5170SOL    HW216410   1.316   2.378   4.239 -1.0202 -0.4598 -0.6723
 5171SOL     OW16411   6.995   3.489   5.084 -0.1213 -0.3970 -0.0895
 5171SOL    HW116412   6.963   3.447   4.999 -1.2801  0.2542  0.0012
 5171SOL    HW216413   6.995   3.588   5.075  1.5609 -0.3411  0.0611
 5172SOL     OW16414   0.261   3.326   4.899  0.2035  0.5230  0.4450
 5172SOL    HW116415   0.164   3.313   4.880  0.3594  0.5037 -0.3473
 5172SOL    HW216416   0.289   3.261   4.970 -0.3018  0.3552  0.4981
 5173SOL     OW16417   2.668   4.180   5.573  0.1340  0.6095  0.1149
 5173SOL    HW116418   2.704   4.273   5.586 -0.5752  0.9585 -0.3295
 5173SOL    HW216419   2.620   4.176   5.486  1.1417 -0.5028 -0.4114
 5174SOL     OW16420   2.150   0.837   4.644  0.8238 -0.6148 -0.3260
 5174SOL    HW116421   2.181   0.898   4.571  2.0045 -0.4609  0.2926
 5174SOL    HW216422   2.204   0.852   4.726 -0.9126 -0.3363  0.8102
 5175SOL     OW16423   1.410   3.484   0.045 -0.2686 -0.1935 -0.3244
 5175SOL    HW116424   1.401   3.562  -0.017  2.4584  1.1455  0.8211
 5175SOL    HW216425   1.355   3.500   0.127 -0.6332 -0.0415 -0.5934
 5176SOL     OW16426   4.582   4.435   0.216 -0.2393 -0.0805  0.3002
 5176SOL    HW116427   4.673   4.407   0.247 -0.1195  1.1699  1.1806
 5176SOL    HW216428   4.586   4.529   0.181 -1.1800 -0.0227  0.3094
 5177SOL     OW16429   4.150   0.726   2.284  0.2325 -0.5265 -0.4791
 5177SOL    HW116430   4.175   0.730   2.381  0.7540 -2.6438 -0.4765
 5177SOL    HW216431   4.058   0.764   2.272 -0.3779 -1.4017  1.0769
 5178SOL     OW16432   0.926   5.783   1.619 -0.1157 -0.7670 -0.4122
 5178SOL    HW116433   0.962   5.699   1.578  1.1115 -1.0164  1.0591
 5178SOL    HW216434   0.989   5.813   1.691 -2.7232 -1.0501  2.1638
 5179SOL     OW16435   4.856   5.029   2.469 -0.3157 -0.0015 -0.0848
 5179SOL    HW116436   4.789   5.033   2.543  0.5142 -0.1313  0.6929
 5179SOL    HW216437   4.810   5.008   2.383 -1.1417 -1.0575  0.5988
 5180SOL     OW16438   2.728   1.606   3.455 -0.9875  0.0856  0.4521
 5180SOL    HW116439   2.783   1.645   3.530 -0.4971 -0.1482  0.2125
 5180SOL    HW216440   2.785   1.594   3.374 -2.0097  2.4656 -0.7117
 5181SOL     OW16441   1.099   6.782   5.887  0.0809  0.3011 -0.2564
 5181SOL    HW116442   1.080   6.853   5.955  1.5966  0.4419  0.0590
 5181SOL    HW216443   1.115   6.695   5.933 -1.2305 -0.1431 -0.6082
 5182SOL     OW16444   5.352   4.130   1.680 -0.1773 -0.0692  0.5224
 5182SOL    HW116445   5.418   4.204   1.692 -0.6540  0.4150  0.2039
 5182SOL    HW216446   5.401   4.044   1.667  0.4979  0.5951 -1.9582
 5183SOL     OW16447   2.962   0.576   2.850 -0.3349  0.1333 -0.0694
 5183SOL    HW116448   3.020   0.527   2.786 -0.9903  2.0916 -2.3005
 5183SOL    HW216449   2.867   0.548   2.838 -0.3943  0.1001  0.4565
 5184SOL     OW16450   1.450   1.122   3.843 -0.4395  0.3576 -0.3019
 5184SOL    HW116451   1.421   1.214   3.814 -0.0224  0.4506 -0.4223
 5184SOL    HW216452   1.383   1.055   3.810 -1.3111  0.7129  0.6709
 5185SOL     OW16453   5.665   0.342   3.139  0.2423 -0.2471 -0.8159
 5185SOL    HW116454   5.568   0.361   3.128 -0.1468 -1.8108 -0.3856
 5185SOL    HW216455   5.701   0.389   3.219 -0.3040 -0.1224 -0.6467
 5186SOL     OW16456   0.889   4.924   5.977 -0.3746 -0.4707  0.3689
 5186SOL    HW116457   0.935   4.839   6.002  1.0921 -0.0332 -0.7216
 5186SOL    HW216458   0.793   4.904   5.954 -0.1669 -1.7559  0.5122
 5187SOL     OW16459   1.423   4.987   4.156 -0.4373  0.3423 -0.3228
 5187SOL    HW116460   1.510   5.023   4.189 -0.5627 -0.3915  0.8806
 5187SOL    HW216461   1.418   4.996   4.057  0.2816  1.9508 -0.2404
 5188SOL     OW16462   6.084   6.648   2.338  0.4235  0.2809 -0.2182
 5188SOL    HW116463   6.100   6.636   2.436  0.9916 -2.0477 -0.5109
 5188SOL    HW216464   5.997   6.605   2.313  0.9694 -0.4605 -0.9197
 5189SOL     OW16465   5.906   0.201   6.956 -0.2173  0.0773  0.3028
 5189SOL    HW116466   5.931   0.278   6.898  1.3249 -0.0372  0.7741
 5189SOL    HW216467   5.949   0.117   6.921 -1.5448 -0.5228  0.0288
 5190SOL     OW16468   1.925   3.145   3.298 -0.3282  0.1345 -0.0390
 5190SOL    HW116469   1.983   3.205   3.244 -1.0951  0.7334 -0.2123
 5190SOL    HW216470   1.927   3.174   3.394  1.9258 -1.6060  0.5323
 5191SOL     OW16471   3.911   4.868   3.762  0.4168  0.0818  0.2233
 5191SOL    HW116472   3.967   4.833   3.836 -1.7972 -0.4203  1.7470
 5191SOL    HW216473   3.953   4.844   3.674  1.8549 -1.4349  1.2643
 5192SOL     OW16474   2.142   6.429   0.414  0.1746  0.0936  0.5083
 5192SOL    HW116475   2.047   6.432   0.381  0.0465  1.5913  0.9503
 5192SOL    HW216476   2.202   6.402   0.339 -0.2326  2.4392 -0.7649
 5193SOL     OW16477   5.404   4.857   0.978 -0.1786 -0.3674  0.1250
 5193SOL    HW116478   5.453   4.820   0.899 -0.0236 -0.7003  0.3786
 5193SOL    HW216479   5.413   4.795   1.056 -1.4788 -0.7065  0.0148
 5194SOL     OW16480   4.290   2.036   5.169  0.1142 -0.3393 -0.1342
 5194SOL    HW116481   4.350   2.044   5.090  1.7247  1.2068  1.1602
 5194SOL    HW216482   4.322   1.963   5.229  0.2612  0.0022  0.2048
 5195SOL     OW16483   6.941   1.688   4.530 -0.3982 -0.3648  0.0685
 5195SOL    HW116484   7.001   1.756   4.488 -0.0470 -1.6946 -1.6856
 5195SOL    HW216485   6.893   1.729   4.608  1.4771  1.2149  0.4509
 5196SOL     OW16486   3.670   1.565   2.604  0.0216 -0.3632  0.0554
 5196SOL    HW116487   3.727   1.503   2.551  0.8655  0.6703 -0.2836
 5196SOL    HW216488   3.728   1.619   2.666 -0.4894  1.1584 -0.7480
 5197SOL     OW16489   0.251   3.178   6.917  0.5511 -0.2769  0.9627
 5197SOL    HW116490   0.301   3.097   6.886  1.5297  1.1537 -1.4868
 5197SOL    HW216491   0.215   3.227   6.837 -0.2802  1.5395  2.3943
 5198SOL     OW16492   5.272   5.247   3.673 -0.6228 -0.2458  0.6020
 5198SOL    HW116493   5.234   5.213   3.759  1.1705  1.6641  2.2418
 5198SOL    HW216494   5.371   5.250   3.679 -0.2312 -2.2373 -2.4669
 5199SOL     OW16495   0.471   5.247   0.913 -0.4769 -0.1628 -0.2736
 5199SOL    HW116496   0.429   5.157   0.904 -1.5793  0.4170 -1.1781
 5199SOL    HW216497   0.404   5.318   0.888  0.5283  0.8754 -0.1024
 5200SOL     OW16498   6.503   3.154   2.325 -0.0539 -0.1361 -0.2237
 5200SOL    HW116499   6.472   3.225   2.261 -2.1141 -0.2050  0.6373
 5200SOL    HW216500   6.597   3.173   2.352 -0.8382  2.8848  0.7569
 5201SOL     OW16501   6.962   6.737   3.943 -0.2714 -0.6972  0.1676
 5201SOL    HW116502   6.915   6.664   3.993  1.9667 -0.6685  2.5362
 5201SOL    HW216503   7.056   6.746   3.977  1.1856 -0.0453 -3.5598
 5202SOL     OW16504   6.256   4.924   6.713 -0.4023 -0.2671  0.0951
 5202SOL    HW116505   6.309   4.872   6.780  1.6240  2.0169  0.3938
 5202SOL    HW216506   6.318   4.964   6.646 -1.8719  1.6278 -0.2071
 5203SOL     OW16507   0.373   2.429   6.666 -0.4291 -0.0361  0.3298
 5203SOL    HW116508   0.285   2.426   6.619  0.1247  0.2570 -0.7449
 5203SOL    HW216509   0.373   2.364   6.742 -1.0536 -1.1120 -0.5804
 5204SOL     OW16510   3.608   5.967   6.428 -0.8543 -0.2273  0.1553
 5204SOL    HW116511   3.582   6.036   6.496  1.2074 -0.4181  1.1987
 5204SOL    HW216512   3.548   5.887   6.437 -0.8166 -0.1197  1.5394
 5205SOL     OW16513   1.143   0.360   2.689 -0.1418  0.1055  0.0630
 5205SOL    HW116514   1.170   0.427   2.620  2.0386  1.0944  1.7332
 5205SOL    HW216515   1.117   0.407   2.773 -1.5612 -1.1029  0.3466
 5206SOL     OW16516   6.843   4.460   5.737 -0.4382 -0.0192  0.1219
 5206SOL    HW116517   6.903   4.415   5.670  0.9137 -0.0251  1.2911
 5206SOL    HW216518   6.892   4.538   5.777 -2.1072  1.4730 -0.6045
 5207SOL     OW16519   0.516   6.415   4.051  0.1512 -0.4494 -0.0479
 5207SOL    HW116520   0.439   6.464   4.094 -1.3643 -1.9352 -0.9563
 5207SOL    HW216521   0.544   6.463   3.968 -0.4541 -0.4126 -0.2357
 5208SOL     OW16522   4.612   2.156   0.505  0.0609 -0.0663 -0.0837
 5208SOL    HW116523   4.660   2.171   0.591  0.3544  1.1905 -0.4550
 5208SOL    HW216524   4.675   2.118   0.438 -0.2322 -1.3106  0.2999
 5209SOL     OW16525   4.810   4.850   4.988  0.0898 -0.7200 -0.3294
 5209SOL    HW116526   4.909   4.863   4.979  0.0974 -1.4434 -1.4692
 5209SOL    HW216527   4.790   4.754   5.006 -0.5179 -1.2590 -3.2736
 5210SOL     OW16528   5.891   2.107   6.136 -0.1990 -0.0891  0.3839
 5210SOL    HW116529   5.884   2.007   6.127  1.1113 -0.3698  1.9984
 5210SOL    HW216530   5.823   2.138   6.202 -0.9423  0.1729 -0.4900
 5211SOL     OW16531   3.081   3.445   5.751 -0.1712  0.1516 -0.3776
 5211SOL    HW116532   3.126   3.534   5.759  1.4616 -0.4388 -2.1442
 5211SOL    HW216533   3.069   3.406   5.842  0.2142  1.6254  0.3458
 5212SOL     OW16534   0.129   2.794   1.116  0.2482  0.4069 -0.2547
 5212SOL    HW116535   0.095   2.705   1.085 -0.7890  1.1583 -1.3640
 5212SOL    HW216536   0.209   2.819   1.062 -0.7769  1.1239 -1.4721
 5213SOL     OW16537   4.686   4.106   0.655  0.3605  0.2946 -0.0151
 5213SOL    HW116538   4.721   4.164   0.581 -0.2978 -1.3741 -1.7370
 5213SOL    HW216539   4.761   4.051   0.691  0.2826 -0.5534 -1.0889
 5214SOL     OW16540   4.558   4.355   5.166  0.3210  0.1569  0.6295
 5214SOL    HW116541   4.459   4.342   5.159  0.5549 -1.2907 -0.2598
 5214SOL    HW216542   4.583   4.444   5.128 -0.2652 -0.9512 -2.6221
 5215SOL     OW16543   5.113   5.290   3.926 -0.3086 -0.2436 -0.2359
 5215SOL    HW116544   5.109   5.208   3.983 -0.8158 -0.3260 -0.3809
 5215SOL    HW216545   5.026   5.300   3.877 -0.1065  0.1716 -0.5100
 5216SOL     OW16546   2.980   6.479   1.500 -0.1367  0.1822 -0.4921
 5216SOL    HW116547   2.900   6.445   1.451  0.1813  1.4909 -1.9864
 5216SOL    HW216548   2.964   6.573   1.530  0.4848  0.1255  0.0509
 5217SOL     OW16549   3.643   6.068   4.816 -0.8486 -0.5408  0.1952
 5217SOL    HW116550   3.660   5.973   4.790  1.6008  0.0778 -0.7008
 5217SOL    HW216551   3.644   6.125   4.734  3.8503  1.0238  1.0534
 5218SOL     OW16552   3.138   6.694   4.081 -0.0327  0.0113  0.5649
 5218SOL    HW116553   3.130   6.656   3.989 -0.8070  1.7563 -0.1271
 5218SOL    HW216554   3.132   6.620   4.148 -0.7414 -1.1541 -0.7334
 5219SOL     OW16555   2.893   0.039   5.973  0.7679 -0.3287 -0.6459
 5219SOL    HW116556   2.860   0.092   5.895  1.1880 -0.2428 -0.7691
 5219SOL    HW216557   2.829  -0.035   5.993 -0.6053  1.0603  0.4187
 5220SOL     OW16558   1.959   4.462   3.472 -0.4801  0.7059  0.6541
 5220SOL    HW116559   1.997   4.380   3.516  1.3741  1.4453  0.5270
 5220SOL    HW216560   1.968   4.454   3.373  1.1617  1.6845  0.6935
 5221SOL     OW16561   5.645   3.443   5.327  0.3080  0.4057 -0.5926
 5221SOL    HW116562   5.734   3.406   5.355  0.1845  1.2117  0.9798
 5221SOL    HW216563   5.659   3.514   5.258  0.8520  0.2696 -0.6305
 5222SOL     OW16564   2.475   0.417   4.574 -0.1092 -0.5891  0.1985
 5222SOL    HW116565   2.390   0.409   4.625  1.3750 -2.4482  2.6559
 5222SOL    HW216566   2.462   0.386   4.480 -1.9338 -1.8772  0.8233
 5223SOL     OW16567   6.194   0.459   2.037  0.0278  0.2794 -0.0937
 5223SOL    HW116568   6.108   0.410   2.017  0.4957 -0.0468 -1.4414
 5223SOL    HW216569   6.177   0.528   2.107 -0.4911 -2.3312  2.5425
 5224SOL     OW16570   0.253   0.566   3.546  0.1380 -0.1136  0.2983
 5224SOL    HW116571   0.235   0.649   3.599 -0.3620  0.1145 -0.2186
 5224SOL    HW216572   0.187   0.495   3.571 -0.4967  0.1948 -0.4374
 5225SOL     OW16573   5.479   5.946   3.570  0.4354 -0.0721  0.1959
 5225SOL    HW116574   5.479   5.937   3.670 -0.3950  1.9615  0.4374
 5225SOL    HW216575   5.412   6.015   3.543 -0.5199 -1.6897 -1.9136
 5226SOL     OW16576   1.229   4.285   5.094  1.0381 -0.0579 -0.0743
 5226SOL    HW116577   1.308   4.297   5.033 -0.3672  2.1115 -1.6196
 5226SOL    HW216578   1.170   4.213   5.059  1.7446 -0.9536  0.5061
 5227SOL     OW16579   3.125   5.228   3.826 -0.5340  0.0583  0.0558
 5227SOL    HW116580   3.107   5.326   3.836 -2.0696 -0.1545 -0.3514
 5227SOL    HW216581   3.047   5.176   3.860 -0.0271 -1.0146 -0.3557
 5228SOL     OW16582   6.606   2.680   0.078  0.0170 -0.8524 -0.4137
 5228SOL    HW116583   6.686   2.625   0.054 -0.0716 -0.7480 -0.9632
 5228SOL    HW216584   6.593   2.753   0.010 -0.6487 -0.9767 -0.4303
 5229SOL     OW16585   1.595   3.756   0.288 -0.1328  0.2351  0.3333
 5229SOL    HW116586   1.691   3.775   0.304  0.4150 -1.4129 -0.7682
 5229SOL    HW216587   1.574   3.770   0.191 -0.1536 -2.5609 -0.1512
 5230SOL     OW16588   0.800   5.789   1.059 -0.7182  0.3101  0.1756
 5230SOL    HW116589   0.722   5.802   1.120  0.0805  0.8008  1.1179
 5230SOL    HW216590   0.877   5.844   1.090  0.1409 -0.4573 -0.5065
 5231SOL     OW16591   4.162   3.587   5.735  0.4672 -0.3813  0.0467
 5231SOL    HW116592   4.260   3.606   5.728  0.1922  1.0040 -0.2449
 5231SOL    HW216593   4.134   3.589   5.832  0.3529  1.3341  0.0080
 5232SOL     OW16594   2.642   2.322   6.394 -0.4402  0.2786 -0.1366
 5232SOL    HW116595   2.573   2.251   6.409 -0.4156  0.5255  1.2348
 5232SOL    HW216596   2.725   2.300   6.444 -0.0679  0.7773 -0.5199
 5233SOL     OW16597   6.043   5.787   2.175 -0.1701  0.0090  0.1816
 5233SOL    HW116598   6.029   5.788   2.274  2.0255  0.2105  0.5459
 5233SOL    HW216599   6.025   5.878   2.137  0.8214  0.4372  0.7132
 5234SOL     OW16600   3.790   0.491   5.359 -0.3657 -0.2967 -0.1457
 5234SOL    HW116601   3.781   0.524   5.453 -0.7898 -0.9426  0.0474
 5234SOL    HW216602   3.833   0.400   5.359 -0.6233 -0.4225 -0.5531
 5235SOL     OW16603   1.136   2.078   1.183  0.1405 -0.5277 -0.5449
 5235SOL    HW116604   1.185   1.999   1.145  0.1066  0.0362 -1.8168
 5235SOL    HW216605   1.195   2.125   1.249  0.6125 -0.9341 -0.6702
 5236SOL     OW16606   4.932   3.776   3.041  0.1931  0.1914  0.4605
 5236SOL    HW116607   4.850   3.833   3.040  0.5954  0.7781 -0.0822
 5236SOL    HW216608   4.907   3.683   3.066 -0.2586  0.9119  3.0013
 5237SOL     OW16609   1.915   6.947   5.311 -1.1907  0.3198 -0.3414
 5237SOL    HW116610   1.863   6.882   5.367  0.5276 -0.7504  0.1155
 5237SOL    HW216611   1.958   6.897   5.235 -0.3204  1.0212 -0.3242
 5238SOL     OW16612   0.719   5.340   0.799 -0.1447  0.7494 -0.1729
 5238SOL    HW116613   0.700   5.416   0.737 -1.1063  2.3529  1.9544
 5238SOL    HW216614   0.634   5.313   0.846  0.5220 -0.4585  0.3894
 5239SOL     OW16615   3.353   4.134   3.525  0.0697 -0.1904 -0.2100
 5239SOL    HW116616   3.408   4.053   3.504 -2.0387 -2.3504  1.9374
 5239SOL    HW216617   3.269   4.133   3.470 -0.0535  0.4325 -0.0431
 5240SOL     OW16618   4.908   2.080   6.413 -0.1039  0.6275 -0.3046
 5240SOL    HW116619   4.836   2.147   6.396 -0.9654 -0.3948 -0.8045
 5240SOL    HW216620   4.972   2.079   6.337  0.6216  1.7397  0.2692
 5241SOL     OW16621   6.904   3.702   6.466  0.2125 -0.0082 -0.3453
 5241SOL    HW116622   6.889   3.783   6.523  0.6570  0.4624 -0.8937
 5241SOL    HW216623   6.828   3.691   6.402 -0.3362 -0.5925  0.3821
 5242SOL     OW16624   1.195   5.705   6.215 -0.3825 -0.5188 -0.2766
 5242SOL    HW116625   1.188   5.735   6.120  1.8190 -0.1123 -0.3441
 5242SOL    HW216626   1.176   5.607   6.220 -1.2548 -0.4011 -1.0091
 5243SOL     OW16627   1.821   4.747   0.803 -0.1570 -0.0351 -0.1246
 5243SOL    HW116628   1.794   4.841   0.826 -0.7544 -0.4991  1.1324
 5243SOL    HW216629   1.860   4.746   0.711  2.5084  1.9644  0.8419
 5244SOL     OW16630   3.406   3.162   6.599 -0.0604  0.3084 -0.5299
 5244SOL    HW116631   3.409   3.245   6.545 -1.0879  0.5228 -0.2839
 5244SOL    HW216632   3.350   3.094   6.552 -2.9497  1.2816  1.2356
 5245SOL     OW16633   4.109   3.842   0.296  0.2432  0.1974 -0.2556
 5245SOL    HW116634   4.058   3.756   0.290 -0.8087  0.8137 -0.3046
 5245SOL    HW216635   4.174   3.847   0.220  0.3117 -0.5482 -0.2576
 5246SOL     OW16636   5.465   3.294   3.012  0.0479 -0.6767 -0.1570
 5246SOL    HW116637   5.395   3.366   3.012  0.8827  0.1981  1.3352
 5246SOL    HW216638   5.492   3.274   2.918 -1.3375 -0.1851 -0.6895
 5247SOL     OW16639   1.282   6.145   1.990  0.8877  0.0758 -0.0719
 5247SOL    HW116640   1.258   6.072   2.055 -0.3279  0.6448  0.1495
 5247SOL    HW216641   1.365   6.119   1.941  1.6267 -0.5572  1.4196
 5248SOL     OW16642   5.941   0.243   5.243  0.0545  0.2035  0.3831
 5248SOL    HW116643   6.022   0.186   5.227 -0.3203 -0.8332  1.9669
 5248SOL    HW216644   5.941   0.274   5.338 -2.4056 -1.4919  1.0178
 5249SOL     OW16645   2.539   4.673   6.173 -0.1814  0.0770 -0.1663
 5249SOL    HW116646   2.451   4.627   6.182  0.3478 -0.8845  0.3252
 5249SOL    HW216647   2.566   4.673   6.076  0.2115 -1.4948 -0.0916
 5250SOL     OW16648   0.039   1.457   5.961  0.1428  0.6473 -0.2740
 5250SOL    HW116649   0.050   1.467   6.060  2.0688  0.4460 -0.4197
 5250SOL    HW216650   0.084   1.373   5.931  1.4955  1.7546 -1.5514
 5251SOL     OW16651   5.785   2.724   3.515  0.1138  0.1522  0.3651
 5251SOL    HW116652   5.846   2.799   3.541  1.0761 -0.8159  0.9996
 5251SOL    HW216653   5.778   2.659   3.591 -2.1400  0.4759  0.5151
 5252SOL     OW16654   1.983   6.890   6.819  0.3287  0.0277  0.2679
 5252SOL    HW116655   1.923   6.970   6.830 -0.6942 -0.4873 -1.2357
 5252SOL    HW216656   1.935   6.808   6.850  0.4774 -0.3056 -0.3641
 5253SOL     OW16657   6.157   3.198   4.894  0.1614 -0.1669 -0.0503
 5253SOL    HW116658   6.135   3.202   4.991  0.8926  0.1210  0.1106
 5253SOL    HW216659   6.254   3.175   4.883 -0.2327 -1.5939 -0.7385
 5254SOL     OW16660   6.082   0.321   4.803 -0.3392 -0.0086 -0.5766
 5254SOL    HW116661   6.075   0.229   4.842 -1.9205 -0.4905 -1.8398
 5254SOL    HW216662   6.081   0.389   4.876 -2.0642 -0.9094  0.3143
 5255SOL     OW16663   2.837   5.604   5.950 -0.5529  0.4881 -0.1333
 5255SOL    HW116664   2.795   5.696   5.949 -0.9468  0.4260 -3.9195
 5255SOL    HW216665   2.776   5.540   5.902 -0.6921 -2.0738  3.1598
 5256SOL     OW16666   5.922   0.622   3.703  0.0929  0.5694  0.7122
 5256SOL    HW116667   5.909   0.721   3.699  0.1208  0.5636  0.4909
 5256SOL    HW216668   5.895   0.581   3.616  2.1189  0.6055  0.0261
 5257SOL     OW16669   5.901   1.658   4.336 -0.2288 -0.3747 -0.4014
 5257SOL    HW116670   5.842   1.677   4.257  0.5222 -0.0766 -0.9087
 5257SOL    HW216671   5.978   1.601   4.307 -0.2783 -0.7799  0.2555
 5258SOL     OW16672   4.143   6.135   2.354 -0.8826 -0.2633 -0.0664
 5258SOL    HW116673   4.186   6.214   2.397 -2.6731 -0.4522  2.2822
 5258SOL    HW216674   4.161   6.053   2.408 -0.1450 -1.2605 -1.7497
 5259SOL     OW16675   3.900   0.491   0.714 -0.3702  0.2021  0.0321
 5259SOL    HW116676   3.931   0.567   0.657 -2.1155  1.1151  0.2069
 5259SOL    HW216677   3.830   0.525   0.778 -0.9498 -1.4880  0.3359
 5260SOL     OW16678   4.665   3.994   0.940  0.0526  0.0712  0.0591
 5260SOL    HW116679   4.687   3.905   0.980  2.4761  0.9976  0.9991
 5260SOL    HW216680   4.750   4.045   0.923 -1.2499  2.6141  0.5735
 5261SOL     OW16681   1.784   2.537   5.413 -0.4485 -0.2409 -0.3967
 5261SOL    HW116682   1.692   2.513   5.441 -0.8716 -1.0966 -2.3152
 5261SOL    HW216683   1.780   2.605   5.339  0.3316 -1.4860 -1.6449
 5262SOL     OW16684   3.268   0.036   3.250  0.6327  0.4461  0.3124
 5262SOL    HW116685   3.247   0.132   3.229  0.3722  0.1001 -1.0960
 5262SOL    HW216686   3.232   0.013   3.341  0.1106  1.4966  0.3864
 5263SOL     OW16687   0.684   0.005   4.894  0.0601 -0.1774 -0.4714
 5263SOL    HW116688   0.760  -0.053   4.864  0.4641  0.1488 -0.0893
 5263SOL    HW216689   0.652   0.061   4.818  0.8033  0.3474 -0.3984
 5264SOL     OW16690   6.318   1.077   1.001  0.1761  0.5335 -0.1796
 5264SOL    HW116691   6.230   1.120   0.985 -0.4686 -0.9874 -0.9383
 5264SOL    HW216692   6.306   0.978   1.011  1.6039  0.4742  1.4276
 5265SOL     OW16693   5.602   2.829   2.750 -0.1534 -0.1977 -0.1500
 5265SOL    HW116694   5.644   2.743   2.719  0.4603  0.4948 -1.2933
 5265SOL    HW216695   5.505   2.814   2.766 -0.4526 -0.6830 -2.1680
 5266SOL     OW16696   3.493   2.043   3.555 -0.5750 -0.1109 -0.0462
 5266SOL    HW116697   3.422   2.090   3.501  1.4890  0.3978 -2.5353
 5266SOL    HW216698   3.525   1.963   3.504  0.3406 -0.5857  1.2345
 5267SOL     OW16699   3.146   5.739   5.647  0.2029 -0.0705  0.4418
 5267SOL    HW116700   3.162   5.665   5.582 -1.2275  0.5353 -0.6558
 5267SOL    HW216701   3.105   5.701   5.730 -0.7895 -0.4987 -0.2249
 5268SOL     OW16702   6.686   6.351   6.383 -0.3726  0.2318  0.1251
 5268SOL    HW116703   6.675   6.450   6.381  2.0766  0.5937 -3.2556
 5268SOL    HW216704   6.772   6.328   6.429 -0.7058 -0.2997  0.4931
 5269SOL     OW16705   3.137   0.276   4.057  0.3337 -0.2460 -0.1839
 5269SOL    HW116706   3.062   0.287   4.123  0.6366 -1.8849  0.4886
 5269SOL    HW216707   3.213   0.336   4.082  0.0664 -0.1403  0.3912
 5270SOL     OW16708   5.315   3.119   1.497 -0.6372 -0.4142 -0.3549
 5270SOL    HW116709   5.263   3.146   1.416 -1.0962  0.2034  0.1364
 5270SOL    HW216710   5.393   3.181   1.509 -2.3929  1.6043  1.4819
 5271SOL     OW16711   4.764   5.780   5.784  0.1542  0.3448  0.4153
 5271SOL    HW116712   4.719   5.783   5.874  0.6121  0.4166  0.6435
 5271SOL    HW216713   4.707   5.728   5.721 -0.2900  0.4979  0.6803
 5272SOL     OW16714   1.661   6.021   3.168 -0.8647  0.2280 -0.1070
 5272SOL    HW116715   1.574   6.003   3.123 -0.5124  0.5709 -0.9386
 5272SOL    HW216716   1.656   6.108   3.218 -1.8575 -1.0017  2.1145
 5273SOL     OW16717   6.456   4.268   2.498 -0.2391 -0.0564 -0.1306
 5273SOL    HW116718   6.469   4.169   2.501 -1.4958 -0.2779  3.8977
 5273SOL    HW216719   6.535   4.314   2.537 -0.5664  0.3739  0.0338
 5274SOL     OW16720   5.682   5.891   2.900  0.5207 -0.1757 -0.3573
 5274SOL    HW116721   5.773   5.909   2.938  0.4871 -0.6643 -0.0376
 5274SOL    HW216722   5.656   5.967   2.840  0.4443  0.7738  0.8213
 5275SOL     OW16723   3.951   1.325   5.226 -0.1949  0.0258 -0.3299
 5275SOL    HW116724   4.002   1.359   5.305 -0.2254  0.1856 -0.3772
 5275SOL    HW216725   3.917   1.233   5.245  1.2054 -0.6092 -0.7956
 5276SOL     OW16726   1.860   7.009   2.531  0.1429  0.6256  0.5313
 5276SOL    HW116727   1.870   6.960   2.618 -1.0366 -1.3531 -0.3954
 5276SOL    HW216728   1.769   7.050   2.526  0.8191  2.2925  0.9250
 5277SOL     OW16729   0.760   0.483   3.413 -0.2664  0.0472 -0.4740
 5277SOL    HW116730   0.682   0.540   3.386 -0.6896 -1.1989 -2.0483
 5277SOL    HW216731   0.775   0.412   3.344  0.9738 -1.0362  0.8403
 5278SOL     OW16732   3.524   6.134   5.059  0.2025 -0.5354  0.0183
 5278SOL    HW116733   3.530   6.062   5.128  2.4968 -0.9762 -0.5500
 5278SOL    HW216734   3.556   6.098   4.971 -1.8841  0.2443 -1.1317
 5279SOL     OW16735   1.888   5.004   0.242  0.3919 -0.7388  0.4219
 5279SOL    HW116736   1.971   4.949   0.235  0.1427 -1.0658 -0.0497
 5279SOL    HW216737   1.871   5.027   0.338  1.3933 -0.0889  0.4583
 5280SOL     OW16738   3.897   4.862   5.196 -0.0062  0.0444 -0.1911
 5280SOL    HW116739   3.898   4.955   5.233  1.0769 -0.5730  1.4366
 5280SOL    HW216740   3.823   4.810   5.238  1.9591 -1.0114  2.1865
 5281SOL     OW16741   0.109   1.260   5.145  0.1104  0.4256 -0.3144
 5281SOL    HW116742   0.084   1.349   5.184  1.9160  0.9341 -0.1946
 5281SOL    HW216743   0.194   1.270   5.093 -0.4518 -0.9461 -1.5461
 5282SOL     OW16744   1.395   0.661   2.372  1.0095  0.4155  0.5945
 5282SOL    HW116745   1.399   0.640   2.470 -0.0100  0.9093  0.7542
 5282SOL    HW216746   1.488   0.661   2.334  1.5878  1.6632  1.8850
 5283SOL     OW16747   3.252   0.296   2.918 -0.0997  0.4088 -0.7145
 5283SOL    HW116748   3.240   0.362   2.844  0.8404  0.8363 -0.5072
 5283SOL    HW216749   3.349   0.291   2.942 -0.5547  1.5816  1.6532
 5284SOL     OW16750   4.916   1.838   2.482 -0.1370 -0.1910  0.7815
 5284SOL    HW116751   4.836   1.831   2.541 -0.3178 -0.5081  0.5038
 5284SOL    HW216752   4.901   1.910   2.413  0.9307  1.7091  2.4164
 5285SOL     OW16753   6.504   4.243   4.448  0.1082 -0.3633 -0.0438
 5285SOL    HW116754   6.545   4.318   4.396  1.1474 -1.6636 -1.2041
 5285SOL    HW216755   6.504   4.265   4.545 -2.1273  2.2741 -0.5181
 5286SOL     OW16756   6.925   2.719   6.752 -0.2184 -0.2624  0.1032
 5286SOL    HW116757   6.954   2.626   6.771 -2.1772 -0.7480  0.9824
 5286SOL    HW216758   6.826   2.721   6.737 -0.1080  1.5634 -0.7439
 5287SOL     OW16759   3.180   0.239   1.986  0.1984 -0.1683  0.1603
 5287SOL    HW116760   3.238   0.190   2.051  0.9444  1.1017  0.4871
 5287SOL    HW216761   3.229   0.318   1.951 -0.2128 -0.7930 -1.9435
 5288SOL     OW16762   3.638   6.574   1.819 -0.1913 -0.6007  0.2147
 5288SOL    HW116763   3.656   6.492   1.872  3.0854 -0.2632 -0.1139
 5288SOL    HW216764   3.650   6.554   1.721 -0.7310 -0.0510  0.0296
 5289SOL     OW16765   2.052   5.332   5.423  0.5666  0.0061 -0.1194
 5289SOL    HW116766   2.098   5.309   5.338 -1.5621 -0.2967 -1.2434
 5289SOL    HW216767   2.046   5.432   5.431  0.2622  0.0291 -0.6096
 5290SOL     OW16768   1.499   3.007   4.828 -0.0767  0.8237 -0.1810
 5290SOL    HW116769   1.533   3.066   4.902  1.1226  0.9715 -0.8237
 5290SOL    HW216770   1.510   2.911   4.854  0.8869  0.8700 -0.3910
 5291SOL     OW16771   3.705   4.430   0.943 -0.6312 -0.6685  0.1501
 5291SOL    HW116772   3.665   4.338   0.937  1.2732 -1.5251 -0.0378
 5291SOL    HW216773   3.715   4.468   0.852 -2.8111  0.4231  0.2906
 5292SOL     OW16774   6.264   4.929   0.178 -0.7682 -0.2392 -0.4002
 5292SOL    HW116775   6.195   4.997   0.153 -2.5158 -1.0103  1.9403
 5292SOL    HW216776   6.221   4.857   0.234  1.8511 -1.0138  0.7667
 5293SOL     OW16777   6.915   6.307   5.906 -0.7089 -0.3599  0.5650
 5293SOL    HW116778   6.914   6.405   5.884 -1.4583 -0.2266  1.1471
 5293SOL    HW216779   6.861   6.291   5.989 -1.6628 -1.4498 -0.2324
 5294SOL     OW16780   5.370   1.314   4.287 -0.0234 -0.0865  0.0610
 5294SOL    HW116781   5.341   1.234   4.234  0.5746  0.1159 -0.5830
 5294SOL    HW216782   5.298   1.338   4.351 -0.3209 -0.9867  0.0883
 5295SOL     OW16783   4.524   6.183   4.080  0.0220  0.5370 -0.4681
 5295SOL    HW116784   4.493   6.127   4.157 -1.4919  1.6371 -0.2251
 5295SOL    HW216785   4.590   6.250   4.112 -0.3526  0.7711 -0.1723
 5296SOL     OW16786   3.194   3.613   6.816  0.3414 -0.1678  0.2698
 5296SOL    HW116787   3.233   3.637   6.727 -0.6346 -2.0637 -0.7369
 5296SOL    HW216788   3.249   3.541   6.857 -1.1691 -1.8454 -0.5036
 5297SOL     OW16789   3.516   4.366   0.077  0.8190 -0.1931  0.3431
 5297SOL    HW116790   3.523   4.430   0.001  0.6155 -0.4512  0.1056
 5297SOL    HW216791   3.563   4.281   0.053 -0.0881 -0.6403  0.1195
 5298SOL     OW16792   1.318   5.937   0.254 -0.7859 -0.2963 -0.6247
 5298SOL    HW116793   1.231   5.951   0.205 -0.1364  0.2888 -1.6633
 5298SOL    HW216794   1.309   5.972   0.347 -1.7730 -0.5620 -0.6046
 5299SOL     OW16795   1.308   4.386   0.514 -0.1477  0.5449  0.0513
 5299SOL    HW116796   1.326   4.296   0.475 -1.7388  0.1656  0.0975
 5299SOL    HW216797   1.393   4.426   0.547  0.4770 -1.3141  0.8405
 5300SOL     OW16798   1.748   4.011   1.796  0.4182 -0.2920 -0.0400
 5300SOL    HW116799   1.747   3.913   1.814 -2.0178  0.0457  2.1730
 5300SOL    HW216800   1.802   4.058   1.866 -0.6092  0.1555  0.4669
 5301SOL     OW16801   4.302   1.756   6.356 -0.8417 -0.3390 -0.0021
 5301SOL    HW116802   4.243   1.675   6.352 -1.4606  0.0209  1.3270
 5301SOL    HW216803   4.384   1.734   6.410 -0.8033 -0.1982 -0.0032
 5302SOL     OW16804   5.188   6.025   3.701  0.2514 -0.7109  0.1024
 5302SOL    HW116805   5.216   5.951   3.762  3.7185 -0.7050 -1.2403
 5302SOL    HW216806   5.090   6.020   3.684  0.0876 -3.9335  1.3880
 5303SOL     OW16807   0.055   3.819   3.495  0.6940 -0.1363 -0.2538
 5303SOL    HW116808   0.010   3.826   3.405 -0.3969 -1.2951  0.1682
 5303SOL    HW216809   0.072   3.910   3.531  0.7243  0.3424 -1.4386
 5304SOL     OW16810   4.971   6.954   0.554 -0.6387  0.7865 -0.6364
 5304SOL    HW116811   5.066   6.928   0.534 -0.1266  2.3813 -0.3999
 5304SOL    HW216812   4.929   6.883   0.611  0.7782  0.5787  0.2049
 5305SOL     OW16813   6.769   3.956   1.856 -0.4199 -0.2101  0.0685
 5305SOL    HW116814   6.719   3.890   1.799  0.9523 -1.2936  0.0521
 5305SOL    HW216815   6.841   3.999   1.801  1.1121 -1.4863  1.0012
 5306SOL     OW16816   0.673   4.227   5.181 -0.0141 -0.1959 -0.0276
 5306SOL    HW116817   0.738   4.152   5.172  4.0561  2.2367  4.3751
 5306SOL    HW216818   0.697   4.299   5.117  0.6033  0.0119  0.4235
 5307SOL     OW16819   5.918   3.655   6.434  0.1729 -0.1774 -0.2984
 5307SOL    HW116820   5.836   3.674   6.380  0.9864 -1.0536 -1.9289
 5307SOL    HW216821   5.919   3.558   6.459  1.0711 -0.3658 -0.9937
 5308SOL     OW16822   0.607   4.306   3.541 -0.2411  0.0485 -0.3225
 5308SOL    HW116823   0.646   4.357   3.617 -2.8539 -0.5929  1.6157
 5308SOL    HW216824   0.535   4.360   3.498  1.7378  0.7421 -3.0149
 5309SOL     OW16825   5.130   5.042   1.324  1.0843  0.2328 -0.0630
 5309SOL    HW116826   5.058   5.082   1.381  0.8294 -1.9694  1.2689
 5309SOL    HW216827   5.095   5.028   1.231 -0.0275 -0.2508  0.4102
 5310SOL     OW16828   6.704   4.742   3.542  0.3279  0.4985 -0.2207
 5310SOL    HW116829   6.706   4.647   3.511  0.6722  0.9866 -1.7711
 5310SOL    HW216830   6.797   4.779   3.542  0.0767  1.1436 -0.6098
 5311SOL     OW16831   0.718   6.811   6.866  0.1577  0.2865 -0.1110
 5311SOL    HW116832   0.695   6.841   6.774  0.8652 -0.6226 -0.6073
 5311SOL    HW216833   0.635   6.804   6.921 -0.5011 -0.8147 -1.2034
 5312SOL     OW16834   1.152   4.811   0.788 -1.0307  0.0344  0.4633
 5312SOL    HW116835   1.122   4.741   0.724 -0.8694 -0.4501  0.9065
 5312SOL    HW216836   1.136   4.901   0.749 -1.3545 -0.2464 -0.0639
 5313SOL     OW16837   0.374   2.926   4.655  0.0123  0.1550  0.4727
 5313SOL    HW116838   0.377   2.984   4.574 -0.9228  0.9649  0.9912
 5313SOL    HW216839   0.298   2.955   4.714 -0.5340 -1.6575  0.7184
 5314SOL     OW16840   1.697   6.359   5.124  0.4344  0.3081  0.0588
 5314SOL    HW116841   1.617   6.412   5.153  0.2389 -0.5560  1.1741
 5314SOL    HW216842   1.699   6.273   5.175  0.0267 -1.3479 -2.5527
 5315SOL     OW16843   4.346   2.524   1.117 -0.2058  0.7724 -0.2619
 5315SOL    HW116844   4.433   2.556   1.154 -0.3046  0.3553  0.3414
 5315SOL    HW216845   4.286   2.495   1.192 -0.0987 -0.8734 -0.7786
 5316SOL     OW16846   1.243   3.210   3.925  0.7650  0.2107  0.3021
 5316SOL    HW116847   1.153   3.197   3.966  2.3056 -0.3749  3.8987
 5316SOL    HW216848   1.258   3.307   3.906  0.2055  0.6477  1.9378
 5317SOL     OW16849   4.783   5.550   6.805  0.1447  0.1915 -1.0098
 5317SOL    HW116850   4.814   5.585   6.893 -0.4861 -2.2297  0.2607
 5317SOL    HW216851   4.838   5.590   6.732 -1.8910  5.5039 -0.0799
 5318SOL     OW16852   1.710   3.256   0.480  0.1702 -0.4826  0.6856
 5318SOL    HW116853   1.629   3.200   0.500  0.2869 -0.7309  0.4648
 5318SOL    HW216854   1.681   3.351   0.465 -0.0338 -0.4922  1.0083
 5319SOL     OW16855   3.264   5.710   2.465  0.7697 -0.4194 -0.1305
 5319SOL    HW116856   3.272   5.611   2.474  1.4728 -0.5857 -2.0188
 5319SOL    HW216857   3.355   5.749   2.452  0.6514  0.6754  1.8807
 5320SOL     OW16858   4.334   6.987   1.211  0.2189 -0.1502 -0.2710
 5320SOL    HW116859   4.279   6.934   1.276  0.4440  0.5042  0.4626
 5320SOL    HW216860   4.295   6.977   1.120 -0.4296 -0.6423  0.0495
 5321SOL     OW16861   1.436   4.917   5.515 -0.4311 -0.1410 -0.3806
 5321SOL    HW116862   1.426   4.818   5.524  0.9720 -0.6936 -3.3803
 5321SOL    HW216863   1.370   4.951   5.448 -1.9384  1.2803  1.7317
 5322SOL     OW16864   0.999   6.988   6.048 -0.0468 -0.1992 -0.0255
 5322SOL    HW116865   1.017   7.030   6.137 -0.7487  0.5171 -0.2136
 5322SOL    HW216866   0.906   6.952   6.046  0.5893 -1.9137  0.1767
 5323SOL     OW16867   3.378   0.927   7.011 -0.1411  0.2490 -0.3670
 5323SOL    HW116868   3.320   0.944   6.931  0.5088  0.4896 -0.7865
 5323SOL    HW216869   3.474   0.932   6.985  0.1164  2.0137  0.7380
 5324SOL     OW16870   2.346   3.702   0.292 -0.3062 -0.4207  0.0438
 5324SOL    HW116871   2.247   3.700   0.279 -0.3795  1.3529  0.0727
 5324SOL    HW216872   2.391   3.650   0.220 -1.2611 -1.5101  0.2174
 5325SOL     OW16873   4.875   0.978   4.661  0.2004  0.6430 -0.2585
 5325SOL    HW116874   4.912   1.063   4.624  1.9775  0.0354  0.0153
 5325SOL    HW216875   4.851   0.917   4.586 -1.5964  1.5431 -0.4734
 5326SOL     OW16876   5.609   5.325   1.828 -0.2622 -0.1959 -0.4471
 5326SOL    HW116877   5.612   5.329   1.927  0.2454 -1.1120 -0.4141
 5326SOL    HW216878   5.514   5.320   1.797 -0.3708 -2.1249  0.1106
 5327SOL     OW16879   0.638   3.393   3.250  0.1035  0.0041  0.1632
 5327SOL    HW116880   0.629   3.336   3.168 -0.2730  0.0020  0.2050
 5327SOL    HW216881   0.603   3.485   3.230  1.7870  0.5977 -0.2748
 5328SOL     OW16882   4.668   1.544   4.320  0.4811  0.2392 -0.6118
 5328SOL    HW116883   4.657   1.643   4.328  0.1551  0.1365  0.3196
 5328SOL    HW216884   4.648   1.501   4.408  1.6659 -0.5620 -0.7059
 5329SOL     OW16885   6.452   5.019   1.472  0.4213 -0.7248  0.3005
 5329SOL    HW116886   6.365   5.039   1.518  0.2468 -0.2322 -0.2294
 5329SOL    HW216887   6.435   4.964   1.391  0.5602 -0.3001 -0.0186
 5330SOL     OW16888   3.069   3.448   4.881 -0.3643 -0.4058 -0.5349
 5330SOL    HW116889   3.021   3.524   4.838  1.5768  1.2878  0.1412
 5330SOL    HW216890   3.023   3.362   4.859 -4.1611  1.1183  0.7427
 5331SOL     OW16891   6.324   1.799   0.011 -0.0468  0.5738  0.5945
 5331SOL    HW116892   6.239   1.819   0.059 -0.7281  0.6910 -0.6395
 5331SOL    HW216893   6.329   1.853  -0.073  2.2400  2.1925  1.6551
 5332SOL     OW16894   2.295   4.329   1.569  0.1639 -0.1481 -0.0078
 5332SOL    HW116895   2.235   4.399   1.609 -1.1441 -1.4930  0.4867
 5332SOL    HW216896   2.369   4.308   1.633 -0.0162  0.0846  0.2824
 5333SOL     OW16897   1.676   0.760   6.197 -0.2150 -0.0752  0.0304
 5333SOL    HW116898   1.765   0.742   6.153 -0.4512  0.8404 -0.8741
 5333SOL    HW216899   1.642   0.676   6.238 -0.4867 -1.3211 -2.5140
 5334SOL     OW16900   2.993   1.162   4.405  0.5602  0.0268 -0.6656
 5334SOL    HW116901   3.000   1.095   4.478 -0.6532  1.4191  0.8113
 5334SOL    HW216902   3.085   1.186   4.373  1.2866  0.6927  1.6863
 5335SOL     OW16903   5.276   6.060   2.920 -0.2595  0.2354 -0.2557
 5335SOL    HW116904   5.315   6.151   2.911 -0.3297  0.5405  1.9167
 5335SOL    HW216905   5.309   6.001   2.846  0.4432  1.7809 -1.2042
 5336SOL     OW16906   1.243   1.144   1.697 -0.2516 -0.6717  0.2355
 5336SOL    HW116907   1.226   1.161   1.600  0.0142 -2.1022 -0.0832
 5336SOL    HW216908   1.267   1.230   1.743  1.0836 -0.1947 -1.2721
 5337SOL     OW16909   5.099   2.729   1.472 -0.3316 -0.5922 -0.0307
 5337SOL    HW116910   5.079   2.646   1.421 -0.5722 -0.2214 -0.5538
 5337SOL    HW216911   5.085   2.712   1.569  2.3749 -1.9821  0.2195
 5338SOL     OW16912   5.038   2.872   5.235 -0.6655 -0.1487 -0.4855
 5338SOL    HW116913   5.030   2.969   5.257 -2.1010 -0.4362  0.3459
 5338SOL    HW216914   5.131   2.854   5.201 -0.3197  1.4635 -0.5059
 5339SOL     OW16915   6.299   2.062   6.007 -0.0605  0.1078 -0.4642
 5339SOL    HW116916   6.342   2.136   5.955  1.1180  0.5732  1.1111
 5339SOL    HW216917   6.209   2.091   6.038  0.5950  1.1082  0.5706
 5340SOL     OW16918   5.519   3.184   0.493  0.1600  0.4615  0.5025
 5340SOL    HW116919   5.582   3.188   0.570  0.7520 -1.8220  0.2058
 5340SOL    HW216920   5.425   3.198   0.526  0.2997 -1.3819  1.8417
 5341SOL     OW16921   3.875   3.631   0.722 -0.5817 -0.0679 -0.2626
 5341SOL    HW116922   3.907   3.718   0.686 -1.6678  0.5309  0.1384
 5341SOL    HW216923   3.943   3.560   0.706 -0.6301  0.3360 -2.6839
 5342SOL     OW16924   4.374   0.894   5.183 -0.6147  1.0064 -0.2128
 5342SOL    HW116925   4.293   0.897   5.241  0.5435  0.0219  1.5490
 5342SOL    HW216926   4.364   0.819   5.117 -1.4318  1.3778 -0.5333
 5343SOL     OW16927   3.740   3.219   4.882 -0.1742 -0.1864  0.0791
 5343SOL    HW116928   3.677   3.268   4.941  0.4759  0.3082  0.3754
 5343SOL    HW216929   3.689   3.165   4.815 -0.9719 -1.9508  1.9992
 5344SOL     OW16930   3.062   2.121   5.282  0.1440 -0.2430  0.0234
 5344SOL    HW116931   3.075   2.194   5.215 -3.4472  0.4014 -0.2047
 5344SOL    HW216932   3.009   2.157   5.359  3.3810 -1.1924  2.9097
 5345SOL     OW16933   4.279   0.959   0.697  0.4473 -0.4044 -0.1197
 5345SOL    HW116934   4.200   1.016   0.720  0.7664 -0.4520  1.1872
 5345SOL    HW216935   4.294   0.961   0.598 -1.9025 -1.3468 -0.5600
 5346SOL     OW16936   3.651   6.634   4.712  0.1308  0.0689  0.4269
 5346SOL    HW116937   3.659   6.724   4.670 -0.9987  0.2037  0.4506
 5346SOL    HW216938   3.575   6.635   4.778 -2.0357 -1.7283 -1.8527
 5347SOL     OW16939   1.607   1.966   2.508 -0.1167  0.6552  0.4598
 5347SOL    HW116940   1.671   2.032   2.548 -0.0530 -0.0509  1.5691
 5347SOL    HW216941   1.513   1.998   2.521 -0.1244  0.2104  1.6501
 5348SOL     OW16942   6.400   2.182   0.512  0.5611  0.2607  0.0984
 5348SOL    HW116943   6.447   2.244   0.448 -1.6954  0.5257 -1.4141
 5348SOL    HW216944   6.309   2.160   0.476  0.4514 -2.2092  1.6882
 5349SOL     OW16945   1.627   2.407   0.668 -0.3423 -0.0998 -0.2377
 5349SOL    HW116946   1.721   2.431   0.690 -0.5933  0.8536 -0.1493
 5349SOL    HW216947   1.625   2.318   0.622  0.7758  0.6164 -1.7714
 5350SOL     OW16948   1.851   0.604   4.227  0.5088  0.7540 -0.5300
 5350SOL    HW116949   1.848   0.556   4.315 -0.0643  0.1160 -0.8841
 5350SOL    HW216950   1.892   0.694   4.239 -2.2228  1.9022  0.9647
 5351SOL     OW16951   0.020   5.419   3.736  0.0478  0.8497 -0.2579
 5351SOL    HW116952  -0.006   5.512   3.712 -0.4453  0.5183 -1.0378
 5351SOL    HW216953   0.093   5.388   3.674 -1.7623 -0.2843 -1.9099
 5352SOL     OW16954   1.693   3.790   4.928 -0.2437 -0.0836  0.1308
 5352SOL    HW116955   1.686   3.714   4.993  0.0229  0.5315  0.8894
 5352SOL    HW216956   1.728   3.755   4.840  0.1301 -0.7934  0.5479
 5353SOL     OW16957   3.253   5.596   3.040 -0.3651  0.1774  0.1712
 5353SOL    HW116958   3.278   5.580   2.944  1.7702  0.7356  0.5668
 5353SOL    HW216959   3.283   5.688   3.066 -1.3311  0.1967  1.2548
 5354SOL     OW16960   2.467   5.158   3.356 -0.2681 -0.3425  0.3432
 5354SOL    HW116961   2.505   5.066   3.361  0.1395 -0.1794  0.2471
 5354SOL    HW216962   2.523   5.215   3.295 -0.1366  0.1532  0.9121
 5355SOL     OW16963   6.473   3.809   2.947 -0.2308 -0.0937 -0.3061
 5355SOL    HW116964   6.377   3.799   2.975  0.6548 -2.6688  2.2784
 5355SOL    HW216965   6.503   3.726   2.900  0.8456  0.5482 -0.7961
 5356SOL     OW16966   6.724   4.542   0.387  0.1725 -0.0226  0.0974
 5356SOL    HW116967   6.644   4.587   0.347  0.1621  0.4107  0.6048
 5356SOL    HW216968   6.724   4.556   0.486  1.4373  0.8800 -0.0063
 5357SOL     OW16969   3.539   4.925   2.496 -0.6282 -0.1885 -0.8232
 5357SOL    HW116970   3.489   4.922   2.409 -0.0054 -0.8567 -1.1704
 5357SOL    HW216971   3.636   4.912   2.479 -0.1178  2.4331 -0.2857
 5358SOL     OW16972   5.061   0.829   0.947  0.1606  0.0721  0.0895
 5358SOL    HW116973   5.021   0.916   0.976 -1.6260 -0.4082 -0.7563
 5358SOL    HW216974   5.131   0.846   0.877 -0.2580  0.8331 -0.1564
 5359SOL     OW16975   1.751   0.139   5.197  0.2763 -0.3987  0.6977
 5359SOL    HW116976   1.798   0.113   5.281  0.8710 -1.6185  0.0184
 5359SOL    HW216977   1.819   0.153   5.124 -0.1189  1.9210  0.7049
 5360SOL     OW16978   2.527   5.779   4.608 -0.0487  0.3034 -0.9340
 5360SOL    HW116979   2.504   5.738   4.519  0.1680  0.1015 -0.8993
 5360SOL    HW216980   2.596   5.722   4.653 -1.3099 -0.4899  0.0637
 5361SOL     OW16981   2.190   3.070   4.149  0.1697 -0.1374  0.6318
 5361SOL    HW116982   2.217   3.013   4.227  1.0396  0.8536  1.0890
 5361SOL    HW216983   2.090   3.074   4.144  0.0836 -1.7545  0.5227
 5362SOL     OW16984   6.948   6.144   3.204 -0.4568 -0.0891  0.3493
 5362SOL    HW116985   6.951   6.222   3.142  0.7394 -2.1779 -2.4635
 5362SOL    HW216986   6.866   6.149   3.260 -1.2090  2.3677 -0.8454
 5363SOL     OW16987   6.024   0.296   0.225 -0.0886 -0.3230 -0.0939
 5363SOL    HW116988   6.005   0.291   0.127  0.7811  0.5643 -0.3292
 5363SOL    HW216989   6.118   0.327   0.239  0.3022 -1.8896  1.0231
 5364SOL     OW16990   5.490   5.190   2.404  0.3021  0.4547 -0.3479
 5364SOL    HW116991   5.545   5.176   2.322  0.3206  1.3022 -0.4890
 5364SOL    HW216992   5.416   5.123   2.407  2.1953 -1.7359  0.6261
 5365SOL     OW16993   4.763   4.809   6.715  1.0332 -0.3708 -0.1529
 5365SOL    HW116994   4.717   4.767   6.637  0.3568 -1.2039  0.6792
 5365SOL    HW216995   4.849   4.850   6.684  0.8546 -0.8259 -1.3091
 5366SOL     OW16996   5.957   6.525   1.719  0.2310 -0.0373 -0.4006
 5366SOL    HW116997   5.910   6.509   1.633 -0.4968 -0.9278  0.1393
 5366SOL    HW216998   5.996   6.617   1.720 -1.5009  0.7339 -0.8739
 5367SOL     OW16999   1.194   6.070   6.830  0.2076  0.1183  0.2486
 5367SOL    HW117000   1.171   5.973   6.823 -2.1316  0.5650  0.7838
 5367SOL    HW217001   1.226   6.090   6.923  0.4835 -0.0933  0.2011
 5368SOL     OW17002   6.223   0.454   3.092 -0.3430 -0.3123  0.6125
 5368SOL    HW117003   6.130   0.423   3.114 -0.1713 -0.2612  1.4231
 5368SOL    HW217004   6.276   0.378   3.055 -1.3029  0.1141 -1.8058
 5369SOL     OW17005   1.987   6.947   1.632 -0.4797  0.1026 -0.0696
 5369SOL    HW117006   1.979   6.962   1.731 -0.4968  1.5069 -0.2626
 5369SOL    HW217007   1.910   6.992   1.586  0.7420  1.4844 -0.8784
 5370SOL     OW17008   4.561   2.218   1.723  0.0716  0.1480  0.7440
 5370SOL    HW117009   4.541   2.121   1.730 -0.7960  0.3145  0.6628
 5370SOL    HW217010   4.479   2.271   1.744  0.4788  0.8605  0.5908
 5371SOL     OW17011   2.021   2.829   4.533 -0.4164  0.0422  0.1699
 5371SOL    HW117012   2.025   2.811   4.631 -1.3192 -0.6367  0.0953
 5371SOL    HW217013   1.927   2.851   4.506 -0.4915 -1.3211 -0.7917
 5372SOL     OW17014   2.584   5.194   5.109  0.0839  0.4266 -0.3910
 5372SOL    HW117015   2.562   5.177   5.013  1.3297  0.6639 -0.7309
 5372SOL    HW217016   2.536   5.127   5.166  1.2128 -1.2938 -1.3546
 5373SOL     OW17017   4.583   6.933   4.234 -0.3642 -0.2841  0.3513
 5373SOL    HW117018   4.637   7.017   4.236  0.1428 -0.6137  1.0126
 5373SOL    HW217019   4.538   6.924   4.145  0.3005  0.2303 -0.0442
 5374SOL     OW17020   1.237   4.987   6.190 -0.1616  0.3454  0.5085
 5374SOL    HW117021   1.142   4.990   6.223  0.0134  1.0756  0.9746
 5374SOL    HW217022   1.257   5.070   6.139 -0.1131 -0.3267 -0.6102
 5375SOL     OW17023   2.173   5.328   4.872 -0.6670  0.1142  0.3326
 5375SOL    HW117024   2.196   5.422   4.848  0.1335 -0.0826  0.2921
 5375SOL    HW217025   2.086   5.302   4.828  0.8949 -0.3387 -2.7725
 5376SOL     OW17026   2.162   0.992   2.115  0.6932 -0.3609  0.7677
 5376SOL    HW117027   2.137   0.994   2.211  2.2279  3.5298  1.2968
 5376SOL    HW217028   2.156   1.085   2.077 -0.3907 -1.8018 -3.1129
 5377SOL     OW17029   5.970   1.319   2.544  0.2828 -0.5141  0.2961
 5377SOL    HW117030   5.980   1.221   2.562  1.9175 -0.4580 -0.1107
 5377SOL    HW217031   5.954   1.367   2.630 -1.6879 -1.2157  0.3840
 5378SOL     OW17032   6.639   2.419   0.531  0.2008 -0.6543  0.7559
 5378SOL    HW117033   6.655   2.380   0.440 -1.3047  1.8242 -0.6879
 5378SOL    HW217034   6.703   2.494   0.548 -1.7355  1.2629  0.1073
 5379SOL     OW17035   0.685   3.960   3.866 -0.0467 -0.2480 -0.0608
 5379SOL    HW117036   0.769   3.917   3.901  1.0697 -0.4877 -2.8033
 5379SOL    HW217037   0.673   4.049   3.911  0.8095 -0.8888  1.5126
 5380SOL     OW17038   2.659   6.586   3.183  0.2950  0.8634 -0.1385
 5380SOL    HW117039   2.631   6.490   3.179  1.5430  0.4850 -0.0632
 5380SOL    HW217040   2.748   6.597   3.140 -0.2474  2.1722 -0.9997
 5381SOL     OW17041   5.661   3.708   1.033  0.5501  0.1099  0.5570
 5381SOL    HW117042   5.673   3.620   0.988 -0.5152  0.1200  0.2260
 5381SOL    HW217043   5.582   3.704   1.094  0.6681  0.7453  0.7595
 5382SOL     OW17044   3.622   0.808   1.667  0.1487 -0.0986 -0.0793
 5382SOL    HW117045   3.711   0.848   1.642 -0.6746  2.9976  1.4182
 5382SOL    HW217046   3.603   0.827   1.763 -2.6280  0.3849 -0.6398
 5383SOL     OW17047   2.303   2.015   6.814  0.0608 -0.0643 -0.7663
 5383SOL    HW117048   2.331   2.092   6.871  0.4037 -0.8841  0.2219
 5383SOL    HW217049   2.384   1.972   6.775  0.0517 -1.0282  0.2043
 5384SOL     OW17050   6.052   6.131   6.543  0.0003  0.0811  0.1518
 5384SOL    HW117051   6.054   6.138   6.444 -0.0185 -1.0898  0.0604
 5384SOL    HW217052   6.108   6.205   6.583  1.3133 -0.3742 -0.7768
 5385SOL     OW17053   3.245   2.961   3.973  0.1315 -0.2954  0.5647
 5385SOL    HW117054   3.322   2.973   4.037  1.2785 -0.2086 -0.7888
 5385SOL    HW217055   3.276   2.910   3.893 -0.4592  2.0514 -1.2848
 5386SOL     OW17056   4.096   1.074   4.312 -0.1318  0.1415 -0.4597
 5386SOL    HW117057   4.126   1.169   4.311 -0.0140  0.1227 -2.1846
 5386SOL    HW217058   4.097   1.038   4.219 -1.9985 -0.9900 -0.0940
 5387SOL     OW17059   1.818   0.552   4.491  0.3410  0.1246  0.0110
 5387SOL    HW117060   1.884   0.512   4.556 -1.2527 -0.3389  1.4172
 5387SOL    HW217061   1.773   0.631   4.533 -0.6170 -0.0915 -0.5807
 5388SOL     OW17062   5.293   2.880   5.133 -0.5340 -0.0628  0.3220
 5388SOL    HW117063   5.327   2.933   5.211 -3.6298  0.1812  1.6187
 5388SOL    HW217064   5.267   2.942   5.059  0.3534 -0.1534 -0.0804
 5389SOL     OW17065   4.479   2.546   2.817  0.2105 -0.4469 -0.3029
 5389SOL    HW117066   4.524   2.608   2.882 -1.1277  1.1052 -0.7970
 5389SOL    HW217067   4.407   2.494   2.865 -1.1724  1.1202 -0.5955
 5390SOL     OW17068   5.282   4.194   3.787 -0.0592 -0.1244 -0.3761
 5390SOL    HW117069   5.330   4.191   3.699  1.2438  2.2006  0.1647
 5390SOL    HW217070   5.242   4.285   3.799 -1.8266 -0.9990  0.6683
 5391SOL     OW17071   3.451   3.239   1.128 -0.2006 -0.1928 -0.7556
 5391SOL    HW117072   3.540   3.206   1.157 -0.0143  0.5252 -0.4980
 5391SOL    HW217073   3.462   3.319   1.069 -0.5123 -2.0057 -3.5038
 5392SOL     OW17074   5.285   4.301   6.996  0.1491 -0.0957  0.0885
 5392SOL    HW117075   5.215   4.368   6.974  0.6010 -0.2299 -2.0549
 5392SOL    HW217076   5.242   4.214   7.022 -0.5104 -0.1556 -1.1219
 5393SOL     OW17077   6.473   0.681   6.440  0.6555 -0.6164  0.1800
 5393SOL    HW117078   6.500   0.756   6.381  1.4577 -1.1382 -0.1259
 5393SOL    HW217079   6.477   0.595   6.389  0.0208 -0.9096  0.6052
 5394SOL     OW17080   6.247   6.126   0.476  0.4098 -0.7597  0.6240
 5394SOL    HW117081   6.165   6.090   0.521  0.4538 -0.5834  0.8444
 5394SOL    HW217082   6.246   6.226   0.481 -1.3054 -0.4652 -2.6558
 5395SOL     OW17083   6.847   1.103   1.373  0.2341 -0.0015  0.7285
 5395SOL    HW117084   6.803   1.142   1.454 -0.1234  1.4480 -0.1425
 5395SOL    HW217085   6.901   1.173   1.327  0.9941 -0.9850  0.0764
 5396SOL     OW17086   3.064   4.707   6.888  0.4412 -0.4283 -0.3066
 5396SOL    HW117087   3.005   4.641   6.934 -0.3839 -0.8026 -1.8212
 5396SOL    HW217088   3.157   4.698   6.923 -0.0191 -1.1066  0.8209
 5397SOL     OW17089   1.606   4.327   2.186 -0.2918  0.5146 -0.4276
 5397SOL    HW117090   1.611   4.227   2.183  1.2098  0.5803 -0.8354
 5397SOL    HW217091   1.510   4.355   2.190 -0.7207 -0.9488  0.2392
 5398SOL     OW17092   3.404   2.129   4.904  0.3050  0.0008 -0.9681
 5398SOL    HW117093   3.426   2.222   4.876  0.1698 -0.2351 -1.8839
 5398SOL    HW217094   3.346   2.131   4.986 -0.9896  0.7666 -1.8717
 5399SOL     OW17095   2.008   6.088   1.046  0.5296  0.1849 -0.1045
 5399SOL    HW117096   2.038   6.143   0.968  1.1419  0.5393  0.3797
 5399SOL    HW217097   1.908   6.084   1.047  0.4508  1.8396  0.2316
 5400SOL     OW17098   1.813   2.113   6.374  0.2994 -0.0149 -0.5335
 5400SOL    HW117099   1.876   2.041   6.401  1.3205  1.1950  0.4630
 5400SOL    HW217100   1.724   2.073   6.351  1.4548 -1.7704 -2.1917
 5401SOL     OW17101   3.789   3.597   1.659  0.1273  0.4623  0.1494
 5401SOL    HW117102   3.889   3.604   1.650  0.2522 -0.0930  0.9129
 5401SOL    HW217103   3.745   3.636   1.579  1.0046 -0.8931 -1.0457
 5402SOL     OW17104   3.731   5.180   2.648 -0.1766  0.0501  0.0064
 5402SOL    HW117105   3.736   5.211   2.553  1.9513 -0.9625 -0.2669
 5402SOL    HW217106   3.750   5.256   2.709 -0.6155  0.5049 -0.4195
 5403SOL     OW17107   5.723   3.475   0.548  0.0875 -0.1317  0.1911
 5403SOL    HW117108   5.751   3.408   0.616 -0.2596  0.4375  0.9035
 5403SOL    HW217109   5.633   3.512   0.572  1.4622  2.6542  1.3964
 5404SOL     OW17110   0.698   0.667   2.744 -0.0368 -0.0063 -0.2352
 5404SOL    HW117111   0.643   0.749   2.756  0.2327  0.0764  0.5015
 5404SOL    HW217112   0.716   0.652   2.646 -0.5904  0.4684 -0.4122
 5405SOL     OW17113   5.335   0.727   0.696  0.2382 -0.4529 -0.9829
 5405SOL    HW117114   5.258   0.669   0.670  0.4164 -1.0225 -0.2738
 5405SOL    HW217115   5.300   0.815   0.729 -0.1422 -0.8610 -0.2655
 5406SOL     OW17116   0.659   6.465   0.181 -0.0310  0.1292  0.1755
 5406SOL    HW117117   0.562   6.482   0.167  0.1413  1.6390  0.6908
 5406SOL    HW217118   0.704   6.456   0.092 -0.3561  1.2011 -0.1119
 5407SOL     OW17119   4.757   3.462   1.029 -0.5083  0.1215  0.3155
 5407SOL    HW117120   4.693   3.386   1.018 -1.4682  1.0700 -0.9124
 5407SOL    HW217121   4.803   3.454   1.118 -0.7445 -1.7502  0.2981
 5408SOL     OW17122   2.897   0.500   6.314 -0.2784 -0.0640  0.4029
 5408SOL    HW117123   2.874   0.537   6.403  0.5178  1.3806  0.0404
 5408SOL    HW217124   2.853   0.411   6.302 -2.4615  0.8449  1.2162
 5409SOL     OW17125   5.565   1.960   4.741 -0.0592  0.4217 -0.6217
 5409SOL    HW117126   5.483   1.904   4.728  0.0456  0.2783 -0.6666
 5409SOL    HW217127   5.546   2.031   4.809  0.0891 -0.2611  0.1599
 5410SOL     OW17128   1.761   4.055   6.754 -0.1614 -0.0383 -0.0655
 5410SOL    HW117129   1.761   4.030   6.851  1.4913 -0.6795 -0.2000
 5410SOL    HW217130   1.844   4.020   6.711 -0.2254  1.3946 -1.4203
 5411SOL     OW17131   4.672   3.326   6.778 -0.1422  0.9398 -0.0156
 5411SOL    HW117132   4.581   3.354   6.748 -0.6507 -0.5265  0.0957
 5411SOL    HW217133   4.674   3.322   6.878 -0.7676 -1.5254 -0.0607
 5412SOL     OW17134   5.963   1.915   6.829  0.0764 -0.5485 -0.4232
 5412SOL    HW117135   5.954   1.970   6.745  0.7057  2.2381  1.1896
 5412SOL    HW217136   6.017   1.833   6.810  2.6508  1.4075 -2.2311
 5413SOL     OW17137   2.036   0.200   2.550  0.2398  0.1803 -0.2519
 5413SOL    HW117138   1.957   0.144   2.526  1.9120 -2.9565  0.9494
 5413SOL    HW217139   2.104   0.195   2.476  0.3980  0.7077 -0.1500
 5414SOL     OW17140   4.875   3.628   5.802 -0.1765  0.9597  0.2950
 5414SOL    HW117141   4.809   3.699   5.827 -1.2339 -0.8033  2.9711
 5414SOL    HW217142   4.944   3.620   5.875  0.9359  0.3816 -0.7849
 5415SOL     OW17143   2.447   6.849   1.527 -0.4756 -0.0470  0.1605
 5415SOL    HW117144   2.389   6.919   1.486 -0.4963 -0.9265 -1.4092
 5415SOL    HW217145   2.500   6.804   1.455  1.1736 -0.1758  1.3887
 5416SOL     OW17146   2.489   5.333   6.805 -0.2326 -0.5941 -0.5280
 5416SOL    HW117147   2.540   5.393   6.743 -1.9132  1.5343  0.0346
 5416SOL    HW217148   2.394   5.364   6.811 -0.9698 -2.8301  0.4962
 5417SOL     OW17149   3.305   4.861   5.711  0.7530  0.6404  0.5269
 5417SOL    HW117150   3.224   4.836   5.657  1.8169 -0.1780 -0.7396
 5417SOL    HW217151   3.299   4.958   5.736  0.4777  1.2203 -1.5748
 5418SOL     OW17152   3.977   1.296   3.966  0.5912 -0.4255 -0.2953
 5418SOL    HW117153   3.972   1.292   4.066 -0.0375  1.3846 -0.2145
 5418SOL    HW217154   3.931   1.217   3.927  0.7156 -1.0822  0.8347
 5419SOL     OW17155   2.547   6.160   2.244  0.2131 -0.4158  0.4407
 5419SOL    HW117156   2.538   6.253   2.208 -0.7228 -0.1483  1.3276
 5419SOL    HW217157   2.531   6.094   2.170  1.5875  0.0959 -0.3637
 5420SOL     OW17158   1.821   3.628   2.401 -0.4728  0.1032  0.0820
 5420SOL    HW117159   1.891   3.637   2.331 -0.7508  1.1606 -0.0775
 5420SOL    HW217160   1.813   3.532   2.429  0.6171 -0.1136 -0.3153
 5421SOL     OW17161   1.065   5.074   3.375  0.7993 -0.0729  0.0615
 5421SOL    HW117162   1.005   5.010   3.327 -1.1430  0.9689  1.0236
 5421SOL    HW217163   1.143   5.024   3.414 -1.8212 -2.3745  2.8295
 5422SOL     OW17164   6.993   4.299   4.488 -0.5939 -1.0327 -0.4552
 5422SOL    HW117165   7.061   4.358   4.533 -1.2534  0.4753 -1.3610
 5422SOL    HW217166   6.982   4.327   4.393 -0.2249 -3.2960 -1.2099
 5423SOL     OW17167   5.812   3.070   6.555 -0.1668 -0.0323 -0.4666
 5423SOL    HW117168   5.847   3.052   6.463 -1.1597 -1.3996 -0.5959
 5423SOL    HW217169   5.886   3.109   6.611  0.4955  0.6576 -1.7669
 5424SOL     OW17170   4.890   3.343   4.644 -0.4359 -0.3594 -0.6428
 5424SOL    HW117171   4.950   3.410   4.602 -0.2921 -0.1534 -0.1212
 5424SOL    HW217172   4.872   3.369   4.739  0.6481 -1.7050 -0.0332
 5425SOL     OW17173   5.314   0.806   2.756  0.4017 -0.0163 -0.0542
 5425SOL    HW117174   5.352   0.741   2.822 -0.4894 -1.5690 -0.9993
 5425SOL    HW217175   5.235   0.852   2.796  2.1201  1.9076  1.2776
 5426SOL     OW17176   5.895   5.674   3.632 -0.1139  0.1443 -0.3152
 5426SOL    HW117177   5.811   5.726   3.649 -0.1649 -0.1521  0.3443
 5426SOL    HW217178   5.908   5.664   3.533 -2.1813 -1.9514 -0.4536
 5427SOL     OW17179   5.406   5.473   2.378 -0.1039 -0.2668 -0.5996
 5427SOL    HW117180   5.433   5.388   2.423  1.1388 -0.9032 -2.4607
 5427SOL    HW217181   5.460   5.549   2.416 -0.8023 -0.3545  0.6442
 5428SOL     OW17182   0.209   0.546   1.237 -0.4534 -0.2095  0.5490
 5428SOL    HW117183   0.289   0.502   1.278  0.7470  0.5130 -0.9036
 5428SOL    HW217184   0.136   0.479   1.226  0.1104 -1.0055  1.4853
 5429SOL     OW17185   1.314   1.032   6.701  0.2044  0.4637 -0.0705
 5429SOL    HW117186   1.240   0.997   6.644 -1.1109  0.0415  1.7961
 5429SOL    HW217187   1.309   0.989   6.792  2.5932  0.6209  0.2022
 5430SOL     OW17188   1.865   3.425   5.014 -0.0313  0.2691  0.3568
 5430SOL    HW117189   1.940   3.373   5.055  0.2601 -0.0823 -0.6051
 5430SOL    HW217190   1.894   3.519   5.000  0.5971 -0.0972 -0.9329
 5431SOL     OW17191   2.462   4.978   6.295 -0.1576 -0.4947 -0.2360
 5431SOL    HW117192   2.482   4.979   6.197 -1.5720 -0.9223 -0.5452
 5431SOL    HW217193   2.396   4.906   6.315 -0.5164  0.1295  0.9055
 5432SOL     OW17194   3.779   5.688   6.132 -0.4090 -0.4499 -0.4450
 5432SOL    HW117195   3.809   5.598   6.100 -1.0675 -0.2076 -1.8490
 5432SOL    HW217196   3.700   5.678   6.192 -0.2082 -0.8352 -0.2454
 5433SOL     OW17197   6.999   2.145   2.959  0.2654 -0.0249 -0.5561
 5433SOL    HW117198   7.002   2.046   2.946  0.5263  0.2619 -3.1176
 5433SOL    HW217199   6.930   2.167   3.027  0.3732 -1.9557  0.2628
 5434SOL     OW17200   1.537   2.802   5.447 -0.0456  0.9545 -0.2245
 5434SOL    HW117201   1.490   2.735   5.505  1.0994  0.5086  0.2102
 5434SOL    HW217202   1.475   2.833   5.375 -0.4245 -1.0530 -0.8368
 5435SOL     OW17203   5.442   2.420   1.265 -0.0045 -0.4292 -0.5041
 5435SOL    HW117204   5.529   2.376   1.242  0.0288 -1.8304  2.0024
 5435SOL    HW217205   5.366   2.363   1.232  0.0482 -1.0315  0.3841
 5436SOL     OW17206   6.420   4.535   2.144 -0.1422  0.7142 -0.5189
 5436SOL    HW117207   6.371   4.604   2.090  0.4130  2.4577  1.1095
 5436SOL    HW217208   6.509   4.571   2.171 -0.6610  0.2315  2.1097
 5437SOL     OW17209   2.897   5.111   6.060 -0.5884 -0.1393  0.8579
 5437SOL    HW117210   2.936   5.029   6.103  0.2843 -0.4363 -0.4334
 5437SOL    HW217211   2.835   5.157   6.124  1.2768 -0.0992  2.7461
 5438SOL     OW17212   5.659   2.803   2.035  0.0232  0.3539 -0.1759
 5438SOL    HW117213   5.644   2.705   2.021  0.2176  0.2509  0.2859
 5438SOL    HW217214   5.575   2.845   2.071  0.3760  0.0630  1.0269
 5439SOL     OW17215   6.350   2.709   6.667  0.6618  0.5707 -0.7289
 5439SOL    HW117216   6.254   2.738   6.662  0.1316 -0.0751  2.9001
 5439SOL    HW217217   6.354   2.612   6.690  2.1177  0.9676  0.8834
 5440SOL     OW17218   6.554   6.848   3.154  0.5417 -0.0397  0.6956
 5440SOL    HW117219   6.460   6.864   3.184  0.5900  1.3102  0.2119
 5440SOL    HW217220   6.559   6.854   3.055  1.3004  1.0137  0.7739
 5441SOL     OW17221   5.776   2.987   3.218 -0.7878  0.1933  0.2945
 5441SOL    HW117222   5.875   2.974   3.209 -0.1800  3.4085  1.1069
 5441SOL    HW217223   5.729   2.901   3.196  2.2007 -1.8725  1.3306
 5442SOL     OW17224   3.269   4.914   4.132 -0.3832 -0.2582 -0.0834
 5442SOL    HW117225   3.205   4.933   4.207  0.2213 -1.1007  0.6754
 5442SOL    HW217226   3.218   4.900   4.047 -1.0037  2.1441 -0.1870
 5443SOL     OW17227   1.875   6.205   3.976  0.4040  0.2736  0.0895
 5443SOL    HW117228   1.801   6.260   3.937  0.1671 -0.1203 -0.0292
 5443SOL    HW217229   1.840   6.113   3.996  0.8631  0.0884  0.0346
 5444SOL     OW17230   0.245   1.298   3.452  0.1190 -0.7218 -0.5364
 5444SOL    HW117231   0.253   1.395   3.472  0.6413 -0.5486 -1.5088
 5444SOL    HW217232   0.332   1.253   3.472 -0.0567 -0.9445 -0.2820
 5445SOL     OW17233   6.711   3.629   3.611  0.1849 -0.1756  0.0566
 5445SOL    HW117234   6.626   3.675   3.586  0.1375 -0.2022  0.1695
 5445SOL    HW217235   6.700   3.584   3.699  0.2961 -0.2331  0.0413
 5446SOL     OW17236   5.562   5.858   5.953  0.0562  0.2035 -0.2245
 5446SOL    HW117237   5.629   5.930   5.935 -0.1849  0.0510 -1.8171
 5446SOL    HW217238   5.495   5.855   5.880 -2.0754  0.7165  1.6008
 5447SOL     OW17239   6.664   2.317   6.024  0.5490 -0.2711  0.2046
 5447SOL    HW117240   6.701   2.227   6.000  0.0930 -0.0767 -1.3252
 5447SOL    HW217241   6.652   2.371   5.941 -2.5117 -0.0699  0.6704
 5448SOL     OW17242   6.126   6.154   3.511 -0.4038  0.2969 -0.0790
 5448SOL    HW117243   6.075   6.146   3.597  1.7748  1.7077  1.4617
 5448SOL    HW217244   6.124   6.249   3.479  0.0100  0.0759 -0.7862
 5449SOL     OW17245   1.905   1.696   0.340 -0.4890  0.3530 -0.4159
 5449SOL    HW117246   1.844   1.715   0.417  1.1167  2.1876  0.4860
 5449SOL    HW217247   1.988   1.751   0.349  1.0225 -1.5426 -1.9537
 5450SOL     OW17248   2.754   0.896   2.828 -0.0181 -0.2413  0.6156
 5450SOL    HW117249   2.845   0.856   2.840  0.0224 -0.1128  0.7415
 5450SOL    HW217250   2.723   0.880   2.734  1.6450  2.8201 -0.5798
 5451SOL     OW17251   6.818   4.917   1.983 -0.3823  0.2513  0.0085
 5451SOL    HW117252   6.900   4.966   2.012  0.1063  1.0279 -2.4789
 5451SOL    HW217253   6.771   4.881   2.064  1.1862  1.6911  1.6620
 5452SOL     OW17254   2.065   5.697   1.094  0.1866  0.2598 -0.0405
 5452SOL    HW117255   2.079   5.760   1.017  0.1199  0.8875  0.4535
 5452SOL    HW217256   1.993   5.632   1.071  0.3231  0.2989 -0.5965
 5453SOL     OW17257   6.338   6.073   1.257  0.8872  0.4998  0.6303
 5453SOL    HW117258   6.259   6.013   1.273  2.1130 -1.4252 -0.2561
 5453SOL    HW217259   6.309   6.152   1.203 -0.1730 -0.9283 -0.9772
 5454SOL     OW17260   6.198   5.455   6.491 -0.2574 -0.0171  0.2044
 5454SOL    HW117261   6.256   5.527   6.452 -0.9924  0.8484  0.6773
 5454SOL    HW217262   6.124   5.434   6.428 -1.7214  1.7133  1.2351
 5455SOL     OW17263   4.770   3.472   1.797  0.8523  0.3263  0.3102
 5455SOL    HW117264   4.769   3.372   1.802 -0.5796  0.3518  1.0910
 5455SOL    HW217265   4.864   3.505   1.811  1.2677 -0.8850  0.4939
 5456SOL     OW17266   3.246   2.083   0.637 -0.1326 -0.2763 -0.2478
 5456SOL    HW117267   3.164   2.135   0.662  0.1315 -0.5947  1.3872
 5456SOL    HW217268   3.226   1.985   0.642  0.1864 -0.3526 -0.4348
 5457SOL     OW17269   1.099   2.645   0.345  0.1356  0.3148 -0.0667
 5457SOL    HW117270   1.067   2.568   0.400 -0.7191  0.1645 -0.7440
 5457SOL    HW217271   1.045   2.726   0.368  1.5173  0.9257  1.1739
 5458SOL     OW17272   6.613   2.496   5.813 -0.1748 -0.6519 -0.2957
 5458SOL    HW117273   6.565   2.581   5.791 -1.0779 -1.1907 -0.4937
 5458SOL    HW217274   6.698   2.491   5.762 -1.1457 -0.8353 -1.9545
 5459SOL     OW17275   2.097   3.969   0.451 -0.2249 -0.2674  0.1143
 5459SOL    HW117276   2.031   4.037   0.482 -1.5839 -0.7513 -1.5842
 5459SOL    HW217277   2.169   4.014   0.398 -0.1934  0.0373  0.4131
 5460SOL     OW17278   4.084   6.538   4.435  0.0203 -0.1612  0.3328
 5460SOL    HW117279   4.084   6.479   4.516  1.1783  0.1219  0.5685
 5460SOL    HW217280   4.171   6.526   4.386 -0.4674  0.0400 -0.5972
 5461SOL     OW17281   1.155   6.275   5.493 -0.0565 -0.1076 -0.7456
 5461SOL    HW117282   1.240   6.288   5.545 -0.8557  2.9974  0.0061
 5461SOL    HW217283   1.153   6.339   5.417 -1.4673 -0.5318 -1.0932
 5462SOL     OW17284   0.790   5.133   3.522  0.0700 -0.7789 -0.0145
 5462SOL    HW117285   0.850   5.108   3.445 -0.4887 -1.8803 -0.1113
 5462SOL    HW217286   0.781   5.055   3.583 -1.7412 -0.8478 -0.3189
 5463SOL     OW17287   0.912   1.042   6.905 -0.4059 -0.1525  0.4173
 5463SOL    HW117288   0.954   0.951   6.907  1.0496  0.4606 -0.3517
 5463SOL    HW217289   0.847   1.050   6.980 -0.6177 -1.8417  0.4640
 5464SOL     OW17290   0.145   1.615   2.889 -0.2555 -0.2712  0.6668
 5464SOL    HW117291   0.141   1.523   2.850  4.3524 -1.2310  1.8633
 5464SOL    HW217292   0.156   1.609   2.988 -2.4504  1.7806  1.1316
 5465SOL     OW17293   4.078   2.194   4.579 -0.0221  0.6079  0.8373
 5465SOL    HW117294   3.980   2.184   4.590  0.0230 -0.7569  0.2049
 5465SOL    HW217295   4.125   2.137   4.647  0.3011  0.0907  0.2012
 5466SOL     OW17296   3.472   1.291   5.236 -0.1288 -0.1203 -0.0619
 5466SOL    HW117297   3.549   1.331   5.185  0.7773 -1.7410 -0.0487
 5466SOL    HW217298   3.389   1.343   5.218  1.1404  2.3428  0.7332
 5467SOL     OW17299   5.692   3.911   4.033 -0.1623  0.1769 -0.3874
 5467SOL    HW117300   5.606   3.887   4.078 -0.0904 -1.0418 -0.8531
 5467SOL    HW217301   5.767   3.909   4.100 -0.2406 -0.4681 -0.3074
 5468SOL     OW17302   0.307   2.787   4.186 -0.2677  0.3261  0.1677
 5468SOL    HW117303   0.259   2.874   4.178  0.2677  0.4901 -1.9504
 5468SOL    HW217304   0.278   2.740   4.269 -3.9455  0.4811 -0.8560
 5469SOL     OW17305   3.460   0.083   4.520 -0.5352 -0.2351 -0.7554
 5469SOL    HW117306   3.472   0.042   4.429 -0.3639 -1.1635 -0.3151
 5469SOL    HW217307   3.437   0.180   4.509  0.8258  0.0082 -1.7674
 5470SOL     OW17308   4.545   5.699   1.539 -0.0384 -0.3131  0.2425
 5470SOL    HW117309   4.627   5.648   1.512  0.3707  1.2077 -1.5761
 5470SOL    HW217310   4.556   5.731   1.633  1.0796 -0.8650  0.3255
 5471SOL     OW17311   5.826   1.665   2.605 -0.7882  0.1663 -0.4222
 5471SOL    HW117312   5.787   1.618   2.526  2.7185 -1.2367 -1.5307
 5471SOL    HW217313   5.754   1.712   2.655 -3.8357 -2.5001 -1.9470
 5472SOL     OW17314   2.747   3.444   5.587  0.0803  0.1232  0.4472
 5472SOL    HW117315   2.681   3.371   5.603 -0.8621  0.9580  0.4193
 5472SOL    HW217316   2.769   3.449   5.490  0.9250 -0.7664  0.5752
 5473SOL     OW17317   0.592   3.249   1.626  0.4600  0.3042  0.2844
 5473SOL    HW117318   0.680   3.216   1.592  0.8966  3.1164 -1.6435
 5473SOL    HW217319   0.607   3.310   1.704  0.3113  1.4391 -0.5659
 5474SOL     OW17320   0.985   4.133   5.869  0.5181  0.2238  0.1735
 5474SOL    HW117321   0.968   4.206   5.803  0.0045 -1.5387 -1.7743
 5474SOL    HW217322   0.904   4.075   5.876  0.3676  0.6479  2.8287
 5475SOL     OW17323   1.456   3.439   2.579 -0.4342  0.0131  0.2876
 5475SOL    HW117324   1.450   3.374   2.503  0.5225  0.4845 -0.2209
 5475SOL    HW217325   1.518   3.404   2.649  1.9533  1.3171 -1.0445
 5476SOL     OW17326   2.200   4.122   0.790 -0.7208  0.0564  0.1062
 5476SOL    HW117327   2.259   4.116   0.709 -2.2066 -1.3715 -0.9400
 5476SOL    HW217328   2.180   4.217   0.809 -1.1163  0.4122 -1.8430
 5477SOL     OW17329   5.226   5.691   3.551  0.4236 -0.3304 -0.4129
 5477SOL    HW117330   5.161   5.760   3.517  0.1387 -0.0256  0.7122
 5477SOL    HW217331   5.180   5.603   3.559 -0.5014  0.3065  2.3197
 5478SOL     OW17332   5.209   5.070   5.285 -0.1764  1.1255  0.3575
 5478SOL    HW117333   5.174   5.014   5.210  0.9630 -0.2963  0.8461
 5478SOL    HW217334   5.135   5.088   5.350 -0.1650 -1.6447  1.2654
 5479SOL     OW17335   6.047   2.260   5.562 -0.0946  0.6495 -0.3029
 5479SOL    HW117336   6.020   2.272   5.467 -2.8113 -0.5671  0.2110
 5479SOL    HW217337   5.976   2.297   5.622  0.0143 -1.3909  1.2112
 5480SOL     OW17338   5.090   4.955   1.800  0.2492 -0.1148 -0.2094
 5480SOL    HW117339   5.107   5.031   1.736  2.1470  0.3352  0.7464
 5480SOL    HW217340   5.166   4.890   1.795 -1.7569 -2.5124 -1.6639
 5481SOL     OW17341   3.032   2.184   4.269  0.0012  0.3190 -0.6043
 5481SOL    HW117342   2.957   2.233   4.312 -0.4382  0.2726 -1.3106
 5481SOL    HW217343   3.109   2.178   4.333 -0.5307  0.5092  0.0604
 5482SOL     OW17344   5.035   3.312   1.932 -0.2601 -0.2451  0.0727
 5482SOL    HW117345   4.961   3.267   1.883 -1.0903  0.1103  0.9657
 5482SOL    HW217346   5.060   3.258   2.013 -0.3141  0.1875  0.3846
 5483SOL     OW17347   0.014   1.202   5.802  0.7364 -0.4054 -0.2243
 5483SOL    HW117348   0.093   1.162   5.849  0.1535 -1.2697  0.0431
 5483SOL    HW217349  -0.052   1.130   5.780 -0.3604  0.4126  0.2980
 5484SOL     OW17350   4.148   0.057   5.484 -0.2041 -0.2332  0.0048
 5484SOL    HW117351   4.227  -0.001   5.465 -0.3760 -0.3907 -0.2323
 5484SOL    HW217352   4.076   0.002   5.526  0.2027  0.1227  1.2279
 5485SOL     OW17353   2.307   0.123   4.814 -0.2557  0.8599  0.6731
 5485SOL    HW117354   2.345   0.107   4.905 -0.2202  0.9104  0.6671
 5485SOL    HW217355   2.242   0.050   4.791  0.5395  0.2545  0.3051
 5486SOL     OW17356   4.046   5.795   5.356  0.5056  0.3129 -0.1030
 5486SOL    HW117357   4.066   5.879   5.405  0.2049 -0.1101  0.7547
 5486SOL    HW217358   4.025   5.816   5.260  0.8372  1.1627  0.0071
 5487SOL     OW17359   6.646   2.099   0.961 -0.4338  0.5395  0.1109
 5487SOL    HW117360   6.629   2.187   1.004 -1.3414  0.9794 -1.0807
 5487SOL    HW217361   6.590   2.091   0.878  0.5481 -0.6444 -0.4773
 5488SOL     OW17362   6.256   0.671   0.767 -0.0374  0.5021 -0.1132
 5488SOL    HW117363   6.256   0.608   0.844  0.3670  2.0480  1.2038
 5488SOL    HW217364   6.171   0.660   0.715 -1.0327  0.4846  1.4577
 5489SOL     OW17365   0.163   4.640   1.811 -0.1584 -0.9048 -0.1927
 5489SOL    HW117366   0.145   4.577   1.735  0.3881  0.7324 -1.7474
 5489SOL    HW217367   0.258   4.673   1.806 -0.5396  0.3539  0.3256
 5490SOL     OW17368   1.249   6.383   3.336 -0.0663  0.1719  0.6026
 5490SOL    HW117369   1.251   6.426   3.246 -0.6236  0.5857  0.7759
 5490SOL    HW217370   1.322   6.421   3.393 -0.1689  0.4442  0.5560
 5491SOL     OW17371   1.051   2.008   0.773  0.5015  0.8845 -0.0487
 5491SOL    HW117372   1.108   1.937   0.732  0.7952  1.4890 -0.7127
 5491SOL    HW217373   1.008   1.973   0.856  0.1100 -0.2872 -0.7223
 5492SOL     OW17374   1.070   5.433   0.099 -0.1617  0.1312 -0.0435
 5492SOL    HW117375   0.987   5.379   0.090 -1.1450  1.4486  0.7984
 5492SOL    HW217376   1.048   5.530   0.099  1.5555  0.5706 -1.3857
 5493SOL     OW17377   3.272   3.716   3.843  0.5174 -0.2600 -0.6797
 5493SOL    HW117378   3.296   3.753   3.933  0.7613 -0.1251 -0.8019
 5493SOL    HW217379   3.176   3.736   3.824  0.0348 -1.5477  0.1845
 5494SOL     OW17380   2.772   2.333   3.713  0.0960 -0.3785 -0.3750
 5494SOL    HW117381   2.721   2.401   3.767  0.9647  0.9742 -1.1896
 5494SOL    HW217382   2.711   2.260   3.684 -1.0277  0.4104 -0.0399
 5495SOL     OW17383   5.260   0.666   1.210  0.2137  0.4824  0.0789
 5495SOL    HW117384   5.264   0.728   1.289  0.3656 -0.4373  0.8146
 5495SOL    HW217385   5.342   0.677   1.155 -0.0907  1.4422 -0.1978
 5496SOL     OW17386   4.873   1.685   5.197  0.0010 -0.1020 -0.3801
 5496SOL    HW117387   4.894   1.772   5.242 -0.7941  0.9668 -1.9567
 5496SOL    HW217388   4.878   1.698   5.098 -1.2711 -1.5737 -0.6606
 5497SOL     OW17389   6.297   0.852   1.636  0.1946  0.5914 -0.0140
 5497SOL    HW117390   6.237   0.882   1.710  0.5737  1.4941 -0.0569
 5497SOL    HW217391   6.390   0.886   1.653  0.7411 -0.8941  0.1257
 5498SOL     OW17392   0.355   5.919   0.135 -0.1115 -0.6591 -0.4416
 5498SOL    HW117393   0.447   5.912   0.096  0.9293 -0.9255  1.8821
 5498SOL    HW217394   0.325   6.014   0.131  0.4933 -0.4750 -0.7407
 5499SOL     OW17395   0.492   0.649   5.058 -0.1804  0.7015  1.0658
 5499SOL    HW117396   0.494   0.685   5.151  1.4990  1.2061  0.8647
 5499SOL    HW217397   0.585   0.633   5.026 -0.7709 -1.0474  0.0546
 5500SOL     OW17398   6.949   0.837   0.616 -0.0717 -0.6937  0.0138
 5500SOL    HW117399   6.933   0.927   0.655  1.1241 -0.5979  0.2984
 5500SOL    HW217400   6.865   0.782   0.624 -0.9291  0.4990 -0.5076
 5501SOL     OW17401   3.754   2.492   1.012  0.5253 -0.3075  0.0527
 5501SOL    HW117402   3.762   2.451   0.921  0.4116 -1.4227  0.5214
 5501SOL    HW217403   3.771   2.422   1.081 -1.5191 -0.0021  0.9263
 5502SOL     OW17404   5.618   6.252   6.121  0.3223 -0.0569  0.0520
 5502SOL    HW117405   5.545   6.205   6.072  2.3461  0.2252 -3.6077
 5502SOL    HW217406   5.695   6.190   6.135  0.9042  0.6699  0.1941
 5503SOL     OW17407   0.948   5.990   1.427 -0.1982 -0.7590  0.1283
 5503SOL    HW117408   1.011   6.057   1.467 -0.8137 -0.1224  0.0364
 5503SOL    HW217409   0.920   5.925   1.498 -1.4732  0.5052  0.8419
 5504SOL     OW17410   5.619   0.840   5.672 -0.7483  0.2194 -0.2372
 5504SOL    HW117411   5.704   0.810   5.629 -0.6502 -1.5905  1.0983
 5504SOL    HW217412   5.543   0.787   5.636 -0.9114 -0.0815  0.5401
 5505SOL     OW17413   2.336   5.393   3.192  0.3730  0.3786  0.4634
 5505SOL    HW117414   2.273   5.327   3.152 -0.0397  1.7282 -1.2030
 5505SOL    HW217415   2.306   5.486   3.169  1.7155  1.1186  1.5703
 5506SOL     OW17416   2.165   3.579   1.693 -0.1134  0.6420 -0.6523
 5506SOL    HW117417   2.244   3.560   1.751 -0.9504  1.6283  0.8883
 5506SOL    HW217418   2.082   3.549   1.739 -0.7776  1.0374 -1.5607
 5507SOL     OW17419   6.484   3.095   4.866  0.8994  0.3003 -0.8777
 5507SOL    HW117420   6.496   3.069   4.962 -1.0100 -1.4902 -1.0711
 5507SOL    HW217421   6.529   3.027   4.808  0.6511  0.4834 -1.2831
 5508SOL     OW17422   6.619   1.562   0.040  0.1525 -0.1557 -0.4352
 5508SOL    HW117423   6.619   1.660   0.056  0.5335 -0.3961  1.3466
 5508SOL    HW217424   6.541   1.521   0.087 -0.6228 -0.5946 -2.0702
 5509SOL     OW17425   0.025   6.758   6.946  0.3012 -0.3117 -0.3417
 5509SOL    HW117426  -0.002   6.727   6.855  2.4827  0.0165 -1.1576
 5509SOL    HW217427  -0.037   6.720   7.014 -2.5972  1.0030 -2.0834
 5510SOL     OW17428   2.761   6.415   7.021 -0.1965 -0.1933 -0.3407
 5510SOL    HW117429   2.810   6.332   6.993  0.4291  0.2373 -0.5624
 5510SOL    HW217430   2.731   6.465   6.939  1.5334  1.0102 -0.3011
 5511SOL     OW17431   0.658   4.632   5.613  0.0633 -0.2120  0.1746
 5511SOL    HW117432   0.701   4.622   5.523 -0.5194 -0.2280 -0.1052
 5511SOL    HW217433   0.566   4.668   5.601  0.5020  1.2144  0.8595
 5512SOL     OW17434   3.616   2.587   0.449 -0.0357  0.0703 -0.0589
 5512SOL    HW117435   3.596   2.591   0.351 -0.5703 -0.1536  0.0357
 5512SOL    HW217436   3.714   2.570   0.463 -0.1298 -0.9732 -0.5757
 5513SOL     OW17437   3.500   6.732   4.913  0.5234 -0.0629  0.4374
 5513SOL    HW117438   3.460   6.823   4.918 -1.0546 -0.7112  0.3640
 5513SOL    HW217439   3.546   6.710   4.999 -2.5140 -0.6533  2.0440
 5514SOL     OW17440   5.759   0.303   3.992  0.1352  0.0320  0.1445
 5514SOL    HW117441   5.744   0.402   3.985 -2.0367 -0.1939  0.8401
 5514SOL    HW217442   5.792   0.268   3.904  0.9001  1.3525 -0.1217
 5515SOL     OW17443   1.311   4.534   2.258 -0.0854  0.1798  0.7154
 5515SOL    HW117444   1.235   4.589   2.292 -0.7049 -1.1849  1.6819
 5515SOL    HW217445   1.323   4.549   2.161  0.5670  2.8847  1.1551
 5516SOL     OW17446   3.062   1.839   5.531  0.2250  0.1420 -0.1407
 5516SOL    HW117447   3.141   1.789   5.566 -1.0748  0.1301  3.0803
 5516SOL    HW217448   3.079   1.938   5.538 -0.3982  0.1524  1.6030
 5517SOL     OW17449   2.504   4.781   1.583  0.5309  0.1238  0.3825
 5517SOL    HW117450   2.483   4.875   1.612  3.0619  1.1172 -0.7746
 5517SOL    HW217451   2.587   4.750   1.628 -0.5267 -1.8223  1.1268
 5518SOL     OW17452   6.096   4.981   1.388 -0.4488 -0.2715 -0.1743
 5518SOL    HW117453   6.064   4.886   1.384  1.9210 -1.0836 -1.8442
 5518SOL    HW217454   6.121   5.004   1.482  0.6092 -1.9308 -0.0073
 5519SOL     OW17455   4.359   1.038   1.406 -0.4790  0.1734 -0.1563
 5519SOL    HW117456   4.353   0.938   1.397 -0.0506  0.1103  0.2388
 5519SOL    HW217457   4.435   1.062   1.466 -1.0406  0.7195  0.3528
 5520SOL     OW17458   5.544   0.191   4.103 -0.3677  0.3956 -0.1926
 5520SOL    HW117459   5.553   0.145   4.191 -0.1516  1.8876  0.5979
 5520SOL    HW217460   5.629   0.237   4.079  0.0918 -1.2167 -1.9524
 5521SOL     OW17461   4.658   1.339   1.916  0.5252  0.0996 -0.3325
 5521SOL    HW117462   4.664   1.339   1.816  1.5851 -0.1018 -0.2846
 5521SOL    HW217463   4.593   1.409   1.945 -0.2213 -0.2128 -1.1742
 5522SOL     OW17464   5.108   3.642   1.741 -0.1183 -0.6714 -0.2452
 5522SOL    HW117465   5.065   3.730   1.718  0.3742 -0.2813  0.2968
 5522SOL    HW217466   5.096   3.578   1.665 -0.2741 -0.0577 -0.7470
 5523SOL     OW17467   4.459   1.918   0.603  0.3335 -0.4031 -0.1566
 5523SOL    HW117468   4.385   1.950   0.662  1.8305 -1.9666  2.7943
 5523SOL    HW217469   4.528   1.990   0.594  1.0624 -0.8140  1.7934
 5524SOL     OW17470   5.985   1.082   2.660 -0.5574  0.5642 -0.1061
 5524SOL    HW117471   6.027   1.087   2.751 -0.2093  2.0090 -0.3193
 5524SOL    HW217472   6.013   0.997   2.615  1.6108  1.1448  0.0379
 5525SOL     OW17473   6.152   1.424   1.252  0.3245  0.6030  0.3012
 5525SOL    HW117474   6.085   1.377   1.310 -0.5901 -0.0147 -1.2005
 5525SOL    HW217475   6.225   1.462   1.310  0.3378 -1.3887  1.7278
 5526SOL     OW17476   4.865   6.206   2.684 -0.5580  0.2402 -0.1694
 5526SOL    HW117477   4.814   6.181   2.601 -0.6747 -0.2144  0.0333
 5526SOL    HW217478   4.934   6.274   2.661 -1.2935  0.9197 -0.4415
 5527SOL     OW17479   6.511   4.556   4.696  0.0192 -0.2377  0.3801
 5527SOL    HW117480   6.546   4.640   4.737 -0.3482 -0.8083  1.9523
 5527SOL    HW217481   6.422   4.535   4.735 -1.3703  0.2766 -2.3055
 5528SOL     OW17482   0.513   0.727   0.771 -0.0869 -0.4449 -0.3225
 5528SOL    HW117483   0.454   0.803   0.798  1.0914  0.4419 -0.1123
 5528SOL    HW217484   0.477   0.641   0.807 -0.5284  0.2462  0.9442
 5529SOL     OW17485   1.243   6.357   5.232 -0.5776  0.1122 -0.2829
 5529SOL    HW117486   1.144   6.339   5.238 -0.3143 -1.9274 -1.1885
 5529SOL    HW217487   1.291   6.271   5.215  1.2946  1.1996 -0.7306
 5530SOL     OW17488   6.722   2.813   0.470  0.9578  0.2094 -0.1754
 5530SOL    HW117489   6.635   2.863   0.473  0.1424 -1.0265 -1.6967
 5530SOL    HW217490   6.771   2.839   0.387  0.7530 -1.0821 -0.7280
 5531SOL     OW17491   2.841   3.458   0.967  0.6565 -0.3397  0.2143
 5531SOL    HW117492   2.909   3.414   0.908 -0.2427 -0.7479 -0.5236
 5531SOL    HW217493   2.750   3.443   0.931  0.1460  0.1001  1.2713
 5532SOL     OW17494   1.750   2.343   2.163  0.3417 -0.1361 -0.4937
 5532SOL    HW117495   1.754   2.251   2.123  1.3235 -0.1807 -0.3198
 5532SOL    HW217496   1.840   2.367   2.200  0.6620  1.6581 -2.2548
 5533SOL     OW17497   4.204   1.794   4.029 -0.2718 -0.3701  0.3674
 5533SOL    HW117498   4.113   1.833   4.010 -0.0191  0.7238  1.3168
 5533SOL    HW217499   4.259   1.796   3.945 -0.5588  0.5286  0.1935
 5534SOL     OW17500   0.184   1.088   1.918  0.0122  0.5502  0.8998
 5534SOL    HW117501   0.126   1.126   1.845  0.3703 -0.3044  0.1615
 5534SOL    HW217502   0.270   1.138   1.922  1.0372 -0.9824 -0.9604
 5535SOL     OW17503   2.324   6.502   3.585 -0.2011  0.3137 -0.4210
 5535SOL    HW117504   2.283   6.591   3.606 -1.2250  0.0372 -1.1633
 5535SOL    HW217505   2.328   6.490   3.485 -0.5631 -0.6866 -0.3248
 5536SOL     OW17506   2.829   0.107   3.808  0.4660  0.4855  0.3054
 5536SOL    HW117507   2.880   0.023   3.790 -2.6200 -1.3491 -0.6453
 5536SOL    HW217508   2.773   0.130   3.729 -0.9123  1.8155  1.6005
 5537SOL     OW17509   4.184   1.821   3.496 -0.3463 -0.1276  0.5016
 5537SOL    HW117510   4.260   1.778   3.447  0.3719  1.9517 -0.2839
 5537SOL    HW217511   4.203   1.821   3.594  0.4616  0.0062  0.3481
 5538SOL     OW17512   4.541   4.327   5.716  0.1086  0.1621 -0.1110
 5538SOL    HW117513   4.456   4.326   5.665  0.3732  0.4703 -0.5596
 5538SOL    HW217514   4.528   4.280   5.804 -0.2520 -0.6598 -0.5970
 5539SOL     OW17515   1.766   3.820   2.571 -0.1097 -0.1403  0.4936
 5539SOL    HW117516   1.777   3.738   2.515  0.2030 -0.4557  1.0150
 5539SOL    HW217517   1.672   3.825   2.604  0.3021 -1.2786  1.9659
 5540SOL     OW17518   4.868   5.145   1.444 -0.2016  0.1026 -0.5677
 5540SOL    HW117519   4.892   5.150   1.541  3.2873 -1.5734 -1.2125
 5540SOL    HW217520   4.786   5.088   1.433 -1.0752  0.8963  1.3780
 5541SOL     OW17521   5.209   6.355   0.069 -0.1921  0.0479 -0.5450
 5541SOL    HW117522   5.119   6.338   0.109 -0.1205 -2.4412 -1.2541
 5541SOL    HW217523   5.218   6.304  -0.016  1.6447  0.8410 -0.8863
 5542SOL     OW17524   4.906   3.405   5.240  0.4950 -0.8622 -0.5445
 5542SOL    HW117525   4.969   3.441   5.309 -0.1995  0.4494 -0.5495
 5542SOL    HW217526   4.850   3.480   5.204 -2.3971 -2.1789  0.8086
 5543SOL     OW17527   4.762   2.682   6.301  0.6655  0.1037  0.3654
 5543SOL    HW117528   4.676   2.730   6.283  0.2736 -0.8634 -0.4880
 5543SOL    HW217529   4.755   2.588   6.267  1.2770 -0.6942  2.3039
 5544SOL     OW17530   5.059   6.571   6.605  0.0039  0.0726  0.1097
 5544SOL    HW117531   5.078   6.668   6.593  0.1055  0.1185  0.5913
 5544SOL    HW217532   5.063   6.524   6.517  1.4098  0.2555  0.0459
 5545SOL     OW17533   4.777   0.316   3.167  0.0900  0.0902 -0.4971
 5545SOL    HW117534   4.717   0.334   3.246 -0.6219  1.9493 -1.4145
 5545SOL    HW217535   4.744   0.368   3.088  2.0721 -0.0241 -1.4416
 5546SOL     OW17536   0.030   3.622   4.286 -0.2185  0.2106 -0.7866
 5546SOL    HW117537   0.040   3.714   4.249 -0.6998  0.3890 -0.4813
 5546SOL    HW217538   0.118   3.590   4.320 -0.1298  0.7120 -0.5344
 5547SOL     OW17539   3.327   6.232   5.699 -0.7451 -0.1203  0.4289
 5547SOL    HW117540   3.299   6.139   5.674 -0.5532  0.2375 -1.2996
 5547SOL    HW217541   3.369   6.231   5.789 -0.3917 -1.7959  0.2881
 5548SOL     OW17542   5.484   1.885   5.575  0.3274 -0.5804 -0.0266
 5548SOL    HW117543   5.507   1.977   5.543 -2.2428  1.7843  4.0186
 5548SOL    HW217544   5.405   1.851   5.524 -0.8422  1.0446  0.6188
 5549SOL     OW17545   3.795   0.035   0.070 -0.3063  0.3748 -0.0936
 5549SOL    HW117546   3.866   0.099   0.040 -0.7546  1.3171  0.7977
 5549SOL    HW217547   3.706   0.067   0.037 -0.6530  0.7563  1.1730
 5550SOL     OW17548   3.456   4.994   3.152 -0.1577  0.3504 -0.9703
 5550SOL    HW117549   3.533   4.962   3.096 -0.3652 -0.8537 -0.5894
 5550SOL    HW217550   3.370   4.970   3.108 -0.3179  0.1734 -0.5696
 5551SOL     OW17551   2.757   6.229   2.772  0.0747 -0.0090  0.5979
 5551SOL    HW117552   2.664   6.208   2.800  0.4117 -3.0867 -0.2325
 5551SOL    HW217553   2.792   6.155   2.715  2.7656  1.4416  0.2070
 5552SOL     OW17554   0.129   1.612   1.012 -0.1136 -0.0041  0.0753
 5552SOL    HW117555   0.128   1.711   1.028  0.9552  0.1668 -0.8198
 5552SOL    HW217556   0.122   1.593   0.914 -2.2076 -0.8931  0.3568
 5553SOL     OW17557   4.093   1.226   0.437 -0.0305 -0.4682 -0.4640
 5553SOL    HW117558   4.061   1.319   0.455 -1.5532 -1.1953  0.8375
 5553SOL    HW217559   4.087   1.207   0.339 -0.8521  0.3980 -0.5967
 5554SOL     OW17560   3.122   1.177   6.561  0.2034  0.7629  0.1068
 5554SOL    HW117561   3.126   1.149   6.465  1.4360 -1.4257  0.7108
 5554SOL    HW217562   3.195   1.242   6.580  1.0479 -0.0976 -0.1032
 5555SOL     OW17563   6.523   6.234   3.508  0.1089  0.1794  0.0271
 5555SOL    HW117564   6.479   6.266   3.423 -0.2061 -0.9897 -0.2646
 5555SOL    HW217565   6.615   6.272   3.513  0.6884 -0.9044 -1.5957
 5556SOL     OW17566   6.862   2.887   3.998  0.0530 -0.1368 -0.7211
 5556SOL    HW117567   6.882   2.944   3.919  1.2995 -0.1576 -0.4283
 5556SOL    HW217568   6.798   2.934   4.058 -2.4650 -0.8723 -2.6261
 5557SOL     OW17569   2.724   5.397   5.819 -0.2212  0.0831 -0.2289
 5557SOL    HW117570   2.752   5.386   5.723  0.4016 -2.6972  0.1696
 5557SOL    HW217571   2.722   5.307   5.863 -1.1047  1.2209  2.2294
 5558SOL     OW17572   5.140   3.774   5.950  0.0531  0.7309 -0.4339
 5558SOL    HW117573   5.156   3.739   5.858 -0.4074  0.2652 -0.3441
 5558SOL    HW217574   5.201   3.729   6.015  1.2383  1.9393 -0.6716
 5559SOL     OW17575   3.489   5.927   2.814  0.3646 -0.1919 -0.3247
 5559SOL    HW117576   3.429   6.004   2.791  0.1964  0.5430  2.2599
 5559SOL    HW217577   3.580   5.944   2.775  0.0453  0.8015 -0.6766
 5560SOL     OW17578   5.672   6.296   3.422 -0.3402 -0.1971  0.2626
 5560SOL    HW117579   5.599   6.334   3.365 -1.1809 -1.1659  0.6703
 5560SOL    HW217580   5.636   6.279   3.514  0.4971 -0.3777  0.5592
 5561SOL     OW17581   1.374   2.343   4.064  0.2446  0.0995  0.1732
 5561SOL    HW117582   1.366   2.442   4.054 -1.5853 -0.1563 -1.8776
 5561SOL    HW217583   1.346   2.300   3.978  2.6568 -2.1610  0.4297
 5562SOL     OW17584   1.080   2.143   0.271  0.5832 -0.3115  0.2799
 5562SOL    HW117585   1.173   2.141   0.307  0.4252 -1.9721  0.6699
 5562SOL    HW217586   1.037   2.054   0.285 -0.2502 -0.3368 -2.0470
 5563SOL     OW17587   3.285   0.633   2.532 -0.0136  0.9126  0.4017
 5563SOL    HW117588   3.271   0.632   2.433 -0.9479  0.7286  0.5297
 5563SOL    HW217589   3.383   0.639   2.551  0.4868 -2.4934 -0.5275
 5564SOL     OW17590   4.215   3.609   6.877 -0.0974  0.2211  0.4300
 5564SOL    HW117591   4.159   3.613   6.794 -0.0848 -2.9614  0.1429
 5564SOL    HW217592   4.157   3.584   6.955  0.3113  0.6316  0.8681
 5565SOL     OW17593   5.377   2.597   4.905  0.1532 -0.0519  0.2318
 5565SOL    HW117594   5.412   2.659   4.975  0.4318  0.2145 -0.1405
 5565SOL    HW217595   5.290   2.631   4.870 -0.3534 -0.5695  0.9623
 5566SOL     OW17596   1.119   6.056   1.753 -0.1905 -0.4897  0.2406
 5566SOL    HW117597   1.165   6.100   1.829  0.3625 -1.1263  0.2879
 5566SOL    HW217598   1.139   5.958   1.754  0.2186 -0.4370 -0.9937
 5567SOL     OW17599   0.174   5.481   1.055  0.5141 -0.2789  0.9876
 5567SOL    HW117600   0.097   5.540   1.082 -0.0873 -0.3501 -0.4735
 5567SOL    HW217601   0.159   5.389   1.090 -1.1857 -0.8355 -0.9997
 5568SOL     OW17602   4.870   3.182   1.758  0.5024  0.4600 -0.7223
 5568SOL    HW117603   4.792   3.136   1.800  0.7741  2.0350  1.6649
 5568SOL    HW217604   4.902   3.128   1.680 -2.1645 -0.8455 -1.0255
 5569SOL     OW17605   4.520   1.525   2.055 -0.0988 -0.5167  0.4022
 5569SOL    HW117606   4.577   1.607   2.056 -0.5884  0.0198 -2.8328
 5569SOL    HW217607   4.423   1.553   2.051 -0.2589 -1.1950 -0.9267
 5570SOL     OW17608   5.908   5.754   4.067  0.5659 -0.3407  0.4486
 5570SOL    HW117609   5.946   5.678   4.013 -0.5438 -0.0798 -0.7594
 5570SOL    HW217610   5.825   5.724   4.113  1.3898 -0.4986  1.9151
 5571SOL     OW17611   4.965   5.806   0.225 -0.5716  0.1666  0.1682
 5571SOL    HW117612   5.004   5.858   0.301 -1.5493  0.3258  0.5779
 5571SOL    HW217613   4.875   5.842   0.202 -1.9050 -2.1485  1.3695
 5572SOL     OW17614   3.050   1.650   6.591 -0.3401 -0.7217 -0.2308
 5572SOL    HW117615   3.079   1.606   6.676 -0.5575  0.4203  0.4522
 5572SOL    HW217616   2.954   1.677   6.598 -0.1253  0.1550 -0.4941
 5573SOL     OW17617   0.128   3.767   6.328  0.7182  0.0299  0.0221
 5573SOL    HW117618   0.041   3.725   6.353  1.2777 -0.3904  1.3700
 5573SOL    HW217619   0.195   3.751   6.401  1.9683  0.2276 -1.0323
 5574SOL     OW17620   6.943   1.920   4.145 -0.2829  0.0596 -0.2631
 5574SOL    HW117621   7.013   1.977   4.102  0.3858 -0.7384 -0.2527
 5574SOL    HW217622   6.863   1.916   4.086  0.4966 -0.7515 -1.2998
 5575SOL     OW17623   2.710   6.947   0.950 -0.6868 -0.7668  0.3404
 5575SOL    HW117624   2.626   6.903   0.920 -0.1263 -1.0546 -0.8654
 5575SOL    HW217625   2.730   7.025   0.891 -0.0572 -0.7589  0.5542
 5576SOL     OW17626   6.808   5.674   1.336 -0.0772 -0.2392 -0.6585
 5576SOL    HW117627   6.728   5.700   1.388  0.1116  0.0122 -0.4952
 5576SOL    HW217628   6.890   5.680   1.393 -0.0825 -1.6870 -0.4493
 5577SOL     OW17629   2.302   4.771   3.849  0.1464  0.1636  0.1970
 5577SOL    HW117630   2.337   4.780   3.756  0.6809 -0.0034  0.3769
 5577SOL    HW217631   2.363   4.712   3.902 -1.4757 -1.8184 -0.0266
 5578SOL     OW17632   3.587   4.548   6.919 -0.1248 -0.1638 -0.4441
 5578SOL    HW117633   3.660   4.490   6.882  1.9048  2.2626 -0.5613
 5578SOL    HW217634   3.628   4.631   6.959 -2.8639  1.5287 -0.8898
 5579SOL     OW17635   6.367   4.682   5.085 -0.8945 -0.7131  0.2897
 5579SOL    HW117636   6.416   4.654   5.168 -0.8643  1.6019  1.1166
 5579SOL    HW217637   6.423   4.746   5.033 -1.7860 -0.4923 -0.4185
 5580SOL     OW17638   4.737   0.882   1.635 -0.1089 -0.2378 -0.3625
 5580SOL    HW117639   4.827   0.884   1.680 -0.4547  0.0585  0.3317
 5580SOL    HW217640   4.713   0.787   1.614 -0.6545 -0.5870  1.5926
 5581SOL     OW17641   2.384   0.058   5.063  0.0763 -0.0202  0.4072
 5581SOL    HW117642   2.448  -0.018   5.051 -1.3821 -1.3824  0.9192
 5581SOL    HW217643   2.325   0.040   5.141 -0.9138  1.2199 -0.0189
 5582SOL     OW17644   3.861   3.914   2.865  0.3357 -0.5302  0.0312
 5582SOL    HW117645   3.923   3.893   2.941  2.3281 -1.3752 -1.7393
 5582SOL    HW217646   3.808   3.832   2.842  1.8614 -1.1913 -1.3130
 5583SOL     OW17647   3.626   6.186   2.215  0.1269  0.6182 -0.1541
 5583SOL    HW117648   3.723   6.187   2.239  0.2280  1.3049 -0.5728
 5583SOL    HW217649   3.599   6.276   2.180  0.0109 -0.3351 -2.6856
 5584SOL     OW17650   5.102   2.681   3.196 -0.2872 -0.1101  0.1210
 5584SOL    HW117651   5.189   2.633   3.188 -1.0088 -1.2730 -1.2811
 5584SOL    HW217652   5.089   2.711   3.291  2.1690  1.2155  0.1097
 5585SOL     OW17653   5.875   6.402   3.670 -0.1644  0.0986 -0.3001
 5585SOL    HW117654   5.912   6.313   3.697  1.9135  1.1133  0.4301
 5585SOL    HW217655   5.870   6.462   3.751 -1.5451  0.6740 -0.7749
 5586SOL     OW17656   1.961   2.049   5.845  0.2264 -0.3556 -0.5794
 5586SOL    HW117657   1.892   1.987   5.809 -0.4846 -0.2238  0.5065
 5586SOL    HW217658   1.955   2.052   5.945  2.0188 -0.5785 -0.4326
 5587SOL     OW17659   3.055   0.443   3.595  0.0862  0.6578  0.0079
 5587SOL    HW117660   3.038   0.393   3.680 -1.7993 -0.4852 -0.9741
 5587SOL    HW217661   2.997   0.524   3.592 -1.3379 -0.3516 -0.9913
 5588SOL     OW17662   2.728   2.002   5.151  0.2000  0.0990  0.1818
 5588SOL    HW117663   2.799   1.935   5.174 -0.1891 -1.9158 -3.6099
 5588SOL    HW217664   2.657   2.000   5.221  2.1318 -0.4205  2.2563
 5589SOL     OW17665   6.035   5.499   6.039 -0.3535  0.4184  0.2029
 5589SOL    HW117666   5.963   5.541   5.985 -0.1773  0.7501  0.2219
 5589SOL    HW217667   6.055   5.557   6.118 -1.1739 -0.4613  1.0738
 5590SOL     OW17668   6.247   0.727   2.975  0.7510 -0.5392  0.3013
 5590SOL    HW117669   6.245   0.676   3.061 -0.3916 -0.3891  0.3809
 5590SOL    HW217670   6.169   0.700   2.919  0.0294  1.2174  0.4043
 5591SOL     OW17671   1.182   0.527   2.067 -0.2895  0.1028 -0.0675
 5591SOL    HW117672   1.135   0.598   2.013 -1.2981 -0.2406  0.3326
 5591SOL    HW217673   1.128   0.506   2.148  0.6525 -0.2044  0.4941
 5592SOL     OW17674   0.970   2.356   3.153  0.6510 -0.0642 -0.5200
 5592SOL    HW117675   1.016   2.445   3.164 -0.6180  0.6290 -0.6753
 5592SOL    HW217676   1.008   2.310   3.072  1.7181  0.0641 -0.1186
 5593SOL     OW17677   5.241   1.776   5.438  0.3947  1.3181  0.2144
 5593SOL    HW117678   5.257   1.678   5.432  1.3446  1.4945 -0.3460
 5593SOL    HW217679   5.143   1.794   5.431 -0.7413 -0.0208  6.4661
 5594SOL     OW17680   1.312   0.447   6.938  0.1632 -0.1421  0.1532
 5594SOL    HW117681   1.340   0.513   6.868 -0.2473 -0.9567 -0.8077
 5594SOL    HW217682   1.394   0.410   6.982  0.4821 -0.3034 -0.5508
 5595SOL     OW17683   6.905   1.174   4.825 -0.1990  0.4328 -0.3395
 5595SOL    HW117684   6.959   1.091   4.814 -2.0906 -0.8894 -0.0570
 5595SOL    HW217685   6.967   1.254   4.827  1.5727 -0.8082 -1.8203
 5596SOL     OW17686   6.153   0.632   2.253 -0.0523  0.3034  0.1422
 5596SOL    HW117687   6.123   0.727   2.258 -0.5304  0.2012 -0.5163
 5596SOL    HW217688   6.222   0.614   2.323  0.7856  1.4017 -0.3753
 5597SOL     OW17689   6.156   2.596   0.544 -0.2091 -0.1309 -0.4982
 5597SOL    HW117690   6.183   2.599   0.448 -1.5564 -0.5880 -0.9177
 5597SOL    HW217691   6.080   2.659   0.560 -0.3298 -0.4252  0.1576
 5598SOL     OW17692   6.158   2.557   4.407  0.1875 -0.0517 -0.0829
 5598SOL    HW117693   6.143   2.655   4.415 -1.4182 -0.0470 -2.1481
 5598SOL    HW217694   6.222   2.527   4.477 -2.2285  1.7623  3.1642
 5599SOL     OW17695   4.042   6.577   1.014 -0.4587 -0.0057  0.3472
 5599SOL    HW117696   3.949   6.543   1.026 -0.5165  0.6452  2.1264
 5599SOL    HW217697   4.067   6.633   1.094  1.4423 -0.1533 -0.1021
 5600SOL     OW17698   2.541   6.233   3.757  0.0338 -0.3478  0.1156
 5600SOL    HW117699   2.588   6.146   3.765 -1.0965 -1.3298 -2.6477
 5600SOL    HW217700   2.564   6.275   3.669 -1.3734  0.9475  0.3272
 5601SOL     OW17701   5.052   4.115   4.222 -0.0274  0.1572  0.1451
 5601SOL    HW117702   5.065   4.183   4.150  0.3981 -1.0537 -0.9652
 5601SOL    HW217703   4.959   4.081   4.219  0.2100 -0.4682 -0.3763
 5602SOL     OW17704   6.689   1.310   4.876  0.1571 -0.4166 -0.0514
 5602SOL    HW117705   6.608   1.269   4.834 -0.0801 -1.3940  1.2966
 5602SOL    HW217706   6.768   1.252   4.859  0.2136 -0.4105  0.1857
 5603SOL     OW17707   4.622   2.375   3.907 -0.8216 -0.7319 -0.0753
 5603SOL    HW117708   4.547   2.309   3.906 -0.1700 -1.5099  0.7773
 5603SOL    HW217709   4.595   2.456   3.958 -0.9180 -1.2394  0.7020
 5604SOL     OW17710   5.713   0.083   5.201  0.0295  0.2386  0.1356
 5604SOL    HW117711   5.654   0.129   5.135 -1.0998 -0.7592  0.4032
 5604SOL    HW217712   5.789   0.143   5.227  0.1657  0.8788 -1.5923
 5605SOL     OW17713   2.109   6.715   5.394  0.3992 -0.3419 -0.1284
 5605SOL    HW117714   2.199   6.672   5.389 -0.2853 -1.7662 -0.8319
 5605SOL    HW217715   2.066   6.714   5.304  0.0488  1.2139 -0.0088
 5606SOL     OW17716   6.315   6.706   4.614  0.0783 -0.2662  0.7021
 5606SOL    HW117717   6.308   6.653   4.699 -1.0762  0.1585  0.8845
 5606SOL    HW217718   6.224   6.727   4.580  0.5192  0.8170  0.1334
 5607SOL     OW17719   5.632   2.477   2.804  0.0885 -0.2716  0.2648
 5607SOL    HW117720   5.679   2.513   2.724 -2.2397  0.7145 -0.7490
 5607SOL    HW217721   5.676   2.513   2.887  1.4068  0.1504 -0.5804
 5608SOL     OW17722   0.281   2.468   2.270 -0.2400  0.2403  0.2112
 5608SOL    HW117723   0.190   2.499   2.242 -0.3910 -0.6422 -0.3402
 5608SOL    HW217724   0.298   2.377   2.232  1.8326  1.3347 -1.7614
 5609SOL     OW17725   5.557   6.993   1.287 -0.4528  0.3195  0.2375
 5609SOL    HW117726   5.547   6.947   1.375 -1.5488  0.9471  0.4660
 5609SOL    HW217727   5.583   7.089   1.302 -2.4609  0.9504  0.0137
 5610SOL     OW17728   0.870   4.982   0.503  0.0988 -0.1085  0.4866
 5610SOL    HW117729   0.807   5.058   0.488  0.2781  0.0757  0.6515
 5610SOL    HW217730   0.932   5.005   0.579 -0.4289 -0.7929  1.1342
 5611SOL     OW17731   0.697   5.493   2.489 -0.0281  0.3844 -0.1538
 5611SOL    HW117732   0.755   5.450   2.420 -0.7193  0.9314 -1.1108
 5611SOL    HW217733   0.692   5.435   2.570  0.6995 -0.3385 -0.6169
 5612SOL     OW17734   1.910   2.190   1.113  0.3612  0.8413 -0.1264
 5612SOL    HW117735   1.959   2.266   1.155 -1.4244  1.5004  0.8772
 5612SOL    HW217736   1.950   2.104   1.143  1.7057  1.3517 -0.3845
 5613SOL     OW17737   0.751   6.104   5.544  0.0485 -0.1807  0.0541
 5613SOL    HW117738   0.779   6.184   5.597  2.0635  1.1964 -2.7789
 5613SOL    HW217739   0.671   6.128   5.488 -0.9768 -1.0453  1.1172
 5614SOL     OW17740   5.437   3.130   6.319  0.1494  0.1447  0.1585
 5614SOL    HW117741   5.432   3.138   6.419  2.8433  0.4539  0.3373
 5614SOL    HW217742   5.532   3.139   6.289 -0.7686  1.8902 -2.6137
 5615SOL     OW17743   6.192   1.871   3.323  0.1640 -0.0691 -0.1199
 5615SOL    HW117744   6.243   1.808   3.381  0.8431 -1.7502 -2.4017
 5615SOL    HW217745   6.094   1.853   3.332  0.2417 -0.1680  0.5965
 5616SOL     OW17746   2.072   1.738   3.524  0.7571 -0.5028 -0.0298
 5616SOL    HW117747   2.050   1.648   3.561  2.0900 -1.1310 -0.6965
 5616SOL    HW217748   2.162   1.766   3.558  0.2987  0.6493  0.2778
 5617SOL     OW17749   1.909   4.944   6.605 -0.4921  0.1690 -0.0332
 5617SOL    HW117750   1.951   5.026   6.566 -1.7579  1.0693  0.4379
 5617SOL    HW217751   1.980   4.875   6.621  0.3671  0.5603 -1.9029
 5618SOL     OW17752   6.721   4.769   4.510  0.3355 -0.2358  0.5252
 5618SOL    HW117753   6.814   4.797   4.532  0.2189 -1.6783  3.2531
 5618SOL    HW217754   6.721   4.717   4.424  1.6388  1.4980 -0.6000
 5619SOL     OW17755   3.169   3.053   3.626 -0.5728 -0.0866 -0.1587
 5619SOL    HW117756   3.251   3.111   3.630 -1.8184  2.1133 -2.7872
 5619SOL    HW217757   3.103   3.083   3.695 -0.0325 -0.3918  0.4913
 5620SOL     OW17758   4.291   2.355   6.212  0.0088 -0.0325 -0.4247
 5620SOL    HW117759   4.199   2.334   6.179  0.2219 -1.9076  0.0591
 5620SOL    HW217760   4.355   2.352   6.136 -0.1415 -0.0656 -0.5511
 5621SOL     OW17761   0.994   3.742   5.227 -0.0178 -0.0370  0.2140
 5621SOL    HW117762   1.023   3.837   5.224 -0.1161 -0.0258 -0.9284
 5621SOL    HW217763   0.935   3.727   5.306 -0.9914  1.1536 -0.2509
 5622SOL     OW17764   3.753   1.031   4.224 -0.1338 -0.0781 -0.0806
 5622SOL    HW117765   3.674   1.067   4.175  1.7658  2.0332 -1.8563
 5622SOL    HW217766   3.731   1.021   4.321 -1.8623  2.8962 -0.0556
 5623SOL     OW17767   5.342   6.183   3.553 -0.2924  0.2968 -0.1313
 5623SOL    HW117768   5.283   6.144   3.624 -0.4617  2.1656  0.8411
 5623SOL    HW217769   5.428   6.212   3.594 -0.7137  2.1706 -0.4629
 5624SOL     OW17770   6.538   5.136   3.875  0.1569  0.9320  0.5794
 5624SOL    HW117771   6.549   5.214   3.813  1.8214  0.5935  0.4187
 5624SOL    HW217772   6.540   5.169   3.970  1.8808  0.9968  0.5378
 5625SOL     OW17773   0.981   5.676   3.798 -0.1340  0.8561 -0.2772
 5625SOL    HW117774   0.921   5.599   3.774  1.0484  0.0637 -0.7576
 5625SOL    HW217775   0.979   5.743   3.724 -0.4306  0.8398 -0.2865
 5626SOL     OW17776   4.263   5.515   4.091 -0.6358  0.6726 -0.1713
 5626SOL    HW117777   4.189   5.506   4.024 -1.6398 -1.2451  1.1192
 5626SOL    HW217778   4.290   5.425   4.123  1.5805  1.3998  0.1915
 5627SOL     OW17779   0.479   4.479   5.232  0.3088  0.2065 -0.0503
 5627SOL    HW117780   0.457   4.566   5.187 -1.0467 -0.0199  0.1107
 5627SOL    HW217781   0.456   4.403   5.171 -0.8964 -0.0856  0.7329
 5628SOL     OW17782   2.901   3.727   0.512 -0.5744  0.5191 -0.1653
 5628SOL    HW117783   2.856   3.664   0.449 -1.2591 -0.2708  1.0632
 5628SOL    HW217784   2.832   3.777   0.564 -0.0576  2.9831 -1.7236
 5629SOL     OW17785   3.319   3.632   0.961 -0.2055  0.0950  0.1576
 5629SOL    HW117786   3.280   3.714   0.919  0.3135  0.1169 -0.2972
 5629SOL    HW217787   3.270   3.611   1.046 -0.4879  0.7445  0.1604
 5630SOL     OW17788   6.872   3.926   6.609  0.3044  0.2200 -0.1471
 5630SOL    HW117789   6.842   4.003   6.552 -1.2061 -0.2213  0.0189
 5630SOL    HW217790   6.799   3.901   6.672 -0.3035 -3.0063 -1.9029
 5631SOL     OW17791   5.578   0.349   1.052  0.2428 -0.2715 -0.4821
 5631SOL    HW117792   5.646   0.367   1.123 -1.2760 -1.3575  1.3448
 5631SOL    HW217793   5.532   0.435   1.027  1.6921  0.3364 -1.1852
 5632SOL     OW17794   5.523   1.486   4.852  0.0179  0.0447  0.3731
 5632SOL    HW117795   5.490   1.567   4.899  0.4498 -0.3763  1.4438
 5632SOL    HW217796   5.614   1.504   4.814 -0.4727  0.4912 -0.6011
 5633SOL     OW17797   0.205   2.899   5.381  0.2985 -0.7479  0.3581
 5633SOL    HW117798   0.132   2.866   5.441 -0.6873 -1.0486 -0.9383
 5633SOL    HW217799   0.201   2.848   5.295  0.6772  0.7089 -0.5434
 5634SOL     OW17800   1.693   5.017   4.977 -0.4659  0.0677  0.8389
 5634SOL    HW117801   1.691   5.077   4.897 -2.2521  0.5875  1.2282
 5634SOL    HW217802   1.772   5.039   5.034  0.5812 -0.0093 -0.5375
 5635SOL     OW17803   3.009   0.252   6.751 -0.0329  0.5132 -0.6397
 5635SOL    HW117804   2.930   0.313   6.744  0.5622  1.2504 -1.0279
 5635SOL    HW217805   2.977   0.158   6.763 -0.9602  0.9005  0.0301
 5636SOL     OW17806   4.927   0.112   5.025 -0.2644 -0.4795 -0.2375
 5636SOL    HW117807   4.902   0.208   5.022  1.0552 -0.1271 -0.6116
 5636SOL    HW217808   4.890   0.065   4.945 -1.0843 -0.3397  0.0517
 5637SOL     OW17809   4.667   5.260   4.581 -0.2233 -0.8084 -0.5527
 5637SOL    HW117810   4.761   5.280   4.551  0.4054  0.9306  2.2671
 5637SOL    HW217811   4.628   5.340   4.625 -2.4930 -1.9988 -0.2519
 5638SOL     OW17812   5.607   5.601   3.957  0.2128  0.0454 -0.1620
 5638SOL    HW117813   5.649   5.520   3.996 -0.2602  0.0506  0.3680
 5638SOL    HW217814   5.511   5.582   3.935 -0.2850  0.8544  1.2298
 5639SOL     OW17815   3.258   2.081   3.358 -0.3520  0.4821 -0.3414
 5639SOL    HW117816   3.312   2.096   3.274  1.6197  1.1709  0.9705
 5639SOL    HW217817   3.163   2.106   3.341  0.1954  1.5904 -2.0974
 5640SOL     OW17818   1.584   5.228   3.937 -0.2778 -0.0728  0.6230
 5640SOL    HW117819   1.509   5.282   3.975 -0.9601  0.1337 -0.9529
 5640SOL    HW217820   1.653   5.290   3.898  0.2373 -0.2901  1.1690
 5641SOL     OW17821   0.623   5.331   6.569  0.8101  0.2149 -0.2565
 5641SOL    HW117822   0.564   5.384   6.508  0.3993 -0.3656 -0.3650
 5641SOL    HW217823   0.599   5.352   6.664  0.9979  0.6083 -0.2915
 5642SOL     OW17824   5.962   4.937   7.014  0.2506 -0.5879 -0.1526
 5642SOL    HW117825   5.947   4.953   6.917  1.7405 -1.7475 -0.6139
 5642SOL    HW217826   5.968   5.025   7.062 -1.0413 -0.0203 -0.9955
 5643SOL     OW17827   4.058   1.875   5.073  0.7437 -1.2341 -0.0276
 5643SOL    HW117828   3.991   1.943   5.104  0.5874 -1.4256  0.0598
 5643SOL    HW217829   4.145   1.920   5.052  0.5521 -0.9649 -0.2563
 5644SOL     OW17830   4.562   6.870   5.033 -0.0355  0.1977  0.2586
 5644SOL    HW117831   4.570   6.962   5.073 -1.0804 -0.3668  1.8713
 5644SOL    HW217832   4.466   6.851   5.013 -0.0100 -1.0328  1.1999
 5645SOL     OW17833   5.867   4.526   0.785 -0.1603 -0.6399 -0.0819
 5645SOL    HW117834   5.899   4.431   0.781  0.0502 -0.6186 -4.8456
 5645SOL    HW217835   5.945   4.588   0.792  0.0253 -0.7922 -0.7297
 5646SOL     OW17836   0.958   5.048   4.260  0.0435 -0.3269 -0.2450
 5646SOL    HW117837   0.894   4.981   4.222 -1.1513  1.5167 -1.7371
 5646SOL    HW217838   0.957   5.130   4.202  1.4859  0.9555  1.4399
 5647SOL     OW17839   0.406   6.169   6.133 -0.4413 -0.2882  0.1660
 5647SOL    HW117840   0.409   6.072   6.157 -0.0512 -0.0002  1.3491
 5647SOL    HW217841   0.400   6.223   6.217 -1.0482  0.7012 -0.5010
 5648SOL     OW17842   0.889   1.444   4.218 -0.4023  0.5090 -0.3875
 5648SOL    HW117843   0.802   1.395   4.227 -0.0239 -0.0575  0.2268
 5648SOL    HW217844   0.959   1.382   4.182 -0.3329  1.0646 -1.2530
 5649SOL     OW17845   1.011   6.488   4.028  0.4903  0.0202 -0.7146
 5649SOL    HW117846   1.016   6.403   4.081  0.0243 -0.2197 -1.0498
 5649SOL    HW217847   1.022   6.468   3.931  4.7617  0.7929 -0.5783
 5650SOL     OW17848   6.234   6.699   1.441  0.2988  0.1260  0.4246
 5650SOL    HW117849   6.208   6.652   1.525 -0.7333  1.3754  0.8217
 5650SOL    HW217850   6.198   6.792   1.441 -1.7353 -0.5182 -2.3934
 5651SOL     OW17851   0.958   2.298   6.926 -0.4501 -0.2251 -0.2455
 5651SOL    HW117852   0.994   2.328   7.015 -0.0200  0.9659 -0.7914
 5651SOL    HW217853   0.887   2.229   6.940  0.8006 -1.3261  0.9448
 5652SOL     OW17854   4.030   4.282   1.383  0.6015  0.1954  0.7722
 5652SOL    HW117855   4.040   4.382   1.390 -1.3803  0.5376 -0.5722
 5652SOL    HW217856   4.021   4.244   1.475 -0.1731  1.4530  1.2405
 5653SOL     OW17857   1.758   0.207   4.303 -0.6303  0.1412 -0.4134
 5653SOL    HW117858   1.719   0.285   4.253 -1.2989  1.1522  1.5750
 5653SOL    HW217859   1.687   0.166   4.360  0.2933 -0.4494  0.3219
 5654SOL     OW17860   2.151   5.712   6.002 -0.1343  0.2095  0.4173
 5654SOL    HW117861   2.182   5.742   5.911 -0.0553  0.0702  0.3985
 5654SOL    HW217862   2.174   5.616   6.015 -0.5556  0.1045  0.4053
 5655SOL     OW17863   0.407   1.816   5.100 -0.6284  0.5274  0.2030
 5655SOL    HW117864   0.375   1.796   5.008 -2.7279 -0.1208  1.0031
 5655SOL    HW217865   0.419   1.915   5.111  0.1014  0.5704 -0.8729
 5656SOL     OW17866   1.970   6.022   0.480  0.0062 -0.3120 -0.1545
 5656SOL    HW117867   1.898   5.999   0.546  0.5533  0.5811  0.7919
 5656SOL    HW217868   2.057   6.031   0.528  0.5755 -0.4533 -1.1417
 5657SOL     OW17869   4.178   6.759   0.599 -0.0763 -0.4230 -0.1482
 5657SOL    HW117870   4.084   6.795   0.599 -0.1777 -0.6721  0.9357
 5657SOL    HW217871   4.225   6.791   0.516 -0.4928  1.3338  0.2475
 5658SOL     OW17872   2.206   1.390   4.868 -0.0406  0.5784  0.3034
 5658SOL    HW117873   2.212   1.295   4.899  0.3755  0.0913 -1.2070
 5658SOL    HW217874   2.294   1.435   4.881 -0.2722  0.8150  1.1350
 5659SOL     OW17875   3.563   2.850   3.344 -0.1619  0.4556 -0.2317
 5659SOL    HW117876   3.514   2.845   3.257 -0.0013  0.1109 -0.3027
 5659SOL    HW217877   3.500   2.832   3.420  0.1642 -1.6383 -0.4092
 5660SOL     OW17878   5.819   6.834   6.314 -0.7554 -0.4778  0.1373
 5660SOL    HW117879   5.734   6.782   6.302 -0.8416 -0.3332  0.1067
 5660SOL    HW217880   5.897   6.776   6.293 -0.8208 -0.7806  0.7242
 5661SOL     OW17881   5.786   6.041   6.536  0.1274  0.1105 -0.2628
 5661SOL    HW117882   5.873   6.089   6.539 -1.3930  3.0346  0.7227
 5661SOL    HW217883   5.769   5.997   6.625  0.5583 -0.4520 -0.4522
 5662SOL     OW17884   2.718   0.243   4.199 -0.1645  0.3164  0.0689
 5662SOL    HW117885   2.768   0.176   4.253 -1.1730  0.4932  1.2710
 5662SOL    HW217886   2.676   0.198   4.121  1.0668 -0.0015 -0.4403
 5663SOL     OW17887   1.217   4.747   1.067  0.2024 -0.0471 -0.1488
 5663SOL    HW117888   1.188   4.766   0.974 -0.6026  0.1840  0.1438
 5663SOL    HW217889   1.170   4.665   1.101 -1.2195  1.1140  0.8138
 5664SOL     OW17890   1.860   5.862   3.736 -0.1163 -0.3463  0.5335
 5664SOL    HW117891   1.921   5.941   3.744 -1.1633  0.4839  0.6364
 5664SOL    HW217892   1.899   5.796   3.672  0.2278  0.8166 -0.4926
 5665SOL     OW17893   1.010   6.734   0.178  0.4919  0.2737 -0.0363
 5665SOL    HW117894   0.994   6.806   0.245  0.1543 -1.5180  1.9094
 5665SOL    HW217895   0.944   6.660   0.193  0.1858 -0.0500 -2.6062
 5666SOL     OW17896   5.169   6.493   3.203 -0.2212  0.2431 -0.0897
 5666SOL    HW117897   5.140   6.433   3.278  0.8009  0.6740  0.6763
 5666SOL    HW217898   5.218   6.572   3.240 -1.4848  1.5560 -1.0837
 5667SOL     OW17899   1.793   3.539   0.774 -0.4618 -0.0621  0.1046
 5667SOL    HW117900   1.790   3.540   0.674  1.4045 -1.8045 -0.0183
 5667SOL    HW217901   1.889   3.539   0.805 -0.9689 -1.2803  1.8407
 5668SOL     OW17902   5.794   2.225   3.863 -0.6299  0.3157 -0.3987
 5668SOL    HW117903   5.884   2.268   3.871 -0.5415 -0.1435  1.4906
 5668SOL    HW217904   5.749   2.224   3.952 -1.2232 -2.1785 -0.6552
 5669SOL     OW17905   1.167   3.576   5.121 -0.1072  0.1214  0.0226
 5669SOL    HW117906   1.230   3.612   5.053 -0.2057 -0.0309 -0.1507
 5669SOL    HW217907   1.104   3.648   5.151 -1.6050 -0.3675 -1.7784
 5670SOL     OW17908   0.686   3.486   5.222 -0.0066 -0.3822  0.4613
 5670SOL    HW117909   0.732   3.525   5.302  0.1437  0.6871 -0.1196
 5670SOL    HW217910   0.754   3.465   5.152 -0.3796  1.2863 -0.4372
 5671SOL     OW17911   6.778   6.007   6.431 -0.1963  0.6276  0.0527
 5671SOL    HW117912   6.694   6.055   6.404  0.3427  2.1801  0.9682
 5671SOL    HW217913   6.783   6.002   6.531  0.3061 -0.3883 -0.0116
 5672SOL     OW17914   5.129   4.765   0.972  0.1091 -0.1543  0.3441
 5672SOL    HW117915   5.214   4.811   0.996 -0.9017  0.9357  2.0222
 5672SOL    HW217916   5.108   4.781   0.876  1.2399  0.4652  0.1854
 5673SOL     OW17917   1.623   6.166   2.151 -0.0947 -0.8324  0.3843
 5673SOL    HW117918   1.677   6.249   2.136 -1.2942 -0.0157  0.4678
 5673SOL    HW217919   1.548   6.185   2.214 -1.9428 -1.2889 -1.5720
 5674SOL     OW17920   0.324   3.180   1.669  0.6626  0.5901  0.1682
 5674SOL    HW117921   0.267   3.259   1.687  1.3659  0.9125  1.0411
 5674SOL    HW217922   0.416   3.210   1.642  0.8419  0.0724  0.1891
 5675SOL     OW17923   4.258   5.195   6.207 -0.1538 -0.2260  0.2023
 5675SOL    HW117924   4.162   5.220   6.216 -0.1444 -0.4797  1.1731
 5675SOL    HW217925   4.275   5.159   6.115 -0.7316  0.8436 -0.3410
 5676SOL     OW17926   2.240   1.247   1.965  0.0950 -0.0227 -0.3052
 5676SOL    HW117927   2.302   1.183   1.921 -0.4542 -0.0132 -1.1132
 5676SOL    HW217928   2.290   1.299   2.035  1.3623  0.9310 -1.8315
 5677SOL     OW17929   0.987   2.201   2.344  0.1964  0.1608 -1.1705
 5677SOL    HW117930   0.984   2.103   2.366 -1.6562 -0.1241 -2.4316
 5677SOL    HW217931   1.074   2.239   2.373  0.8255 -1.7889 -0.3306
 5678SOL     OW17932   3.645   5.778   3.343  0.5964  0.2930 -0.0670
 5678SOL    HW117933   3.615   5.767   3.438 -0.4693 -1.8546 -0.5856
 5678SOL    HW217934   3.708   5.855   3.337 -0.4312  1.4044  2.1048
 5679SOL     OW17935   0.908   1.039   5.698  0.3007 -0.1126 -0.3834
 5679SOL    HW117936   1.000   1.000   5.700 -0.5219 -2.1519  1.4218
 5679SOL    HW217937   0.893   1.083   5.609  3.3359  1.2401 -0.3536
 5680SOL     OW17938   1.692   5.112   1.554  0.7759  0.1680  0.0713
 5680SOL    HW117939   1.744   5.198   1.555 -1.1156  1.3876 -0.3567
 5680SOL    HW217940   1.693   5.071   1.645  4.1996 -1.0253 -0.3649
 5681SOL     OW17941   1.800   2.408   0.069  0.3681 -0.7157  0.0842
 5681SOL    HW117942   1.738   2.427   0.145 -1.2232 -0.6511 -1.1704
 5681SOL    HW217943   1.894   2.409   0.102 -0.2145  0.1729  1.8668
 5682SOL     OW17944   3.031   3.108   5.910  0.3196 -0.1963 -0.3509
 5682SOL    HW117945   3.080   3.073   5.990  1.3315 -0.0499 -0.8900
 5682SOL    HW217946   3.051   3.051   5.831  0.1873  0.2819 -0.7354
 5683SOL     OW17947   5.776   1.536   4.767  0.5354  0.4539  0.3649
 5683SOL    HW117948   5.834   1.467   4.724 -1.6021 -0.3180 -1.4927
 5683SOL    HW217949   5.829   1.587   4.835  2.5138 -2.1755  0.9475
 5684SOL     OW17950   3.998   3.132   4.690 -0.4675  0.1096 -0.7871
 5684SOL    HW117951   3.918   3.144   4.750  2.0961  1.7125  2.6885
 5684SOL    HW217952   4.065   3.074   4.735  1.0783  0.2193 -2.8017
 5685SOL     OW17953   6.270   5.471   2.101 -0.1646 -0.1471  0.7157
 5685SOL    HW117954   6.303   5.429   2.016  1.7404  0.9762  0.8467
 5685SOL    HW217955   6.304   5.418   2.179 -0.1089  0.0395  0.8180
 5686SOL     OW17956   3.874   1.555   1.122 -0.7724  0.8275  0.2050
 5686SOL    HW117957   3.970   1.553   1.095  0.0361 -1.8170  2.7057
 5686SOL    HW217958   3.862   1.620   1.197 -1.3539  2.4216 -1.2277
 5687SOL     OW17959   5.425   3.981   3.129 -0.7525 -0.1611  0.1415
 5687SOL    HW117960   5.339   3.933   3.110  0.1690 -1.3516 -1.3000
 5687SOL    HW217961   5.409   4.054   3.195 -2.9161 -0.1616 -0.3131
 5688SOL     OW17962   4.985   2.658   0.840 -0.4193 -0.9104 -0.4555
 5688SOL    HW117963   4.994   2.727   0.913  0.6208 -1.6302  0.1246
 5688SOL    HW217964   4.984   2.704   0.752 -0.0439 -0.1185 -0.0637
 5689SOL     OW17965   4.970   1.281   0.034  0.3002 -0.2723 -0.0786
 5689SOL    HW117966   4.878   1.254   0.008  0.6274 -0.7474 -0.7742
 5689SOL    HW217967   5.017   1.202   0.074  0.5502 -0.1535 -0.1391
 5690SOL     OW17968   2.092   6.932   0.606 -0.4333 -0.0107  0.8642
 5690SOL    HW117969   2.160   6.993   0.564  0.2435 -1.5373 -0.4056
 5690SOL    HW217970   2.138   6.849   0.638 -1.6435 -0.9269  0.3017
 5691SOL     OW17971   3.415   0.009   2.798 -0.7698  0.2629  0.4071
 5691SOL    HW117972   3.317  -0.004   2.805 -0.8600 -0.0951 -1.1000
 5691SOL    HW217973   3.462  -0.079   2.812 -0.7704  0.1372 -0.3383
 5692SOL     OW17974   6.205   1.965   5.406  0.4795  0.9455 -0.6671
 5692SOL    HW117975   6.114   1.927   5.392  0.5549  0.5586 -0.1295
 5692SOL    HW217976   6.260   1.949   5.324  0.9044 -1.2471 -0.0291
 5693SOL     OW17977   4.724   0.442   1.842  0.7813  0.6887  0.3644
 5693SOL    HW117978   4.688   0.351   1.862  1.9103 -0.0226 -0.6892
 5693SOL    HW217979   4.655   0.511   1.865 -1.1828 -0.5819 -1.3400
 5694SOL     OW17980   1.571   0.312   4.586  0.0741 -0.4951  0.0878
 5694SOL    HW117981   1.649   0.313   4.649  0.3940  0.6370 -0.2910
 5694SOL    HW217982   1.592   0.369   4.507 -1.7457  1.2259  0.7590
 5695SOL     OW17983   1.260   1.835   2.324 -0.3875  0.5433  0.8104
 5695SOL    HW117984   1.165   1.821   2.294 -0.4346  0.7517  0.8592
 5695SOL    HW217985   1.265   1.918   2.380  0.2774  2.1017 -1.4063
 5696SOL     OW17986   1.908   2.338   2.857 -0.1451 -0.0209  0.5720
 5696SOL    HW117987   1.932   2.369   2.765 -1.7541 -0.2244  0.0446
 5696SOL    HW217988   1.967   2.262   2.883 -0.1721 -0.4831 -0.6222
 5697SOL     OW17989   6.530   1.880   2.541  0.3702 -0.3177 -0.1412
 5697SOL    HW117990   6.564   1.858   2.450 -0.1067 -0.5081 -0.2735
 5697SOL    HW217991   6.587   1.836   2.610  1.4774  0.8036 -0.2988
 5698SOL     OW17992   6.913   1.816   3.228 -0.1550  0.5700 -0.1138
 5698SOL    HW117993   6.815   1.828   3.215 -1.0665 -2.6673  2.4006
 5698SOL    HW217994   6.943   1.732   3.182  0.4217 -0.8173  2.5981
 5699SOL     OW17995   5.418   3.224   4.543 -0.2644 -0.3220 -0.0649
 5699SOL    HW117996   5.338   3.236   4.601 -0.1774  0.6860 -0.1312
 5699SOL    HW217997   5.493   3.185   4.596 -0.2897  0.2752  0.4179
 5700SOL     OW17998   0.736   6.452   4.243  1.2225 -0.0882  0.0360
 5700SOL    HW117999   0.671   6.409   4.180 -0.7921  0.5319  1.6082
 5700SOL    HW218000   0.763   6.541   4.207 -1.6380  1.2653  0.9604
 5701SOL     OW18001   1.222   4.350   3.310  0.0917 -0.8986 -0.3269
 5701SOL    HW118002   1.220   4.265   3.362 -0.5385 -1.0646 -0.6142
 5701SOL    HW218003   1.260   4.423   3.367 -0.1335 -1.1879  0.2007
 5702SOL     OW18004   2.318   0.336   5.428  0.1732 -0.2831  0.0486
 5702SOL    HW118005   2.241   0.310   5.370  0.1510  1.0605 -0.5569
 5702SOL    HW218006   2.302   0.303   5.521 -0.8287 -0.5691 -0.2109
 5703SOL     OW18007   4.649   3.000   1.384 -0.3425 -0.2653  0.2888
 5703SOL    HW118008   4.592   2.987   1.466  0.1101  2.4179  1.1196
 5703SOL    HW218009   4.602   3.062   1.321  1.4302  1.7743  0.8669
 5704SOL     OW18010   2.431   0.634   2.093  0.0957 -0.1488  0.2443
 5704SOL    HW118011   2.360   0.611   2.026  0.6607 -2.9629  0.4875
 5704SOL    HW218012   2.513   0.667   2.045 -0.3832  0.3806 -0.2251
 5705SOL     OW18013   5.400   1.275   4.653 -0.1884  0.5339 -0.0701
 5705SOL    HW118014   5.328   1.305   4.591 -0.5822 -0.6697 -0.2052
 5705SOL    HW218015   5.443   1.356   4.695 -1.0452  1.2911 -0.6135
 5706SOL     OW18016   2.522   0.172   6.158  0.7580  0.4406  0.3822
 5706SOL    HW118017   2.439   0.198   6.208  1.1188  1.1376  0.6252
 5706SOL    HW218018   2.502   0.093   6.100  0.3522 -0.4379  1.6702
 5707SOL     OW18019   6.959   5.891   5.613  0.2844  0.4128 -0.0220
 5707SOL    HW118020   6.951   5.946   5.696  1.8587 -0.5922  0.8308
 5707SOL    HW218021   7.018   5.937   5.548 -1.9923  1.8532 -1.2268
 5708SOL     OW18022   5.450   6.383   3.274  0.1217  0.3042 -0.2866
 5708SOL    HW118023   5.473   6.430   3.189 -3.3508 -0.6146 -1.9006
 5708SOL    HW218024   5.352   6.392   3.292  0.0028 -2.9201  1.4501
 5709SOL     OW18025   6.414   0.420   1.564  0.0335 -0.4737  0.0434
 5709SOL    HW118026   6.339   0.476   1.529 -1.5808 -2.1211  0.7604
 5709SOL    HW218027   6.450   0.461   1.648  0.3000  0.5781 -0.5624
 5710SOL     OW18028   2.755   3.017   6.177  0.2036 -0.6822  0.2765
 5710SOL    HW118029   2.748   3.084   6.251 -3.1242 -1.5588  0.9238
 5710SOL    HW218030   2.795   3.061   6.096 -0.0471  1.5106  1.2590
 5711SOL     OW18031   6.801   5.625   2.442  0.5033 -0.2330 -0.5584
 5711SOL    HW118032   6.750   5.653   2.361  0.9476 -2.3724 -1.6397
 5711SOL    HW218033   6.738   5.597   2.514  0.1308  0.0617 -0.7686
 5712SOL     OW18034   1.049   5.773   5.299  0.0821 -0.4159  0.6354
 5712SOL    HW118035   1.033   5.676   5.284  2.2649 -0.6080 -0.9638
 5712SOL    HW218036   0.989   5.826   5.239  0.0070 -0.8399  0.3330
 5713SOL     OW18037   6.989   3.035   1.141 -0.3602 -0.5267 -0.5798
 5713SOL    HW118038   6.904   3.018   1.092 -0.0080  0.3746 -1.5240
 5713SOL    HW218039   7.042   2.950   1.146 -2.1065 -1.5859  1.6742
 5714SOL     OW18040   1.746   5.766   6.729 -0.0242 -0.1397  0.0829
 5714SOL    HW118041   1.817   5.755   6.660  0.6085  0.4146  0.6284
 5714SOL    HW218042   1.673   5.699   6.714  0.9911 -1.2445 -0.0029
 5715SOL     OW18043   1.395   5.673   3.092  0.0488 -0.6955  0.2356
 5715SOL    HW118044   1.460   5.625   3.150  1.1032  0.6274  0.2080
 5715SOL    HW218045   1.306   5.628   3.096  0.8502 -2.3102  0.5887
 5716SOL     OW18046   6.406   4.374   5.226  0.4698 -0.3862  0.0095
 5716SOL    HW118047   6.437   4.292   5.275 -0.5447  0.5287  2.3445
 5716SOL    HW218048   6.470   4.449   5.243  0.4646 -0.2241 -0.6639
 5717SOL     OW18049   2.032   6.168   6.308 -0.0385  0.0302 -0.2096
 5717SOL    HW118050   2.075   6.236   6.367 -1.2494  1.0149 -0.4155
 5717SOL    HW218051   1.938   6.151   6.339 -1.0929  1.3655 -2.4017
 5718SOL     OW18052   1.861   6.632   6.861 -0.5394 -0.3584  0.8642
 5718SOL    HW118053   1.777   6.594   6.821 -0.6701  0.0323  0.7663
 5718SOL    HW218054   1.938   6.574   6.836 -0.8982 -1.2180  1.6866
 5719SOL     OW18055   2.976   0.833   6.716  0.4405  0.3673  0.0394
 5719SOL    HW118056   2.963   0.743   6.757  0.3598  0.2917 -0.1558
 5719SOL    HW218057   2.973   0.826   6.617 -0.6313  0.7517  0.0386
 5720SOL     OW18058   6.906   5.360   4.541  0.3684  0.0929  0.6261
 5720SOL    HW118059   6.891   5.288   4.608  0.6305 -0.2177  0.3509
 5720SOL    HW218060   6.819   5.388   4.501  0.4841 -1.9141 -1.1893
 5721SOL     OW18061   2.233   1.682   0.705  0.6937 -0.7313  0.3812
 5721SOL    HW118062   2.292   1.731   0.769 -0.2560  0.8849  0.0658
 5721SOL    HW218063   2.249   1.583   0.714  2.1363 -0.4248  1.5445
 5722SOL     OW18064   6.324   1.239   5.251 -0.0840 -0.1552  0.3598
 5722SOL    HW118065   6.259   1.178   5.206  0.5857 -2.1407  1.9314
 5722SOL    HW218066   6.409   1.242   5.198 -0.6156  0.5882 -0.4730
 5723SOL     OW18067   5.206   5.997   0.024  0.7259 -0.4187 -0.4061
 5723SOL    HW118068   5.227   5.989   0.122  1.0432 -3.3647 -0.6346
 5723SOL    HW218069   5.274   6.057  -0.019  1.4998 -0.2907  0.9095
 5724SOL     OW18070   3.890   2.196   4.293 -0.1125  0.1161 -0.2064
 5724SOL    HW118071   3.808   2.186   4.237  0.3929 -1.4350 -0.7190
 5724SOL    HW218072   3.865   2.193   4.390 -0.7345  0.5145 -0.3481
 5725SOL     OW18073   5.157   5.413   3.220  0.1948  0.0085 -0.1468
 5725SOL    HW118074   5.226   5.356   3.266 -0.0470 -0.9163 -0.8970
 5725SOL    HW218075   5.080   5.356   3.191  0.3971  0.5174 -1.8094
 5726SOL     OW18076   5.499   3.939   3.635 -0.0798 -0.3752 -0.4159
 5726SOL    HW118077   5.539   3.859   3.679  0.0573 -0.1635 -0.1577
 5726SOL    HW218078   5.532   3.945   3.540  0.2787 -0.3608 -0.2928
 5727SOL     OW18079   0.665   3.182   2.323  0.0472  0.3910 -0.9257
 5727SOL    HW118080   0.655   3.082   2.324  1.1385  0.2389  1.2849
 5727SOL    HW218081   0.702   3.211   2.235  1.5693 -1.4071 -0.9486
 5728SOL     OW18082   3.708   2.507   5.651 -0.5863  0.5976 -0.1951
 5728SOL    HW118083   3.640   2.581   5.642 -0.8164  0.6153  1.4675
 5728SOL    HW218084   3.667   2.421   5.622 -1.3993  0.5821  0.9401
 5729SOL     OW18085   1.201   1.827   0.161  0.3251 -0.1183  0.0728
 5729SOL    HW118086   1.200   1.828   0.261  0.0170 -1.5595  0.1010
 5729SOL    HW218087   1.118   1.870   0.126 -0.4180 -1.1617  0.4886
 5730SOL     OW18088   5.741   6.045   5.162  0.0953  0.9756 -0.1038
 5730SOL    HW118089   5.775   6.065   5.069  1.3432 -1.0003 -0.1227
 5730SOL    HW218090   5.668   5.978   5.157  1.5887 -0.7815  0.4008
 5731SOL     OW18091   1.382   5.389   4.043  0.0291  0.2566  0.3903
 5731SOL    HW118092   1.312   5.406   3.973  0.4908 -0.6846 -0.3186
 5731SOL    HW218093   1.339   5.388   4.133 -0.5833  1.4460  0.1308
 5732SOL     OW18094   5.804   5.131   5.715 -0.8942  0.0565 -0.1961
 5732SOL    HW118095   5.832   5.184   5.795  2.4901 -0.0729 -1.1406
 5732SOL    HW218096   5.710   5.156   5.690 -1.6368  0.9770  3.0148
 5733SOL     OW18097   3.039   1.698   5.093  0.2232 -0.8745  0.0203
 5733SOL    HW118098   3.100   1.763   5.048  1.1086 -0.4027  1.8005
 5733SOL    HW218099   2.986   1.745   5.164 -1.3555 -1.5290 -0.6656
 5734SOL     OW18100   6.264   5.715   5.429  0.5604  0.6268 -0.7416
 5734SOL    HW118101   6.271   5.801   5.378  1.2091  0.6632 -0.6003
 5734SOL    HW218102   6.339   5.709   5.495 -0.2607  0.5769  0.2235
 5735SOL     OW18103   4.240   0.906   2.598  0.6056 -0.2731 -0.2274
 5735SOL    HW118104   4.208   0.812   2.601  0.1751 -0.1000  0.9513
 5735SOL    HW218105   4.335   0.908   2.567  0.4917 -1.0447 -0.6551
 5736SOL     OW18106   4.126   5.506   1.774  0.0762 -0.5026 -0.4304
 5736SOL    HW118107   4.120   5.591   1.826  0.5032 -0.7070 -0.0314
 5736SOL    HW218108   4.139   5.526   1.677  3.2656 -0.0290 -0.0350
 5737SOL     OW18109   6.085   5.996   1.329  0.5710  0.1149 -0.0538
 5737SOL    HW118110   6.107   6.023   1.423 -1.1971  0.9466  0.1780
 5737SOL    HW218111   6.002   5.941   1.329  0.0720  0.8200 -1.1792
 5738SOL     OW18112   4.907   1.279   5.501 -0.1718  0.3672  0.3482
 5738SOL    HW118113   4.939   1.340   5.428  2.1832 -0.1111  0.9217
 5738SOL    HW218114   4.874   1.334   5.578 -0.4979  0.8822 -0.1482
 5739SOL     OW18115   0.257   6.569   5.468 -0.3572  0.3527 -1.0736
 5739SOL    HW118116   0.326   6.640   5.453 -0.7341  1.1929  0.8063
 5739SOL    HW218117   0.296   6.496   5.525 -1.1242  1.1307  0.5259
 5740SOL     OW18118   4.931   2.504   1.945 -0.3112  0.2519  0.1091
 5740SOL    HW118119   4.898   2.598   1.955  0.7271  0.6296  0.1198
 5740SOL    HW218120   5.012   2.503   1.886 -0.0115 -0.5727  0.5179
 5741SOL     OW18121   0.349   3.167   3.298  0.9863 -0.2299  0.5437
 5741SOL    HW118122   0.301   3.101   3.356  2.0639 -1.7797 -0.2592
 5741SOL    HW218123   0.321   3.259   3.323 -1.2157 -1.0030  1.1320
 5742SOL     OW18124   2.938   1.458   3.259  0.0566  0.1927  0.0146
 5742SOL    HW118125   3.036   1.452   3.239  0.5433  2.1172  1.4521
 5742SOL    HW218126   2.885   1.441   3.176  1.5579 -1.3792 -0.6828
 5743SOL     OW18127   3.265   5.124   5.763 -0.5846  0.3238 -0.3419
 5743SOL    HW118128   3.274   5.138   5.862 -0.7097  1.0805 -0.4293
 5743SOL    HW218129   3.169   5.105   5.741 -0.0086 -4.6044  0.2163
 5744SOL     OW18130   6.335   2.487   2.989 -0.3144  0.6043 -0.1446
 5744SOL    HW118131   6.432   2.505   3.009 -0.3182 -0.1697  0.6370
 5744SOL    HW218132   6.329   2.438   2.902  0.0757 -0.1179  0.2237
 5745SOL     OW18133   1.864   1.605   1.557  0.3297 -0.3736  0.5035
 5745SOL    HW118134   1.937   1.557   1.511  0.0855 -0.7058  0.4601
 5745SOL    HW218135   1.877   1.704   1.548  0.3891 -0.4358 -0.1014
 5746SOL     OW18136   5.564   1.069   1.321  0.7352  0.1739 -0.1835
 5746SOL    HW118137   5.654   1.030   1.343  1.0344  0.8626 -0.1517
 5746SOL    HW218138   5.537   1.039   1.230  0.9539 -0.1149 -0.1578
 5747SOL     OW18139   2.312   4.816   1.386 -0.2315  0.3699 -0.4991
 5747SOL    HW118140   2.368   4.835   1.468 -0.2060  0.7349 -0.5983
 5747SOL    HW218141   2.215   4.813   1.412 -0.1133 -1.2851 -0.1410
 5748SOL     OW18142   2.678   0.648   0.474 -0.5844  0.1170  0.2091
 5748SOL    HW118143   2.708   0.744   0.473 -1.6377  0.4512 -0.5686
 5748SOL    HW218144   2.697   0.609   0.564 -0.6469  1.2261  0.7271
 5749SOL     OW18145   2.053   4.603   5.287  0.9691  0.0750  0.0876
 5749SOL    HW118146   2.033   4.616   5.190  0.0326 -0.7369  0.1554
 5749SOL    HW218147   1.985   4.542   5.328  1.5175  0.1654  1.1931
 5750SOL     OW18148   3.985   4.371   6.032 -0.4808 -0.4688  0.2450
 5750SOL    HW118149   4.014   4.403   6.122  0.8307  0.1646 -0.3750
 5750SOL    HW218150   4.047   4.299   6.001 -0.9930 -0.7643 -0.1142
 5751SOL     OW18151   0.977   2.357   4.068  0.6839 -0.1111  0.4358
 5751SOL    HW118152   0.913   2.419   4.112 -2.2659 -0.8392 -2.4548
 5751SOL    HW218153   1.013   2.400   3.985 -1.8041 -2.1615 -1.9048
 5752SOL     OW18154   4.427   0.565   0.627  0.4669  0.3250  0.0571
 5752SOL    HW118155   4.330   0.553   0.651  0.3776 -1.1407 -0.8762
 5752SOL    HW218156   4.478   0.591   0.709 -0.4709 -0.4844  0.9403
 5753SOL     OW18157   2.983   3.581   4.499 -0.1061  0.0457  0.1279
 5753SOL    HW118158   2.996   3.584   4.400  0.0708  1.6186  0.1602
 5753SOL    HW218159   2.964   3.488   4.528 -1.0636 -0.3085 -1.4999
 5754SOL     OW18160   3.858   6.412   2.059 -0.4767 -0.3418  0.0556
 5754SOL    HW118161   3.758   6.404   2.054 -0.7988  2.1067  0.9536
 5754SOL    HW218162   3.897   6.402   1.968 -1.5933 -0.8183 -0.3869
 5755SOL     OW18163   1.451   1.889   4.913  0.0606  0.2933 -0.0123
 5755SOL    HW118164   1.359   1.928   4.911 -0.4442 -0.8752 -0.5242
 5755SOL    HW218165   1.466   1.846   5.002  1.6408  3.8627  1.6758
 5756SOL     OW18166   0.585   5.491   1.891  0.1508  0.0743  0.5775
 5756SOL    HW118167   0.504   5.537   1.855 -0.6850  0.4652  2.7873
 5756SOL    HW218168   0.641   5.556   1.942  0.9759 -0.5542  0.5069
 5757SOL     OW18169   0.620   3.096   3.397 -0.1375 -0.1192  0.3061
 5757SOL    HW118170   0.548   3.116   3.331  1.2850 -0.2384 -1.3209
 5757SOL    HW218171   0.614   3.000   3.424 -0.0931 -0.3275 -0.4242
 5758SOL     OW18172   1.828   1.257   2.316 -0.1583  0.1203  0.2292
 5758SOL    HW118173   1.751   1.204   2.353  1.5258 -0.9582  2.4356
 5758SOL    HW218174   1.799   1.351   2.300 -2.3056 -0.6014 -0.4280
 5759SOL     OW18175   6.198   3.013   6.787  0.3087 -0.0025 -0.3828
 5759SOL    HW118176   6.243   3.019   6.877 -0.8596 -0.9709  0.2942
 5759SOL    HW218177   6.252   3.064   6.720  1.5312  0.2462  0.7353
 5760SOL     OW18178   6.364   3.715   0.551 -0.1794 -0.3576  0.1376
 5760SOL    HW118179   6.457   3.750   0.540  0.2849 -1.4132  0.5595
 5760SOL    HW218180   6.328   3.684   0.463  0.1518 -0.6511  0.1092
 5761SOL     OW18181   4.264   5.143   5.934 -0.3790  0.2859 -0.1930
 5761SOL    HW118182   4.278   5.079   5.858 -1.2737  1.9647 -1.8449
 5761SOL    HW218183   4.167   5.163   5.943 -0.1336  1.2550  0.4437
 5762SOL     OW18184   5.285   4.509   0.911  0.0449  0.0445  0.3755
 5762SOL    HW118185   5.215   4.578   0.894 -0.6722 -0.5549  0.8407
 5762SOL    HW218186   5.248   4.418   0.892  0.8128 -0.2549  0.2713
 5763SOL     OW18187   6.334   1.829   0.595 -0.2619  0.2085 -0.1414
 5763SOL    HW118188   6.409   1.799   0.537  1.5123 -0.2328  2.2237
 5763SOL    HW218189   6.363   1.910   0.647 -1.3956  0.0125  0.8386
 5764SOL     OW18190   3.187   5.762   5.135 -0.0406  0.5329  0.3260
 5764SOL    HW118191   3.223   5.794   5.223 -2.4964  3.2937  0.4829
 5764SOL    HW218192   3.207   5.829   5.064  1.6367 -1.5234 -1.2418
 5765SOL     OW18193   6.743   2.904   6.989 -0.2943  0.0914 -0.1617
 5765SOL    HW118194   6.733   2.893   6.890  0.7154 -0.3849 -0.2189
 5765SOL    HW218195   6.837   2.928   7.011 -0.8152  1.5499  0.5873
 5766SOL     OW18196   3.019   0.748   5.186 -0.0429 -0.3381 -0.0880
 5766SOL    HW118197   3.085   0.695   5.132  1.0693  1.0043 -0.0812
 5766SOL    HW218198   2.999   0.700   5.271  0.1436 -1.2325 -0.5361
 5767SOL     OW18199   2.263   1.488   1.073 -0.7873  0.5406 -0.1757
 5767SOL    HW118200   2.205   1.542   1.133 -2.0794 -0.9138 -0.0556
 5767SOL    HW218201   2.223   1.397   1.059  0.6284  0.0455 -1.4248
 5768SOL     OW18202   6.107   5.550   5.736 -0.0710 -0.2487 -0.3023
 5768SOL    HW118203   6.147   5.565   5.645 -0.1263  1.4325 -0.0854
 5768SOL    HW218204   6.018   5.504   5.726  0.0157 -0.2562 -1.0922
 5769SOL     OW18205   3.895   6.191   4.905  0.3774  0.1319  0.0017
 5769SOL    HW118206   3.877   6.278   4.860  0.4029 -0.4109 -1.0791
 5769SOL    HW218207   3.808   6.146   4.925  0.3904 -0.5134 -1.2992
 5770SOL     OW18208   0.385   0.989   0.318 -0.1895  0.1120  0.2948
 5770SOL    HW118209   0.307   0.939   0.357 -0.5418  0.0346 -0.4975
 5770SOL    HW218210   0.429   0.934   0.247  0.5872  0.1654  0.7218
 5771SOL     OW18211   0.068   1.583   3.961  0.4953  0.1251  0.4504
 5771SOL    HW118212   0.115   1.619   4.041  2.3622  0.7364 -0.8687
 5771SOL    HW218213   0.005   1.652   3.925  1.4965  0.8084 -0.0338
 5772SOL     OW18214   5.147   6.984   2.229  0.0354  0.2449  0.0749
 5772SOL    HW118215   5.144   6.912   2.159  0.7523  0.9814 -0.7406
 5772SOL    HW218216   5.233   6.977   2.280 -0.5116 -0.3245  0.9284
 5773SOL     OW18217   4.975   2.960   5.639  0.3272  0.0249  0.1882
 5773SOL    HW118218   4.999   2.868   5.611  1.7866  0.2694  0.5649
 5773SOL    HW218219   4.966   3.018   5.558 -1.9413 -0.7093 -0.1549
 5774SOL     OW18220   4.329   0.685   5.020 -0.2101 -0.0951 -0.1669
 5774SOL    HW118221   4.375   0.707   4.934 -1.7324  2.9912 -0.3577
 5774SOL    HW218222   4.238   0.649   5.002  0.1635 -1.2434  0.1813
 5775SOL     OW18223   6.979   5.705   3.725  0.3793 -0.3214  0.6937
 5775SOL    HW118224   6.945   5.740   3.812  0.5472  1.1399  0.2081
 5775SOL    HW218225   7.077   5.726   3.717  0.2009  0.2242 -0.1504
 5776SOL     OW18226   5.691   6.678   2.337  0.6954 -0.1420  0.5870
 5776SOL    HW118227   5.747   6.631   2.405  1.1386  1.5474  1.4430
 5776SOL    HW218228   5.742   6.756   2.300  0.2773 -0.7295 -1.3538
 5777SOL     OW18229   1.065   0.312   4.462 -0.4576 -0.2985  0.8570
 5777SOL    HW118230   1.116   0.277   4.383  1.1881 -0.9890  2.1535
 5777SOL    HW218231   1.096   0.405   4.482 -0.4554 -0.3416  1.0490
 5778SOL     OW18232   1.538   6.949   6.406 -0.0707 -0.2071  0.5688
 5778SOL    HW118233   1.526   6.881   6.479  0.3721  0.9795  1.7948
 5778SOL    HW218234   1.636   6.963   6.390 -0.1646 -0.5845 -0.4043
 5779SOL     OW18235   5.706   1.105   6.195 -0.1629 -0.3528 -0.1305
 5779SOL    HW118236   5.624   1.161   6.207 -0.2302 -0.7761  1.5981
 5779SOL    HW218237   5.720   1.087   6.098  0.0846  2.9464 -0.8102
 5780SOL     OW18238   0.079   0.410   3.676 -0.3820  0.2049 -0.9964
 5780SOL    HW118239  -0.019   0.398   3.663 -0.2043 -0.3265 -2.0060
 5780SOL    HW218240   0.096   0.459   3.761 -1.4073 -2.2051  0.7107
 5781SOL     OW18241   0.884   4.222   6.108  0.6049 -0.0435 -0.0096
 5781SOL    HW118242   0.937   4.160   6.166  2.7966 -0.2633 -2.1128
 5781SOL    HW218243   0.927   4.228   6.018 -0.1011  3.7692 -0.2285
 5782SOL     OW18244   2.989   3.662   0.144  0.3828  0.4858  0.4148
 5782SOL    HW118245   3.052   3.585   0.137 -1.1559 -0.7026 -1.8807
 5782SOL    HW218246   2.911   3.637   0.202 -0.8381 -0.3585 -1.4620
 5783SOL     OW18247   0.112   6.953   1.236 -0.2085 -0.5162  0.0024
 5783SOL    HW118248   0.059   6.992   1.311 -0.0325 -0.2797  0.0039
 5783SOL    HW218249   0.204   6.992   1.236  0.7641 -2.5940  1.4569
 5784SOL     OW18250   5.887   5.665   4.486 -0.0894  0.0477 -0.4299
 5784SOL    HW118251   5.972   5.713   4.464 -1.3791  1.7802 -1.9797
 5784SOL    HW218252   5.852   5.621   4.404  0.8682 -3.4285  0.8780
 5785SOL     OW18253   3.921   2.189   6.869  0.2966  0.2879  0.0554
 5785SOL    HW118254   3.953   2.248   6.795  1.6614 -1.0086 -0.4283
 5785SOL    HW218255   3.999   2.150   6.917 -0.5113 -2.1150 -0.4639
 5786SOL     OW18256   2.132   3.931   0.987 -0.0960  0.5597 -0.7090
 5786SOL    HW118257   2.195   3.853   0.983  0.5120  1.0919 -2.0806
 5786SOL    HW218258   2.130   3.977   0.899 -2.5259  0.4998 -0.7542
 5787SOL     OW18259   1.519   3.009   5.814 -0.3585 -0.0761 -0.4306
 5787SOL    HW118260   1.456   3.063   5.758 -0.5405 -0.9728 -1.1184
 5787SOL    HW218261   1.604   2.995   5.763 -0.2159 -0.2189 -0.1526
 5788SOL     OW18262   4.131   1.218   1.595 -0.4516  0.4701  0.1318
 5788SOL    HW118263   4.076   1.269   1.529  0.7959  0.4555 -0.9800
 5788SOL    HW218264   4.227   1.246   1.586  0.1661 -1.5011  0.0168
 5789SOL     OW18265   3.925   6.804   7.000 -0.1375  0.4578 -0.7746
 5789SOL    HW118266   3.881   6.718   7.025 -1.6630  0.8626 -1.9150
 5789SOL    HW218267   3.864   6.880   7.023  0.5047  1.1240 -1.2416
 5790SOL     OW18268   2.002   4.361   5.111  0.0440 -0.2037 -0.3615
 5790SOL    HW118269   1.969   4.380   5.204 -0.3724 -1.1449 -0.3087
 5790SOL    HW218270   2.084   4.305   5.117 -0.3383 -0.7848 -0.5798
 5791SOL     OW18271   4.111   1.060   2.086 -0.1233  0.1633  0.1073
 5791SOL    HW118272   4.130   1.017   1.998 -0.1320  0.7322 -0.1779
 5791SOL    HW218273   4.195   1.104   2.120  0.0517 -0.6135  0.7005
 5792SOL     OW18274   5.340   4.459   3.134  0.1794 -0.7261  0.2639
 5792SOL    HW118275   5.440   4.449   3.125  0.5351  1.3358  1.3823
 5792SOL    HW218276   5.317   4.556   3.137 -1.9182 -1.1797 -0.2423
 5793SOL     OW18277   6.872   0.674   3.731 -0.4639 -0.3382 -0.4829
 5793SOL    HW118278   6.889   0.743   3.661  0.6055  0.3320  0.3908
 5793SOL    HW218279   6.953   0.665   3.790 -1.3414 -0.8297  0.7051
 5794SOL     OW18280   1.969   0.585   0.520 -0.3888 -0.2313  0.1092
 5794SOL    HW118281   1.913   0.525   0.576  0.2021  0.1280  1.1142
 5794SOL    HW218282   1.989   0.670   0.570 -2.5297  1.5708 -1.8340
 5795SOL     OW18283   5.752   0.588   6.507  0.1329 -0.1767 -0.7254
 5795SOL    HW118284   5.820   0.647   6.553 -1.2544  1.3624 -0.5655
 5795SOL    HW218285   5.694   0.545   6.576  1.1796 -1.8490 -0.8392
 5796SOL     OW18286   2.009   1.354   0.364 -0.3061 -0.1866  0.0734
 5796SOL    HW118287   1.912   1.360   0.341 -0.4798  0.9813  0.9760
 5796SOL    HW218288   2.033   1.259   0.382 -0.4210 -1.0223 -3.5405
 5797SOL     OW18289   5.191   2.135   5.717 -0.5527 -0.5451  0.3873
 5797SOL    HW118290   5.178   2.232   5.738 -0.0822 -0.5618  0.7898
 5797SOL    HW218291   5.106   2.085   5.738 -0.9948 -0.1390 -0.3921
 5798SOL     OW18292   1.657   4.033   5.734  0.2382 -0.5419  0.2070
 5798SOL    HW118293   1.750   3.999   5.745 -0.1532 -2.0190 -0.7012
 5798SOL    HW218294   1.593   3.961   5.762 -0.6315 -0.4909 -1.5448
 5799SOL     OW18295   0.114   2.448   3.292 -0.0701  0.5562 -0.4076
 5799SOL    HW118296   0.077   2.484   3.206 -0.1043 -0.9594 -1.0632
 5799SOL    HW218297   0.145   2.354   3.278 -0.5601  0.0923  1.3839
 5800SOL     OW18298   4.045   6.147   2.664 -0.6346  0.0765  0.4938
 5800SOL    HW118299   4.083   6.235   2.692 -2.0200  0.9455 -0.2458
 5800SOL    HW218300   4.085   6.074   2.720  0.8076  1.1130  0.8764
 5801SOL     OW18301   2.004   2.481   2.592  0.5282 -0.3606 -0.3271
 5801SOL    HW118302   1.983   2.531   2.676 -1.2904 -0.8911 -0.4278
 5801SOL    HW218303   2.024   2.546   2.519  0.2714  0.1587  0.0577
 5802SOL     OW18304   2.856   5.358   1.026  0.4554 -0.5494 -0.3463
 5802SOL    HW118305   2.828   5.335   0.933  0.4616 -0.4904 -0.3630
 5802SOL    HW218306   2.934   5.421   1.023 -1.2308  1.6658 -0.3637
 5803SOL     OW18307   3.518   5.192   2.256 -0.0932 -0.0666 -0.4057
 5803SOL    HW118308   3.474   5.242   2.330 -2.2445 -0.3391 -1.4161
 5803SOL    HW218309   3.520   5.094   2.277  1.7821  0.1172  0.4414
 5804SOL     OW18310   6.524   4.385   4.113  0.1509  0.2361 -0.2834
 5804SOL    HW118311   6.536   4.470   4.061 -0.2295  0.5896  0.1881
 5804SOL    HW218312   6.446   4.334   4.076  1.6592 -0.9739 -1.9318
 5805SOL     OW18313   2.045   3.311   5.449 -0.2152 -0.0520  0.0348
 5805SOL    HW118314   2.031   3.212   5.454  1.2579 -0.3243 -0.6139
 5805SOL    HW218315   2.118   3.337   5.512 -1.4964  0.8600  1.2073
 5806SOL     OW18316   4.502   6.287   6.693  0.5363  0.2980 -0.4047
 5806SOL    HW118317   4.570   6.232   6.645 -0.4372 -1.6040  0.3129
 5806SOL    HW218318   4.548   6.341   6.764  1.3577 -0.6993 -0.1517
 5807SOL     OW18319   1.570   3.342   3.054 -0.5951 -0.4733 -0.1377
 5807SOL    HW118320   1.587   3.293   3.140 -0.4331  0.1910  0.2166
 5807SOL    HW218321   1.592   3.439   3.067 -1.0826 -0.2771 -0.7790
 5808SOL     OW18322   4.738   6.877   6.219 -0.3995 -0.5089  0.0755
 5808SOL    HW118323   4.725   6.963   6.169 -0.7312  0.1744  1.2823
 5808SOL    HW218324   4.817   6.886   6.279 -0.2589 -1.1596 -0.0099
 5809SOL     OW18325   6.364   3.572   4.826 -0.4400  0.2156 -0.0820
 5809SOL    HW118326   6.392   3.638   4.756  2.4217  0.1244  0.8720
 5809SOL    HW218327   6.373   3.613   4.917 -2.4086 -0.2596  0.3788
 5810SOL     OW18328   3.496   1.765   3.442  0.6350  0.0573  0.1135
 5810SOL    HW118329   3.582   1.730   3.479  0.3268 -1.7959 -0.8670
 5810SOL    HW218330   3.424   1.697   3.454  0.1169  0.1107 -2.2330
 5811SOL     OW18331   2.170   6.555   4.198 -0.2509  0.5692 -0.0514
 5811SOL    HW118332   2.263   6.578   4.170 -0.6059  2.3551  0.1701
 5811SOL    HW218333   2.105   6.621   4.160 -1.3245 -0.0732  0.5972
 5812SOL     OW18334   0.404   1.505   4.634 -0.0836 -0.1711 -0.2265
 5812SOL    HW118335   0.429   1.471   4.543 -0.2200 -1.5978  0.2420
 5812SOL    HW218336   0.455   1.454   4.703 -0.8814  0.0676  0.5538
 5813SOL     OW18337   1.344   2.320   2.466  0.1741  0.3034  0.3695
 5813SOL    HW118338   1.285   2.397   2.442  1.6982  1.5440  0.4190
 5813SOL    HW218339   1.436   2.336   2.429  0.8236 -0.9476  1.3677
 5814SOL     OW18340   4.358   3.537   0.434 -0.1569  0.3069  0.0494
 5814SOL    HW118341   4.414   3.576   0.507 -0.9465 -1.3760  1.6162
 5814SOL    HW218342   4.261   3.539   0.461 -0.4820 -0.2129 -1.0140
 5815SOL     OW18343   3.754   1.027   3.184  0.1213  0.2285  0.1304
 5815SOL    HW118344   3.778   1.092   3.112 -1.2256 -0.0764 -0.6348
 5815SOL    HW218345   3.833   1.010   3.242  1.7485 -0.7049 -2.2187
 5816SOL     OW18346   4.233   5.331   0.475 -0.2987 -0.5079 -0.2484
 5816SOL    HW118347   4.305   5.349   0.408  0.1349 -0.2632  0.2749
 5816SOL    HW218348   4.242   5.238   0.510 -0.0385 -0.3764  0.0447
 5817SOL     OW18349   0.471   3.519   6.713 -0.1753 -0.3664 -0.0276
 5817SOL    HW118350   0.497   3.435   6.759 -0.9809 -1.2333 -1.0938
 5817SOL    HW218351   0.397   3.563   6.764 -1.1020 -1.3473 -0.4837
 5818SOL     OW18352   6.250   2.238   5.292  0.0041  0.2338  0.0136
 5818SOL    HW118353   6.199   2.168   5.342 -0.3330  1.4674  1.4959
 5818SOL    HW218354   6.249   2.217   5.195 -2.4539 -0.3677  0.0881
 5819SOL     OW18355   3.302   5.874   1.446  0.2611  0.5770 -0.3767
 5819SOL    HW118356   3.287   5.783   1.484  0.8736  0.9864  0.9230
 5819SOL    HW218357   3.374   5.870   1.377  1.2278  0.2669  0.6197
 5820SOL     OW18358   5.254   4.963   3.549 -0.5295  0.2623  0.1753
 5820SOL    HW118359   5.235   5.022   3.470 -0.0586  0.7171  0.3955
 5820SOL    HW218360   5.187   4.981   3.620  0.2518  1.3441  0.6706
 5821SOL     OW18361   0.320   0.096   3.036 -0.1922  0.0838  0.1377
 5821SOL    HW118362   0.237   0.081   2.983 -0.1559 -1.5345  0.4997
 5821SOL    HW218363   0.328   0.027   3.107  2.0321 -0.5084 -0.6015
 5822SOL     OW18364   1.983   2.600   1.069  0.3195 -0.0153  0.2024
 5822SOL    HW118365   1.921   2.608   1.147  0.1896 -1.8762  0.3363
 5822SOL    HW218366   2.064   2.547   1.097  0.2178 -0.8055 -0.9274
 5823SOL     OW18367   1.806   0.568   4.843 -0.1311  0.0675  0.1540
 5823SOL    HW118368   1.902   0.583   4.820 -0.4772  0.4540 -1.1012
 5823SOL    HW218369   1.748   0.622   4.782 -1.1039  2.9525  3.2817
 5824SOL     OW18370   6.674   4.401   2.663  0.4678 -0.4464 -0.0538
 5824SOL    HW118371   6.636   4.350   2.740  1.5083 -1.6225 -0.2634
 5824SOL    HW218372   6.707   4.490   2.694  1.2223 -1.0571  0.9571
 5825SOL     OW18373   3.192   1.074   5.004 -0.2490 -0.3611 -0.5774
 5825SOL    HW118374   3.241   1.158   5.022 -0.1800 -0.9591  2.4431
 5825SOL    HW218375   3.094   1.093   4.994 -0.3655  0.0193  1.0620
 5826SOL     OW18376   5.700   5.516   5.871 -0.8817  0.1822  0.2392
 5826SOL    HW118377   5.730   5.597   5.921 -1.6665  1.1110 -0.7424
 5826SOL    HW218378   5.606   5.529   5.840  0.1424  0.5335 -3.1414
 5827SOL     OW18379   2.030   4.429   4.641  0.1860  0.0727  0.1319
 5827SOL    HW118380   1.999   4.371   4.566 -0.1480  0.0049  0.3186
 5827SOL    HW218381   1.978   4.514   4.642 -1.6103 -0.9494  1.7749
 5828SOL     OW18382   6.470   2.580   1.605 -0.7559 -0.2476 -0.2949
 5828SOL    HW118383   6.499   2.499   1.555 -0.3978  0.6387 -1.6033
 5828SOL    HW218384   6.377   2.605   1.578 -1.1095 -0.5725  0.5851
 5829SOL     OW18385   4.566   2.381   3.082  0.4707 -0.0298 -0.1320
 5829SOL    HW118386   4.469   2.390   3.062  0.3168 -0.0450  0.5706
 5829SOL    HW218387   4.601   2.294   3.047 -0.1357 -0.7423  0.9901
 5830SOL     OW18388   1.870   0.696   6.438 -0.1289 -0.8300  0.3232
 5830SOL    HW118389   1.820   0.747   6.508  1.3912  4.0581 -1.6788
 5830SOL    HW218390   1.808   0.672   6.364 -0.8201 -1.5859  1.1312
 5831SOL     OW18391   6.384   1.721   3.032 -0.1279  0.6594 -0.9970
 5831SOL    HW118392   6.365   1.813   3.064 -0.8858  0.6574 -1.4190
 5831SOL    HW218393   6.352   1.711   2.937 -1.0491 -0.3421 -0.6097
 5832SOL     OW18394   2.719   3.211   6.426  0.4857  0.3906 -0.0764
 5832SOL    HW118395   2.667   3.180   6.505  1.5274 -0.1986  0.4035
 5832SOL    HW218396   2.669   3.283   6.379 -0.9793 -0.4934  0.0722
 5833SOL     OW18397   3.375   4.040   5.240  0.5825 -0.4447 -0.0349
 5833SOL    HW118398   3.343   4.031   5.334 -0.8510  2.2816 -0.1373
 5833SOL    HW218399   3.300   4.019   5.177  0.7758  0.1451 -0.4750
 5834SOL     OW18400   4.296   3.268   0.255  0.5667  0.5581  0.4144
 5834SOL    HW118401   4.211   3.220   0.234  0.7198 -0.3474  1.7244
 5834SOL    HW218402   4.333   3.308   0.172 -1.4692  1.5361 -0.0718
 5835SOL     OW18403   4.481   4.507   2.363  0.1065  0.3498  0.0613
 5835SOL    HW118404   4.492   4.454   2.447 -2.6323 -0.1614  0.1982
 5835SOL    HW218405   4.441   4.596   2.386 -1.2720 -0.0410 -0.6936
 5836SOL     OW18406   3.762   6.099   3.743  0.5152  0.3138  0.2700
 5836SOL    HW118407   3.714   6.185   3.724 -0.4876 -0.6879 -2.1837
 5836SOL    HW218408   3.744   6.070   3.837  0.0050  2.2102  0.8000
 5837SOL     OW18409   3.291   5.433   0.754  0.1060 -0.3606  0.0972
 5837SOL    HW118410   3.350   5.494   0.701 -0.7414  0.9654  0.6361
 5837SOL    HW218411   3.211   5.409   0.699  1.2459 -2.4252 -0.7581
 5838SOL     OW18412   3.228   0.969   6.772  0.2378  0.8812  0.3261
 5838SOL    HW118413   3.178   0.882   6.773  1.8302 -0.2373 -2.8755
 5838SOL    HW218414   3.178   1.035   6.716  1.1448  0.5152 -0.9509
 5839SOL     OW18415   0.022   2.237   2.510 -1.0721 -0.3353  0.3005
 5839SOL    HW118416   0.087   2.172   2.549  0.1477  1.4993  1.5018
 5839SOL    HW218417  -0.064   2.190   2.490  0.3671 -2.7134 -0.7742
 5840SOL     OW18418   2.281   4.649   5.690  0.6370  0.1165  0.7383
 5840SOL    HW118419   2.334   4.607   5.617  0.2990  2.0429 -0.6832
 5840SOL    HW218420   2.204   4.590   5.715 -1.2361  0.7573 -2.8492
 5841SOL     OW18421   4.677   1.043   3.143 -0.4055 -0.3795 -0.1371
 5841SOL    HW118422   4.661   1.055   3.241  0.7133  2.6199 -0.2263
 5841SOL    HW218423   4.769   1.008   3.128 -0.8623 -1.6234 -0.1227
 5842SOL     OW18424   5.649   2.947   0.711 -0.0280 -0.0418  0.2422
 5842SOL    HW118425   5.721   2.990   0.766 -0.7775  2.9106 -0.8958
 5842SOL    HW218426   5.684   2.930   0.619 -0.3732  0.1415  0.0762
 5843SOL     OW18427   2.292   4.183   3.303  0.4248 -0.7403 -0.2099
 5843SOL    HW118428   2.241   4.150   3.224  1.0697 -1.0232 -0.5142
 5843SOL    HW218429   2.311   4.107   3.365 -0.8151 -0.3716  0.6470
 5844SOL     OW18430   1.512   6.217   4.080  0.6691 -0.1409  0.0314
 5844SOL    HW118431   1.461   6.163   4.012  0.1429  0.2980  0.0657
 5844SOL    HW218432   1.455   6.294   4.109  0.6786 -0.6135  1.3591
 5845SOL     OW18433   6.412   0.245   3.026 -0.3268  0.4443 -0.0343
 5845SOL    HW118434   6.469   0.200   3.095 -1.2556 -2.0544 -0.7890
 5845SOL    HW218435   6.411   0.191   2.942 -1.6367  1.8412 -0.9908
 5846SOL     OW18436   0.919   3.320   4.162  0.3619 -0.0835 -1.0334
 5846SOL    HW118437   0.833   3.302   4.209  0.8748  0.5510  0.1866
 5846SOL    HW218438   0.956   3.234   4.126 -0.0308 -0.5896 -0.2504
 5847SOL     OW18439   2.796   3.324   1.248 -0.0044  0.1032 -0.2511
 5847SOL    HW118440   2.725   3.263   1.284  1.0217 -1.4718 -0.7887
 5847SOL    HW218441   2.760   3.372   1.167 -0.4709 -0.6890 -0.5286
 5848SOL     OW18442   0.983   4.817   4.695 -0.0625 -0.1645  0.1947
 5848SOL    HW118443   0.929   4.734   4.700  0.7472 -0.8925 -1.8611
 5848SOL    HW218444   1.006   4.836   4.599  0.5610  1.9194  0.7025
 5849SOL     OW18445   6.660   5.375   6.402  0.3065  0.7494 -0.5329
 5849SOL    HW118446   6.696   5.343   6.490  0.0272  0.8881 -0.3644
 5849SOL    HW218447   6.710   5.456   6.373  0.2793  0.8103 -0.4112
 5850SOL     OW18448   1.354   6.001   2.388  0.0345  0.4089 -0.2568
 5850SOL    HW118449   1.372   6.094   2.356 -1.6882  0.2831 -1.7443
 5850SOL    HW218450   1.296   5.954   2.322 -2.1895 -0.5234  2.1880
 5851SOL     OW18451   4.701   4.160   2.635  0.9274 -0.3525  0.0435
 5851SOL    HW118452   4.709   4.113   2.546 -2.7674 -0.6729 -0.2926
 5851SOL    HW218453   4.691   4.092   2.707 -1.0945 -0.1775 -0.0158
 5852SOL     OW18454   5.417   0.605   3.383  0.6949 -0.5624  0.1434
 5852SOL    HW118455   5.423   0.677   3.452 -1.7182 -0.4236  0.3013
 5852SOL    HW218456   5.369   0.527   3.421  3.5773 -2.5129  0.0830
 5853SOL     OW18457   4.922   3.772   4.464  0.0626 -0.0673 -0.6396
 5853SOL    HW118458   4.896   3.857   4.420  1.3003  0.6303 -0.0652
 5853SOL    HW218459   4.893   3.773   4.560 -0.5622 -0.6044 -0.8163
 5854SOL     OW18460   5.320   5.327   5.250 -0.5422 -0.1789  0.1558
 5854SOL    HW118461   5.392   5.361   5.310 -1.1793  1.4252  0.0618
 5854SOL    HW218462   5.300   5.232   5.273  1.2796 -0.5385  0.4674
 5855SOL     OW18463   5.658   6.838   4.273 -0.4213 -0.5709  0.3475
 5855SOL    HW118464   5.569   6.866   4.309 -0.3878  0.1474 -0.1306
 5855SOL    HW218465   5.719   6.817   4.350  0.2239  2.6705  0.8620
 5856SOL     OW18466   1.362   7.022   4.916 -0.2847  0.6695  0.4703
 5856SOL    HW118467   1.462   7.021   4.914 -0.2919  1.1167 -0.7666
 5856SOL    HW218468   1.330   7.060   5.003  0.6645  3.2992 -0.2441
 5857SOL     OW18469   4.455   2.978   6.428  0.4021 -0.3445  0.0589
 5857SOL    HW118470   4.545   2.947   6.458  1.3738 -1.7507 -3.7238
 5857SOL    HW218471   4.455   3.077   6.416  1.4421 -0.3356  0.0792
 5858SOL     OW18472   2.147   2.534   2.902 -0.3256  0.7355  0.3148
 5858SOL    HW118473   2.061   2.544   2.851  0.0977 -0.3487 -0.6793
 5858SOL    HW218474   2.215   2.599   2.866 -0.2418  0.4558 -0.0428
 5859SOL     OW18475   4.597   5.504   0.470 -0.0265 -0.0488  1.0564
 5859SOL    HW118476   4.674   5.473   0.414  0.2171  0.1589  1.2691
 5859SOL    HW218477   4.548   5.576   0.422 -0.2385 -0.3546  0.8137
 5860SOL     OW18478   1.676   4.997   1.834 -0.0691 -0.3779  0.6773
 5860SOL    HW118479   1.689   4.926   1.903  1.3841 -0.2358  0.5967
 5860SOL    HW218480   1.677   5.087   1.878  1.1610 -0.2711  0.4698
 5861SOL     OW18481   5.165   0.695   4.537  0.8056  0.0583 -0.2559
 5861SOL    HW118482   5.133   0.638   4.461  3.5803  0.2432 -1.7127
 5861SOL    HW218483   5.137   0.654   4.624  0.4683 -2.1118 -1.3081
 5862SOL     OW18484   4.547   4.791   1.744 -0.4364  0.0308 -0.0784
 5862SOL    HW118485   4.588   4.740   1.820  0.3996 -1.3009 -1.3565
 5862SOL    HW218486   4.541   4.888   1.768 -0.9327 -0.4598  1.9618
 5863SOL     OW18487   3.933   1.281   4.706  0.2482 -0.4384  0.0896
 5863SOL    HW118488   4.023   1.237   4.713 -0.4903 -1.9338  0.6310
 5863SOL    HW218489   3.865   1.226   4.754 -0.9570  0.7163 -0.2304
 5864SOL     OW18490   4.383   4.139   0.463 -0.2066  0.3591 -0.2122
 5864SOL    HW118491   4.397   4.238   0.466 -1.3899  0.5266  2.3347
 5864SOL    HW218492   4.397   4.101   0.554 -2.7691 -1.3564 -0.4375
 5865SOL     OW18493   5.041   2.659   4.414  0.4687  0.0736 -0.2211
 5865SOL    HW118494   4.997   2.589   4.471  0.7805  0.2814  0.2762
 5865SOL    HW218495   5.033   2.633   4.318  0.3578 -0.5177 -0.0545
 5866SOL     OW18496   3.426   5.702   2.018  0.2207  0.5719  0.5714
 5866SOL    HW118497   3.410   5.623   1.959  0.1105 -1.5739  3.2605
 5866SOL    HW218498   3.340   5.729   2.061  0.8786 -0.4290  2.6260
 5867SOL     OW18499   1.204   4.851   0.497 -0.8474  0.1756 -0.0120
 5867SOL    HW118500   1.169   4.761   0.520 -0.8678  0.3203  0.5207
 5867SOL    HW218501   1.154   4.887   0.418 -0.6027 -0.4237 -0.4448
 5868SOL     OW18502   6.802   0.079   5.345 -0.7571 -0.0660 -0.3665
 5868SOL    HW118503   6.869   0.005   5.336 -0.5375  0.1486 -0.5235
 5868SOL    HW218504   6.717   0.053   5.300 -0.1271  0.4430 -1.9110
 5869SOL     OW18505   1.932   5.003   4.790  0.7902  0.2362  0.0835
 5869SOL    HW118506   1.968   5.081   4.740  2.7333 -1.2958 -1.0577
 5869SOL    HW218507   1.889   5.034   4.875  0.9799  2.5435 -0.6085
 5870SOL     OW18508   5.299   0.312   4.038 -0.2579  0.8882 -0.3234
 5870SOL    HW118509   5.266   0.341   3.948 -0.0535 -1.9747 -1.4399
 5870SOL    HW218510   5.385   0.262   4.028  0.0308  0.9283  1.5308
 5871SOL     OW18511   5.006   1.694   1.616 -0.0003  0.0682  0.2531
 5871SOL    HW118512   4.946   1.709   1.695  0.8695 -0.2249  0.9820
 5871SOL    HW218513   5.082   1.759   1.619  0.1022 -0.0259 -0.2809
 5872SOL     OW18514   5.503   6.567   1.087  0.5110  0.3134  0.6344
 5872SOL    HW118515   5.421   6.613   1.052 -0.2335 -0.8649  0.7729
 5872SOL    HW218516   5.581   6.628   1.078 -0.2473  1.2118 -0.1578
 5873SOL     OW18517   3.512   3.435   0.950 -0.1604 -0.2239  0.4697
 5873SOL    HW118518   3.545   3.422   0.856  1.9620  1.3517  0.9256
 5873SOL    HW218519   3.466   3.523   0.958 -0.6640 -0.5169  0.8329
 5874SOL     OW18520   2.930   3.832   6.189  0.2747 -0.1112  0.7372
 5874SOL    HW118521   3.010   3.892   6.186  0.9564 -1.0289 -0.8533
 5874SOL    HW218522   2.926   3.778   6.105 -1.4223 -0.8755  1.2650
 5875SOL     OW18523   5.414   1.163   6.710 -0.7786 -0.6791 -0.3503
 5875SOL    HW118524   5.366   1.132   6.792 -0.3842 -0.7136 -0.1288
 5875SOL    HW218525   5.511   1.175   6.731 -0.9035  0.5988 -0.4688
 5876SOL     OW18526   2.439   2.381   0.256  0.0677 -0.4237 -0.3404
 5876SOL    HW118527   2.465   2.319   0.330  0.8357  0.1274 -0.1468
 5876SOL    HW218528   2.341   2.371   0.238  0.4415 -3.0679 -1.5619
 5877SOL     OW18529   6.498   0.070   7.014  0.4219 -0.5136 -0.5811
 5877SOL    HW118530   6.499   0.123   6.930  0.7254 -0.1796 -0.3683
 5877SOL    HW218531   6.568   0.105   7.077 -0.3852 -0.2048  0.1564
 5878SOL     OW18532   5.307   5.412   4.181 -0.3909  0.0759 -0.3591
 5878SOL    HW118533   5.322   5.313   4.183  1.5274  0.3347  0.3002
 5878SOL    HW218534   5.281   5.444   4.273 -0.0438  0.3017 -0.3359
 5879SOL     OW18535   2.428   2.709   6.239  0.2962  0.1957 -0.1113
 5879SOL    HW118536   2.480   2.689   6.157 -0.7590  0.7870 -0.9520
 5879SOL    HW218537   2.428   2.808   6.255  0.7553  0.0609  0.7818
 5880SOL     OW18538   4.173   4.133   6.559  0.0747 -0.4943  0.3480
 5880SOL    HW118539   4.252   4.123   6.620 -0.0967  0.2528  0.6956
 5880SOL    HW218540   4.144   4.043   6.527 -0.1621 -0.9362  1.7778
 5881SOL     OW18541   1.421   5.577   1.735 -0.5924  0.0297  0.4119
 5881SOL    HW118542   1.433   5.506   1.666  0.2198 -1.2765  1.8346
 5881SOL    HW218543   1.507   5.590   1.785 -1.1328  0.9932  1.1347
 5882SOL     OW18544   6.569   0.262   5.516 -0.3975 -0.0272  0.4762
 5882SOL    HW118545   6.558   0.348   5.467  0.1241 -0.0683  0.2769
 5882SOL    HW218546   6.633   0.203   5.467 -0.7758 -0.5447  0.5934
 5883SOL     OW18547   0.743   0.616   6.720  0.6089 -0.2228 -0.2040
 5883SOL    HW118548   0.764   0.592   6.815  0.1930  1.0353  0.2208
 5883SOL    HW218549   0.644   0.623   6.708  0.7047  1.9513 -0.1036
 5884SOL     OW18550   6.281   0.211   5.250  0.2279  0.6708 -0.3375
 5884SOL    HW118551   6.360   0.197   5.189  2.3985  0.2528  2.3632
 5884SOL    HW218552   6.237   0.123   5.268  1.2897  0.3508  0.7899
 5885SOL     OW18553   6.454   5.515   1.616  0.5818 -0.7509 -0.3190
 5885SOL    HW118554   6.404   5.564   1.687  1.0094 -0.7865  0.0071
 5885SOL    HW218555   6.494   5.581   1.552  2.2698 -0.5818  0.8536
 5886SOL     OW18556   1.758   2.537   4.301  0.0318  0.6031 -0.0286
 5886SOL    HW118557   1.762   2.625   4.252 -2.0142  0.7282 -0.0755
 5886SOL    HW218558   1.732   2.465   4.236  0.7330  0.1306  0.2099
 5887SOL     OW18559   2.348   4.295   0.008  0.4587  0.1060 -0.2603
 5887SOL    HW118560   2.304   4.377  -0.029  0.9062 -0.5231 -2.3478
 5887SOL    HW218561   2.447   4.306   0.004  0.5188 -0.3443 -0.0675
 5888SOL     OW18562   3.283   6.282   1.118 -0.0484  0.3645 -0.1819
 5888SOL    HW118563   3.253   6.311   1.209  0.9871  0.2769  0.2077
 5888SOL    HW218564   3.203   6.264   1.061 -0.7445 -0.4486  0.9915
 5889SOL     OW18565   5.413   3.005   4.780  0.5909  0.5973  0.5053
 5889SOL    HW118566   5.327   3.007   4.831  0.1051 -2.0245 -0.0509
 5889SOL    HW218567   5.489   2.990   4.844  0.4998  1.5360  0.8515
 5890SOL     OW18568   2.844   6.148   2.249 -0.3896  0.4062 -0.2124
 5890SOL    HW118569   2.894   6.066   2.220  0.0567  0.9788 -1.1319
 5890SOL    HW218570   2.748   6.140   2.224 -0.3829  0.1026 -0.1483
 5891SOL     OW18571   2.194   4.700   6.065  0.0846  0.0889 -0.0955
 5891SOL    HW118572   2.101   4.669   6.045 -0.1540  0.4025  0.4898
 5891SOL    HW218573   2.256   4.621   6.068 -0.6718 -0.5019  2.2791
 5892SOL     OW18574   0.122   5.410   5.003 -0.6315 -0.6836  0.6167
 5892SOL    HW118575   0.139   5.406   5.101 -0.7125 -0.7489  0.6279
 5892SOL    HW218576   0.075   5.327   4.973  0.1802 -1.0660  0.3712
 5893SOL     OW18577   2.287   4.302   2.399 -0.3336 -0.4091 -0.0256
 5893SOL    HW118578   2.355   4.326   2.331  1.8613 -0.4830  2.0112
 5893SOL    HW218579   2.304   4.210   2.433 -1.6072 -0.5162  0.3750
 5894SOL     OW18580   6.498   6.154   6.487  0.3318 -0.1506 -0.3704
 5894SOL    HW118581   6.532   6.248   6.496  0.5964 -0.3091  0.3781
 5894SOL    HW218582   6.445   6.130   6.568  0.2878 -0.6579 -0.5463
 5895SOL     OW18583   4.757   4.075   3.686 -0.4839  0.3849  0.5701
 5895SOL    HW118584   4.664   4.069   3.720 -0.6558 -1.3112 -0.1279
 5895SOL    HW218585   4.813   4.003   3.726 -0.3549 -0.8266 -1.6239
 5896SOL     OW18586   6.028   2.349   0.962  0.2528 -0.1674  0.0454
 5896SOL    HW118587   6.033   2.369   0.864 -0.2842 -2.1599 -0.4354
 5896SOL    HW218588   5.944   2.387   0.999 -0.0008 -0.1973 -0.4838
 5897SOL     OW18589   4.329   1.555   1.181  0.7431 -0.1199 -0.4105
 5897SOL    HW118590   4.303   1.542   1.086 -0.6146  0.4399 -0.1415
 5897SOL    HW218591   4.259   1.608   1.228  2.5086  1.7365  0.3243
 5898SOL     OW18592   1.185   1.430   3.202 -0.4348  0.5620  0.8405
 5898SOL    HW118593   1.234   1.513   3.230 -0.6261  1.6355 -1.6761
 5898SOL    HW218594   1.090   1.453   3.182 -0.5895 -0.3425  0.4990
 5899SOL     OW18595   5.879   0.670   6.745  0.1432 -0.2374  0.3303
 5899SOL    HW118596   5.803   0.718   6.789  0.4240  0.2757  0.2611
 5899SOL    HW218597   5.963   0.686   6.796  0.0148 -1.7483  1.0767
 5900SOL     OW18598   2.059   4.406   2.090 -0.3976  0.3613  0.1468
 5900SOL    HW118599   2.011   4.444   2.010 -0.6215  0.3392  0.2701
 5900SOL    HW218600   2.011   4.324   2.122  0.3318 -0.2874 -0.3876
 5901SOL     OW18601   4.563   0.987   6.935 -0.1704  0.0110  0.1074
 5901SOL    HW118602   4.577   0.941   7.023 -1.5786 -2.4477 -0.8315
 5901SOL    HW218603   4.618   0.942   6.865 -0.0756  1.0769 -0.5199
 5902SOL     OW18604   5.987   3.335   5.914 -0.0791  0.0628  0.0651
 5902SOL    HW118605   5.923   3.391   5.861 -1.0702 -0.6281  0.4801
 5902SOL    HW218606   6.009   3.252   5.863  0.4889  0.2989 -0.0743
 5903SOL     OW18607   3.310   3.455   7.004 -0.0303  0.3872 -0.2837
 5903SOL    HW118608   3.274   3.382   7.062  0.1466  0.3965 -0.1617
 5903SOL    HW218609   3.313   3.541   7.055 -0.1918  0.4696 -0.4125
 5904SOL     OW18610   1.312   3.870   0.941 -0.0907  0.0129  0.0255
 5904SOL    HW118611   1.244   3.940   0.919 -1.1383 -0.6068  1.1603
 5904SOL    HW218612   1.332   3.816   0.860 -3.0563 -1.5533  0.1914
 5905SOL     OW18613   6.390   1.092   3.900 -0.4299  0.3678  0.5909
 5905SOL    HW118614   6.407   1.154   3.823 -2.1991  0.4545  0.2279
 5905SOL    HW218615   6.447   1.119   3.977  0.0263  1.4467 -0.0925
 5906SOL     OW18616   4.629   1.949   3.970  0.3507 -0.1040  0.4105
 5906SOL    HW118617   4.602   1.913   3.881  0.1563  0.6300  0.1641
 5906SOL    HW218618   4.564   1.920   4.040  0.0190  0.0276  0.1600
 5907SOL     OW18619   1.530   6.932   1.077 -0.3151 -0.0867 -0.6012
 5907SOL    HW118620   1.447   6.916   1.025 -0.7493  1.6709 -0.5053
 5907SOL    HW218621   1.515   6.910   1.174 -1.4864  2.5111 -0.1270
 5908SOL     OW18622   5.998   5.629   0.778  0.1467 -0.3326 -0.2377
 5908SOL    HW118623   6.009   5.628   0.877 -1.3246 -2.2810 -0.0494
 5908SOL    HW218624   6.006   5.724   0.745 -2.7687  0.9154  2.1708
 5909SOL     OW18625   5.693   4.766   5.355 -0.5668  0.0724 -0.1180
 5909SOL    HW118626   5.668   4.858   5.384 -1.7395 -0.2714  0.0300
 5909SOL    HW218627   5.686   4.703   5.432  2.0884  0.1344  0.2800
 5910SOL     OW18628   6.661   4.810   0.941 -0.5707  0.2961 -0.5032
 5910SOL    HW118629   6.608   4.874   0.886 -1.1044  1.2405  1.0304
 5910SOL    HW218630   6.757   4.837   0.941 -0.2947 -0.5527 -2.0840
 5911SOL     OW18631   0.258   6.977   5.082  0.1410 -0.3607  0.0962
 5911SOL    HW118632   0.214   6.986   5.171 -0.3435  0.8613 -0.2424
 5911SOL    HW218633   0.326   6.903   5.085  0.6925  0.1686  1.7119
 5912SOL     OW18634   6.082   3.248   0.168  0.4351 -0.5259  0.4285
 5912SOL    HW118635   6.146   3.197   0.110  1.0069 -1.1503  1.5713
 5912SOL    HW218636   5.991   3.209   0.159 -0.0419  0.9423 -1.9215
 5913SOL     OW18637   3.688   1.939   0.114 -0.1771  0.3544 -0.9202
 5913SOL    HW118638   3.671   2.032   0.146  0.3933 -0.0550  0.6889
 5913SOL    HW218639   3.780   1.933   0.074  1.5470 -0.3195  2.7289
 5914SOL     OW18640   2.659   6.564   0.686  0.0568 -0.3519 -0.1008
 5914SOL    HW118641   2.719   6.541   0.610  0.4480 -0.2439  0.1741
 5914SOL    HW218642   2.580   6.502   0.686  0.4608 -0.8711 -0.1105
 5915SOL     OW18643   0.764   4.834   2.756  0.2757  0.4326 -0.2101
 5915SOL    HW118644   0.847   4.879   2.723  1.6330 -1.7593 -0.0068
 5915SOL    HW218645   0.705   4.811   2.679 -1.7521  4.6959 -0.1729
 5916SOL     OW18646   5.524   6.146   6.561  0.3045 -0.0563  0.4251
 5916SOL    HW118647   5.617   6.114   6.545 -0.2577 -0.4767 -2.5890
 5916SOL    HW218648   5.472   6.142   6.476 -2.2420  1.0288  1.8076
 5917SOL     OW18649   3.701   3.415   4.088 -0.1590 -0.0460 -0.1712
 5917SOL    HW118650   3.697   3.371   4.178 -1.9153 -0.9342 -0.6403
 5917SOL    HW218651   3.789   3.393   4.045  1.1398  1.2037  1.6757
 5918SOL     OW18652   2.597   4.232   6.037 -0.0161 -0.0774  0.0861
 5918SOL    HW118653   2.637   4.276   5.957 -0.9786  1.4606  0.4230
 5918SOL    HW218654   2.563   4.141   6.012  1.0741 -0.2455 -0.8594
 5919SOL     OW18655   2.409   3.202   5.409  0.3115 -0.2234  0.2035
 5919SOL    HW118656   2.464   3.139   5.354 -0.0895 -0.0362 -0.4133
 5919SOL    HW218657   2.421   3.295   5.375  1.7540  0.2291  1.7728
 5920SOL     OW18658   3.648   0.534   0.951 -0.0096 -0.1008 -0.2283
 5920SOL    HW118659   3.595   0.458   0.914 -0.6531  0.1210  0.2243
 5920SOL    HW218660   3.627   0.546   1.048  2.4535 -1.3741  0.5315
 5921SOL     OW18661   4.162   4.813   5.175 -0.4013  0.1873  0.4058
 5921SOL    HW118662   4.065   4.835   5.186 -0.4383 -0.2806  1.0706
 5921SOL    HW218663   4.191   4.837   5.082 -1.2133  0.0935  0.1178
 5922SOL     OW18664   5.685   4.441   5.346  0.2192 -0.0697 -0.4872
 5922SOL    HW118665   5.680   4.495   5.430 -1.4456 -0.4436 -0.3158
 5922SOL    HW218666   5.750   4.483   5.283  1.6351  0.1159  1.0429
 5923SOL     OW18667   6.722   0.615   1.339 -0.1175 -0.1554  0.1993
 5923SOL    HW118668   6.636   0.665   1.342  0.0261  0.1165 -0.1518
 5923SOL    HW218669   6.725   0.549   1.414 -0.9623 -0.7192 -0.2471
 5924SOL     OW18670   4.632   2.373   5.714 -0.2574 -0.6028  0.1516
 5924SOL    HW118671   4.552   2.349   5.659 -0.2732  0.6901 -0.4096
 5924SOL    HW218672   4.701   2.415   5.657  0.0514  0.0445  0.9820
 5925SOL     OW18673   4.503   4.876   2.628 -0.6599  0.1977  0.1405
 5925SOL    HW118674   4.472   4.789   2.667 -0.0016 -0.3742 -0.5819
 5925SOL    HW218675   4.543   4.860   2.538  1.8481  0.8677  1.0370
 5926SOL     OW18676   3.112   6.508   0.963 -0.4142  0.4112 -0.4581
 5926SOL    HW118677   3.188   6.561   0.926 -0.8628  0.2763 -1.6134
 5926SOL    HW218678   3.079   6.444   0.894 -0.5388 -0.6709  0.5780
 5927SOL     OW18679   2.305   4.607   5.384  0.0333 -0.5884  0.2681
 5927SOL    HW118680   2.357   4.609   5.298 -0.3927 -3.5861 -0.1910
 5927SOL    HW218681   2.208   4.617   5.364  0.0012 -0.3826  0.5235
 5928SOL     OW18682   2.787   0.329   1.684 -0.6990 -0.2331  0.0265
 5928SOL    HW118683   2.853   0.259   1.658 -0.0299  0.3635  0.1103
 5928SOL    HW218684   2.798   0.351   1.781  0.6193  1.5815 -0.4931
 5929SOL     OW18685   6.165   4.499   5.257 -0.2507 -0.4219  0.0451
 5929SOL    HW118686   6.236   4.429   5.245  0.9551  0.9913 -1.4767
 5929SOL    HW218687   6.193   4.562   5.329 -1.0636 -1.1390  1.0107
 5930SOL     OW18688   0.089   0.780   1.769  0.0635 -0.1631  0.1438
 5930SOL    HW118689   0.033   0.762   1.850 -0.2009 -2.1104 -0.4221
 5930SOL    HW218690   0.029   0.795   1.690  0.3375  0.5063  0.0521
 5931SOL     OW18691   5.683   5.102   5.370 -0.3618 -0.2756 -0.1717
 5931SOL    HW118692   5.681   5.186   5.423 -0.2582 -0.7105  0.5363
 5931SOL    HW218693   5.767   5.099   5.316 -0.1345 -0.1487  0.1727
 5932SOL     OW18694   2.149   6.255   0.858 -0.9086  0.3425  0.1837
 5932SOL    HW118695   2.233   6.220   0.901 -1.9389  0.5352  2.4806
 5932SOL    HW218696   2.168   6.278   0.762  1.2838 -0.9282  0.2410
 5933SOL     OW18697   0.697   4.593   3.126  0.6346 -0.5817  0.2361
 5933SOL    HW118698   0.719   4.517   3.187 -0.1617 -2.2914 -1.4988
 5933SOL    HW218699   0.719   4.568   3.031 -1.0749  0.7381 -0.5771
 5934SOL     OW18700   3.273   3.295   3.973 -0.3083  0.0295  0.0236
 5934SOL    HW118701   3.189   3.250   4.003 -0.2945  0.2857  0.4534
 5934SOL    HW218702   3.273   3.303   3.874 -1.7753  1.9568  0.1356
 5935SOL     OW18703   3.372   3.774   5.608 -0.1977  0.0533 -0.0166
 5935SOL    HW118704   3.465   3.778   5.644 -0.1089  0.3707 -0.2742
 5935SOL    HW218705   3.372   3.734   5.517 -0.4808 -1.1803  0.5095
 5936SOL     OW18706   2.180   3.480   0.036  0.1398  0.1846 -0.7358
 5936SOL    HW118707   2.130   3.439  -0.041 -0.5346 -1.0268  0.2963
 5936SOL    HW218708   2.122   3.548   0.080 -0.0521 -0.1846 -0.4127
 5937SOL     OW18709   1.743   4.460   1.319  0.3452  0.1890  0.0505
 5937SOL    HW118710   1.685   4.540   1.304 -0.0463 -0.0535  0.2524
 5937SOL    HW218711   1.713   4.412   1.401  1.1228  0.3117  0.4175
 5938SOL     OW18712   2.055   5.311   3.930  0.2428 -0.4053  0.4657
 5938SOL    HW118713   2.004   5.385   3.887  0.7278  0.2246  0.9650
 5938SOL    HW218714   2.115   5.269   3.862  0.2103 -0.1284  0.2619
 5939SOL     OW18715   3.932   0.459   4.697  0.7273 -0.1259 -0.1350
 5939SOL    HW118716   3.842   0.486   4.734  0.1341 -1.6153 -0.4263
 5939SOL    HW218717   3.937   0.360   4.691  2.0271 -0.0239 -1.1040
 5940SOL     OW18718   3.691   6.994   2.092  0.0347 -0.2187 -0.0089
 5940SOL    HW118719   3.747   6.932   2.037  0.7285 -1.6195  2.1439
 5940SOL    HW218720   3.738   7.081   2.102  0.0558 -0.0621 -1.3057
 5941SOL     OW18721   0.164   5.236   2.786 -0.1572 -0.2168  0.2057
 5941SOL    HW118722   0.106   5.289   2.847  0.7996  0.8765  0.2006
 5941SOL    HW218723   0.122   5.232   2.695 -0.7812 -0.4473  0.4961
 5942SOL     OW18724   5.737   1.447   6.922  0.0687 -0.2173  0.4918
 5942SOL    HW118725   5.654   1.414   6.967  0.6967 -1.6299  0.6574
 5942SOL    HW218726   5.817   1.414   6.972  0.7566 -0.4080 -0.7041
 5943SOL     OW18727   3.465   6.934   1.230 -0.2676  0.0194 -0.3655
 5943SOL    HW118728   3.408   6.862   1.271 -0.1851  0.5525  0.7188
 5943SOL    HW218729   3.409   6.993   1.174 -0.6144 -0.0250 -0.0720
 5944SOL     OW18730   5.102   2.189   2.351  0.1578  0.3795 -0.1454
 5944SOL    HW118731   5.032   2.150   2.291  0.1382 -0.1767  0.2416
 5944SOL    HW218732   5.081   2.168   2.446  1.1927 -0.3373 -0.0614
 5945SOL     OW18733   0.586   3.999   3.367  0.3499 -0.1220 -0.2310
 5945SOL    HW118734   0.612   4.012   3.271 -1.8728  2.5528 -0.5877
 5945SOL    HW218735   0.669   3.988   3.422  1.7081 -1.2989 -2.3396
 5946SOL     OW18736   3.548   4.357   6.634 -0.0744 -0.2974 -0.3119
 5946SOL    HW118737   3.488   4.293   6.682 -0.3871 -1.2098 -1.8630
 5946SOL    HW218738   3.634   4.367   6.685 -0.2660 -1.4762  0.2690
 5947SOL     OW18739   2.717   2.710   0.939  0.1300  0.2171  0.7307
 5947SOL    HW118740   2.773   2.628   0.952  0.3289  0.4233  1.2096
 5947SOL    HW218741   2.621   2.686   0.956  0.2717  0.2443  1.6416
 5948SOL     OW18742   3.756   4.917   3.999  0.3609  0.4587  0.5480
 5948SOL    HW118743   3.666   4.959   3.994 -0.7012 -1.6236  0.9588
 5948SOL    HW218744   3.788   4.894   3.907 -0.7366 -1.0956  0.5124
 5949SOL     OW18745   3.956   2.106   1.381 -0.1908 -0.0067 -0.1087
 5949SOL    HW118746   3.926   2.155   1.463  1.0417 -0.2646  0.5210
 5949SOL    HW218747   3.938   2.008   1.392 -0.4394  0.0124 -0.3411
 5950SOL     OW18748   6.599   2.552   4.655  0.2688  0.7775  0.2984
 5950SOL    HW118749   6.651   2.614   4.595 -0.5541  1.9917  0.7783
 5950SOL    HW218750   6.656   2.521   4.730  0.5601  1.3762  0.3283
 5951SOL     OW18751   0.685   4.975   5.659  0.4650  0.1831  0.1826
 5951SOL    HW118752   0.664   5.073   5.667  1.5902  0.3206  2.2459
 5951SOL    HW218753   0.755   4.962   5.589  0.0315  0.8078 -0.3781
 5952SOL     OW18754   5.913   5.057   4.732 -0.2521 -0.0804  0.5211
 5952SOL    HW118755   5.850   5.091   4.662  0.2399 -1.4321 -0.6025
 5952SOL    HW218756   5.860   5.016   4.807 -0.7626  0.9549  0.7452
 5953SOL     OW18757   1.047   1.797   6.495  0.3149  0.1752  0.0890
 5953SOL    HW118758   1.112   1.872   6.486 -0.0475  0.6213  0.9969
 5953SOL    HW218759   1.057   1.755   6.584 -1.1506  0.7721  0.5669
 5954SOL     OW18760   0.738   5.257   5.343 -0.1825 -0.4284  0.4672
 5954SOL    HW118761   0.838   5.248   5.343 -0.3000 -2.0026  1.3967
 5954SOL    HW218762   0.713   5.348   5.310  1.4935 -0.5990 -1.4677
 5955SOL     OW18763   3.771   5.124   1.951 -0.1347  0.2721  0.4966
 5955SOL    HW118764   3.677   5.157   1.943 -0.6879 -1.3782 -0.3726
 5955SOL    HW218765   3.832   5.183   1.899 -1.1527 -0.2867 -1.4116
 5956SOL     OW18766   4.900   1.326   6.422 -0.1031  0.1025  0.2972
 5956SOL    HW118767   4.869   1.421   6.421 -1.0323 -0.1672 -1.5847
 5956SOL    HW218768   4.933   1.302   6.513  0.2491  2.2488  0.7777
 5957SOL     OW18769   2.628   0.295   6.478  0.3801  0.3985 -0.7592
 5957SOL    HW118770   2.541   0.252   6.504  0.4737  1.1318  0.8916
 5957SOL    HW218771   2.697   0.223   6.467 -0.1637 -0.1039 -1.0072
 5958SOL     OW18772   5.933   0.378   3.052  0.0098 -0.1768 -0.3311
 5958SOL    HW118773   5.947   0.340   2.960  2.7985  1.9679 -0.9309
 5958SOL    HW218774   5.887   0.466   3.045  1.2497  0.5305  0.1811
 5959SOL     OW18775   3.792   1.253   5.495  0.2977  0.3725  0.3986
 5959SOL    HW118776   3.728   1.198   5.442  1.3089 -0.4353  0.0044
 5959SOL    HW218777   3.884   1.215   5.487  1.0804  2.2788 -0.1054
 5960SOL     OW18778   3.026   6.041   4.374 -0.1895 -0.1086 -0.3673
 5960SOL    HW118779   3.109   6.003   4.412  0.4398  1.0742 -0.5031
 5960SOL    HW218780   3.009   6.132   4.414 -0.5421  0.3350 -1.4796
 5961SOL     OW18781   4.682   0.997   2.859  0.1075 -0.4239 -0.7551
 5961SOL    HW118782   4.603   0.943   2.831  1.5366 -1.7456 -2.4098
 5961SOL    HW218783   4.661   1.043   2.946 -2.1086 -1.4851 -0.6509
 5962SOL     OW18784   3.412   6.115   2.359 -0.1542  0.0204  0.2435
 5962SOL    HW118785   3.501   6.114   2.314  0.6583 -1.2635  1.7378
 5962SOL    HW218786   3.343   6.072   2.300  0.6882 -0.8577 -0.1229
 5963SOL     OW18787   2.739   3.981   5.730 -0.0490 -0.7643 -0.7469
 5963SOL    HW118788   2.837   3.961   5.723  0.1825  0.7967 -3.2326
 5963SOL    HW218789   2.720   4.069   5.685 -2.6338 -1.1779 -0.5800
 5964SOL     OW18790   0.315   5.042   5.068  0.2972 -0.0869 -0.9840
 5964SOL    HW118791   0.289   5.013   4.976  1.4496 -1.5823 -0.8787
 5964SOL    HW218792   0.233   5.044   5.126 -0.5529  1.5738 -2.1803
 5965SOL     OW18793   1.403   2.033   4.151  0.0581  0.1128 -0.1887
 5965SOL    HW118794   1.359   2.076   4.072  0.4144 -2.2340 -1.8044
 5965SOL    HW218795   1.335   2.013   4.221 -0.6849  0.3109 -0.8364
 5966SOL     OW18796   3.946   4.557   6.623 -0.5197  0.1845 -0.3906
 5966SOL    HW118797   3.944   4.572   6.524  1.2103 -3.3505 -1.1067
 5966SOL    HW218798   4.037   4.579   6.659 -0.7657  0.2560  0.2038
 5967SOL     OW18799   4.031   0.717   3.714  0.4063  0.4454 -0.2615
 5967SOL    HW118800   4.029   0.734   3.616  0.3145 -0.0889 -0.3553
 5967SOL    HW218801   3.967   0.778   3.760  1.4483  1.6666 -0.3755
 5968SOL     OW18802   6.437   2.962   1.282  0.1851 -0.3454 -0.4426
 5968SOL    HW118803   6.396   2.873   1.262 -2.0929  0.3950  0.6118
 5968SOL    HW218804   6.376   3.035   1.251  1.7322  0.8769 -0.7522
 5969SOL     OW18805   5.744   1.747   1.064 -0.0446  0.1597  0.8608
 5969SOL    HW118806   5.827   1.803   1.066 -0.5647  0.9471  2.6468
 5969SOL    HW218807   5.754   1.670   1.128 -1.0252  0.8233  1.8558
 5970SOL     OW18808   0.177   3.764   2.622  0.2766  0.1522 -0.4135
 5970SOL    HW118809   0.143   3.821   2.547  0.4764 -0.3859 -0.9215
 5970SOL    HW218810   0.218   3.822   2.692  2.1658  0.5429 -1.7668
 5971SOL     OW18811   2.292   1.664   2.651  0.3179  0.5436  0.2094
 5971SOL    HW118812   2.362   1.597   2.627  0.5959  0.3719  1.4517
 5971SOL    HW218813   2.334   1.755   2.659  0.2719  0.5603  0.2674
 5972SOL     OW18814   5.756   6.698   2.025 -0.0948  0.2078  0.0357
 5972SOL    HW118815   5.710   6.784   2.046 -2.0649 -0.9172  0.6320
 5972SOL    HW218816   5.736   6.631   2.097  0.4212 -1.0836 -0.9738
 5973SOL     OW18817   1.855   4.805   3.395  0.3513 -0.3625  0.1792
 5973SOL    HW118818   1.759   4.832   3.398  0.2508 -0.4927 -1.2755
 5973SOL    HW218819   1.899   4.829   3.482 -0.8655  0.1299  0.6841
 5974SOL     OW18820   5.178   3.787   6.659 -0.5019  0.0053 -0.1744
 5974SOL    HW118821   5.134   3.823   6.576  1.1983 -0.9161 -1.5320
 5974SOL    HW218822   5.108   3.748   6.719 -1.6768 -0.3212 -1.6826
 5975SOL     OW18823   4.271   4.825   1.270 -0.8609 -0.4254 -0.4069
 5975SOL    HW118824   4.319   4.855   1.188 -1.3136  0.4260 -0.3688
 5975SOL    HW218825   4.172   4.827   1.253 -0.9745  0.1632  0.2865
 5976SOL     OW18826   3.577   4.132   3.811  1.0274 -0.0915 -0.0469
 5976SOL    HW118827   3.535   4.047   3.780 -0.8360  0.6987  0.1209
 5976SOL    HW218828   3.608   4.185   3.732 -0.5500  0.3753 -0.3920
 5977SOL     OW18829   0.766   6.370   6.705 -0.4464 -0.4698 -0.3946
 5977SOL    HW118830   0.779   6.427   6.624 -2.6758 -0.6609 -0.9751
 5977SOL    HW218831   0.852   6.327   6.731  0.3036 -0.5441 -2.7747
 5978SOL     OW18832   4.650   4.317   2.240  0.1467 -0.2508  0.2818
 5978SOL    HW118833   4.587   4.357   2.308 -0.4924  1.2319 -1.1289
 5978SOL    HW218834   4.603   4.308   2.152  1.3006 -1.1209 -0.2759
 5979SOL     OW18835   5.495   5.610   3.527  0.0840  0.7899  0.3713
 5979SOL    HW118836   5.397   5.629   3.535  0.2746  1.2676  1.8453
 5979SOL    HW218837   5.545   5.664   3.595  1.2749 -0.2442  0.3466
 5980SOL     OW18838   4.482   2.547   1.848  0.1751 -0.2837 -0.9270
 5980SOL    HW118839   4.488   2.638   1.809  1.2314 -0.4134 -1.1142
 5980SOL    HW218840   4.509   2.550   1.944  0.1331 -0.3884 -0.9115
 5981SOL     OW18841   0.860   2.664   1.402  0.3474 -0.0598  0.1693
 5981SOL    HW118842   0.866   2.740   1.338  2.9214  0.0785  0.4623
 5981SOL    HW218843   0.820   2.585   1.355 -0.0362  0.7291 -0.8820
 5982SOL     OW18844   5.953   0.854   2.044  0.0658  0.4857  0.1085
 5982SOL    HW118845   5.880   0.903   2.091 -0.1104 -0.7231  1.1412
 5982SOL    HW218846   6.041   0.896   2.066 -0.1964  1.1974 -0.1626
 5983SOL     OW18847   1.631   0.969   4.971 -0.0583 -0.4315  0.0362
 5983SOL    HW118848   1.651   1.003   5.063 -0.5216 -1.0423  0.3631
 5983SOL    HW218849   1.677   1.028   4.904  0.1800  0.0929  0.6455
 5984SOL     OW18850   1.621   0.023   4.094 -0.1551 -0.1800 -0.0700
 5984SOL    HW118851   1.635   0.010   4.192 -1.5351  2.3647  0.5505
 5984SOL    HW218852   1.596  -0.064   4.051 -1.0347 -1.0568  2.1134
 5985SOL     OW18853   4.809   3.984   2.823 -0.3628 -0.2836  0.2630
 5985SOL    HW118854   4.806   3.928   2.740  0.0043  1.2791 -0.8516
 5985SOL    HW218855   4.900   3.979   2.863  1.0277  2.5060 -2.0973
 5986SOL     OW18856   3.187   3.760   3.131  0.0395 -0.1283 -0.4555
 5986SOL    HW118857   3.285   3.748   3.151 -0.4020 -1.5448  1.0621
 5986SOL    HW218858   3.135   3.752   3.216 -1.2672  2.6919 -0.8876
 5987SOL     OW18859   5.443   1.041   4.932  0.3667  0.0203  0.4474
 5987SOL    HW118860   5.490   1.017   4.847 -0.2466 -1.3818  0.4747
 5987SOL    HW218861   5.346   1.019   4.923  0.5690 -1.7906  2.0858
 5988SOL     OW18862   3.232   6.825   5.598  0.2825 -0.5907  0.2852
 5988SOL    HW118863   3.280   6.905   5.561 -2.1912  0.6230 -0.4882
 5988SOL    HW218864   3.299   6.761   5.635  2.4684  1.0312 -0.6259
 5989SOL     OW18865   2.222   5.430   6.819 -0.7988 -0.3829 -0.1678
 5989SOL    HW118866   2.181   5.402   6.732 -2.3986 -0.5226  0.5901
 5989SOL    HW218867   2.161   5.405   6.894  0.5635 -0.3053  1.0200
 5990SOL     OW18868   3.011   3.969   6.463 -0.1187  0.5926 -0.3456
 5990SOL    HW118869   2.941   3.950   6.532 -1.3821  1.2408 -1.4111
 5990SOL    HW218870   3.096   3.996   6.509 -0.2647 -1.0185  1.0036
 5991SOL     OW18871   3.741   5.752   5.845  0.2377 -0.1320 -0.0698
 5991SOL    HW118872   3.742   5.753   5.945 -2.1727 -2.5299  0.0979
 5991SOL    HW218873   3.688   5.673   5.813  3.0729 -1.0006 -3.3026
 5992SOL     OW18874   3.207   0.910   4.787 -0.1052 -0.5756 -0.3563
 5992SOL    HW118875   3.211   0.945   4.881 -0.0183  0.9487 -0.9012
 5992SOL    HW218876   3.235   0.814   4.786  2.0053 -0.0376  0.8954
 5993SOL     OW18877   2.157   5.392   6.302 -0.3417  0.1969 -0.4314
 5993SOL    HW118878   2.082   5.329   6.279 -1.2278  1.2328 -0.4783
 5993SOL    HW218879   2.196   5.429   6.218  1.0297 -1.2125 -0.4576
 5994SOL     OW18880   6.165   1.809   3.807 -0.5723 -0.5828 -0.1451
 5994SOL    HW118881   6.105   1.883   3.774  0.5219  0.0377 -0.8228
 5994SOL    HW218882   6.247   1.849   3.849 -1.3678 -1.3762  2.3491
 5995SOL     OW18883   5.238   3.321   3.350 -0.3675  0.8887  0.0433
 5995SOL    HW118884   5.237   3.263   3.269  0.1624 -0.0029  0.6622
 5995SOL    HW218885   5.188   3.275   3.424  1.8372  0.2291  1.1937
 5996SOL     OW18886   6.889   6.207   1.274 -0.3057  0.5574 -0.1018
 5996SOL    HW118887   6.818   6.145   1.304  0.3143 -0.1820 -0.1257
 5996SOL    HW218888   6.960   6.156   1.224  0.2141  1.2767 -0.1280
 5997SOL     OW18889   1.116   5.734   4.668  0.6827 -0.1234 -0.0625
 5997SOL    HW118890   1.143   5.819   4.713 -1.7384 -0.2411  1.7859
 5997SOL    HW218891   1.051   5.753   4.595  1.4282 -0.2814 -0.7815
 5998SOL     OW18892   6.730   3.611   1.426 -0.3966 -0.2270  0.1349
 5998SOL    HW118893   6.748   3.514   1.412 -0.0203  0.0195 -1.2647
 5998SOL    HW218894   6.633   3.625   1.444 -0.6142 -0.7824 -0.5521
 5999SOL     OW18895   1.937   1.306   2.805 -0.1223 -0.2071  0.1007
 5999SOL    HW118896   1.979   1.282   2.718 -1.3745 -1.0850 -0.2783
 5999SOL    HW218897   1.886   1.228   2.840 -1.3550  0.7906  0.6031
 6000SOL     OW18898   4.000   0.261   3.787  0.9693  0.0241 -0.0949
 6000SOL    HW118899   3.978   0.220   3.876 -2.1869 -1.1922 -1.3252
 6000SOL    HW218900   4.074   0.210   3.744 -0.0366 -1.8155  0.2505
 6001SOL     OW18901   0.552   5.454   6.026 -0.3650 -0.1431  0.1316
 6001SOL    HW118902   0.644   5.487   6.006 -1.2833  3.0299  0.6404
 6001SOL    HW218903   0.554   5.402   6.112  0.8959  0.0352  0.2395
 6002SOL     OW18904   0.190   1.028   0.827 -0.2876 -0.9288  0.5646
 6002SOL    HW118905   0.196   1.095   0.753 -1.3917 -1.0998  0.3023
 6002SOL    HW218906   0.152   0.942   0.791 -2.5094 -0.4640  1.6551
 6003SOL     OW18907   0.295   1.749   3.776  0.6028  0.2639  0.6775
 6003SOL    HW118908   0.308   1.682   3.849 -0.6313 -0.8567 -0.0741
 6003SOL    HW218909   0.335   1.714   3.691 -0.3551  0.2886  0.1993
 6004SOL     OW18910   6.232   3.808   2.193 -0.0004  0.3209  0.6640
 6004SOL    HW118911   6.195   3.836   2.105  1.2270 -0.6969 -0.2117
 6004SOL    HW218912   6.246   3.889   2.251 -1.3622  0.9411  0.1709
 6005SOL     OW18913   4.535   5.311   6.916 -0.2760  0.1382  0.3568
 6005SOL    HW118914   4.502   5.377   6.848 -0.7938  0.0898  0.5582
 6005SOL    HW218915   4.563   5.227   6.870 -0.9466 -0.0208  0.2327
 6006SOL     OW18916   4.447   0.445   2.034  0.1326  0.9539  0.5378
 6006SOL    HW118917   4.373   0.453   2.101 -0.0224  0.7377  0.3928
 6006SOL    HW218918   4.519   0.386   2.071  0.5288  1.6611  0.9382
 6007SOL     OW18919   5.289   4.098   5.643 -0.0085 -0.2014 -0.7675
 6007SOL    HW118920   5.324   4.142   5.561  1.5587 -2.3149 -1.3331
 6007SOL    HW218921   5.217   4.154   5.683  1.4905  2.5626 -1.6574
 6008SOL     OW18922   2.343   5.463   0.218  0.1279  0.2936  0.7999
 6008SOL    HW118923   2.432   5.429   0.188  0.2313  1.1973  0.0375
 6008SOL    HW218924   2.284   5.386   0.242  0.9705 -0.3277  0.9128
 6009SOL     OW18925   4.878   0.377   4.596 -0.2196 -0.0540 -0.1079
 6009SOL    HW118926   4.815   0.302   4.574 -2.1738  1.0784  1.2952
 6009SOL    HW218927   4.856   0.455   4.538 -1.7578  1.1122  1.8940
 6010SOL     OW18928   1.863   3.774   3.145 -0.6253  0.2310 -0.0980
 6010SOL    HW118929   1.841   3.869   3.167 -1.5093 -0.1016  0.5140
 6010SOL    HW218930   1.961   3.759   3.158  0.3761  2.0211 -3.8263
 6011SOL     OW18931   5.178   4.018   2.304  0.6190  0.8458 -0.8198
 6011SOL    HW118932   5.162   3.989   2.210 -0.7944 -1.2961 -0.0243
 6011SOL    HW218933   5.127   4.102   2.323  0.1507  0.7678 -1.7068
 6012SOL     OW18934   6.408   2.607   0.306  0.1268 -0.2550  0.7631
 6012SOL    HW118935   6.475   2.668   0.265 -0.2228 -1.3032 -1.5413
 6012SOL    HW218936   6.441   2.512   0.300 -1.2778 -0.7338  0.0592
 6013SOL     OW18937   5.963   2.267   3.024 -0.3686 -0.9332 -0.5922
 6013SOL    HW118938   5.898   2.196   3.051 -0.0282 -0.7893  0.6416
 6013SOL    HW218939   5.959   2.280   2.925 -1.1657 -1.9527 -0.7032
 6014SOL     OW18940   5.218   3.613   0.587 -0.5515 -0.2932 -0.6649
 6014SOL    HW118941   5.297   3.551   0.590 -1.6643 -1.7420  0.1508
 6014SOL    HW218942   5.237   3.693   0.645 -0.4963 -1.7171  1.3970
 6015SOL     OW18943   0.897   2.632   5.343 -0.4175 -0.6682  0.2503
 6015SOL    HW118944   0.994   2.613   5.348 -0.4692 -1.0312 -0.1220
 6015SOL    HW218945   0.883   2.726   5.311 -0.1985 -0.9021 -0.5504
 6016SOL     OW18946   0.471   2.797   6.407  0.2876 -0.2373  0.3612
 6016SOL    HW118947   0.463   2.808   6.308 -1.3907 -2.7483  0.1129
 6016SOL    HW218948   0.518   2.712   6.428  0.9506  0.4399  1.7539
 6017SOL     OW18949   6.052   5.246   2.363  0.6812 -0.0432 -0.2321
 6017SOL    HW118950   6.119   5.200   2.421  0.4552  0.8507  0.7827
 6017SOL    HW218951   6.055   5.208   2.271  1.2336 -1.3293  0.2955
 6018SOL     OW18952   3.639   1.053   0.127  0.0745  0.4732 -0.1617
 6018SOL    HW118953   3.656   1.141   0.173 -0.8657  0.9604 -0.6952
 6018SOL    HW218954   3.541   1.032   0.132 -0.0021  0.3741 -1.6259
 6019SOL     OW18955   6.884   2.266   3.440 -0.0165 -0.2259  0.1462
 6019SOL    HW118956   6.930   2.181   3.412  0.1629  0.0092 -0.2905
 6019SOL    HW218957   6.802   2.244   3.491  2.1183 -0.7063  3.6798
 6020SOL     OW18958   6.038   6.995   0.705 -0.8132 -0.9075 -0.5942
 6020SOL    HW118959   6.060   6.915   0.761  0.4818 -1.0755 -1.3208
 6020SOL    HW218960   5.975   6.968   0.632 -0.5884 -1.2055 -0.6774
 6021SOL     OW18961   2.353   1.069   3.457  0.2482 -0.0425  0.5151
 6021SOL    HW118962   2.282   1.072   3.386 -0.6631  1.0011  1.4319
 6021SOL    HW218963   2.354   0.978   3.499 -1.0795  0.1357  0.9803
 6022SOL     OW18964   3.558   1.177   4.750  0.4032  0.5127 -0.8314
 6022SOL    HW118965   3.543   1.137   4.841  0.0147 -0.7523 -1.4329
 6022SOL    HW218966   3.470   1.200   4.708  0.5714  0.8504 -1.0077
 6023SOL     OW18967   2.533   5.823   2.668 -0.1413  0.4221 -0.1023
 6023SOL    HW118968   2.557   5.858   2.577  0.1977  0.7039  0.0969
 6023SOL    HW218969   2.435   5.801   2.670 -0.0415 -0.1067 -0.7092
 6024SOL     OW18970   0.337   3.347   3.645 -0.2716 -0.7351 -0.2283
 6024SOL    HW118971   0.335   3.436   3.600 -0.1463 -0.2881  0.6368
 6024SOL    HW218972   0.296   3.354   3.735  1.2010 -1.1666  0.5070
 6025SOL     OW18973   4.315   1.022   1.832 -0.2719  0.3419  0.2201
 6025SOL    HW118974   4.261   0.942   1.806  1.7117 -0.7456 -0.7660
 6025SOL    HW218975   4.389   0.994   1.893  0.3250  1.4708  0.0433
 6026SOL     OW18976   0.724   1.738   2.045  0.9389 -0.0671  0.0404
 6026SOL    HW118977   0.793   1.711   1.978  1.1266  0.0035  0.2055
 6026SOL    HW218978   0.768   1.780   2.123  0.5440  2.6104 -1.0722
 6027SOL     OW18979   5.659   4.600   5.575 -0.0880  0.1268  0.1522
 6027SOL    HW118980   5.608   4.545   5.640 -0.1624  0.0454  0.0245
 6027SOL    HW218981   5.755   4.604   5.603 -0.1948  0.4211  0.4862
 6028SOL     OW18982   1.783   3.159   7.015  0.1725  0.1679 -0.2440
 6028SOL    HW118983   1.748   3.251   7.031  0.2377  0.3479 -1.0815
 6028SOL    HW218984   1.706   3.096   7.007  0.0172  0.4799 -1.5678
 6029SOL     OW18985   1.620   7.016   4.984  0.3460  0.1076 -0.3350
 6029SOL    HW118986   1.693   7.033   4.917  0.0414  2.5012 -0.1276
 6029SOL    HW218987   1.654   7.031   5.076  0.0409 -0.4789 -0.1216
 6030SOL     OW18988   4.469   7.002   3.979  0.9438  0.1456 -0.1166
 6030SOL    HW118989   4.450   7.100   3.989 -2.2439 -0.4651  1.0378
 6030SOL    HW218990   4.526   6.988   3.898 -0.0531  2.8361 -1.4390
 6031SOL     OW18991   2.797   4.764   4.292  0.1237 -0.3831  0.1220
 6031SOL    HW118992   2.863   4.753   4.366 -0.1682 -0.2414  0.4066
 6031SOL    HW218993   2.781   4.861   4.274 -0.6860 -0.3962  0.6819
 6032SOL     OW18994   1.348   4.617   3.420  0.1012  0.4485  0.6717
 6032SOL    HW118995   1.410   4.650   3.348 -0.3340  1.8990  0.9349
 6032SOL    HW218996   1.394   4.622   3.508  0.2713 -0.3410  0.6354
 6033SOL     OW18997   3.695   1.435   4.010 -0.2874  0.0051 -0.4629
 6033SOL    HW118998   3.627   1.435   3.936  0.2312  2.0912 -0.9978
 6033SOL    HW218999   3.767   1.370   3.989 -0.1536  0.5571 -1.8125
 6034SOL     OW19000   0.757   4.827   4.455  0.5087 -0.0065 -0.4594
 6034SOL    HW119001   0.765   4.739   4.502  1.4494 -0.0376 -0.6520
 6034SOL    HW219002   0.746   4.900   4.523 -0.5117 -0.2827 -0.3077
 6035SOL     OW19003   0.655   1.459   3.466 -0.2045 -0.2491 -0.0364
 6035SOL    HW119004   0.741   1.509   3.468 -0.3394  0.0107 -0.7534
 6035SOL    HW219005   0.648   1.402   3.548  1.0977 -1.0264 -0.4410
 6036SOL     OW19006   6.498   6.219   4.077 -0.1967 -0.4771  0.2221
 6036SOL    HW119007   6.432   6.289   4.049  0.8712  0.2636 -0.5140
 6036SOL    HW219008   6.539   6.178   3.996  0.1845 -0.9905  0.6685
 6037SOL     OW19009   0.012   4.415   6.354  0.2903 -0.8475  0.0535
 6037SOL    HW119010  -0.007   4.329   6.401 -1.2529 -0.2326  0.6298
 6037SOL    HW219011  -0.023   4.410   6.261  0.1943 -0.8452  0.0890
 6038SOL     OW19012   1.346   2.291   0.009  0.1621  0.1628  0.1744
 6038SOL    HW119013   1.381   2.229  -0.061 -0.1143 -0.0250  0.1977
 6038SOL    HW219014   1.417   2.309   0.076  0.5982  0.7749 -0.4416
 6039SOL     OW19015   3.620   4.048   2.905 -0.2152 -0.4598  0.3207
 6039SOL    HW119016   3.574   4.074   2.819  0.4814  2.4996  0.7451
 6039SOL    HW219017   3.706   4.002   2.884  0.0482  0.4172 -0.6134
 6040SOL     OW19018   1.032   1.381   1.171  0.8425 -0.3046  0.4104
 6040SOL    HW119019   1.021   1.294   1.123  0.0274 -0.3621  0.6905
 6040SOL    HW219020   1.118   1.380   1.222  1.0796 -0.7483  0.0094
 6041SOL     OW19021   1.711   1.004   5.628 -0.2143  0.2435 -0.1098
 6041SOL    HW119022   1.730   1.102   5.624 -1.8662  0.5998  0.0844
 6041SOL    HW219023   1.787   0.953   5.588  2.1026  1.3878  2.5535
 6042SOL     OW19024   5.995   4.835   2.450 -0.3881 -0.1620  0.0183
 6042SOL    HW119025   6.072   4.794   2.402  0.7040  0.0310  1.5340
 6042SOL    HW219026   6.026   4.872   2.538 -1.7967  1.8217 -0.2483
 6043SOL     OW19027   0.026   4.312   5.605  0.0058  0.3441  0.1661
 6043SOL    HW119028   0.101   4.278   5.662  0.4068  0.3148 -0.3790
 6043SOL    HW219029   0.011   4.250   5.529 -1.2666 -0.2103  0.8340
 6044SOL     OW19030   0.846   4.100   0.309  0.3333 -0.2441  0.0496
 6044SOL    HW119031   0.865   4.131   0.402  0.1149 -0.7608  0.2703
 6044SOL    HW219032   0.921   4.042   0.277  1.7669  2.1003 -1.1343
 6045SOL     OW19033   6.457   6.610   0.104  0.3216 -0.3525 -0.4417
 6045SOL    HW119034   6.461   6.513   0.129  0.3327 -0.3315 -0.3627
 6045SOL    HW219035   6.458   6.666   0.187 -1.1750 -0.3251 -0.4022
 6046SOL     OW19036   4.575   2.315   6.824  0.2517  1.0365  0.5382
 6046SOL    HW119037   4.480   2.323   6.856 -0.7163 -1.0653 -1.5412
 6046SOL    HW219038   4.598   2.397   6.771 -1.3951  0.4689 -1.1811
 6047SOL     OW19039   5.575   3.745   1.445 -0.1892  0.1858 -0.2364
 6047SOL    HW119040   5.498   3.723   1.385 -0.3869  0.2720 -0.0137
 6047SOL    HW219041   5.583   3.675   1.515  0.5679 -0.3725 -0.8671
 6048SOL     OW19042   3.445   0.714   3.623 -0.3925  0.2288 -0.3013
 6048SOL    HW119043   3.544   0.708   3.630 -0.4229 -0.3033 -0.2374
 6048SOL    HW219044   3.403   0.657   3.694 -0.7210 -1.3714 -1.6932
 6049SOL     OW19045   5.206   2.955   4.144  0.4130  0.5943  0.1218
 6049SOL    HW119046   5.294   2.986   4.181 -0.3093  1.6559  0.9952
 6049SOL    HW219047   5.209   2.960   4.044  2.1819 -1.7681 -0.0463
 6050SOL     OW19048   3.989   5.161   5.997  0.1095  0.0762  0.1137
 6050SOL    HW119049   3.923   5.129   5.929 -0.0751 -0.9399  0.7471
 6050SOL    HW219050   3.948   5.233   6.053 -0.0760  0.2070 -0.1875
 6051SOL     OW19051   5.051   2.480   2.794 -0.0049  0.1719 -0.7103
 6051SOL    HW119052   5.019   2.569   2.762  1.3895  1.0171  0.1614
 6051SOL    HW219053   5.013   2.461   2.884 -0.2796 -0.1169 -0.8835
 6052SOL     OW19054   5.392   6.482   6.664 -0.6050  0.6503  1.0096
 6052SOL    HW119055   5.406   6.447   6.757  0.9247 -1.0213  0.2203
 6052SOL    HW219056   5.347   6.412   6.609  1.6133  0.2298 -0.3682
 6053SOL     OW19057   3.287   6.710   6.421 -0.7459  0.5502 -0.2087
 6053SOL    HW119058   3.223   6.720   6.345  0.3626 -2.1305 -1.6556
 6053SOL    HW219059   3.372   6.670   6.387  0.0796 -0.0342  2.3523
 6054SOL     OW19060   3.113   4.176   0.816 -0.7698 -0.5087  0.3463
 6054SOL    HW119061   3.099   4.234   0.895  2.2608  0.4374  0.3260
 6054SOL    HW219062   3.069   4.216   0.736  1.0698  1.8014  0.3781
 6055SOL     OW19063   5.434   1.340   5.666 -0.9512 -0.2265  0.3526
 6055SOL    HW119064   5.447   1.242   5.652 -2.0069 -0.2834 -0.3652
 6055SOL    HW219065   5.523   1.385   5.675 -0.4569 -1.2760  0.9860
 6056SOL     OW19066   4.120   2.003   4.798 -0.8933 -0.3049 -0.0342
 6056SOL    HW119067   4.054   1.969   4.731 -1.5547  0.4718  0.2021
 6056SOL    HW219068   4.081   2.083   4.845 -0.2847 -0.6013  0.9932
 6057SOL     OW19069   4.546   4.186   5.983  0.2291 -0.3745  0.1368
 6057SOL    HW119070   4.641   4.211   6.002  0.4246 -0.8466 -0.1994
 6057SOL    HW219071   4.534   4.088   5.996 -0.5877 -0.1037  1.7056
 6058SOL     OW19072   4.187   1.240   3.613  0.6480  0.2810 -0.0169
 6058SOL    HW119073   4.087   1.229   3.611  0.5997  0.8138 -0.7772
 6058SOL    HW219074   4.220   1.261   3.522  1.7418 -2.0823 -0.2363
 6059SOL     OW19075   3.730   6.990   4.864 -0.8798  0.8221 -0.1768
 6059SOL    HW119076   3.696   7.083   4.876 -4.8448 -0.6133  1.3155
 6059SOL    HW219077   3.699   6.954   4.776 -1.4618  0.1501  0.2935
 6060SOL     OW19078   4.098   3.719   3.840  0.2733 -0.5114  0.1253
 6060SOL    HW119079   4.061   3.811   3.833  0.1084 -0.5463  0.5404
 6060SOL    HW219080   4.069   3.677   3.926 -0.4231 -1.2904 -0.4767
 6061SOL     OW19081   6.151   2.688   0.881 -0.0108 -0.1882  0.1071
 6061SOL    HW119082   6.103   2.774   0.864 -1.7218 -1.0637  0.3649
 6061SOL    HW219083   6.124   2.621   0.813  1.6653 -0.4379 -0.3732
 6062SOL     OW19084   1.910   6.328   4.968 -0.5673  0.9739 -0.1564
 6062SOL    HW119085   1.838   6.359   5.030 -0.1773  0.5228  0.5342
 6062SOL    HW219086   1.873   6.264   4.901 -0.9762  1.4122 -0.3542
 6063SOL     OW19087   4.612   0.462   6.664  0.6801 -0.1329 -0.1788
 6063SOL    HW119088   4.643   0.393   6.729  0.5020  0.4239  0.5010
 6063SOL    HW219089   4.646   0.552   6.691 -1.0057  0.4087  0.2512
 6064SOL     OW19090   4.584   5.732   1.050 -0.4363  0.0006 -0.7885
 6064SOL    HW119091   4.658   5.690   0.999  0.1748 -1.7825  1.3987
 6064SOL    HW219092   4.614   5.820   1.086  0.7681 -0.8067  0.2725
 6065SOL     OW19093   5.927   0.596   3.978 -0.1482  0.0248 -0.3274
 6065SOL    HW119094   5.914   0.618   3.881  0.3543  3.4446  0.2686
 6065SOL    HW219095   6.023   0.574   3.994 -0.0049  0.5511 -0.4421
 6066SOL     OW19096   4.519   0.923   0.176 -0.2040 -0.1400 -0.0988
 6066SOL    HW119097   4.426   0.891   0.162 -1.0359  1.8883  0.5336
 6066SOL    HW219098   4.558   0.877   0.256 -0.3268 -1.5976 -0.8370
 6067SOL     OW19099   3.636   4.109   0.010  0.5473 -0.0104 -0.2438
 6067SOL    HW119100   3.735   4.101   0.003  0.3352 -2.7299 -1.5587
 6067SOL    HW219101   3.605   4.067   0.095  0.4589 -0.0813 -0.3103
 6068SOL     OW19102   5.550   3.552   5.725  0.2610  0.1911 -0.2215
 6068SOL    HW119103   5.574   3.644   5.757  2.6530 -1.1428  2.2760
 6068SOL    HW219104   5.498   3.505   5.796  0.0227 -0.7545 -1.0097
 6069SOL     OW19105   0.372   1.867   4.130 -0.2679 -0.4334 -0.4515
 6069SOL    HW119106   0.329   1.824   4.051  0.7709 -1.3772 -0.5241
 6069SOL    HW219107   0.393   1.963   4.108  1.4797 -1.0991 -1.9534
 6070SOL     OW19108   3.447   2.020   6.037  0.0509 -0.4194  0.2224
 6070SOL    HW119109   3.363   2.003   6.088 -0.2399 -0.4871 -0.2667
 6070SOL    HW219110   3.437   1.984   5.944  0.1643  0.6216 -0.2117
 6071SOL     OW19111   2.700   5.382   5.531  0.5309 -0.5690  0.1743
 6071SOL    HW119112   2.603   5.398   5.514  0.3655 -0.1531  1.4016
 6071SOL    HW219113   2.731   5.303   5.478  0.7653  2.1014 -4.1890
 6072SOL     OW19114   1.164   0.066   2.010  0.3428  0.2207  0.0689
 6072SOL    HW119115   1.119  -0.024   2.006 -0.6355  0.5587  2.1459
 6072SOL    HW219116   1.262   0.053   2.025 -0.0054 -0.5237  1.8650
 6073SOL     OW19117   6.897   3.890   1.112 -0.5570  0.2260 -0.3655
 6073SOL    HW119118   6.992   3.910   1.138 -0.2113  0.4009 -1.6724
 6073SOL    HW219119   6.840   3.888   1.194  0.4505  0.8154  0.3828
 6074SOL     OW19120   0.717   1.055   4.801 -0.3040  0.2898 -0.1373
 6074SOL    HW119121   0.749   0.975   4.751 -2.3945  0.0088 -1.1638
 6074SOL    HW219122   0.734   1.137   4.747 -1.8283  0.0698 -1.0112
 6075SOL     OW19123   0.802   0.558   1.086 -0.1123 -0.7340 -0.3984
 6075SOL    HW119124   0.860   0.499   1.029 -0.6936 -2.4950  0.7579
 6075SOL    HW219125   0.851   0.584   1.168 -0.3743 -0.8435 -0.2064
 6076SOL     OW19126   2.818   4.431   5.616  0.3971  0.4329 -0.2557
 6076SOL    HW119127   2.874   4.370   5.560 -0.9065 -0.2672 -0.8249
 6076SOL    HW219128   2.792   4.512   5.562 -1.6193 -0.6709 -1.0259
 6077SOL     OW19129   3.905   5.100   0.977  0.0142 -0.6498 -0.4912
 6077SOL    HW119130   3.810   5.078   0.999 -0.9514  2.0235 -1.5264
 6077SOL    HW219131   3.948   5.022   0.931 -0.4517 -3.2506  3.0993
 6078SOL     OW19132   3.935   4.882   2.903 -0.3361 -0.2543  0.3440
 6078SOL    HW119133   3.884   4.905   2.820 -0.1330  0.3379  0.3796
 6078SOL    HW219134   4.032   4.902   2.890 -0.2220 -0.6612  0.5434
 6079SOL     OW19135   2.784   3.677   5.756  0.9607  0.4971  0.7439
 6079SOL    HW119136   2.818   3.736   5.684 -1.2168  0.0694 -0.7191
 6079SOL    HW219137   2.777   3.583   5.722 -0.2511  0.3182  1.4345
 6080SOL     OW19138   0.010   0.809   2.231 -0.2396  0.3384 -0.3869
 6080SOL    HW119139   0.046   0.789   2.140  0.5538 -0.7698  0.1469
 6080SOL    HW219140   0.066   0.763   2.300 -1.6900 -0.0184  0.5871
 6081SOL     OW19141   0.859   2.687   5.638 -0.0792  0.2724  0.1303
 6081SOL    HW119142   0.829   2.782   5.628  0.8601  0.6611  0.9306
 6081SOL    HW219143   0.859   2.644   5.548  0.0128  1.1943 -0.3292
 6082SOL     OW19144   2.800   2.331   3.410  1.1706  0.5404 -0.4196
 6082SOL    HW119145   2.813   2.428   3.390 -2.7127  1.6797  1.6367
 6082SOL    HW219146   2.774   2.319   3.505  2.8323 -2.8006 -0.2176
 6083SOL     OW19147   0.297   5.157   6.421  0.1671  0.2867 -0.1109
 6083SOL    HW119148   0.208   5.174   6.379 -0.7313  1.8684  2.2040
 6083SOL    HW219149   0.366   5.144   6.350 -1.4532  1.4508 -2.0008
 6084SOL     OW19150   7.010   6.529   2.809  0.2638  0.0925 -0.3003
 6084SOL    HW119151   7.077   6.463   2.844  0.0772 -0.3866 -0.8201
 6084SOL    HW219152   6.943   6.481   2.752 -0.4471  0.5887  0.1014
 6085SOL     OW19153   0.285   4.547   0.398  0.1645 -0.1478 -0.0870
 6085SOL    HW119154   0.229   4.466   0.415 -0.0760 -0.0937 -0.5998
 6085SOL    HW219155   0.251   4.594   0.316  1.9384 -1.0256 -1.4097
 6086SOL     OW19156   2.972   1.276   3.600  0.0278  0.2366  0.3265
 6086SOL    HW119157   3.014   1.366   3.606  0.5003 -0.0758  2.4373
 6086SOL    HW219158   2.893   1.272   3.662 -0.6834 -0.4594 -0.5906
 6087SOL     OW19159   5.897   0.137   0.848 -0.1596 -0.6663  0.8860
 6087SOL    HW119160   5.975   0.096   0.799 -0.2253  0.1309  0.0760
 6087SOL    HW219161   5.861   0.214   0.794  0.0405  0.5431  2.4005
 6088SOL     OW19162   0.038   0.126   6.595  0.8192  0.0893  0.3073
 6088SOL    HW119163  -0.041   0.186   6.584  2.4573  2.2891 -0.1272
 6088SOL    HW219164   0.073   0.135   6.688  1.0939 -0.1885  0.2291
 6089SOL     OW19165   0.355   4.640   0.785  0.1038  0.0538 -0.1832
 6089SOL    HW119166   0.424   4.583   0.739 -0.8500 -0.2569 -1.2710
 6089SOL    HW219167   0.357   4.622   0.883  0.9034 -0.6664 -0.3212
 6090SOL     OW19168   3.582   6.252   6.460 -0.2087  0.0927  0.1656
 6090SOL    HW119169   3.646   6.228   6.386  0.4476 -1.7266  1.2716
 6090SOL    HW219170   3.490   6.223   6.434 -0.1024  0.0980 -0.2342
 6091SOL     OW19171   1.462   1.901   0.521  0.3971  0.0828  0.2607
 6091SOL    HW119172   1.554   1.937   0.536  1.0936  0.0265 -3.0566
 6091SOL    HW219173   1.469   1.807   0.487 -0.6975  0.7674 -2.0208
 6092SOL     OW19174   4.210   5.839   3.061 -0.5026  0.6118  0.3825
 6092SOL    HW119175   4.294   5.792   3.088 -1.1132 -0.3150  0.7310
 6092SOL    HW219176   4.166   5.878   3.142 -0.7815  0.4549  0.3092
 6093SOL     OW19177   2.094   2.735   4.169 -0.4905 -0.5694  1.0619
 6093SOL    HW119178   2.060   2.642   4.157 -0.3434 -0.3764 -1.4252
 6093SOL    HW219179   2.190   2.740   4.139 -1.3307  0.8930 -1.8594
 6094SOL     OW19180   4.807   1.900   0.706 -0.1287  0.9093 -0.2543
 6094SOL    HW119181   4.803   1.874   0.610  0.3742  2.5151 -0.7396
 6094SOL    HW219182   4.714   1.916   0.741 -0.5693 -2.2951  0.3519
 6095SOL     OW19183   6.123   3.586   5.957 -0.2689 -0.3601  0.5570
 6095SOL    HW119184   6.185   3.580   5.879 -0.6253  0.1822  0.2315
 6095SOL    HW219185   6.063   3.506   5.958 -0.2358 -0.3886  0.3036
 6096SOL     OW19186   5.315   0.477   3.767 -0.4115  0.1998 -0.6817
 6096SOL    HW119187   5.315   0.549   3.836 -0.0770 -1.9576  1.7247
 6096SOL    HW219188   5.407   0.467   3.729 -0.5220  1.1870 -1.2334
 6097SOL     OW19189   2.341   6.885   1.118 -0.1480  0.7171 -0.0530
 6097SOL    HW119190   2.401   6.821   1.166  0.0837  2.1402  1.6812
 6097SOL    HW219191   2.252   6.842   1.101  0.7308 -0.7844 -0.9656
 6098SOL     OW19192   1.224   1.072   5.657  0.8710  0.2403 -0.3275
 6098SOL    HW119193   1.259   1.016   5.732 -1.6769 -0.1918  0.6493
 6098SOL    HW219194   1.199   1.162   5.693 -1.4842 -0.3590 -0.2931
 6099SOL     OW19195   6.742   5.105   1.140  0.2317 -0.0270  0.2175
 6099SOL    HW119196   6.643   5.101   1.134  0.2827  0.4119 -1.5050
 6099SOL    HW219197   6.772   5.200   1.131  0.7721 -0.0102  1.9043
 6100SOL     OW19198   5.508   3.172   6.987  0.3281  0.1288  0.0904
 6100SOL    HW119199   5.411   3.186   7.007  0.1628 -0.8465 -0.0153
 6100SOL    HW219200   5.558   3.256   7.008 -0.7308  1.1114 -1.1170
 6101SOL     OW19201   4.927   2.674   6.687  0.3726  0.3767  0.1669
 6101SOL    HW119202   4.979   2.598   6.728  1.1323  0.1088 -1.2105
 6101SOL    HW219203   4.955   2.685   6.592 -1.4842  0.8237 -0.3686
 6102SOL     OW19204   4.757   2.098   3.405 -0.4097 -0.4657 -0.0307
 6102SOL    HW119205   4.853   2.097   3.430 -0.0575  0.5268 -1.2133
 6102SOL    HW219206   4.704   2.145   3.476  0.0396 -0.6195  0.4101
 6103SOL     OW19207   0.034   0.491   2.611 -0.4606  0.2466  0.0582
 6103SOL    HW119208   0.066   0.431   2.685  1.5670  2.0880  0.7721
 6103SOL    HW219209  -0.042   0.547   2.644 -0.7419 -0.1854  0.1586
 6104SOL     OW19210   6.214   4.145   6.970  0.3258  0.3905  0.2704
 6104SOL    HW119211   6.221   4.097   6.883  0.2211 -1.4370  1.2214
 6104SOL    HW219212   6.119   4.147   7.000  0.5277 -0.3715  1.0356
 6105SOL     OW19213   3.090   0.695   5.670  0.0808 -0.3217  0.5607
 6105SOL    HW119214   3.020   0.738   5.613  1.3231  1.2970  0.1985
 6105SOL    HW219215   3.051   0.613   5.714 -1.3683 -0.7308 -1.3430
 6106SOL     OW19216   0.377   4.584   1.051 -0.6396 -0.1325  0.1150
 6106SOL    HW119217   0.336   4.607   1.139 -2.3008 -2.6421  0.1054
 6106SOL    HW219218   0.445   4.512   1.063  0.3723  0.6799 -0.4943
 6107SOL     OW19219   1.497   4.121   5.505 -0.0238 -0.4020  0.0471
 6107SOL    HW119220   1.533   4.064   5.578  1.0637 -0.5670 -0.6050
 6107SOL    HW219221   1.414   4.080   5.467 -0.8112 -0.1292  1.4102
 6108SOL     OW19222   1.329   1.894   1.019 -0.1788 -0.1927 -0.2482
 6108SOL    HW119223   1.422   1.914   1.051 -0.4715  0.8664 -0.0395
 6108SOL    HW219224   1.293   1.972   0.968 -0.9084 -0.6492 -0.4511
 6109SOL     OW19225   6.497   5.539   0.190 -0.4355  0.5387  0.2490
 6109SOL    HW119226   6.444   5.599   0.131 -0.8083  1.1247  1.1555
 6109SOL    HW219227   6.436   5.484   0.246 -0.1244  1.6381  1.7200
 6110SOL     OW19228   1.787   3.338   6.530  0.0645 -1.1749 -0.4418
 6110SOL    HW119229   1.877   3.304   6.501  2.9414  4.6284  0.3291
 6110SOL    HW219230   1.735   3.368   6.450  1.8275  1.5537 -0.6723
 6111SOL     OW19231   2.079   4.432   2.559 -0.3076  0.7719  0.4408
 6111SOL    HW119232   2.144   4.387   2.498 -0.8750  1.3633 -0.6368
 6111SOL    HW219233   2.074   4.382   2.645  0.2542 -0.2936 -0.1224
 6112SOL     OW19234   1.878   1.253   3.501 -0.4707 -0.4796  0.4917
 6112SOL    HW119235   1.805   1.243   3.433 -0.8912  0.4567  0.7921
 6112SOL    HW219236   1.950   1.187   3.481 -0.7578 -0.4813 -0.6471
 6113SOL     OW19237   0.815   6.519   6.492 -0.3480 -0.4089  0.4043
 6113SOL    HW119238   0.780   6.611   6.512 -0.4937 -0.5575  0.8612
 6113SOL    HW219239   0.909   6.526   6.458 -0.9142  0.0199 -1.1639
 6114SOL     OW19240   3.600   5.083   1.110 -0.5811  0.1308  0.2598
 6114SOL    HW119241   3.529   5.013   1.106 -0.0745 -0.4640 -4.7104
 6114SOL    HW219242   3.562   5.172   1.083  0.0677  0.2623 -0.2736
 6115SOL     OW19243   3.509   4.991   4.003 -0.2891  0.2825 -0.1308
 6115SOL    HW119244   3.436   4.949   4.058 -0.5370  1.8654  0.8078
 6115SOL    HW219245   3.470   5.061   3.943  0.2665  0.0239 -0.8095
 6116SOL     OW19246   3.115   0.441   0.834 -0.2209 -0.1321  0.6527
 6116SOL    HW119247   3.137   0.487   0.919 -0.1169 -1.2176  1.2315
 6116SOL    HW219248   3.173   0.360   0.824 -1.1896 -0.7987  0.2418
 6117SOL     OW19249   6.065   2.374   6.485 -0.0586 -0.2818 -0.0687
 6117SOL    HW119250   5.971   2.348   6.461  0.3202 -0.2845 -1.6539
 6117SOL    HW219251   6.122   2.373   6.403  0.5755  3.1392  0.1825
 6118SOL     OW19252   6.685   1.056   1.959  0.0539  0.0117  0.2455
 6118SOL    HW119253   6.648   0.974   2.003  0.2913 -1.3791 -1.9582
 6118SOL    HW219254   6.783   1.062   1.978 -0.0531  0.0620  0.8023
 6119SOL     OW19255   0.839   2.356   5.075  0.3942 -0.3809  0.7630
 6119SOL    HW119256   0.913   2.419   5.049  0.1227 -0.0021  0.9150
 6119SOL    HW219257   0.835   2.347   5.174  0.1042 -0.2453  0.7638
 6120SOL     OW19258   5.029   6.850   3.092  0.5455 -0.4466 -0.2440
 6120SOL    HW119259   4.961   6.856   3.164 -0.4056 -0.5924 -1.1091
 6120SOL    HW219260   4.986   6.866   3.003  1.8975  0.9036 -0.7087
 6121SOL     OW19261   1.653   4.266   3.530 -0.0175 -0.4154 -0.1362
 6121SOL    HW119262   1.687   4.315   3.450 -0.2177  0.0871  0.0831
 6121SOL    HW219263   1.730   4.239   3.588 -0.0185  2.5902  1.4590
 6122SOL     OW19264   3.096   0.869   2.310  0.1587 -0.1539 -0.9068
 6122SOL    HW119265   3.010   0.824   2.334  1.2742 -2.1055 -0.2862
 6122SOL    HW219266   3.124   0.930   2.385 -1.0841  1.1873 -1.4992
 6123SOL     OW19267   0.817   6.445   6.037  0.0875  0.0133 -0.5072
 6123SOL    HW119268   0.740   6.401   5.991 -0.3783 -2.0764  1.9871
 6123SOL    HW219269   0.788   6.533   6.075 -0.7700 -0.2504 -0.5286
 6124SOL     OW19270   2.944   0.816   5.457 -0.0592 -0.3123 -0.1687
 6124SOL    HW119271   2.982   0.904   5.428  1.1546 -0.5721  0.5501
 6124SOL    HW219272   2.847   0.827   5.478  0.0531  0.8453 -0.1701
 6125SOL     OW19273   3.962   4.919   6.136 -0.2408  0.3601 -0.1729
 6125SOL    HW119274   3.999   4.891   6.225  0.3366 -0.4459 -0.6550
 6125SOL    HW219275   3.994   5.011   6.115  0.9680 -0.0639 -0.2696
 6126SOL     OW19276   5.071   5.428   4.463 -0.1320  0.1471  0.1027
 6126SOL    HW119277   5.022   5.458   4.544  0.1101 -0.6453  0.5510
 6126SOL    HW219278   5.007   5.420   4.386 -0.5922 -0.2712  0.5241
 6127SOL     OW19279   3.294   2.066   2.326 -0.6196  0.1984 -0.2763
 6127SOL    HW119280   3.212   2.106   2.285  0.0742 -1.1850 -3.3045
 6127SOL    HW219281   3.350   2.024   2.254  1.1278 -1.8106  2.0859
 6128SOL     OW19282   6.207   2.425   1.448  0.6820  0.3347  0.4105
 6128SOL    HW119283   6.265   2.483   1.390 -2.5643  2.7137 -0.7348
 6128SOL    HW219284   6.198   2.467   1.539  0.1697  0.3884  0.3367
 6129SOL     OW19285   6.071   4.372   3.273  0.2321 -0.6354  0.1342
 6129SOL    HW119286   5.997   4.363   3.207  0.3739 -0.5840 -0.0302
 6129SOL    HW219287   6.033   4.404   3.361  0.1253 -0.1352 -0.0888
 6130SOL     OW19288   5.833   1.154   5.717  0.0103 -0.2777 -0.9547
 6130SOL    HW119289   5.873   1.230   5.666 -0.5150  0.8296  0.2257
 6130SOL    HW219290   5.808   1.080   5.654 -1.7166  1.5068 -2.4711
 6131SOL     OW19291   0.415   2.526   4.112 -0.0296 -0.5523 -0.1556
 6131SOL    HW119292   0.497   2.504   4.059  0.1049 -0.0695 -0.1580
 6131SOL    HW219293   0.400   2.625   4.109 -0.6086 -0.6392 -0.1471
 6132SOL     OW19294   5.850   1.889   0.231  0.2823  0.3063  0.5461
 6132SOL    HW119295   5.795   1.931   0.303 -0.4737  0.9820 -0.4045
 6132SOL    HW219296   5.792   1.829   0.176  0.5881  0.6841 -0.1980
 6133SOL     OW19297   1.527   1.815   2.259 -0.1029  0.3797 -0.4167
 6133SOL    HW119298   1.431   1.816   2.285  0.1763  0.1588  0.6788
 6133SOL    HW219299   1.579   1.876   2.320  0.3119  1.2548 -1.6022
 6134SOL     OW19300   2.405   5.457   1.418  0.2571  0.0386  0.7006
 6134SOL    HW119301   2.325   5.485   1.365 -0.8695  0.2105  2.4101
 6134SOL    HW219302   2.460   5.538   1.440 -0.8496  0.4448  2.2100
 6135SOL     OW19303   1.734   5.952   2.647 -0.0072  0.0771 -0.4387
 6135SOL    HW119304   1.692   5.870   2.607  2.2755 -0.0302 -2.8789
 6135SOL    HW219305   1.739   6.024   2.577 -0.9734  1.9707  1.3512
 6136SOL     OW19306   1.373   0.641   4.094 -0.7368 -0.3518 -0.1755
 6136SOL    HW119307   1.348   0.737   4.103 -3.0572 -0.8449 -0.7493
 6136SOL    HW219308   1.301   0.584   4.131  0.7370 -1.9072  0.4371
 6137SOL     OW19309   4.193   2.493   5.688  0.3302  0.7661 -0.4358
 6137SOL    HW119310   4.211   2.587   5.718 -0.6812  0.3084  1.8207
 6137SOL    HW219311   4.104   2.488   5.644 -0.4929  0.5719  1.1887
 6138SOL     OW19312   3.718   6.150   2.807  0.2453 -0.0247  0.0514
 6138SOL    HW119313   3.688   6.218   2.741  1.2804  0.1614 -0.2385
 6138SOL    HW219314   3.791   6.094   2.767  0.7374 -0.0446  0.9536
 6139SOL     OW19315   1.996   2.278   3.810 -0.3037 -0.4797 -0.0564
 6139SOL    HW119316   2.072   2.287   3.874  0.2531 -2.5961 -0.3687
 6139SOL    HW219317   1.912   2.259   3.860  0.6142 -5.2800  0.1460
 6140SOL     OW19318   1.039   4.762   1.579 -0.2111 -0.3015  0.4728
 6140SOL    HW119319   0.999   4.771   1.488 -0.8141 -1.4925  0.5973
 6140SOL    HW219320   0.967   4.742   1.645  0.2493  0.3309  1.1800
 6141SOL     OW19321   5.093   4.963   3.780  0.0315  0.5430  0.1564
 6141SOL    HW119322   5.094   4.967   3.879  0.7218 -0.8215  0.2334
 6141SOL    HW219323   5.005   4.927   3.748 -0.0859  0.7111  0.2965
 6142SOL     OW19324   5.153   3.979   1.074 -0.0257  0.2835 -0.2525
 6142SOL    HW119325   5.072   3.981   1.016  1.2632 -2.2709 -2.3673
 6142SOL    HW219326   5.135   3.924   1.156 -0.1289 -1.3651 -1.3426
 6143SOL     OW19327   3.506   5.333   1.142  0.1591  0.0604 -0.0282
 6143SOL    HW119328   3.523   5.298   1.234 -0.1731 -1.3561 -0.4806
 6143SOL    HW219329   3.411   5.363   1.134  0.6121  1.7843  0.5575
 6144SOL     OW19330   5.902   6.023   2.674  0.5222  0.4459  0.1462
 6144SOL    HW119331   5.975   5.965   2.709  0.3571 -1.4082 -2.3105
 6144SOL    HW219332   5.819   5.969   2.661 -0.5263  1.9182  0.4066
 6145SOL     OW19333   5.853   0.148   3.777  0.7519 -0.3378 -0.6389
 6145SOL    HW119334   5.784   0.096   3.828  1.5248 -0.7693 -0.0114
 6145SOL    HW219335   5.820   0.165   3.684 -1.4792  2.0452  0.4751
 6146SOL     OW19336   5.181   3.267   4.695  0.4252  0.0687  0.1341
 6146SOL    HW119337   5.155   3.361   4.715 -0.0951 -0.2550  1.0950
 6146SOL    HW219338   5.106   3.221   4.647  0.2990 -0.1047  0.4896
 6147SOL     OW19339   2.028   3.406   4.699 -0.0385 -0.1629  0.0146
 6147SOL    HW119340   1.937   3.396   4.739 -0.1811  0.7109 -0.0694
 6147SOL    HW219341   2.065   3.316   4.676 -1.2715 -0.4741 -0.8260
 6148SOL     OW19342   6.113   6.573   4.254 -0.0575  0.0892  0.8070
 6148SOL    HW119343   6.085   6.664   4.224  1.7346 -0.0383 -1.5367
 6148SOL    HW219344   6.050   6.505   4.216  0.5659  0.1474 -0.3872
 6149SOL     OW19345   5.243   6.593   3.671 -0.7024  0.3735 -0.4917
 6149SOL    HW119346   5.324   6.616   3.617 -1.0320 -1.3438 -1.8205
 6149SOL    HW219347   5.260   6.510   3.723 -0.7771  1.4101  1.2697
 6150SOL     OW19348   3.407   5.353   0.431  0.1224 -0.3177  0.2883
 6150SOL    HW119349   3.340   5.281   0.450  1.1960 -1.7806 -1.1372
 6150SOL    HW219350   3.400   5.380   0.335  0.6243  0.5256  0.4846
 6151SOL     OW19351   6.325   3.430   3.866 -0.4579 -0.1486  0.0124
 6151SOL    HW119352   6.328   3.396   3.960 -3.7248 -0.3772  0.1274
 6151SOL    HW219353   6.330   3.530   3.866 -1.1400 -0.1077  0.5141
 6152SOL     OW19354   5.009   5.615   6.637  0.0646  0.3278  0.9668
 6152SOL    HW119355   5.065   5.698   6.634  1.1658 -0.4027  0.5862
 6152SOL    HW219356   5.023   5.562   6.553  0.7900 -1.1191  1.9491
 6153SOL     OW19357   4.766   4.076   2.383  0.2442 -0.5138 -0.3356
 6153SOL    HW119358   4.728   4.151   2.329  1.6483  0.7997  0.4508
 6153SOL    HW219359   4.831   4.025   2.327  2.6149  1.5757  0.3320
 6154SOL     OW19360   5.779   2.012   2.731  0.1917 -0.4353  0.4913
 6154SOL    HW119361   5.869   1.991   2.771  0.2903 -0.1842  0.3984
 6154SOL    HW219362   5.729   2.074   2.792 -0.2031 -1.1227  0.8905
 6155SOL     OW19363   1.953   1.427   3.105 -0.0597 -0.1497 -0.2224
 6155SOL    HW119364   1.871   1.482   3.125 -1.0681 -1.1366 -1.4422
 6155SOL    HW219365   1.994   1.459   3.020  0.5199 -0.0025  0.1112
 6156SOL     OW19366   4.611   4.778   2.402 -0.8404  0.2260  0.6841
 6156SOL    HW119367   4.679   4.712   2.433 -0.5575 -0.0358 -0.4478
 6156SOL    HW219368   4.654   4.845   2.341 -1.6504 -0.1933 -0.3973
 6157SOL     OW19369   2.117   1.743   5.532  0.1277  0.6010  0.2682
 6157SOL    HW119370   2.082   1.750   5.439 -0.5804 -0.7114  0.4109
 6157SOL    HW219371   2.186   1.814   5.548  0.0196  1.0398 -1.1326
 6158SOL     OW19372   4.206   6.621   6.968  0.4004 -0.2638 -0.0877
 6158SOL    HW119373   4.144   6.699   6.979  1.0932  0.3178 -0.2195
 6158SOL    HW219374   4.181   6.570   6.885  0.8419  0.6812 -0.8199
 6159SOL     OW19375   5.328   3.971   6.793 -0.0190  0.3075  0.3954
 6159SOL    HW119376   5.307   4.048   6.732 -1.7492  0.1714  0.7627
 6159SOL    HW219377   5.300   3.885   6.749  0.8143 -0.0202  0.4757
 6160SOL     OW19378   6.390   0.173   1.633 -0.7530 -0.2231 -0.1670
 6160SOL    HW119379   6.407   0.264   1.596  0.8870  0.0376  1.0747
 6160SOL    HW219380   6.357   0.180   1.727  1.0780 -0.8667  0.5779
 6161SOL     OW19381   0.708   3.164   4.713  0.5331 -0.1261 -0.2138
 6161SOL    HW119382   0.781   3.227   4.689 -0.0092  0.4354 -0.4247
 6161SOL    HW219383   0.717   3.137   4.809 -0.7692  2.4462  0.7281
 6162SOL     OW19384   0.515   4.955   3.804 -0.0775 -0.2144 -0.1759
 6162SOL    HW119385   0.526   4.948   3.903 -1.3525 -2.2811 -0.1273
 6162SOL    HW219386   0.433   5.008   3.783 -1.3103 -1.9592  0.0000
 6163SOL     OW19387   6.216   6.561   2.022  0.1432  0.1817 -0.5037
 6163SOL    HW119388   6.234   6.584   2.118  1.3527 -1.1188 -0.3779
 6163SOL    HW219389   6.165   6.635   1.979  0.0169  1.0174  1.0071
 6164SOL     OW19390   1.815   5.222   1.049  0.1945 -0.4177 -0.4450
 6164SOL    HW119391   1.900   5.199   1.096 -0.0810 -0.7760 -0.1210
 6164SOL    HW219392   1.784   5.144   0.995  0.3835 -0.0875 -1.0398
 6165SOL     OW19393   3.695   6.880   0.887 -0.7313  0.1667 -0.3158
 6165SOL    HW119394   3.668   6.970   0.853 -1.0092  0.1870 -0.0443
 6165SOL    HW219395   3.618   6.838   0.936 -0.5356 -0.1272 -0.2578
 6166SOL     OW19396   4.760   1.387   5.249 -0.4696 -0.1054 -0.2647
 6166SOL    HW119397   4.717   1.366   5.337 -0.5202  1.7656  0.1998
 6166SOL    HW219398   4.857   1.362   5.252 -0.5615 -0.4178  0.1799
 6167SOL     OW19399   1.180   6.030   2.630  0.0474 -0.4464  0.1056
 6167SOL    HW119400   1.252   6.086   2.672 -0.0264 -0.2579 -0.0151
 6167SOL    HW219401   1.221   5.961   2.571  0.1168 -0.0842 -0.2749
 6168SOL     OW19402   6.301   1.505   6.199  0.1777 -0.2592  0.1010
 6168SOL    HW119403   6.337   1.598   6.204 -0.6378  0.0426  0.7592
 6168SOL    HW219404   6.324   1.464   6.111  0.3784  0.6365 -0.2733
 6169SOL     OW19405   0.751   3.255   2.068 -0.1134  0.1445 -0.1772
 6169SOL    HW119406   0.847   3.227   2.070 -0.1137 -0.2034 -2.3251
 6169SOL    HW219407   0.694   3.176   2.045 -0.6825  0.7637 -0.9467
 6170SOL     OW19408   0.709   3.682   3.982  0.3136 -0.2575 -0.4771
 6170SOL    HW119409   0.800   3.715   4.007  0.6957 -2.5667  1.5775
 6170SOL    HW219410   0.718   3.603   3.921 -0.1761 -1.4378  0.9189
 6171SOL     OW19411   0.613   2.915   0.931 -0.0596  0.6604  0.1457
 6171SOL    HW119412   0.640   2.972   0.853  0.6788  0.6177  0.3652
 6171SOL    HW219413   0.514   2.923   0.945  0.0235  1.9405  0.1992
 6172SOL     OW19414   2.067   1.447   1.976 -0.2556  0.1252 -0.0666
 6172SOL    HW119415   2.140   1.378   1.967  0.3611  0.6398  0.8366
 6172SOL    HW219416   2.083   1.520   1.910 -0.2693 -0.0345 -0.2493
 6173SOL     OW19417   5.156   6.549   1.504  0.1436 -0.4959 -0.2168
 6173SOL    HW119418   5.189   6.471   1.451  0.5600  0.7148 -1.7957
 6173SOL    HW219419   5.206   6.554   1.591  1.1458 -1.1211 -0.7504
 6174SOL     OW19420   4.333   0.710   2.858  0.1440 -0.2439  0.5555
 6174SOL    HW119421   4.362   0.645   2.788  2.5798  0.8543  0.4625
 6174SOL    HW219422   4.281   0.784   2.816  0.9006 -0.0147 -0.0019
 6175SOL     OW19423   3.656   2.027   3.009  0.3541  0.0995  0.6220
 6175SOL    HW119424   3.646   2.003   2.912  1.0132  1.3881  0.2076
 6175SOL    HW219425   3.656   1.943   3.064 -1.5916 -0.5821 -0.3178
 6176SOL     OW19426   3.694   4.502   5.507  0.0926 -0.0125 -0.0442
 6176SOL    HW119427   3.730   4.463   5.422  0.4030  0.3062 -0.0569
 6176SOL    HW219428   3.728   4.449   5.585 -1.6231 -1.4465 -0.1958
 6177SOL     OW19429   4.484   0.518   2.604  0.5012 -0.3500  0.1815
 6177SOL    HW119430   4.548   0.483   2.535 -1.5087 -1.0499 -1.4494
 6177SOL    HW219431   4.452   0.442   2.660 -0.5785 -0.4221 -0.5069
 6178SOL     OW19432   6.444   3.281   3.207 -0.4635  0.0777 -0.0039
 6178SOL    HW119433   6.439   3.215   3.283 -2.0092 -0.1120 -0.2404
 6178SOL    HW219434   6.491   3.239   3.130  1.4816  0.4008  0.9448
 6179SOL     OW19435   5.349   5.715   4.174  0.0813 -0.2694 -0.3906
 6179SOL    HW119436   5.348   5.637   4.111  0.5676 -0.2927 -0.3725
 6179SOL    HW219437   5.426   5.706   4.237  1.4880  1.3332 -1.8004
 6180SOL     OW19438   3.213   4.659   0.182  0.0316 -0.6646  0.7084
 6180SOL    HW119439   3.161   4.735   0.220 -0.1915 -0.2035 -0.4689
 6180SOL    HW219440   3.310   4.684   0.175 -0.1239 -0.2678 -0.1752
 6181SOL     OW19441   3.855   1.943   6.675  0.1149  0.3249 -0.0506
 6181SOL    HW119442   3.894   1.993   6.752 -0.8503  1.2367 -0.1289
 6181SOL    HW219443   3.877   1.990   6.590 -0.3770  0.3385 -0.1704
 6182SOL     OW19444   4.116   3.510   6.034 -0.2168 -0.1302  0.4573
 6182SOL    HW119445   4.151   3.551   6.119  1.6412  0.7124 -0.6624
 6182SOL    HW219446   4.089   3.415   6.052 -2.0324  0.6564  2.4738
 6183SOL     OW19447   2.926   2.065   1.460  0.2882  0.6069  0.0318
 6183SOL    HW119448   2.945   2.146   1.517  1.4740  1.1022 -1.0119
 6183SOL    HW219449   2.895   2.095   1.370  3.3026  0.0692 -1.3069
 6184SOL     OW19450   2.109   1.192   4.220  0.0276  0.4908 -0.0370
 6184SOL    HW119451   2.111   1.220   4.124  3.0858  1.7699  0.2842
 6184SOL    HW219452   2.095   1.272   4.278  0.6463  0.1214  0.6360
 6185SOL     OW19453   3.194   3.981   6.263 -0.4243 -0.1014  0.3199
 6185SOL    HW119454   3.274   4.038   6.280  0.2857 -1.6163  2.3004
 6185SOL    HW219455   3.119   4.010   6.323 -1.0739  0.6339 -0.7967
 6186SOL     OW19456   5.364   1.387   1.121 -0.6428 -0.5057 -0.5724
 6186SOL    HW119457   5.342   1.442   1.040 -0.1047  0.1022 -0.3246
 6186SOL    HW219458   5.454   1.415   1.155 -0.7166 -0.9981  0.0299
 6187SOL     OW19459   0.702   3.392   3.518 -0.5379  0.0565 -0.8486
 6187SOL    HW119460   0.649   3.322   3.566  1.8822 -1.7056 -0.5217
 6187SOL    HW219461   0.683   3.388   3.420  0.1613 -1.7063 -0.9455
 6188SOL     OW19462   2.065   2.740   4.836  0.2651  0.4669  0.5003
 6188SOL    HW119463   2.163   2.736   4.814  0.0532  2.8285 -1.2407
 6188SOL    HW219464   2.054   2.764   4.933  1.4208  0.7890  0.5686
 6189SOL     OW19465   5.267   5.620   3.104  0.0340  0.1551 -0.1039
 6189SOL    HW119466   5.213   5.556   3.160 -1.2030  1.3027  0.0760
 6189SOL    HW219467   5.359   5.627   3.141 -0.2458 -0.4505  0.7347
 6190SOL     OW19468   1.055   3.107   3.087  0.4331 -0.6784  0.6287
 6190SOL    HW119469   0.979   3.043   3.079 -0.5391  0.6304 -1.7182
 6190SOL    HW219470   1.020   3.195   3.122  0.8702 -0.1434 -0.2409
 6191SOL     OW19471   3.628   3.103   6.900  0.1711  0.1491  0.3132
 6191SOL    HW119472   3.529   3.098   6.885  0.3676  1.2989 -1.7304
 6191SOL    HW219473   3.656   3.031   6.963 -2.3239  1.3700  3.0660
 6192SOL     OW19474   4.300   1.839   6.101  0.1760 -0.4060 -0.0173
 6192SOL    HW119475   4.296   1.814   6.198 -1.0861 -0.0466  0.0473
 6192SOL    HW219476   4.392   1.870   6.078  0.3802 -0.0922  1.1712
 6193SOL     OW19477   4.120   0.110   0.574  0.5821 -0.3611  0.6959
 6193SOL    HW119478   4.178   0.149   0.503  0.3493  1.2458  1.3424
 6193SOL    HW219479   4.173   0.102   0.659  0.7488 -1.9081  0.4732
 6194SOL     OW19480   5.266   1.492   5.451  0.7817 -0.6824  0.0820
 6194SOL    HW119481   5.231   1.435   5.377  3.3697 -0.3966 -1.5091
 6194SOL    HW219482   5.325   1.437   5.510 -2.2334 -1.2259  2.8632
 6195SOL     OW19483   5.021   6.087   6.596  0.1959 -0.0894 -0.0799
 6195SOL    HW119484   5.076   6.008   6.622  1.3576  0.6997 -0.0561
 6195SOL    HW219485   5.028   6.103   6.498  0.6857  0.5077  0.0479
 6196SOL     OW19486   5.365   5.125   1.437 -0.5156  0.3055  0.0123
 6196SOL    HW119487   5.298   5.089   1.373  1.0880  1.1421 -2.2890
 6196SOL    HW219488   5.393   5.217   1.408  2.6111 -0.5288 -0.0532
 6197SOL     OW19489   3.870   4.992   2.187 -0.1176  0.5026  0.3555
 6197SOL    HW119490   3.807   5.014   2.114  0.4107  0.5186 -0.1015
 6197SOL    HW219491   3.943   4.934   2.152  1.5208  2.4994  0.2608
 6198SOL     OW19492   4.719   4.566   0.854  0.1729  0.2180  0.0925
 6198SOL    HW119493   4.775   4.623   0.915 -0.4331  0.2899  0.5927
 6198SOL    HW219494   4.676   4.493   0.906 -1.8369  1.3648  0.1427
 6199SOL     OW19495   1.376   1.574   1.054 -0.2121 -0.0935  0.7435
 6199SOL    HW119496   1.450   1.587   0.988 -0.2591 -2.8919  0.0270
 6199SOL    HW219497   1.289   1.599   1.012  0.0492  0.9313  0.7841
 6200SOL     OW19498   0.366   1.388   5.081  0.9671 -0.4765  0.1190
 6200SOL    HW119499   0.387   1.390   4.983 -0.6044  1.3942 -0.2498
 6200SOL    HW219500   0.427   1.452   5.128  0.7880 -0.3095  0.1264
 6201SOL     OW19501   1.766   2.410   6.436 -0.3987 -0.2522  0.2883
 6201SOL    HW119502   1.791   2.493   6.386 -0.1993 -0.3984  0.1468
 6201SOL    HW219503   1.779   2.330   6.378  1.5714 -0.6115  1.1532
 6202SOL     OW19504   0.359   3.897   0.660  0.2865 -0.5869  0.4499
 6202SOL    HW119505   0.421   3.826   0.694  0.7722 -1.2202 -1.5908
 6202SOL    HW219506   0.378   3.914   0.563  0.1162  2.2958  0.8354
 6203SOL     OW19507   4.160   6.307   2.880 -0.7184 -0.1275  0.2480
 6203SOL    HW119508   4.142   6.399   2.915 -1.3725  0.4242 -1.4846
 6203SOL    HW219509   4.137   6.240   2.951  1.8158  1.0538  2.3593
 6204SOL     OW19510   1.174   4.332   5.371  0.1512  0.1289  0.0488
 6204SOL    HW119511   1.074   4.330   5.378  0.1600 -0.0229  0.1490
 6204SOL    HW219512   1.200   4.358   5.278  0.0112 -0.5001 -0.1764
 6205SOL     OW19513   5.580   3.455   2.624 -0.3134  0.4848  0.0507
 6205SOL    HW119514   5.516   3.514   2.673 -0.4281 -0.3295  0.9239
 6205SOL    HW219515   5.650   3.511   2.578 -1.9702  1.4210 -1.4320
 6206SOL     OW19516   4.481   0.988   4.605  0.7179  0.1057  0.3247
 6206SOL    HW119517   4.465   1.087   4.610 -0.6465 -0.0878  0.2098
 6206SOL    HW219518   4.415   0.947   4.542  0.0977 -1.1188  1.7213
 6207SOL     OW19519   2.277   5.071   4.879 -0.3281 -0.5853 -0.2053
 6207SOL    HW119520   2.223   5.155   4.883 -0.7552 -0.8175 -0.8240
 6207SOL    HW219521   2.251   5.011   4.955 -0.5761 -0.4737 -0.1998
 6208SOL     OW19522   3.347   1.620   7.009 -0.6197  0.2866  0.0848
 6208SOL    HW119523   3.421   1.601   7.073 -1.0579  0.9697  0.8156
 6208SOL    HW219524   3.368   1.703   6.957 -1.5448  1.3970  1.4091
 6209SOL     OW19525   3.962   4.450   1.076  0.7175  0.2275 -0.2342
 6209SOL    HW119526   3.897   4.374   1.067  0.4031  0.3531  0.7486
 6209SOL    HW219527   3.933   4.509   1.152  3.2352 -1.0214  1.8876
 6210SOL     OW19528   6.154   3.550   3.631  0.2567  0.5132  0.1583
 6210SOL    HW119529   6.227   3.537   3.564 -0.5038  3.1037 -1.3067
 6210SOL    HW219530   6.192   3.588   3.715  0.8861 -0.5558  0.3850
 6211SOL     OW19531   4.980   0.413   5.206  0.4130  0.1214  0.2458
 6211SOL    HW119532   5.079   0.396   5.196  0.3300 -0.0269 -0.3633
 6211SOL    HW219533   4.944   0.355   5.279  0.5807 -0.6263 -0.2532
 6212SOL     OW19534   0.549   5.914   4.252  0.6544 -0.2357 -0.1419
 6212SOL    HW119535   0.573   6.002   4.294 -0.6466  0.1043 -0.0625
 6212SOL    HW219536   0.516   5.930   4.159  0.2394 -0.6127 -0.0642
 6213SOL     OW19537   3.723   6.737   0.419  0.8012 -0.1496 -0.1448
 6213SOL    HW119538   3.738   6.740   0.518  0.8133 -0.4771 -0.1347
 6213SOL    HW219539   3.705   6.829   0.385  0.2657 -0.1006  0.2456
 6214SOL     OW19540   5.713   6.365   6.515  0.2653 -0.6903  0.1403
 6214SOL    HW119541   5.697   6.451   6.467  1.6878 -1.4073 -1.7478
 6214SOL    HW219542   5.629   6.310   6.514  0.3364 -0.8173 -1.8802
 6215SOL     OW19543   4.366   1.798   5.661  0.3061 -0.1221 -0.1222
 6215SOL    HW119544   4.310   1.814   5.579 -0.3906 -0.2925  0.3132
 6215SOL    HW219545   4.387   1.885   5.705  0.7057 -0.0278 -0.4963
 6216SOL     OW19546   5.537   3.644   4.139  0.1747  0.8266  1.2826
 6216SOL    HW119547   5.530   3.735   4.181 -1.3274  0.7795  1.2046
 6216SOL    HW219548   5.449   3.619   4.100  1.3981  0.7119 -1.6462
 6217SOL     OW19549   2.140   3.953   1.700 -0.3759  0.0196 -0.2317
 6217SOL    HW119550   2.194   4.017   1.754 -2.2889  0.4099  1.3298
 6217SOL    HW219551   2.135   3.865   1.747 -0.0708 -0.4287 -1.0045
 6218SOL     OW19552   5.239   0.377   6.444  0.0867  0.2984  0.6247
 6218SOL    HW119553   5.194   0.296   6.480 -0.5617  0.2834 -0.1874
 6218SOL    HW219554   5.259   0.364   6.346 -0.2346  1.1865  0.4271
 6219SOL     OW19555   1.413   1.274   5.931  0.0972 -0.2019 -0.2516
 6219SOL    HW119556   1.369   1.363   5.946  0.4422 -0.3421  1.8408
 6219SOL    HW219557   1.506   1.289   5.899  1.9027  0.5175  4.5388
 6220SOL     OW19558   2.117   0.132   6.696  0.1689 -0.5265 -0.0508
 6220SOL    HW119559   2.126   0.232   6.690 -0.0513 -0.4595  0.5984
 6220SOL    HW219560   2.125   0.104   6.792 -1.7488 -0.9304  0.0335
 6221SOL     OW19561   5.440   0.120   6.931  0.0403  0.4709  0.0668
 6221SOL    HW119562   5.369   0.118   7.001 -0.9111 -0.4370 -0.8773
 6221SOL    HW219563   5.494   0.036   6.935 -0.9523 -0.2486 -1.1908
 6222SOL     OW19564   4.462   5.587   3.211 -0.0346 -0.5740 -0.7607
 6222SOL    HW119565   4.551   5.575   3.256  0.2555  2.1357 -0.4283
 6222SOL    HW219566   4.468   5.552   3.117  0.6289 -2.5336 -0.0310
 6223SOL     OW19567   6.843   5.006   4.325 -0.2161 -0.2345 -0.0530
 6223SOL    HW119568   6.840   4.968   4.418  0.2600 -1.5962 -0.5656
 6223SOL    HW219569   6.754   5.044   4.302  0.0597  1.4597  1.4836
 6224SOL     OW19570   2.959   0.497   5.832 -0.2847 -0.3785  0.1585
 6224SOL    HW119571   2.880   0.465   5.780 -1.1114 -0.0519  1.1736
 6224SOL    HW219572   2.943   0.479   5.929  1.7783 -2.1696  0.2274
 6225SOL     OW19573   5.304   2.704   5.923  0.7554  0.3309  0.0103
 6225SOL    HW119574   5.207   2.690   5.906  0.5689  0.1492  1.1059
 6225SOL    HW219575   5.347   2.616   5.943  1.0211  0.4789  0.0993
 6226SOL     OW19576   1.322   0.766   1.621 -0.3466 -0.1710  0.1011
 6226SOL    HW119577   1.319   0.829   1.699 -0.7748  0.1826 -0.1970
 6226SOL    HW219578   1.355   0.677   1.652  1.2741  0.4741  0.3388
 6227SOL     OW19579   2.844   3.448   6.123  0.2380 -0.0940  0.0018
 6227SOL    HW119580   2.869   3.511   6.049  1.2822  0.7473  1.0377
 6227SOL    HW219581   2.793   3.498   6.193  0.3022 -0.6098  0.4193
 6228SOL     OW19582   0.067   2.879   2.691 -0.4080  0.2063 -0.1451
 6228SOL    HW119583   0.139   2.865   2.622 -1.3417  1.2250 -1.3812
 6228SOL    HW219584   0.016   2.794   2.704  1.1444 -0.6165  0.9598
 6229SOL     OW19585   5.678   2.478   5.167  0.1714  0.4814 -0.2817
 6229SOL    HW119586   5.740   2.545   5.125  0.1379  0.7062  0.0173
 6229SOL    HW219587   5.663   2.402   5.105 -0.2788  1.0482 -0.8922
 6230SOL     OW19588   0.123   0.632   3.303 -0.3911  0.0889 -0.4059
 6230SOL    HW119589   0.057   0.561   3.279  0.0051 -0.0746 -1.0372
 6230SOL    HW219590   0.167   0.610   3.391  0.5565 -1.0540 -1.1428
 6231SOL     OW19591   2.902   6.179   1.823 -0.1249  0.5702 -0.5994
 6231SOL    HW119592   2.900   6.232   1.908 -1.5476  1.1550 -0.9686
 6231SOL    HW219593   2.973   6.214   1.763 -0.7807  1.8276 -0.6699
 6232SOL     OW19594   4.807   6.709   2.215  0.3420  0.0995 -1.1409
 6232SOL    HW119595   4.755   6.624   2.203 -0.6465  0.5602 -0.3259
 6232SOL    HW219596   4.771   6.759   2.293 -0.9415  2.5891 -3.1568
 6233SOL     OW19597   5.440   2.325   2.180 -0.5014  0.0678 -0.0143
 6233SOL    HW119598   5.531   2.367   2.187 -0.8826  0.8954  0.0177
 6233SOL    HW219599   5.371   2.390   2.210 -1.0671 -0.7468  0.4563
 6234SOL     OW19600   6.379   0.124   2.781  0.1383  0.0447  0.2559
 6234SOL    HW119601   6.312   0.073   2.835  1.9069 -0.0392  2.4788
 6234SOL    HW219602   6.437   0.059   2.731 -0.5965  0.0829 -0.6783
 6235SOL     OW19603   6.463   6.376   2.224 -0.2204 -0.2961  0.7830
 6235SOL    HW119604   6.487   6.310   2.295  1.3109  0.8717  1.3985
 6235SOL    HW219605   6.428   6.459   2.266  1.9447  0.9239  0.3362
 6236SOL     OW19606   0.434   4.689   6.935 -0.6227 -0.6492 -0.8730
 6236SOL    HW119607   0.351   4.715   6.984  0.1033 -0.8138  0.5053
 6236SOL    HW219608   0.494   4.768   6.927  0.6574 -1.2823  1.4353
 6237SOL     OW19609   3.160   0.147   1.452  0.2470  0.0614  0.2225
 6237SOL    HW119610   3.147   0.048   1.450 -1.1897  0.2110  0.6623
 6237SOL    HW219611   3.247   0.171   1.409  0.1313 -1.3061 -0.8374
 6238SOL     OW19612   2.021   4.595   2.308 -0.2436  0.3626  0.3367
 6238SOL    HW119613   1.994   4.540   2.229 -0.5904 -0.0187  0.7151
 6238SOL    HW219614   2.047   4.534   2.384 -0.7779  0.7122  0.8105
 6239SOL     OW19615   3.724   1.110   2.324  0.5375 -0.3773  0.3596
 6239SOL    HW119616   3.754   1.146   2.236 -1.8013 -1.8550 -1.1461
 6239SOL    HW219617   3.681   1.021   2.311 -1.4761  0.1269  2.7474
 6240SOL     OW19618   3.748   2.901   4.927 -0.4168 -0.6658  0.2003
 6240SOL    HW119619   3.720   2.945   4.842  0.8251 -0.8339 -0.3226
 6240SOL    HW219620   3.774   2.806   4.909  2.6306  0.0773  0.1563
 6241SOL     OW19621   2.208   1.067   3.241 -0.2367  0.3835 -0.1575
 6241SOL    HW119622   2.116   1.102   3.223 -0.3048 -0.0055 -0.5717
 6241SOL    HW219623   2.273   1.111   3.179 -0.3926 -0.5642 -1.0100
 6242SOL     OW19624   3.107   1.864   4.485  0.2094  0.7260 -0.0042
 6242SOL    HW119625   3.033   1.903   4.431  0.1912  1.7932  0.7514
 6242SOL    HW219626   3.184   1.928   4.486  0.5770  0.2837  0.4208
 6243SOL     OW19627   0.603   0.856   5.731 -0.1189  0.1560 -0.2949
 6243SOL    HW119628   0.592   0.761   5.703  0.9486  0.7730 -3.1892
 6243SOL    HW219629   0.662   0.861   5.812  0.5274 -1.6015 -0.6302
 6244SOL     OW19630   5.693   4.750   4.537  0.2760 -0.0093 -0.5219
 6244SOL    HW119631   5.691   4.657   4.574 -1.5535 -0.0020 -0.5095
 6244SOL    HW219632   5.650   4.813   4.602 -0.6646  0.4279 -1.5250
 6245SOL     OW19633   1.334   5.717   1.981  0.3970  0.0191 -0.5758
 6245SOL    HW119634   1.405   5.713   2.051  0.6174  1.4433 -0.6881
 6245SOL    HW219635   1.372   5.687   1.893 -0.4850 -4.1299  0.2580
 6246SOL     OW19636   0.734   6.188   4.687 -0.0766  0.2612  0.2543
 6246SOL    HW119637   0.667   6.255   4.720  1.1022  0.9862  1.2789
 6246SOL    HW219638   0.800   6.234   4.628 -0.1940 -0.3509 -0.3685
 6247SOL     OW19639   1.314   5.912   5.058 -0.8430 -0.2549 -0.1884
 6247SOL    HW119640   1.367   5.847   5.004  0.1947 -0.3986  0.9565
 6247SOL    HW219641   1.251   5.962   4.999  0.0135 -0.6416 -1.4541
 6248SOL     OW19642   4.807   3.874   6.837 -0.2147  0.0940 -0.5789
 6248SOL    HW119643   4.732   3.808   6.846 -0.3373  0.2048 -0.8141
 6248SOL    HW219644   4.781   3.947   6.775 -0.4161  0.8505  0.3794
 6249SOL     OW19645   5.064   1.128   2.271 -0.2973  0.6593 -0.3005
 6249SOL    HW119646   4.975   1.119   2.227 -0.4779  1.7549 -0.2031
 6249SOL    HW219647   5.062   1.086   2.362 -0.9866  1.3900  0.0386
 6250SOL     OW19648   6.864   6.776   0.632  0.0173 -0.8502 -0.0744
 6250SOL    HW119649   6.961   6.787   0.609  0.1843  0.5267  1.1119
 6250SOL    HW219650   6.834   6.855   0.685 -1.5899 -1.5853  0.1592
 6251SOL     OW19651   3.247   5.449   5.075 -0.1220 -0.7249 -0.2683
 6251SOL    HW119652   3.208   5.527   5.122  0.3327 -0.6239 -0.0543
 6251SOL    HW219653   3.206   5.364   5.110  0.8225 -0.7131  0.9338
 6252SOL     OW19654   2.244   4.632   0.420 -0.6474 -0.6478  0.1011
 6252SOL    HW119655   2.283   4.543   0.444  0.0427 -0.2332  0.5574
 6252SOL    HW219656   2.307   4.680   0.360 -2.0857 -1.4259 -2.1652
 6253SOL     OW19657   3.388   5.586   4.862  0.5695  0.7713 -0.7903
 6253SOL    HW119658   3.357   5.549   4.950 -0.0603  1.2807 -0.7872
 6253SOL    HW219659   3.360   5.525   4.789  1.3080  0.2219 -0.6214
 6254SOL     OW19660   1.662   6.606   1.641  0.4268  0.9863 -0.0172
 6254SOL    HW119661   1.570   6.576   1.617  0.0018  3.4213 -1.7914
 6254SOL    HW219662   1.728   6.533   1.618 -0.9249 -0.4134  0.3918
 6255SOL     OW19663   1.458   0.081   1.955 -0.2499  0.4704  0.2831
 6255SOL    HW119664   1.527   0.017   1.989 -1.3274  0.2753  2.2058
 6255SOL    HW219665   1.404   0.037   1.883  1.7196  0.7137 -1.4477
 6256SOL     OW19666   4.179   6.422   3.336  0.1841 -0.4981  1.0026
 6256SOL    HW119667   4.276   6.421   3.311 -0.3795  2.3781 -2.1227
 6256SOL    HW219668   4.170   6.446   3.432  2.5910  0.5522  1.0571
 6257SOL     OW19669   5.531   3.756   0.499  0.2735 -0.6959  0.5450
 6257SOL    HW119670   5.551   3.694   0.574  0.5219 -1.0847  0.1664
 6257SOL    HW219671   5.610   3.761   0.438  0.1521 -0.2224  0.4235
 6258SOL     OW19672   2.777   6.117   4.822 -0.3594 -0.2568 -0.3873
 6258SOL    HW119673   2.715   6.039   4.813  0.1266 -0.7592  0.4661
 6258SOL    HW219674   2.870   6.089   4.795 -0.2703  0.1599 -0.5255
 6259SOL     OW19675   0.968   3.958   3.562 -0.4721  0.4756 -0.2811
 6259SOL    HW119676   0.875   3.992   3.581 -0.8262 -0.2704 -0.6322
 6259SOL    HW219677   1.035   4.016   3.609 -1.2157 -0.2012  1.7456
 6260SOL     OW19678   3.344   6.435   2.628  0.2301 -0.0173 -0.9153
 6260SOL    HW119679   3.273   6.365   2.624  0.4487 -0.4160  1.0717
 6260SOL    HW219680   3.336   6.486   2.714  2.5023 -0.2748 -0.4671
 6261SOL     OW19681   3.721   0.356   2.824  0.1375 -0.2041 -0.4238
 6261SOL    HW119682   3.811   0.321   2.849 -0.0119 -0.8898 -0.8230
 6261SOL    HW219683   3.656   0.338   2.898  0.9602  3.0864  1.2919
 6262SOL     OW19684   5.509   6.475   2.355  0.8339  0.0506 -0.4567
 6262SOL    HW119685   5.463   6.448   2.271  0.3345  1.0968 -0.5444
 6262SOL    HW219686   5.565   6.556   2.337  0.2353  0.6657  0.3240
 6263SOL     OW19687   6.557   5.524   4.349  0.2431  0.3097 -0.5441
 6263SOL    HW119688   6.581   5.621   4.355 -0.4197  0.3904  2.0701
 6263SOL    HW219689   6.584   5.477   4.433 -0.9503 -1.4077 -1.0526
 6264SOL     OW19690   0.632   0.315   6.903 -0.2386 -1.5046  0.3763
 6264SOL    HW119691   0.645   0.406   6.940  1.7878 -0.9004 -1.5543
 6264SOL    HW219692   0.661   0.246   6.970 -0.0580 -0.6545  1.1821
 6265SOL     OW19693   6.043   5.181   0.115  0.3565  0.1519 -0.5939
 6265SOL    HW119694   6.079   5.232   0.037  1.5592  0.7652  0.3203
 6265SOL    HW219695   6.002   5.244   0.181  0.2022 -0.2558 -0.2921
 6266SOL     OW19696   3.915   6.571   5.051  0.3274 -0.2097  0.3356
 6266SOL    HW119697   3.865   6.578   5.138  1.5132 -2.1121  1.2584
 6266SOL    HW219698   3.904   6.655   4.999 -0.5590  0.9436  2.2666
 6267SOL     OW19699   1.027   6.941   5.153  0.4517 -0.0429 -0.0747
 6267SOL    HW119700   0.986   6.952   5.244 -0.5491  0.0661 -0.5309
 6267SOL    HW219701   1.084   7.021   5.133 -1.5679  1.3359 -0.6749
 6268SOL     OW19702   4.035   6.523   2.544  0.2861  0.6540  1.0311
 6268SOL    HW119703   3.987   6.541   2.458  0.1258  0.3432  1.0535
 6268SOL    HW219704   3.993   6.577   2.617 -2.6084 -2.3627  1.8660
 6269SOL     OW19705   6.691   6.878   1.566  0.0052  0.6170  0.2307
 6269SOL    HW119706   6.739   6.913   1.485  0.0093  0.7197  0.2785
 6269SOL    HW219707   6.657   6.954   1.621  0.1002  0.5493  0.3849
 6270SOL     OW19708   1.148   6.489   0.209  0.1877  0.0254 -0.7693
 6270SOL    HW119709   1.203   6.456   0.286 -0.4403 -0.1386 -0.3867
 6270SOL    HW219710   1.139   6.589   0.215  2.1245  0.3241 -1.9515
 6271SOL     OW19711   6.048   3.055   5.791 -0.1279 -0.2408 -0.0440
 6271SOL    HW119712   6.052   2.988   5.865 -0.2208  1.2595  1.4023
 6271SOL    HW219713   6.137   3.102   5.784 -0.3672  0.1799 -0.3334
 6272SOL     OW19714   1.939   0.692   3.618 -0.5374  0.0796 -0.2646
 6272SOL    HW119715   1.896   0.630   3.553 -2.6106 -0.0708  1.1653
 6272SOL    HW219716   2.021   0.649   3.656 -0.6287 -0.7894 -1.0083
 6273SOL     OW19717   6.408   1.322   3.270 -0.1871  0.3414  0.0400
 6273SOL    HW119718   6.501   1.328   3.234 -0.7689 -0.6776 -1.7627
 6273SOL    HW219719   6.344   1.361   3.204 -1.1396 -0.0141  0.7388
 6274SOL     OW19720   2.065   7.000   6.118  0.3036 -0.0150 -0.0812
 6274SOL    HW119721   2.113   7.004   6.030  0.6798  0.2715  0.1322
 6274SOL    HW219722   1.966   6.997   6.102  0.3658  0.1539 -0.5093
 6275SOL     OW19723   2.748   5.716   1.847 -0.5384 -0.0329 -0.4386
 6275SOL    HW119724   2.844   5.720   1.818 -0.1056 -1.5194  0.6998
 6275SOL    HW219725   2.718   5.808   1.873 -0.1064  0.8611 -2.7807
 6276SOL     OW19726   4.197   0.116   4.138  0.5751 -0.3880 -0.0579
 6276SOL    HW119727   4.224   0.091   4.231 -0.7256  0.6085  0.5977
 6276SOL    HW219728   4.157   0.036   4.093  0.7972 -0.7516  0.3770
 6277SOL     OW19729   5.466   0.685   2.337  0.0225  0.0766  0.4142
 6277SOL    HW119730   5.491   0.725   2.249  1.1012  0.6413  0.9556
 6277SOL    HW219731   5.510   0.737   2.411 -0.1465 -0.9186  1.2387
 6278SOL     OW19732   2.990   5.829   5.405 -0.0634 -0.1090  0.1828
 6278SOL    HW119733   3.038   5.805   5.490 -0.6569 -2.7159 -0.1253
 6278SOL    HW219734   2.920   5.898   5.425 -1.1441 -1.6623  2.1609
 6279SOL     OW19735   3.469   0.324   0.904  0.2768 -0.6130 -0.2597
 6279SOL    HW119736   3.394   0.262   0.927  1.3399 -1.5358  0.8939
 6279SOL    HW219737   3.453   0.363   0.813 -2.3518  0.4699  0.5795
 6280SOL     OW19738   5.744   0.632   6.215 -0.0934  0.4775  0.3125
 6280SOL    HW119739   5.775   0.727   6.213 -0.2127  0.5076 -0.0984
 6280SOL    HW219740   5.755   0.595   6.308 -0.7770  1.1352  0.6670
 6281SOL     OW19741   4.900   3.811   4.742  0.0342 -0.4506  0.4795
 6281SOL    HW119742   4.841   3.891   4.732 -0.0323 -0.5630 -0.0766
 6281SOL    HW219743   4.868   3.756   4.820 -0.6572 -0.5548  0.1308
 6282SOL     OW19744   5.463   4.235   5.410 -0.7259  0.0694  0.4925
 6282SOL    HW119745   5.515   4.290   5.476  0.6973 -1.2907  0.5841
 6282SOL    HW219746   5.500   4.142   5.409 -1.1658 -0.1306 -1.7222
 6283SOL     OW19747   0.531   3.927   4.495  0.0798 -0.3083 -0.0181
 6283SOL    HW119748   0.436   3.932   4.526 -1.3950  1.8987 -4.0669
 6283SOL    HW219749   0.535   3.878   4.408  1.9787  2.3106 -1.5829
 6284SOL     OW19750   3.013   5.901   6.831 -0.1141 -0.3539  0.0980
 6284SOL    HW119751   3.002   5.992   6.872  0.2200 -0.6768  0.9368
 6284SOL    HW219752   3.074   5.846   6.889 -0.3154 -1.1148 -0.3980
 6285SOL     OW19753   1.318   2.996   3.292  0.2860  0.1357 -0.1321
 6285SOL    HW119754   1.244   2.931   3.272  0.1749  0.6363 -1.4098
 6285SOL    HW219755   1.282   3.089   3.286  1.1138  0.4016 -1.2210
 6286SOL     OW19756   5.955   3.889   1.252  0.1768  0.5336  0.1744
 6286SOL    HW119757   5.945   3.910   1.154 -0.3399  0.5143  0.2216
 6286SOL    HW219758   5.997   3.967   1.298  0.5227  0.5029 -0.0787
 6287SOL     OW19759   4.521   4.847   0.511 -0.8434 -0.0738 -0.1638
 6287SOL    HW119760   4.433   4.871   0.469 -0.5507  0.2432 -0.6029
 6287SOL    HW219761   4.595   4.889   0.459 -0.3533 -1.3767 -0.5482
 6288SOL     OW19762   2.972   3.593   1.594  0.3972  0.1631 -0.0422
 6288SOL    HW119763   2.980   3.638   1.505  0.2191  1.9083  0.7726
 6288SOL    HW219764   2.929   3.504   1.583  0.2585  0.4025 -1.6844
 6289SOL     OW19765   1.812   2.230   6.703 -0.7508 -0.6348 -0.3126
 6289SOL    HW119766   1.904   2.193   6.717 -1.2742 -1.5277  0.9489
 6289SOL    HW219767   1.803   2.262   6.608  0.0251 -2.9574 -1.2373
 6290SOL     OW19768   5.711   5.021   6.482 -0.5529 -0.6643  0.2198
 6290SOL    HW119769   5.774   4.944   6.481  0.0124 -0.2093 -0.1917
 6290SOL    HW219770   5.761   5.105   6.458 -1.5080 -0.4604 -1.2286
 6291SOL     OW19771   2.931   3.333   2.994  0.1971  0.1768  0.5823
 6291SOL    HW119772   2.958   3.252   3.045 -2.5243 -1.3011 -0.1048
 6291SOL    HW219773   2.963   3.326   2.899 -3.0648 -2.0698 -0.5186
 6292SOL     OW19774   2.500   2.160   4.653 -0.0115 -0.1870  0.2109
 6292SOL    HW119775   2.502   2.159   4.553  1.1350  1.9156  0.1353
 6292SOL    HW219776   2.488   2.067   4.688  1.0086 -1.1626 -1.8626
 6293SOL     OW19777   5.685   1.940   1.274 -0.6091 -0.2729  0.1288
 6293SOL    HW119778   5.716   1.867   1.213 -2.4936 -0.4853 -0.6400
 6293SOL    HW219779   5.761   2.001   1.295  0.0771 -0.1374 -2.5183
 6294SOL     OW19780   6.373   1.963   3.127 -0.3101  0.1403 -0.4137
 6294SOL    HW119781   6.313   1.929   3.199  0.7049  1.4145  1.0968
 6294SOL    HW219782   6.396   2.059   3.144  0.8489  0.1637 -1.8396
 6295SOL     OW19783   6.720   5.793   5.492 -0.6122  0.1459  0.1007
 6295SOL    HW119784   6.792   5.842   5.541  1.1705 -1.7916 -0.4797
 6295SOL    HW219785   6.679   5.854   5.424 -0.2989  1.6090  1.1724
 6296SOL     OW19786   0.811   2.553   4.140  0.5234 -0.2433 -0.2080
 6296SOL    HW119787   0.732   2.512   4.187  0.1069 -0.6211 -1.2158
 6296SOL    HW219788   0.792   2.649   4.120  0.5094 -0.2103 -0.0416
 6297SOL     OW19789   0.769   6.900   4.550 -0.0105 -0.3644  0.4473
 6297SOL    HW119790   0.752   6.914   4.453 -1.4987 -0.2197  0.6949
 6297SOL    HW219791   0.866   6.882   4.566  0.1728 -0.8650 -1.1078
 6298SOL     OW19792   5.554   4.096   1.169  0.5032 -0.5765 -0.0185
 6298SOL    HW119793   5.540   4.032   1.094 -0.8590 -2.2271  1.5363
 6298SOL    HW219794   5.630   4.066   1.226  0.8697  0.0841 -0.1457
 6299SOL     OW19795   5.342   4.222   2.484  0.1712 -0.3907 -0.3655
 6299SOL    HW119796   5.327   4.317   2.455  1.8545 -0.0685 -0.2513
 6299SOL    HW219797   5.275   4.163   2.438 -0.8711  0.8316 -0.4766
 6300SOL     OW19798   5.310   2.716   6.806  0.0986 -0.4049 -0.4992
 6300SOL    HW119799   5.277   2.673   6.891  0.1002  0.9525  0.2177
 6300SOL    HW219800   5.244   2.785   6.776  0.9562  0.3926 -0.5966
 6301SOL     OW19801   2.999   0.204   5.601 -0.1321  0.3069 -0.4091
 6301SOL    HW119802   2.999   0.104   5.604 -1.9647  0.2897  0.4938
 6301SOL    HW219803   2.913   0.236   5.561 -0.2210  1.5442  0.7046
 6302SOL     OW19804   2.092   2.245   4.797 -0.3585  0.2387 -0.1008
 6302SOL    HW119805   2.044   2.320   4.841 -0.3258  0.7320 -0.8859
 6302SOL    HW219806   2.190   2.266   4.793  0.0216 -0.9523  1.8879
 6303SOL     OW19807   1.504   5.968   4.439  0.1552  0.0968  0.8601
 6303SOL    HW119808   1.575   5.935   4.501  1.9708  1.3420 -0.4522
 6303SOL    HW219809   1.546   5.998   4.353 -2.1593 -0.6361 -0.6084
 6304SOL     OW19810   3.560   0.239   5.118  0.3975  0.1551 -1.1143
 6304SOL    HW119811   3.544   0.334   5.145 -0.5917  0.7160 -3.4309
 6304SOL    HW219812   3.646   0.207   5.159 -1.0223  0.7294  2.7697
 6305SOL     OW19813   5.664   5.852   0.165 -0.3614 -0.0428  0.7472
 6305SOL    HW119814   5.680   5.771   0.221  1.5518  0.8963  1.6310
 6305SOL    HW219815   5.632   5.927   0.223 -0.2094  0.3950  0.2702
 6306SOL     OW19816   1.475   2.850   4.048  0.3928 -0.3955  0.4954
 6306SOL    HW119817   1.492   2.905   3.966  0.3147 -0.1391  0.6490
 6306SOL    HW219818   1.411   2.899   4.108 -2.5571 -2.1658 -0.9550
 6307SOL     OW19819   3.759   4.015   4.230  0.2305 -0.0308  0.6691
 6307SOL    HW119820   3.738   4.088   4.295  0.0262 -2.2678  3.3063
 6307SOL    HW219821   3.829   3.955   4.269 -0.8922 -2.2511 -0.5324
 6308SOL     OW19822   1.415   2.178   5.453  0.5641 -0.1605 -0.3727
 6308SOL    HW119823   1.413   2.092   5.503 -0.2205 -0.0296 -0.1622
 6308SOL    HW219824   1.438   2.160   5.357 -0.0329 -0.6633 -0.4325
 6309SOL     OW19825   6.768   0.051   4.478 -0.5335 -0.2993 -0.0066
 6309SOL    HW119826   6.720   0.085   4.560  0.0298  0.2057  0.1204
 6309SOL    HW219827   6.790   0.128   4.418  0.6239 -0.4448  0.2072
 6310SOL     OW19828   1.331   6.768   4.410  0.1855 -0.7950  0.4171
 6310SOL    HW119829   1.265   6.739   4.341  0.8135  0.2625 -0.6495
 6310SOL    HW219830   1.380   6.687   4.445 -0.3910 -1.3787 -0.1063
 6311SOL     OW19831   5.056   1.232   6.209 -0.0373  0.4391  0.4453
 6311SOL    HW119832   4.990   1.271   6.274  1.1403 -0.1128  2.0228
 6311SOL    HW219833   5.083   1.141   6.239  0.3576  0.0551 -0.9845
 6312SOL     OW19834   1.928   5.189   5.647  0.4752  0.0281  0.3813
 6312SOL    HW119835   1.952   5.256   5.577 -1.6895  1.1360  0.6341
 6312SOL    HW219836   1.887   5.109   5.603 -2.1271  1.2823  0.3730
 6313SOL     OW19837   4.944   6.719   4.240  0.0804 -0.4838  0.0458
 6313SOL    HW119838   4.854   6.692   4.207  0.5904 -1.1832 -0.8129
 6313SOL    HW219839   4.980   6.793   4.184 -0.3013  0.3719  0.9090
 6314SOL     OW19840   3.900   0.575   2.058 -0.1484  0.1258 -0.5554
 6314SOL    HW119841   3.811   0.605   2.025  0.4816  0.9957 -1.5130
 6314SOL    HW219842   3.888   0.511   2.133 -1.5849 -0.1822 -1.0318
 6315SOL     OW19843   1.299   2.636   2.652  0.0939 -0.1228 -0.7749
 6315SOL    HW119844   1.378   2.658   2.710 -1.2660  0.9653  0.7637
 6315SOL    HW219845   1.282   2.712   2.590 -1.5270  1.1095  1.0342
 6316SOL     OW19846   3.702   0.325   0.245 -0.2368  0.2751 -0.2467
 6316SOL    HW119847   3.699   0.303   0.148  1.2776  1.2133 -0.5267
 6316SOL    HW219848   3.762   0.260   0.292  1.1823  1.4227 -0.4232
 6317SOL     OW19849   6.017   4.268   2.097  0.5087  0.1129  0.4806
 6317SOL    HW119850   6.065   4.201   2.041 -0.2852 -0.4476  0.4571
 6317SOL    HW219851   5.919   4.266   2.075  0.4594  1.2277  0.5280
 6318SOL     OW19852   5.737   0.537   0.480 -0.4673 -0.1944  0.8340
 6318SOL    HW119853   5.676   0.461   0.500  1.2092 -1.2286  2.3974
 6318SOL    HW219854   5.714   0.615   0.537 -0.3445 -0.5777  1.4110
 6319SOL     OW19855   5.982   2.449   3.925  0.1093 -0.5431 -0.0053
 6319SOL    HW119856   5.943   2.435   4.016  0.5630 -1.4963  0.0587
 6319SOL    HW219857   6.068   2.501   3.934 -1.0688  1.5357 -0.1451
 6320SOL     OW19858   0.616   1.911   2.941  0.1489 -0.1330 -0.1844
 6320SOL    HW119859   0.611   1.825   2.993 -0.8953  0.4953  0.8146
 6320SOL    HW219860   0.587   1.987   3.000 -0.2913  0.7220 -1.4605
 6321SOL     OW19861   4.997   4.498   0.725 -0.4863  0.1267 -0.0575
 6321SOL    HW119862   4.929   4.565   0.753 -0.0196  1.5710 -2.1194
 6321SOL    HW219863   4.953   4.409   0.710 -1.4376  0.3967  0.9910
 6322SOL     OW19864   3.461   1.346   0.321 -0.0988 -0.5758  0.2711
 6322SOL    HW119865   3.548   1.326   0.276 -0.0763 -1.6387  0.7590
 6322SOL    HW219866   3.391   1.283   0.288  0.0654 -1.8315  2.1317
 6323SOL     OW19867   1.606   4.101   0.570  0.5927  0.1914 -0.5737
 6323SOL    HW119868   1.629   4.013   0.611  0.2940 -0.9786 -2.8079
 6323SOL    HW219869   1.684   4.135   0.518  0.6373  1.1786  0.1127
 6324SOL     OW19870   4.390   1.592   6.013  0.0245 -0.2211 -0.2312
 6324SOL    HW119871   4.374   1.691   6.012  0.2297 -0.1875 -1.8264
 6324SOL    HW219872   4.378   1.555   5.921  1.2899 -1.4768  0.0789
 6325SOL     OW19873   1.355   2.121   3.056 -0.0660 -0.2793 -0.7664
 6325SOL    HW119874   1.319   2.076   3.138 -1.8591 -0.0748 -1.4161
 6325SOL    HW219875   1.415   2.197   3.084  1.9319 -2.1326  0.3272
 6326SOL     OW19876   5.457   1.059   5.302 -0.0925 -0.5681  0.3094
 6326SOL    HW119877   5.379   1.062   5.240 -1.6128 -2.3245  1.9952
 6326SOL    HW219878   5.447   1.129   5.372 -1.1648 -1.8684  1.5354
 6327SOL     OW19879   0.181   0.803   3.736  0.3024  0.2693  0.9717
 6327SOL    HW119880   0.132   0.805   3.823 -1.6272  0.1449 -0.0426
 6327SOL    HW219881   0.116   0.820   3.661  1.4672 -1.7707 -0.6129
 6328SOL     OW19882   5.294   2.381   6.819  0.1406  0.1444  0.3573
 6328SOL    HW119883   5.274   2.397   6.722 -3.0675 -0.6192  0.8061
 6328SOL    HW219884   5.311   2.284   6.834  1.1266  0.3299  0.5249
 6329SOL     OW19885   1.451   3.997   4.421  0.2072  0.2753  0.6392
 6329SOL    HW119886   1.365   3.945   4.420 -0.2014  0.8922  1.7907
 6329SOL    HW219887   1.497   3.984   4.509  2.0731 -1.2279 -0.4637
 6330SOL     OW19888   5.443   1.642   2.750 -0.4288 -0.5695 -0.3631
 6330SOL    HW119889   5.541   1.659   2.763 -0.3908 -1.2890  0.3959
 6330SOL    HW219890   5.390   1.716   2.790 -0.2176 -0.9826  0.7317
 6331SOL     OW19891   0.510   3.533   4.614  0.2582 -0.1871  0.2329
 6331SOL    HW119892   0.477   3.439   4.619  1.8768 -0.8457 -0.6022
 6331SOL    HW219893   0.513   3.573   4.705 -1.6824 -0.4717  0.4550
 6332SOL     OW19894   0.912   0.334   2.537 -0.1514 -0.2602 -0.6935
 6332SOL    HW119895   0.959   0.310   2.452 -0.0025  0.2998 -0.7780
 6332SOL    HW219896   0.977   0.332   2.613 -0.0670  0.1450 -0.7496
 6333SOL     OW19897   3.456   0.104   1.639  0.2317  0.2154 -0.3079
 6333SOL    HW119898   3.466   0.026   1.578  3.4202 -1.3739  1.9226
 6333SOL    HW219899   3.434   0.072   1.731 -0.5212  2.1612  0.2477
 6334SOL     OW19900   2.916   1.045   0.596 -0.5775  0.5136 -0.2531
 6334SOL    HW119901   2.921   0.950   0.564  0.7929  0.8390 -1.0770
 6334SOL    HW219902   2.871   1.101   0.526 -0.9537  0.5568  0.0238
 6335SOL     OW19903   5.952   1.787   0.656  0.3297 -0.0065  0.1705
 6335SOL    HW119904   5.861   1.804   0.693 -0.9176 -2.0919 -1.6447
 6335SOL    HW219905   6.020   1.796   0.728 -1.5911 -0.8499  2.1886
 6336SOL     OW19906   0.002   4.405   6.094 -0.5873 -0.0287  0.5251
 6336SOL    HW119907  -0.020   4.497   6.062 -0.9687 -0.2226  0.2213
 6336SOL    HW219908   0.097   4.384   6.071 -0.3041  0.5181  1.1485
 6337SOL     OW19909   4.845   6.356   6.524 -1.1214 -0.0317  0.3106
 6337SOL    HW119910   4.848   6.454   6.503  1.1261  0.1110  1.0021
 6337SOL    HW219911   4.871   6.342   6.619 -1.4309 -1.3235  0.2253
 6338SOL     OW19912   2.266   0.516   4.991  0.4612 -0.2514  0.5450
 6338SOL    HW119913   2.336   0.588   4.992 -0.1135  0.3107  0.4673
 6338SOL    HW219914   2.284   0.452   5.067  1.8071 -0.8561 -0.2333
 6339SOL     OW19915   0.705   1.689   2.455  0.4338 -0.3589  0.1156
 6339SOL    HW119916   0.621   1.648   2.489  0.9644 -2.0222 -0.4826
 6339SOL    HW219917   0.764   1.618   2.417  2.3858  0.6718  1.0703
 6340SOL     OW19918   1.656   3.529   1.928  0.1920  0.1348  0.0889
 6340SOL    HW119919   1.633   3.525   2.026  1.0889 -0.2204  0.2935
 6340SOL    HW219920   1.572   3.523   1.874 -0.2435 -0.5553  0.8195
 6341SOL     OW19921   2.550   4.541   2.222 -0.0034  0.6782 -0.0290
 6341SOL    HW119922   2.478   4.483   2.183  0.2677 -0.9763  1.7790
 6341SOL    HW219923   2.626   4.546   2.158  0.3154 -1.7176  0.0468
 6342SOL     OW19924   5.465   1.064   5.709  0.1266  0.1278  0.2146
 6342SOL    HW119925   5.376   1.024   5.733  0.1075  0.5658  0.8825
 6342SOL    HW219926   5.524   0.992   5.672 -0.5189 -0.1604 -0.2922
 6343SOL     OW19927   4.189   0.574   0.072 -0.2759  0.1104 -0.0563
 6343SOL    HW119928   4.123   0.533   0.009  0.8410 -0.2340 -1.0337
 6343SOL    HW219929   4.244   0.642   0.024  1.8560 -1.4661 -0.0039
 6344SOL     OW19930   6.060   2.117   3.385 -0.5410 -0.2247 -0.2728
 6344SOL    HW119931   6.134   2.060   3.350  0.7652 -0.6993  2.8875
 6344SOL    HW219932   5.981   2.060   3.407 -0.5101 -0.2825 -0.3131
 6345SOL     OW19933   4.492   4.301   6.956  0.5081  0.1408  0.3840
 6345SOL    HW119934   4.403   4.346   6.942  0.1171 -0.6195  0.3998
 6345SOL    HW219935   4.565   4.365   6.931 -0.0412  0.7419  0.2736
 6346SOL     OW19936   5.670   4.399   6.222 -0.3859  0.1596  0.1739
 6346SOL    HW119937   5.746   4.347   6.260 -1.0857 -1.3628 -0.4225
 6346SOL    HW219938   5.665   4.488   6.267  0.5890 -0.4398  1.5521
 6347SOL     OW19939   3.242   0.955   0.802 -0.1673 -0.1212 -0.2674
 6347SOL    HW119940   3.232   1.039   0.749 -1.1867 -0.5154 -0.7169
 6347SOL    HW219941   3.253   0.877   0.740  2.8412 -0.1340  0.1357
 6348SOL     OW19942   6.750   1.815   6.661 -0.4032  0.9596  0.6694
 6348SOL    HW119943   6.657   1.779   6.672 -0.1198 -0.6346 -1.5346
 6348SOL    HW219944   6.816   1.749   6.697  0.0102  0.2040 -1.3229
 6349SOL     OW19945   1.247   0.800   0.549  0.1801  0.7900  0.6403
 6349SOL    HW119946   1.346   0.808   0.537  0.1540  0.7778  0.4152
 6349SOL    HW219947   1.222   0.832   0.640  0.3479  1.1566  0.5618
 6350SOL     OW19948   0.624   6.589   2.980 -0.4951 -0.5325  0.1280
 6350SOL    HW119949   0.630   6.682   3.015  0.5792 -0.4057 -0.3430
 6350SOL    HW219950   0.657   6.525   3.049 -1.9003 -0.6600  0.7248
 6351SOL     OW19951   0.089   4.482   3.283  0.2139 -0.5485 -0.2496
 6351SOL    HW119952   0.021   4.480   3.210  1.0845  0.4913 -1.1401
 6351SOL    HW219953   0.117   4.388   3.305 -1.4613 -0.9821  0.1227
 6352SOL     OW19954   4.346   1.650   4.232  0.3545  0.3642  0.2623
 6352SOL    HW119955   4.322   1.563   4.275 -0.1208 -0.0692 -0.8563
 6352SOL    HW219956   4.289   1.665   4.151  0.7923  1.4659  0.1347
 6353SOL     OW19957   2.566   6.745   0.857  0.0876 -0.7780  0.4344
 6353SOL    HW119958   2.609   6.695   0.782 -0.0012 -1.1702  0.6467
 6353SOL    HW219959   2.620   6.733   0.940  1.3241  1.2931  0.0007
 6354SOL     OW19960   4.349   5.917   2.136 -0.0311  0.0749 -0.1283
 6354SOL    HW119961   4.269   5.896   2.193  1.3265 -2.6168  0.9611
 6354SOL    HW219962   4.400   5.992   2.178 -1.2022  0.9005 -0.1073
 6355SOL     OW19963   3.280   5.219   0.920  0.1636  0.1659 -0.3392
 6355SOL    HW119964   3.201   5.176   0.877 -0.2133 -0.0252  0.5338
 6355SOL    HW219965   3.302   5.304   0.872 -1.7527  1.2185  0.5570
 6356SOL     OW19966   4.082   4.908   0.870 -0.2107  0.3983  0.4552
 6356SOL    HW119967   4.120   4.829   0.821  1.2692  1.5953 -0.4120
 6356SOL    HW219968   4.132   4.921   0.955 -0.6058  0.2671  0.7080
 6357SOL     OW19969   6.015   2.078   0.886 -0.0412 -0.1496  0.3227
 6357SOL    HW119970   6.025   2.082   0.787 -2.2604 -0.4325  0.0228
 6357SOL    HW219971   6.001   2.170   0.922  2.4979  0.1597  0.6475
 6358SOL     OW19972   6.962   2.451   6.801  0.3544 -0.1677  0.0071
 6358SOL    HW119973   7.010   2.423   6.718 -0.2915  1.6779 -1.0404
 6358SOL    HW219974   6.942   2.371   6.857  1.5685 -1.3499 -1.1874
 6359SOL     OW19975   6.395   6.860   6.627 -0.1512  0.1396 -0.7213
 6359SOL    HW119976   6.472   6.829   6.683 -0.2628 -0.2313 -0.7706
 6359SOL    HW219977   6.426   6.871   6.532 -0.4433 -1.1607 -0.9760
 6360SOL     OW19978   0.249   3.577   4.490  0.0317 -0.6683  0.0800
 6360SOL    HW119979   0.327   3.563   4.550 -1.5313 -0.0299  2.4213
 6360SOL    HW219980   0.216   3.489   4.456  0.0664 -1.2125  1.4049
 6361SOL     OW19981   1.736   1.003   6.953  0.7746 -0.3785 -0.3259
 6361SOL    HW119982   1.742   1.099   6.924 -0.8066  0.0628  0.7026
 6361SOL    HW219983   1.770   0.995   7.047 -1.1898 -0.3837  0.4183
 6362SOL     OW19984   2.510   0.498   6.329  0.2203  0.7030 -0.6130
 6362SOL    HW119985   2.553   0.420   6.374  0.6016  1.8151  1.0472
 6362SOL    HW219986   2.447   0.542   6.393  0.8009  2.3782 -1.1526
 6363SOL     OW19987   2.125   3.423   3.444 -0.0643 -0.0587  0.3566
 6363SOL    HW119988   2.165   3.359   3.379 -0.6648  1.1906 -1.3058
 6363SOL    HW219989   2.036   3.453   3.412  0.4681  2.1252  0.7020
 6364SOL     OW19990   1.732   2.608   4.706 -0.3023  0.2645 -0.6926
 6364SOL    HW119991   1.782   2.685   4.745  0.3899  0.0142 -1.0628
 6364SOL    HW219992   1.793   2.554   4.648 -1.3630  0.7524 -2.3313
 6365SOL     OW19993   6.153   6.852   5.954  0.2998  0.0523 -0.2143
 6365SOL    HW119994   6.149   6.763   5.910  0.8402 -0.3037  0.4385
 6365SOL    HW219995   6.063   6.874   5.993 -0.0311  0.1266 -0.9938
 6366SOL     OW19996   6.748   6.072   4.843 -0.3127 -0.5822  0.3409
 6366SOL    HW119997   6.730   6.001   4.911 -0.3585 -0.5930  0.3182
 6366SOL    HW219998   6.705   6.157   4.873 -0.3159 -0.5819  0.3352
 6367SOL     OW19999   4.560   1.700   4.589 -0.1245 -0.4383  0.2529
 6367SOL    HW120000   4.604   1.749   4.514 -1.5478  0.3475 -0.1059
 6367SOL    HW220001   4.463   1.725   4.593 -0.3811 -1.5140  1.5001
 6368SOL     OW20002   3.579   5.606   5.575 -0.1396  0.1998  0.0762
 6368SOL    HW120003   3.561   5.599   5.673  2.1343 -1.5289  0.4692
 6368SOL    HW220004   3.647   5.677   5.559  3.1833 -2.5877  0.5164
 6369SOL     OW20005   2.380   4.936   5.835  0.3560 -0.0671 -0.0176
 6369SOL    HW120006   2.304   4.882   5.799  0.8809 -0.2613 -0.8652
 6369SOL    HW220007   2.465   4.884   5.824  0.3725 -0.8994  3.0846
 6370SOL     OW20008   5.786   2.993   5.737  0.0264  0.8247 -0.1310
 6370SOL    HW120009   5.866   3.035   5.778 -0.8235  0.8839  1.5712
 6370SOL    HW220010   5.703   3.029   5.781 -0.9236  0.4119 -1.5019
 6371SOL     OW20011   4.662   4.046   1.430  0.2053  0.8331 -0.1786
 6371SOL    HW120012   4.565   4.021   1.424  0.0443  0.7928  1.9149
 6371SOL    HW220013   4.690   4.050   1.526  1.8393  2.6131 -0.6581
 6372SOL     OW20014   6.062   0.084   1.884  0.2483 -0.2391 -0.1991
 6372SOL    HW120015   6.059   0.117   1.979  0.7915 -0.6712 -0.0261
 6372SOL    HW220016   5.969   0.073   1.850  0.0379 -0.4590  0.4222
 6373SOL     OW20017   4.979   2.749   1.714  0.5286 -0.3940 -0.4095
 6373SOL    HW120018   5.036   2.829   1.736 -0.7605  0.4135  0.1080
 6373SOL    HW220019   4.883   2.770   1.733 -0.0283 -1.5428 -1.7643
 6374SOL     OW20020   3.445   1.601   5.944  0.0785 -0.2150  0.4001
 6374SOL    HW120021   3.359   1.592   5.894  0.5230 -0.5413 -0.3178
 6374SOL    HW220022   3.445   1.536   6.021 -0.9141  0.8057  1.3097
 6375SOL     OW20023   1.942   2.855   3.292  0.1009 -0.4636  0.3253
 6375SOL    HW120024   1.907   2.948   3.304  1.1511 -0.1294  0.8156
 6375SOL    HW220025   1.923   2.801   3.374  0.9772 -0.1934  0.7186
 6376SOL     OW20026   6.519   1.089   5.047 -0.0806 -0.2167  0.3363
 6376SOL    HW120027   6.614   1.071   5.072 -0.0801  0.6260  0.9972
 6376SOL    HW220028   6.458   1.032   5.103  0.0106 -0.0898  0.5680
 6377SOL     OW20029   2.557   0.118   4.700  0.4845  0.3266  0.5673
 6377SOL    HW120030   2.592   0.205   4.665 -1.1495  1.0251  0.6012
 6377SOL    HW220031   2.464   0.130   4.735  0.0009 -1.5577  0.0766
 6378SOL     OW20032   3.516   0.542   2.675  0.3350  0.1383  0.3111
 6378SOL    HW120033   3.456   0.583   2.744 -0.8447 -0.8809 -0.0710
 6378SOL    HW220034   3.566   0.465   2.715 -0.8692 -0.8931 -0.1149
 6379SOL     OW20035   1.593   2.418   0.952 -0.1121  0.5702 -0.0681
 6379SOL    HW120036   1.623   2.347   1.016 -0.4799  0.7355  0.2904
 6379SOL    HW220037   1.614   2.389   0.858  0.5738  0.4004  0.1337
 6380SOL     OW20038   1.172   3.088   1.773  0.8577  0.2938  0.1701
 6380SOL    HW120039   1.207   2.998   1.799  3.1031  0.8550 -0.6758
 6380SOL    HW220040   1.106   3.078   1.699  2.5233 -0.6019 -1.2824
 6381SOL     OW20041   4.986   2.126   0.602 -0.2510 -0.2217  0.2194
 6381SOL    HW120042   4.939   2.043   0.631  2.1291 -0.5722  3.5578
 6381SOL    HW220043   4.953   2.203   0.657  1.0931  0.0450  0.6671
 6382SOL     OW20044   2.119   0.780   2.801 -0.1711 -0.1768 -0.1742
 6382SOL    HW120045   2.186   0.821   2.863  0.1371 -0.0445 -0.5930
 6382SOL    HW220046   2.114   0.833   2.716  0.1845 -0.9657 -0.6982
 6383SOL     OW20047   2.109   2.196   2.564  0.2749  0.5467  0.1816
 6383SOL    HW120048   2.095   2.293   2.583  0.0545  0.4321  0.5991
 6383SOL    HW220049   2.022   2.154   2.539  0.2282  0.2858  0.7668
 6384SOL     OW20050   4.840   4.584   2.523  0.1774 -0.3576 -0.2571
 6384SOL    HW120051   4.868   4.519   2.452  2.8209 -1.1489  1.4098
 6384SOL    HW220052   4.917   4.642   2.547 -0.5022 -0.4088  2.2611
 6385SOL     OW20053   6.250   4.800   1.784  0.2321  0.0392 -0.1911
 6385SOL    HW120054   6.314   4.734   1.823  1.4262  1.1939 -0.1137
 6385SOL    HW220055   6.249   4.790   1.684  2.5316  1.6483 -0.4581
 6386SOL     OW20056   1.867   1.768   0.833  0.4387 -0.4247  0.1411
 6386SOL    HW120057   1.820   1.758   0.921 -1.8261  0.3277 -0.9027
 6386SOL    HW220058   1.921   1.852   0.833  0.9814 -0.7659  1.0312
 6387SOL     OW20059   6.676   1.095   6.083  0.2643  0.6055 -0.0905
 6387SOL    HW120060   6.663   1.189   6.050 -0.7489  0.5013 -0.0229
 6387SOL    HW220061   6.691   1.034   6.004 -0.5150  0.6105 -0.2505
 6388SOL     OW20062   5.815   5.117   3.650 -0.0141 -0.0030  0.1063
 6388SOL    HW120063   5.786   5.176   3.574  0.8126 -2.0920 -1.9536
 6388SOL    HW220064   5.913   5.099   3.642 -0.4047 -2.3888  0.0826
 6389SOL     OW20065   1.351   1.656   0.041  0.1391 -0.5548  0.2172
 6389SOL    HW120066   1.347   1.560   0.070 -1.3419 -0.5974 -0.0643
 6389SOL    HW220067   1.297   1.712   0.103  0.6633  0.0535  0.1415
 6390SOL     OW20068   5.563   0.734   1.184 -0.1964  0.3675  0.1756
 6390SOL    HW120069   5.653   0.776   1.173 -0.2241  0.5526  0.6165
 6390SOL    HW220070   5.568   0.663   1.255  0.0074 -0.8592 -1.0184
 6391SOL     OW20071   2.278   0.350   6.904  0.0395  0.4778 -0.0197
 6391SOL    HW120072   2.296   0.436   6.951  0.4201 -0.2074  1.1525
 6391SOL    HW220073   2.188   0.315   6.932  0.7876 -0.5512  1.2415
 6392SOL     OW20074   2.804   5.903   3.951 -0.3068  0.4070  0.4237
 6392SOL    HW120075   2.726   5.847   3.979 -0.8770  0.9447 -0.0594
 6392SOL    HW220076   2.818   5.976   4.018  0.9514 -0.7719  1.4924
 6393SOL     OW20077   6.925   4.995   0.763  0.3910  0.2720  0.5013
 6393SOL    HW120078   6.959   5.065   0.700 -0.4066  0.0624 -0.1895
 6393SOL    HW220079   6.963   5.010   0.854  2.6526 -0.2004 -0.2988
 6394SOL     OW20080   1.188   6.911   6.660  0.3111  0.3063 -0.2221
 6394SOL    HW120081   1.173   6.895   6.758 -0.9844  0.3558 -0.3891
 6394SOL    HW220082   1.249   6.989   6.648  1.3333 -0.3569  0.5460
 6395SOL     OW20083   5.453   3.749   2.667 -0.3255  0.8137  0.0093
 6395SOL    HW120084   5.429   3.777   2.574 -1.8504 -0.5794 -0.0612
 6395SOL    HW220085   5.376   3.766   2.728 -1.5911 -3.3680 -0.1180
 6396SOL     OW20086   5.344   5.344   6.195 -0.1720  0.3331  0.7171
 6396SOL    HW120087   5.260   5.366   6.146 -0.1746  1.0625  1.0264
 6396SOL    HW220088   5.403   5.287   6.138 -0.8094 -0.0614  0.4426
 6397SOL     OW20089   0.049   0.247   2.222  0.0461 -0.1036  0.3272
 6397SOL    HW120090   0.030   0.250   2.124  0.2767 -2.5894  0.1270
 6397SOL    HW220091   0.045   0.339   2.260  0.7836  1.0417 -2.1575
 6398SOL     OW20092   0.217   5.809   3.678  0.3303 -0.1230 -0.2321
 6398SOL    HW120093   0.226   5.840   3.772  2.0608 -0.1111 -0.3691
 6398SOL    HW220094   0.243   5.883   3.615 -3.0455  0.6866 -0.8697
 6399SOL     OW20095   1.507   6.911   6.011  0.3567  0.5460 -0.3808
 6399SOL    HW120096   1.460   6.999   6.020  0.8820  0.7491  0.4378
 6399SOL    HW220097   1.467   6.845   6.075  1.0112  0.6505  0.1460
 6400SOL     OW20098   1.414   5.115   0.076 -0.4623 -0.9112  0.8238
 6400SOL    HW120099   1.394   5.192   0.014  2.9957  0.0873  0.7446
 6400SOL    HW220100   1.328   5.079   0.112 -2.3337  2.0541 -0.2471
 6401SOL     OW20101   3.192   6.065   3.111  0.0707  0.1538 -0.7345
 6401SOL    HW120102   3.263   6.015   3.162 -0.0129 -0.4112 -1.1676
 6401SOL    HW220103   3.197   6.162   3.135 -1.0819 -0.3031  1.6839
 6402SOL     OW20104   0.421   3.640   3.882 -0.1222 -0.4939 -0.3311
 6402SOL    HW120105   0.500   3.675   3.933 -1.8181  1.4209  1.1460
 6402SOL    HW220106   0.413   3.690   3.796  0.7693 -1.3599 -0.9459
 6403SOL     OW20107   6.580   0.153   4.945  0.1204 -0.4511  0.2812
 6403SOL    HW120108   6.520   0.216   4.896 -1.0248 -1.7365 -0.0308
 6403SOL    HW220109   6.642   0.205   5.004  0.5742  1.0546 -1.4387
 6404SOL     OW20110   2.879   2.177   2.773 -0.3908 -0.2410  0.2045
 6404SOL    HW120111   2.927   2.184   2.861  1.3878  0.5309 -0.7839
 6404SOL    HW220112   2.789   2.136   2.788 -1.0670  1.8605  2.7244
 6405SOL     OW20113   4.989   2.403   4.110 -0.1839 -0.6728  0.2694
 6405SOL    HW120114   5.076   2.361   4.137 -0.2837 -1.0072  0.0725
 6405SOL    HW220115   5.000   2.503   4.110 -0.5929 -0.5368  3.0133
 6406SOL     OW20116   2.102   3.338   2.220 -0.0989  0.0929  0.0841
 6406SOL    HW120117   2.123   3.397   2.142 -2.5330  0.0350 -0.7012
 6406SOL    HW220118   2.126   3.243   2.197 -0.0867  0.1876 -0.3031
 6407SOL     OW20119   2.541   5.422   3.969  0.3183 -0.1456  0.4235
 6407SOL    HW120120   2.544   5.322   3.977 -1.1618 -0.4104 -1.5620
 6407SOL    HW220121   2.446   5.453   3.970  0.4724  0.7891 -2.7875
 6408SOL     OW20122   5.741   6.777   1.761 -0.5600  0.8822 -0.5784
 6408SOL    HW120123   5.668   6.845   1.762 -0.8739  0.5604  1.5482
 6408SOL    HW220124   5.752   6.738   1.852 -0.3294 -1.8934 -1.7058
 6409SOL     OW20125   0.391   4.027   3.915  0.0491 -0.7324 -0.4056
 6409SOL    HW120126   0.305   4.054   3.959 -0.7334 -3.3368 -0.1400
 6409SOL    HW220127   0.458   4.002   3.984 -0.1511 -1.9137 -0.6165
 6410SOL     OW20128   2.398   1.824   6.250  0.2965  0.6466  0.0639
 6410SOL    HW120129   2.349   1.772   6.320  1.2509 -1.0681 -0.4690
 6410SOL    HW220130   2.333   1.880   6.198 -0.8741 -0.3601  0.3799
 6411SOL     OW20131   0.164   2.851   1.381  0.8255  0.3778 -0.0440
 6411SOL    HW120132   0.078   2.848   1.432  0.5133  1.3232 -0.4922
 6411SOL    HW220133   0.147   2.826   1.285  1.1474  0.0520 -0.0200
 6412SOL     OW20134   3.169   6.351   4.160 -0.2237  0.2029 -0.5573
 6412SOL    HW120135   3.095   6.320   4.101  0.8414 -2.5017 -0.6200
 6412SOL    HW220136   3.131   6.401   4.238 -1.9377  0.4009 -1.4713
 6413SOL     OW20137   5.013   5.495   2.750  0.4768 -0.2769 -0.0353
 6413SOL    HW120138   5.005   5.404   2.711 -0.7434 -0.1263 -0.1696
 6413SOL    HW220139   4.943   5.508   2.820 -0.1583  0.9483 -0.8523
 6414SOL     OW20140   6.905   6.642   5.284 -0.8424 -0.1416  0.4482
 6414SOL    HW120141   6.929   6.589   5.203 -2.2486  0.6451 -0.5284
 6414SOL    HW220142   6.809   6.626   5.307 -0.3959 -0.5406  2.1314
 6415SOL     OW20143   0.893   2.938   2.718 -0.0455 -0.1322  0.1768
 6415SOL    HW120144   0.869   3.009   2.652  2.8938  1.6406  0.8298
 6415SOL    HW220145   0.992   2.935   2.730 -0.3140 -1.7063  3.0664
 6416SOL     OW20146   4.353   1.530   0.581  0.3725  0.4209  0.1388
 6416SOL    HW120147   4.276   1.594   0.587 -1.5889 -1.7559 -0.5428
 6416SOL    HW220148   4.410   1.554   0.502  0.3688  1.9980  0.5842
 6417SOL     OW20149   6.429   3.338   2.161 -0.2605 -0.5561 -0.1908
 6417SOL    HW120150   6.430   3.333   2.061  0.3336 -1.0861 -0.1594
 6417SOL    HW220151   6.435   3.434   2.189  3.7049 -0.5171 -0.6370
 6418SOL     OW20152   5.678   4.331   4.028  0.2400 -0.2930  0.5001
 6418SOL    HW120153   5.630   4.267   3.968  0.0083  0.0926  0.2699
 6418SOL    HW220154   5.753   4.284   4.075  1.3595 -0.2786 -1.1863
 6419SOL     OW20155   0.244   6.506   6.826 -0.2364 -0.3300  0.4493
 6419SOL    HW120156   0.340   6.487   6.807  0.2516  1.7058  0.6598
 6419SOL    HW220157   0.216   6.588   6.777 -1.3827  0.0866  1.7302
 6420SOL     OW20158   1.353   1.769   4.474 -0.0426  0.1344  0.1577
 6420SOL    HW120159   1.391   1.696   4.418 -1.6040  0.0875 -0.9132
 6420SOL    HW220160   1.424   1.836   4.495  0.7081 -0.0915 -1.4925
 6421SOL     OW20161   4.138   0.447   2.971 -0.3953  0.3819  0.3846
 6421SOL    HW120162   4.166   0.542   2.981 -1.2340  0.8399 -1.2485
 6421SOL    HW220163   4.094   0.416   3.056 -0.2332  1.4793  0.8868
 6422SOL     OW20164   6.925   0.737   6.169 -0.0765  0.5129  0.2846
 6422SOL    HW120165   6.844   0.681   6.155 -0.0561 -0.3085  3.0365
 6422SOL    HW220166   6.898   0.826   6.206  0.2491  0.2716  1.1213
 6423SOL     OW20167   5.236   1.230   2.548 -0.2144 -0.2229  0.5657
 6423SOL    HW120168   5.272   1.179   2.626 -0.6542  0.5223  1.2735
 6423SOL    HW220169   5.262   1.326   2.556  2.7436 -0.6514 -2.0380
 6424SOL     OW20170   6.264   2.654   3.457 -0.0643 -0.3685 -0.1199
 6424SOL    HW120171   6.280   2.580   3.392 -0.0334  0.4698 -1.0842
 6424SOL    HW220172   6.224   2.732   3.409 -0.8454 -0.0445  1.0299
 6425SOL     OW20173   6.730   6.376   2.849 -0.4965 -0.5150 -0.2826
 6425SOL    HW120174   6.730   6.399   2.751 -2.1802  0.2941 -0.1251
 6425SOL    HW220175   6.802   6.308   2.867  0.5837  0.1337 -1.8632
 6426SOL     OW20176   3.810   5.423   6.014  0.1243  0.4800 -0.0410
 6426SOL    HW120177   3.719   5.387   6.036  0.8364 -0.9168  0.7470
 6426SOL    HW220178   3.824   5.417   5.915 -0.6817  0.8134 -0.1852
 6427SOL     OW20179   4.030   3.466   3.687 -0.1735  0.2449  0.7611
 6427SOL    HW120180   4.076   3.543   3.731  0.0547  0.2022  0.5983
 6427SOL    HW220181   4.078   3.381   3.710 -1.1527 -0.0078  1.9787
 6428SOL     OW20182   5.815   2.329   6.460  0.3526 -0.4474 -0.6465
 6428SOL    HW120183   5.755   2.298   6.386 -0.0737  0.3854 -0.6630
 6428SOL    HW220184   5.766   2.323   6.547  0.6080 -0.7477 -0.5222
 6429SOL     OW20185   1.870   5.467   4.442 -0.2107  0.6065 -0.5589
 6429SOL    HW120186   1.832   5.478   4.350 -0.3050  3.2160 -0.2871
 6429SOL    HW220187   1.796   5.460   4.509 -0.1430 -1.0038 -0.6303
 6430SOL     OW20188   5.952   0.227   2.769 -0.7092  0.2276 -0.0984
 6430SOL    HW120189   5.856   0.253   2.756 -1.0523 -1.0645 -0.2860
 6430SOL    HW220190   5.957   0.130   2.793  0.4728  0.5892  1.2209
 6431SOL     OW20191   3.816   4.832   2.414  0.1416 -0.0131  0.0420
 6431SOL    HW120192   3.869   4.748   2.406 -2.1249 -1.5630  0.4615
 6431SOL    HW220193   3.837   4.893   2.338  1.1398 -1.3669 -0.7837
 6432SOL     OW20194   3.185   4.938   6.531  0.1939 -0.5822 -0.7359
 6432SOL    HW120195   3.127   4.975   6.458 -0.6951 -0.4264  0.0265
 6432SOL    HW220196   3.272   4.907   6.493  0.3849  0.9581 -1.6183
 6433SOL     OW20197   3.302   5.457   6.746 -0.0691 -0.2672  0.1362
 6433SOL    HW120198   3.401   5.458   6.732 -0.0083  0.1873  0.5580
 6433SOL    HW220199   3.283   5.437   6.842 -0.3420  0.8608  0.3354
 6434SOL     OW20200   1.117   1.058   0.259  0.4922  0.0350 -0.1734
 6434SOL    HW120201   1.111   0.963   0.288 -2.8663  0.0733 -0.3825
 6434SOL    HW220202   1.098   1.117   0.338  0.5913  0.4540 -0.4617
 6435SOL     OW20203   6.443   0.856   0.612 -0.3266  0.2242  0.0799
 6435SOL    HW120204   6.413   0.789   0.680 -0.2249 -1.3568 -1.3428
 6435SOL    HW220205   6.443   0.947   0.652 -0.2751 -0.6398  2.1635
 6436SOL     OW20206   1.207   2.513   2.936 -0.4463 -0.4833  0.1270
 6436SOL    HW120207   1.204   2.549   2.843  0.3038 -0.1132  0.2406
 6436SOL    HW220208   1.209   2.413   2.933 -1.0132 -0.4841 -0.2342
 6437SOL     OW20209   2.102   0.715   6.339  0.3147 -0.3345 -0.1324
 6437SOL    HW120210   2.132   0.645   6.274 -0.2138 -0.5499 -0.1515
 6437SOL    HW220211   2.019   0.684   6.385 -0.5140  0.7190 -0.8874
 6438SOL     OW20212   3.840   5.136   6.439  0.1359  0.3700 -0.1862
 6438SOL    HW120213   3.902   5.099   6.508  0.0243 -0.0061 -0.2843
 6438SOL    HW220214   3.746   5.106   6.458 -0.0688  1.1883  0.1370
 6439SOL     OW20215   6.485   0.807   4.120  0.2210 -0.6621  0.0381
 6439SOL    HW120216   6.448   0.865   4.047  0.4720 -1.4488 -0.7246
 6439SOL    HW220217   6.531   0.865   4.188 -2.4021  0.3676  1.0668
 6440SOL     OW20218   2.543   1.223   6.294  0.1670  0.1466 -0.2134
 6440SOL    HW120219   2.487   1.289   6.343  0.2966  0.6584 -0.7470
 6440SOL    HW220220   2.584   1.159   6.360  0.8445  1.1951  0.4224
 6441SOL     OW20221   1.437   6.250   2.334 -0.0467  0.0832 -0.3935
 6441SOL    HW120222   1.473   6.298   2.414 -0.0091  0.7958 -0.8340
 6441SOL    HW220223   1.411   6.316   2.264  0.8112 -0.5858 -1.3607
 6442SOL     OW20224   1.167   1.159   4.330 -0.1264 -0.6263 -0.2322
 6442SOL    HW120225   1.171   1.066   4.294 -0.0638 -0.9811  0.6806
 6442SOL    HW220226   1.152   1.223   4.255  0.5075 -1.3064 -0.9575
 6443SOL     OW20227   2.285   1.991   6.071 -0.2417  0.0843  0.6459
 6443SOL    HW120228   2.200   2.027   6.109  0.2453  0.8865  0.9989
 6443SOL    HW220229   2.296   2.024   5.977  0.6446  1.6594  1.2640
 6444SOL     OW20230   6.564   2.349   5.153  0.4119 -0.0379 -0.1266
 6444SOL    HW120231   6.475   2.324   5.190  0.3690  0.1082 -0.1298
 6444SOL    HW220232   6.572   2.449   5.149  0.4271 -0.0492 -0.4817
 6445SOL     OW20233   3.401   3.573   4.677  0.3720 -0.4785 -0.0362
 6445SOL    HW120234   3.475   3.610   4.732 -0.1259  0.7310 -0.1435
 6445SOL    HW220235   3.333   3.530   4.737  0.1896  0.1800  0.2318
 6446SOL     OW20236   0.963   2.130   5.590  0.4184  0.4469 -0.0363
 6446SOL    HW120237   0.972   2.171   5.681  0.8085  0.5112 -0.1010
 6446SOL    HW220238   1.009   2.041   5.589 -0.8702 -0.2424  0.2505
 6447SOL     OW20239   0.048   2.631   1.861 -0.3830  0.1233  0.5157
 6447SOL    HW120240  -0.050   2.648   1.858 -0.5949 -0.8473  1.3669
 6447SOL    HW220241   0.097   2.716   1.881 -0.9354  0.8807 -1.1525
 6448SOL     OW20242   4.945   5.030   0.704 -0.4670  0.2155 -0.0824
 6448SOL    HW120243   4.995   4.943   0.704  1.4377  1.2487 -0.3331
 6448SOL    HW220244   4.885   5.035   0.625  0.6805 -0.2037 -1.0033
 6449SOL     OW20245   2.882   4.996   1.834  0.4121  0.5473 -0.0544
 6449SOL    HW120246   2.891   4.903   1.798 -0.8307  0.7753 -1.0482
 6449SOL    HW220247   2.839   4.993   1.925 -1.9764  0.2308 -1.1283
 6450SOL     OW20248   6.462   3.807   0.159 -0.5997 -0.3749  0.4359
 6450SOL    HW120249   6.537   3.868   0.134 -1.5465  0.5231 -0.2491
 6450SOL    HW220250   6.421   3.837   0.245 -1.3486  0.2372 -0.1231
 6451SOL     OW20251   2.811   0.876   6.200 -0.1515 -0.3279 -0.7969
 6451SOL    HW120252   2.724   0.849   6.242 -0.8222  0.9976 -1.2638
 6451SOL    HW220253   2.804   0.867   6.101  0.9638 -2.1466 -0.7569
 6452SOL     OW20254   4.714   4.282   4.024  0.5040 -0.6912  0.5538
 6452SOL    HW120255   4.753   4.333   3.947 -1.0450 -1.3362 -0.7124
 6452SOL    HW220256   4.765   4.197   4.037  0.0433 -1.1633 -0.5851
 6453SOL     OW20257   4.296   1.183   2.447 -0.4574  0.6369 -0.1101
 6453SOL    HW120258   4.268   1.101   2.496 -1.3867  0.5613 -0.7348
 6453SOL    HW220259   4.330   1.157   2.357 -1.8569  0.9933 -0.7739
 6454SOL     OW20260   1.541   2.040   0.812  0.7261 -0.0057 -0.1552
 6454SOL    HW120261   1.450   2.079   0.827  1.4830  1.7941  0.0417
 6454SOL    HW220262   1.571   2.062   0.719  1.1585 -0.1894 -0.0572
 6455SOL     OW20263   0.131   4.234   3.336 -0.6885 -0.2726 -0.0756
 6455SOL    HW120264   0.088   4.186   3.412  1.3903 -1.2282  0.5685
 6455SOL    HW220265   0.152   4.169   3.263  1.3388 -0.2598  0.4308
 6456SOL     OW20266   2.282   6.564   3.312  0.0796 -0.0855 -0.0432
 6456SOL    HW120267   2.315   6.645   3.264  0.7757  1.0942  2.2783
 6456SOL    HW220268   2.182   6.570   3.322  0.1341  0.5425  0.1806
 6457SOL     OW20269   4.881   6.621   1.388 -0.1410  0.1503  0.2660
 6457SOL    HW120270   4.919   6.574   1.468 -1.5272 -2.0589 -0.2791
 6457SOL    HW220271   4.855   6.554   1.319 -2.0401  1.7575 -0.6893
 6458SOL     OW20272   2.475   5.835   4.891 -0.5064 -0.2621 -0.0089
 6458SOL    HW120273   2.457   5.840   4.793 -0.8970  1.0472  0.1043
 6458SOL    HW220274   2.471   5.740   4.922 -0.8279 -0.6353 -1.1763
 6459SOL     OW20275   6.040   3.143   1.592  0.4687 -0.0218  0.0582
 6459SOL    HW120276   5.990   3.068   1.634 -0.2712  0.9707  1.0013
 6459SOL    HW220277   6.065   3.118   1.498 -0.0438 -1.3054  0.2488
 6460SOL     OW20278   5.660   6.678   6.843 -0.0071  0.1653  0.0861
 6460SOL    HW120279   5.695   6.593   6.882 -2.9440 -1.3917 -0.3613
 6460SOL    HW220280   5.719   6.706   6.767 -0.1163 -2.8367 -1.2890
 6461SOL     OW20281   3.160   2.603   5.636  0.2768  0.6214 -0.0968
 6461SOL    HW120282   3.243   2.587   5.689 -0.0462 -3.5864 -0.4839
 6461SOL    HW220283   3.085   2.547   5.674 -1.4173  1.6015 -1.8239
 6462SOL     OW20284   1.683   2.437   4.931  0.3632 -0.1304  0.2522
 6462SOL    HW120285   1.772   2.444   4.977 -0.2056  1.8016  1.1413
 6462SOL    HW220286   1.687   2.487   4.844  0.6383 -1.5244 -0.5611
 6463SOL     OW20287   4.853   6.459   0.310  0.0232 -0.2933  0.3782
 6463SOL    HW120288   4.791   6.516   0.364 -0.6742 -0.3477 -0.3540
 6463SOL    HW220289   4.835   6.362   0.330 -1.7340 -0.4050 -1.5184
 6464SOL     OW20290   6.841   4.136   4.742  0.4169  0.6896  0.0042
 6464SOL    HW120291   6.934   4.133   4.703  0.2251  2.7336 -0.7497
 6464SOL    HW220292   6.814   4.231   4.756 -1.7457  0.1655 -0.2227
 6465SOL     OW20293   0.325   4.166   1.156  0.2366  0.3486  0.0508
 6465SOL    HW120294   0.347   4.077   1.197 -0.0406  0.5079  0.5505
 6465SOL    HW220295   0.234   4.195   1.185  0.4307  0.9186  0.0964
 6466SOL     OW20296   4.841   3.191   0.074 -0.1239  0.4541 -0.3655
 6466SOL    HW120297   4.920   3.246   0.045  0.1717  0.1510 -0.1403
 6466SOL    HW220298   4.825   3.119   0.007  0.8728 -0.5622  0.4489
 6467SOL     OW20299   4.272   1.605   0.021 -0.0369 -0.4737 -0.0149
 6467SOL    HW120300   4.367   1.574   0.019 -0.1707 -0.8616 -0.4453
 6467SOL    HW220301   4.221   1.562  -0.053 -0.7039 -0.7680  0.6033
 6468SOL     OW20302   2.076   0.886   1.545 -0.3640  0.4964 -0.6056
 6468SOL    HW120303   1.987   0.881   1.499 -0.5239 -0.8612 -0.1983
 6468SOL    HW220304   2.120   0.796   1.541  0.2526  0.7293  0.6168
 6469SOL     OW20305   4.246   2.100   4.128  0.7791 -0.1372  0.3100
 6469SOL    HW120306   4.218   2.162   4.201  0.3931 -0.1391  0.1646
 6469SOL    HW220307   4.188   2.019   4.129  1.7093 -0.8102  0.9220
 6470SOL     OW20308   5.153   3.072   1.774  0.4819  0.1414 -0.2261
 6470SOL    HW120309   5.083   3.036   1.835  0.2251  0.3496 -0.3936
 6470SOL    HW220310   5.216   3.130   1.826  1.4347 -1.2326  0.2317
 6471SOL     OW20311   1.357   6.328   4.855 -0.2971 -0.4470  0.0329
 6471SOL    HW120312   1.424   6.258   4.879 -1.7696 -2.4193 -1.1863
 6471SOL    HW220313   1.268   6.303   4.895 -0.2622  2.4494  2.2021
 6472SOL     OW20314   5.204   5.147   4.796  0.0164 -0.2605  0.4020
 6472SOL    HW120315   5.273   5.150   4.868 -1.1393  0.2571  1.5250
 6472SOL    HW220316   5.238   5.195   4.715  0.8443  0.2667  1.0451
 6473SOL     OW20317   2.440   0.670   3.783 -0.3728 -0.0358 -0.2492
 6473SOL    HW120318   2.362   0.712   3.830  0.5603 -0.3081  1.6233
 6473SOL    HW220319   2.473   0.593   3.836  1.6418  0.5223 -0.6310
 6474SOL     OW20320   3.777   6.655   6.547 -0.2624 -0.3802 -0.0371
 6474SOL    HW120321   3.750   6.595   6.622 -0.2594 -0.6228 -0.2294
 6474SOL    HW220322   3.698   6.672   6.488 -0.2425 -0.2660 -0.0313
 6475SOL     OW20323   5.704   0.538   4.406  0.0907  0.2349  0.1127
 6475SOL    HW120324   5.621   0.482   4.400 -0.2531  0.3762  2.5634
 6475SOL    HW220325   5.761   0.506   4.481  0.8474  1.9631  0.3356
 6476SOL     OW20326   3.530   2.581   0.177  0.1890  0.0227  0.1846
 6476SOL    HW120327   3.492   2.666   0.141 -1.6191 -0.8653 -0.1335
 6476SOL    HW220328   3.569   2.527   0.103  1.0215  0.4062  0.3350
 6477SOL     OW20329   5.135   6.417   6.026 -0.2935  0.8589 -0.1790
 6477SOL    HW120330   5.083   6.341   5.987  0.3345 -0.0214  0.6225
 6477SOL    HW220331   5.106   6.431   6.121  0.7088  0.5304  0.1935
 6478SOL     OW20332   3.088   5.722   1.856 -0.2563  0.3834  0.4366
 6478SOL    HW120333   3.108   5.694   1.950 -0.6070  0.6222  0.5805
 6478SOL    HW220334   3.056   5.642   1.804 -0.3020  0.3062  0.5837
 6479SOL     OW20335   3.557   5.814   3.612  0.3476  0.0355  0.2400
 6479SOL    HW120336   3.473   5.780   3.653  0.4464 -0.7720 -0.2023
 6479SOL    HW220337   3.636   5.773   3.658  0.5390  1.3226  1.1188
 6480SOL     OW20338   1.497   1.905   6.075 -0.2150  0.8201  0.6736
 6480SOL    HW120339   1.420   1.952   6.118  0.4002  0.6633  1.9902
 6480SOL    HW220340   1.580   1.960   6.085  0.3403 -0.1480  1.4801
 6481SOL     OW20341   3.244   2.804   1.844 -0.4934  0.7239  0.3843
 6481SOL    HW120342   3.277   2.799   1.939 -2.8295  0.0176  1.2239
 6481SOL    HW220343   3.251   2.714   1.801 -1.0712  0.6244  0.4909
 6482SOL     OW20344   5.492   1.382   6.012 -0.5126  0.2591 -0.1672
 6482SOL    HW120345   5.551   1.301   6.002 -0.0236  0.7413 -1.4825
 6482SOL    HW220346   5.481   1.404   6.109 -0.3032 -1.1243  0.1910
 6483SOL     OW20347   5.385   6.692   4.212  0.7646  0.2325 -0.4624
 6483SOL    HW120348   5.311   6.637   4.174 -1.6025  2.5167  0.5553
 6483SOL    HW220349   5.398   6.774   4.157  1.1448  0.8382  0.4921
 6484SOL     OW20350   0.903   0.361   3.659  0.0468  0.3684  0.8520
 6484SOL    HW120351   0.853   0.409   3.587  0.5229  0.5339  0.6286
 6484SOL    HW220352   0.861   0.380   3.748 -0.2868  0.5025  0.6633
 6485SOL     OW20353   3.819   0.816   5.766 -0.4003 -0.3547  0.6084
 6485SOL    HW120354   3.732   0.776   5.793 -0.5032 -0.2669  0.4087
 6485SOL    HW220355   3.820   0.830   5.667  0.1148 -1.0098  0.5135
 6486SOL     OW20356   0.175   5.574   2.541 -0.2515  0.2301  0.0393
 6486SOL    HW120357   0.270   5.603   2.531 -0.1638 -0.1073 -0.0910
 6486SOL    HW220358   0.165   5.479   2.514 -0.4941  0.0547  0.7370
 6487SOL     OW20359   0.228   5.028   0.383 -0.1917 -0.1538  0.1046
 6487SOL    HW120360   0.177   4.949   0.416 -2.3796  0.4148 -1.6731
 6487SOL    HW220361   0.245   5.091   0.459 -1.6947 -0.6253  0.8617
 6488SOL     OW20362   5.370   6.029   6.347 -0.3202  0.2652 -0.1453
 6488SOL    HW120363   5.286   6.081   6.332 -0.1797  1.0895  1.6590
 6488SOL    HW220364   5.349   5.931   6.349 -1.2779  0.4665  0.4535
 6489SOL     OW20365   5.775   4.525   5.858 -0.1337 -0.3501 -0.0062
 6489SOL    HW120366   5.712   4.603   5.864  1.3699  1.0240 -1.1535
 6489SOL    HW220367   5.826   4.517   5.944 -0.3851 -0.1342  0.1635
 6490SOL     OW20368   1.531   2.454   5.478 -0.1457 -0.4112  0.3394
 6490SOL    HW120369   1.531   2.354   5.470  3.4859 -0.7551  2.3306
 6490SOL    HW220370   1.448   2.484   5.524 -2.0148 -2.2646 -1.5864
 6491SOL     OW20371   2.439   6.468   3.855 -0.0147 -0.0482 -0.6705
 6491SOL    HW120372   2.418   6.520   3.772 -1.6609 -2.3172 -1.8120
 6491SOL    HW220373   2.475   6.378   3.830 -0.5364 -0.7894  1.0708
 6492SOL     OW20374   3.094   4.063   5.159  0.1251  0.1162 -0.4713
 6492SOL    HW120375   3.015   4.005   5.144  0.1997 -0.1419  0.0953
 6492SOL    HW220376   3.065   4.152   5.196  0.2237 -0.8330  2.1125
 6493SOL     OW20377   1.057   4.064   6.290  0.0667 -0.4185 -0.1746
 6493SOL    HW120378   1.146   4.107   6.302 -0.6267  0.8940  0.5604
 6493SOL    HW220379   1.066   3.982   6.234  1.7540 -0.4284  0.0707
 6494SOL     OW20380   6.129   5.899   2.796  0.1870 -0.3080 -0.1376
 6494SOL    HW120381   6.179   5.985   2.809 -0.0191 -0.1646 -0.3042
 6494SOL    HW220382   6.165   5.851   2.716 -1.4607  0.8897 -1.6788
 6495SOL     OW20383   1.804   0.978   4.653  0.3825  0.3031 -0.4065
 6495SOL    HW120384   1.900   1.003   4.666 -0.2145  3.1026 -0.7965
 6495SOL    HW220385   1.773   1.013   4.565 -2.1668  3.6240  1.6142
 6496SOL     OW20386   5.596   5.389   2.131  1.2206 -0.8837  0.0863
 6496SOL    HW120387   5.545   5.475   2.131  1.2333 -0.8745 -0.3161
 6496SOL    HW220388   5.658   5.388   2.209 -0.1248 -1.3367  1.1872
 6497SOL     OW20389   2.816   0.315   0.565  0.5263  0.3616 -0.2654
 6497SOL    HW120390   2.800   0.325   0.467 -0.0243  1.1568 -0.1087
 6497SOL    HW220391   2.868   0.394   0.598  0.9393 -0.0352  0.0383
 6498SOL     OW20392   6.943   3.281   3.881 -0.0162  0.0008  0.3417
 6498SOL    HW120393   6.963   3.186   3.858  1.9476  0.1363  1.2585
 6498SOL    HW220394   7.028   3.333   3.885 -0.9178  1.4972  1.1626
 6499SOL     OW20395   5.996   3.302   3.632 -0.0672  0.6129 -0.0252
 6499SOL    HW120396   6.021   3.254   3.548  1.2333 -0.1618  0.7730
 6499SOL    HW220397   6.023   3.397   3.625 -2.3463  1.2455 -1.4833
 6500SOL     OW20398   0.848   4.608   2.024 -0.0027  0.3679 -0.0972
 6500SOL    HW120399   0.817   4.698   1.994  0.6469  0.3792 -0.7350
 6500SOL    HW220400   0.782   4.572   2.090 -0.5847  1.0471 -0.2865
 6501SOL     OW20401   6.761   1.339   0.443  0.4628 -0.3193  0.1800
 6501SOL    HW120402   6.748   1.299   0.352  2.4643  0.6085 -0.5784
 6501SOL    HW220403   6.859   1.337   0.466 -0.0634 -1.1785  2.6523
 6502SOL     OW20404   0.917   2.774   1.063 -0.4204  0.6181  0.7034
 6502SOL    HW120405   0.948   2.816   1.148 -2.5502  0.2000  1.7330
 6502SOL    HW220406   0.831   2.816   1.034 -1.3941 -1.3824  0.5230
 6503SOL     OW20407   6.130   0.399   3.667  0.5727  0.2893  0.0027
 6503SOL    HW120408   6.210   0.449   3.700 -0.3107  0.8098  1.4805
 6503SOL    HW220409   6.047   0.452   3.687 -0.1422 -0.1131 -1.7148
 6504SOL     OW20410   5.127   0.105   0.768 -0.4769  0.4878  0.2564
 6504SOL    HW120411   5.140   0.204   0.764  0.9259  0.4219  1.9504
 6504SOL    HW220412   5.153   0.064   0.681  2.0642  1.3459  0.5142
 6505SOL     OW20413   4.631   1.312   6.636 -0.1192 -0.3996 -0.5857
 6505SOL    HW120414   4.729   1.293   6.637  0.0218  0.3193  0.2619
 6505SOL    HW220415   4.605   1.347   6.546  0.4396 -0.4300 -0.7612
 6506SOL     OW20416   6.556   3.200   1.770  0.2165  0.4879 -0.1665
 6506SOL    HW120417   6.498   3.277   1.798  0.5731  0.5115  0.5487
 6506SOL    HW220418   6.631   3.235   1.713  0.5660  0.7341  0.4271
 6507SOL     OW20419   2.757   6.833   6.557 -0.1320  0.1059  0.0751
 6507SOL    HW120420   2.827   6.766   6.578  0.0657 -0.6578 -2.6568
 6507SOL    HW220421   2.792   6.897   6.489 -2.0148 -0.2609 -1.3062
 6508SOL     OW20422   0.877   5.876   2.026 -0.7389 -0.0272  0.7941
 6508SOL    HW120423   0.943   5.895   1.954  0.4653 -0.5399  1.7364
 6508SOL    HW220424   0.816   5.955   2.036  0.2224  0.7889  0.4336
 6509SOL     OW20425   4.232   0.430   5.238  0.0485 -0.5419 -0.1168
 6509SOL    HW120426   4.220   0.504   5.172 -3.3350  0.8045  1.7614
 6509SOL    HW220427   4.247   0.344   5.189  0.8127  0.8144 -2.4544
 6510SOL     OW20428   4.150   1.397   0.719  0.1112 -0.0735 -0.0426
 6510SOL    HW120429   4.109   1.439   0.637  0.4206  1.3429  0.4995
 6510SOL    HW220430   4.249   1.401   0.712  0.1834 -2.0329 -0.6136
 6511SOL     OW20431   3.507   6.420   0.157  0.1483 -0.5406  0.4847
 6511SOL    HW120432   3.408   6.408   0.150 -0.2733  1.6580  1.6051
 6511SOL    HW220433   3.553   6.368   0.085 -1.7174 -2.5216  0.6412
 6512SOL     OW20434   2.651   5.462   4.520  0.5216 -0.4920  0.1362
 6512SOL    HW120435   2.702   5.522   4.582 -1.4487  1.1827  0.2189
 6512SOL    HW220436   2.639   5.507   4.432 -0.5289 -0.9871  0.0179
 6513SOL     OW20437   1.710   6.364   3.854  0.4308 -0.8416  0.5702
 6513SOL    HW120438   1.627   6.412   3.884 -1.6427 -4.7815  1.8131
 6513SOL    HW220439   1.738   6.400   3.765 -3.0941  0.1904 -0.3131
 6514SOL     OW20440   6.993   0.482   5.548  0.8151  0.1654  0.4247
 6514SOL    HW120441   7.089   0.507   5.540  0.4107  1.1376 -2.8226
 6514SOL    HW220442   6.984   0.383   5.550  1.8566  0.0588  0.4053
 6515SOL     OW20443   1.674   1.844   2.031 -0.0844 -0.0743 -0.5467
 6515SOL    HW120444   1.742   1.771   2.040  1.0865  1.1749  1.8495
 6515SOL    HW220445   1.596   1.823   2.091  0.8404  1.1633  1.1728
 6516SOL     OW20446   6.441   2.432   1.234 -0.5091 -0.2430  0.0108
 6516SOL    HW120447   6.414   2.408   1.141  0.2856  0.5406 -0.4327
 6516SOL    HW220448   6.481   2.352   1.279  0.8882 -0.1472 -0.9936
 6517SOL     OW20449   1.157   1.524   1.485  0.1161 -0.1317 -0.0500
 6517SOL    HW120450   1.174   1.484   1.576  0.5449  0.7752  0.2770
 6517SOL    HW220451   1.065   1.562   1.483 -0.3114 -1.1430 -0.3768
 6518SOL     OW20452   0.392   0.312   2.507  0.0408 -0.8589 -0.1651
 6518SOL    HW120453   0.413   0.310   2.604  1.8256  0.7647 -0.4550
 6518SOL    HW220454   0.295   0.291   2.493 -0.4584 -0.2048  2.0254
 6519SOL     OW20455   1.607   0.208   3.266  0.5531 -0.7384 -0.1707
 6519SOL    HW120456   1.559   0.138   3.319 -0.1668  1.3047  2.0412
 6519SOL    HW220457   1.704   0.182   3.258  0.5236 -1.5017  1.5038
 6520SOL     OW20458   1.427   6.087   6.638  0.1866  0.3174 -0.4814
 6520SOL    HW120459   1.329   6.072   6.632 -0.0024  1.2585  0.1207
 6520SOL    HW220460   1.468   6.075   6.547 -1.2543  5.1579 -2.0947
 6521SOL     OW20461   1.303   3.854   2.415  0.4629 -0.8822 -0.5115
 6521SOL    HW120462   1.287   3.885   2.321  1.6174  0.3008 -0.3415
 6521SOL    HW220463   1.287   3.755   2.421  0.7290 -1.0361 -2.0389
 6522SOL     OW20464   1.621   4.077   5.197  0.0793  0.1209 -0.1801
 6522SOL    HW120465   1.587   4.000   5.251  1.1071  0.0165  0.3397
 6522SOL    HW220466   1.595   4.162   5.242  2.4201  0.0446  1.5470
 6523SOL     OW20467   3.226   4.183   5.746 -0.0400 -0.2632  0.1646
 6523SOL    HW120468   3.147   4.234   5.779 -0.2422 -0.7465  0.4331
 6523SOL    HW220469   3.309   4.221   5.785  0.2084  2.2182 -2.4083
 6524SOL     OW20470   3.479   1.991   1.766 -0.0607 -0.3053  0.1301
 6524SOL    HW120471   3.393   1.940   1.759  0.3777 -1.0267 -0.0621
 6524SOL    HW220472   3.463   2.087   1.740 -0.5186 -0.7373 -1.2703
 6525SOL     OW20473   0.441   6.856   3.507  0.6366  0.2096 -0.2754
 6525SOL    HW120474   0.504   6.865   3.584 -0.6149  2.0808  0.6158
 6525SOL    HW220475   0.377   6.781   3.525 -2.5194  3.2498  2.8741
 6526SOL     OW20476   6.887   2.237   1.181 -0.8207 -0.2008 -0.6041
 6526SOL    HW120477   6.852   2.162   1.236 -1.8973  1.8106  1.6401
 6526SOL    HW220478   6.951   2.202   1.113 -1.0868 -3.0695  0.5032
 6527SOL     OW20479   0.500   0.798   0.186 -0.2070 -0.7399  0.1605
 6527SOL    HW120480   0.566   0.819   0.114 -0.1702  0.6115  0.5562
 6527SOL    HW220481   0.426   0.743   0.148  0.3891 -1.0163 -0.6348
 6528SOL     OW20482   6.676   1.251   6.424 -0.6754  0.1270  0.5736
 6528SOL    HW120483   6.710   1.165   6.461  0.6861  0.2140 -0.3837
 6528SOL    HW220484   6.609   1.233   6.353 -0.5626 -0.1382  0.5333
 6529SOL     OW20485   1.685   4.036   2.155  0.0404 -0.2258  0.0503
 6529SOL    HW120486   1.742   4.092   2.094  0.1463 -0.4591 -0.0642
 6529SOL    HW220487   1.709   3.940   2.144 -1.4335 -0.4952 -1.1380
 6530SOL     OW20488   6.594   3.161   0.700  0.4906 -0.1645 -0.2283
 6530SOL    HW120489   6.603   3.170   0.799  1.0566  2.3649 -0.4484
 6530SOL    HW220490   6.664   3.099   0.665  0.0205 -1.4080  0.9677
 6531SOL     OW20491   5.203   3.700   5.691 -0.0835 -1.1026 -0.3600
 6531SOL    HW120492   5.296   3.736   5.689  0.1314 -1.5469  0.8191
 6531SOL    HW220493   5.139   3.770   5.657  0.4243  0.0745  0.9900
 6532SOL     OW20494   0.893   0.278   1.451  0.0392  0.1094  0.4985
 6532SOL    HW120495   0.946   0.234   1.379 -0.1169 -0.3558  0.6635
 6532SOL    HW220496   0.953   0.298   1.529  0.4947  1.7694 -0.2306
 6533SOL     OW20497   3.234   0.192   0.877 -0.5649 -0.0102 -0.2695
 6533SOL    HW120498   3.169   0.191   0.953  0.9740  2.2308  1.1964
 6533SOL    HW220499   3.219   0.112   0.819 -0.8169 -2.6590  3.1700
 6534SOL     OW20500   4.051   5.315   1.064  0.0069  0.2744  0.4926
 6534SOL    HW120501   4.060   5.379   0.988 -2.0562  2.0713  1.6669
 6534SOL    HW220502   4.011   5.229   1.031  1.1218  0.2058 -0.7716
 6535SOL     OW20503   5.884   3.231   5.592  0.0986 -0.2209  0.0056
 6535SOL    HW120504   5.856   3.242   5.497 -0.2162 -1.2186 -0.0323
 6535SOL    HW220505   5.872   3.135   5.620  3.6361 -0.8079 -0.0300
 6536SOL     OW20506   0.043   1.144   6.641 -0.2767 -0.8320 -0.4179
 6536SOL    HW120507   0.138   1.160   6.613 -0.9956  0.1578 -2.4594
 6536SOL    HW220508   0.007   1.225   6.687 -0.6276 -0.5831 -1.1233
 6537SOL     OW20509   0.499   4.691   5.059  0.1042 -0.4314 -0.1651
 6537SOL    HW120510   0.564   4.757   5.098  0.6638 -0.9006 -0.2909
 6537SOL    HW220511   0.475   4.718   4.966  0.6988 -0.6597 -0.3855
 6538SOL     OW20512   0.767   5.591   4.092 -0.2098  0.0757 -1.2039
 6538SOL    HW120513   0.716   5.507   4.073 -0.5723 -0.8076  2.6479
 6538SOL    HW220514   0.863   5.579   4.066 -0.4716 -1.1703 -1.6574
 6539SOL     OW20515   3.819   0.343   6.587  0.4929 -0.2558  0.4451
 6539SOL    HW120516   3.856   0.363   6.496  1.8081 -0.9633  0.7964
 6539SOL    HW220517   3.798   0.428   6.634 -0.7904  0.1185 -0.7362
 6540SOL     OW20518   2.733   2.749   6.316 -0.2969  0.2070 -0.1005
 6540SOL    HW120519   2.690   2.673   6.267 -0.0687  0.6283 -0.9687
 6540SOL    HW220520   2.743   2.827   6.255  1.3183  0.2681  0.1945
 6541SOL     OW20521   5.692   2.185   5.872 -0.3167  0.3493  0.0199
 6541SOL    HW120522   5.651   2.143   5.953  0.4712  1.7771  1.2256
 6541SOL    HW220523   5.711   2.115   5.804 -0.7759 -0.9404  1.1718
 6542SOL     OW20524   1.533   3.590   3.665 -1.3139  0.1963  0.2059
 6542SOL    HW120525   1.583   3.673   3.641 -1.9980  0.5736  0.0653
 6542SOL    HW220526   1.584   3.510   3.634 -0.0270  0.4983  1.4518
 6543SOL     OW20527   4.194   2.842   6.779  0.4071  0.1581 -0.2507
 6543SOL    HW120528   4.095   2.849   6.767  0.4425  0.6964 -0.2836
 6543SOL    HW220529   4.220   2.884   6.866  0.4666 -1.1610  0.3893
 6544SOL     OW20530   6.474   1.174   2.926  0.1132  0.2645 -0.3690
 6544SOL    HW120531   6.437   1.082   2.935  1.2172 -0.2134 -0.5611
 6544SOL    HW220532   6.501   1.208   3.017  0.2404  0.1655 -0.3696
 6545SOL     OW20533   3.881   1.331   0.872  0.1128 -0.0322 -0.2758
 6545SOL    HW120534   3.963   1.368   0.917  0.5221 -0.3070 -0.7954
 6545SOL    HW220535   3.855   1.390   0.796  1.7396 -1.6151 -2.1753
 6546SOL     OW20536   2.668   1.879   6.951  0.4688  0.3252  0.2741
 6546SOL    HW120537   2.613   1.857   7.031  1.4526 -1.2462  0.5713
 6546SOL    HW220538   2.745   1.938   6.978  0.5130  0.2132  0.3926
 6547SOL     OW20539   2.463   6.703   0.186 -0.3100 -0.4079 -0.0853
 6547SOL    HW120540   2.499   6.729   0.276  3.5437 -2.4474 -0.7957
 6547SOL    HW220541   2.492   6.770   0.118 -0.3960 -0.5563 -0.2675
 6548SOL     OW20542   2.118   1.963   1.169  0.1429 -0.4079 -0.2644
 6548SOL    HW120543   2.172   1.881   1.189  0.3354 -0.7352 -2.0005
 6548SOL    HW220544   2.178   2.033   1.129  0.1551  0.9309  1.9202
 6549SOL     OW20545   4.209   0.220   1.081 -0.0878 -0.2411 -0.4978
 6549SOL    HW120546   4.113   0.219   1.110  0.0941  0.7860  0.1927
 6549SOL    HW220547   4.262   0.158   1.140  0.2674  1.7883  1.4570
 6550SOL     OW20548   5.665   1.714   1.775 -0.4029  0.0408 -0.1241
 6550SOL    HW120549   5.695   1.750   1.686 -0.6731  0.2493 -0.1343
 6550SOL    HW220550   5.588   1.769   1.808 -0.3185 -0.0523  0.2276
 6551SOL     OW20551   2.635   4.041   1.400 -0.6603 -0.3239 -0.5074
 6551SOL    HW120552   2.656   4.138   1.415 -0.2153 -0.3978 -0.6364
 6551SOL    HW220553   2.587   4.005   1.480 -0.3765 -0.1223 -0.2408
 6552SOL     OW20554   3.474   2.221   0.686  0.0191 -0.0949  0.0065
 6552SOL    HW120555   3.506   2.239   0.593  0.4540 -0.8422  0.0069
 6552SOL    HW220556   3.402   2.153   0.685 -0.3450  0.2846  0.1712
 6553SOL     OW20557   0.065   2.165   4.305 -0.3819  0.5688 -0.0960
 6553SOL    HW120558   0.155   2.209   4.312 -0.5686  0.8173  0.8532
 6553SOL    HW220559   0.040   2.156   4.208  1.9636 -2.1772 -0.5773
 6554SOL     OW20560   3.732   2.203   5.456 -0.1403 -0.0798  0.0689
 6554SOL    HW120561   3.670   2.195   5.534  0.0864 -0.8896  0.1867
 6554SOL    HW220562   3.818   2.156   5.478 -0.5831 -1.5491 -1.1780
 6555SOL     OW20563   5.802   2.611   2.611 -0.1274  0.0891  0.3131
 6555SOL    HW120564   5.886   2.663   2.596 -1.2558  2.1870  0.7672
 6555SOL    HW220565   5.805   2.526   2.559  2.4298 -0.1292  0.6719
 6556SOL     OW20566   6.920   4.361   2.098  0.6948  0.1887  0.1025
 6556SOL    HW120567   6.925   4.433   2.029 -1.3885  0.6361  0.3532
 6556SOL    HW220568   6.970   4.389   2.180  1.5667  0.4724 -0.5091
 6557SOL     OW20569   3.144   1.087   2.468 -0.1937  0.1398  0.7618
 6557SOL    HW120570   3.187   1.097   2.558  1.7516 -1.1770  0.0476
 6557SOL    HW220571   3.166   1.167   2.412 -0.4366  0.4231  1.0646
 6558SOL     OW20572   3.125   6.309   1.713  0.4258  0.1025 -0.1735
 6558SOL    HW120573   3.204   6.259   1.677  0.4290 -0.4756  0.6197
 6558SOL    HW220574   3.089   6.369   1.642 -0.2039 -1.7587 -1.5067
 6559SOL     OW20575   0.458   5.341   5.800 -0.0374  0.3142  0.6508
 6559SOL    HW120576   0.474   5.381   5.890 -4.6462 -2.2667  3.0002
 6559SOL    HW220577   0.389   5.394   5.750 -0.7223 -0.6070  0.5869
 6560SOL     OW20578   3.639   5.660   2.166 -0.7521  0.1445  0.1632
 6560SOL    HW120579   3.648   5.561   2.178 -0.6426  0.1383  0.0319
 6560SOL    HW220580   3.560   5.679   2.107 -0.6776  0.1274  0.0573
 6561SOL     OW20581   4.211   4.545   6.696  0.3792 -0.1937  0.7622
 6561SOL    HW120582   4.270   4.623   6.717  0.0718  0.0172  0.8426
 6561SOL    HW220583   4.267   4.462   6.687  0.5723 -0.1983  1.9113
 6562SOL     OW20584   5.124   3.308   1.618  0.4514  0.1792 -0.0614
 6562SOL    HW120585   5.170   3.223   1.589  0.2533  0.2505 -0.6024
 6562SOL    HW220586   5.117   3.310   1.717 -0.3359 -0.8690 -0.0780
 6563SOL     OW20587   5.200   1.051   5.219 -0.1011  0.0941 -0.0166
 6563SOL    HW120588   5.193   1.081   5.314  1.1293 -1.0893  0.4818
 6563SOL    HW220589   5.175   1.126   5.158 -1.5634  0.6602  1.2354
 6564SOL     OW20590   0.268   4.401   2.610  0.1708  0.1816 -0.4580
 6564SOL    HW120591   0.323   4.327   2.649  1.1227  0.5071 -1.1579
 6564SOL    HW220592   0.308   4.431   2.523 -2.1507 -0.8413 -1.9793
 6565SOL     OW20593   6.329   0.822   3.630 -0.1832  0.4575  0.7573
 6565SOL    HW120594   6.397   0.876   3.580 -0.0637 -1.2109 -0.9649
 6565SOL    HW220595   6.376   0.760   3.693 -0.1781  0.4081  0.7053
 6566SOL     OW20596   3.437   4.989   1.919  0.4410  0.1854  0.3093
 6566SOL    HW120597   3.511   4.925   1.939  1.6797  2.0623  2.1330
 6566SOL    HW220598   3.437   5.010   1.821  1.7462 -0.5542  0.1242
 6567SOL     OW20599   5.573   1.294   2.627 -0.5531  0.3419  0.6208
 6567SOL    HW120600   5.571   1.294   2.527 -0.3441  0.0882  0.6174
 6567SOL    HW220601   5.480   1.308   2.661 -0.5727  0.7953  0.3912
 6568SOL     OW20602   4.694   0.866   4.436  0.2306 -0.1146 -0.0667
 6568SOL    HW120603   4.635   0.925   4.491 -0.2253  0.5308 -1.2140
 6568SOL    HW220604   4.701   0.903   4.343  0.3109 -1.6123 -0.6845
 6569SOL     OW20605   0.891   2.873   6.156  0.1621  0.0298 -0.1008
 6569SOL    HW120606   0.980   2.919   6.149  1.3537 -1.9246  1.0655
 6569SOL    HW220607   0.834   2.921   6.223  0.6917  0.7751 -0.1649
 6570SOL     OW20608   2.449   1.834   3.823 -0.6994 -0.6164  0.1911
 6570SOL    HW120609   2.439   1.912   3.885  1.6959 -0.3777  0.3698
 6570SOL    HW220610   2.397   1.851   3.739 -2.0380  0.1312  1.1431
 6571SOL     OW20611   3.563   5.446   4.285 -0.2611  0.2056 -0.4514
 6571SOL    HW120612   3.508   5.366   4.261  0.3605 -0.0190 -1.1851
 6571SOL    HW220613   3.506   5.528   4.285 -0.8993 -0.2343  0.2887
 6572SOL     OW20614   5.416   3.667   3.403  0.3602  0.0767 -0.6266
 6572SOL    HW120615   5.316   3.666   3.406  0.2514  1.2372 -2.4310
 6572SOL    HW220616   5.450   3.573   3.398 -0.6544 -0.3201 -0.3727
 6573SOL     OW20617   1.156   5.926   3.375 -0.0812  0.1678  0.0609
 6573SOL    HW120618   1.218   6.001   3.401 -1.0313  1.3794 -1.0155
 6573SOL    HW220619   1.087   5.961   3.312 -0.0208 -1.8410 -1.1830
 6574SOL     OW20620   0.745   5.538   2.880 -0.0004 -0.1446  0.3904
 6574SOL    HW120621   0.756   5.568   2.975 -1.8000 -1.0754  0.9373
 6574SOL    HW220622   0.832   5.547   2.832  1.0663 -0.0570  2.2508
 6575SOL     OW20623   1.699   6.696   4.072 -0.0172  0.5557 -0.2335
 6575SOL    HW120624   1.715   6.660   3.980 -0.7351 -0.1474 -0.1000
 6575SOL    HW220625   1.768   6.764   4.094  0.3072  0.5521 -1.1999
 6576SOL     OW20626   3.243   5.760   6.886  0.1664 -0.1058  0.4593
 6576SOL    HW120627   3.207   5.706   6.809  0.6971 -0.0127  0.1370
 6576SOL    HW220628   3.340   5.740   6.897  0.3399  0.6989  0.4131
 6577SOL     OW20629   1.913   2.115   3.100  0.5006 -0.0420 -0.0352
 6577SOL    HW120630   1.998   2.156   3.066 -0.4206  1.7859 -0.2790
 6577SOL    HW220631   1.860   2.185   3.150 -0.5773 -1.2987  0.6450
 6578SOL     OW20632   1.654   4.410   1.592 -0.3616 -0.2651 -0.7448
 6578SOL    HW120633   1.658   4.351   1.673 -1.5777 -0.8858 -1.1162
 6578SOL    HW220634   1.561   4.446   1.581 -0.4450 -0.8907 -2.3411
 6579SOL     OW20635   6.522   4.103   1.858  0.3643  0.3130 -0.3522
 6579SOL    HW120636   6.504   4.160   1.938 -0.1667 -0.4506  0.0854
 6579SOL    HW220637   6.620   4.086   1.849  0.2658 -2.1961  2.0077
 6580SOL     OW20638   0.127   2.851   1.954  0.1464  0.3759 -0.0559
 6580SOL    HW120639   0.154   2.916   1.882  1.4937  0.0010  0.0808
 6580SOL    HW220640   0.180   2.870   2.037  0.6157 -0.9208 -0.0359
 6581SOL     OW20641   0.537   0.398   0.650  0.5164 -0.0356 -0.2594
 6581SOL    HW120642   0.569   0.346   0.570 -0.5055 -1.0459 -0.0253
 6581SOL    HW220643   0.443   0.373   0.671  0.0750  1.7524  0.0219
 6582SOL     OW20644   0.106   6.728   4.533  0.1514  0.2934  0.3241
 6582SOL    HW120645   0.015   6.725   4.492  0.7218 -0.9292 -0.9269
 6582SOL    HW220646   0.174   6.739   4.461  1.0268  0.6977  1.2008
 6583SOL     OW20647   2.499   6.718   5.532 -0.6052 -0.2432 -0.6430
 6583SOL    HW120648   2.583   6.671   5.561 -0.5472  0.3162  0.1286
 6583SOL    HW220649   2.502   6.733   5.433  1.0399  1.3398 -0.4084
 6584SOL     OW20650   2.874   0.676   7.005 -0.0246 -0.4707  0.3912
 6584SOL    HW120651   2.957   0.646   6.958  0.9676  2.1124  0.2914
 6584SOL    HW220652   2.887   0.667   7.104  0.3904 -0.1043  0.3756
 6585SOL     OW20653   6.939   5.889   1.030 -0.0830 -0.7585  0.2852
 6585SOL    HW120654   6.998   5.965   1.055  0.9632 -2.0114  1.7683
 6585SOL    HW220655   6.849   5.924   1.005  0.8324  1.0761 -0.6667
 6586SOL     OW20656   5.349   3.074   6.596  0.7084 -0.1750 -0.1354
 6586SOL    HW120657   5.284   3.101   6.666 -1.0979 -0.9999 -1.4090
 6586SOL    HW220658   5.347   2.975   6.585 -1.3050  0.0410 -3.2602
 6587SOL     OW20659   2.734   5.551   0.690  0.6054 -0.6677  0.6572
 6587SOL    HW120660   2.775   5.628   0.641  0.7824 -1.6419 -0.8162
 6587SOL    HW220661   2.747   5.562   0.788  1.8150  0.5004  0.3882
 6588SOL     OW20662   0.418   2.967   1.274  0.0705 -0.1193 -0.3612
 6588SOL    HW120663   0.491   2.974   1.343  1.2370  1.9889 -1.7029
 6588SOL    HW220664   0.331   2.995   1.314  0.5338  0.1140  0.5091
 6589SOL     OW20665   3.804   1.116   3.804  0.3712  0.0327 -0.2810
 6589SOL    HW120666   3.833   1.027   3.838 -0.6616  0.3194  1.4594
 6589SOL    HW220667   3.716   1.142   3.846 -2.0658 -0.3677 -4.5281
 6590SOL     OW20668   0.912   0.272   5.676  0.1701 -0.2742 -0.1294
 6590SOL    HW120669   0.929   0.174   5.673 -0.4943 -0.4017  0.3710
 6590SOL    HW220670   0.817   0.291   5.651  0.9584  0.4579 -3.0796
 6591SOL     OW20671   6.063   6.281   0.029 -0.0233 -0.3845 -0.0327
 6591SOL    HW120672   6.135   6.341  -0.007 -0.0057  0.2516  0.9963
 6591SOL    HW220673   5.981   6.336   0.047 -1.1229 -1.2790 -2.1144
 6592SOL     OW20674   6.682   0.813   2.828 -0.3518 -0.3141  0.1689
 6592SOL    HW120675   6.662   0.793   2.924 -1.7493 -0.8162 -0.2003
 6592SOL    HW220676   6.607   0.867   2.789  1.2240  1.8295 -0.0844
 6593SOL     OW20677   2.510   1.133   2.101 -0.0521 -0.1058 -0.6534
 6593SOL    HW120678   2.458   1.089   2.175  0.5021 -1.0640 -0.8086
 6593SOL    HW220679   2.499   1.232   2.106 -0.8530 -0.2231  0.0867
 6594SOL     OW20680   3.795   1.378   6.182 -0.7007  0.4334 -0.3809
 6594SOL    HW120681   3.756   1.393   6.091 -0.6478  1.2307 -0.2732
 6594SOL    HW220682   3.852   1.296   6.181  0.2148  1.0730 -1.3506
 6595SOL     OW20683   6.412   0.784   6.682  0.4421 -0.1873 -0.6141
 6595SOL    HW120684   6.385   0.699   6.727  0.3932  0.4401  0.5891
 6595SOL    HW220685   6.470   0.764   6.604  1.5796 -1.2748  0.4679
 6596SOL     OW20686   3.498   5.274   3.134 -0.1779 -0.2817 -0.3820
 6596SOL    HW120687   3.458   5.189   3.168 -2.1606  0.2237 -1.3180
 6596SOL    HW220688   3.545   5.321   3.209 -0.8628 -1.1732  0.6403
 6597SOL     OW20689   2.037   5.688   3.612  0.5803 -0.1691  0.2658
 6597SOL    HW120690   2.121   5.635   3.624  0.4653 -1.1015 -2.4560
 6597SOL    HW220691   2.013   5.693   3.515 -2.7898 -0.4007  0.9436
 6598SOL     OW20692   1.960   5.927   2.943 -0.3715 -0.3397  0.2247
 6598SOL    HW120693   1.864   5.905   2.958 -0.6136  0.6284  0.1965
 6598SOL    HW220694   1.993   5.880   2.861 -1.0935  0.0623 -0.3071
 6599SOL     OW20695   3.506   5.259   5.770 -0.0775  0.0042 -0.3007
 6599SOL    HW120696   3.527   5.270   5.868 -1.9944  0.4935  0.1045
 6599SOL    HW220697   3.427   5.199   5.759  0.8986 -1.1031 -1.6732
 6600SOL     OW20698   2.859   6.286   5.733  0.2860  0.0880 -0.4904
 6600SOL    HW120699   2.907   6.199   5.736  0.5133  0.2339  0.6070
 6600SOL    HW220700   2.774   6.276   5.681 -0.7666 -1.3560  1.3862
 6601SOL     OW20701   1.218   1.020   3.030 -0.3049 -0.4561 -0.0480
 6601SOL    HW120702   1.236   1.116   3.008 -0.7250 -0.4602 -0.4068
 6601SOL    HW220703   1.150   1.015   3.103 -0.3221 -0.4856 -0.0665
 6602SOL     OW20704   0.441   1.984   0.576 -0.5998  0.4201  0.3171
 6602SOL    HW120705   0.342   1.983   0.588 -0.7593 -0.1669 -0.9436
 6602SOL    HW220706   0.470   2.074   0.543 -0.7547  0.4946  0.3871
 6603SOL     OW20707   1.418   0.999   4.777  0.0005  0.0107 -0.7471
 6603SOL    HW120708   1.491   1.063   4.755 -0.5559  0.5504 -1.0721
 6603SOL    HW220709   1.453   0.927   4.838  0.4661  1.0220  0.2221
 6604SOL     OW20710   1.252   6.445   0.970 -0.5183 -0.4683 -0.0236
 6604SOL    HW120711   1.339   6.476   1.009  0.5594  0.1860 -2.7065
 6604SOL    HW220712   1.188   6.522   0.967 -2.1580 -1.4421  4.0115
 6605SOL     OW20713   5.892   6.592   0.849 -0.1580  0.7263  0.0298
 6605SOL    HW120714   5.839   6.523   0.897 -1.2112  1.1832 -0.4347
 6605SOL    HW220715   5.847   6.614   0.762  2.8334 -1.7249 -2.3543
 6606SOL     OW20716   5.056   5.427   1.520  0.1691  0.0006 -0.2703
 6606SOL    HW120717   4.982   5.473   1.469 -0.4992  0.8859  1.4255
 6606SOL    HW220718   5.100   5.493   1.580  1.6587 -0.7874 -0.4680
 6607SOL     OW20719   0.839   2.632   2.539 -0.5620 -0.2092  0.2665
 6607SOL    HW120720   0.807   2.713   2.588  1.0768  0.2026  0.7076
 6607SOL    HW220721   0.862   2.561   2.605 -0.0225 -0.2858 -0.0007
 6608SOL     OW20722   5.829   6.161   0.994  0.4782  0.0731  0.1376
 6608SOL    HW120723   5.754   6.155   1.060  0.1047  1.1878 -0.1636
 6608SOL    HW220724   5.858   6.256   0.986  0.7948 -0.1110 -1.0072
 6609SOL     OW20725   5.866   0.833   0.041 -0.0160  0.1963 -0.2257
 6609SOL    HW120726   5.824   0.831   0.131  0.1498  2.9574  0.0033
 6609SOL    HW220727   5.795   0.845  -0.029  0.1020  2.1207 -0.0669
 6610SOL     OW20728   2.275   5.875   1.909  0.3152 -0.4999 -0.1431
 6610SOL    HW120729   2.277   5.797   1.846 -2.8121 -1.1702  0.3921
 6610SOL    HW220730   2.222   5.949   1.869  2.7992  1.2428 -0.4056
 6611SOL     OW20731   5.265   2.038   1.389  0.4900  0.2252  0.1223
 6611SOL    HW120732   5.284   2.133   1.364  0.6171  0.4269  0.9521
 6611SOL    HW220733   5.169   2.017   1.371  1.0633 -0.3275 -2.6235
 6612SOL     OW20734   6.897   1.703   6.418 -0.3012  0.4905 -0.6188
 6612SOL    HW120735   6.890   1.739   6.325 -0.4362  2.0973 -0.0113
 6612SOL    HW220736   6.964   1.756   6.470 -1.1168  0.4254  0.5514
 6613SOL     OW20737   0.058   0.947   4.611 -0.2786  0.2235  0.3503
 6613SOL    HW120738   0.082   0.850   4.610 -0.3323  0.2038  0.7180
 6613SOL    HW220739   0.111   0.994   4.682 -1.3707  0.1599  1.2458
 6614SOL     OW20740   4.341   5.931   6.415 -0.5292  0.1782 -0.0528
 6614SOL    HW120741   4.397   5.952   6.336 -0.4055  0.7324  0.1738
 6614SOL    HW220742   4.273   6.004   6.429  0.1771  0.6699  0.9965
 6615SOL     OW20743   2.987   5.936   1.122 -0.3013  0.3553 -0.4397
 6615SOL    HW120744   3.021   5.881   1.045 -2.1813 -2.0899  0.3644
 6615SOL    HW220745   2.901   5.898   1.155 -0.5897  2.5607  1.6271
 6616SOL     OW20746   5.275   6.919   1.938  0.0755 -0.8143 -0.1701
 6616SOL    HW120747   5.337   6.851   1.898  1.4062 -1.2930  2.4515
 6616SOL    HW220748   5.182   6.882   1.941  0.1233 -1.1166 -1.8580
 6617SOL     OW20749   2.675   6.872   3.726  0.2652 -0.1866 -0.4738
 6617SOL    HW120750   2.655   6.964   3.691  2.5551  0.4682 -0.2425
 6617SOL    HW220751   2.666   6.805   3.652 -2.0433  0.0581 -0.5041
 6618SOL     OW20752   1.127   2.486   3.879  0.4463  0.5688  0.2176
 6618SOL    HW120753   1.156   2.576   3.910  1.3198  1.5096 -2.8882
 6618SOL    HW220754   1.205   2.439   3.838 -0.9539  0.5206 -2.6262
 6619SOL     OW20755   4.742   0.111   4.222 -0.4430  0.6558  0.1573
 6619SOL    HW120756   4.743   0.176   4.146 -1.4375 -0.0988 -0.5293
 6619SOL    HW220757   4.826   0.122   4.276  1.4030 -0.2567 -2.3302
 6620SOL     OW20758   1.136   4.664   4.231 -0.1048  0.0519  0.3657
 6620SOL    HW120759   1.048   4.695   4.194 -0.3312 -0.6563  0.2914
 6620SOL    HW220760   1.162   4.721   4.309 -0.5354  0.3902  0.2613
 6621SOL     OW20761   3.895   2.616   6.881  0.0937  0.0411  0.2815
 6621SOL    HW120762   3.985   2.586   6.851 -0.1277 -2.8348  2.1405
 6621SOL    HW220763   3.829   2.602   6.807  0.7404 -0.2457 -0.2484
 6622SOL     OW20764   5.651   4.099   3.002  0.3014 -0.6085 -0.1333
 6622SOL    HW120765   5.731   4.082   3.059 -0.8611  0.0208  1.7995
 6622SOL    HW220766   5.569   4.066   3.049 -0.5369 -2.0977 -2.4670
 6623SOL     OW20767   2.472   5.007   5.467  0.3719  0.2660 -0.1112
 6623SOL    HW120768   2.393   5.022   5.409 -0.2728  0.2724  0.7449
 6623SOL    HW220769   2.498   4.910   5.464  1.3077  0.5384 -1.5924
 6624SOL     OW20770   0.636   3.793   3.636  0.0115  0.6388 -0.3845
 6624SOL    HW120771   0.539   3.812   3.618 -0.1191  0.2317 -0.1148
 6624SOL    HW220772   0.656   3.813   3.732  0.3693  1.4258 -0.6172
 6625SOL     OW20773   4.509   1.729   4.955 -0.4538  0.2319 -0.4955
 6625SOL    HW120774   4.416   1.751   4.927 -0.7265  1.1466  1.0415
 6625SOL    HW220775   4.549   1.664   4.889 -1.5489  1.1316 -2.1227
 6626SOL     OW20776   2.910   6.772   4.678  0.1848  0.4129 -0.7912
 6626SOL    HW120777   2.838   6.825   4.721 -0.1664 -0.1608 -0.6730
 6626SOL    HW220778   2.966   6.727   4.748  0.0289  0.0290 -0.9119
 6627SOL     OW20779   4.094   6.269   5.078 -0.1704  0.0322  0.8488
 6627SOL    HW120780   4.136   6.357   5.057 -0.8531  0.7538  2.3708
 6627SOL    HW220781   4.023   6.249   5.010 -1.8317  1.9475  1.9022
 6628SOL     OW20782   4.673   5.425   3.913 -0.2980  0.1072 -0.1148
 6628SOL    HW120783   4.689   5.469   4.001 -1.3230  0.4050 -0.0612
 6628SOL    HW220784   4.600   5.473   3.864  0.9695  0.6003 -1.6106
 6629SOL     OW20785   5.089   5.086   1.055 -0.4111 -0.3413  0.0544
 6629SOL    HW120786   5.182   5.111   1.026 -0.2860 -0.2546  0.5342
 6629SOL    HW220787   5.056   5.011   0.997 -0.4213  0.2720 -0.7624
 6630SOL     OW20788   2.763   1.145   2.022  0.0378 -0.8048  0.0961
 6630SOL    HW120789   2.749   1.117   1.927 -0.0429  2.5684 -1.0101
 6630SOL    HW220790   2.675   1.148   2.069  0.0790 -2.5021  0.3352
 6631SOL     OW20791   3.935   5.902   3.681 -1.0116 -0.4999 -0.6115
 6631SOL    HW120792   4.014   5.885   3.739 -0.0410  2.2363 -0.9906
 6631SOL    HW220793   3.869   5.960   3.729 -0.6542  0.9773 -1.8394
 6632SOL     OW20794   2.020   1.166   0.937 -0.0374  0.6099  0.0198
 6632SOL    HW120795   1.982   1.094   0.995 -2.6307  1.6508 -0.2733
 6632SOL    HW220796   2.087   1.219   0.989 -2.2689  1.4995  2.1560
 6633SOL     OW20797   1.524   3.856   0.034  0.5596 -0.1209  0.8505
 6633SOL    HW120798   1.476   3.814  -0.043 -0.0704  2.3367 -0.1937
 6633SOL    HW220799   1.459   3.906   0.091  1.4334  0.5917  1.2536
 6634SOL     OW20800   5.302   1.579   6.391  0.4038 -0.5993  0.2456
 6634SOL    HW120801   5.295   1.534   6.302  0.6652 -1.0506  0.4563
 6634SOL    HW220802   5.343   1.518   6.458  0.1231 -0.2952  0.7086
 6635SOL     OW20803   5.049   4.947   2.779 -0.0288  0.3480 -0.2166
 6635SOL    HW120804   5.063   4.977   2.873 -1.1897 -0.2480  0.1523
 6635SOL    HW220805   4.953   4.959   2.753 -0.6272 -3.1053  0.0134
 6636SOL     OW20806   4.372   2.090   6.526  0.1570 -0.2649 -0.1751
 6636SOL    HW120807   4.375   2.013   6.590 -0.5591  0.2667  0.5236
 6636SOL    HW220808   4.441   2.077   6.456 -0.8404 -2.2522 -0.8857
 6637SOL     OW20809   1.998   0.216   5.648  0.3432  0.3489 -0.0028
 6637SOL    HW120810   1.928   0.229   5.718  1.0326 -0.0582  0.7813
 6637SOL    HW220811   1.957   0.225   5.558 -0.7978 -0.2356  0.4377
 6638SOL     OW20812   3.506   3.167   4.027  0.1550  0.2049  0.2324
 6638SOL    HW120813   3.583   3.226   4.006  0.5698 -0.6222 -0.6501
 6638SOL    HW220814   3.420   3.216   4.011  0.4895  0.7309  0.0415
 6639SOL     OW20815   5.032   3.872   0.499 -0.1815 -0.4483  0.2616
 6639SOL    HW120816   5.126   3.851   0.526 -0.8229 -1.4347  1.8537
 6639SOL    HW220817   5.020   3.852   0.401  1.8409  1.8861 -0.5902
 6640SOL     OW20818   0.635   0.943   6.262  0.4698  0.0276  0.3117
 6640SOL    HW120819   0.583   0.878   6.316  1.2564  0.2171  1.3309
 6640SOL    HW220820   0.684   1.006   6.323  1.3152  0.3019 -0.6130
 6641SOL     OW20821   5.587   3.214   6.628  0.2972 -0.3641 -0.1999
 6641SOL    HW120822   5.660   3.151   6.601  0.4518 -0.9421  1.4562
 6641SOL    HW220823   5.499   3.165   6.629  0.2999 -0.3657  0.3316
 6642SOL     OW20824   0.644   3.646   6.478 -0.0795 -0.5319  0.5854
 6642SOL    HW120825   0.629   3.700   6.561  2.2855  0.9475  0.1489
 6642SOL    HW220826   0.673   3.706   6.403 -0.6861 -2.0206 -0.8975
 6643SOL     OW20827   4.789   6.812   0.049 -0.2088  0.3832  0.2910
 6643SOL    HW120828   4.844   6.740   0.093 -1.3490  0.0324  1.1740
 6643SOL    HW220829   4.776   6.888   0.113  1.0468  1.4497 -0.6604
 6644SOL     OW20830   2.300   4.959   2.853  0.1301 -0.3129 -0.3804
 6644SOL    HW120831   2.359   4.934   2.776  0.5742  0.1073 -0.1856
 6644SOL    HW220832   2.224   5.015   2.819  0.3750 -0.0519 -0.5054
 6645SOL     OW20833   0.463   4.501   6.744  0.2915 -0.5925 -0.1301
 6645SOL    HW120834   0.375   4.453   6.742 -0.8281  1.3549 -0.7009
 6645SOL    HW220835   0.458   4.577   6.809  1.8620 -0.9571  0.4490
 6646SOL     OW20836   3.409   2.195   5.209  0.3285  0.1905  0.1587
 6646SOL    HW120837   3.320   2.237   5.190  0.4733  0.3709 -0.1195
 6646SOL    HW220838   3.475   2.266   5.233  0.1502 -0.0304  1.3515
 6647SOL     OW20839   4.658   6.961   1.301 -0.7020  0.4736 -0.1968
 6647SOL    HW120840   4.566   6.939   1.268 -1.0877 -0.7633  1.5452
 6647SOL    HW220841   4.652   7.029   1.374 -0.9565 -3.0966  3.5188
 6648SOL     OW20842   3.019   6.518   3.466 -0.6064 -0.2197  0.0294
 6648SOL    HW120843   3.089   6.586   3.447  0.0893 -1.4668 -2.2963
 6648SOL    HW220844   3.026   6.488   3.562  0.9540  0.8469  0.2828
 6649SOL     OW20845   0.382   3.845   6.199  0.1909  0.0850  0.0576
 6649SOL    HW120846   0.300   3.886   6.240 -2.1826 -1.4385 -2.7386
 6649SOL    HW220847   0.441   3.918   6.164 -0.5413  1.2086  1.0777
 6650SOL     OW20848   4.904   0.006   4.647  0.2724 -0.0359  0.6375
 6650SOL    HW120849   4.895  -0.081   4.597  1.8765 -0.9429  1.8496
 6650SOL    HW220850   4.830   0.013   4.714  1.6423 -1.8362  2.4408
 6651SOL     OW20851   0.743   1.788   4.449  0.0139 -0.0669 -0.5274
 6651SOL    HW120852   0.837   1.755   4.448  0.0034 -0.1087 -1.4229
 6651SOL    HW220853   0.717   1.815   4.541  1.0789  0.4380 -0.3661
 6652SOL     OW20854   3.082   4.863   0.724  0.0574 -0.3910 -0.0039
 6652SOL    HW120855   3.162   4.900   0.677 -0.0713 -1.6479 -1.2811
 6652SOL    HW220856   3.111   4.817   0.808  0.6790 -0.8871 -0.4897
 6653SOL     OW20857   3.928   2.725   0.163 -0.5549 -0.4917 -0.1544
 6653SOL    HW120858   3.951   2.642   0.212 -0.8892 -0.1243  0.6432
 6653SOL    HW220859   3.829   2.743   0.171 -0.7289 -0.7615 -1.4955
 6654SOL     OW20860   2.020   3.552   3.937  0.4134 -1.1701 -0.2482
 6654SOL    HW120861   2.010   3.552   3.837  0.7954 -0.9048 -0.2862
 6654SOL    HW220862   2.081   3.477   3.964  0.8610 -0.8135 -0.2688
 6655SOL     OW20863   0.244   5.012   2.558  0.1531  0.1214  0.0188
 6655SOL    HW120864   0.302   4.975   2.631 -0.6969  0.6752  1.0116
 6655SOL    HW220865   0.175   4.944   2.533  0.7322 -0.2470 -0.6248
 6656SOL     OW20866   5.766   3.765   2.325 -0.3161  0.5743  0.3143
 6656SOL    HW120867   5.779   3.861   2.350 -0.3384  0.8442 -0.6329
 6656SOL    HW220868   5.756   3.709   2.407 -0.0546  1.3475  0.8820
 6657SOL     OW20869   6.596   3.668   3.908  0.2451  0.1159  0.4875
 6657SOL    HW120870   6.601   3.716   3.995  1.7184 -0.8071  0.9415
 6657SOL    HW220871   6.506   3.684   3.866 -0.8329 -0.1440  2.5726
 6658SOL     OW20872   0.896   5.832   4.515 -0.4827 -0.3835 -0.0853
 6658SOL    HW120873   0.841   5.773   4.456 -1.0424  1.1695 -1.1947
 6658SOL    HW220874   0.835   5.888   4.571 -0.0393  0.9089 -0.8636
 6659SOL     OW20875   2.673   3.267   0.284  0.1122 -0.4868 -0.5153
 6659SOL    HW120876   2.599   3.213   0.324  1.5101 -0.5745  2.2097
 6659SOL    HW220877   2.646   3.299   0.193 -2.5219 -1.9669 -0.3566
 6660SOL     OW20878   0.990   4.586   1.186  0.0510 -0.2967  0.5821
 6660SOL    HW120879   0.965   4.489   1.191  2.2553 -0.9758 -0.3962
 6660SOL    HW220880   0.956   4.623   1.099  0.7507 -0.7066  0.1196
 6661SOL     OW20881   2.035   6.451   4.763 -0.1265 -0.2977 -0.4223
 6661SOL    HW120882   1.975   6.425   4.839 -0.1919 -0.6325 -0.5884
 6661SOL    HW220883   2.085   6.371   4.730 -0.1884 -0.1805 -0.8096
 6662SOL     OW20884   2.156   6.969   1.405  0.0618  0.0740  0.0336
 6662SOL    HW120885   2.120   6.961   1.498  0.4773 -1.0695  0.1156
 6662SOL    HW220886   2.161   6.878   1.364  0.7824  0.4627 -0.7609
 6663SOL     OW20887   5.521   5.566   4.673 -0.1864 -0.1708 -0.2692
 6663SOL    HW120888   5.442   5.560   4.734 -0.6378 -0.9144 -0.8969
 6663SOL    HW220889   5.559   5.475   4.660  0.3579  0.0889 -0.5087
 6664SOL     OW20890   3.284   0.798   1.994 -0.5389 -0.3486  0.0315
 6664SOL    HW120891   3.233   0.878   2.029 -0.6156 -0.5414  0.3681
 6664SOL    HW220892   3.262   0.718   2.050 -0.2176 -0.5370 -0.1104
 6665SOL     OW20893   1.173   4.820   4.472 -0.7191 -0.5734 -0.4049
 6665SOL    HW120894   1.240   4.796   4.542  0.6331  1.4441 -0.9221
 6665SOL    HW220895   1.205   4.900   4.421 -2.2710 -1.1820 -2.4767
 6666SOL     OW20896   6.391   0.027   5.927 -0.0818 -0.5777 -0.0923
 6666SOL    HW120897   6.402   0.080   5.843 -2.3970 -0.2301 -0.2576
 6666SOL    HW220898   6.303  -0.021   5.925  0.6325 -2.0881  1.3470
 6667SOL     OW20899   6.073   6.027   4.582 -0.1726 -0.3902  0.3020
 6667SOL    HW120900   5.986   6.040   4.631 -0.2944  0.4496 -0.1237
 6667SOL    HW220901   6.078   6.090   4.505  1.2652  0.3151  0.9342
 6668SOL     OW20902   5.923   7.008   1.100 -0.5116 -0.2380  0.0088
 6668SOL    HW120903   5.971   7.083   1.147  2.7691 -1.2444 -1.4115
 6668SOL    HW220904   5.887   7.041   1.013 -0.2768  0.0173  0.0045
 6669SOL     OW20905   3.269   2.234   1.836 -0.0641 -0.3359  0.3090
 6669SOL    HW120906   3.353   2.258   1.787 -0.4110 -1.2870 -0.8062
 6669SOL    HW220907   3.291   2.213   1.931  0.6486  1.4072  0.5583
 6670SOL     OW20908   3.409   0.784   5.999 -0.2574  0.3591 -0.1103
 6670SOL    HW120909   3.362   0.811   5.915 -0.5936  1.4681  0.4207
 6670SOL    HW220910   3.345   0.735   6.059  0.7257 -3.2376 -1.7227
 6671SOL     OW20911   3.980   6.982   0.245  0.6377  0.6444  0.7790
 6671SOL    HW120912   3.899   7.011   0.194  0.5915  1.2491  1.1828
 6671SOL    HW220913   3.980   6.882   0.253  1.0254  0.4595 -1.0261
 6672SOL     OW20914   6.589   1.449   6.588  0.0585 -0.6150  0.1171
 6672SOL    HW120915   6.492   1.443   6.565  0.0467 -0.9317  0.2473
 6672SOL    HW220916   6.642   1.395   6.523  0.0388 -1.4006  0.7419
 6673SOL     OW20917   5.905   3.634   3.617 -0.2328  0.5470 -0.0820
 6673SOL    HW120918   5.855   3.583   3.546  0.0371 -0.8386  0.6894
 6673SOL    HW220919   5.999   3.602   3.620  0.2412  1.8688 -0.2831
 6674SOL     OW20920   1.011   4.047   4.618 -0.4631 -0.0519  0.5006
 6674SOL    HW120921   1.021   3.999   4.531  0.4474  0.0224  0.5549
 6674SOL    HW220922   1.075   4.009   4.684  0.5335  1.4569  0.4431
 6675SOL     OW20923   5.408   1.984   5.852 -0.1973 -0.0120 -0.0903
 6675SOL    HW120924   5.327   2.041   5.841  0.3512  0.4982 -1.9301
 6675SOL    HW220925   5.442   1.957   5.762  0.9279 -1.3047  0.6789
 6676SOL     OW20926   0.194   2.805   5.104  0.3011  0.0208 -0.3522
 6676SOL    HW120927   0.267   2.873   5.099  0.2627  0.0717 -0.2347
 6676SOL    HW220928   0.134   2.814   5.025 -0.8921  1.4834  0.6542
 6677SOL     OW20929   3.430   2.853   0.086  0.4206  0.1909  0.0518
 6677SOL    HW120930   3.367   2.845   0.009  1.1355  0.4487 -0.5743
 6677SOL    HW220931   3.381   2.890   0.165  0.3421  3.1534 -1.2348
 6678SOL     OW20932   2.967   6.045   5.709 -0.7577  1.1515  0.4897
 6678SOL    HW120933   3.046   6.049   5.648  0.4351 -0.6154  1.8246
 6678SOL    HW220934   2.905   5.973   5.679 -0.3247  0.4934  1.1263
 6679SOL     OW20935   3.861   0.869   3.875  0.3841  0.2603 -0.1142
 6679SOL    HW120936   3.901   0.840   3.962  1.5817 -1.1407 -1.0563
 6679SOL    HW220937   3.763   0.850   3.874  0.4288 -0.0303  0.7951
 6680SOL     OW20938   2.991   1.060   0.110 -0.3814 -0.2318 -0.7313
 6680SOL    HW120939   2.967   1.066   0.013  1.3656  2.4259 -1.0747
 6680SOL    HW220940   3.008   1.151   0.146  0.0122 -1.2501  1.8643
 6681SOL     OW20941   4.450   4.385   6.657 -0.0377 -0.2680 -0.0176
 6681SOL    HW120942   4.467   4.331   6.575 -1.8696 -2.5382  0.9935
 6681SOL    HW220943   4.479   4.332   6.738 -2.0120  0.1502  1.0176
 6682SOL     OW20944   3.239   6.515   0.643 -0.5626  0.0048  0.0049
 6682SOL    HW120945   3.324   6.462   0.643  0.1785  1.1344 -1.2726
 6682SOL    HW220946   3.163   6.455   0.667  0.0348 -1.9985 -2.5929
 6683SOL     OW20947   2.173   2.554   5.546 -0.0560  0.4336 -0.6802
 6683SOL    HW120948   2.121   2.480   5.502  1.1122 -1.0957  0.3980
 6683SOL    HW220949   2.155   2.553   5.644  0.6209  1.0521 -0.5461
 6684SOL     OW20950   3.619   0.575   3.900  0.2422 -0.3039 -0.3878
 6684SOL    HW120951   3.684   0.616   3.836 -0.1302  1.2414  0.1945
 6684SOL    HW220952   3.539   0.633   3.908  0.1343 -0.6351  1.2415
 6685SOL     OW20953   5.967   0.984   5.965  0.2938 -0.1348  0.3860
 6685SOL    HW120954   5.931   1.076   5.952 -1.0938 -0.4980  1.3131
 6685SOL    HW220955   5.895   0.927   6.006  0.6969 -1.9489 -1.2970
 6686SOL     OW20956   5.056   5.143   5.913  0.0180  0.5234 -0.4983
 6686SOL    HW120957   5.025   5.101   5.998  0.5684  0.7386 -0.1810
 6686SOL    HW220958   5.060   5.075   5.841 -0.4963  0.3477 -0.3629
 6687SOL     OW20959   1.623   2.464   2.591 -0.1277 -0.2271  0.5172
 6687SOL    HW120960   1.605   2.438   2.496 -0.8695 -0.8184  0.8037
 6687SOL    HW220961   1.649   2.560   2.595 -0.6194 -0.0530 -0.2354
 6688SOL     OW20962   4.381   4.999   1.480  0.0888  0.7824 -0.0899
 6688SOL    HW120963   4.331   4.971   1.562 -1.4136  1.2144 -0.8096
 6688SOL    HW220964   4.357   4.938   1.404  1.9802 -0.0310 -0.0894
 6689SOL     OW20965   5.528   3.193   4.296 -0.3481 -0.2411  0.5290
 6689SOL    HW120966   5.479   3.164   4.379 -0.8129 -0.0584  0.3239
 6689SOL    HW220967   5.589   3.121   4.266 -1.3919 -0.9683  0.0979
 6690SOL     OW20968   0.807   6.984   1.763 -0.1988  0.1185  0.3623
 6690SOL    HW120969   0.888   6.966   1.819  1.0309 -1.5476 -1.7890
 6690SOL    HW220970   0.818   6.940   1.674 -2.2019  2.3350 -1.1048
 6691SOL     OW20971   2.056   2.451   3.609 -0.5635 -0.2796 -0.5168
 6691SOL    HW120972   2.020   2.372   3.659 -2.0713 -0.0735 -1.2245
 6691SOL    HW220973   1.985   2.520   3.601  0.0959  0.2862 -1.6972
 6692SOL     OW20974   4.039   3.652   2.479 -0.0051 -0.3488  0.4720
 6692SOL    HW120975   4.000   3.567   2.513  0.3000 -0.7508 -0.1551
 6692SOL    HW220976   4.023   3.725   2.545 -4.2771  0.2101 -0.9323
 6693SOL     OW20977   4.943   2.097   4.996 -0.2886  0.6019  0.3599
 6693SOL    HW120978   4.936   2.140   4.906 -3.0004  0.8454  0.6036
 6693SOL    HW220979   4.872   2.028   5.006  1.4535 -1.1232  1.4999
 6694SOL     OW20980   5.307   5.886   2.102 -0.2998  0.2449  0.3590
 6694SOL    HW120981   5.281   5.940   2.022 -1.2211  0.8986  1.0754
 6694SOL    HW220982   5.353   5.945   2.168 -0.4061 -0.0729  0.7199
 6695SOL     OW20983   0.552   0.456   1.063 -0.1676  0.3921  0.1926
 6695SOL    HW120984   0.633   0.505   1.032  0.4561  0.0579  1.2334
 6695SOL    HW220985   0.569   0.417   1.154 -1.2722 -0.2227  0.1594
 6696SOL     OW20986   4.023   3.461   3.356 -0.3325 -0.2459 -0.1922
 6696SOL    HW120987   3.928   3.446   3.328  0.1221 -2.0411 -0.9389
 6696SOL    HW220988   4.032   3.441   3.454 -0.7308 -0.0389 -0.1122
 6697SOL     OW20989   6.012   1.655   3.619  0.8603  0.0904  0.1906
 6697SOL    HW120990   5.928   1.628   3.666  1.5541 -2.7686 -0.0284
 6697SOL    HW220991   6.057   1.729   3.669 -0.8974  0.4803  1.2551
 6698SOL     OW20992   2.022   2.079   0.588 -0.0097 -0.2764  0.2259
 6698SOL    HW120993   2.117   2.075   0.618 -0.2457  0.5261  1.1505
 6698SOL    HW220994   1.986   1.987   0.578  0.5074 -0.5838  1.0711
 6699SOL     OW20995   1.263   5.121   5.049  0.4097 -0.3441  0.1705
 6699SOL    HW120996   1.262   5.220   5.040  1.8857  0.1748  3.7110
 6699SOL    HW220997   1.170   5.087   5.061 -0.0188  0.7869  0.1356
 6700SOL     OW20998   6.781   1.510   1.422 -0.4484 -0.2976  0.2256
 6700SOL    HW120999   6.797   1.608   1.430 -0.3572 -0.1453 -1.4495
 6700SOL    HW221000   6.851   1.469   1.363  0.5874 -1.7184  2.3128
 6701SOL     OW21001   5.752   5.654   2.361  0.3966  0.2912 -0.8697
 6701SOL    HW121002   5.762   5.555   2.345 -2.9885 -0.1516 -1.0539
 6701SOL    HW221003   5.700   5.694   2.286 -1.1793  1.5085  0.7926
 6702SOL     OW21004   2.706   4.325   1.713 -0.2590 -0.2199 -0.2544
 6702SOL    HW121005   2.715   4.321   1.614  0.3228  2.7820 -0.3951
 6702SOL    HW221006   2.793   4.302   1.756 -0.0820  0.0208 -0.4897
 6703SOL     OW21007   1.295   0.932   6.969 -0.5938  0.1104 -0.4195
 6703SOL    HW121008   1.331   0.935   7.062 -0.1839 -2.0497 -0.4569
 6703SOL    HW221009   1.204   0.890   6.970 -0.8728  0.6706 -0.9460
 6704SOL     OW21010   5.722   1.062   3.970  0.2508  0.4705  0.1472
 6704SOL    HW121011   5.773   1.110   4.041  0.1729  0.3667  0.2746
 6704SOL    HW221012   5.668   0.989   4.012 -0.1626  0.7125  0.0383
 6705SOL     OW21013   6.260   2.144   1.155  0.0924  0.1207  0.7795
 6705SOL    HW121014   6.267   2.048   1.129 -1.6757 -0.1005  0.9983
 6705SOL    HW221015   6.293   2.202   1.081 -1.5835 -0.5916 -0.5828
 6706SOL     OW21016   3.331   0.129   5.880 -0.3680 -0.4379 -0.3663
 6706SOL    HW121017   3.267   0.114   5.955 -0.4898  0.0632 -0.3712
 6706SOL    HW221018   3.291   0.191   5.813 -1.5558 -3.1960 -2.4339
 6707SOL     OW21019   5.888   6.383   4.176  0.1589  0.5942  0.1370
 6707SOL    HW121020   5.869   6.289   4.145 -0.3196  0.9681 -0.7546
 6707SOL    HW221021   5.812   6.414   4.234 -1.2056  1.4550 -1.9834
 6708SOL     OW21022   4.571   5.113   3.309 -0.6298 -0.5274  0.1512
 6708SOL    HW121023   4.616   5.189   3.356  0.4124 -1.1364  0.1807
 6708SOL    HW221024   4.640   5.060   3.259 -1.8674  1.2208 -3.7564
 6709SOL     OW21025   1.116   6.344   2.079 -0.1178 -0.6263 -0.1527
 6709SOL    HW121026   1.173   6.277   2.031  0.8766 -0.3419  0.6047
 6709SOL    HW221027   1.169   6.386   2.153 -0.4813  1.4637 -1.0116
 6710SOL     OW21028   4.209   2.283   5.891 -0.3701 -1.1847 -0.4717
 6710SOL    HW121029   4.242   2.363   5.840 -1.0624 -0.2334  0.5215
 6710SOL    HW221030   4.157   2.314   5.971 -0.5356 -2.6422  0.0104
 6711SOL     OW21031   5.741   0.819   5.925  0.0780  0.1363  0.0207
 6711SOL    HW121032   5.715   0.862   5.839 -0.1948  1.8491  0.9294
 6711SOL    HW221033   5.659   0.805   5.981  0.1537 -1.5999 -0.2271
 6712SOL     OW21034   5.235   2.541   1.091 -0.5407 -0.5146  0.2706
 6712SOL    HW121035   5.228   2.634   1.054 -0.6239  0.0091  1.5746
 6712SOL    HW221036   5.315   2.534   1.150 -0.7341 -1.1688  0.4662
 6713SOL     OW21037   2.007   6.860   3.474  0.5245  0.5582 -0.0756
 6713SOL    HW121038   2.010   6.867   3.374  2.4287  3.1735  0.0638
 6713SOL    HW221039   2.080   6.799   3.506 -1.3194 -1.9159 -0.2597
 6714SOL     OW21040   0.950   1.898   0.041  0.1101  0.2126  0.2275
 6714SOL    HW121041   0.906   1.985   0.019 -0.0414 -0.1899 -1.1840
 6714SOL    HW221042   0.880   1.829   0.059  0.0593 -0.5700 -2.5801
 6715SOL     OW21043   1.288   5.747   1.160  0.1103 -0.5549  0.4191
 6715SOL    HW121044   1.340   5.825   1.194  0.1454 -1.2198  1.9554
 6715SOL    HW221045   1.194   5.775   1.142  0.4969  0.1962 -0.5624
 6716SOL     OW21046   1.344   4.450   0.876  0.6435 -0.5568 -0.0216
 6716SOL    HW121047   1.367   4.397   0.957 -0.1564  0.7451  1.0832
 6716SOL    HW221048   1.424   4.502   0.847  0.2191  1.0655  1.5789
 6717SOL     OW21049   3.273   2.448   0.613 -0.2895  0.7322 -0.1870
 6717SOL    HW121050   3.279   2.371   0.550 -0.7362  0.2440  0.3560
 6717SOL    HW221051   3.329   2.430   0.693 -0.5203  0.9013  0.0123
 6718SOL     OW21052   6.152   0.950   0.791  0.3469 -0.1046 -0.4696
 6718SOL    HW121053   6.105   0.947   0.879  1.1916  0.6725  0.0262
 6718SOL    HW221054   6.154   0.858   0.752  2.9346 -1.2293  1.9526
 6719SOL     OW21055   2.205   6.771   0.290  0.1505 -0.2322  0.4640
 6719SOL    HW121056   2.242   6.753   0.381  0.6760 -0.4953  0.2051
 6719SOL    HW221057   2.278   6.765   0.223 -0.0699  0.8129  0.1156
 6720SOL     OW21058   3.804   2.039   3.967  0.1088 -0.8896 -0.0851
 6720SOL    HW121059   3.829   2.106   3.897  1.1613  0.0643  1.1490
 6720SOL    HW221060   3.851   1.952   3.948 -0.0161 -0.8067 -0.8280
 6721SOL     OW21061   1.420   6.536   1.484 -0.3959 -0.3291  0.0002
 6721SOL    HW121062   1.452   6.447   1.449 -3.0975 -1.0849 -0.7906
 6721SOL    HW221063   1.393   6.526   1.580  2.5866  0.6057  1.0625
 6722SOL     OW21064   0.064   2.398   6.561  0.1787  0.0286 -0.1290
 6722SOL    HW121065   0.108   2.459   6.496  0.5055 -1.1166 -1.0136
 6722SOL    HW221066   0.077   2.303   6.532 -3.0963 -0.3980 -0.6442
 6723SOL     OW21067   0.842   5.410   6.385 -0.1036 -0.2056 -0.7041
 6723SOL    HW121068   0.852   5.505   6.354  0.3329 -0.0376 -0.0474
 6723SOL    HW221069   0.746   5.383   6.375 -0.6803  0.9899  1.0171
 6724SOL     OW21070   1.367   3.438   4.500 -0.6509  0.2530 -0.1205
 6724SOL    HW121071   1.316   3.353   4.513 -1.4170  0.2857 -2.3808
 6724SOL    HW221072   1.329   3.488   4.422  2.4376  0.5518 -1.5953
 6725SOL     OW21073   6.968   1.856   0.631 -0.4496 -0.3558  0.4559
 6725SOL    HW121074   7.000   1.776   0.580 -1.1792  0.4238 -1.3261
 6725SOL    HW221075   6.869   1.864   0.619 -0.1422  2.0178 -1.3230
 6726SOL     OW21076   6.033   2.995   2.403 -0.0571 -1.0193 -0.3150
 6726SOL    HW121077   5.964   3.068   2.397  0.1119 -0.7321  1.0217
 6726SOL    HW221078   6.124   3.036   2.407  0.0054 -1.2413  1.1453
 6727SOL     OW21079   5.932   4.038   4.714  0.2248  0.8000  0.5521
 6727SOL    HW121080   6.019   4.002   4.746 -0.4854 -0.5300  1.0829
 6727SOL    HW221081   5.948   4.106   4.642  1.6592  0.0149  0.0864
 6728SOL     OW21082   5.274   2.605   3.732  0.8359  0.5166 -0.7419
 6728SOL    HW121083   5.264   2.631   3.828  1.7021 -0.9565 -0.2225
 6728SOL    HW221084   5.216   2.664   3.675 -1.5802 -0.1063  0.9022
 6729SOL     OW21085   2.272   3.080   0.076  0.3637  0.2590 -0.5681
 6729SOL    HW121086   2.182   3.112   0.045  0.0266  0.7933  0.8597
 6729SOL    HW221087   2.299   3.132   0.157  0.0077 -2.6578  1.6190
 6730SOL     OW21088   1.186   6.364   0.701 -0.5271  0.2373 -0.3416
 6730SOL    HW121089   1.218   6.380   0.794  0.9690 -1.4551 -0.5123
 6730SOL    HW221090   1.149   6.271   0.694  1.4284 -0.4949 -1.9009
 6731SOL     OW21091   2.937   6.653   2.263 -0.4463 -0.9632 -0.3120
 6731SOL    HW121092   2.907   6.572   2.312 -1.1837 -0.2264  0.4819
 6731SOL    HW221093   3.037   6.658   2.266 -0.4747 -0.2866  2.2651
 6732SOL     OW21094   4.706   5.827   6.065  0.3454  0.0076 -0.2915
 6732SOL    HW121095   4.671   5.919   6.053 -1.4528 -0.3614  1.6410
 6732SOL    HW221096   4.791   5.830   6.118  0.1690  0.5411 -0.0370
 6733SOL     OW21097   4.136   6.824   6.185  0.4604 -0.4898  0.4066
 6733SOL    HW121098   4.208   6.888   6.159  1.5492 -2.0293 -0.5653
 6733SOL    HW221099   4.149   6.796   6.280 -0.5068  1.2990  1.1004
 6734SOL     OW21100   5.805   1.954   3.860 -0.0921  0.6473 -0.3569
 6734SOL    HW121101   5.789   2.053   3.852  0.0373  0.7175  0.1752
 6734SOL    HW221102   5.852   1.936   3.946 -1.3197 -0.0217  0.1848
 6735SOL     OW21103   3.951   4.914   4.857 -0.0983 -0.2570 -0.1558
 6735SOL    HW121104   3.998   4.834   4.893 -0.0469 -0.1326  0.0558
 6735SOL    HW221105   3.935   4.979   4.931  1.9623  0.9894 -0.7279
 6736SOL     OW21106   1.740   2.888   5.635 -0.1174 -0.2799 -0.2063
 6736SOL    HW121107   1.678   2.853   5.565 -0.4213 -1.5518  0.6550
 6736SOL    HW221108   1.822   2.926   5.592 -1.0681  0.5862 -1.3179
 6737SOL     OW21109   0.866   3.757   0.579 -0.3926 -0.1451  0.4164
 6737SOL    HW121110   0.831   3.838   0.627  0.2592  0.3681  0.0506
 6737SOL    HW221111   0.793   3.717   0.524 -0.7441  0.1607  0.6580
 6738SOL     OW21112   2.400   5.363   4.407 -0.0540 -0.2081  0.4623
 6738SOL    HW121113   2.379   5.445   4.354 -0.4811 -0.4848  0.1957
 6738SOL    HW221114   2.460   5.387   4.484  2.2449 -0.0957 -1.2604
 6739SOL     OW21115   3.384   6.100   4.685  0.5687 -0.4571  0.1962
 6739SOL    HW121116   3.459   6.125   4.623  0.5410  0.0642  0.3653
 6739SOL    HW221117   3.423   6.062   4.769  0.7107  0.8660  0.7581
 6740SOL     OW21118   6.238   0.854   5.638  0.0227  0.6189  0.3623
 6740SOL    HW121119   6.218   0.906   5.556  2.2008  2.0511  0.6381
 6740SOL    HW221120   6.154   0.835   5.688 -1.0848  1.7634 -0.9965
 6741SOL     OW21121   3.796   2.822   6.524 -0.2430 -0.0740 -0.1523
 6741SOL    HW121122   3.853   2.741   6.510  0.0655  0.4267 -2.1630
 6741SOL    HW221123   3.828   2.872   6.604 -0.9842 -2.3292  1.6759
 6742SOL     OW21124   5.916   5.476   3.305 -0.1413 -0.1689 -0.2992
 6742SOL    HW121125   5.848   5.461   3.377  2.1305  2.1117  2.5783
 6742SOL    HW221126   5.892   5.557   3.253 -0.8229 -0.7501 -0.9093
 6743SOL     OW21127   3.569   3.655   6.077  0.6709 -0.3776  0.1330
 6743SOL    HW121128   3.567   3.569   6.026  0.2983  0.3176 -1.0458
 6743SOL    HW221129   3.604   3.638   6.169  1.8888 -1.5549 -0.5216
 6744SOL     OW21130   6.748   6.219   5.700 -0.4153  0.3222  0.3330
 6744SOL    HW121131   6.807   6.237   5.779 -1.0079  0.9002  0.6460
 6744SOL    HW221132   6.793   6.253   5.617 -0.2463  0.6284  0.5507
 6745SOL     OW21133   0.137   5.426   4.531 -0.0110 -0.2776  0.6365
 6745SOL    HW121134   0.048   5.415   4.575 -0.3986 -1.8186 -0.4387
 6745SOL    HW221135   0.209   5.396   4.593 -0.0059  2.5417  2.1651
 6746SOL     OW21136   6.602   5.161   4.593  0.1810 -0.4736 -0.4927
 6746SOL    HW121137   6.570   5.084   4.647 -0.3645 -0.2281 -0.4520
 6746SOL    HW221138   6.554   5.163   4.505  0.6821 -0.5702 -0.7714
 6747SOL     OW21139   6.600   1.663   5.830 -0.4825 -0.3683 -0.5202
 6747SOL    HW121140   6.636   1.726   5.761 -2.6001  1.0419 -0.4299
 6747SOL    HW221141   6.656   1.669   5.913 -0.2716  0.9416 -0.7370
 6748SOL     OW21142   4.161   2.257   2.601 -0.3527 -0.0907 -0.0530
 6748SOL    HW121143   4.216   2.275   2.682 -1.2805 -1.2180  0.8608
 6748SOL    HW221144   4.212   2.283   2.519  1.1844 -0.2942  0.8090
 6749SOL     OW21145   5.571   3.993   0.743 -0.6965 -0.0757 -0.1291
 6749SOL    HW121146   5.652   3.935   0.747 -1.5418 -1.3515 -0.6897
 6749SOL    HW221147   5.522   3.987   0.830 -0.3020  0.5286  0.1358
 6750SOL     OW21148   2.943   1.347   5.353 -0.6060  0.2098  0.2614
 6750SOL    HW121149   3.027   1.367   5.403 -0.6722 -1.1415  0.9765
 6750SOL    HW221150   2.959   1.355   5.255  1.2893 -2.9934  0.1747
 6751SOL     OW21151   5.296   2.317   2.963  0.3298  0.2603 -0.4284
 6751SOL    HW121152   5.318   2.396   2.905 -3.2824  1.4545 -0.4161
 6751SOL    HW221153   5.198   2.315   2.981  0.5439 -3.2309  1.1833
 6752SOL     OW21154   2.515   5.707   2.213  0.0574 -0.6119 -0.4475
 6752SOL    HW121155   2.433   5.668   2.255  1.0302 -2.3144 -0.0251
 6752SOL    HW221156   2.488   5.767   2.137 -1.5868 -0.5548  0.1334
 6753SOL     OW21157   3.087   6.426   5.725 -0.2621  0.1170  0.1441
 6753SOL    HW121158   2.997   6.384   5.730 -0.1797  0.0560  1.2640
 6753SOL    HW221159   3.153   6.360   5.688 -0.0657 -0.8981  2.2000
 6754SOL     OW21160   6.515   1.722   1.794  0.0015 -0.7906 -0.3451
 6754SOL    HW121161   6.467   1.737   1.880 -0.5325 -0.3780 -0.7017
 6754SOL    HW221162   6.518   1.624   1.773 -0.5155 -0.8372 -0.2161
 6755SOL     OW21163   1.084   4.388   0.698  0.2364 -0.2530  0.0529
 6755SOL    HW121164   1.157   4.373   0.631 -0.0526 -1.3096 -0.0470
 6755SOL    HW221165   1.123   4.413   0.786  0.6267  1.0414 -0.4762
 6756SOL     OW21166   3.093   5.920   5.938  0.0939  0.3190 -0.0368
 6756SOL    HW121167   3.051   5.898   6.026 -0.1904 -2.6705 -0.8245
 6756SOL    HW221168   3.023   5.955   5.876 -0.0134  0.9699  0.4428
 6757SOL     OW21169   2.546   2.361   5.811  0.1963  0.6201  0.3634
 6757SOL    HW121170   2.528   2.362   5.909  0.4333 -1.1549  0.4557
 6757SOL    HW221171   2.606   2.438   5.788  0.0776  1.1036  1.5934
 6758SOL     OW21172   6.707   3.099   1.248  0.0771  0.3720  0.3282
 6758SOL    HW121173   6.645   3.026   1.278 -0.5854  1.2424  1.1848
 6758SOL    HW221174   6.801   3.068   1.256 -0.1923 -0.3922  0.6898
 6759SOL     OW21175   6.608   5.557   2.736 -0.3535  0.1198 -0.1996
 6759SOL    HW121176   6.572   5.605   2.656 -1.7435 -3.2032 -1.7774
 6759SOL    HW221177   6.535   5.546   2.803 -0.0980  0.0656  0.0706
 6760SOL     OW21178   6.277   3.756   0.880 -0.5434 -0.2846  0.2632
 6760SOL    HW121179   6.314   3.759   0.972  0.6709  0.4941 -0.2316
 6760SOL    HW221180   6.288   3.664   0.842  0.7791 -0.1153  0.1908
 6761SOL     OW21181   0.639   2.951   4.590  0.6996 -0.3379 -0.3537
 6761SOL    HW121182   0.681   3.025   4.643  2.6975 -1.4363 -0.3058
 6761SOL    HW221183   0.543   2.941   4.618  0.7863  1.2466  0.6846
 6762SOL     OW21184   1.680   3.400   3.510 -0.2827  0.8320 -0.6147
 6762SOL    HW121185   1.596   3.345   3.512 -0.1209  0.5583 -1.1209
 6762SOL    HW221186   1.751   3.354   3.565 -0.5787  1.2682  0.1498
 6763SOL     OW21187   4.934   5.530   5.340 -0.0767  0.0741  0.0054
 6763SOL    HW121188   5.008   5.587   5.375 -0.5609  1.5799 -1.3324
 6763SOL    HW221189   4.885   5.488   5.416  1.2856  0.1416  0.9546
 6764SOL     OW21190   2.049   5.867   0.875  0.2991  0.1321 -0.1866
 6764SOL    HW121191   2.036   5.877   0.776 -2.1832  0.5189  0.1257
 6764SOL    HW221192   2.094   5.949   0.910 -0.1691  0.6667 -0.7979
 6765SOL     OW21193   4.619   5.739   4.412 -0.4993  0.1040  0.8162
 6765SOL    HW121194   4.615   5.659   4.352  1.0757  0.7131 -0.1650
 6765SOL    HW221195   4.695   5.798   4.384  0.0744  0.5993  3.2087
 6766SOL     OW21196   6.203   6.359   6.616  0.0437 -0.4015  0.1424
 6766SOL    HW121197   6.205   6.424   6.692 -1.5203  0.9243 -0.8818
 6766SOL    HW221198   6.255   6.395   6.539  1.6368 -1.7433  0.5426
 6767SOL     OW21199   2.063   0.800   3.266 -0.3591  0.1244 -0.1064
 6767SOL    HW121200   2.087   0.889   3.306 -0.6478  0.0488  0.2448
 6767SOL    HW221201   1.975   0.807   3.219 -0.5466 -0.0524  0.2104
 6768SOL     OW21202   0.394   0.777   3.961 -0.5653  0.5582 -0.0008
 6768SOL    HW121203   0.357   0.869   3.971 -0.7940  0.6365 -1.3515
 6768SOL    HW221204   0.446   0.771   3.875  0.0220 -0.3864  0.3971
 6769SOL     OW21205   2.661   0.984   0.076 -0.3225  0.2563  0.4702
 6769SOL    HW121206   2.597   1.042   0.027 -0.0258 -1.0839 -1.6132
 6769SOL    HW221207   2.755   1.007   0.050 -0.0623  0.6201  1.6830
 6770SOL     OW21208   0.638   0.115   3.005 -0.0020 -0.0575  0.0012
 6770SOL    HW121209   0.651   0.186   2.936 -3.1471  0.7181  0.0444
 6770SOL    HW221210   0.660   0.152   3.095 -2.1951  1.1702  0.0962
 6771SOL     OW21211   5.066   3.508   2.155  0.3282 -0.0660  0.1005
 6771SOL    HW121212   5.121   3.590   2.137 -1.6425  1.2400 -0.2796
 6771SOL    HW221213   5.040   3.466   2.068  1.1995 -1.0773  0.2903
 6772SOL     OW21214   4.383   0.652   3.118 -0.2167  0.1498  0.2869
 6772SOL    HW121215   4.394   0.728   3.181  0.7718 -0.5508  0.9861
 6772SOL    HW221216   4.351   0.686   3.030  2.0928  1.6639 -0.0472
 6773SOL     OW21217   6.289   6.967   0.567 -0.2135 -0.0031 -0.0862
 6773SOL    HW121218   6.193   6.966   0.595  0.1924  1.6561  1.5638
 6773SOL    HW221219   6.322   6.873   0.559 -1.5032 -0.5915  1.0219
 6774SOL     OW21220   0.980   2.636   0.081  0.0326  0.0411  0.5297
 6774SOL    HW121221   1.028   2.606   0.163  0.5208  1.4609  0.7935
 6774SOL    HW221222   1.012   2.583   0.003  0.2054 -0.7236  1.1063
 6775SOL     OW21223   3.961   3.887   0.646 -0.0705 -0.9394  0.5649
 6775SOL    HW121224   4.001   3.946   0.576 -1.4254  0.3494  0.8162
 6775SOL    HW221225   4.021   3.885   0.726 -0.9050  1.8542  1.3741
 6776SOL     OW21226   5.007   5.591   0.644  0.1160 -0.4413 -0.7145
 6776SOL    HW121227   5.013   5.567   0.548  1.2668 -1.4032 -0.4301
 6776SOL    HW221228   5.012   5.508   0.700  1.1277  0.2112  0.2156
 6777SOL     OW21229   3.801   5.037   0.186 -0.6724  0.1861 -0.2259
 6777SOL    HW121230   3.860   5.064   0.262 -1.4227 -0.3263  0.5539
 6777SOL    HW221231   3.825   5.091   0.105  1.3422 -0.5154 -0.1493
 6778SOL     OW21232   5.428   3.927   1.936 -0.8403 -0.8385 -0.0458
 6778SOL    HW121233   5.502   3.927   2.004  0.1726  2.4664 -0.9872
 6778SOL    HW221234   5.468   3.927   1.844 -2.1053 -0.9565 -0.6099
 6779SOL     OW21235   4.231   6.175   6.198  0.5996 -0.4912  0.1759
 6779SOL    HW121236   4.182   6.206   6.279 -0.8196 -1.8349 -0.1057
 6779SOL    HW221237   4.232   6.248   6.130  0.7927  0.2558  0.9688
 6780SOL     OW21238   1.235   1.465   2.567 -0.0580  0.5578  0.0964
 6780SOL    HW121239   1.274   1.391   2.621  0.2721  1.5445  1.2600
 6780SOL    HW221240   1.197   1.428   2.483 -0.1508 -0.9718  0.7696
 6781SOL     OW21241   6.605   1.580   3.097 -0.0428  0.7699  0.2115
 6781SOL    HW121242   6.650   1.628   3.172 -0.8039  0.2881  0.9958
 6781SOL    HW221243   6.520   1.626   3.073 -0.6379 -0.0049  0.7821
 6782SOL     OW21244   0.467   1.701   2.195  0.3536 -0.5335 -0.6143
 6782SOL    HW121245   0.549   1.728   2.145  1.3118  0.6127  1.4343
 6782SOL    HW221246   0.488   1.620   2.250 -0.2213 -0.8517 -0.8535
 6783SOL     OW21247   5.452   3.920   4.188 -0.1314 -0.3218  0.2622
 6783SOL    HW121248   5.466   4.008   4.233 -0.2472  0.5465 -1.3208
 6783SOL    HW221249   5.354   3.900   4.184 -0.0634 -0.9513  1.3609
 6784SOL     OW21250   3.897   2.266   0.468 -0.1434 -0.0710  0.3916
 6784SOL    HW121251   3.878   2.299   0.561  1.4146  1.3089  0.2781
 6784SOL    HW221252   3.994   2.240   0.461 -0.2242 -0.0848 -0.8625
 6785SOL     OW21253   6.355   3.152   4.601  0.1785  0.1025 -0.4940
 6785SOL    HW121254   6.265   3.141   4.644  1.4756  1.3607  2.8664
 6785SOL    HW221255   6.424   3.105   4.655  1.7186  0.0240 -2.4274
 6786SOL     OW21256   3.144   2.174   5.956  0.5205  0.7019  0.1563
 6786SOL    HW121257   3.170   2.132   6.043  0.4469 -1.7857 -0.9501
 6786SOL    HW221258   3.057   2.136   5.926  1.8432 -0.6257 -2.2886
 6787SOL     OW21259   1.373   0.908   1.887 -0.9183 -0.3205 -0.3072
 6787SOL    HW121260   1.347   0.992   1.839 -2.2223 -0.7939 -0.4736
 6787SOL    HW221261   1.459   0.922   1.935 -1.0418  1.0568 -0.4606
 6788SOL     OW21262   2.094   4.681   1.146  0.5463  0.0363  0.5445
 6788SOL    HW121263   2.083   4.628   1.062 -1.0080 -0.0513  0.7698
 6788SOL    HW221264   2.082   4.621   1.225 -0.6975  0.5784  0.8008
 6789SOL     OW21265   0.755   5.930   3.880  0.2302  0.1696  0.2518
 6789SOL    HW121266   0.679   5.865   3.874  0.1962  0.1595  0.6955
 6789SOL    HW221267   0.836   5.883   3.915  0.4481  0.1782 -0.2338
 6790SOL     OW21268   1.829   4.131   0.367  0.5171 -0.0691 -0.2248
 6790SOL    HW121269   1.799   4.224   0.348  0.6448  0.2370  0.9771
 6790SOL    HW221270   1.890   4.100   0.294 -0.4890  0.3256 -1.2595
 6791SOL     OW21271   5.731   0.911   6.489  0.7860 -0.1698 -0.4380
 6791SOL    HW121272   5.762   1.005   6.481  1.2311 -0.1040  1.4880
 6791SOL    HW221273   5.810   0.850   6.498  0.5060 -0.7686 -1.7285
 6792SOL     OW21274   6.775   6.410   4.392  0.3445 -0.6823  0.2368
 6792SOL    HW121275   6.765   6.480   4.463  2.1942 -0.7140  0.5991
 6792SOL    HW221276   6.857   6.356   4.411 -0.2732 -2.0444 -0.8205
 6793SOL     OW21277   2.699   1.713   0.974 -0.0898  0.2755 -0.0117
 6793SOL    HW121278   2.769   1.774   0.939  0.0176  0.2859  0.2176
 6793SOL    HW221279   2.720   1.619   0.945 -1.0832  0.5245 -1.6666
 6794SOL     OW21280   4.871   3.259   6.104  0.6184  0.3021  0.0243
 6794SOL    HW121281   4.862   3.329   6.034 -0.1417  0.0869 -0.1135
 6794SOL    HW221282   4.967   3.243   6.125  0.9742 -0.7906 -2.1698
 6795SOL     OW21283   4.523   1.102   0.764 -0.0500 -0.3063 -0.0427
 6795SOL    HW121284   4.579   1.019   0.777  0.0524 -0.2625 -0.1977
 6795SOL    HW221285   4.431   1.076   0.734  0.5187 -0.3015 -1.9294
 6796SOL     OW21286   5.661   6.103   1.215  0.1202  0.3705  0.3777
 6796SOL    HW121287   5.677   6.193   1.254 -1.0072  0.3319  0.9614
 6796SOL    HW221288   5.563   6.084   1.213  0.3601 -1.0345  0.7087
 6797SOL     OW21289   0.024   1.306   0.758 -0.0960  0.8279 -0.7510
 6797SOL    HW121290   0.075   1.220   0.761  2.6552  2.1797 -3.0766
 6797SOL    HW221291  -0.052   1.303   0.823 -0.0077 -3.2156 -0.6038
 6798SOL     OW21292   5.234   0.244   2.786  0.3479 -0.2169 -0.2724
 6798SOL    HW121293   5.300   0.202   2.848 -0.5917  0.3490  1.1632
 6798SOL    HW221294   5.148   0.260   2.835  0.4054  2.6844 -0.9219
 6799SOL     OW21295   6.562   6.315   2.583 -0.2874 -0.7385  0.2541
 6799SOL    HW121296   6.604   6.386   2.527  0.3282 -0.4553  1.0476
 6799SOL    HW221297   6.523   6.245   2.524  1.0839 -0.8861 -0.5360
 6800SOL     OW21298   1.561   3.787   0.687 -0.4766  0.0191 -0.0325
 6800SOL    HW121299   1.605   3.824   0.768  0.1824 -0.3605 -0.2079
 6800SOL    HW221300   1.631   3.754   0.623 -0.9925  0.1201 -0.6602
 6801SOL     OW21301   6.931   5.312   3.969  0.0462  0.1411 -0.2098
 6801SOL    HW121302   7.007   5.335   3.908 -0.4443  0.8035 -0.5931
 6801SOL    HW221303   6.876   5.394   3.984 -1.2035 -0.5649 -0.8053
 6802SOL     OW21304   3.334   6.646   3.039  0.0023  0.1639 -0.0092
 6802SOL    HW121305   3.275   6.669   3.115  0.1552  0.8493 -0.0957
 6802SOL    HW221306   3.280   6.605   2.965 -0.1248 -0.6222  0.5094
 6803SOL     OW21307   6.016   5.494   0.549  0.6018 -0.2900  0.3046
 6803SOL    HW121308   6.017   5.402   0.587  2.4422  0.1110  1.3395
 6803SOL    HW221309   6.000   5.560   0.623  0.1291  0.2917 -0.2972
 6804SOL     OW21310   3.980   4.960   4.166  0.4899 -0.0632 -0.7303
 6804SOL    HW121311   3.897   4.961   4.111  0.4006 -0.4293 -0.6088
 6804SOL    HW221312   3.961   4.996   4.257 -0.1413 -2.2960  0.1107
 6805SOL     OW21313   2.583   3.561   6.502  0.6233  0.2797  0.8776
 6805SOL    HW121314   2.619   3.566   6.409  3.1805  0.4808  1.8012
 6805SOL    HW221315   2.573   3.653   6.540 -0.9714  0.2324  0.6640
 6806SOL     OW21316   5.057   6.409   2.904 -0.0913 -0.2630 -0.4168
 6806SOL    HW121317   5.149   6.448   2.909 -0.2033 -0.0687  0.1606
 6806SOL    HW221318   5.026   6.411   2.809 -0.3670  1.7028 -0.3227
 6807SOL     OW21319   1.570   1.991   6.509  0.1120 -0.2078  0.0106
 6807SOL    HW121320   1.576   1.928   6.587  1.3618 -0.9685 -0.6659
 6807SOL    HW221321   1.621   2.074   6.530 -0.0474 -0.1679  0.2378
 6808SOL     OW21322   0.032   1.478   5.268  0.5058 -0.0630  0.2516
 6808SOL    HW121323  -0.065   1.480   5.296  0.1863  0.2288 -0.8352
 6808SOL    HW221324   0.057   1.566   5.228  1.3543  0.0093  0.9068
 6809SOL     OW21325   2.146   2.056   1.448  0.5595  0.6534 -0.0844
 6809SOL    HW121326   2.081   2.048   1.372 -1.1699 -1.1347  1.4754
 6809SOL    HW221327   2.171   2.152   1.459 -1.7029  1.4178 -0.8669
 6810SOL     OW21328   1.667   3.376   2.780 -0.0681  0.0368  0.2537
 6810SOL    HW121329   1.595   3.350   2.844  0.0815 -1.2080 -0.0491
 6810SOL    HW221330   1.744   3.416   2.830 -0.4852  0.2793  0.7012
 6811SOL     OW21331   6.379   3.399   1.422  0.1438  0.0359  0.4060
 6811SOL    HW121332   6.428   3.402   1.335 -0.4084  1.6766  0.1093
 6811SOL    HW221333   6.390   3.309   1.464  1.3396 -0.4227 -0.8230
 6812SOL     OW21334   4.079   3.284   4.436 -0.2662  0.2780 -0.0574
 6812SOL    HW121335   4.084   3.372   4.483 -1.0763 -0.3311  1.2276
 6812SOL    HW221336   4.077   3.210   4.503 -2.2620 -0.6006 -0.9829
 6813SOL     OW21337   3.618   1.578   1.811 -0.0879 -0.1985 -0.8295
 6813SOL    HW121338   3.651   1.643   1.742 -1.8367  2.1117  0.4037
 6813SOL    HW221339   3.543   1.524   1.773  0.1732 -0.2475 -1.2856
 6814SOL     OW21340   4.172   1.474   6.294  0.2145 -0.2073  0.1899
 6814SOL    HW121341   4.145   1.389   6.339 -1.3694 -0.5374 -1.2581
 6814SOL    HW221342   4.095   1.508   6.240  1.5227  1.0120 -0.9722
 6815SOL     OW21343   4.356   0.759   6.872 -0.4225 -0.2558  0.0797
 6815SOL    HW121344   4.349   0.670   6.827  0.3081 -0.5979  0.6244
 6815SOL    HW221345   4.452   0.780   6.889 -0.3967  1.6367 -2.0036
 6816SOL     OW21346   0.892   1.664   5.155  0.1794 -0.4830 -0.0983
 6816SOL    HW121347   0.892   1.748   5.101 -0.3581 -0.6949 -0.4381
 6816SOL    HW221348   0.824   1.601   5.117  0.2974 -0.9085  0.3999
 6817SOL     OW21349   2.103   2.916   1.874 -0.4808 -0.2448 -0.0635
 6817SOL    HW121350   2.036   2.858   1.828  0.4386  1.6788 -4.3174
 6817SOL    HW221351   2.067   3.009   1.881  0.6625  0.1995  0.1348
 6818SOL     OW21352   2.679   0.844   3.722  0.0956  0.3612 -0.3999
 6818SOL    HW121353   2.679   0.908   3.799  0.7735 -0.6224  0.4507
 6818SOL    HW221354   2.606   0.776   3.735 -1.3143  1.5080 -1.8221
 6819SOL     OW21355   6.282   3.669   2.438  0.3251 -0.0730 -0.1953
 6819SOL    HW121356   6.219   3.704   2.507 -1.5517 -0.8274 -1.4420
 6819SOL    HW221357   6.265   3.716   2.351  1.1222 -0.6652 -0.6824
 6820SOL     OW21358   2.986   5.454   2.950  0.1660 -0.6352 -0.7764
 6820SOL    HW121359   3.062   5.495   3.000  0.9643 -0.5207 -2.0407
 6820SOL    HW221360   2.983   5.355   2.969  2.0596 -1.0697 -2.4174
 6821SOL     OW21361   3.490   1.051   4.977  0.1655 -0.2167 -0.3011
 6821SOL    HW121362   3.525   1.000   5.056  0.4307 -1.2210 -1.0570
 6821SOL    HW221363   3.390   1.050   4.978  0.1687 -0.4008 -0.0828
 6822SOL     OW21364   4.428   2.650   6.577  0.4056 -0.0686 -0.4048
 6822SOL    HW121365   4.475   2.659   6.489  1.0521 -1.7279 -0.2640
 6822SOL    HW221366   4.494   2.630   6.649  0.2327  3.6702  1.0069
 6823SOL     OW21367   3.491   3.792   6.747 -0.1776 -0.4560  0.1663
 6823SOL    HW121368   3.501   3.793   6.647  0.1964  0.6001  0.2009
 6823SOL    HW221369   3.398   3.763   6.771 -0.8313  0.9637 -0.5530
 6824SOL     OW21370   0.756   0.582   0.647 -0.1345  0.4449  0.0756
 6824SOL    HW121371   0.706   0.660   0.685 -0.3487  0.3020  0.0877
 6824SOL    HW221372   0.692   0.508   0.626  0.0482  0.3293 -0.0811
 6825SOL     OW21373   4.055   0.796   1.970  0.5937 -0.3671  0.1650
 6825SOL    HW121374   4.042   0.862   2.045 -1.2785 -0.3856 -0.0773
 6825SOL    HW221375   4.017   0.708   1.998 -0.0134 -0.4069 -0.7548
 6826SOL     OW21376   1.063   4.129   2.958 -0.2362 -0.1527  0.6341
 6826SOL    HW121377   1.010   4.163   3.037 -1.1136 -0.1215  0.0541
 6826SOL    HW221378   1.064   4.029   2.959 -1.2712 -0.1849  0.0543
 6827SOL     OW21379   4.621   4.600   0.592 -0.0438  0.0264 -0.6841
 6827SOL    HW121380   4.655   4.605   0.685 -0.1336  0.8872 -0.6884
 6827SOL    HW221381   4.604   4.692   0.557 -0.2749 -0.2928 -1.4540
 6828SOL     OW21382   5.045   1.016   0.566 -0.3921  0.4839 -0.4008
 6828SOL    HW121383   4.949   1.012   0.539 -0.1740  1.2360 -1.3620
 6828SOL    HW221384   5.074   1.112   0.572 -0.5107  0.4161  3.0004
 6829SOL     OW21385   4.179   5.186   4.896  0.2626  0.4715  0.3081
 6829SOL    HW121386   4.095   5.190   4.951  0.3209  0.5500  0.3932
 6829SOL    HW221387   4.161   5.138   4.811 -0.0143  0.9819  0.0717
 6830SOL     OW21388   5.424   5.946   4.742 -0.2949  0.0405 -0.3018
 6830SOL    HW121389   5.348   5.954   4.677 -1.4928 -0.0962  1.0125
 6830SOL    HW221390   5.490   5.880   4.708 -1.1382 -0.3851 -1.1683
 6831SOL     OW21391   1.349   4.934   5.817 -0.1093 -0.4284  0.4002
 6831SOL    HW121392   1.400   4.969   5.896 -1.2466  3.0228 -0.2154
 6831SOL    HW221393   1.413   4.894   5.751  1.2106 -0.5172  1.6919
 6832SOL     OW21394   2.510   3.806   0.004 -0.0368 -0.3870 -0.1428
 6832SOL    HW121395   2.452   3.870   0.055  1.3723 -0.5170  1.7434
 6832SOL    HW221396   2.476   3.713   0.018  1.4137 -0.6460  2.3128
 6833SOL     OW21397   3.650   4.739   0.731 -0.1613  0.1463 -0.0063
 6833SOL    HW121398   3.554   4.742   0.760 -0.4879  3.0152 -1.1073
 6833SOL    HW221399   3.654   4.729   0.632  0.8126 -2.7225  0.2376
 6834SOL     OW21400   5.702   5.722   1.109  0.3518 -0.0526 -0.2395
 6834SOL    HW121401   5.746   5.635   1.088  0.9807  0.7738 -2.5991
 6834SOL    HW221402   5.603   5.710   1.110  0.3771 -0.5808 -1.8278
 6835SOL     OW21403   4.932   1.119   3.908 -0.2366  0.5248 -0.2535
 6835SOL    HW121404   5.030   1.132   3.919 -0.3081  2.0964 -1.1486
 6835SOL    HW221405   4.914   1.024   3.882  0.8998 -0.1260  1.1922
 6836SOL     OW21406   1.463   6.903   1.357 -0.4356  0.0168  0.3774
 6836SOL    HW121407   1.495   6.905   1.452  1.0331  0.6645 -0.0991
 6836SOL    HW221408   1.373   6.946   1.351 -0.1148  0.8657  1.3386
 6837SOL     OW21409   0.408   0.493   1.518  0.1774  0.1043  0.3357
 6837SOL    HW121410   0.482   0.480   1.584  1.5513  0.6443 -1.0431
 6837SOL    HW221411   0.328   0.533   1.564  0.8748 -0.1154  1.7745
 6838SOL     OW21412   3.847   0.141   5.780  0.3781  0.0094 -0.3331
 6838SOL    HW121413   3.754   0.116   5.804  1.1691 -3.3143 -0.2649
 6838SOL    HW221414   3.903   0.144   5.863  0.6899  0.2919 -0.5521
 6839SOL     OW21415   4.775   0.939   5.045 -0.1076 -0.0805 -0.2389
 6839SOL    HW121416   4.704   0.889   4.995 -0.8831 -1.9517  2.5044
 6839SOL    HW221417   4.862   0.891   5.035 -0.3224 -0.6136  0.4070
 6840SOL     OW21418   1.965   6.619   6.149 -0.0133 -0.1509 -0.4662
 6840SOL    HW121419   1.916   6.547   6.099  2.1844 -1.4299 -0.9124
 6840SOL    HW221420   1.968   6.702   6.094 -0.5390 -0.4708 -0.9887
 6841SOL     OW21421   3.990   3.600   0.355  0.4774  0.5648 -0.5407
 6841SOL    HW121422   3.907   3.544   0.349  0.0766  1.1219 -0.2936
 6841SOL    HW221423   4.047   3.566   0.430 -0.3848  1.2738  0.4717
 6842SOL     OW21424   3.127   4.642   6.629 -0.5217  0.3151  0.2305
 6842SOL    HW121425   3.092   4.550   6.649 -0.8940  0.7065  1.4782
 6842SOL    HW221426   3.106   4.703   6.706 -0.1465  1.4125 -0.5142
 6843SOL     OW21427   5.646   0.222   0.577 -0.1808  0.0621  0.0091
 6843SOL    HW121428   5.732   0.232   0.628 -0.0243  0.0862 -0.2626
 6843SOL    HW221429   5.575   0.187   0.639  0.6494 -2.3815 -0.3221
 6844SOL     OW21430   5.754   6.921   5.422 -0.8889 -0.4744  0.2491
 6844SOL    HW121431   5.674   6.885   5.470 -2.0447  0.8408 -0.6181
 6844SOL    HW221432   5.724   6.971   5.341  0.7684  0.6968  0.3203
 6845SOL     OW21433   6.497   4.148   3.477 -0.0887  0.3139  0.2793
 6845SOL    HW121434   6.567   4.164   3.408 -2.3667 -0.7936 -2.5033
 6845SOL    HW221435   6.484   4.231   3.531  2.3105  0.9860 -0.0722
 6846SOL     OW21436   5.503   3.419   0.346 -0.2402 -0.0688 -0.5889
 6846SOL    HW121437   5.580   3.478   0.369 -0.9089  0.0212  1.6780
 6846SOL    HW221438   5.514   3.331   0.392 -1.3770 -0.1172 -0.3796
 6847SOL     OW21439   6.822   3.258   3.561 -0.1906  0.3494 -0.3779
 6847SOL    HW121440   6.818   3.333   3.627  0.4920 -1.1863  1.5415
 6847SOL    HW221441   6.910   3.260   3.514  0.5905 -0.2161  0.9822
 6848SOL     OW21442   3.537   5.589   1.594  0.1080  0.5611  0.7863
 6848SOL    HW121443   3.581   5.515   1.543 -1.1594  1.2624 -1.5146
 6848SOL    HW221444   3.603   5.633   1.654  1.6302 -0.5555 -0.0102
 6849SOL     OW21445   5.298   4.859   0.371 -0.4485 -0.0179 -0.0033
 6849SOL    HW121446   5.224   4.867   0.304  0.1999 -0.5769 -0.8004
 6849SOL    HW221447   5.326   4.764   0.379  0.0797  0.1654  0.4074
 6850SOL     OW21448   6.087   1.768   2.634 -0.5918 -0.0750  0.3397
 6850SOL    HW121449   6.038   1.830   2.696 -1.3048 -0.0555 -0.2320
 6850SOL    HW221450   6.030   1.688   2.615 -1.0308  0.6371 -1.4968
 6851SOL     OW21451   1.535   1.192   4.078 -0.3374 -0.0242  0.1562
 6851SOL    HW121452   1.509   1.166   3.984 -0.9906 -1.2591  0.6511
 6851SOL    HW221453   1.493   1.280   4.100  0.6042  0.7540 -1.0239
 6852SOL     OW21454   3.098   6.231   2.647 -0.1492 -0.0780 -0.0962
 6852SOL    HW121455   3.078   6.248   2.743  0.4024  0.0389  0.0009
 6852SOL    HW221456   3.015   6.199   2.601 -1.0454  2.0561 -0.0978
 6853SOL     OW21457   6.977   4.078   5.425 -0.0311  0.0133  0.5750
 6853SOL    HW121458   6.993   4.039   5.334  0.6666 -0.7123  0.9948
 6853SOL    HW221459   6.880   4.068   5.448  0.3029 -2.6881  1.1728
 6854SOL     OW21460   5.808   6.835   5.104 -0.3019 -0.4018  0.5676
 6854SOL    HW121461   5.788   6.933   5.105 -0.5464 -0.4497  0.2723
 6854SOL    HW221462   5.740   6.787   5.159 -1.5984 -0.6738 -1.1882
 6855SOL     OW21463   4.346   0.481   3.916 -0.4554 -0.2326 -0.4109
 6855SOL    HW121464   4.250   0.456   3.911 -0.6444 -0.1156  1.6732
 6855SOL    HW221465   4.359   0.573   3.878 -1.3130  0.0710  0.0051
 6856SOL     OW21466   0.082   1.617   5.540 -0.3441 -0.2501  0.4166
 6856SOL    HW121467   0.004   1.678   5.551 -1.2371 -0.9038 -1.7283
 6856SOL    HW221468   0.128   1.636   5.453  0.3254 -1.5605  0.4458
 6857SOL     OW21469   2.615   1.645   6.273  0.3529 -0.2841  0.5689
 6857SOL    HW121470   2.643   1.571   6.213  1.6356 -0.8149  1.7660
 6857SOL    HW221471   2.560   1.711   6.222  2.3797 -0.0810 -1.4810
 6858SOL     OW21472   2.063   3.682   0.315 -0.5974  0.1461  0.6221
 6858SOL    HW121473   2.002   3.661   0.239  1.9041  0.1113 -1.5349
 6858SOL    HW221474   2.072   3.781   0.324  0.1433  0.1454 -0.0491
 6859SOL     OW21475   2.067   6.726   1.466  0.4716  0.0155 -0.1801
 6859SOL    HW121476   2.007   6.725   1.386 -1.4300 -0.7245  1.1742
 6859SOL    HW221477   2.019   6.769   1.543  1.0991 -1.8894  1.3501
 6860SOL     OW21478   0.396   4.421   3.078  0.7035  0.2550  0.7709
 6860SOL    HW121479   0.333   4.469   3.139  1.2760  2.1264 -0.0176
 6860SOL    HW221480   0.409   4.476   2.995  1.8248 -1.0622  0.0397
 6861SOL     OW21481   4.102   3.488   0.615  0.1023 -0.3634  0.6932
 6861SOL    HW121482   4.166   3.481   0.691 -0.0756 -1.1273  0.7809
 6861SOL    HW221483   4.042   3.408   0.614  0.1262 -0.3863 -0.2713
 6862SOL     OW21484   0.406   5.383   4.609 -0.3985 -0.3295 -0.6024
 6862SOL    HW121485   0.441   5.460   4.556 -1.0976 -0.6192 -1.5159
 6862SOL    HW221486   0.385   5.413   4.702 -2.2256  1.0378 -1.3989
 6863SOL     OW21487   6.689   0.588   4.375 -0.5161 -0.0180  0.5496
 6863SOL    HW121488   6.696   0.687   4.361  1.3385 -0.3783 -1.6668
 6863SOL    HW221489   6.617   0.551   4.316 -0.1334 -0.1748  0.1756
 6864SOL     OW21490   2.819   4.840   5.184  0.5630  0.5994 -0.0033
 6864SOL    HW121491   2.728   4.856   5.146 -0.7074  0.0549  2.6111
 6864SOL    HW221492   2.851   4.749   5.157  0.9500  1.2540 -1.9475
 6865SOL     OW21493   6.703   4.831   5.411 -0.1524 -0.0614  0.2688
 6865SOL    HW121494   6.745   4.859   5.497  0.8543  1.2282 -0.6000
 6865SOL    HW221495   6.767   4.777   5.357 -0.3684  0.0703 -0.1310
 6866SOL     OW21496   4.417   6.273   2.776  0.2575 -0.6925 -0.0249
 6866SOL    HW121497   4.333   6.287   2.828  0.1602  0.9786 -0.5839
 6866SOL    HW221498   4.480   6.216   2.829 -0.1432  0.3063  1.5963
 6867SOL     OW21499   2.149   4.446   2.968 -1.1102 -0.4127 -0.5971
 6867SOL    HW121500   2.183   4.534   2.935  3.3181 -2.2767 -1.7926
 6867SOL    HW221501   2.097   4.401   2.896 -2.1637  0.5696 -0.4767
 6868SOL     OW21502   2.804   5.197   0.065 -0.2952 -0.1726  0.3453
 6868SOL    HW121503   2.789   5.208  -0.033 -0.1004 -0.2010  0.3124
 6868SOL    HW221504   2.852   5.111   0.082  0.8853  0.4699  0.3526
 6869SOL     OW21505   5.074   1.564   5.650  0.3886 -0.0813 -0.5066
 6869SOL    HW121506   5.127   1.550   5.566  0.2487  1.7832 -0.9642
 6869SOL    HW221507   5.136   1.564   5.729  0.3307 -3.6278 -0.3018
 6870SOL     OW21508   6.785   4.726   0.646  0.4434  0.2172  0.0772
 6870SOL    HW121509   6.784   4.764   0.553  0.7279  2.3062  0.8714
 6870SOL    HW221510   6.847   4.780   0.703  0.7312 -1.3987  1.3533
 6871SOL     OW21511   6.639   2.841   3.377  0.3073 -0.3302  0.0349
 6871SOL    HW121512   6.623   2.914   3.443 -0.1213  0.8351 -1.3066
 6871SOL    HW221513   6.570   2.845   3.305  2.9743  1.0778 -2.7056
 6872SOL     OW21514   0.125   2.024   1.851 -0.1537  0.4875  0.2707
 6872SOL    HW121515   0.209   2.060   1.892  0.3666  0.4770 -0.7547
 6872SOL    HW221516   0.064   1.990   1.923  1.3165 -0.8025  0.9667
 6873SOL     OW21517   0.204   2.989   3.427  0.8572  0.3145  0.1022
 6873SOL    HW121518   0.127   2.926   3.415 -0.3174  1.5144  0.9237
 6873SOL    HW221519   0.283   2.940   3.462  0.5455 -0.9997 -0.9799
 6874SOL     OW21520   0.787   5.157   3.167  0.2683 -0.0326  0.4828
 6874SOL    HW121521   0.754   5.073   3.123 -0.2212  0.0646  0.6533
 6874SOL    HW221522   0.714   5.196   3.223  1.0108 -0.3995  1.7602
 6875SOL     OW21523   1.538   3.779   2.872  0.2059 -0.2540  0.4373
 6875SOL    HW121524   1.523   3.776   2.773  1.6714 -0.6287  0.1974
 6875SOL    HW221525   1.452   3.760   2.920 -1.4695  3.5116 -0.6586
 6876SOL     OW21526   4.093   0.538   4.237  0.6999  0.2444  0.1445
 6876SOL    HW121527   4.056   0.546   4.145  2.2851  0.3452 -0.5127
 6876SOL    HW221528   4.059   0.454   4.279 -0.5672  0.5312 -0.2534
 6877SOL     OW21529   2.738   1.254   1.256  0.3479 -0.3233 -0.2302
 6877SOL    HW121530   2.801   1.224   1.185  2.4488  0.0404  1.3993
 6877SOL    HW221531   2.721   1.352   1.246  0.0836 -0.4047 -0.6167
 6878SOL     OW21532   3.371   0.357   4.419  0.0473 -0.4262 -0.2609
 6878SOL    HW121533   3.290   0.408   4.391  1.1443  1.3793 -0.3060
 6878SOL    HW221534   3.452   0.414   4.406  1.0794 -1.1451  2.3615
 6879SOL     OW21535   0.416   3.483   5.942  0.0012 -0.5871  0.1976
 6879SOL    HW121536   0.443   3.388   5.956 -0.0794 -0.7616 -0.7350
 6879SOL    HW221537   0.388   3.524   6.029  0.4050 -1.2987  0.6650
 6880SOL     OW21538   6.995   5.112   5.515 -0.3609 -0.0052 -0.4469
 6880SOL    HW121539   7.051   5.034   5.486  0.2952  0.4431 -0.4062
 6880SOL    HW221540   6.905   5.079   5.542 -0.3031 -0.6752 -1.0321
 6881SOL     OW21541   2.520   3.624   1.198  0.4355 -0.4291  0.2733
 6881SOL    HW121542   2.568   3.587   1.278  1.5366 -2.1342 -1.1017
 6881SOL    HW221543   2.576   3.695   1.155  0.2347 -0.1187  0.5229
 6882SOL     OW21544   4.845   0.937   6.885 -0.7538  0.4029  0.1318
 6882SOL    HW121545   4.900   1.019   6.904 -1.2654  1.1523 -1.4960
 6882SOL    HW221546   4.853   0.913   6.789 -0.6529 -1.4735  0.5746
 6883SOL     OW21547   5.464   2.667   0.342 -0.0576  0.1032 -0.1422
 6883SOL    HW121548   5.418   2.755   0.333 -0.8290 -0.2474  0.2456
 6883SOL    HW221549   5.496   2.637   0.252  0.8597  1.1075 -0.1670
 6884SOL     OW21550   2.128   3.336   2.985  0.0163  0.7636  0.1867
 6884SOL    HW121551   2.103   3.421   2.938 -0.5904  0.5748  0.1595
 6884SOL    HW221552   2.210   3.298   2.944  0.2123  1.2632  0.1074
 6885SOL     OW21553   4.099   5.111   1.947  0.5420 -0.4830 -0.1367
 6885SOL    HW121554   4.093   5.027   2.001 -1.0852  0.2916  0.9775
 6885SOL    HW221555   4.070   5.188   2.003  1.4560  0.7605 -1.3166
 6886SOL     OW21556   6.541   2.100   2.661 -0.3277  0.1055  0.0327
 6886SOL    HW121557   6.541   2.004   2.632  0.6315  0.1858 -0.2853
 6886SOL    HW221558   6.474   2.151   2.608  0.7415  0.0519 -1.4379
 6887SOL     OW21559   4.961   3.526   0.569  0.1799 -0.4316 -0.3865
 6887SOL    HW121560   4.954   3.462   0.645  2.3058 -0.4508 -0.1523
 6887SOL    HW221561   5.055   3.561   0.562 -0.3430  0.8200 -1.9989
 6888SOL     OW21562   6.678   6.149   0.081  0.9213 -0.5539 -0.2269
 6888SOL    HW121563   6.738   6.090   0.026  0.3816 -0.7340 -0.6293
 6888SOL    HW221564   6.602   6.181   0.024 -0.1842 -1.5171  0.6621
 6889SOL     OW21565   0.136   2.615   4.485 -0.5953 -0.2115  0.4265
 6889SOL    HW121566   0.055   2.610   4.426  0.1885 -0.4080 -0.6633
 6889SOL    HW221567   0.150   2.709   4.513  0.2004  0.2713 -1.4374
 6890SOL     OW21568   4.703   6.434   1.610 -0.1000 -0.7077 -0.1227
 6890SOL    HW121569   4.768   6.400   1.678  1.0009  0.6348 -0.4525
 6890SOL    HW221570   4.616   6.455   1.654  0.1316 -1.2264  0.5895
 6891SOL     OW21571   1.083   3.364   0.086 -0.0846  0.1437 -0.1712
 6891SOL    HW121572   1.009   3.405   0.033 -1.4997 -2.3342 -0.2933
 6891SOL    HW221573   1.045   3.298   0.151  1.8194  1.1157  2.0954
 6892SOL     OW21574   3.341   2.041   4.024 -0.1277 -0.4631 -0.1664
 6892SOL    HW121575   3.395   2.046   3.940  0.4857 -2.4018  0.0525
 6892SOL    HW221576   3.259   2.098   4.014  1.5447  2.0333 -0.7670
 6893SOL     OW21577   3.083   5.653   2.122 -0.2209  0.5673  0.4313
 6893SOL    HW121578   3.139   5.578   2.155  0.7304  1.1793  0.2446
 6893SOL    HW221579   2.986   5.629   2.131  0.0569 -1.0278 -0.4228
 6894SOL     OW21580   0.999   5.438   1.713 -0.2618 -0.0674  0.0284
 6894SOL    HW121581   0.957   5.350   1.738 -1.5414  0.9605  1.7642
 6894SOL    HW221582   1.029   5.435   1.618 -1.5884 -1.8973 -0.3858
 6895SOL     OW21583   1.518   5.270   2.332  0.2341 -0.1930 -0.3033
 6895SOL    HW121584   1.499   5.189   2.277 -1.9023 -0.4390  0.7188
 6895SOL    HW221585   1.463   5.269   2.415  1.0141  1.7425  0.3045
 6896SOL     OW21586   3.151   1.359   4.851  0.3676 -0.3995 -0.1316
 6896SOL    HW121587   3.064   1.385   4.810 -0.4707 -0.7419  1.3684
 6896SOL    HW221588   3.194   1.288   4.796 -0.3406 -0.2965 -0.8275
 6897SOL     OW21589   5.148   4.010   6.106  0.7821 -0.2916 -0.2864
 6897SOL    HW121590   5.126   4.088   6.048 -0.4272 -0.4937 -0.1329
 6897SOL    HW221591   5.140   3.926   6.054 -0.1447 -0.4608  0.0931
 6898SOL     OW21592   4.715   0.435   2.469  0.1362 -0.0476  0.0933
 6898SOL    HW121593   4.763   0.474   2.391  0.6261  0.3140  0.5718
 6898SOL    HW221594   4.730   0.336   2.472  1.4096  0.1381  0.6057
 6899SOL     OW21595   3.724   6.980   1.352 -0.0276 -0.1912 -0.1156
 6899SOL    HW121596   3.763   7.071   1.367  3.0486 -1.1806 -1.3615
 6899SOL    HW221597   3.655   6.985   1.280  1.0878  0.9481 -1.1500
 6900SOL     OW21598   6.243   6.093   4.996 -0.1791 -0.1897  0.3004
 6900SOL    HW121599   6.282   6.184   5.013 -0.7101 -0.0363  0.7482
 6900SOL    HW221600   6.276   6.058   4.909  0.0791  0.4137  0.1515
 6901SOL     OW21601   6.153   5.997   6.737  0.0844  0.4886 -0.1970
 6901SOL    HW121602   6.123   6.058   6.664 -0.7809  1.9856  1.3393
 6901SOL    HW221603   6.099   5.913   6.735 -0.7154  0.9992 -0.5849
 6902SOL     OW21604   5.964   6.474   6.527  0.3776 -0.1087 -0.7201
 6902SOL    HW121605   6.046   6.426   6.554  0.3743 -0.3272 -1.0845
 6902SOL    HW221606   5.883   6.418   6.547  0.0534  1.3018  2.4255
 6903SOL     OW21607   2.926   4.831   6.158 -1.0731 -0.0242 -0.0463
 6903SOL    HW121608   2.996   4.852   6.226 -1.1829  1.2957 -0.3154
 6903SOL    HW221609   2.854   4.775   6.199 -0.0396 -1.1092  0.3196
 6904SOL     OW21610   4.833   0.632   5.106  0.6739 -0.1087 -0.1309
 6904SOL    HW121611   4.890   0.712   5.125 -1.1063  1.2573 -0.2489
 6904SOL    HW221612   4.877   0.550   5.140  2.4791  0.9450  0.1686
 6905SOL     OW21613   5.423   5.481   1.541 -0.3721 -0.3263  0.1185
 6905SOL    HW121614   5.403   5.415   1.614 -0.7555 -0.1206  0.1988
 6905SOL    HW221615   5.437   5.432   1.455  0.2080 -0.5828  0.3503
 6906SOL     OW21616   2.796   6.863   3.081  0.0404  0.4339  0.3135
 6906SOL    HW121617   2.798   6.793   3.009 -1.4992  1.5451 -0.8765
 6906SOL    HW221618   2.881   6.915   3.079  0.3800 -0.1215 -0.1160
 6907SOL     OW21619   5.801   1.825   1.547 -0.1345 -0.2407 -0.1067
 6907SOL    HW121620   5.799   1.904   1.608  1.4195  0.0954 -0.4689
 6907SOL    HW221621   5.726   1.832   1.481  0.5153  1.4032 -0.7138
 6908SOL     OW21622   2.653   5.955   0.417  0.2379  0.4478 -0.0985
 6908SOL    HW121623   2.599   5.941   0.334  0.7286 -0.6412 -0.2473
 6908SOL    HW221624   2.592   5.971   0.494 -0.3832 -1.7168 -0.0709
 6909SOL     OW21625   4.583   2.798   1.797 -0.2311 -0.2039  0.2970
 6909SOL    HW121626   4.656   2.766   1.857 -0.0738 -0.1610  0.1274
 6909SOL    HW221627   4.587   2.897   1.789 -0.8469 -0.1167  0.9898
 6910SOL     OW21628   2.159   3.896   3.421 -0.0818 -0.8337 -0.1158
 6910SOL    HW121629   2.077   3.851   3.457 -1.6869  1.1267 -1.0963
 6910SOL    HW221630   2.212   3.935   3.497 -1.5981  0.3115  0.4075
 6911SOL     OW21631   4.352   1.373   3.411  0.0106 -0.1055  0.5909
 6911SOL    HW121632   4.322   1.400   3.319  0.4285 -0.6288  0.2936
 6911SOL    HW221633   4.366   1.454   3.467  1.0696  0.2869 -0.2225
 6912SOL     OW21634   0.801   3.041   0.444 -0.4784 -0.2102 -0.5562
 6912SOL    HW121635   0.714   3.053   0.396 -0.9702  0.2931  0.4308
 6912SOL    HW221636   0.784   3.008   0.537  0.0775  3.1297  0.8789
 6913SOL     OW21637   6.116   0.886   2.318 -0.1463 -0.0587 -0.1936
 6913SOL    HW121638   6.111   0.895   2.417 -1.3835 -1.3380 -0.1089
 6913SOL    HW221639   6.143   0.974   2.277  1.4444  0.2044  1.3183
 6914SOL     OW21640   6.649   4.025   5.152  0.0525 -0.2253 -0.9032
 6914SOL    HW121641   6.737   3.987   5.125  0.7745  1.2424 -0.7245
 6914SOL    HW221642   6.639   4.117   5.114 -0.1458  0.7646  1.4086
 6915SOL     OW21643   5.413   2.924   1.732  0.8155  0.2241 -0.0589
 6915SOL    HW121644   5.357   3.000   1.698  0.5013  0.0233  0.0070
 6915SOL    HW221645   5.398   2.844   1.673 -0.6401 -0.4937  1.2153
 6916SOL     OW21646   3.572   2.073   6.726  0.6740 -0.2221  0.0675
 6916SOL    HW121647   3.588   2.003   6.796  2.3046  0.9155  0.9209
 6916SOL    HW221648   3.649   2.075   6.662  0.9309  1.1114  0.3808
 6917SOL     OW21649   4.306   2.047   1.992 -0.0814 -0.4790 -0.2135
 6917SOL    HW121650   4.224   2.043   2.049  0.0332 -1.0208 -0.0809
 6917SOL    HW221651   4.304   2.130   1.936 -0.3437 -0.0896  0.3555
 6918SOL     OW21652   0.426   0.684   1.900  0.2171 -0.1929  0.1623
 6918SOL    HW121653   0.502   0.741   1.933 -0.4820  1.0993 -0.3991
 6918SOL    HW221654   0.387   0.725   1.818 -1.9810 -0.0698  1.1994
 6919SOL     OW21655   4.415   4.830   4.275 -0.1233  0.5255 -0.0147
 6919SOL    HW121656   4.446   4.914   4.318 -0.9646  1.6994 -1.6189
 6919SOL    HW221657   4.383   4.766   4.345  0.1199  1.6994  1.1943
 6920SOL     OW21658   4.262   1.095   5.622  0.5323 -0.5029  0.0313
 6920SOL    HW121659   4.321   1.018   5.647 -0.4071 -1.9224 -1.8398
 6920SOL    HW221660   4.283   1.124   5.529  0.4696  1.1743  0.5014
 6921SOL     OW21661   2.911   5.596   4.203 -0.5239 -0.3097 -0.8435
 6921SOL    HW121662   2.973   5.590   4.281 -0.5033  0.8983 -0.7478
 6921SOL    HW221663   2.820   5.621   4.235 -0.3597  0.8800 -1.2471
 6922SOL     OW21664   2.418   4.582   4.609  0.2321  0.0779  0.0265
 6922SOL    HW121665   2.340   4.634   4.574  0.0428 -1.1046 -1.4000
 6922SOL    HW221666   2.503   4.624   4.578  0.1125  0.1169 -0.2469
 6923SOL     OW21667   4.481   0.018   0.429  0.5456  0.6241 -0.6166
 6923SOL    HW121668   4.476  -0.035   0.514  1.8856  1.1004 -0.2024
 6923SOL    HW221669   4.415  -0.018   0.363  0.4492 -0.6598  0.1352
 6924SOL     OW21670   1.538   4.582   0.167 -0.3736  0.4001 -0.3213
 6924SOL    HW121671   1.576   4.600   0.257 -0.0204 -0.0066 -0.3870
 6924SOL    HW221672   1.445   4.546   0.176 -0.0981 -0.2745 -0.0877
 6925SOL     OW21673   5.064   6.964   4.134  0.1632  0.1730  0.2219
 6925SOL    HW121674   5.161   6.963   4.111 -0.1414 -0.5642 -1.1592
 6925SOL    HW221675   5.053   6.981   4.232  1.7042 -0.4380  0.5324
 6926SOL     OW21676   2.057   0.461   2.305  0.0790  0.1465 -0.1991
 6926SOL    HW121677   2.058   0.529   2.232  0.0304 -0.0543 -0.3883
 6926SOL    HW221678   2.151   0.440   2.332  0.0690  1.8771  1.3603
 6927SOL     OW21679   4.108   3.557   5.470 -0.9562  0.4120 -0.0001
 6927SOL    HW121680   4.105   3.562   5.569 -0.1020  0.3957  0.0372
 6927SOL    HW221681   4.178   3.491   5.441 -3.2023 -1.8569 -0.6158
 6928SOL     OW21682   4.291   6.864   0.354  0.4658 -0.1433  0.1492
 6928SOL    HW121683   4.342   6.810   0.287  1.0434  0.2100  0.2920
 6928SOL    HW221684   4.203   6.891   0.315  0.9359  0.3440 -0.6078
 6929SOL     OW21685   4.030   6.608   0.748 -0.4928 -0.1683 -0.2556
 6929SOL    HW121686   4.101   6.658   0.698  0.1916  1.2031  1.9039
 6929SOL    HW221687   4.033   6.635   0.845 -2.5731 -1.7033  0.3081
 6930SOL     OW21688   1.156   6.535   2.568 -0.4746  0.0641  0.2293
 6930SOL    HW121689   1.137   6.455   2.625 -2.5058 -0.3598 -0.9532
 6930SOL    HW221690   1.153   6.617   2.624  0.2462 -0.5561  1.2023
 6931SOL     OW21691   2.179   0.498   3.149 -0.9930 -0.3555  0.4249
 6931SOL    HW121692   2.148   0.446   3.068 -0.5727  0.5538 -0.3342
 6931SOL    HW221693   2.099   0.523   3.204 -1.4802  0.6217 -0.6962
 6932SOL     OW21694   3.167   1.896   6.696 -0.1098  0.3987 -0.3983
 6932SOL    HW121695   3.250   1.861   6.739  0.5846  0.1429 -1.8927
 6932SOL    HW221696   3.111   1.819   6.663 -1.5073  0.5106  1.5308
 6933SOL     OW21697   2.133   5.566   4.531  0.8323 -0.1436 -0.0207
 6933SOL    HW121698   2.053   5.535   4.479  0.7974 -0.3042  0.1271
 6933SOL    HW221699   2.186   5.630   4.475  0.4444  0.1907 -0.0161
 6934SOL     OW21700   4.772   4.421   6.745 -0.5082 -0.2283  0.5265
 6934SOL    HW121701   4.761   4.504   6.800  0.2373 -0.5149  1.1302
 6934SOL    HW221702   4.742   4.439   6.652 -2.5511  0.0447  1.1879
 6935SOL     OW21703   4.825   6.518   2.435  0.5094  0.0609 -0.2924
 6935SOL    HW121704   4.826   6.617   2.451 -1.2114  0.3100 -1.4804
 6935SOL    HW221705   4.745   6.478   2.480  0.4791 -0.5849 -0.9046
 6936SOL     OW21706   5.297   4.722   5.453 -0.4752  0.1741  0.9358
 6936SOL    HW121707   5.307   4.718   5.354  1.9289 -2.4716  1.1462
 6936SOL    HW221708   5.326   4.811   5.487  2.9510 -0.2139 -0.5133
 6937SOL     OW21709   4.993   5.575   0.348 -0.9868 -0.0553  0.0105
 6937SOL    HW121710   5.083   5.536   0.327 -2.2552 -1.4126 -3.5469
 6937SOL    HW221711   4.986   5.666   0.307 -2.0557 -1.0158 -2.0528
 6938SOL     OW21712   5.971   1.961   4.114 -0.4541 -0.1347 -0.9335
 6938SOL    HW121713   6.028   1.950   4.196  1.0776  0.6560 -1.8406
 6938SOL    HW221714   5.876   1.974   4.141  0.1677  1.1916  0.7850
 6939SOL     OW21715   6.160   0.224   2.381  0.8887  0.4856  0.3047
 6939SOL    HW121716   6.259   0.222   2.395  1.2852  1.5459 -1.9917
 6939SOL    HW221717   6.122   0.308   2.418  0.9399  0.3872  0.5838
 6940SOL     OW21718   3.010   1.340   5.084 -0.0097 -0.0793 -0.1435
 6940SOL    HW121719   3.096   1.343   5.034 -1.0699  1.8254 -1.9959
 6940SOL    HW221720   2.944   1.285   5.034 -0.7701  0.9720 -0.3270
 6941SOL     OW21721   3.642   3.482   0.688  0.1224 -0.2265  0.1798
 6941SOL    HW121722   3.730   3.529   0.683 -1.8349  3.7952 -0.1966
 6941SOL    HW221723   3.622   3.440   0.600  0.3990  1.4650 -0.7336
 6942SOL     OW21724   5.801   6.353   2.755  0.2022  0.2587  0.2624
 6942SOL    HW121725   5.743   6.407   2.816 -0.7091  1.0627 -1.2493
 6942SOL    HW221726   5.768   6.259   2.753 -0.5465  0.5223  0.0491
 6943SOL     OW21727   3.891   1.003   0.616 -0.1675  0.6717 -0.1002
 6943SOL    HW121728   3.978   1.048   0.599 -0.0906  0.1537 -1.1280
 6943SOL    HW221729   3.860   0.958   0.533 -0.5464 -0.6517  0.7303
 6944SOL     OW21730   0.670   4.986   5.350 -0.1741 -0.4856  0.8265
 6944SOL    HW121731   0.691   5.083   5.354 -1.6295 -0.0530 -0.9184
 6944SOL    HW221732   0.592   4.966   5.409 -0.2059 -0.5017  0.7789
 6945SOL     OW21733   5.702   0.201   1.419  0.1736  0.7499 -0.5494
 6945SOL    HW121734   5.772   0.165   1.480  0.9990  2.6987 -0.2831
 6945SOL    HW221735   5.654   0.276   1.464 -0.2063  1.2458 -1.7468
 6946SOL     OW21736   3.676   0.227   6.919 -0.1707 -0.2322  0.5595
 6946SOL    HW121737   3.774   0.242   6.911 -0.0355 -0.9781  0.7206
 6946SOL    HW221738   3.628   0.287   6.855  0.5462 -1.7534 -1.5027
 6947SOL     OW21739   2.811   6.894   1.211 -0.9422 -0.5431  0.0496
 6947SOL    HW121740   2.778   6.931   1.124 -0.5138 -1.7444 -0.6533
 6947SOL    HW221741   2.906   6.865   1.200 -0.7016 -0.1720  1.0972
 6948SOL     OW21742   1.877   5.656   2.382 -0.3689  0.0455 -0.4662
 6948SOL    HW121743   1.788   5.624   2.415 -0.3556  1.3743  0.9875
 6948SOL    HW221744   1.941   5.658   2.459  0.4337  0.7273 -1.1371
 6949SOL     OW21745   2.845   0.835   4.965 -0.5293  0.4243  0.2764
 6949SOL    HW121746   2.891   0.794   5.044  1.0786  0.1753 -0.7452
 6949SOL    HW221747   2.770   0.893   4.997 -1.3799 -1.4067  1.8783
 6950SOL     OW21748   0.368   6.149   4.975  0.9247  0.5361 -0.0293
 6950SOL    HW121749   0.406   6.062   5.006  0.0157  0.0987 -0.1301
 6950SOL    HW221750   0.286   6.132   4.921 -0.2381  1.5328  1.3718
 6951SOL     OW21751   6.253   4.043   5.450  0.2884  0.1186 -0.0713
 6951SOL    HW121752   6.265   3.953   5.491  0.5059  0.5307  0.7983
 6951SOL    HW221753   6.163   4.079   5.474  1.3844  1.5150  2.4669
 6952SOL     OW21754   1.381   5.256   2.563 -0.5022  0.8420  0.3764
 6952SOL    HW121755   1.286   5.266   2.533 -1.0713  2.1638  2.4247
 6952SOL    HW221756   1.393   5.169   2.610 -0.8964  0.9653  0.7118
 6953SOL     OW21757   3.939   6.958   1.080  0.5565  0.4100 -0.1465
 6953SOL    HW121758   3.919   7.053   1.102  0.1241  0.6869 -1.5899
 6953SOL    HW221759   3.884   6.930   1.001  1.3402 -0.7561 -0.3057
 6954SOL     OW21760   1.315   4.436   0.209  0.9143 -0.0722 -0.4009
 6954SOL    HW121761   1.284   4.438   0.304 -0.2067 -0.3601 -0.7558
 6954SOL    HW221762   1.341   4.342   0.185  1.9619  0.1393 -0.1511
 6955SOL     OW21763   6.162   6.646   2.637  0.1850  0.1969 -0.0377
 6955SOL    HW121764   6.078   6.623   2.686  0.6949  0.3733  0.9485
 6955SOL    HW221765   6.231   6.576   2.655  1.0440  1.3030  1.2264
 6956SOL     OW21766   0.400   5.298   2.700  0.5860 -0.1407 -0.1162
 6956SOL    HW121767   0.313   5.280   2.746  0.0600  1.7670 -0.2673
 6956SOL    HW221768   0.445   5.212   2.679 -0.3397 -1.1204  1.7081
 6957SOL     OW21769   5.983   5.009   1.648 -0.2174 -0.1112  0.0202
 6957SOL    HW121770   5.915   5.081   1.631  1.0042  1.1104  0.2208
 6957SOL    HW221771   5.935   4.926   1.678 -1.5824  0.9182  0.8374
 6958SOL     OW21772   5.981   2.596   5.870 -0.4219  0.0974  0.2237
 6958SOL    HW121773   6.001   2.668   5.804 -2.2986  0.6401  0.1903
 6958SOL    HW221774   6.063   2.576   5.924  1.0263 -0.0027 -1.8775
 6959SOL     OW21775   2.346   4.394   2.127  0.2368 -0.1341  0.0702
 6959SOL    HW121776   2.251   4.407   2.156  0.8727  2.6834  1.2331
 6959SOL    HW221777   2.354   4.411   2.029 -0.4844 -0.6713 -0.0883
 6960SOL     OW21778   1.936   4.665   2.583  0.1597 -0.4822 -0.3030
 6960SOL    HW121779   1.960   4.572   2.610 -0.5408 -0.3107  1.0237
 6960SOL    HW221780   1.970   4.684   2.491  0.9556 -1.7887 -0.2923
 6961SOL     OW21781   6.462   1.311   4.106 -0.4791 -0.0887  0.5930
 6961SOL    HW121782   6.536   1.256   4.145  0.7648  1.8331  1.0951
 6961SOL    HW221783   6.375   1.283   4.148  0.3030 -0.6381  1.9538
 6962SOL     OW21784   3.453   1.108   2.473  0.3429 -0.4717 -0.8316
 6962SOL    HW121785   3.369   1.160   2.490 -0.2527 -1.9386  1.0161
 6962SOL    HW221786   3.527   1.172   2.451 -0.6342  1.0710  0.1236
 6963SOL     OW21787   3.338   6.646   0.856 -0.5471 -0.5570  0.2057
 6963SOL    HW121788   3.423   6.593   0.849 -0.1988 -0.0102  0.2358
 6963SOL    HW221789   3.284   6.633   0.773  0.0737 -0.0529 -0.2888
 6964SOL     OW21790   3.019   2.099   6.788 -0.1286 -0.2338 -0.2024
 6964SOL    HW121791   2.967   2.076   6.871 -0.8017 -0.6028 -0.7157
 6964SOL    HW221792   3.076   2.021   6.762  0.1829 -0.0700 -0.0146
 6965SOL     OW21793   1.258   0.232   6.627 -0.0759 -0.2473  0.4894
 6965SOL    HW121794   1.271   0.198   6.534 -0.9997 -0.0756  0.2848
 6965SOL    HW221795   1.260   0.332   6.626  3.5178 -0.1812  1.2183
 6966SOL     OW21796   0.768   1.173   1.197 -0.2624  0.2511  0.4974
 6966SOL    HW121797   0.758   1.271   1.181 -2.4357  0.4253  2.5046
 6966SOL    HW221798   0.724   1.122   1.123  1.5483  0.6820 -0.9727
 6967SOL     OW21799   1.584   0.949   5.993 -0.6451 -0.0455  0.1774
 6967SOL    HW121800   1.675   0.969   5.957 -1.1396  2.2350  0.0379
 6967SOL    HW221801   1.592   0.887   6.071  0.7177 -2.3618 -1.6706
 6968SOL     OW21802   3.898   1.228   3.575 -0.0015  0.7473 -0.2014
 6968SOL    HW121803   3.844   1.219   3.659 -2.1383  0.7184 -1.4949
 6968SOL    HW221804   3.904   1.139   3.530  0.2568  0.9594 -0.5879
 6969SOL     OW21805   4.270   2.083   1.477  0.0495 -0.3065  0.2764
 6969SOL    HW121806   4.220   2.065   1.392 -1.5238 -1.4484  1.3668
 6969SOL    HW221807   4.231   2.162   1.523  0.6750  0.1045  0.1084
 6970SOL     OW21808   2.694   3.863   5.477 -0.3017  0.2310 -0.1315
 6970SOL    HW121809   2.776   3.886   5.425 -0.6087  2.5927  0.3229
 6970SOL    HW221810   2.702   3.901   5.569 -2.3184  1.5016 -0.4194
 6971SOL     OW21811   5.591   4.500   0.801 -0.2807  0.0574  0.2782
 6971SOL    HW121812   5.691   4.499   0.804 -0.1526 -1.9957 -1.8124
 6971SOL    HW221813   5.555   4.419   0.846 -1.0991  1.2174  1.7987
 6972SOL     OW21814   6.865   4.161   2.987  0.7529  0.3426  0.4879
 6972SOL    HW121815   6.880   4.126   2.895  0.3965  1.5980 -0.0694
 6972SOL    HW221816   6.778   4.128   3.023  1.7226 -1.6657  1.1467
 6973SOL     OW21817   0.427   3.964   2.984 -0.4167  0.2363  0.0796
 6973SOL    HW121818   0.377   3.934   2.902 -1.4414 -0.1248  0.8179
 6973SOL    HW221819   0.362   3.994   3.053  0.4778  1.3874  0.4547
 6974SOL     OW21820   3.676   3.529   2.958  0.7523  0.0113  0.2632
 6974SOL    HW121821   3.706   3.578   2.876 -0.6265  1.8858  0.7924
 6974SOL    HW221822   3.609   3.585   3.007  0.9596 -1.3935  2.2707
 6975SOL     OW21823   2.008   6.344   4.399  0.2264  0.3822  0.4314
 6975SOL    HW121824   1.912   6.351   4.428 -0.5689 -0.5389 -1.7443
 6975SOL    HW221825   2.034   6.429   4.353 -0.5974 -0.4312 -1.6782
 6976SOL     OW21826   6.757   4.732   6.526  0.0725  0.7973 -0.2249
 6976SOL    HW121827   6.681   4.689   6.576  1.9342  0.5194  2.6056
 6976SOL    HW221828   6.766   4.827   6.556  1.3415  0.5737  0.1466
 6977SOL     OW21829   3.813   1.369   5.873  0.0528  0.1057 -0.5185
 6977SOL    HW121830   3.816   1.274   5.842 -0.6922 -0.3245  0.6541
 6977SOL    HW221831   3.906   1.405   5.881  0.3914 -0.8668  0.0141
 6978SOL     OW21832   5.008   1.439   1.716 -0.6886  0.5504  0.5480
 6978SOL    HW121833   5.047   1.528   1.692 -0.0329  0.4081  1.0663
 6978SOL    HW221834   5.035   1.415   1.809 -0.5708 -0.3636  0.2827
 6979SOL     OW21835   6.508   5.283   1.480  0.3858  0.2727 -0.3585
 6979SOL    HW121836   6.449   5.311   1.556 -0.4043 -0.6268 -0.6130
 6979SOL    HW221837   6.497   5.185   1.465  0.4531  0.4588 -1.7006
 6980SOL     OW21838   2.886   0.699   3.640  0.1098  0.3253 -0.0901
 6980SOL    HW121839   2.807   0.761   3.639 -0.0275  0.1481 -1.3942
 6980SOL    HW221840   2.970   0.753   3.649 -0.0978  0.5855  0.3095
 6981SOL     OW21841   4.172   2.996   6.015  0.3829 -0.7102  0.5129
 6981SOL    HW121842   4.135   2.937   5.944  0.0461 -0.8119  0.7725
 6981SOL    HW221843   4.178   2.945   6.101  0.6740 -0.5528  0.5878
 6982SOL     OW21844   0.416   1.348   5.572 -0.3918  0.0335  0.2354
 6982SOL    HW121845   0.317   1.360   5.565 -0.1004  1.7522 -2.2315
 6982SOL    HW221846   0.439   1.251   5.570 -1.9352 -0.3679 -2.1712
 6983SOL     OW21847   4.832   2.043   4.322 -0.6822  0.5671 -0.2354
 6983SOL    HW121848   4.784   2.083   4.244 -2.9907 -0.8098  0.4027
 6983SOL    HW221849   4.931   2.052   4.308 -1.0193  3.8083 -1.4647
 6984SOL     OW21850   2.110   0.635   2.069 -0.4294  0.2274 -0.0645
 6984SOL    HW121851   2.146   0.683   1.989  0.3135  1.7867  1.1352
 6984SOL    HW221852   2.020   0.673   2.093 -2.0844 -2.2560 -1.8333
 6985SOL     OW21853   6.356   5.438   6.884 -0.7123 -0.2342  0.3502
 6985SOL    HW121854   6.345   5.339   6.874 -0.2595 -0.4163  1.4426
 6985SOL    HW221855   6.451   5.463   6.863 -0.3360 -0.3171  1.8011
 6986SOL     OW21856   3.348   0.907   5.275 -0.1426 -0.2781 -0.3816
 6986SOL    HW121857   3.371   0.964   5.353 -0.1613 -0.2464 -0.3988
 6986SOL    HW221858   3.254   0.927   5.245 -0.2169 -0.4550 -0.2683
 6987SOL     OW21859   0.816   1.865   4.137  0.2059  0.1684  0.3588
 6987SOL    HW121860   0.755   1.942   4.118 -1.4526 -1.1723 -0.0211
 6987SOL    HW221861   0.828   1.855   4.236 -0.2355  0.4227  0.4394
 6988SOL     OW21862   6.662   0.033   6.342 -0.8125 -0.1333  0.1603
 6988SOL    HW121863   6.567   0.061   6.354 -0.9735 -0.7559  0.3995
 6988SOL    HW221864   6.713   0.106   6.298 -1.2314  0.4942  0.6901
 6989SOL     OW21865   0.203   4.088   4.111  0.1054 -0.4554  0.6659
 6989SOL    HW121866   0.147   4.168   4.089  1.2242  0.1470 -0.1297
 6989SOL    HW221867   0.147   4.018   4.153 -1.0576  0.4612  0.6833
 6990SOL     OW21868   5.276   4.456   1.905  0.1736 -0.4418 -0.3301
 6990SOL    HW121869   5.255   4.371   1.953  0.1465 -1.1008 -1.4646
 6990SOL    HW221870   5.363   4.493   1.938 -1.1444  0.6653  2.2252
 6991SOL     OW21871   5.684   3.934   6.407  0.0697 -0.1136 -0.6454
 6991SOL    HW121872   5.629   4.017   6.399 -1.7282 -1.0397  1.1829
 6991SOL    HW221873   5.623   3.855   6.418  1.7744 -1.3470  0.2974
 6992SOL     OW21874   5.312   6.939   6.663  0.0726  0.0434 -0.4407
 6992SOL    HW121875   5.245   6.981   6.725  0.2820  1.0349 -0.8640
 6992SOL    HW221876   5.382   7.007   6.640  1.8568 -1.2629  0.8555
 6993SOL     OW21877   5.463   6.024   2.266 -0.4293 -0.1812 -0.1682
 6993SOL    HW121878   5.536   6.038   2.199 -1.2081  2.2484 -0.6268
 6993SOL    HW221879   5.491   6.064   2.353 -0.8577 -0.0119 -0.1072
 6994SOL     OW21880   1.483   2.291   1.502  0.5734  0.4878 -0.4413
 6994SOL    HW121881   1.484   2.358   1.575  0.3885  0.0451 -0.0278
 6994SOL    HW221882   1.529   2.207   1.532 -3.1687 -1.3273  0.7671
 6995SOL     OW21883   0.084   2.983   6.011 -0.5990 -0.0491  1.0400
 6995SOL    HW121884   0.107   2.970   6.107  0.1285 -1.6019  0.6822
 6995SOL    HW221885   0.090   2.896   5.963 -1.3088  0.6373 -0.3504
 6996SOL     OW21886   2.798   0.217   6.177 -0.0998 -0.3154  0.3541
 6996SOL    HW121887   2.699   0.218   6.193 -0.4812 -2.4063 -1.3536
 6996SOL    HW221888   2.825   0.127   6.143  2.5670 -0.0590  1.5818
 6997SOL     OW21889   1.752   6.072   6.343 -0.1602  0.2894  0.7076
 6997SOL    HW121890   1.745   6.077   6.243  0.0151  3.7373  0.7310
 6997SOL    HW221891   1.670   6.029   6.380 -1.4256  1.2254 -0.8512
 6998SOL     OW21892   1.092   0.517   0.038 -0.5913  0.2167  0.0983
 6998SOL    HW121893   1.171   0.483  -0.013 -1.1873  0.3967 -0.9799
 6998SOL    HW221894   1.117   0.531   0.134  0.7425  0.4654 -0.2660
 6999SOL     OW21895   0.669   3.096   5.875  0.0948 -0.0247  0.2382
 6999SOL    HW121896   0.636   3.143   5.957 -1.3511  0.6733 -0.6742
 6999SOL    HW221897   0.659   2.997   5.886 -0.5559  0.0873  0.7362
 7000SOL     OW21898   0.091   0.118   0.260  0.3507  0.1138  0.2436
 7000SOL    HW121899   0.093   0.134   0.359 -0.5833 -0.7627  0.4228
 7000SOL    HW221900  -0.004   0.109   0.230  0.6872 -1.4855 -0.4080
 7001SOL     OW21901   1.053   3.394   6.682  0.5076  1.2560  0.1727
 7001SOL    HW121902   1.091   3.447   6.607 -0.5359  1.4643 -0.2190
 7001SOL    HW221903   1.122   3.382   6.753  2.0954 -0.4084 -1.5401
 7002SOL     OW21904   2.040   0.596   4.701 -0.1089  0.0214  0.3081
 7002SOL    HW121905   2.106   0.524   4.677  0.3062 -0.0820  1.6936
 7002SOL    HW221906   2.079   0.685   4.678 -0.3158 -0.1444 -0.7215
 7003SOL     OW21907   3.240   6.991   2.072  0.5123  0.1634 -0.0462
 7003SOL    HW121908   3.205   6.916   2.015 -1.6973 -0.0589  1.4793
 7003SOL    HW221909   3.197   6.988   2.162  1.3801  2.5018  0.5269
 7004SOL     OW21910   6.406   0.700   1.977 -0.2968  0.7507  0.2685
 7004SOL    HW121911   6.473   0.744   2.037 -1.9731 -0.3990  3.2168
 7004SOL    HW221912   6.324   0.757   1.972  0.0990  1.2192 -1.7063
 7005SOL     OW21913   0.570   0.415   2.334  0.0976  0.2591 -0.0422
 7005SOL    HW121914   0.513   0.357   2.391  1.3277 -0.3642  0.5702
 7005SOL    HW221915   0.511   0.467   2.271 -1.0835 -0.8800  0.0829
 7006SOL     OW21916   4.505   4.746   5.219  0.1250  1.1794  0.0206
 7006SOL    HW121917   4.513   4.784   5.127 -2.7918 -0.0903 -0.8677
 7006SOL    HW221918   4.597   4.734   5.258  1.4620  1.7219 -2.7087
 7007SOL     OW21919   3.218   0.611   5.070 -0.4876 -0.3360  0.0162
 7007SOL    HW121920   3.253   0.622   4.978 -1.7313 -0.3225 -0.4756
 7007SOL    HW221921   3.180   0.519   5.081 -0.5313 -0.2702  0.4493
 7008SOL     OW21922   1.501   2.810   3.402  0.2876  0.3687  0.4898
 7008SOL    HW121923   1.499   2.738   3.332  1.5673 -0.1047  0.9135
 7008SOL    HW221924   1.451   2.890   3.369 -0.4124 -0.3915 -0.3463
 7009SOL     OW21925   3.998   1.018   3.323 -0.4065  0.1423  0.0096
 7009SOL    HW121926   4.005   1.116   3.308 -2.9941  0.5363  0.8587
 7009SOL    HW221927   4.053   0.969   3.255 -0.3825  2.1220 -1.4586
 7010SOL     OW21928   0.362   3.512   2.136 -0.4078  0.2015  0.1186
 7010SOL    HW121929   0.388   3.422   2.172  0.4978  0.7623  0.8846
 7010SOL    HW221930   0.263   3.515   2.124 -0.3934 -1.1223 -0.5466
 7011SOL     OW21931   4.716   0.090   6.088  0.9685 -0.1746 -0.1821
 7011SOL    HW121932   4.683   0.181   6.112  0.6046 -0.6368  1.2080
 7011SOL    HW221933   4.691   0.068   5.994  0.0057  0.6861 -0.1417
 7012SOL     OW21934   0.798   1.380   0.784  0.5997  0.3059 -0.5910
 7012SOL    HW121935   0.755   1.464   0.818  1.2816  0.2260  0.5000
 7012SOL    HW221936   0.878   1.403   0.730  1.5767  0.3555  0.8194
 7013SOL     OW21937   6.652   5.628   5.987  0.0355 -0.2879 -0.2727
 7013SOL    HW121938   6.578   5.578   5.944  0.0132 -0.0648 -0.4985
 7013SOL    HW221939   6.627   5.725   5.995  0.1487 -0.2801 -0.0074
 7014SOL     OW21940   5.454   3.600   0.132 -0.6462 -0.0844  0.7009
 7014SOL    HW121941   5.356   3.618   0.117 -0.8447 -0.9130  0.9567
 7014SOL    HW221942   5.466   3.556   0.221  0.2015  2.0401  1.7042
 7015SOL     OW21943   3.804   4.242   1.238 -0.2125  0.0958  0.0147
 7015SOL    HW121944   3.794   4.152   1.194 -0.0233  0.3482 -0.5609
 7015SOL    HW221945   3.893   4.248   1.282 -1.0705 -0.8092  1.9928
 7016SOL     OW21946   3.287   3.053   1.694 -0.3599 -0.0551  0.0893
 7016SOL    HW121947   3.300   2.970   1.749 -1.3709  0.4193  1.0671
 7016SOL    HW221948   3.311   3.133   1.749 -0.4397  0.3756 -0.4973
 7017SOL     OW21949   3.206   6.070   3.987 -0.3960  0.0831  0.5969
 7017SOL    HW121950   3.144   5.997   4.014 -0.6177  0.7478  1.9714
 7017SOL    HW221951   3.156   6.156   3.980 -0.0039  0.2570 -0.3343
 7018SOL     OW21952   4.335   4.702   4.025 -0.2704  0.2481 -0.0946
 7018SOL    HW121953   4.348   4.755   4.109 -0.0998 -0.0776  0.0872
 7018SOL    HW221954   4.384   4.615   4.033  1.0869  0.8824 -1.1851
 7019SOL     OW21955   2.660   3.750   0.701 -0.7410 -0.4261 -0.0679
 7019SOL    HW121956   2.674   3.654   0.723  0.0886 -0.9344 -2.4570
 7019SOL    HW221957   2.613   3.796   0.776  1.0526 -2.0836  2.1993
 7020SOL     OW21958   5.831   4.961   4.964 -0.2723  0.0062 -0.0290
 7020SOL    HW121959   5.824   5.049   5.011  2.7931 -0.2094  1.0321
 7020SOL    HW221960   5.745   4.912   4.972 -1.9428  2.6758 -0.2764
 7021SOL     OW21961   1.573   2.578   5.795 -0.2446 -0.1571 -0.4186
 7021SOL    HW121962   1.600   2.667   5.831  1.0898 -1.1180  1.1402
 7021SOL    HW221963   1.652   2.534   5.752 -0.1801 -1.5535  1.0069
 7022SOL     OW21964   5.691   0.333   0.064  0.0580  0.7791 -0.3524
 7022SOL    HW121965   5.773   0.282   0.039  0.3324  0.5786  0.8698
 7022SOL    HW221966   5.638   0.281   0.131  0.8386  2.4590  1.6850
 7023SOL     OW21967   0.560   2.330   1.597 -0.4555 -0.1423  0.3769
 7023SOL    HW121968   0.623   2.401   1.629  0.7851 -0.5434 -1.0644
 7023SOL    HW221969   0.467   2.365   1.602  0.1180  1.6135 -0.3222
 7024SOL     OW21970   2.982   3.235   4.259 -0.5248  0.8047 -0.2342
 7024SOL    HW121971   3.040   3.203   4.334  0.9507  0.8535 -1.2882
 7024SOL    HW221972   2.888   3.245   4.290 -0.4133 -1.3907  0.9929
 7025SOL     OW21973   5.587   0.289   2.025  1.3014 -0.2227  0.4513
 7025SOL    HW121974   5.551   0.372   2.066  2.0834 -0.3122  1.3608
 7025SOL    HW221975   5.512   0.236   1.984  0.6980  0.5287  0.5754
 7026SOL     OW21976   3.442   1.727   0.743  0.3390 -0.0839  0.6171
 7026SOL    HW121977   3.469   1.662   0.673  1.3321 -0.0222  0.9217
 7026SOL    HW221978   3.461   1.689   0.834 -0.7999 -0.1093  0.8628
 7027SOL     OW21979   1.386   6.108   5.229 -0.3057  0.3367 -0.0563
 7027SOL    HW121980   1.327   6.083   5.306 -0.9036  1.1606 -0.2427
 7027SOL    HW221981   1.378   6.038   5.157 -0.8849  0.3216  0.0150
 7028SOL     OW21982   3.158   0.769   4.411 -0.4566  0.4458  0.5128
 7028SOL    HW121983   3.163   0.671   4.388 -0.5790  0.4543  0.4502
 7028SOL    HW221984   3.066   0.791   4.442 -0.4191  0.5348  0.5617
 7029SOL     OW21985   4.417   3.252   5.543 -0.6841 -0.6732  0.9726
 7029SOL    HW121986   4.341   3.252   5.478  1.4787 -0.7646 -1.7521
 7029SOL    HW221987   4.465   3.339   5.537 -1.3850  0.0183  3.8343
 7030SOL     OW21988   0.234   6.887   6.832 -0.1633 -0.1431  0.8531
 7030SOL    HW121989   0.181   6.844   6.905  1.2373 -1.3743  1.2170
 7030SOL    HW221990   0.210   6.846   6.744 -1.3179  0.8170  0.7011
 7031SOL     OW21991   3.753   5.750   1.180  0.3303 -0.3426 -0.7229
 7031SOL    HW121992   3.753   5.779   1.276  2.0721  0.1983 -0.8594
 7031SOL    HW221993   3.668   5.701   1.160 -0.5302  0.4537  0.8121
 7032SOL     OW21994   3.700   1.715   3.601 -0.4030  0.1441 -0.4589
 7032SOL    HW121995   3.795   1.689   3.585 -0.4880  0.0017 -0.7416
 7032SOL    HW221996   3.674   1.691   3.695  0.7344  2.8924  0.6761
 7033SOL     OW21997   0.386   1.559   0.336 -0.2274 -0.1252 -0.5321
 7033SOL    HW121998   0.477   1.525   0.316  0.6003  2.1855 -1.0323
 7033SOL    HW221999   0.359   1.531   0.428  1.1895 -0.4648 -0.2028
 7034SOL     OW22000   0.619   1.051   3.052 -0.2196  0.0198 -0.3418
 7034SOL    HW122001   0.622   1.132   2.994 -0.0939  0.1438 -0.1615
 7034SOL    HW222002   0.558   0.982   3.011  1.7554 -0.8838 -1.8796
 7035SOL     OW22003   1.491   0.967   6.370 -0.0780  0.3569  0.8901
 7035SOL    HW122004   1.575   0.913   6.367 -0.2875  0.0472  0.4619
 7035SOL    HW222005   1.442   0.949   6.455  0.4309  0.7650  1.2798
 7036SOL     OW22006   5.629   1.994   1.763  0.3702 -0.1828  0.0706
 7036SOL    HW122007   5.577   2.050   1.699 -0.0598  0.0423  0.6076
 7036SOL    HW222008   5.628   2.037   1.854 -1.2388 -1.7848  0.8827
 7037SOL     OW22009   0.509   0.558   6.058  0.1069  0.4737 -0.7168
 7037SOL    HW122010   0.591   0.600   6.097 -0.0606  1.1783 -1.1199
 7037SOL    HW222011   0.436   0.558   6.127  0.2810  0.3276 -0.5317
 7038SOL     OW22012   3.163   3.064   5.479  0.8101 -0.0361 -0.7699
 7038SOL    HW122013   3.106   3.027   5.405  1.3081 -1.3022 -0.5434
 7038SOL    HW222014   3.135   3.158   5.499 -0.2986 -0.1805 -1.5685
 7039SOL     OW22015   0.184   7.010   2.047  0.0583  0.2087  0.3104
 7039SOL    HW122016   0.103   6.965   2.011  1.1767 -0.8951 -0.9779
 7039SOL    HW222017   0.162   7.104   2.074 -1.4121  0.2609 -0.9668
 7040SOL     OW22018   0.265   3.792   5.867  0.4036  0.0234  0.2150
 7040SOL    HW122019   0.308   3.748   5.788 -1.6715 -2.5853  0.4059
 7040SOL    HW222020   0.279   3.735   5.948 -1.6279  0.1272  0.6786
 7041SOL     OW22021   6.702   2.414   3.230  0.3588  0.2721 -0.4382
 7041SOL    HW122022   6.684   2.491   3.292 -1.4183 -0.7717  0.4166
 7041SOL    HW222023   6.775   2.357   3.269  0.0358  0.2392  0.1356
 7042SOL     OW22024   3.181   0.022   3.915 -0.2767 -0.1582 -0.3446
 7042SOL    HW122025   3.259   0.006   3.854 -1.1778 -0.8825 -1.3503
 7042SOL    HW222026   3.186   0.116   3.951  2.0752 -0.7811  1.1837
 7043SOL     OW22027   0.979   5.819   3.551  0.3965 -0.1265  0.0997
 7043SOL    HW122028   0.889   5.804   3.511  1.2806 -2.6221 -1.1354
 7043SOL    HW222029   1.042   5.853   3.480  1.1909 -1.4811  0.1256
 7044SOL     OW22030   4.671   5.074   5.592 -0.0146  0.2657  0.1110
 7044SOL    HW122031   4.694   5.004   5.524 -0.8353  2.7573 -2.9952
 7044SOL    HW222032   4.751   5.131   5.610 -0.1010  0.3289  0.3039
 7045SOL     OW22033   5.049   4.809   6.950 -0.4844  0.0794 -0.0489
 7045SOL    HW122034   4.976   4.849   6.894  0.6615  0.1278 -1.5541
 7045SOL    HW222035   5.095   4.882   7.001 -0.3435  0.2928 -0.4742
 7046SOL     OW22036   3.168   0.512   4.319 -0.2710  0.2489 -0.1439
 7046SOL    HW122037   3.087   0.466   4.357 -0.5981  0.9731  0.0543
 7046SOL    HW222038   3.139   0.571   4.244  0.1647  0.0491 -0.4705
 7047SOL     OW22039   0.657   6.457   2.224 -0.7914 -0.0212  0.6698
 7047SOL    HW122040   0.625   6.544   2.262 -0.4681 -0.2345  1.4520
 7047SOL    HW222041   0.578   6.399   2.203 -1.0201  0.5270 -0.0559
 7048SOL     OW22042   5.906   4.977   5.270 -0.2301 -0.5899 -0.3548
 7048SOL    HW122043   5.942   4.979   5.363 -1.2586 -1.8581  0.0794
 7048SOL    HW222044   5.964   4.919   5.213  0.3479  0.1168 -0.5146
 7049SOL     OW22045   5.761   2.774   6.639  0.0961 -0.0355  0.2610
 7049SOL    HW122046   5.724   2.791   6.731  0.6750 -0.3586  0.5582
 7049SOL    HW222047   5.776   2.861   6.592 -2.3166  0.1179 -0.4025
 7050SOL     OW22048   3.992   1.670   1.949  0.2699  0.4056  0.3944
 7050SOL    HW122049   4.073   1.632   1.996 -0.3207 -0.5489  0.6772
 7050SOL    HW222050   3.941   1.596   1.906  0.1599  1.1438 -0.7746
 7051SOL     OW22051   1.577   6.863   1.624 -0.1619 -0.2893  0.3266
 7051SOL    HW122052   1.653   6.922   1.596 -1.0924  0.9742  0.3533
 7051SOL    HW222053   1.608   6.768   1.630  1.6303  0.3041  1.1856
 7052SOL     OW22054   6.709   1.223   3.882  0.1847  0.1510 -0.0681
 7052SOL    HW122055   6.786   1.268   3.927  0.0954 -0.4267  0.6945
 7052SOL    HW222056   6.656   1.289   3.829  1.4445  0.4849 -0.9585
 7053SOL     OW22057   3.029   1.920   3.058 -0.4467 -0.7054 -0.8476
 7053SOL    HW122058   2.957   1.850   3.058  1.2801 -2.6675  1.3144
 7053SOL    HW222059   3.100   1.894   2.992  0.3192 -1.1779  0.1390
 7054SOL     OW22060   6.440   6.497   1.691  0.1048  0.0446 -0.1400
 7054SOL    HW122061   6.520   6.490   1.632  0.6277  0.7878  0.4635
 7054SOL    HW222062   6.466   6.476   1.785 -0.1351  1.4711  0.2623
 7055SOL     OW22063   2.412   0.940   0.570 -0.4939  0.2375  0.1512
 7055SOL    HW122064   2.372   0.856   0.534 -0.1503  1.1344 -2.4833
 7055SOL    HW222065   2.500   0.920   0.613 -0.1168 -0.6633 -1.0216
 7056SOL     OW22066   5.935   5.691   1.471  0.0134  0.8614 -0.0520
 7056SOL    HW122067   5.892   5.601   1.462 -0.2998  1.0384 -0.3447
 7056SOL    HW222068   5.895   5.754   1.405  2.0665  0.5312 -1.7339
 7057SOL     OW22069   4.205   6.224   3.669  0.0378  0.4576  0.7628
 7057SOL    HW122070   4.250   6.186   3.588 -0.6625 -0.5422  0.8228
 7057SOL    HW222071   4.227   6.167   3.748  1.1988  1.7594  1.4201
 7058SOL     OW22072   4.540   1.494   0.064  0.1568 -0.1054 -0.2977
 7058SOL    HW122073   4.543   1.435   0.145 -0.2227  0.1198 -0.1157
 7058SOL    HW222074   4.586   1.580   0.085 -0.5408  0.2233 -0.0945
 7059SOL     OW22075   1.092   6.193   4.971 -0.1600 -0.4799  0.8117
 7059SOL    HW122076   1.089   6.289   5.001  0.0282 -0.5350  1.0135
 7059SOL    HW222077   1.063   6.134   5.046 -0.7262 -0.5517  0.5384
 7060SOL     OW22078   5.571   0.365   6.845 -0.4162  0.6561  0.1351
 7060SOL    HW122079   5.516   0.282   6.849 -1.4886  1.3996  1.7466
 7060SOL    HW222080   5.617   0.380   6.932  2.2807  0.1796 -1.0914
 7061SOL     OW22081   0.078   3.413   1.759 -0.6642  0.3848 -0.4346
 7061SOL    HW122082   0.104   3.412   1.663 -1.0739  1.6372 -0.5820
 7061SOL    HW222083   0.038   3.503   1.782 -0.8269  0.0129  0.8280
 7062SOL     OW22084   4.652   1.811   4.342 -0.1609  0.2087  0.6163
 7062SOL    HW122085   4.727   1.877   4.349  1.2200 -0.9012 -2.1813
 7062SOL    HW222086   4.573   1.854   4.298  0.0279  0.5132  0.5711
 7063SOL     OW22087   6.914   0.478   2.342  0.6071 -0.0501  0.1903
 7063SOL    HW122088   6.837   0.441   2.394  1.5387 -0.2763  1.4521
 7063SOL    HW222089   6.980   0.520   2.405  1.7072 -0.2126 -0.8151
 7064SOL     OW22090   2.753   2.967   0.974 -0.0804  0.0110  0.0772
 7064SOL    HW122091   2.739   2.871   0.950  0.8088 -0.3644  0.9549
 7064SOL    HW222092   2.665   3.012   0.986 -0.5420 -1.1932  1.5218
 7065SOL     OW22093   3.827   3.292   4.338 -0.3857 -0.0331 -0.9027
 7065SOL    HW122094   3.917   3.333   4.349 -0.2226 -0.5660 -0.1486
 7065SOL    HW222095   3.771   3.313   4.418 -0.3728 -1.0607 -0.6061
 7066SOL     OW22096   4.328   0.942   0.431 -0.2415  0.7788 -0.7041
 7066SOL    HW122097   4.289   1.015   0.375  1.5918  1.6629 -0.8773
 7066SOL    HW222098   4.274   0.859   0.418 -1.2323  1.5726 -1.9718
 7067SOL     OW22099   5.396   3.761   4.562 -0.4414  0.2119  0.0122
 7067SOL    HW122100   5.398   3.680   4.504 -0.2136 -1.2418  1.9588
 7067SOL    HW222101   5.398   3.843   4.505  0.9540 -1.1241 -1.9863
 7068SOL     OW22102   6.192   3.734   5.421 -0.4095 -0.4746  0.0396
 7068SOL    HW122103   6.140   3.682   5.489  0.0649 -0.7292  0.2070
 7068SOL    HW222104   6.288   3.706   5.423 -0.4061 -0.5524 -0.7932
 7069SOL     OW22105   6.252   2.195   5.002 -0.3057  0.1490 -0.2059
 7069SOL    HW122106   6.171   2.140   5.025 -0.5749 -0.2037 -1.8010
 7069SOL    HW222107   6.327   2.133   4.978  0.0993  0.4832  0.1989
 7070SOL     OW22108   0.368   6.111   4.469  0.1494 -0.2456  0.4532
 7070SOL    HW122109   0.374   6.055   4.551  0.5766  0.6848  1.0695
 7070SOL    HW222110   0.454   6.104   4.417  0.5110  0.4515  0.9448
 7071SOL     OW22111   1.746   6.174   1.053  0.1001 -0.0285 -0.2596
 7071SOL    HW122112   1.714   6.202   0.963 -1.3551  0.4820  0.3853
 7071SOL    HW222113   1.704   6.087   1.078  0.7189 -0.3127 -0.1761
 7072SOL     OW22114   1.031   6.249   0.095 -0.2285  0.2041  0.1082
 7072SOL    HW122115   1.059   6.305   0.174  0.2109  0.9003 -0.5330
 7072SOL    HW222116   1.070   6.287   0.012 -0.7773 -0.4703 -0.4665
 7073SOL     OW22117   5.487   0.435   2.661 -0.1387  0.1160  0.0778
 7073SOL    HW122118   5.525   0.382   2.586  0.4347 -0.2153  0.5925
 7073SOL    HW222119   5.407   0.487   2.629  0.5101  0.5199 -0.9217
 7074SOL     OW22120   0.184   4.313   1.717 -0.6589 -0.2689  0.3060
 7074SOL    HW122121   0.196   4.216   1.694  0.0254 -0.1873  0.3273
 7074SOL    HW222122   0.231   4.370   1.650  0.2154  0.0072  1.1332
 7075SOL     OW22123   0.208   4.993   4.836 -0.1158  0.0823  0.1328
 7075SOL    HW122124   0.273   5.054   4.793  3.0773 -1.4519  2.3883
 7075SOL    HW222125   0.217   4.901   4.797  0.1627 -0.4642  1.4161
 7076SOL     OW22126   4.922   2.824   0.623 -0.2498 -0.1634  0.2687
 7076SOL    HW122127   4.827   2.824   0.593 -0.0902 -3.1663 -0.5901
 7076SOL    HW222128   4.974   2.758   0.568  1.8633 -0.1225  2.0856
 7077SOL     OW22129   1.855   3.071   5.007  0.4237  0.1447 -0.2958
 7077SOL    HW122130   1.950   3.054   4.979 -0.1124 -2.9680 -0.6277
 7077SOL    HW222131   1.849   3.076   5.106  1.0050  1.1376 -0.2982
 7078SOL     OW22132   6.101   3.810   0.616  0.3815 -0.0340  0.1737
 7078SOL    HW122133   6.067   3.717   0.606  0.7223 -0.2668  1.0610
 7078SOL    HW222134   6.199   3.807   0.635  0.4827  0.5287 -0.2446
 7079SOL     OW22135   0.014   5.571   4.320 -0.5515 -0.4139  0.1327
 7079SOL    HW122136   0.052   5.663   4.313 -1.4874 -0.0281 -0.0343
 7079SOL    HW222137   0.064   5.519   4.389 -0.1779  0.3022  0.4058
 7080SOL     OW22138   4.391   1.624   3.494  0.3383 -0.0576 -0.2374
 7080SOL    HW122139   4.409   1.599   3.589  0.3275 -0.3310 -0.3068
 7080SOL    HW222140   4.477   1.639   3.447  0.3321  0.8968  0.0288
 7081SOL     OW22141   0.281   5.909   1.296  0.0974 -0.4637 -0.6405
 7081SOL    HW122142   0.335   5.984   1.335 -0.5194 -0.0752 -0.5183
 7081SOL    HW222143   0.302   5.824   1.345  0.1115 -0.1851 -0.1484
 7082SOL     OW22144   0.250   5.210   0.595 -0.2422 -0.3126  0.3470
 7082SOL    HW122145   0.311   5.248   0.525 -2.5003  0.9930 -1.0174
 7082SOL    HW222146   0.239   5.276   0.669 -0.8319 -0.0998  0.0699
 7083SOL     OW22147   1.481   6.914   2.772 -0.1969 -0.9049 -0.3319
 7083SOL    HW122148   1.558   6.973   2.751 -0.3544 -0.2592  0.8259
 7083SOL    HW222149   1.395   6.963   2.755 -0.3374 -1.1621 -0.3724
 7084SOL     OW22150   2.402   5.798   0.615 -0.0615 -0.4900  0.0752
 7084SOL    HW122151   2.423   5.737   0.538  0.6793  0.9639 -0.9232
 7084SOL    HW222152   2.475   5.791   0.683  0.1641 -0.5140 -0.1663
 7085SOL     OW22153   6.790   2.616   0.648 -0.5239 -0.0108  0.6824
 7085SOL    HW122154   6.730   2.678   0.599 -1.0185 -0.1032  1.1635
 7085SOL    HW222155   6.881   2.657   0.657 -1.2470  1.3782  2.3750
 7086SOL     OW22156   5.272   0.460   0.117 -0.0947 -0.4114  0.2501
 7086SOL    HW122157   5.348   0.515   0.081  0.0844 -1.0665 -0.3932
 7086SOL    HW222158   5.186   0.495   0.080  0.0348 -0.6677 -0.3073
 7087SOL     OW22159   0.599   4.108   2.823  0.0985 -0.7194  0.1791
 7087SOL    HW122160   0.674   4.149   2.874  0.6457 -1.1742 -0.2492
 7087SOL    HW222161   0.532   4.071   2.887  0.3115 -0.4429  0.5654
 7088SOL     OW22162   5.357   1.871   5.192  0.3840  0.0878  0.2408
 7088SOL    HW122163   5.313   1.846   5.278  0.6555  0.1549  0.4027
 7088SOL    HW222164   5.379   1.969   5.193  1.3698 -0.1180  0.5551
 7089SOL     OW22165   1.095   3.789   3.150  0.4378  0.2710  0.1569
 7089SOL    HW122166   1.122   3.793   3.054  0.8509  1.1651  0.2958
 7089SOL    HW222167   1.006   3.833   3.162 -0.5148 -1.5071 -0.0925
 7090SOL     OW22168   3.108   1.874   1.386  0.7066 -0.0761 -0.0304
 7090SOL    HW122169   3.034   1.939   1.404  1.3162  0.9462 -1.0828
 7090SOL    HW222170   3.196   1.919   1.404  1.1196 -0.8072 -0.2134
 7091SOL     OW22171   6.636   1.162   0.255  0.0585  0.3545 -0.3005
 7091SOL    HW122172   6.536   1.170   0.265  0.0836  1.3499 -0.6844
 7091SOL    HW222173   6.657   1.106   0.175 -0.1567 -2.0372  1.2164
 7092SOL     OW22174   5.293   1.959   6.720 -0.3655  0.5190 -0.3709
 7092SOL    HW122175   5.370   1.898   6.703 -1.2727 -0.9778  0.6104
 7092SOL    HW222176   5.210   1.905   6.735 -1.5423  2.0641 -0.9753
 7093SOL     OW22177   3.217   3.096   2.042 -0.0877  0.3378  0.6104
 7093SOL    HW122178   3.121   3.124   2.036 -0.7257 -1.8863 -0.4398
 7093SOL    HW222179   3.268   3.134   1.966  0.1134  2.2273  1.6257
 7094SOL     OW22180   5.931   5.302   4.917  0.1618 -0.2243  0.4727
 7094SOL    HW122181   6.005   5.365   4.942 -0.9233  0.9377  0.9052
 7094SOL    HW222182   5.942   5.273   4.823 -0.3550  2.2285 -0.4302
 7095SOL     OW22183   5.479   4.839   0.087 -0.5234 -0.1984  0.0558
 7095SOL    HW122184   5.557   4.895   0.059 -1.2164  0.9340  0.3329
 7095SOL    HW222185   5.512   4.753   0.127  0.6705  1.2198  2.3122
 7096SOL     OW22186   4.410   0.001   2.472 -0.2047 -0.5027  0.2786
 7096SOL    HW122187   4.399   0.090   2.427  2.2284 -1.0544 -1.6420
 7096SOL    HW222188   4.376   0.007   2.566  1.9879  3.1928  1.0361
 7097SOL     OW22189   5.682   1.666   2.371  0.3986  0.2168 -0.9947
 7097SOL    HW122190   5.593   1.622   2.385  2.3280 -4.6032 -2.1443
 7097SOL    HW222191   5.688   1.699   2.277 -0.5973  1.9545 -0.4934
 7098SOL     OW22192   0.854   6.232   6.301 -0.4975 -0.1708  0.0069
 7098SOL    HW122193   0.866   6.290   6.220 -0.1774 -1.1308 -0.6478
 7098SOL    HW222194   0.944   6.214   6.342 -0.7753  1.5596  1.4967
 7099SOL     OW22195   2.846   1.683   5.550 -0.3186  0.7844 -0.6914
 7099SOL    HW122196   2.894   1.619   5.610 -2.1731  0.1950  0.2159
 7099SOL    HW222197   2.905   1.762   5.532  0.1007  1.2701  2.3698
 7100SOL     OW22198   6.607   3.803   0.468 -0.7396 -0.0100 -0.0547
 7100SOL    HW122199   6.540   3.863   0.423 -0.2232  0.2222 -0.5207
 7100SOL    HW222200   6.676   3.858   0.514 -1.0090 -0.2501  0.6614
 7101SOL     OW22201   1.949   0.142   2.924 -0.6395  0.2208 -0.2298
 7101SOL    HW122202   1.865   0.124   2.874 -0.7049  1.0271 -0.4238
 7101SOL    HW222203   2.027   0.113   2.869 -0.7022  1.2134 -0.8809
 7102SOL     OW22204   5.925   1.429   0.588  0.1383  0.3084  0.8320
 7102SOL    HW122205   5.937   1.478   0.502  0.0178  0.3727  0.8519
 7102SOL    HW222206   6.009   1.434   0.642  1.1794 -1.9799 -0.4371
 7103SOL     OW22207   5.995   5.896   0.713  0.8920 -0.5544 -0.0098
 7103SOL    HW122208   5.913   5.952   0.700  0.3816 -0.7408  1.9550
 7103SOL    HW222209   6.075   5.949   0.687  0.1420 -0.8485 -3.3091
 7104SOL     OW22210   6.562   5.763   0.650 -0.1093 -0.3373  0.3243
 7104SOL    HW122211   6.626   5.745   0.724 -0.7050 -0.2830  0.8548
 7104SOL    HW222212   6.607   5.819   0.580  0.4950 -0.5068  0.5714
 7105SOL     OW22213   3.471   3.882   3.736  0.4321 -0.4706 -0.3111
 7105SOL    HW122214   3.520   3.827   3.803 -1.4267 -0.4624  1.1182
 7105SOL    HW222215   3.383   3.912   3.774  0.0691  0.9845 -2.1336
 7106SOL     OW22216   4.151   3.193   1.104  0.3519 -0.7904  0.1218
 7106SOL    HW122217   4.141   3.098   1.076 -1.8171 -0.4564 -0.3927
 7106SOL    HW222218   4.162   3.197   1.204  0.8971 -1.5770  0.1035
 7107SOL     OW22219   2.979   0.920   1.274 -0.2388  0.5396 -0.0011
 7107SOL    HW122220   2.939   0.920   1.366 -0.1738  0.3161  0.0282
 7107SOL    HW222221   2.952   1.003   1.226 -0.8101  0.3479 -0.0131
 7108SOL     OW22222   4.073   4.788   3.949  0.5266  0.3908 -0.0557
 7108SOL    HW122223   4.161   4.747   3.971  1.1638  1.8121  0.1733
 7108SOL    HW222224   4.033   4.828   4.031 -1.0579 -1.5022  0.1522
 7109SOL     OW22225   0.719   6.044   5.882  0.4852  0.1218  0.1924
 7109SOL    HW122226   0.709   6.026   5.980 -0.7330 -1.5535 -0.1998
 7109SOL    HW222227   0.665   5.978   5.830  1.1556  0.9390 -1.6296
 7110SOL     OW22228   2.274   4.345   4.409  0.1283  0.4792  0.0745
 7110SOL    HW122229   2.246   4.380   4.320 -1.2731 -0.9284 -0.0987
 7110SOL    HW222230   2.298   4.420   4.469  0.6812  1.4796 -1.3552
 7111SOL     OW22231   1.278   2.274   4.995  0.1797  0.2245  0.2828
 7111SOL    HW122232   1.184   2.307   5.000 -0.0030 -0.0518 -0.9102
 7111SOL    HW222233   1.278   2.178   4.968  0.8245  0.6264 -1.2584
 7112SOL     OW22234   2.048   5.628   5.423 -0.4652  0.0489 -0.5599
 7112SOL    HW122235   1.957   5.663   5.398  0.5240  2.8183 -0.6191
 7112SOL    HW222236   2.112   5.704   5.430  1.7928 -1.7892 -0.0791
 7113SOL     OW22237   4.054   3.153   3.753  0.2257 -0.2815  0.0710
 7113SOL    HW122238   4.038   3.074   3.694 -0.8622 -0.0349  0.0036
 7113SOL    HW222239   4.058   3.123   3.848  2.7259 -0.7836 -0.1258
 7114SOL     OW22240   4.296   6.528   2.672  0.1139  0.3064 -0.2305
 7114SOL    HW122241   4.302   6.439   2.717 -0.2664  1.2242  1.7615
 7114SOL    HW222242   4.201   6.544   2.644 -0.7938  1.7008  3.1528
 7115SOL     OW22243   5.685   4.687   1.111 -0.0296 -0.3544  0.0089
 7115SOL    HW122244   5.657   4.607   1.164 -1.1578 -0.9500 -1.4071
 7115SOL    HW222245   5.639   4.685   1.022  0.8071  1.2844 -0.4918
 7116SOL     OW22246   5.005   4.576   4.066 -0.3661  0.2544 -0.6823
 7116SOL    HW122247   4.916   4.530   4.061 -1.2584  1.7149  0.7503
 7116SOL    HW222248   4.992   4.675   4.059  0.9384  0.6203  1.2300
 7117SOL     OW22249   0.582   6.926   3.999  0.0129  0.1443 -0.2073
 7117SOL    HW122250   0.531   6.997   4.048 -2.1742 -0.3259 -1.6644
 7117SOL    HW222251   0.576   6.941   3.901  0.0759 -1.6647 -0.5368
 7118SOL     OW22252   2.225   5.452   6.034  0.5824  0.5073  0.2235
 7118SOL    HW122253   2.312   5.472   5.988 -0.0848 -0.2064 -1.4511
 7118SOL    HW222254   2.181   5.374   5.989 -0.4503  0.2019  1.6947
 7119SOL     OW22255   3.303   0.533   6.137 -0.4345 -0.4210 -0.2195
 7119SOL    HW122256   3.382   0.481   6.170 -0.9048 -0.8927  0.1936
 7119SOL    HW222257   3.276   0.499   6.047  0.3183  0.2827 -0.7251
 7120SOL     OW22258   3.745   2.034   1.793  0.2406 -0.0518 -0.2967
 7120SOL    HW122259   3.654   2.013   1.757  1.0476 -1.9210 -1.4426
 7120SOL    HW222260   3.740   2.114   1.853 -1.9057  0.6752 -1.3359
 7121SOL     OW22261   1.066   6.226   4.083  0.0130  0.9575  0.2045
 7121SOL    HW122262   1.056   6.180   4.171  0.2003  0.4648 -0.0276
 7121SOL    HW222263   1.075   6.158   4.010 -0.8806  1.3525 -0.2896
 7122SOL     OW22264   1.146   0.746   5.410  0.3238  0.0611  0.3538
 7122SOL    HW122265   1.092   0.685   5.468  0.9809 -0.8511  0.0279
 7122SOL    HW222266   1.088   0.819   5.375 -0.3533 -0.0576  1.1963
 7123SOL     OW22267   1.279   4.588   5.268  0.6121 -0.2415  0.0848
 7123SOL    HW122268   1.260   4.536   5.185 -1.0237 -1.1543  0.9728
 7123SOL    HW222269   1.358   4.647   5.253 -0.3508  0.5478 -2.5387
 7124SOL     OW22270   3.005   2.880   1.690 -0.1329  0.2180 -0.0698
 7124SOL    HW122271   3.071   2.878   1.765 -0.2867 -0.0414  0.0625
 7124SOL    HW222272   3.020   2.960   1.633  0.4117  0.0681 -0.1402
 7125SOL     OW22273   2.494   0.556   0.258  0.3418  0.1617 -0.0670
 7125SOL    HW122274   2.585   0.577   0.293  1.0182 -1.9428 -0.4280
 7125SOL    HW222275   2.471   0.461   0.281 -0.7705 -0.0813 -1.9885
 7126SOL     OW22276   3.406   5.484   1.871  0.0685  0.1626  0.2144
 7126SOL    HW122277   3.456   5.503   1.786 -0.4736  1.9589  0.2613
 7126SOL    HW222278   3.450   5.409   1.920  0.7688 -0.4768 -1.3330
 7127SOL     OW22279   2.369   6.233   5.759  0.0922  0.2582 -1.2022
 7127SOL    HW122280   2.318   6.293   5.697  0.8409  0.5955 -1.5028
 7127SOL    HW222281   2.359   6.265   5.853  0.3940  0.7976 -1.3479
 7128SOL     OW22282   3.726   4.892   6.845  0.0191  0.5723  0.0347
 7128SOL    HW122283   3.820   4.915   6.822 -0.1477  2.0715  0.7366
 7128SOL    HW222284   3.720   4.866   6.941 -0.1213 -0.5866 -0.2740
 7129SOL     OW22285   1.070   0.393   1.026 -0.1022 -0.0560 -0.1898
 7129SOL    HW122286   1.038   0.380   0.932 -0.8479  1.3216 -0.1641
 7129SOL    HW222287   1.149   0.455   1.025  0.1388 -0.3572  0.0660
 7130SOL     OW22288   3.972   5.308   3.636 -0.3859 -0.5554  0.1382
 7130SOL    HW122289   3.963   5.262   3.724  2.2271  2.9065  2.5261
 7130SOL    HW222290   4.031   5.255   3.576 -0.0781 -1.7845  1.4803
 7131SOL     OW22291   2.553   0.242   0.875  0.7016 -0.2855 -0.0873
 7131SOL    HW122292   2.593   0.301   0.946 -0.5612 -0.1313  0.5209
 7131SOL    HW222293   2.483   0.184   0.916  0.3869 -0.6447 -1.1098
 7132SOL     OW22294   3.061   4.048   1.920 -0.2026 -0.5881 -0.3761
 7132SOL    HW122295   2.977   4.041   1.974  0.0197 -1.0964 -0.0882
 7132SOL    HW222296   3.117   3.966   1.934 -0.2843 -0.8788 -1.6401
 7133SOL     OW22297   2.542   6.283   4.895 -0.2550  0.0274  0.4475
 7133SOL    HW122298   2.594   6.216   4.947  0.8985  0.1117 -0.5745
 7133SOL    HW222299   2.588   6.303   4.808  1.2116  4.4109  1.9360
 7134SOL     OW22300   5.219   6.631   2.287 -0.5695  0.3951 -0.0922
 7134SOL    HW122301   5.253   6.612   2.380 -1.0541 -0.7518 -0.1367
 7134SOL    HW222302   5.131   6.585   2.274  0.2696 -0.8576 -1.6641
 7135SOL     OW22303   2.219   2.020   4.388  0.3030 -0.1024  0.7854
 7135SOL    HW122304   2.161   2.101   4.385  1.3672  0.7027  0.9954
 7135SOL    HW222305   2.198   1.966   4.469  0.5589  0.7513  1.4380
 7136SOL     OW22306   3.912   1.862   1.501 -0.4774  0.1625  0.4954
 7136SOL    HW122307   3.945   1.768   1.509  2.7935  1.1183 -0.2153
 7136SOL    HW222308   3.909   1.904   1.591  2.5870  0.6383  0.4942
 7137SOL     OW22309   1.614   2.088   1.612 -0.1411  0.6698  0.1605
 7137SOL    HW122310   1.584   2.024   1.682  0.3961 -0.2370 -0.4184
 7137SOL    HW222311   1.602   2.046   1.521  1.0037  1.0521 -0.1785
 7138SOL     OW22312   1.508   1.692   0.356 -0.5941 -0.2118  0.5484
 7138SOL    HW122313   1.537   1.687   0.261  1.1274 -1.3275  1.0928
 7138SOL    HW222314   1.439   1.622   0.373 -1.8110  0.7762 -0.1321
 7139SOL     OW22315   6.589   6.124   1.219 -0.4474 -0.0263 -0.2111
 7139SOL    HW122316   6.493   6.110   1.244 -0.0473 -1.1751  0.7874
 7139SOL    HW222317   6.608   6.078   1.132 -0.2347 -1.9987  0.8271
 7140SOL     OW22318   0.467   2.830   6.135  0.6650 -0.2520  0.2955
 7140SOL    HW122319   0.403   2.867   6.067  0.3734  1.3804  1.3921
 7140SOL    HW222320   0.548   2.795   6.088  0.6142  1.1124 -0.9011
 7141SOL     OW22321   3.172   1.161   0.628 -0.6882 -0.1163 -0.0442
 7141SOL    HW122322   3.082   1.122   0.605 -0.6846 -0.7143  0.8870
 7141SOL    HW222323   3.160   1.241   0.686 -0.6369 -2.2263  3.1573
 7142SOL     OW22324   5.862   0.158   4.203  0.8381  0.6323  0.4599
 7142SOL    HW122325   5.793   0.088   4.224  0.4219  1.1710  0.8981
 7142SOL    HW222326   5.834   0.208   4.121  2.4504 -1.4554 -1.5068
 7143SOL     OW22327   1.590   5.122   0.695 -0.1986  0.0224 -0.4077
 7143SOL    HW122328   1.565   5.026   0.680  0.2371 -0.0671 -0.5724
 7143SOL    HW222329   1.520   5.166   0.751  0.7830 -1.0412  1.7950
 7144SOL     OW22330   6.249   6.626   3.087  0.2919 -0.6394  0.5472
 7144SOL    HW122331   6.260   6.533   3.124  0.7179  0.0454  2.2268
 7144SOL    HW222332   6.286   6.629   2.995  1.8399 -1.7560  1.0858
 7145SOL     OW22333   5.309   0.477   5.523  0.2808  0.0185  0.7801
 7145SOL    HW122334   5.299   0.378   5.508  1.6850  0.2497 -2.9494
 7145SOL    HW222335   5.405   0.497   5.543  0.3295  0.7187 -0.1025
 7146SOL     OW22336   0.651   0.840   1.394 -0.1807  0.0263 -0.3802
 7146SOL    HW122337   0.660   0.802   1.302  0.8532  0.4859 -0.4872
 7146SOL    HW222338   0.608   0.930   1.389  0.8134  0.5126 -0.5503
 7147SOL     OW22339   6.137   5.452   5.412 -0.4262 -0.0423  0.7823
 7147SOL    HW122340   6.063   5.463   5.346 -1.2503  2.1441  1.9521
 7147SOL    HW222341   6.187   5.538   5.421  1.7998 -1.2417  0.6305
 7148SOL     OW22342   6.480   5.979   2.090  0.6534 -0.0938 -0.5377
 7148SOL    HW122343   6.430   5.895   2.111 -0.5069  0.0225 -2.5169
 7148SOL    HW222344   6.418   6.058   2.101  1.2687  0.3481 -0.1898
 7149SOL     OW22345   6.074   3.957   4.079  0.1715  0.0316  0.2333
 7149SOL    HW122346   6.070   3.962   3.980  1.4903  1.7977  0.2323
 7149SOL    HW222347   6.050   3.864   4.109 -0.3028 -0.5003 -1.6978
 7150SOL     OW22348   3.099   3.823   2.332 -0.2631 -0.6094 -0.1148
 7150SOL    HW122349   3.111   3.747   2.268  0.6179 -1.6140  1.1827
 7150SOL    HW222350   3.131   3.907   2.290  0.0668 -1.2095 -1.0931
 7151SOL     OW22351   3.034   5.292   2.462  0.0959 -0.6020  0.1992
 7151SOL    HW122352   3.034   5.206   2.514  0.1073  0.3017  1.7343
 7151SOL    HW222353   3.039   5.369   2.524  0.3864  0.5335 -1.1786
 7152SOL     OW22354   0.117   5.261   0.200 -0.4111 -0.1224  0.7466
 7152SOL    HW122355   0.163   5.185   0.245  1.1411  0.1948 -0.2099
 7152SOL    HW222356   0.132   5.345   0.252  0.5345  0.0661  0.1881
 7153SOL     OW22357   3.771   5.903   1.431 -0.0895 -0.1457 -0.2792
 7153SOL    HW122358   3.820   5.848   1.498 -0.5865 -1.3048 -0.8516
 7153SOL    HW222359   3.756   5.995   1.468 -3.3822 -1.6467  2.6603
 7154SOL     OW22360   4.647   4.427   2.618  0.3811  0.3248 -0.1255
 7154SOL    HW122361   4.669   4.330   2.622 -0.5105  0.1142 -0.1695
 7154SOL    HW222362   4.721   4.477   2.572  0.2790 -0.5066 -1.2101
 7155SOL     OW22363   3.541   2.710   1.431  0.3945  0.0978 -0.7446
 7155SOL    HW122364   3.475   2.739   1.362  0.5842  0.7673 -0.6507
 7155SOL    HW222365   3.556   2.784   1.496  0.5400 -0.3769 -0.2268
 7156SOL     OW22366   5.492   4.428   1.692 -0.5887 -0.2222 -0.8977
 7156SOL    HW122367   5.461   4.488   1.618 -1.2761 -0.7201 -1.0228
 7156SOL    HW222368   5.431   4.439   1.770 -0.0939  0.0111 -0.5423
 7157SOL     OW22369   0.048   5.283   1.306  0.4445  0.0063 -0.3684
 7157SOL    HW122370   0.043   5.198   1.253  1.5290 -1.3003  1.5263
 7157SOL    HW222371  -0.033   5.291   1.364  0.6101  0.0073 -0.1403
 7158SOL     OW22372   0.524   4.674   3.882 -0.2303  0.0178  0.2436
 7158SOL    HW122373   0.523   4.752   3.819  0.1323 -1.5952 -1.8616
 7158SOL    HW222374   0.430   4.644   3.898 -0.3382  0.5560  0.6516
 7159SOL     OW22375   6.440   2.424   4.248 -0.1574  0.0397 -0.4640
 7159SOL    HW122376   6.408   2.424   4.343 -2.0253  0.2623 -1.0538
 7159SOL    HW222377   6.536   2.398   4.245  0.1199  0.6734  1.5449
 7160SOL     OW22378   6.224   5.643   3.740 -0.1520 -0.1869  0.0834
 7160SOL    HW122379   6.277   5.727   3.758  0.0981 -0.5122  0.9436
 7160SOL    HW222380   6.145   5.640   3.801  0.5663 -1.1921  1.0359
 7161SOL     OW22381   2.997   3.549   4.231  0.5747  0.1787  0.1046
 7161SOL    HW122382   3.094   3.569   4.218  1.0561 -2.0413 -0.1176
 7161SOL    HW222383   2.975   3.460   4.190 -1.3758  0.2494  0.8718
 7162SOL     OW22384   1.484   4.071   6.165  0.5576 -0.8051 -0.1521
 7162SOL    HW122385   1.499   3.974   6.147  2.7016 -0.4108 -0.7632
 7162SOL    HW222386   1.521   4.125   6.089 -1.3698  0.4872 -0.2433
 7163SOL     OW22387   2.100   0.333   3.435 -0.2283 -0.3094  0.0502
 7163SOL    HW122388   2.085   0.327   3.337 -0.4491  0.6553  0.0083
 7163SOL    HW222389   2.026   0.386   3.477  1.2357  1.6185  0.3279
 7164SOL     OW22390   2.173   0.331   5.202 -0.2792 -0.0854  0.1442
 7164SOL    HW122391   2.143   0.236   5.194 -0.7700 -0.0816  1.6605
 7164SOL    HW222392   2.094   0.390   5.211 -0.0302  0.6197 -1.7709
 7165SOL     OW22393   6.578   7.017   2.602  0.0279 -0.8661 -0.1995
 7165SOL    HW122394   6.625   7.102   2.580  0.2206  0.1446  3.5003
 7165SOL    HW222395   6.559   6.967   2.518  2.1856  1.5791 -2.3124
 7166SOL     OW22396   5.334   3.934   0.072 -0.5643  1.0440 -0.7462
 7166SOL    HW122397   5.418   3.910   0.119 -1.5263  1.8709  1.5224
 7166SOL    HW222398   5.356   3.989  -0.009  1.1076  0.0730 -0.9999
 7167SOL     OW22399   5.008   2.044   3.483 -0.1977 -0.2810  0.0730
 7167SOL    HW122400   5.099   2.025   3.446 -0.3388 -1.1668  0.1709
 7167SOL    HW222401   5.010   2.037   3.583 -0.7298 -1.9572 -0.0051
 7168SOL     OW22402   2.597   1.748   1.928  0.4341  0.1824  0.3075
 7168SOL    HW122403   2.568   1.796   1.845 -0.7723 -1.3807 -0.2331
 7168SOL    HW222404   2.692   1.718   1.918  0.7981  1.3520  0.1543
 7169SOL     OW22405   0.339   4.414   6.142  0.3360  0.5060  0.7930
 7169SOL    HW122406   0.414   4.479   6.130 -0.4273  1.1951 -0.4528
 7169SOL    HW222407   0.276   4.447   6.212  1.3802 -0.2909  2.1679
 7170SOL     OW22408   5.784   0.597   2.613 -0.5328  0.0206 -0.9538
 7170SOL    HW122409   5.828   0.552   2.535 -1.4423  0.0756 -1.5142
 7170SOL    HW222410   5.712   0.537   2.649 -0.1584  0.0248 -0.2010
 7171SOL     OW22411   5.245   2.629   0.671  0.7530 -0.0296  0.7799
 7171SOL    HW122412   5.186   2.599   0.596  3.1709 -0.4017 -1.0819
 7171SOL    HW222413   5.268   2.551   0.730  3.2003 -1.0390 -1.3241
 7172SOL     OW22414   2.941   1.864   5.291  0.0815  0.1716 -0.3813
 7172SOL    HW122415   2.987   1.835   5.374  0.7632  0.6409 -0.5893
 7172SOL    HW222416   2.970   1.956   5.267  0.2130 -0.1067 -1.3565
 7173SOL     OW22417   6.367   5.618   6.321  0.6156  0.4784 -0.8492
 7173SOL    HW122418   6.451   5.659   6.356  0.1123  0.6277  0.2543
 7173SOL    HW222419   6.388   5.550   6.252  1.7848 -0.8670  0.7547
 7174SOL     OW22420   2.838   5.719   0.494  0.1281 -0.3625 -0.8179
 7174SOL    HW122421   2.774   5.789   0.463  1.0008  0.1311 -1.5538
 7174SOL    HW222422   2.902   5.697   0.421  0.2229 -1.5350 -0.4079
 7175SOL     OW22423   0.925   3.485   5.794  0.5964  0.4477  0.0113
 7175SOL    HW122424   0.848   3.433   5.757  0.3896  0.8375 -0.1196
 7175SOL    HW222425   1.003   3.425   5.808  0.9953  0.4393 -1.9308
 7176SOL     OW22426   6.412   0.724   4.871 -0.1283  0.1730  0.1573
 7176SOL    HW122427   6.497   0.740   4.821  1.3595 -0.7387  2.2476
 7176SOL    HW222428   6.355   0.806   4.866  0.8911  0.8489 -1.2001
 7177SOL     OW22429   2.141   3.949   4.546 -0.1146  0.0442  0.2821
 7177SOL    HW122430   2.150   4.001   4.631  1.6074 -0.7337  0.6036
 7177SOL    HW222431   2.130   3.852   4.567 -0.0592 -0.1127 -0.3783
 7178SOL     OW22432   0.486   0.651   5.317  0.3252  0.6018  0.5055
 7178SOL    HW122433   0.387   0.639   5.312  0.5982 -2.5385  1.0197
 7178SOL    HW222434   0.516   0.646   5.413  1.1658 -0.7227  0.1986
 7179SOL     OW22435   2.504   4.492   4.300 -0.4080 -0.0340  0.0467
 7179SOL    HW122436   2.497   4.408   4.353  1.2736 -0.3044 -0.0998
 7179SOL    HW222437   2.473   4.569   4.355 -3.9979 -0.9135 -0.5144
 7180SOL     OW22438   1.844   2.872   0.191 -0.0059  0.3008  0.3795
 7180SOL    HW122439   1.749   2.896   0.173 -0.2123  0.1778  1.3030
 7180SOL    HW222440   1.892   2.860   0.103 -0.2949  2.4474 -0.1337
 7181SOL     OW22441   3.515   6.547   6.386  0.0941 -0.0919  0.3315
 7181SOL    HW122442   3.562   6.570   6.301 -1.1520 -0.1093 -0.3889
 7181SOL    HW222443   3.535   6.452   6.411  0.2362 -0.1763 -0.0917
 7182SOL     OW22444   0.624   3.476   2.794  0.0786 -0.4781 -0.2136
 7182SOL    HW122445   0.527   3.474   2.817  0.0095 -0.2764 -0.4835
 7182SOL    HW222446   0.637   3.524   2.707  0.4242 -0.4632 -0.1566
 7183SOL     OW22447   2.031   5.300   2.190  0.2372 -0.1340 -0.0083
 7183SOL    HW122448   2.053   5.317   2.286 -1.2046  0.9745  0.1680
 7183SOL    HW222449   1.944   5.345   2.168 -0.0104 -1.2928 -1.5470
 7184SOL     OW22450   6.289   0.972   2.998 -0.3580  0.1208  0.0384
 7184SOL    HW122451   6.246   0.989   3.086 -0.9165 -0.2113 -0.1662
 7184SOL    HW222452   6.279   0.875   2.974  0.7678 -0.0295  0.1267
 7185SOL     OW22453   4.425   1.084   4.960  0.1690 -0.1125 -0.9293
 7185SOL    HW122454   4.464   1.166   5.001 -0.1769  0.5683 -1.9142
 7185SOL    HW222455   4.418   1.012   5.029  1.7740  0.2178 -0.3818
 7186SOL     OW22456   6.856   1.225   2.291 -0.1698  0.2569  0.0828
 7186SOL    HW122457   6.917   1.304   2.296  0.5755 -0.3295  0.3685
 7186SOL    HW222458   6.903   1.149   2.246 -0.6570 -0.2212  0.3662
 7187SOL     OW22459   1.657   3.422   5.798 -0.0262 -0.2304 -0.1216
 7187SOL    HW122460   1.704   3.376   5.874 -0.7175 -1.4110 -0.3924
 7187SOL    HW222461   1.724   3.474   5.745  0.9534 -1.6456 -0.3241
 7188SOL     OW22462   4.994   0.527   0.034 -0.1857  0.0571  0.2641
 7188SOL    HW122463   4.962   0.489   0.121 -1.6158  0.7562  0.0717
 7188SOL    HW222464   5.015   0.624   0.045  0.4672 -0.0552  0.0316
 7189SOL     OW22465   5.473   3.856   5.696 -0.4403 -0.2208  0.1811
 7189SOL    HW122466   5.417   3.936   5.674  0.2503  0.4413  0.7486
 7189SOL    HW222467   5.512   3.867   5.788  0.0563 -0.9866  0.0721
 7190SOL     OW22468   0.602   0.745   1.121 -0.4414  0.0572  0.6191
 7190SOL    HW122469   0.676   0.681   1.103 -0.0636  0.8490 -0.8101
 7190SOL    HW222470   0.521   0.718   1.069 -0.5996  0.1859  0.7951
 7191SOL     OW22471   1.222   4.112   3.439 -0.3422 -0.5698  0.5531
 7191SOL    HW122472   1.318   4.101   3.413 -0.9444 -1.2113 -1.5714
 7191SOL    HW222473   1.210   4.084   3.534  1.4544 -1.0854  0.6669
 7192SOL     OW22474   1.611   3.078   5.096 -0.6541  0.2850 -0.3474
 7192SOL    HW122475   1.606   3.136   5.177  0.4450 -1.2897  0.9190
 7192SOL    HW222476   1.704   3.080   5.060 -0.2019 -1.6683  0.5500
 7193SOL     OW22477   2.096   1.808   0.514  0.0061  0.6306  0.1382
 7193SOL    HW122478   2.153   1.764   0.584 -0.1118  1.4552  0.7639
 7193SOL    HW222479   2.153   1.832   0.436  0.1434 -0.2863 -0.0532
 7194SOL     OW22480   4.071   2.256   0.951  0.5400 -0.3769 -0.5083
 7194SOL    HW122481   4.145   2.305   0.904  0.6851  0.6210  0.7010
 7194SOL    HW222482   3.983   2.282   0.912  0.5323  1.6700  0.7470
 7195SOL     OW22483   6.555   4.562   6.053 -0.3081 -0.3630  0.5408
 7195SOL    HW122484   6.566   4.582   6.150  0.8896 -1.6190  0.6920
 7195SOL    HW222485   6.631   4.504   6.022 -0.5872  0.1315 -1.1779
 7196SOL     OW22486   1.612   5.242   6.865 -0.0617 -0.7010 -0.6688
 7196SOL    HW122487   1.543   5.278   6.802 -1.0054  0.7410  1.0781
 7196SOL    HW222488   1.662   5.318   6.906  0.6598 -1.6065  0.1743
 7197SOL     OW22489   1.579   4.150   4.207  0.2989 -0.4266  0.0719
 7197SOL    HW122490   1.522   4.080   4.163  1.6700 -1.5447  0.0144
 7197SOL    HW222491   1.590   4.128   4.304  0.2177  0.0813  0.2024
 7198SOL     OW22492   5.477   1.373   6.993  0.7982 -0.5679 -0.2876
 7198SOL    HW122493   5.435   1.284   7.008 -1.5183  0.1318 -1.9462
 7198SOL    HW222494   5.449   1.436   7.066 -2.2516  0.1985 -1.9312
 7199SOL     OW22495   0.861   6.247   3.152  0.0729  0.3419  0.0162
 7199SOL    HW122496   0.862   6.147   3.150  0.0984  0.3451 -2.7438
 7199SOL    HW222497   0.897   6.279   3.240  0.4037 -2.0467  0.8037
 7200SOL     OW22498   2.094   2.801   6.111  0.2946  0.1638 -0.4000
 7200SOL    HW122499   2.063   2.708   6.092 -1.1962  0.5096  0.2030
 7200SOL    HW222500   2.183   2.816   6.067  0.8394 -1.7171 -0.0347
 7201SOL     OW22501   6.342   3.904   4.042  0.0748  0.5101  0.0030
 7201SOL    HW122502   6.375   3.875   4.132  0.4535 -0.2453 -0.3713
 7201SOL    HW222503   6.243   3.918   4.045  0.2171  1.4419  0.7836
 7202SOL     OW22504   5.414   6.444   6.251 -0.1161 -0.8609  0.0702
 7202SOL    HW122505   5.505   6.414   6.220 -0.0407 -0.7159  0.1523
 7202SOL    HW222506   5.410   6.544   6.252 -1.2270 -0.7943 -2.7991
 7203SOL     OW22507   0.195   6.540   0.974 -0.2896  1.1492 -0.7172
 7203SOL    HW122508   0.286   6.561   0.937 -0.8581  1.0127 -2.2648
 7203SOL    HW222509   0.125   6.575   0.912 -1.2785 -0.1087 -0.3633
 7204SOL     OW22510   6.246   1.766   1.643  0.3798 -0.1152 -0.1360
 7204SOL    HW122511   6.312   1.694   1.623  0.5830 -0.0568  0.3291
 7204SOL    HW222512   6.291   1.855   1.635  0.5487 -0.0972  0.8754
 7205SOL     OW22513   1.374   4.324   6.571  0.0194 -0.9880  0.6442
 7205SOL    HW122514   1.338   4.257   6.506  0.0265 -1.3801  1.0442
 7205SOL    HW222515   1.460   4.290   6.609  1.4897  0.4407 -1.1774
 7206SOL     OW22516   0.421   2.799   0.549  0.4773  0.2406  0.1531
 7206SOL    HW122517   0.520   2.804   0.541  0.3828  2.7492 -0.4463
 7206SOL    HW222518   0.390   2.707   0.527  2.5816 -0.3120 -0.7085
 7207SOL     OW22519   2.950   1.579   4.816  0.0030 -0.4921  0.3195
 7207SOL    HW122520   2.953   1.660   4.757  0.1332 -0.7051  0.0316
 7207SOL    HW222521   2.973   1.606   4.910  1.7586 -0.4633 -0.0806
 7208SOL     OW22522   3.940   6.747   4.347  0.2065  0.1584 -0.5209
 7208SOL    HW122523   3.991   6.669   4.383 -1.2451 -0.2052  0.9131
 7208SOL    HW222524   3.991   6.790   4.272  2.5220 -0.1961  0.7627
 7209SOL     OW22525   1.401   3.475   1.842 -0.3463 -0.7061  0.0066
 7209SOL    HW122526   1.304   3.455   1.828 -1.0028  2.5115 -0.8530
 7209SOL    HW222527   1.425   3.560   1.795  3.0959 -1.7330 -0.3715
 7210SOL     OW22528   3.629   1.831   3.212  0.3934  0.2831 -0.1283
 7210SOL    HW122529   3.705   1.768   3.197 -0.1371 -0.5421  0.5487
 7210SOL    HW222530   3.583   1.809   3.298 -0.3285  1.0692 -0.2887
 7211SOL     OW22531   3.384   6.329   5.197 -0.0659 -0.2657  0.2552
 7211SOL    HW122532   3.400   6.278   5.282  1.6983 -0.3818 -0.1145
 7211SOL    HW222533   3.447   6.297   5.127  0.8375  2.1156 -0.1184
 7212SOL     OW22534   0.195   6.977   4.151  0.1938 -0.2808 -0.1573
 7212SOL    HW122535   0.123   7.027   4.101  0.1607 -1.0466 -0.8965
 7212SOL    HW222536   0.190   7.000   4.248  1.3413  2.5952 -0.6749
 7213SOL     OW22537   2.960   6.319   5.317  0.9095  0.3259 -0.1982
 7213SOL    HW122538   2.964   6.274   5.228  1.1961  0.4504 -0.2481
 7213SOL    HW222539   2.966   6.250   5.389  2.3331  0.3602 -0.2700
 7214SOL     OW22540   6.586   1.668   6.415 -0.2384 -0.2462  0.0313
 7214SOL    HW122541   6.594   1.599   6.487  0.9927 -2.2089 -1.8729
 7214SOL    HW222542   6.674   1.680   6.370 -1.3441 -0.6224 -2.4294
 7215SOL     OW22543   4.729   2.183   4.122 -0.3291 -0.2574  0.4077
 7215SOL    HW122544   4.682   2.116   4.066 -1.2885  0.1443  0.7103
 7215SOL    HW222545   4.748   2.265   4.067 -0.3480 -0.2642  0.3913
 7216SOL     OW22546   4.471   6.098   3.235 -0.2079  0.4309 -0.3617
 7216SOL    HW122547   4.507   6.190   3.222  1.3612 -0.4698 -3.4467
 7216SOL    HW222548   4.408   6.076   3.160 -0.1403 -1.1678  0.0053
 7217SOL     OW22549   1.694   1.720   4.187  0.2229 -0.6211 -0.5184
 7217SOL    HW122550   1.792   1.706   4.196 -0.1179 -1.6118  2.9032
 7217SOL    HW222551   1.675   1.818   4.178  1.4927 -0.4884 -2.3258
 7218SOL     OW22552   1.645   2.894   3.091 -0.1924  0.0359  0.3855
 7218SOL    HW122553   1.653   2.983   3.048 -2.0849 -0.2302 -0.6180
 7218SOL    HW222554   1.577   2.898   3.165  2.0759  0.1681  2.5811
 7219SOL     OW22555   2.490   1.153   2.637  0.2663  0.1354  0.3199
 7219SOL    HW122556   2.404   1.140   2.686  0.1272  0.2241  0.1038
 7219SOL    HW222557   2.565   1.163   2.702 -0.1684  2.0629  0.5724
 7220SOL     OW22558   6.168   5.794   3.396 -0.2622  0.2895  0.3351
 7220SOL    HW122559   6.215   5.868   3.445 -0.3286 -0.4055  1.5113
 7220SOL    HW222560   6.203   5.788   3.303  0.1537  1.4265  0.4049
 7221SOL     OW22561   3.318   0.069   4.827 -0.0180  0.5646  0.2316
 7221SOL    HW122562   3.368   0.047   4.911  1.6040  3.4328  0.1602
 7221SOL    HW222563   3.295   0.166   4.827 -1.4673  0.2891 -1.9481
 7222SOL     OW22564   6.045   6.360   2.080 -0.0148  0.1780 -0.0600
 7222SOL    HW122565   5.976   6.392   2.145  0.6894  0.1157  0.7461
 7222SOL    HW222566   6.100   6.437   2.049  1.2704 -0.0967  1.3925
 7223SOL     OW22567   3.835   1.136   2.085 -0.1011 -0.4714 -0.4448
 7223SOL    HW122568   3.934   1.121   2.084 -0.0539 -0.5219  1.3472
 7223SOL    HW222569   3.816   1.232   2.065  0.3716 -0.2895 -0.0456
 7224SOL     OW22570   5.293   3.608   4.053 -0.6123  0.1063 -0.3236
 7224SOL    HW122571   5.247   3.607   3.965 -0.9805  0.9060 -0.1519
 7224SOL    HW222572   5.231   3.573   4.123  0.1415 -1.8320 -0.5744
 7225SOL     OW22573   1.972   3.923   6.617 -0.0089 -0.2905 -0.0844
 7225SOL    HW122574   2.059   3.891   6.655 -0.2244 -0.3390  0.3818
 7225SOL    HW222575   1.989   3.997   6.553  0.2520  1.1982  1.6228
 7226SOL     OW22576   6.317   5.830   0.931 -0.2000 -0.4214  0.1474
 7226SOL    HW122577   6.380   5.899   0.895  1.0113 -1.9105 -0.6933
 7226SOL    HW222578   6.223   5.865   0.926  0.2288  0.6093 -1.6124
 7227SOL     OW22579   1.865   2.259   0.680 -0.4467 -0.5462  0.1926
 7227SOL    HW122580   1.942   2.199   0.657 -0.5110 -1.0395  1.1945
 7227SOL    HW222581   1.899   2.352   0.697 -0.2684 -0.4255 -0.7699
 7228SOL     OW22582   0.301   6.061   3.604 -0.3506 -0.4637 -0.0493
 7228SOL    HW122583   0.227   6.109   3.557 -0.2768 -0.0390  0.2671
 7228SOL    HW222584   0.361   6.127   3.650  1.8179 -0.5340 -2.5364
 7229SOL     OW22585   0.153   5.828   4.310 -0.2633 -0.1690  0.1113
 7229SOL    HW122586   0.244   5.838   4.352 -1.3584 -0.6871  2.7478
 7229SOL    HW222587   0.133   5.911   4.257  1.2534  0.4763  0.4695
 7230SOL     OW22588   2.590   4.877   3.934 -0.5662  0.0182 -0.1813
 7230SOL    HW122589   2.550   4.967   3.954 -0.3658  0.1949 -0.5622
 7230SOL    HW222590   2.634   4.880   3.844 -1.7106 -0.8385 -0.7899
 7231SOL     OW22591   4.044   2.407   6.058  0.1716  0.6930 -0.3436
 7231SOL    HW122592   3.999   2.393   6.146  0.5500  1.7779  0.0429
 7231SOL    HW222593   3.976   2.424   5.987 -0.1759 -0.9025 -0.4210
 7232SOL     OW22594   5.510   5.286   2.893 -0.2593 -0.1345 -0.5019
 7232SOL    HW122595   5.534   5.339   2.975  2.1702 -1.4283 -0.2889
 7232SOL    HW222596   5.423   5.240   2.908 -1.5892  2.3553 -0.0451
 7233SOL     OW22597   0.809   1.222   3.562 -0.3377  0.0114 -0.1978
 7233SOL    HW122598   0.790   1.128   3.590 -0.0448  0.0036 -0.0129
 7233SOL    HW222599   0.900   1.226   3.520  0.2401  0.4449  1.0429
 7234SOL     OW22600   5.153   3.779   1.305  0.0194  0.1460  0.6606
 7234SOL    HW122601   5.161   3.851   1.374 -2.3513  0.2323  0.9440
 7234SOL    HW222602   5.102   3.702   1.344 -0.5818 -0.1866 -0.7168
 7235SOL     OW22603   6.713   5.055   2.933  0.1678 -0.4028  0.0418
 7235SOL    HW122604   6.641   5.119   2.959  0.6463  1.1305 -2.1537
 7235SOL    HW222605   6.790   5.064   2.996  0.2196  1.1934 -0.2165
 7236SOL     OW22606   3.141   1.893   2.048  0.0203 -0.6000 -0.4125
 7236SOL    HW122607   3.231   1.907   2.089 -0.2195 -0.6491  0.1393
 7236SOL    HW222608   3.151   1.852   1.957  0.5094 -1.4830  0.0379
 7237SOL     OW22609   4.408   0.024   5.734 -0.0342 -0.1765 -0.0325
 7237SOL    HW122610   4.432   0.107   5.684 -0.3621  1.2076  1.9961
 7237SOL    HW222611   4.308   0.014   5.735 -0.0338 -0.1758  0.3245
 7238SOL     OW22612   5.318   2.412   5.457  0.4322 -0.2364  0.4373
 7238SOL    HW122613   5.295   2.478   5.529  2.2700 -1.1797  1.9826
 7238SOL    HW222614   5.360   2.461   5.380 -0.8749  0.7048  0.2876
 7239SOL     OW22615   0.995   1.764   2.241 -0.2779 -0.0731 -0.2612
 7239SOL    HW122616   0.947   1.842   2.280 -0.2631 -1.0550  1.8390
 7239SOL    HW222617   0.963   1.680   2.283 -0.7744 -1.3378 -2.9284
 7240SOL     OW22618   6.438   1.163   4.793 -0.0234  0.5338 -0.1156
 7240SOL    HW122619   6.458   1.123   4.883 -1.3770  0.3079  0.1031
 7240SOL    HW222620   6.342   1.192   4.790 -0.4091 -0.7800 -1.9897
 7241SOL     OW22621   3.853   1.126   1.469 -0.4325  0.1550 -0.5144
 7241SOL    HW122622   3.936   1.075   1.446  0.5887  2.4609 -2.4167
 7241SOL    HW222623   3.842   1.128   1.569  0.1686 -2.5601 -0.3278
 7242SOL     OW22624   4.173   6.353   0.020 -0.2523 -0.3125 -0.7084
 7242SOL    HW122625   4.199   6.448   0.002 -1.1007 -0.1509 -1.1228
 7242SOL    HW222626   4.232   6.292  -0.032 -0.3101  0.0250 -1.1765
 7243SOL     OW22627   6.583   3.947   6.031 -0.5494 -0.8417 -0.1466
 7243SOL    HW122628   6.582   3.940   6.131  0.5737 -1.4760 -0.1636
 7243SOL    HW222629   6.553   4.039   6.004 -0.4103 -0.5081  0.7922
 7244SOL     OW22630   6.632   6.145   2.301  0.1147  0.0298 -0.0089
 7244SOL    HW122631   6.575   6.083   2.247 -0.6282  1.2401 -0.6625
 7244SOL    HW222632   6.724   6.149   2.262  0.3545 -1.0951  0.3991
 7245SOL     OW22633   2.373   2.783   4.128 -0.4708  0.2588 -0.6226
 7245SOL    HW122634   2.438   2.819   4.062  0.7236 -0.6193  0.0432
 7245SOL    HW222635   2.353   2.853   4.197  0.4818  0.2395 -0.3184
 7246SOL     OW22636   1.431   0.864   5.362  0.1063  0.0685  0.1640
 7246SOL    HW122637   1.466   0.864   5.456  0.4839 -0.8437  0.0424
 7246SOL    HW222638   1.334   0.842   5.363  0.4950 -1.8604  0.2550
 7247SOL     OW22639   1.899   6.841   4.180  0.3254 -0.5095  0.1693
 7247SOL    HW122640   1.912   6.827   4.278  2.3962  0.2514  0.0446
 7247SOL    HW222641   1.972   6.899   4.145 -0.9913  0.1211 -1.6385
 7248SOL     OW22642   1.232   6.701   2.314 -0.9609  0.3821 -0.2242
 7248SOL    HW122643   1.153   6.753   2.281  0.0367  2.0429 -0.1041
 7248SOL    HW222644   1.203   6.639   2.387 -2.1193  1.0491 -0.0903
 7249SOL     OW22645   3.796   4.006   1.757  0.1516 -0.3803  0.1869
 7249SOL    HW122646   3.698   4.021   1.769  0.1571 -1.3461  1.7823
 7249SOL    HW222647   3.821   3.918   1.799  1.8167  0.1788  0.4345
 7250SOL     OW22648   0.043   6.488   0.523  0.4366 -0.0644 -0.4983
 7250SOL    HW122649  -0.016   6.460   0.598  1.0264 -1.9407 -0.6812
 7250SOL    HW222650   0.037   6.587   0.511  0.0774  0.2394  1.7834
 7251SOL     OW22651   6.429   1.039   5.745  0.5782 -0.4618 -0.2706
 7251SOL    HW122652   6.453   1.000   5.834  2.4805 -2.2321 -1.4862
 7251SOL    HW222653   6.374   0.973   5.694  1.9208 -0.6622 -1.4924
 7252SOL     OW22654   3.599   3.929   1.446  0.4591 -0.4037 -0.1643
 7252SOL    HW122655   3.624   3.960   1.354  2.4971 -2.6360 -0.4664
 7252SOL    HW222656   3.576   4.008   1.503 -0.5322  1.0639 -2.4536
 7253SOL     OW22657   2.162   5.129   1.027 -0.0983  0.1599 -0.4446
 7253SOL    HW122658   2.096   5.055   1.020  0.0856 -0.0827  0.3285
 7253SOL    HW222659   2.124   5.204   1.080  1.4617 -1.4514  3.2845
 7254SOL     OW22660   5.943   5.310   5.194  0.5950 -0.4284  0.4497
 7254SOL    HW122661   5.921   5.299   5.097 -0.6353 -0.0586  0.6681
 7254SOL    HW222662   6.014   5.244   5.220  0.1988 -1.2480 -0.4653
 7255SOL     OW22663   4.932   2.469   6.965  0.7076 -0.0056  0.0465
 7255SOL    HW122664   5.024   2.469   7.006  1.2476  1.0561 -1.1060
 7255SOL    HW222665   4.932   2.408   6.885 -0.3084 -1.9761  1.4613
 7256SOL     OW22666   0.287   4.772   4.320 -0.4476  0.2446 -0.3329
 7256SOL    HW122667   0.346   4.829   4.262 -1.5918  1.7108 -0.1272
 7256SOL    HW222668   0.307   4.676   4.303  3.6965  0.5970  1.4806
 7257SOL     OW22669   6.952   2.658   2.703 -0.1513 -0.3868 -0.2766
 7257SOL    HW122670   6.875   2.698   2.653  0.2123  0.2502 -0.3448
 7257SOL    HW222671   6.923   2.574   2.748 -1.0544  0.1596  0.1989
 7258SOL     OW22672   0.088   2.816   3.687 -0.1200  0.0006 -0.1660
 7258SOL    HW122673   0.053   2.823   3.594  0.5008 -0.4769 -0.4417
 7258SOL    HW222674   0.089   2.720   3.715 -1.6317  0.2611  0.8605
 7259SOL     OW22675   2.278   1.763   1.290  0.1236  0.4099 -0.0119
 7259SOL    HW122676   2.338   1.728   1.218  0.7886 -0.2819  0.8461
 7259SOL    HW222677   2.248   1.687   1.348  0.1294  1.0304  0.8210
 7260SOL     OW22678   5.119   0.062   1.214  0.0181  0.0328  0.3903
 7260SOL    HW122679   5.197   0.013   1.175 -1.7902 -2.0139 -0.8450
 7260SOL    HW222680   5.053   0.082   1.142 -1.9136 -0.8695  1.8223
 7261SOL     OW22681   1.860   4.622   1.661  0.3889 -0.6348  0.0641
 7261SOL    HW122682   1.817   4.699   1.614 -1.3117 -0.6195  1.5454
 7261SOL    HW222683   1.812   4.538   1.639  0.9300 -0.9561  0.0938
 7262SOL     OW22684   5.966   3.017   4.389  0.0470 -0.3185 -0.6007
 7262SOL    HW122685   5.876   3.020   4.346  0.3219  0.0458 -1.1740
 7262SOL    HW222686   5.968   3.080   4.467 -0.5284 -1.1564  0.0988
 7263SOL     OW22687   1.090   0.304   1.911 -0.1643 -0.3036 -0.2231
 7263SOL    HW122688   1.124   0.382   1.964  0.1608 -1.4426  1.3014
 7263SOL    HW222689   1.124   0.219   1.951 -1.6067 -1.3009 -1.0286
 7264SOL     OW22690   4.991   1.737   1.266 -0.3298 -0.3563 -0.5891
 7264SOL    HW122691   5.076   1.720   1.216  0.7424  1.9652  0.3144
 7264SOL    HW222692   5.012   1.753   1.362 -1.9377 -0.8078 -0.1363
 7265SOL     OW22693   6.312   4.490   4.835  0.6696 -0.0820 -0.4568
 7265SOL    HW122694   6.267   4.411   4.875  1.0517 -0.2218 -0.3017
 7265SOL    HW222695   6.307   4.567   4.899  1.6270 -0.4156  0.0559
 7266SOL     OW22696   5.309   2.468   3.185 -0.0661 -0.1304  0.2316
 7266SOL    HW122697   5.288   2.429   3.095  0.4169 -1.8209  0.8195
 7266SOL    HW222698   5.234   2.449   3.248  0.3665 -0.4977  0.6387
 7267SOL     OW22699   5.786   0.135   5.668 -0.3907  0.0519  0.9614
 7267SOL    HW122700   5.796   0.120   5.767 -0.0882  0.9925  1.0865
 7267SOL    HW222701   5.691   0.156   5.647 -0.7853 -1.7582  0.8071
 7268SOL     OW22702   6.910   6.268   2.552  0.2022 -0.2532 -0.6969
 7268SOL    HW122703   6.956   6.237   2.634 -0.2927 -2.2607 -1.1351
 7268SOL    HW222704   6.812   6.275   2.569  0.1166 -0.5194 -1.0842
 7269SOL     OW22705   0.701   4.597   6.289 -0.0785 -0.0534  0.0365
 7269SOL    HW122706   0.753   4.670   6.332 -0.3306  0.5153 -0.6143
 7269SOL    HW222707   0.634   4.561   6.354 -0.6991  1.0416  0.0107
 7270SOL     OW22708   0.216   2.202   3.164 -0.3712 -0.4022  0.2915
 7270SOL    HW122709   0.296   2.151   3.197  0.3996  0.6391  0.0599
 7270SOL    HW222710   0.167   2.147   3.096  0.6616 -0.6903 -0.2346
 7271SOL     OW22711   2.844   5.325   3.684 -0.0330  0.2689 -0.1586
 7271SOL    HW122712   2.877   5.237   3.718  1.4566 -0.0532 -2.2097
 7271SOL    HW222713   2.749   5.317   3.656 -0.7325  0.0740  2.0984
 7272SOL     OW22714   5.087   5.456   3.588  0.7153  0.6166 -0.3462
 7272SOL    HW122715   5.151   5.386   3.618  0.0564  0.6313  1.1734
 7272SOL    HW222716   5.013   5.466   3.655  0.8214  2.7935 -0.4555
 7273SOL     OW22717   4.296   5.665   6.354 -0.5910 -0.1758  0.5909
 7273SOL    HW122718   4.275   5.636   6.260 -2.0673 -0.9835  1.1224
 7273SOL    HW222719   4.294   5.764   6.360 -0.5548 -0.1209 -0.2204
 7274SOL     OW22720   2.673   6.523   6.788 -0.1487  0.2208  0.1560
 7274SOL    HW122721   2.688   6.475   6.701  0.5335 -0.3624  0.5787
 7274SOL    HW222722   2.595   6.584   6.780 -1.2440 -1.2030 -0.3170
 7275SOL     OW22723   6.994   6.218   4.861 -0.0569 -0.0140 -0.3510
 7275SOL    HW122724   6.898   6.190   4.873 -0.1871 -0.3410 -1.9334
 7275SOL    HW222725   7.052   6.137   4.855  0.3288  0.1836  0.5158
 7276SOL     OW22726   4.396   5.318   4.774 -0.1435  0.0328 -0.8819
 7276SOL    HW122727   4.479   5.266   4.795 -0.2844 -0.9470 -2.5446
 7276SOL    HW222728   4.324   5.292   4.837  0.3319 -0.3798 -0.4987
 7277SOL     OW22729   5.405   1.274   3.844  0.4863 -0.0566 -0.3918
 7277SOL    HW122730   5.493   1.236   3.816  0.3210 -0.0394 -0.9490
 7277SOL    HW222731   5.336   1.255   3.774 -0.3947 -1.6271  0.8343
 7278SOL     OW22732   2.712   1.891   1.496 -0.5054 -0.3979 -0.5412
 7278SOL    HW122733   2.774   1.968   1.486 -1.3651  0.3038 -0.5482
 7278SOL    HW222734   2.631   1.906   1.440 -1.6594 -0.2740  1.0930
 7279SOL     OW22735   2.454   3.924   6.115  0.4807 -0.4464  0.0748
 7279SOL    HW122736   2.464   3.892   6.021 -0.1225  0.6036 -0.3719
 7279SOL    HW222737   2.540   3.910   6.165  0.9395 -0.6287 -0.7529
 7280SOL     OW22738   1.123   2.424   4.729  0.2282 -0.1517  0.0421
 7280SOL    HW122739   1.059   2.457   4.798  0.5572 -1.6736  1.1295
 7280SOL    HW222740   1.128   2.489   4.654 -3.5724 -0.5899 -0.7502
 7281SOL     OW22741   3.762   1.301   6.678  0.1678  0.2052 -0.4297
 7281SOL    HW122742   3.699   1.224   6.687 -1.2788  1.4798  1.0452
 7281SOL    HW222743   3.753   1.341   6.586 -0.2980 -0.3376 -0.6233
 7282SOL     OW22744   3.673   5.648   1.830 -0.0756 -0.0101  0.1814
 7282SOL    HW122745   3.653   5.609   1.920 -0.2955  0.1149  0.1858
 7282SOL    HW222746   3.673   5.748   1.836 -1.1295  0.0210 -0.1786
 7283SOL     OW22747   4.582   0.485   2.996  0.2515  1.2365 -0.3036
 7283SOL    HW122748   4.518   0.546   3.042  0.9029  0.2941  1.9922
 7283SOL    HW222749   4.669   0.532   2.982  0.1575  1.4258 -0.2551
 7284SOL     OW22750   6.408   2.805   0.795 -0.3921  0.2926 -0.0707
 7284SOL    HW122751   6.319   2.787   0.837 -1.3612  0.7813 -1.8051
 7284SOL    HW222752   6.471   2.731   0.816 -1.8902 -1.1982 -0.5863
 7285SOL     OW22753   5.828   1.547   1.894  0.6163 -0.2912  0.1450
 7285SOL    HW122754   5.760   1.598   1.840 -0.8033 -0.1366  1.9777
 7285SOL    HW222755   5.914   1.543   1.844  0.5920  3.3073 -0.4544
 7286SOL     OW22756   3.096   0.733   0.531 -0.0462 -0.2884  0.4977
 7286SOL    HW122757   3.114   0.735   0.433 -1.4889 -1.0112  0.1918
 7286SOL    HW222758   3.181   0.751   0.581  1.0317 -1.4465 -0.8404
 7287SOL     OW22759   6.456   2.422   6.177 -0.0417 -0.2021  0.1906
 7287SOL    HW122760   6.514   2.359   6.125 -0.7982 -1.0107  0.2884
 7287SOL    HW222761   6.509   2.462   6.251  1.1754  1.2976 -1.4087
 7288SOL     OW22762   2.138   0.608   1.425  0.1574  0.1586 -0.3417
 7288SOL    HW122763   2.133   0.679   1.354 -0.1183 -0.9719 -1.4778
 7288SOL    HW222764   2.077   0.533   1.402  0.6510 -0.5904  0.7165
 7289SOL     OW22765   0.547   2.620   3.685 -0.3945  0.1741  0.5029
 7289SOL    HW122766   0.596   2.592   3.768 -1.9459  0.6121  1.5945
 7289SOL    HW222767   0.487   2.696   3.705  0.2294  1.2468 -1.3766
 7290SOL     OW22768   2.083   1.194   5.776 -0.5644 -0.0868  0.2531
 7290SOL    HW122769   2.034   1.181   5.863 -0.4143 -1.4164  0.1602
 7290SOL    HW222770   2.034   1.262   5.721 -0.6226  0.8385  1.3918
 7291SOL     OW22771   3.925   6.565   2.270 -0.0434  0.3057 -0.1431
 7291SOL    HW122772   3.882   6.493   2.216  0.1837  2.6976 -3.8265
 7291SOL    HW222773   3.856   6.613   2.324 -0.4598 -1.3972  0.9118
 7292SOL     OW22774   4.953   0.799   2.602 -0.0650 -0.5993  0.0657
 7292SOL    HW122775   5.033   0.746   2.573  0.5834  0.2105  0.3490
 7292SOL    HW222776   4.958   0.891   2.562 -0.7587 -0.4788  0.2451
 7293SOL     OW22777   0.722   2.735   4.431  0.6176  0.5524 -0.3566
 7293SOL    HW122778   0.713   2.819   4.485  0.7227  0.0216  0.4898
 7293SOL    HW222779   0.656   2.737   4.355  1.6761  2.1132 -1.3053
 7294SOL     OW22780   2.166   5.300   0.343  0.1640  0.1043 -0.0385
 7294SOL    HW122781   2.130   5.342   0.427  2.0079 -1.0837  1.4100
 7294SOL    HW222782   2.153   5.201   0.347 -0.4929  0.0971 -1.5858
 7295SOL     OW22783   0.480   2.536   1.259 -0.0909 -0.7641 -0.6516
 7295SOL    HW122784   0.430   2.559   1.176 -1.4987 -0.9093  0.1129
 7295SOL    HW222785   0.429   2.570   1.338  1.2440 -0.5765  0.1544
 7296SOL     OW22786   4.457   6.026   1.773 -0.0916 -0.1729  0.5832
 7296SOL    HW122787   4.382   6.043   1.836 -3.0095 -1.5898 -2.2507
 7296SOL    HW222788   4.495   5.935   1.790  1.1096  0.5562  2.0362
 7297SOL     OW22789   4.258   0.474   2.247  0.0142  0.2410 -0.0065
 7297SOL    HW122790   4.195   0.401   2.272  0.7446 -0.1461  0.7458
 7297SOL    HW222791   4.219   0.562   2.272  0.9581 -0.1242  3.3152
 7298SOL     OW22792   5.416   5.175   4.228 -1.4315  0.0978 -0.2614
 7298SOL    HW122793   5.403   5.098   4.291  1.1640 -0.4243 -0.2242
 7298SOL    HW222794   5.427   5.140   4.135  0.7492  0.2562 -0.1136
 7299SOL     OW22795   1.064   2.557   6.844  1.2787  0.2733  0.4551
 7299SOL    HW122796   1.021   2.576   6.756 -0.0279  0.7850  1.1771
 7299SOL    HW222797   1.030   2.471   6.881  1.8084  0.0688  0.4799
 7300SOL     OW22798   5.860   6.569   2.535 -0.7317 -0.5352  0.8420
 7300SOL    HW122799   5.842   6.625   2.616  0.0589  0.6361  0.2477
 7300SOL    HW222800   5.840   6.473   2.555 -0.0058 -0.3588  2.5824
 7301SOL     OW22801   4.042   1.789   0.268  0.4318 -0.1720  0.3501
 7301SOL    HW122802   3.984   1.824   0.341  0.9024  2.2343 -0.3387
 7301SOL    HW222803   3.999   1.708   0.227 -0.9747 -0.1657  1.7162
 7302SOL     OW22804   0.353   0.942   6.761 -0.3830  0.1217  0.1531
 7302SOL    HW122805   0.368   1.009   6.834 -2.1823  1.9994 -1.1116
 7302SOL    HW222806   0.263   0.901   6.771  0.0153 -0.8527 -0.1080
 7303SOL     OW22807   2.938   2.047   0.378  0.5418 -0.2543  0.1488
 7303SOL    HW122808   2.942   1.947   0.372  2.2378 -0.2056 -0.1419
 7303SOL    HW222809   3.028   2.085   0.355  0.2432  1.2910  1.3670
 7304SOL     OW22810   3.049   4.757   1.825  0.7645 -0.4227  0.2240
 7304SOL    HW122811   3.089   4.778   1.914  0.6226  0.7976  0.0287
 7304SOL    HW222812   2.994   4.674   1.831 -0.0311  0.1722  1.5211
 7305SOL     OW22813   4.583   6.734   0.799  0.0731  0.5650  0.4006
 7305SOL    HW122814   4.533   6.816   0.770  0.6194  0.5686 -0.5773
 7305SOL    HW222815   4.629   6.753   0.886 -2.2907  0.2750  1.8174
 7306SOL     OW22816   5.932   2.388   6.121 -0.0333 -0.7148  0.2485
 7306SOL    HW122817   5.912   2.290   6.121  1.2226 -0.9806 -0.0952
 7306SOL    HW222818   6.030   2.403   6.134 -0.2900  0.5288  1.0112
 7307SOL     OW22819   3.615   6.323   2.613  0.2332  0.0774  0.3465
 7307SOL    HW122820   3.601   6.344   2.517  1.4234  1.5022  0.4419
 7307SOL    HW222821   3.528   6.297   2.655 -0.1410 -1.4234 -1.2853
 7308SOL     OW22822   0.858   3.090   3.556  0.4947  0.0258  0.1118
 7308SOL    HW122823   0.939   3.143   3.530 -0.2784  0.8258 -0.7261
 7308SOL    HW222824   0.778   3.125   3.508 -0.4624 -0.3996  1.3459
 7309SOL     OW22825   4.776   6.546   1.128 -0.0718  0.7718 -0.3590
 7309SOL    HW122826   4.739   6.477   1.190  0.7724 -0.4467 -1.1507
 7309SOL    HW222827   4.710   6.620   1.117 -1.6071 -0.5525 -0.4986
 7310SOL     OW22828   2.233   5.511   0.992 -0.8138  0.3305 -0.1472
 7310SOL    HW122829   2.167   5.554   1.053 -0.9217 -2.2995  1.7761
 7310SOL    HW222830   2.191   5.433   0.946  0.6100 -0.7508  0.2965
 7311SOL     OW22831   1.485   1.888   3.677 -0.4743 -0.1051  0.0944
 7311SOL    HW122832   1.571   1.849   3.644  0.5743  0.2363  2.2368
 7311SOL    HW222833   1.474   1.981   3.641 -1.3173 -1.0801 -2.3210
 7312SOL     OW22834   1.040   3.837   3.803 -0.2441  0.1866 -0.5809
 7312SOL    HW122835   1.008   3.832   3.708  1.1465  0.7176 -1.1038
 7312SOL    HW222836   1.139   3.820   3.806 -0.3892 -0.5277  0.8661
 7313SOL     OW22837   1.685   0.545   1.122  0.2253 -0.0974 -0.1139
 7313SOL    HW122838   1.609   0.512   1.177  0.6140 -3.0551 -1.1610
 7313SOL    HW222839   1.674   0.513   1.028  2.3673  0.0724 -0.4747
 7314SOL     OW22840   0.052   5.028   5.165  0.0449  0.2444  0.4041
 7314SOL    HW122841   0.042   4.958   5.094  2.8506  0.7360 -0.5973
 7314SOL    HW222842  -0.020   5.097   5.155  0.9049  0.8250 -2.6800
 7315SOL     OW22843   6.261   6.193   2.124 -0.0647  0.6214 -0.6909
 7315SOL    HW122844   6.184   6.207   2.062  0.6643  0.9756 -1.5627
 7315SOL    HW222845   6.304   6.281   2.143  0.3522  0.3870 -0.5337
 7316SOL     OW22846   1.435   3.049   3.837  0.6189 -0.2189 -0.3230
 7316SOL    HW122847   1.384   2.982   3.784 -0.2513 -0.2636  0.5359
 7316SOL    HW222848   1.373   3.121   3.869  1.2859  0.2705 -0.0989
 7317SOL     OW22849   5.866   2.440   1.982  0.5658  0.5304 -0.3424
 7317SOL    HW122850   5.930   2.503   2.027  0.5143  0.6590 -0.4487
 7317SOL    HW222851   5.888   2.346   2.008  0.2997  0.6270  0.2527
 7318SOL     OW22852   2.242   1.551   4.061  0.3135  0.3575  0.4006
 7318SOL    HW122853   2.245   1.580   3.965 -0.6159  2.6155  0.9874
 7318SOL    HW222854   2.260   1.630   4.120  1.2378 -1.0617  2.1038
 7319SOL     OW22855   6.865   5.750   5.233  0.6072  0.0821 -0.6311
 7319SOL    HW122856   6.863   5.757   5.333  0.5373 -0.6612 -0.5792
 7319SOL    HW222857   6.802   5.678   5.203 -0.1795  1.0104 -1.2851
 7320SOL     OW22858   1.936   5.398   1.912 -0.5442  0.3387 -0.1073
 7320SOL    HW122859   1.900   5.437   1.996  0.8285 -2.0106  1.7197
 7320SOL    HW222860   1.915   5.300   1.909 -0.8655  0.4234 -2.7212
 7321SOL     OW22861   3.539   1.183   5.962  0.7969 -0.6347  0.0827
 7321SOL    HW122862   3.574   1.183   5.869  0.3675  0.7203 -0.0930
 7321SOL    HW222863   3.511   1.275   5.988  3.3045 -0.3951  2.4437
 7322SOL     OW22864   0.187   0.738   3.066  0.0720 -0.4999  0.1100
 7322SOL    HW122865   0.185   0.724   3.165 -0.6725  0.6948  0.2792
 7322SOL    HW222866   0.098   0.711   3.028  0.6551 -1.8230 -0.3794
 7323SOL     OW22867   2.234   3.065   2.901 -0.8114  0.2220  0.1205
 7323SOL    HW122868   2.276   3.075   2.991  1.6269 -1.0685 -0.7586
 7323SOL    HW222869   2.135   3.056   2.910 -0.7211  1.1150  2.5578
 7324SOL     OW22870   4.458   5.476   2.951 -0.4676 -0.1360  0.2786
 7324SOL    HW122871   4.555   5.483   2.928 -0.5752 -0.1725 -0.1797
 7324SOL    HW222872   4.412   5.414   2.888 -0.8407  0.0676  0.3422
 7325SOL     OW22873   4.798   0.751   0.995 -0.7496  0.5830 -0.3953
 7325SOL    HW122874   4.784   0.724   1.090 -1.4786  0.2526 -0.5809
 7325SOL    HW222875   4.895   0.743   0.971 -0.4130  1.5575  0.5691
 7326SOL     OW22876   2.708   6.332   6.589 -0.0638 -0.0286  0.6723
 7326SOL    HW122877   2.609   6.326   6.581 -0.0459  0.2605  0.1594
 7326SOL    HW222878   2.750   6.257   6.538  0.0153  0.9017 -0.6953
 7327SOL     OW22879   5.901   0.328   5.495 -0.0522  0.4098 -0.0011
 7327SOL    HW122880   5.851   0.264   5.553  0.4456  0.0015 -0.0174
 7327SOL    HW222881   5.971   0.375   5.548  1.5626 -1.2155 -0.6198
 7328SOL     OW22882   3.493   0.381   5.819 -0.0475 -0.5313 -0.1372
 7328SOL    HW122883   3.401   0.383   5.779 -0.2920 -0.1272  0.4228
 7328SOL    HW222884   3.507   0.294   5.867 -0.2389 -0.4852  0.0031
 7329SOL     OW22885   0.971   4.869   2.505  0.0625 -0.4131  0.4214
 7329SOL    HW122886   0.935   4.952   2.548 -2.3505 -1.1703 -0.0145
 7329SOL    HW222887   1.009   4.893   2.416 -1.8201  0.1036 -0.2974
 7330SOL     OW22888   3.660   0.749   6.411  0.1223 -0.5303  0.7826
 7330SOL    HW122889   3.716   0.811   6.358 -0.4878 -0.4802  0.1906
 7330SOL    HW222890   3.655   0.781   6.506 -0.3953  0.4650  0.4288
 7331SOL     OW22891   6.605   6.287   0.691  0.5052  0.6752  0.3993
 7331SOL    HW122892   6.626   6.329   0.779 -0.5219  1.4465  0.2963
 7331SOL    HW222893   6.540   6.213   0.703  0.0484  1.0454  0.2599
 7332SOL     OW22894   2.034   0.566   6.810 -0.2560 -0.6897 -0.1186
 7332SOL    HW122895   1.969   0.642   6.816 -0.2551 -0.7113  0.1516
 7332SOL    HW222896   2.121   0.600   6.772 -0.3142 -0.5934 -0.1656
 7333SOL     OW22897   6.449   3.498   2.571 -0.3901  0.1168  0.1044
 7333SOL    HW122898   6.403   3.410   2.580  0.2111 -0.3011 -0.7622
 7333SOL    HW222899   6.385   3.567   2.538 -1.3894  0.5257  2.6357
 7334SOL     OW22900   2.441   6.575   4.922 -0.2453  0.4764  0.2662
 7334SOL    HW122901   2.497   6.624   4.855 -0.2881  0.1312 -0.0234
 7334SOL    HW222902   2.470   6.480   4.925 -1.9757 -0.1495 -1.1775
 7335SOL     OW22903   2.293   3.744   1.499 -0.0252 -0.1902  0.1552
 7335SOL    HW122904   2.265   3.709   1.588 -1.9591 -0.2491 -0.4370
 7335SOL    HW222905   2.266   3.679   1.427  2.1729 -0.5151 -0.4660
 7336SOL     OW22906   0.731   6.503   2.748 -0.0138 -0.0624  0.2894
 7336SOL    HW122907   0.686   6.514   2.837 -0.8387  0.7521 -0.2095
 7336SOL    HW222908   0.722   6.587   2.696  0.1718 -0.6485 -0.7076
 7337SOL     OW22909   0.958   3.267   0.483 -0.3432  0.2180  0.1107
 7337SOL    HW122910   0.899   3.189   0.465 -0.8900  0.5735  0.3313
 7337SOL    HW222911   0.917   3.324   0.555  0.4121  0.3110  0.4791
 7338SOL     OW22912   5.665   3.325   1.267 -0.5708  0.2296  0.9143
 7338SOL    HW122913   5.726   3.397   1.300  0.2598 -0.9926  2.1458
 7338SOL    HW222914   5.618   3.283   1.345 -2.2591  0.4768  0.0767
 7339SOL     OW22915   4.773   6.305   4.202  0.3097  0.2362 -0.7845
 7339SOL    HW122916   4.742   6.347   4.287 -1.4683  0.4876 -1.5145
 7339SOL    HW222917   4.858   6.348   4.172  0.7815  0.3597  0.6808
 7340SOL     OW22918   1.469   1.305   0.819 -0.0111  0.1176 -0.6435
 7340SOL    HW122919   1.503   1.214   0.794 -2.3151 -0.6368 -1.2495
 7340SOL    HW222920   1.452   1.307   0.918  1.0512  0.2668 -0.4538
 7341SOL     OW22921   0.941   2.728   4.620  0.5532 -0.1635  0.1854
 7341SOL    HW122922   0.869   2.721   4.550  1.5392 -0.7938 -0.7940
 7341SOL    HW222923   1.026   2.692   4.584  1.3128  0.3125  1.4345
 7342SOL     OW22924   2.595   3.155   1.283  0.3024  0.5754  0.2559
 7342SOL    HW122925   2.649   3.072   1.270  1.9796  1.4662  1.1809
 7342SOL    HW222926   2.561   3.159   1.377 -2.1841 -0.3655 -0.5052
 7343SOL     OW22927   6.054   2.930   0.844  0.1524 -0.3565 -0.9312
 7343SOL    HW122928   6.153   2.940   0.837 -0.0568  2.5073 -1.0413
 7343SOL    HW222929   6.017   2.906   0.755  0.8233 -3.3318 -0.5101
 7344SOL     OW22930   2.130   1.282   6.468  0.0114 -0.4534 -0.2131
 7344SOL    HW122931   2.156   1.274   6.372 -0.1287  0.7843 -0.3696
 7344SOL    HW222932   2.031   1.271   6.477  0.1789 -2.0842  0.0022
 7345SOL     OW22933   4.094   4.333   5.694  0.1159 -0.6286  0.5516
 7345SOL    HW122934   4.003   4.374   5.687 -0.1509 -1.3302 -0.3011
 7345SOL    HW222935   4.100   4.279   5.778 -0.3190 -0.7375  0.5126
 7346SOL     OW22936   4.482   6.505   1.768  0.5364  0.0986  0.2516
 7346SOL    HW122937   4.403   6.567   1.764  1.6618  1.5313 -0.8961
 7346SOL    HW222938   4.476   6.449   1.851 -1.3507  0.6051  0.5042
 7347SOL     OW22939   0.511   1.345   0.735  0.0322  0.2359 -0.1987
 7347SOL    HW122940   0.501   1.295   0.821 -0.6386  0.6760 -0.0179
 7347SOL    HW222941   0.607   1.344   0.707 -0.0480 -1.7489 -0.5583
 7348SOL     OW22942   1.211   3.835   4.451  0.0855 -0.6689 -0.1507
 7348SOL    HW122943   1.209   3.835   4.551  0.9557  1.0151 -0.1000
 7348SOL    HW222944   1.118   3.845   4.416 -0.0455  0.8590  0.5523
 7349SOL     OW22945   4.474   2.236   1.034 -0.2742 -0.0938 -0.2740
 7349SOL    HW122946   4.384   2.236   1.077  0.6923 -0.7978  1.8912
 7349SOL    HW222947   4.533   2.302   1.080  1.1043 -1.6007  0.2422
 7350SOL     OW22948   2.982   2.709   6.108 -0.2913 -0.2129  0.4114
 7350SOL    HW122949   2.977   2.613   6.137  0.3439 -0.2519  0.4203
 7350SOL    HW222950   2.959   2.768   6.185 -2.3028 -0.3669 -0.0185
 7351SOL     OW22951   6.277   6.312   5.658 -0.2562  0.0610 -0.1877
 7351SOL    HW122952   6.227   6.399   5.657  0.5267  0.5162  0.0661
 7351SOL    HW222953   6.368   6.326   5.697  0.1821 -0.7086 -0.9189
 7352SOL     OW22954   6.986   6.838   3.703 -0.1730 -0.6919  0.1766
 7352SOL    HW122955   6.905   6.841   3.644 -1.6349 -0.6446  2.0733
 7352SOL    HW222956   6.965   6.784   3.785  0.6643  1.7146  2.1214
 7353SOL     OW22957   5.186   6.727   6.415  0.4705  0.1615 -0.0765
 7353SOL    HW122958   5.172   6.705   6.319  0.4374 -1.2050  0.2264
 7353SOL    HW222959   5.283   6.717   6.438  0.7696  2.0695 -0.3251
 7354SOL     OW22960   1.073   1.870   4.630  0.1091  0.2131  0.6377
 7354SOL    HW122961   1.070   1.826   4.719  3.4145  0.5878  1.0503
 7354SOL    HW222962   1.067   1.969   4.640  1.4584  0.3110  0.5546
 7355SOL     OW22963   1.573   1.625   0.868  0.1071  0.0314  0.6310
 7355SOL    HW122964   1.576   1.589   0.775  0.3051  0.4182  0.4833
 7355SOL    HW222965   1.662   1.663   0.891 -0.5689  2.1040  0.0888
 7356SOL     OW22966   3.302   4.411   5.328 -0.4244  0.0579 -0.6768
 7356SOL    HW122967   3.272   4.323   5.365  0.4364 -0.1674 -0.4956
 7356SOL    HW222968   3.378   4.397   5.266 -0.7691  0.6095 -1.2322
 7357SOL     OW22969   1.452   5.791   3.551 -0.0787  0.1849  0.2717
 7357SOL    HW122970   1.521   5.728   3.516  1.8142  0.8654  2.6009
 7357SOL    HW222971   1.438   5.865   3.484  0.5979 -0.5408 -0.7045
 7358SOL     OW22972   6.680   3.119   2.011 -0.1030  0.1789 -0.6121
 7358SOL    HW122973   6.750   3.051   1.989 -1.1082 -0.9233 -0.5015
 7358SOL    HW222974   6.639   3.153   1.926 -1.2097 -1.1016 -0.6102
 7359SOL     OW22975   4.742   2.132   4.655  0.2892 -0.3832 -0.5044
 7359SOL    HW122976   4.661   2.077   4.634 -0.2734 -0.6091  1.9326
 7359SOL    HW222977   4.714   2.223   4.684  0.8251 -0.6418  0.9094
 7360SOL     OW22978   1.833   4.063   6.108  0.0522  0.0680 -0.2113
 7360SOL    HW122979   1.889   4.009   6.172 -0.6138 -0.1448  0.2001
 7360SOL    HW222980   1.786   4.135   6.159 -1.3025 -0.7457 -0.2642
 7361SOL     OW22981   3.447   1.077   1.677  0.4350 -0.1750 -0.3009
 7361SOL    HW122982   3.392   1.064   1.595  0.0817 -1.1246  0.0665
 7361SOL    HW222983   3.457   0.989   1.724  0.5695  0.3640  0.7033
 7362SOL     OW22984   1.407   5.512   5.610  0.6287 -0.2835 -0.3118
 7362SOL    HW122985   1.458   5.567   5.544  2.0833  1.9475  2.4357
 7362SOL    HW222986   1.467   5.441   5.648  0.8034  0.3784  0.7053
 7363SOL     OW22987   6.080   3.250   0.698  0.0357 -0.0294 -0.1606
 7363SOL    HW122988   6.046   3.209   0.614  0.4461  0.4817 -0.5801
 7363SOL    HW222989   6.019   3.227   0.774 -2.2526  2.2973 -1.1556
 7364SOL     OW22990   6.713   1.575   2.644 -0.2005 -0.2538  0.2893
 7364SOL    HW122991   6.781   1.598   2.574  0.7515 -2.4547  0.4017
 7364SOL    HW222992   6.631   1.537   2.600 -0.3998  0.1776  0.2821
 7365SOL     OW22993   0.804   4.424   2.635 -0.3174  0.1124  0.7810
 7365SOL    HW122994   0.885   4.478   2.616 -1.2636  1.6522  0.9590
 7365SOL    HW222995   0.722   4.478   2.617 -1.3276 -1.4072  0.5720
 7366SOL     OW22996   1.205   6.161   1.137  0.1484  0.0173  0.0952
 7366SOL    HW122997   1.180   6.164   1.234  1.1581 -2.1633  0.4677
 7366SOL    HW222998   1.276   6.230   1.119  1.4012 -0.8800  1.3841
 7367SOL     OW22999   6.304   3.266   2.639  0.2175 -0.5367 -0.0291
 7367SOL    HW123000   6.259   3.207   2.571  0.1871 -0.0233 -0.4607
 7367SOL    HW223001   6.235   3.302   2.702  0.2888 -1.2718  0.4790
 7368SOL     OW23002   3.151   3.424   3.323  0.0881  0.2471 -0.6014
 7368SOL    HW123003   3.134   3.441   3.420  0.2005  0.4776 -0.6219
 7368SOL    HW223004   3.249   3.405   3.309 -0.0095 -0.2799 -0.5984
 7369SOL     OW23005   4.012   3.248   6.105  0.0140  0.1199  0.1818
 7369SOL    HW123006   3.966   3.239   6.193 -4.1026 -1.0789 -1.8537
 7369SOL    HW223007   4.043   3.159   6.074  0.1262  0.2893 -0.2013
 7370SOL     OW23008   2.533   0.606   4.855 -0.0406  0.1214 -0.1724
 7370SOL    HW123009   2.529   0.507   4.841 -2.1197 -0.4012  3.0130
 7370SOL    HW223010   2.540   0.626   4.953 -0.4531  3.1446 -0.6593
 7371SOL     OW23011   2.447   6.958   6.035 -0.0938 -0.5196  0.0272
 7371SOL    HW123012   2.470   6.903   5.955  0.0712  1.8447 -1.6653
 7371SOL    HW223013   2.360   7.005   6.020  0.4725  0.8353  0.7219
 7372SOL     OW23014   6.762   0.518   4.995  0.0676  0.2315 -0.0816
 7372SOL    HW123015   6.856   0.502   5.027  1.1250  1.8365 -2.1330
 7372SOL    HW223016   6.752   0.613   4.969 -2.1529  0.0563 -0.0383
 7373SOL     OW23017   5.089   4.106   5.085 -0.3920  0.0234 -0.1707
 7373SOL    HW123018   4.994   4.076   5.081 -0.6178  0.6140  0.5923
 7373SOL    HW223019   5.127   4.085   5.175  0.4928 -1.0323 -0.7631
 7374SOL     OW23020   2.563   2.776   5.553  0.3328 -0.2688  0.1222
 7374SOL    HW123021   2.503   2.772   5.473 -0.0506 -0.2053  0.4024
 7374SOL    HW223022   2.657   2.793   5.524  0.2398 -0.5209 -0.3333
 7375SOL     OW23023   1.275   2.397   2.047 -0.2627  0.3754  0.3345
 7375SOL    HW123024   1.368   2.391   2.011 -0.5369 -0.5547 -0.2278
 7375SOL    HW223025   1.229   2.309   2.040 -1.2181  0.8305  0.5567
 7376SOL     OW23026   2.692   4.913   0.085 -0.0059 -0.0144 -0.7691
 7376SOL    HW123027   2.689   4.901  -0.015 -0.5928  1.0418 -0.8915
 7376SOL    HW223028   2.619   4.976   0.113 -0.6027 -1.2094  0.4687
 7377SOL     OW23029   6.216   5.090   2.531 -0.0552  0.2533 -0.4316
 7377SOL    HW123030   6.180   5.044   2.612 -2.2418  0.8723 -0.9876
 7377SOL    HW223031   6.304   5.133   2.554  0.5266 -1.5268  0.9277
 7378SOL     OW23032   0.895   0.681   5.170  0.5728  0.4822  0.3514
 7378SOL    HW123033   0.862   0.665   5.077 -1.0092  4.2032  0.0900
 7378SOL    HW223034   0.983   0.728   5.166 -0.6435  2.9606  0.4900
 7379SOL     OW23035   3.028   2.180   2.997  0.1896 -0.5118  0.0591
 7379SOL    HW123036   3.120   2.218   2.986  0.1809  1.0748  4.0222
 7379SOL    HW223037   3.034   2.081   3.007  1.3010 -0.5408 -0.6523
 7380SOL     OW23038   0.521   5.309   3.169 -0.0434 -0.5277  0.0419
 7380SOL    HW123039   0.462   5.241   3.210 -0.1227 -1.4691 -1.5409
 7380SOL    HW223040   0.498   5.319   3.072  1.3460  0.2389 -0.2357
 7381SOL     OW23041   4.459   3.607   6.177 -0.5692  0.1174 -0.2727
 7381SOL    HW123042   4.546   3.601   6.226 -1.0298 -2.4949  0.3620
 7381SOL    HW223043   4.386   3.571   6.234 -2.0809  2.0343 -0.8920
 7382SOL     OW23044   0.158   1.754   5.224 -0.5065 -0.1490  0.1121
 7382SOL    HW123045   0.212   1.712   5.150  1.0020  1.5065  0.2032
 7382SOL    HW223046   0.213   1.824   5.269 -1.3454 -1.1403  2.9050
 7383SOL     OW23047   3.139   1.025   4.101  0.1284  0.6059 -0.3409
 7383SOL    HW123048   3.056   1.081   4.095 -0.5493 -0.1001  1.7133
 7383SOL    HW223049   3.198   1.062   4.172  1.5440  0.9930 -1.6621
 7384SOL     OW23050   5.588   6.086   2.711 -0.3457 -0.3762  0.1948
 7384SOL    HW123051   5.571   6.156   2.641 -1.2441 -0.5217  0.2521
 7384SOL    HW223052   5.548   5.999   2.681  0.2667 -0.7261  0.3815
 7385SOL     OW23053   2.843   4.893   1.283 -0.4099  0.5648 -0.0759
 7385SOL    HW123054   2.759   4.947   1.282 -0.0668  1.1238  0.6704
 7385SOL    HW223055   2.855   4.852   1.374 -0.3542 -0.2742 -0.4564
 7386SOL     OW23056   5.353   5.143   0.993  0.9827 -0.3387  0.0542
 7386SOL    HW123057   5.414   5.194   1.053  0.1740 -1.3096  1.7634
 7386SOL    HW223058   5.370   5.045   1.004 -0.1211 -0.5795 -0.2636
 7387SOL     OW23059   4.974   6.133   0.070 -0.1908  0.2817  0.2720
 7387SOL    HW123060   5.067   6.097   0.062 -1.2905 -2.9099  0.7261
 7387SOL    HW223061   4.929   6.128  -0.019 -0.1759  1.2316  0.1977
 7388SOL     OW23062   0.901   4.296   1.207  0.0229 -0.1308 -0.1236
 7388SOL    HW123063   0.994   4.259   1.200 -0.4039 -0.9691 -2.2449
 7388SOL    HW223064   0.835   4.225   1.182 -1.2078  0.5028  1.1763
 7389SOL     OW23065   5.806   2.792   6.194 -0.3830  0.0434  0.2328
 7389SOL    HW123066   5.737   2.782   6.123 -1.0984 -0.0062  0.9255
 7389SOL    HW223067   5.797   2.718   6.261  1.2861 -0.8120 -0.4400
 7390SOL     OW23068   2.970   2.654   1.237 -0.2120 -0.0828 -1.2485
 7390SOL    HW123069   3.047   2.590   1.231 -0.5591 -0.8358  1.4136
 7390SOL    HW223070   2.986   2.730   1.174  1.6189 -1.3102 -2.3749
 7391SOL     OW23071   3.217   3.958   4.912  0.9947 -0.2300 -0.3273
 7391SOL    HW123072   3.145   3.943   4.845  0.9217 -0.9224 -0.1060
 7391SOL    HW223073   3.178   4.003   4.993  1.3543  1.9455 -1.2870
 7392SOL     OW23074   3.002   6.473   6.338  0.1611 -0.4286 -0.2884
 7392SOL    HW123075   3.008   6.410   6.415 -0.3595 -0.6958 -0.4565
 7392SOL    HW223076   3.044   6.560   6.362  1.3677 -1.0159 -0.2417
 7393SOL     OW23077   6.840   5.047   1.515 -0.2100  0.3852  0.1896
 7393SOL    HW123078   6.784   5.041   1.598  0.0239  3.0486  0.6292
 7393SOL    HW223079   6.840   5.141   1.482  0.2870 -0.4652 -2.4779
 7394SOL     OW23080   1.189   2.884   6.008 -0.4263  0.0893 -0.3911
 7394SOL    HW123081   1.217   2.980   6.016 -1.6558  0.4058  0.3140
 7394SOL    HW223082   1.114   2.876   5.943 -2.2967  0.0843  1.6312
 7395SOL     OW23083   2.470   4.866   1.191 -0.2851  0.3698 -0.0094
 7395SOL    HW123084   2.431   4.903   1.107  0.9373  0.2472 -0.6608
 7395SOL    HW223085   2.398   4.852   1.259 -1.4428 -0.4058 -1.3585
 7396SOL     OW23086   1.334   0.115   6.388  0.1345 -0.3148  0.5316
 7396SOL    HW123087   1.362   0.205   6.352  0.0410 -0.0824  1.0343
 7396SOL    HW223088   1.394   0.044   6.352  0.4024 -0.0110  0.3769
 7397SOL     OW23089   4.906   5.805   3.952  0.0578 -0.4304  0.1157
 7397SOL    HW123090   4.965   5.837   3.878 -0.4889 -1.8797 -1.0081
 7397SOL    HW223091   4.930   5.711   3.976 -0.7887 -0.5152  0.7110
 7398SOL     OW23092   2.039   3.565   3.673  0.3641 -0.6001  0.4413
 7398SOL    HW123093   1.995   3.639   3.620 -0.5801 -1.5804 -0.1846
 7398SOL    HW223094   2.094   3.509   3.611  0.7587 -0.6561  0.8436
 7399SOL     OW23095   0.847   2.591   3.446 -0.3515  0.3651  0.2950
 7399SOL    HW123096   0.909   2.663   3.477 -1.1817  1.2677 -0.0827
 7399SOL    HW223097   0.852   2.583   3.346 -0.3552 -0.0208  0.3224
 7400SOL     OW23098   4.168   2.972   5.417  0.6946 -0.2262 -0.3375
 7400SOL    HW123099   4.108   2.992   5.494 -0.7778 -0.1895 -1.4602
 7400SOL    HW223100   4.215   3.055   5.388  1.0036 -0.1755  0.2906
 7401SOL     OW23101   0.154   1.113   3.250 -0.2983 -0.2902  0.3010
 7401SOL    HW123102   0.182   1.199   3.293  0.1387 -1.4145  2.3837
 7401SOL    HW223103   0.137   1.045   3.320 -1.9373 -1.5641 -1.2354
 7402SOL     OW23104   3.800   3.520   6.486 -0.2272  0.2624  0.1761
 7402SOL    HW123105   3.779   3.565   6.573 -1.5114 -1.7791  0.9960
 7402SOL    HW223106   3.789   3.421   6.496  0.4025 -0.0982 -2.1034
 7403SOL     OW23107   0.694   5.061   2.516  0.4592 -0.2875  0.2007
 7403SOL    HW123108   0.736   5.092   2.430 -1.2156 -2.1101 -1.3878
 7403SOL    HW223109   0.725   5.119   2.591  0.9488  2.2569 -1.8199
 7404SOL     OW23110   3.462   5.219   1.389 -0.2748  0.2529  0.0196
 7404SOL    HW123111   3.367   5.225   1.358  0.3296 -2.7258 -2.8976
 7404SOL    HW223112   3.493   5.124   1.385  3.1231  1.2251 -0.0199
 7405SOL     OW23113   4.943   5.037   4.672 -0.5116 -0.1766  0.2477
 7405SOL    HW123114   5.009   5.001   4.738 -0.4940  0.0799  0.3702
 7405SOL    HW223115   4.917   5.130   4.698  2.1693  1.3521 -2.0232
 7406SOL     OW23116   0.542   3.186   3.665  0.3871  0.2480 -0.1133
 7406SOL    HW123117   0.462   3.242   3.646 -0.4836 -0.7762  0.4251
 7406SOL    HW223118   0.554   3.119   3.591 -1.2257 -1.7490  1.3149
 7407SOL     OW23119   5.936   6.083   4.918  0.5769  0.0490  0.9588
 7407SOL    HW123120   5.914   6.179   4.935  0.4281  0.1449  0.2370
 7407SOL    HW223121   6.028   6.063   4.953 -0.2701 -0.1569  3.2623
 7408SOL     OW23122   5.043   3.679   0.260  1.0426 -0.3481  0.2347
 7408SOL    HW123123   5.112   3.656   0.329  0.2946 -1.3190  0.6876
 7408SOL    HW223124   5.085   3.682   0.170  1.9151  0.3298  0.6511
 7409SOL     OW23125   6.248   5.167   6.886  0.2038 -0.0774  0.4544
 7409SOL    HW123126   6.227   5.086   6.831  2.1939  0.2829 -0.9393
 7409SOL    HW223127   6.339   5.157   6.926  0.5984  1.5823  0.0235
 7410SOL     OW23128   0.775   6.795   6.437 -0.0786 -0.0238 -0.4528
 7410SOL    HW123129   0.838   6.864   6.473 -0.1129  0.6779 -1.6748
 7410SOL    HW223130   0.682   6.816   6.465  0.0257 -0.1267 -0.0221
 7411SOL     OW23131   3.673   0.754   0.795  0.2188 -0.1949 -0.6679
 7411SOL    HW123132   3.657   0.682   0.863  0.7360  0.9285  0.6910
 7411SOL    HW223133   3.690   0.713   0.706  0.4386 -1.7479  0.0649
 7412SOL     OW23134   2.765   6.986   1.607 -0.3728  0.0924  0.2043
 7412SOL    HW123135   2.692   6.997   1.674 -1.2526  2.0222 -0.9911
 7412SOL    HW223136   2.847   7.033   1.638 -0.2983 -0.2879  0.5902
 7413SOL     OW23137   6.217   3.740   2.979  0.1348  0.8953 -1.0132
 7413SOL    HW123138   6.125   3.706   2.960  0.8087 -1.0645 -0.9470
 7413SOL    HW223139   6.250   3.701   3.065 -0.0199  3.8490  0.5403
 7414SOL     OW23140   5.121   0.685   3.442  0.0981  0.1739 -0.3484
 7414SOL    HW123141   5.120   0.589   3.416  1.8790  0.2901 -1.0152
 7414SOL    HW223142   5.148   0.741   3.364 -0.2294  1.1470  0.2098
 7415SOL     OW23143   2.840   4.816   4.022  0.0856  0.1232  0.0574
 7415SOL    HW123144   2.833   4.771   4.111 -0.3672 -1.2114 -0.6230
 7415SOL    HW223145   2.748   4.838   3.988  0.1246 -0.9675 -0.8346
 7416SOL     OW23146   3.014   5.874   2.714 -0.1939 -0.7195 -0.3057
 7416SOL    HW123147   2.980   5.917   2.798  0.6305 -0.6489 -0.0010
 7416SOL    HW223148   3.076   5.800   2.738  0.4848 -0.3394 -0.8644
 7417SOL     OW23149   3.407   1.090   0.469  0.0326  0.2474 -0.1459
 7417SOL    HW123150   3.323   1.099   0.523 -1.4222 -0.5140 -2.1553
 7417SOL    HW223151   3.451   1.179   0.460 -0.4233  0.6218  1.0912
 7418SOL     OW23152   1.070   6.037   0.655  0.4058 -0.0041  0.4790
 7418SOL    HW123153   1.132   5.977   0.704  0.5881  0.8303  1.2859
 7418SOL    HW223154   1.005   6.079   0.719 -1.1823 -1.0584 -0.3714
 7419SOL     OW23155   1.434   3.200   2.843 -0.2135  0.1255 -0.0661
 7419SOL    HW123156   1.336   3.181   2.843 -0.2217 -0.0073  1.8388
 7419SOL    HW223157   1.455   3.262   2.918  1.2130 -0.0730 -0.2827
 7420SOL     OW23158   3.564   0.201   2.670  0.2037 -0.0504  0.6402
 7420SOL    HW123159   3.618   0.248   2.739  0.8760 -1.4633  1.1088
 7420SOL    HW223160   3.513   0.126   2.712  0.5700 -0.8946 -0.3534
 7421SOL     OW23161   5.233   1.832   1.615 -0.1882 -0.3154  0.2852
 7421SOL    HW123162   5.263   1.891   1.539 -0.7823 -0.0239  0.2703
 7421SOL    HW223163   5.283   1.745   1.611 -0.1204 -0.2548 -0.3679
 7422SOL     OW23164   6.920   4.157   0.644 -0.7957  0.2741  0.5290
 7422SOL    HW123165   7.017   4.134   0.640 -0.2109  1.9623  2.7823
 7422SOL    HW223166   6.887   4.178   0.552  0.4264 -2.1422 -0.5575
 7423SOL     OW23167   6.187   3.108   2.005  0.0360 -0.2749  0.2927
 7423SOL    HW123168   6.134   3.029   2.036  0.5219 -1.3559 -1.4926
 7423SOL    HW223169   6.262   3.124   2.068 -0.5701 -0.7049  1.1401
 7424SOL     OW23170   6.772   1.349   5.803  0.0778  1.0457 -0.0938
 7424SOL    HW123171   6.860   1.361   5.847 -0.3079  0.2591  0.9286
 7424SOL    HW223172   6.785   1.303   5.715  0.6385  0.2189  0.4008
 7425SOL     OW23173   4.684   6.627   6.689  0.5530  0.1173  0.1801
 7425SOL    HW123174   4.702   6.719   6.723 -1.7073  1.0254 -0.8601
 7425SOL    HW223175   4.700   6.560   6.762 -0.3354  1.5908  1.7920
 7426SOL     OW23176   2.053   2.123   4.135 -1.3010  0.2451  0.3081
 7426SOL    HW123177   2.097   2.129   4.225  0.2068  2.9253 -0.4947
 7426SOL    HW223178   2.044   2.027   4.108  2.7564 -0.5685  1.2323
 7427SOL     OW23179   4.690   2.054   6.812  0.4820 -0.0156  0.1736
 7427SOL    HW123180   4.646   2.143   6.804  0.6246  0.0961  0.6248
 7427SOL    HW223181   4.777   2.055   6.764  1.3781  0.6817  1.7247
 7428SOL     OW23182   0.709   2.352   3.408 -0.4184  0.3079  0.1760
 7428SOL    HW123183   0.731   2.436   3.459  1.3501 -0.8087  1.3648
 7428SOL    HW223184   0.697   2.374   3.311  1.3580  1.7824  0.2255
 7429SOL     OW23185   6.135   4.922   2.736 -0.6072  0.1675 -0.0215
 7429SOL    HW123186   6.206   4.901   2.803  0.0886 -0.9553 -1.0554
 7429SOL    HW223187   6.045   4.921   2.780 -0.0313  1.3869  1.2642
 7430SOL     OW23188   2.001   4.508   1.352 -0.4714 -0.2909  0.1217
 7430SOL    HW123189   1.908   4.473   1.337  0.2279 -0.8108 -3.9748
 7430SOL    HW223190   2.066   4.432   1.352  0.2200  0.2886  0.2484
 7431SOL     OW23191   1.023   0.964   1.715  0.6339  0.3903 -0.9472
 7431SOL    HW123192   1.105   1.022   1.710  1.0096 -0.0919 -0.5434
 7431SOL    HW223193   0.941   1.020   1.704  0.9653  1.0927  0.0329
 7432SOL     OW23194   1.490   6.515   3.908  0.4054 -0.3347 -0.5764
 7432SOL    HW123195   1.425   6.446   3.940  0.3444  0.2554  0.5944
 7432SOL    HW223196   1.470   6.603   3.952  1.1212  0.1928 -1.2799
 7433SOL     OW23197   3.717   5.056   0.758  0.1278 -0.0076  0.8521
 7433SOL    HW123198   3.693   4.961   0.738 -2.1006  0.7390 -0.4038
 7433SOL    HW223199   3.652   5.117   0.712  0.7585  2.1133  2.6089
 7434SOL     OW23200   4.349   3.583   5.243  0.5244  0.6499  0.5968
 7434SOL    HW123201   4.419   3.535   5.297 -0.7443 -0.0412  1.7032
 7434SOL    HW223202   4.298   3.516   5.189  0.9595  1.1997 -0.5372
 7435SOL     OW23203   5.074   6.121   1.625 -0.0827  0.4731  0.0775
 7435SOL    HW123204   5.125   6.042   1.591  0.3349  1.4417 -1.6669
 7435SOL    HW223205   4.976   6.104   1.615 -0.0720 -0.5044  1.3740
 7436SOL     OW23206   5.288   4.577   6.209 -0.1104 -0.2548 -0.3612
 7436SOL    HW123207   5.357   4.517   6.168 -0.7665  0.6291 -2.9799
 7436SOL    HW223208   5.323   4.671   6.212 -0.6931 -0.0332 -0.4251
 7437SOL     OW23209   2.005   0.724   0.153  0.7946 -0.3107  0.6503
 7437SOL    HW123210   2.103   0.708   0.154  0.7846 -0.4962 -0.5055
 7437SOL    HW223211   1.957   0.637   0.149  0.5630 -0.2362  1.5776
 7438SOL     OW23212   1.338   0.139   0.904  0.4419 -0.7372 -0.0556
 7438SOL    HW123213   1.373   0.217   0.852 -0.3684 -0.2148  0.1561
 7438SOL    HW223214   1.245   0.117   0.873  0.1737 -0.7874  0.7625
 7439SOL     OW23215   2.076   5.240   5.882  0.3672  0.6858 -0.8117
 7439SOL    HW123216   2.027   5.240   5.795  0.4680  2.7139 -0.9181
 7439SOL    HW223217   2.010   5.238   5.957  0.2465  0.3043 -0.9215
 7440SOL     OW23218   0.693   2.394   3.153 -0.5402 -0.4142 -0.1976
 7440SOL    HW123219   0.787   2.369   3.130  0.2308  1.2326  0.9916
 7440SOL    HW223220   0.669   2.479   3.105 -1.9042 -1.4696 -1.4855
 7441SOL     OW23221   5.108   5.442   6.079 -0.3921  0.3277 -0.3612
 7441SOL    HW123222   5.017   5.424   6.116 -0.1639 -0.1579 -0.0259
 7441SOL    HW223223   5.111   5.414   5.983 -0.9411  1.4499 -0.7204
 7442SOL     OW23224   5.721   1.645   0.520  0.2853  0.0821 -0.1009
 7442SOL    HW123225   5.752   1.737   0.498 -2.8745  1.9744  2.4190
 7442SOL    HW223226   5.782   1.605   0.588 -0.6525  2.2564  2.1701
 7443SOL     OW23227   6.678   5.731   0.894 -0.0068 -0.1371  0.0793
 7443SOL    HW123228   6.761   5.676   0.899 -0.0664 -0.3727 -1.2046
 7443SOL    HW223229   6.618   5.708   0.971  1.8800  1.4043  2.1261
 7444SOL     OW23230   3.146   2.215   0.042 -0.0037  0.3144 -0.0170
 7444SOL    HW123231   3.069   2.170  -0.002 -0.1314  0.7989 -0.2970
 7444SOL    HW223232   3.211   2.146   0.074 -0.9263 -0.1430  0.9290
 7445SOL     OW23233   1.700   5.427   2.503 -0.3398 -0.2936 -0.6008
 7445SOL    HW123234   1.648   5.377   2.434 -1.2781 -1.5619  0.9432
 7445SOL    HW223235   1.754   5.363   2.558  2.2664  0.9011 -1.5875
 7446SOL     OW23236   5.297   3.965   6.413 -0.1642 -0.2800  0.1843
 7446SOL    HW123237   5.237   3.974   6.334 -0.6226 -0.1655  0.5372
 7446SOL    HW223238   5.334   4.055   6.437 -0.1788 -0.2817  0.2145
 7447SOL     OW23239   0.212   6.247   1.403 -0.5136  0.8047 -0.1638
 7447SOL    HW123240   0.168   6.167   1.361  0.8666  0.1747 -0.4633
 7447SOL    HW223241   0.149   6.324   1.402 -1.1195  0.3349 -1.8761
 7448SOL     OW23242   5.060   0.814   5.135  0.0244 -0.1984  0.0457
 7448SOL    HW123243   5.072   0.823   5.036  1.9169 -0.3404  0.2178
 7448SOL    HW223244   5.098   0.896   5.180 -2.3552  0.6688  0.6102
 7449SOL     OW23245   1.423   3.454   6.728  0.4648 -0.2255 -0.2309
 7449SOL    HW123246   1.350   3.434   6.794  0.4785 -2.1632 -0.7323
 7449SOL    HW223247   1.423   3.552   6.707 -1.4054 -0.0297  0.4557
 7450SOL     OW23248   6.917   2.856   2.242  0.3723  0.5605 -0.3570
 7450SOL    HW123249   6.908   2.891   2.148  1.5874  0.7400 -0.4195
 7450SOL    HW223250   6.850   2.783   2.256  1.3820 -0.7698 -1.9848
 7451SOL     OW23251   1.112   4.708   2.190 -0.2047  0.1938  0.2739
 7451SOL    HW123252   1.014   4.691   2.181 -0.3302  1.1301 -0.1734
 7451SOL    HW223253   1.151   4.729   2.100  0.1765  1.0000  0.6187
 7452SOL     OW23254   5.361   0.106   5.328  0.2466  0.1068 -0.2668
 7452SOL    HW123255   5.315   0.170   5.267 -0.1840  0.4991  0.4477
 7452SOL    HW223256   5.394   0.027   5.276  0.9089  0.9654 -1.1870
 7453SOL     OW23257   4.186   6.414   6.032 -0.3883  0.2938 -0.2231
 7453SOL    HW123258   4.246   6.491   6.011  1.5901 -0.8643  0.9268
 7453SOL    HW223259   4.117   6.405   5.960 -0.9330  3.3001 -0.2318
 7454SOL     OW23260   0.240   1.806   2.093  0.4431 -0.7788 -0.4467
 7454SOL    HW123261   0.332   1.770   2.104  0.4019 -0.8862 -0.4517
 7454SOL    HW223262   0.214   1.803   1.996 -0.0083 -1.8414 -0.3023
 7455SOL     OW23263   6.541   1.953   3.671  0.8170  0.2390 -0.1351
 7455SOL    HW123264   6.537   1.867   3.620 -0.1401 -0.9706  1.8414
 7455SOL    HW223265   6.476   2.018   3.631 -0.3279 -0.8730 -0.1376
 7456SOL     OW23266   1.794   2.840   4.795 -0.0591 -0.0885  0.3401
 7456SOL    HW123267   1.886   2.855   4.831 -0.4644  0.2672  1.2867
 7456SOL    HW223268   1.736   2.918   4.820 -0.2916  0.3541 -1.4425
 7457SOL     OW23269   3.954   1.149   6.183 -0.0005 -0.4874 -0.5927
 7457SOL    HW123270   4.006   1.086   6.125  0.2135 -2.2205  1.3314
 7457SOL    HW223271   3.868   1.105   6.210 -0.0184  0.1760  0.4891
 7458SOL     OW23272   0.694   6.914   5.422 -0.4471  0.2491 -0.2387
 7458SOL    HW123273   0.662   6.958   5.337  0.5635  0.7941 -0.3557
 7458SOL    HW223274   0.792   6.896   5.415 -0.1530  1.1741  1.1841
 7459SOL     OW23275   5.374   6.604   2.803 -0.0769 -1.2900  0.0767
 7459SOL    HW123276   5.389   6.507   2.820 -2.0051 -1.6772 -0.2040
 7459SOL    HW223277   5.322   6.643   2.879 -2.9839 -1.5099 -1.6376
 7460SOL     OW23278   0.395   5.126   5.507 -0.6685  0.1791  0.2903
 7460SOL    HW123279   0.328   5.088   5.570 -0.5957 -0.6666 -0.1342
 7460SOL    HW223280   0.441   5.203   5.550  1.7799 -2.3952  2.6399
 7461SOL     OW23281   6.986   0.619   6.821 -0.0972 -0.0272 -0.1612
 7461SOL    HW123282   6.994   0.519   6.828 -0.0282  0.0556  1.1138
 7461SOL    HW223283   7.025   0.661   6.902  1.3151  1.1321 -1.3748
 7462SOL     OW23284   1.963   3.999   2.532 -0.8084  0.6931  0.4364
 7462SOL    HW123285   1.943   4.038   2.622  0.4089 -2.2166  2.1147
 7462SOL    HW223286   1.905   3.920   2.516 -0.5044  0.7379 -1.0485
 7463SOL     OW23287   3.541   5.076   6.692  0.2393 -0.4424 -0.4441
 7463SOL    HW123288   3.621   5.017   6.679  1.0489  0.6533 -0.6169
 7463SOL    HW223289   3.538   5.107   6.787 -2.0020 -3.2628  0.5155
 7464SOL     OW23290   6.514   6.854   6.089 -0.0083 -0.1740  0.0139
 7464SOL    HW123291   6.466   6.930   6.045 -0.1222  0.5572  1.3630
 7464SOL    HW223292   6.493   6.769   6.040  0.2158  0.6488 -1.5955
 7465SOL     OW23293   2.500   5.560   5.920 -0.3398  0.1909  0.2060
 7465SOL    HW123294   2.486   5.611   5.835  1.8256  1.5663  0.5901
 7465SOL    HW223295   2.562   5.483   5.902 -0.0708  0.3401  0.4986
 7466SOL     OW23296   6.142   6.790   6.586  0.3199 -0.2043 -0.0531
 7466SOL    HW123297   6.231   6.831   6.608  0.0971  0.6798 -0.7705
 7466SOL    HW223298   6.128   6.792   6.487 -0.8490  0.4285  0.1052
 7467SOL     OW23299   0.362   3.129   5.409  0.7872 -0.0495  0.2959
 7467SOL    HW123300   0.272   3.169   5.395  0.6034 -0.0038  1.4807
 7467SOL    HW223301   0.358   3.030   5.394  0.6564  0.0203 -0.1345
 7468SOL     OW23302   6.612   5.337   3.719 -0.6253  0.3825  0.7468
 7468SOL    HW123303   6.670   5.407   3.762 -1.2695 -0.4275  3.1035
 7468SOL    HW223304   6.552   5.380   3.651  0.2077  1.8083  0.8727
 7469SOL     OW23305   6.276   0.496   0.971  0.2677 -0.0722  0.4945
 7469SOL    HW123306   6.370   0.470   0.952  0.2536  0.9094 -1.0947
 7469SOL    HW223307   6.261   0.501   1.070  1.1012 -2.9100  0.8343
 7470SOL     OW23308   6.192   1.679   4.588  0.3514  0.6207  0.5408
 7470SOL    HW123309   6.290   1.689   4.575  0.4596  1.3868  1.7906
 7470SOL    HW223310   6.150   1.770   4.591 -0.3565  0.3065  0.2982
 7471SOL     OW23311   3.359   6.789   6.675  0.2667 -0.1631  0.1230
 7471SOL    HW123312   3.420   6.867   6.690  0.6520 -0.4685  0.1743
 7471SOL    HW223313   3.350   6.771   6.577  2.7887 -2.0462  0.1389
 7472SOL     OW23314   0.666   1.640   4.827  0.5563  0.1723  0.3114
 7472SOL    HW123315   0.590   1.633   4.761  1.8752 -0.6254 -1.1969
 7472SOL    HW223316   0.654   1.573   4.899 -1.1910  1.4065  1.2380
 7473SOL     OW23317   3.199   5.211   5.393  0.0989 -0.1208  0.1529
 7473SOL    HW123318   3.148   5.148   5.452  1.4338 -1.9074 -0.5118
 7473SOL    HW223319   3.251   5.275   5.450  1.0086 -1.5172  0.9447
 7474SOL     OW23320   1.712   2.069   6.056 -0.0911  0.2714  0.0438
 7474SOL    HW123321   1.685   2.086   5.961  0.0570 -1.5264 -0.3693
 7474SOL    HW223322   1.761   2.148   6.092  1.1386  0.4689 -1.8796
 7475SOL     OW23323   5.689   2.152   2.302 -0.4573 -0.0415 -0.3114
 7475SOL    HW123324   5.718   2.100   2.383 -1.1939  0.8812  0.5826
 7475SOL    HW223325   5.606   2.111   2.264  0.0804 -0.6757 -0.8071
 7476SOL     OW23326   3.755   1.389   2.035  0.1380 -0.3684 -0.0801
 7476SOL    HW123327   3.762   1.445   2.118 -0.2484 -2.3171  1.3592
 7476SOL    HW223328   3.731   1.447   1.957  4.0919  2.1763  0.3083
 7477SOL     OW23329   0.338   2.427   4.470 -0.2689  0.5955  0.3806
 7477SOL    HW123330   0.278   2.500   4.501  0.0863  1.0754 -0.0387
 7477SOL    HW223331   0.284   2.346   4.447 -0.5284  0.1823  2.3384
 7478SOL     OW23332   6.149   2.450   6.758  0.0871  0.0774 -1.1431
 7478SOL    HW123333   6.138   2.547   6.781  2.8649  0.2951 -0.3540
 7478SOL    HW223334   6.105   2.432   6.670 -4.5236  0.9040  0.7054
 7479SOL     OW23335   5.501   2.707   3.240 -0.1095  0.1501 -0.1326
 7479SOL    HW123336   5.452   2.767   3.176  0.7475  0.6420 -0.3358
 7479SOL    HW223337   5.456   2.618   3.243 -1.2332  0.7024 -0.0435
 7480SOL     OW23338   2.349   4.090   1.818  0.1000  0.2410  0.0262
 7480SOL    HW123339   2.384   4.184   1.826  0.5879 -0.0891  2.9263
 7480SOL    HW223340   2.411   4.036   1.762  1.1544  1.0824  0.3464
 7481SOL     OW23341   6.582   0.028   0.967 -0.2719 -0.4835  0.0664
 7481SOL    HW123342   6.526  -0.021   1.034 -0.0070  0.9138  1.3585
 7481SOL    HW223343   6.523   0.076   0.902 -0.6433  1.1237  1.5231
 7482SOL     OW23344   4.472   1.180   2.682  0.4611 -0.2356 -0.5531
 7482SOL    HW123345   4.457   1.136   2.593 -1.6941 -1.9201  0.5488
 7482SOL    HW223346   4.487   1.278   2.668  0.6142 -0.5248 -2.7904
 7483SOL     OW23347   5.613   2.533   2.334 -0.2769  0.7709  0.4773
 7483SOL    HW123348   5.629   2.632   2.339 -0.0472  0.7386  0.4192
 7483SOL    HW223349   5.692   2.485   2.374  0.1321  0.5817 -0.5448
 7484SOL     OW23350   2.492   5.109   4.253  0.3975 -0.4874  0.0986
 7484SOL    HW123351   2.437   5.164   4.317 -1.0338 -0.6137 -0.9557
 7484SOL    HW223352   2.442   5.026   4.231  0.7056 -0.2922 -1.4178
 7485SOL     OW23353   3.716   6.896   4.364 -0.7447 -0.0049 -0.1938
 7485SOL    HW123354   3.679   6.928   4.276 -0.3462 -0.2826 -0.4680
 7485SOL    HW223355   3.782   6.823   4.347 -1.1758 -0.5287  0.3863
 7486SOL     OW23356   1.910   6.188   2.705 -0.2728 -0.1162 -0.1528
 7486SOL    HW123357   1.988   6.153   2.756  0.1918  3.1854  1.7307
 7486SOL    HW223358   1.840   6.220   2.769 -2.6096 -1.6296 -1.7816
 7487SOL     OW23359   3.030   5.853   4.128 -0.2408 -0.7209  0.4575
 7487SOL    HW123360   3.011   5.923   4.197 -1.3817 -0.7155  0.1652
 7487SOL    HW223361   2.967   5.777   4.141 -1.1466 -0.2866 -1.1753
 7488SOL     OW23362   2.845   6.502   4.242 -0.1691 -0.1456 -0.7305
 7488SOL    HW123363   2.913   6.436   4.274 -0.3038 -0.9505 -2.0431
 7488SOL    HW223364   2.840   6.578   4.307 -0.4553 -1.7021  1.1792
 7489SOL     OW23365   0.872   3.708   5.962 -0.1897 -0.0721  0.3340
 7489SOL    HW123366   0.811   3.656   6.022  1.1135 -1.8490  0.1860
 7489SOL    HW223367   0.885   3.659   5.876 -0.8088  1.7019 -0.8400
 7490SOL     OW23368   2.089   0.449   4.142 -0.5817  0.0652 -0.1215
 7490SOL    HW123369   2.001   0.477   4.179 -0.3877 -0.3793  0.6990
 7490SOL    HW223370   2.152   0.527   4.144 -0.2195 -0.2281  1.6094
 7491SOL     OW23371   6.290   5.395   0.351  0.0296  0.2486 -0.0456
 7491SOL    HW123372   6.283   5.431   0.444 -1.5315 -1.4112  0.5293
 7491SOL    HW223373   6.200   5.393   0.309  0.7190  1.0125 -1.6518
 7492SOL     OW23374   0.205   1.423   3.187  0.4772  0.1232 -0.2602
 7492SOL    HW123375   0.214   1.519   3.211  0.7699 -0.1206  0.6649
 7492SOL    HW223376   0.293   1.377   3.196  0.1457 -0.4347  0.3071
 7493SOL     OW23377   6.462   2.667   6.044 -0.3225  0.0019  0.2322
 7493SOL    HW123378   6.540   2.720   6.078  2.6060 -2.0967 -2.6227
 7493SOL    HW223379   6.469   2.573   6.077 -1.0187 -0.4890 -0.9540
 7494SOL     OW23380   5.740   2.267   4.144 -0.2113 -0.0389  0.0666
 7494SOL    HW123381   5.669   2.335   4.125  0.2650 -0.2315 -2.8219
 7494SOL    HW223382   5.816   2.310   4.192 -0.2140  1.3724 -1.1219
 7495SOL     OW23383   0.477   6.862   6.448  0.0133 -0.3549  0.8176
 7495SOL    HW123384   0.431   6.909   6.372 -0.8877  2.1105  2.7664
 7495SOL    HW223385   0.442   6.768   6.454 -1.8043  0.2024 -0.2298
 7496SOL     OW23386   0.200   3.406   3.287  0.1882  0.5661 -0.3187
 7496SOL    HW123387   0.112   3.455   3.290  0.8455  1.9404 -1.7804
 7496SOL    HW223388   0.267   3.456   3.342  0.5255  0.5667 -0.7296
 7497SOL     OW23389   1.410   5.620   7.012 -0.1876 -0.6117  0.0140
 7497SOL    HW123390   1.498   5.641   7.055  0.2692  0.0983 -1.2347
 7497SOL    HW223391   1.385   5.694   6.950 -2.3743 -0.1033  1.4047
 7498SOL     OW23392   3.947   1.607   6.169 -0.0522  0.1711 -0.1641
 7498SOL    HW123393   3.892   1.523   6.177 -0.0611  0.2597  0.8275
 7498SOL    HW223394   3.913   1.662   6.093 -2.8432  1.3057  1.7540
 7499SOL     OW23395   4.784   1.174   2.614 -0.2717  0.0249 -0.4248
 7499SOL    HW123396   4.739   1.135   2.694  1.3901 -1.6685 -0.2627
 7499SOL    HW223397   4.813   1.268   2.634  3.3831 -1.4608  2.4165
 7500SOL     OW23398   4.389   4.117   5.346  0.0305 -0.0157  0.1081
 7500SOL    HW123399   4.375   4.019   5.340 -0.3694  0.0625 -0.2689
 7500SOL    HW223400   4.486   4.138   5.338  0.2231 -0.4510  1.1745
 7501SOL     OW23401   4.918   4.790   3.441  0.3913 -0.0401 -0.3336
 7501SOL    HW123402   4.952   4.717   3.501 -1.3135 -0.9404 -0.4100
 7501SOL    HW223403   4.961   4.782   3.351 -0.5832 -1.6823 -0.6959
 7502SOL     OW23404   2.251   0.232   5.663 -0.1372 -0.3417  0.6028
 7502SOL    HW123405   2.283   0.138   5.645 -1.2143 -1.3863  3.5869
 7502SOL    HW223406   2.151   0.235   5.655  0.0065  1.0584 -1.2321
 7503SOL     OW23407   1.576   0.193   1.053  0.0891 -0.4102 -0.2744
 7503SOL    HW123408   1.486   0.235   1.065 -0.4431 -1.2382 -1.3058
 7503SOL    HW223409   1.566   0.095   1.039  1.1895 -0.5742 -0.0123
 7504SOL     OW23410   2.278   5.974   4.526  0.3461  0.2759  0.1124
 7504SOL    HW123411   2.378   5.978   4.531  0.2781  0.9870  2.0683
 7504SOL    HW223412   2.240   6.064   4.550 -0.7634 -0.2291  0.3236
 7505SOL     OW23413   0.644   0.995   1.001 -0.3208 -0.5252  0.4442
 7505SOL    HW123414   0.633   0.904   1.040 -1.5739  1.0709  4.2529
 7505SOL    HW223415   0.555   1.040   0.994  0.3084  0.5896 -0.9242
 7506SOL     OW23416   5.253   1.338   5.075 -0.1731 -0.1432 -0.0272
 7506SOL    HW123417   5.350   1.359   5.083 -0.2087  0.3095 -0.7133
 7506SOL    HW223418   5.219   1.368   4.986 -0.7088 -1.2078 -0.2044
 7507SOL     OW23419   4.524   2.563   3.387  0.4457  0.1717  0.0594
 7507SOL    HW123420   4.491   2.495   3.323  2.1221 -0.4436 -0.1907
 7507SOL    HW223421   4.535   2.522   3.478  4.2634 -0.8596 -0.6884
 7508SOL     OW23422   1.789   5.550   3.076 -0.0065 -0.0981  0.1780
 7508SOL    HW123423   1.822   5.461   3.105 -0.6877  0.0349  1.4131
 7508SOL    HW223424   1.857   5.620   3.097 -0.1034 -0.1309  0.6130
 7509SOL     OW23425   6.987   3.718   3.243 -0.1609 -0.0046  0.0698
 7509SOL    HW123426   6.953   3.635   3.287 -0.7775 -1.2910 -2.6424
 7509SOL    HW223427   7.087   3.711   3.233  0.0606  0.5495  1.6644
 7510SOL     OW23428   3.224   4.038   3.760 -0.3145  0.6795  0.2945
 7510SOL    HW123429   3.154   3.999   3.699  1.9910 -0.9143 -1.5173
 7510SOL    HW223430   3.288   4.093   3.707  1.3826 -0.1786  1.3687
 7511SOL     OW23431   3.646   6.912   4.626  0.2837  0.3887  0.6197
 7511SOL    HW123432   3.676   6.883   4.535 -1.2879 -1.0474  0.5185
 7511SOL    HW223433   3.580   6.987   4.617 -0.8911 -0.6298  0.4536
 7512SOL     OW23434   1.291   0.661   6.269  0.0874  0.5799 -0.8593
 7512SOL    HW123435   1.317   0.597   6.197 -0.7456 -0.2566 -0.4317
 7512SOL    HW223436   1.195   0.687   6.258 -0.1059  0.2771  0.0729
 7513SOL     OW23437   2.004   0.349   1.445  0.1048  0.0044  0.1927
 7513SOL    HW123438   1.930   0.307   1.393 -0.2996  1.3730 -0.3635
 7513SOL    HW223439   1.975   0.360   1.540 -0.1548 -0.0650  0.1228
 7514SOL     OW23440   1.162   4.845   4.875  0.0423  0.1526 -0.7438
 7514SOL    HW123441   1.098   4.819   4.803  1.7773 -0.0910 -2.2592
 7514SOL    HW223442   1.213   4.926   4.848  0.8784 -0.0675  0.1145
 7515SOL     OW23443   5.489   4.536   4.086 -0.4617 -0.1195  0.2247
 7515SOL    HW123444   5.567   4.476   4.098 -0.3897 -0.0522  0.0952
 7515SOL    HW223445   5.409   4.497   4.131 -1.2181 -1.8409 -2.3709
 7516SOL     OW23446   5.777   5.391   5.390  0.2899 -0.2642  0.6356
 7516SOL    HW123447   5.803   5.407   5.485 -0.4171 -1.7882  1.1146
 7516SOL    HW223448   5.859   5.384   5.333  0.7054  1.2244  1.0013
 7517SOL     OW23449   0.902   1.797   1.162  0.1084 -0.0077 -0.0260
 7517SOL    HW123450   0.931   1.882   1.207  0.6068 -0.3670  0.3392
 7517SOL    HW223451   0.863   1.819   1.072 -0.5536  0.6774  0.4175
 7518SOL     OW23452   4.832   4.038   4.035 -0.9980 -0.4207  0.1015
 7518SOL    HW123453   4.822   3.954   4.087 -0.4638 -0.0055  0.8877
 7518SOL    HW223454   4.888   4.021   3.954  2.1541 -0.1149  2.0776
 7519SOL     OW23455   6.367   0.149   5.675  0.5409 -0.0396 -0.1850
 7519SOL    HW123456   6.324   0.236   5.699 -0.8727 -0.0132 -2.4999
 7519SOL    HW223457   6.451   0.167   5.623  1.4882 -0.0999  1.2739
 7520SOL     OW23458   4.557   6.922   3.711 -0.1971 -0.1347  0.0233
 7520SOL    HW123459   4.494   6.958   3.642  0.0642 -0.1962 -0.2491
 7520SOL    HW223460   4.544   6.823   3.720 -0.1392 -0.1484 -0.0379
 7521SOL     OW23461   6.347   1.506   5.896  0.3153  0.0733 -0.3378
 7521SOL    HW123462   6.252   1.530   5.916  0.7065  1.0324  0.4412
 7521SOL    HW223463   6.386   1.573   5.833  0.5214 -0.2394 -0.5454
 7522SOL     OW23464   2.054   2.127   6.145 -0.2377  0.2560  0.3197
 7522SOL    HW123465   2.007   2.039   6.143  0.0415  0.0839 -2.6665
 7522SOL    HW223466   1.995   2.195   6.189 -0.8072 -1.1561  1.8930
 7523SOL     OW23467   4.606   0.153   5.401  0.6163 -0.3825 -0.0041
 7523SOL    HW123468   4.698   0.186   5.419  0.3191  0.3581  0.1577
 7523SOL    HW223469   4.543   0.187   5.470  0.2600 -1.0977  0.0390
 7524SOL     OW23470   0.032   2.595   5.182 -0.2268 -0.2445  0.2882
 7524SOL    HW123471   0.116   2.642   5.155 -0.6207 -0.9017 -2.3249
 7524SOL    HW223472   0.050   2.497   5.191 -0.5727 -0.2998  0.3878
 7525SOL     OW23473   3.840   0.580   0.232  0.2664 -0.5847  0.3107
 7525SOL    HW123474   3.792   0.493   0.223  0.0865 -0.3498 -1.4833
 7525SOL    HW223475   3.936   0.563   0.253  0.3966 -1.2841 -0.7433
 7526SOL     OW23476   3.018   1.959   0.833  0.2605 -0.3819  0.1641
 7526SOL    HW123477   3.015   1.917   0.924 -0.1114  1.2562  0.9457
 7526SOL    HW223478   2.925   1.982   0.803  0.4971  0.5197  0.0849
 7527SOL     OW23479   4.035   6.070   4.695 -0.5210 -0.3275  0.1469
 7527SOL    HW123480   3.969   6.116   4.754 -1.1500  0.1832 -0.9070
 7527SOL    HW223481   4.127   6.104   4.714 -1.1092  2.6283 -1.6237
 7528SOL     OW23482   0.909   2.531   0.904 -0.4011 -0.0664 -0.0506
 7528SOL    HW123483   0.970   2.463   0.944  0.3557 -0.3685 -1.6238
 7528SOL    HW223484   0.918   2.617   0.954 -0.0899 -0.6401  0.9044
 7529SOL     OW23485   3.637   0.452   4.496 -0.4783 -0.2602 -0.2181
 7529SOL    HW123486   3.689   0.367   4.503  0.0229  0.1105  0.6796
 7529SOL    HW223487   3.674   0.508   4.423  1.1900  0.5168  1.1452
 7530SOL     OW23488   0.288   0.986   1.431 -0.0519 -0.3895 -0.4705
 7530SOL    HW123489   0.377   1.008   1.470 -0.7055  0.0094  0.8702
 7530SOL    HW223490   0.281   0.888   1.415  0.6825 -0.3998 -0.7463
 7531SOL     OW23491   5.120   3.084   4.390 -0.0034  0.0612 -0.2956
 7531SOL    HW123492   5.136   3.053   4.296 -0.8470  0.4523 -0.5782
 7531SOL    HW223493   5.145   3.181   4.398  0.3988 -0.0624 -0.0222
 7532SOL     OW23494   6.485   4.613   1.373  0.0177  0.2912 -0.4263
 7532SOL    HW123495   6.537   4.681   1.424  0.0594 -0.7061  0.9167
 7532SOL    HW223496   6.463   4.649   1.282  2.2044  1.1213 -0.6971
 7533SOL     OW23497   3.324   2.038   1.428 -0.0671  0.6714 -0.7251
 7533SOL    HW123498   3.399   2.085   1.384  0.0070  1.2786  0.0269
 7533SOL    HW223499   3.304   2.081   1.516 -0.7902  0.0460 -0.5656
 7534SOL     OW23500   5.683   3.474   3.146  0.3661 -0.7524  0.5462
 7534SOL    HW123501   5.691   3.385   3.101  0.3570 -0.2044 -0.5500
 7534SOL    HW223502   5.605   3.524   3.108 -0.5904 -0.8761  2.2312
 7535SOL     OW23503   2.514   5.819   7.021  0.1979 -0.2287 -0.3273
 7535SOL    HW123504   2.578   5.768   7.079 -1.4820 -1.0214  0.8853
 7535SOL    HW223505   2.455   5.756   6.971 -0.9691  0.4969  0.1045
 7536SOL     OW23506   5.285   4.202   3.268 -0.5592 -0.4537 -0.2244
 7536SOL    HW123507   5.321   4.290   3.236 -1.6241 -0.0221 -0.2600
 7536SOL    HW223508   5.201   4.181   3.219 -0.7917 -1.0647  0.4251
 7537SOL     OW23509   0.261   5.429   3.159 -0.7588  0.1839  0.1671
 7537SOL    HW123510   0.318   5.468   3.232  0.4333 -1.4506  0.1777
 7537SOL    HW223511   0.280   5.476   3.073  1.2331 -0.8157  0.0136
 7538SOL     OW23512   3.662   1.917   0.792 -0.1772 -0.2176 -0.6297
 7538SOL    HW123513   3.636   1.980   0.718  0.0808  0.4940 -0.1238
 7538SOL    HW223514   3.587   1.852   0.808 -0.1650 -0.4922 -1.6293
 7539SOL     OW23515   0.718   3.979   5.333 -0.1190  0.2160 -0.2893
 7539SOL    HW123516   0.742   3.940   5.422 -0.1647  2.0915  0.6117
 7539SOL    HW223517   0.798   4.026   5.295 -0.3284  0.1210 -0.8511
 7540SOL     OW23518   4.671   1.619   5.580 -0.0390 -0.0792 -0.3641
 7540SOL    HW123519   4.583   1.577   5.603 -0.2440 -0.2130 -1.3769
 7540SOL    HW223520   4.657   1.692   5.513  0.5449  0.3843  0.0017
 7541SOL     OW23521   0.260   3.160   3.959 -0.5611  0.2891 -0.0835
 7541SOL    HW123522   0.228   3.129   3.869 -0.8215 -1.8614  0.7029
 7541SOL    HW223523   0.359   3.151   3.965 -0.7258 -1.3558  0.4605
 7542SOL     OW23524   2.058   6.149   0.103 -0.1182 -0.0933 -0.2624
 7542SOL    HW123525   2.069   6.127   0.006 -0.9136 -0.0687 -0.3629
 7542SOL    HW223526   1.972   6.111   0.136  0.8496 -1.4566  0.8347
 7543SOL     OW23527   4.251   1.938   0.385  0.1689 -0.1746 -0.1767
 7543SOL    HW123528   4.183   1.879   0.341 -0.3345 -0.1036  0.4981
 7543SOL    HW223529   4.300   1.887   0.455 -0.2371  0.1869  0.3789
 7544SOL     OW23530   1.310   3.769   3.669 -0.4260  0.6445 -0.2143
 7544SOL    HW123531   1.386   3.710   3.696 -1.1206 -0.0596  0.2488
 7544SOL    HW223532   1.286   3.751   3.573 -1.8004 -1.1904  0.4042
 7545SOL     OW23533   1.258   5.393   4.897  0.2519 -0.6339  0.3110
 7545SOL    HW123534   1.341   5.393   4.953  0.2920 -2.2347  0.3092
 7545SOL    HW223535   1.283   5.398   4.800  0.2592  0.4858  0.3631
 7546SOL     OW23536   6.772   2.029   1.328  0.1716 -0.2685  0.2869
 7546SOL    HW123537   6.840   1.983   1.271  1.0834  0.4290  0.7834
 7546SOL    HW223538   6.802   2.027   1.424 -1.5430 -1.8175  0.8668
 7547SOL     OW23539   6.927   2.849   1.487  0.1385 -0.4273 -0.5653
 7547SOL    HW123540   6.829   2.847   1.506  0.1392  1.1389 -0.2723
 7547SOL    HW223541   6.963   2.756   1.488 -1.1471 -0.9413  0.3459
 7548SOL     OW23542   4.715   3.099   5.652 -0.1699 -0.1165  0.2769
 7548SOL    HW123543   4.722   3.160   5.573  1.5443 -2.0896 -1.2205
 7548SOL    HW223544   4.805   3.059   5.672 -0.7636 -0.4459  2.6300
 7549SOL     OW23545   3.453   3.062   0.319  0.0597 -0.3013  0.6092
 7549SOL    HW123546   3.399   2.981   0.343  0.6811 -0.3850  1.7739
 7549SOL    HW223547   3.550   3.044   0.336  0.2674  0.4709  0.2776
 7550SOL     OW23548   1.290   5.956   3.776 -0.7649  0.1541 -0.3339
 7550SOL    HW123549   1.354   6.016   3.727 -0.7341  1.4269  1.1701
 7550SOL    HW223550   1.278   5.871   3.724  2.2244 -0.2157 -0.6368
 7551SOL     OW23551   5.758   2.577   3.303 -0.0263 -0.1329  0.1949
 7551SOL    HW123552   5.792   2.606   3.393 -0.8779 -2.2593  1.2925
 7551SOL    HW223553   5.675   2.629   3.281 -0.1044  0.0575  0.9035
 7552SOL     OW23554   1.007   4.131   3.253  0.3610  0.0239  0.4932
 7552SOL    HW123555   0.952   4.047   3.253  0.3915  0.0035  0.5300
 7552SOL    HW223556   1.082   4.120   3.318  0.3655  0.0792  0.4970
 7553SOL     OW23557   3.912   0.721   6.665  0.3610  0.4691  0.3143
 7553SOL    HW123558   3.911   0.816   6.636 -0.7948  0.1260 -0.8879
 7553SOL    HW223559   3.992   0.675   6.627  0.4280  0.7418  0.1259
 7554SOL     OW23560   4.052   0.047   6.419 -0.6832 -0.2696 -0.6704
 7554SOL    HW123561   4.152   0.055   6.418 -0.7722  1.0324 -0.4507
 7554SOL    HW223562   4.022   0.022   6.511 -0.4458 -2.8411 -1.2197
 7555SOL     OW23563   3.392   6.837   0.387  0.6743 -0.4877  0.2235
 7555SOL    HW123564   3.361   6.791   0.304  1.1011 -0.0442 -0.1843
 7555SOL    HW223565   3.491   6.853   0.383  0.2446  2.6506 -0.7815
 7556SOL     OW23566   4.236   0.697   5.390 -0.1222 -0.6039  0.6283
 7556SOL    HW123567   4.225   0.607   5.348 -0.9223 -0.9652  1.5675
 7556SOL    HW223568   4.295   0.688   5.471 -1.2098 -0.5424  1.4549
 7557SOL     OW23569   4.804   6.775   5.596 -0.5736  0.2928 -0.3129
 7557SOL    HW123570   4.817   6.677   5.605 -0.6384  0.3739  0.8428
 7557SOL    HW223571   4.800   6.817   5.687 -2.6073  1.0962 -0.7195
 7558SOL     OW23572   1.358   0.660   2.643  0.5469  0.0734  0.1592
 7558SOL    HW123573   1.367   0.574   2.695  3.6079  0.9529  1.3381
 7558SOL    HW223574   1.302   0.724   2.696  0.1022 -0.4382  0.3294
 7559SOL     OW23575   4.161   3.915   6.141 -0.0220  0.5679  0.1346
 7559SOL    HW123576   4.161   4.008   6.176 -1.3514 -0.0255  1.8208
 7559SOL    HW223577   4.105   3.910   6.058 -0.9891  1.0454  0.7461
 7560SOL     OW23578   6.677   6.023   2.572  0.6924  0.1644  0.6794
 7560SOL    HW123579   6.692   6.064   2.482  0.9939 -0.0012  0.6558
 7560SOL    HW223580   6.754   5.965   2.596 -0.5161 -1.8536 -0.0697
 7561SOL     OW23581   0.199   3.327   4.386 -0.1187  0.4499 -0.2577
 7561SOL    HW123582   0.257   3.246   4.396 -0.2593  0.5399  1.5880
 7561SOL    HW223583   0.215   3.369   4.297  1.6643 -0.2808 -0.3127
 7562SOL     OW23584   6.593   6.305   6.758 -0.0083 -0.1852 -0.6241
 7562SOL    HW123585   6.579   6.399   6.726 -0.7240 -0.0339  0.1059
 7562SOL    HW223586   6.681   6.272   6.724  1.1501  1.4019  0.6554
 7563SOL     OW23587   2.723   6.328   1.295  0.0897  0.3215 -0.1745
 7563SOL    HW123588   2.780   6.368   1.223  1.1558 -1.0159 -0.1047
 7563SOL    HW223589   2.764   6.243   1.327 -2.8656 -1.6929 -1.3737
 7564SOL     OW23590   4.673   1.285   4.569  0.4555 -0.3280  0.9859
 7564SOL    HW123591   4.578   1.310   4.551  0.4446 -1.4876 -0.7843
 7564SOL    HW223592   4.678   1.238   4.657 -0.6284 -0.3745  1.0445
 7565SOL     OW23593   5.043   4.387   6.743 -0.6836 -0.6416  0.3365
 7565SOL    HW123594   4.947   4.376   6.767 -0.3055 -0.9941  1.7719
 7565SOL    HW223595   5.055   4.470   6.689 -1.6669 -0.1302  0.8813
 7566SOL     OW23596   5.526   6.303   1.747 -0.1491 -0.4903  0.2039
 7566SOL    HW123597   5.519   6.227   1.812  1.7750 -0.7974  0.1039
 7566SOL    HW223598   5.592   6.370   1.781  0.6946 -0.5258 -1.2977
 7567SOL     OW23599   2.226   1.683   6.433  0.5683 -0.2925 -0.0801
 7567SOL    HW123600   2.207   1.720   6.524  3.1188 -0.5975  0.6672
 7567SOL    HW223601   2.140   1.660   6.387 -0.9560  2.7801  0.9649
 7568SOL     OW23602   5.835   5.903   1.254  0.3188  0.1799 -0.2401
 7568SOL    HW123603   5.784   5.987   1.234  0.4758 -0.0503 -1.7305
 7568SOL    HW223604   5.809   5.832   1.189  1.4616 -0.3960 -0.0986
 7569SOL     OW23605   3.749   3.684   6.717  0.6382 -0.3215  0.1840
 7569SOL    HW123606   3.657   3.713   6.746  0.5025 -2.0539  1.7057
 7569SOL    HW223607   3.815   3.756   6.741 -0.2215  0.6692 -0.3348
 7570SOL     OW23608   3.097   4.982   4.332  0.0644 -0.0834  0.3215
 7570SOL    HW123609   3.033   4.947   4.401  2.3308 -2.0200  1.5729
 7570SOL    HW223610   3.070   5.075   4.307 -1.7853  0.1058  2.6149
 7571SOL     OW23611   5.452   4.578   3.611 -0.2974 -0.1192 -0.0501
 7571SOL    HW123612   5.484   4.483   3.607  0.7354  0.2279 -0.2623
 7571SOL    HW223613   5.409   4.594   3.700 -1.3123 -1.0292 -0.3486
 7572SOL     OW23614   5.421   6.729   1.817  0.0800  0.0743  0.1708
 7572SOL    HW123615   5.372   6.643   1.811  0.3387 -0.1650  1.1610
 7572SOL    HW223616   5.476   6.730   1.901  1.0272  0.7093 -0.4315
 7573SOL     OW23617   6.913   1.912   5.746 -0.4841 -0.3875  0.0040
 7573SOL    HW123618   6.973   1.835   5.770  0.8233  0.2758 -0.9725
 7573SOL    HW223619   6.957   1.998   5.774 -0.7664  0.1432 -1.1166
 7574SOL     OW23620   5.057   0.884   4.865  0.3548  0.2400  0.3761
 7574SOL    HW123621   5.140   0.924   4.827  0.3879  1.1943  1.4041
 7574SOL    HW223622   4.978   0.919   4.815  0.5506 -0.7308 -0.6563
 7575SOL     OW23623   5.256   0.618   5.248  0.4099 -0.1068 -0.4051
 7575SOL    HW123624   5.179   0.670   5.283  1.6458  1.3794  0.2376
 7575SOL    HW223625   5.258   0.527   5.291  0.5831  0.8395  1.7111
 7576SOL     OW23626   6.161   3.663   6.715 -0.6914 -0.6952  0.0702
 7576SOL    HW123627   6.225   3.653   6.639 -1.9334  0.2702 -1.1254
 7576SOL    HW223628   6.209   3.703   6.794  0.3591 -0.7514 -0.5237
 7577SOL     OW23629   6.787   6.004   6.079  0.1010 -0.1846  0.5237
 7577SOL    HW123630   6.704   5.980   6.129 -0.0494 -0.3472  0.2001
 7577SOL    HW223631   6.860   5.940   6.102 -0.0687 -0.4716  0.2703
 7578SOL     OW23632   2.472   5.401   2.783  0.4711  0.5557 -0.1648
 7578SOL    HW123633   2.564   5.392   2.746  0.8225 -0.5581  0.9100
 7578SOL    HW223634   2.452   5.323   2.842 -0.7859  1.2829  0.4159
 7579SOL     OW23635   0.808   1.383   2.077 -0.1043 -0.8833 -0.1089
 7579SOL    HW123636   0.856   1.401   1.991 -1.3476 -2.6735 -1.2501
 7579SOL    HW223637   0.777   1.289   2.078 -0.4875 -0.7845  2.1749
 7580SOL     OW23638   1.521   2.907   2.252 -0.3546 -0.2523 -0.2752
 7580SOL    HW123639   1.525   2.975   2.325 -0.7530  0.8323 -1.2382
 7580SOL    HW223640   1.504   2.953   2.164  0.6594 -1.4684 -1.1386
 7581SOL     OW23641   0.939   1.908   1.948  0.2240 -0.5061  0.4446
 7581SOL    HW123642   0.947   1.829   2.008  0.4510 -0.0189  1.0685
 7581SOL    HW223643   0.923   1.878   1.854  1.2456 -1.3167  0.5126
 7582SOL     OW23644   6.350   1.779   2.729 -0.0678  0.5478 -0.7451
 7582SOL    HW123645   6.260   1.749   2.700  1.1286 -2.9141 -1.2595
 7582SOL    HW223646   6.409   1.792   2.649  1.0456 -1.4847 -0.3241
 7583SOL     OW23647   6.343   2.676   2.103  0.4222  0.0805 -0.1980
 7583SOL    HW123648   6.384   2.765   2.121  0.4191  0.0843 -0.2102
 7583SOL    HW223649   6.380   2.640   2.017  1.6633 -0.6785  0.6259
 7584SOL     OW23650   1.639   6.820   3.251 -0.8145  0.0555  0.3308
 7584SOL    HW123651   1.552   6.862   3.226 -0.5594  1.9461  2.3891
 7584SOL    HW223652   1.711   6.889   3.252  0.5085 -1.2456 -0.1274
 7585SOL     OW23653   2.047   3.077   5.963 -0.0479  0.3294  0.1404
 7585SOL    HW123654   2.122   3.011   5.952 -0.2962  0.0430  0.1699
 7585SOL    HW223655   2.047   3.140   5.886  0.7395  0.8482  0.5437
 7586SOL     OW23656   1.056   1.536   5.744 -0.0624  0.1689 -0.8597
 7586SOL    HW123657   1.107   1.621   5.758 -1.1107  0.2672  4.2488
 7586SOL    HW223658   0.966   1.557   5.705  0.5046  1.0640 -1.7321
 7587SOL     OW23659   3.584   2.207   1.380  0.0528 -0.0258 -0.1577
 7587SOL    HW123660   3.533   2.293   1.390 -0.0761 -0.0307 -0.7445
 7587SOL    HW223661   3.672   2.215   1.428 -0.5635 -0.0837  1.0141
 7588SOL     OW23662   2.109   2.092   3.647  0.6165  0.2001 -0.2262
 7588SOL    HW123663   2.064   2.153   3.712 -0.4256  0.4789 -1.1609
 7588SOL    HW223664   2.094   2.127   3.554  2.6483  0.2000 -0.6009
 7589SOL     OW23665   0.413   1.149   6.947  0.0428  0.0990  0.3024
 7589SOL    HW123666   0.450   1.241   6.939  0.7707 -0.3451 -2.7458
 7589SOL    HW223667   0.477   1.091   6.997  1.7364  0.2932 -1.5050
 7590SOL     OW23668   5.692   1.914   6.838  0.2344  0.3531 -0.9046
 7590SOL    HW123669   5.791   1.900   6.841 -0.0339 -1.8084 -0.3446
 7590SOL    HW223670   5.669   2.002   6.881  1.9945  1.6231 -2.4428
 7591SOL     OW23671   5.939   5.230   2.036  0.4551  0.3917 -0.2967
 7591SOL    HW123672   5.883   5.184   1.968  0.9477 -0.4341 -0.1600
 7591SOL    HW223673   5.945   5.328   2.014 -1.6502  0.6543  0.1359
 7592SOL     OW23674   6.820   5.071   3.880 -0.2772  0.0107  0.1028
 7592SOL    HW123675   6.850   5.165   3.898 -0.2238 -0.0032  0.0896
 7592SOL    HW223676   6.725   5.060   3.909 -0.8978  0.5937 -1.6165
 7593SOL     OW23677   0.577   3.079   0.285 -0.3479 -0.1208 -0.5749
 7593SOL    HW123678   0.536   3.086   0.194 -0.0237 -0.6152 -0.7641
 7593SOL    HW223679   0.508   3.049   0.351 -0.0553 -2.1229 -1.1094
 7594SOL     OW23680   2.296   5.584   2.314 -0.1037 -0.3516  0.5703
 7594SOL    HW123681   2.285   5.500   2.262  0.7596 -0.9702  1.3605
 7594SOL    HW223682   2.212   5.602   2.367 -0.3271 -0.6528  0.3220
 7595SOL     OW23683   0.712   4.424   6.873  0.2008  0.0490 -0.0683
 7595SOL    HW123684   0.741   4.329   6.886 -0.4524 -0.1319  0.1100
 7595SOL    HW223685   0.627   4.426   6.821  1.4614  0.6469 -2.2402
 7596SOL     OW23686   3.004   5.292   5.167 -0.9030 -0.3844 -0.4259
 7596SOL    HW123687   2.916   5.339   5.166 -0.7562  0.0871  2.0906
 7596SOL    HW223688   3.026   5.264   5.261  2.4897  1.1789 -0.5920
 7597SOL     OW23689   1.375   4.778   4.652 -0.4071 -0.3711 -0.0073
 7597SOL    HW123690   1.415   4.804   4.740 -1.3628 -0.7961  0.5806
 7597SOL    HW223691   1.430   4.707   4.610 -0.2948 -0.6304  0.5687
 7598SOL     OW23692   6.650   1.105   2.429 -0.2297  0.2371  0.2930
 7598SOL    HW123693   6.728   1.140   2.376  0.0851 -0.0020  0.5995
 7598SOL    HW223694   6.651   1.146   2.520 -0.5324  0.3258  0.2552
 7599SOL     OW23695   5.385   2.959   2.025  0.3666  0.5319  0.5994
 7599SOL    HW123696   5.386   2.988   1.929 -1.0633  1.1800  0.7482
 7599SOL    HW223697   5.416   3.035   2.082  0.2187  0.4929  0.7303
 7600SOL     OW23698   0.758   6.971   4.284 -0.2647 -0.7637  0.1860
 7600SOL    HW123699   0.805   7.046   4.238 -0.9912 -0.8157 -0.6826
 7600SOL    HW223700   0.755   6.891   4.223 -0.9842 -0.9364  0.4331
 7601SOL     OW23701   1.903   4.172   1.961 -0.2679 -0.1677  0.1040
 7601SOL    HW123702   1.930   4.205   1.871 -0.4821 -1.5116 -0.4745
 7601SOL    HW223703   1.984   4.155   2.017 -0.1202  0.1731 -0.0030
 7602SOL     OW23704   1.272   3.653   6.606 -0.1616  0.3093  0.2419
 7602SOL    HW123705   1.256   3.751   6.620 -1.0745 -0.1644  3.0125
 7602SOL    HW223706   1.198   3.614   6.552  0.1125  1.0627 -0.7179
 7603SOL     OW23707   2.302   6.692   6.436  0.2140  0.1658 -0.0727
 7603SOL    HW123708   2.246   6.763   6.480 -0.7525 -0.8009  0.2776
 7603SOL    HW223709   2.373   6.662   6.500  0.0377  0.1516  0.1172
 7604SOL     OW23710   0.418   2.654   4.699 -0.0210  0.2198  0.1455
 7604SOL    HW123711   0.379   2.745   4.685 -2.2958 -0.3563  2.1899
 7604SOL    HW223712   0.412   2.601   4.614 -1.4755  0.9837 -0.2473
 7605SOL     OW23713   2.242   0.493   6.231  0.0746  0.4230  0.0985
 7605SOL    HW123714   2.240   0.393   6.234 -0.1480  0.4403  1.8326
 7605SOL    HW223715   2.330   0.525   6.267 -0.4017  0.8437  0.9278
 7606SOL     OW23716   6.388   1.570   3.875  0.1780  0.0704  0.1668
 7606SOL    HW123717   6.412   1.664   3.854  0.2706 -0.3409 -1.8132
 7606SOL    HW223718   6.314   1.568   3.942  0.0966  1.5380  0.1508
 7607SOL     OW23719   2.411   4.730   0.867  0.6295  0.7136  0.4073
 7607SOL    HW123720   2.431   4.823   0.896  0.9120  0.6678  0.3596
 7607SOL    HW223721   2.435   4.667   0.941  1.4331  0.5884  0.0477
 7608SOL     OW23722   3.486   2.263   0.112 -0.0068 -0.0096  0.0649
 7608SOL    HW123723   3.584   2.269   0.131 -0.0941  1.3181  0.2324
 7608SOL    HW223724   3.470   2.276   0.014 -0.0767  1.0141  0.1961
 7609SOL     OW23725   1.508   2.832   5.168  0.2470  0.3476  0.7225
 7609SOL    HW123726   1.505   2.797   5.074 -2.1399  2.2359 -0.0437
 7609SOL    HW223727   1.535   2.929   5.166 -3.6061  1.6222  1.3558
 7610SOL     OW23728   3.829   3.689   6.253 -0.2367 -0.1434  0.2557
 7610SOL    HW123729   3.849   3.632   6.333 -0.8774 -0.6261  0.0753
 7610SOL    HW223730   3.819   3.784   6.281  0.2109 -0.2084  0.6508
 7611SOL     OW23731   6.914   4.860   2.482 -0.1711  0.2423 -0.2714
 7611SOL    HW123732   6.938   4.812   2.398  0.1897 -0.3473  0.1605
 7611SOL    HW223733   6.904   4.958   2.463  0.3653  0.1824 -0.9058
 7612SOL     OW23734   3.679   2.138   2.688 -0.4105  0.5712  0.0713
 7612SOL    HW123735   3.737   2.219   2.697  0.2579 -0.0451  1.6230
 7612SOL    HW223736   3.642   2.134   2.595  0.0744  2.2802 -0.2338
 7613SOL     OW23737   0.082   2.659   2.197  0.1352  0.2444  0.2400
 7613SOL    HW123738   0.023   2.728   2.239  1.9132  1.5217  0.7638
 7613SOL    HW223739   0.110   2.691   2.106  2.4499  1.1663  1.2084
 7614SOL     OW23740   4.417   3.776   6.874  0.3393  0.0357  1.0252
 7614SOL    HW123741   4.337   3.719   6.854 -0.5865  0.9152  2.0879
 7614SOL    HW223742   4.496   3.717   6.889  0.8991 -0.8019 -3.6623
 7615SOL     OW23743   4.228   3.427   1.490  0.5011 -0.1814  0.1087
 7615SOL    HW123744   4.271   3.365   1.425 -1.0135 -1.1662 -0.0095
 7615SOL    HW223745   4.295   3.458   1.557  1.4018 -1.6105 -0.0905
 7616SOL     OW23746   4.938   5.983   4.184  0.8107  0.2871 -1.2645
 7616SOL    HW123747   4.850   6.006   4.225  1.8187 -1.0310  1.8877
 7616SOL    HW223748   4.923   5.916   4.111 -0.7659 -0.1540 -0.5857
 7617SOL     OW23749   3.989   0.883   6.057  0.3134 -0.0498  0.3948
 7617SOL    HW123750   3.893   0.861   6.040  0.3373  1.2638 -1.7848
 7617SOL    HW223751   4.044   0.800   6.053 -0.5495 -0.6255  0.2088
 7618SOL     OW23752   1.379   2.395   0.374  0.1122  0.6919  0.4691
 7618SOL    HW123753   1.473   2.382   0.342 -0.5486 -0.8872 -0.9666
 7618SOL    HW223754   1.342   2.478   0.333 -0.0687 -0.2655 -1.3875
 7619SOL     OW23755   6.868   3.330   2.070 -0.4620  0.0261 -0.2073
 7619SOL    HW123756   6.802   3.258   2.048 -3.6268  3.0063 -1.5092
 7619SOL    HW223757   6.847   3.367   2.161 -0.6275  1.0132 -0.6351
 7620SOL     OW23758   3.475   6.749   2.198 -0.4924 -0.4693  0.1909
 7620SOL    HW123759   3.521   6.832   2.166 -0.0080 -1.3461 -1.5391
 7620SOL    HW223760   3.487   6.741   2.297  0.3956  0.9412  0.2410
 7621SOL     OW23761   5.754   0.586   0.791 -0.2337 -0.7758 -0.1765
 7621SOL    HW123762   5.733   0.664   0.733 -0.7933 -1.3590 -0.7871
 7621SOL    HW223763   5.679   0.570   0.855  0.9125  0.6107  1.5913
 7622SOL     OW23764   3.377   4.134   4.706 -0.2133  0.0876 -0.0672
 7622SOL    HW123765   3.323   4.089   4.778  1.3070 -1.5995  0.0740
 7622SOL    HW223766   3.330   4.123   4.618 -1.5043  1.1577  0.4533
 7623SOL     OW23767   3.809   5.309   0.679  0.1341  0.6963  0.1296
 7623SOL    HW123768   3.769   5.322   0.769 -1.3609  0.4507 -0.4743
 7623SOL    HW223769   3.827   5.212   0.663 -2.3780  0.3331 -0.9198
 7624SOL     OW23770   0.255   3.854   4.480  0.8203 -0.2416 -0.0181
 7624SOL    HW123771   0.190   3.889   4.413  0.6142 -0.5749  0.0031
 7624SOL    HW223772   0.262   3.755   4.470 -0.0276 -0.4410  1.1573
 7625SOL     OW23773   5.162   2.185   0.404 -0.2391  0.0444  0.1280
 7625SOL    HW123774   5.105   2.152   0.480 -0.2635 -1.5238 -0.5375
 7625SOL    HW223775   5.237   2.240   0.440 -0.6531 -0.0792  1.2206
 7626SOL     OW23776   6.540   0.476   5.351  0.0489 -0.1448  0.0461
 7626SOL    HW123777   6.492   0.544   5.406 -0.4611  1.3593 -2.1039
 7626SOL    HW223778   6.475   0.436   5.286  1.3621  1.1103 -2.1592
 7627SOL     OW23779   2.246   3.739   6.193  0.6090 -0.1269  0.2075
 7627SOL    HW123780   2.295   3.666   6.147  0.2474  1.2899 -2.5951
 7627SOL    HW223781   2.300   3.823   6.190 -0.6154  0.6735 -0.0704
 7628SOL     OW23782   3.209   3.878   0.858 -0.7625  0.5004  0.3500
 7628SOL    HW123783   3.191   3.866   0.760  2.3075 -1.4499 -0.1120
 7628SOL    HW223784   3.214   3.975   0.879 -0.2152  0.9700 -1.7277
 7629SOL     OW23785   1.605   2.652   3.606 -0.1008  0.8623 -0.4359
 7629SOL    HW123786   1.576   2.718   3.536  0.7535 -0.2865 -1.9272
 7629SOL    HW223787   1.525   2.618   3.655 -0.9623  0.2821 -2.1676
 7630SOL     OW23788   1.286   6.749   5.235  0.2641  0.0124 -0.8428
 7630SOL    HW123789   1.229   6.831   5.227 -0.6376 -0.5189  0.0207
 7630SOL    HW223790   1.262   6.699   5.318  2.1056 -0.1433 -0.3651
 7631SOL     OW23791   1.755   3.442   3.981  0.3702  0.5652 -0.3394
 7631SOL    HW123792   1.726   3.430   4.076 -1.9151  2.5181 -0.6888
 7631SOL    HW223793   1.855   3.438   3.975  0.4996 -3.2541  1.5101
 7632SOL     OW23794   5.925   4.752   1.666 -0.1271  0.3106 -0.0369
 7632SOL    HW123795   6.004   4.701   1.633  0.1082  0.4373  0.3208
 7632SOL    HW223796   5.847   4.690   1.677 -0.1367  0.2237 -0.5807
 7633SOL     OW23797   5.833   2.539   3.043  0.3152  0.1303 -0.1234
 7633SOL    HW123798   5.877   2.450   3.028 -0.4059 -0.1397 -0.7297
 7633SOL    HW223799   5.806   2.547   3.139 -0.4018 -0.7008 -0.2313
 7634SOL     OW23800   0.039   0.987   1.050  0.1268 -0.3358  0.9123
 7634SOL    HW123801   0.064   0.924   1.124  1.4446 -0.5900  0.2816
 7634SOL    HW223802   0.113   0.990   0.982 -0.9164  0.1150 -0.2507
 7635SOL     OW23803   3.667   4.133   4.773 -0.2279 -0.1917  0.1373
 7635SOL    HW123804   3.578   4.153   4.732  0.5660  0.5196 -1.3498
 7635SOL    HW223805   3.724   4.086   4.706  1.8077  2.7302 -0.3805
 7636SOL     OW23806   1.773   2.934   3.935  0.1141  0.3280 -1.0423
 7636SOL    HW123807   1.856   2.908   3.886  0.1312 -0.0525 -0.8197
 7636SOL    HW223808   1.719   2.996   3.879  0.7504  0.9080 -1.0145
 7637SOL     OW23809   2.164   3.928   3.123 -0.0132  0.6085 -0.0389
 7637SOL    HW123810   2.201   3.844   3.084 -2.5379 -0.6565  0.0560
 7637SOL    HW223811   2.148   3.915   3.221 -1.9179  0.5683 -0.3155
 7638SOL     OW23812   1.498   4.351   1.091  0.0024  0.1642 -0.0553
 7638SOL    HW123813   1.474   4.253   1.094 -0.9195  0.3882  2.0857
 7638SOL    HW223814   1.576   4.364   1.030  0.5579 -2.0134  0.0757
 7639SOL     OW23815   1.408   3.147   0.385  0.2554  0.0331 -0.2961
 7639SOL    HW123816   1.390   3.167   0.289  1.4188  1.9371 -0.1767
 7639SOL    HW223817   1.420   3.048   0.397 -0.2584 -0.2766 -2.0179
 7640SOL     OW23818   1.206   1.595   6.380  0.2515 -0.4906  0.5287
 7640SOL    HW123819   1.173   1.629   6.468 -1.9319 -1.4974  0.1827
 7640SOL    HW223820   1.302   1.621   6.367  0.1778  0.9916  2.5023
 7641SOL     OW23821   6.896   4.002   3.283 -0.1458 -0.0364 -0.3734
 7641SOL    HW123822   6.863   3.970   3.194  0.3037 -0.5388 -0.3660
 7641SOL    HW223823   6.859   3.943   3.355  0.4069 -0.3424 -0.3301
 7642SOL     OW23824   4.584   1.805   3.164  0.3492 -0.3843 -0.2185
 7642SOL    HW123825   4.493   1.838   3.190 -0.1464 -0.4079 -1.8564
 7642SOL    HW223826   4.651   1.835   3.233 -0.7688  0.2805  0.6061
 7643SOL     OW23827   3.491   1.693   2.349  0.6756 -0.2161  0.3494
 7643SOL    HW123828   3.525   1.652   2.434 -0.1886  0.7491  1.2010
 7643SOL    HW223829   3.567   1.734   2.299  1.6538 -3.1053 -0.7534
 7644SOL     OW23830   4.780   2.730   1.998  0.1516 -0.6644 -0.3170
 7644SOL    HW123831   4.714   2.677   2.052  0.5986 -2.2732 -1.2794
 7644SOL    HW223832   4.764   2.828   2.012 -2.8645 -0.9616 -0.9927
 7645SOL     OW23833   4.879   2.941   4.418  0.2376  0.4384 -0.3620
 7645SOL    HW123834   4.918   3.026   4.384  2.7496 -0.0169  1.1466
 7645SOL    HW223835   4.948   2.869   4.415 -1.8901 -1.7233 -1.8827
 7646SOL     OW23836   1.094   3.435   2.776  0.8084  0.3179  0.1130
 7646SOL    HW123837   1.083   3.525   2.734  1.0830 -0.4887 -1.8243
 7646SOL    HW223838   1.091   3.365   2.704  2.2537 -1.1026  1.3575
 7647SOL     OW23839   0.320   1.977   2.938 -0.5975 -0.2400  0.3011
 7647SOL    HW123840   0.276   1.927   2.863 -0.1684  0.0172 -0.1228
 7647SOL    HW223841   0.364   1.912   3.000 -0.3599 -0.4153 -0.0474
 7648SOL     OW23842   3.574   1.900   2.769  0.3693 -0.3619  0.6432
 7648SOL    HW123843   3.508   1.871   2.700 -0.7949 -0.2750  1.6758
 7648SOL    HW223844   3.628   1.977   2.734  0.6934 -1.1317 -0.6161
 7649SOL     OW23845   3.792   6.235   3.212  0.6045  0.5442 -0.3196
 7649SOL    HW123846   3.700   6.197   3.216 -0.4282  2.8894 -0.3708
 7649SOL    HW223847   3.834   6.231   3.303  0.2695 -0.0770 -0.1871
 7650SOL     OW23848   5.515   1.789   0.941  0.4654 -0.2475  0.0421
 7650SOL    HW123849   5.603   1.762   0.980  0.8405  1.5454  0.4838
 7650SOL    HW223850   5.447   1.799   1.014  0.4476  0.4245 -0.0625
 7651SOL     OW23851   2.293   6.406   6.640 -0.0186  0.1081 -0.5056
 7651SOL    HW123852   2.266   6.500   6.659 -0.2169  0.2593 -1.4629
 7651SOL    HW223853   2.333   6.401   6.548 -0.1125 -0.7565 -0.5060
 7652SOL     OW23854   5.708   2.052   5.434  0.2808 -0.2342 -0.3809
 7652SOL    HW123855   5.754   2.044   5.523  0.2550 -0.8109 -0.4194
 7652SOL    HW223856   5.679   2.147   5.421  0.0472 -0.1960  0.3444
 7653SOL     OW23857   0.951   3.152   0.189  0.4137  0.6005 -0.3378
 7653SOL    HW123858   0.894   3.165   0.270  2.5546 -0.9391  1.5533
 7653SOL    HW223859   0.911   3.080   0.132 -3.0250  3.9921 -2.7247
 7654SOL     OW23860   5.462   2.873   4.236  0.8207  0.3222 -0.1256
 7654SOL    HW123861   5.444   2.893   4.332  0.4299 -0.2180 -0.0796
 7654SOL    HW223862   5.556   2.898   4.214  0.4295  1.9441 -0.0321
 7655SOL     OW23863   2.227   0.759   3.898  0.4665  0.3738  0.0666
 7655SOL    HW123864   2.255   0.763   3.994  0.4422 -0.9133  0.1448
 7655SOL    HW223865   2.150   0.821   3.883  1.2079  1.4388  0.6135
 7656SOL     OW23866   4.009   4.890   6.867 -0.0735 -0.2774 -0.3437
 7656SOL    HW123867   4.023   4.791   6.876  1.6172  0.0988  2.5733
 7656SOL    HW223868   4.040   4.935   6.951 -2.3041  2.6173 -0.9193
 7657SOL     OW23869   3.541   2.089   2.435 -0.1156 -0.6055  0.2833
 7657SOL    HW123870   3.595   2.089   2.350  1.0957  2.8577  0.8703
 7657SOL    HW223871   3.444   2.093   2.412  0.0083 -2.6600 -0.8382
 7658SOL     OW23872   2.296   0.300   0.538 -0.2039  0.1194  0.1736
 7658SOL    HW123873   2.363   0.370   0.562 -0.1625 -0.1753  0.9555
 7658SOL    HW223874   2.262   0.256   0.622  1.1633 -2.0785 -0.3310
 7659SOL     OW23875   0.935   2.168   6.704 -0.6356  0.4423 -0.0682
 7659SOL    HW123876   1.026   2.152   6.665 -0.5348  1.5462 -0.3194
 7659SOL    HW223877   0.941   2.235   6.778 -1.5212  2.2986 -1.5900
 7660SOL     OW23878   6.010   4.759   4.852 -0.7157  0.2650  0.4140
 7660SOL    HW123879   5.953   4.839   4.868 -1.7369 -0.1986 -0.7700
 7660SOL    HW223880   5.957   4.676   4.868  0.0688 -0.1903  0.7490
 7661SOL     OW23881   6.197   1.649   5.382 -0.7148  0.1731  0.0562
 7661SOL    HW123882   6.257   1.691   5.450  0.4875  0.8562 -1.3773
 7661SOL    HW223883   6.120   1.604   5.428 -0.7194  1.8305  1.7791
 7662SOL     OW23884   1.804   2.123   4.350  0.2550 -0.2164 -0.2934
 7662SOL    HW123885   1.762   2.141   4.438  0.8883 -2.0011  0.4173
 7662SOL    HW223886   1.884   2.182   4.338  0.8211 -0.7302  0.8358
 7663SOL     OW23887   6.512   5.845   5.883 -0.4449  0.1920  0.0377
 7663SOL    HW123888   6.455   5.868   5.962 -0.7523 -0.1709 -0.0795
 7663SOL    HW223889   6.458   5.796   5.815 -0.0698  0.1110 -0.2076
 7664SOL     OW23890   4.070   0.438   2.532 -0.0400 -0.0276 -0.3012
 7664SOL    HW123891   4.094   0.340   2.531 -2.4669 -0.6831  0.4174
 7664SOL    HW223892   3.976   0.449   2.562  0.0923  2.5604 -0.6403
 7665SOL     OW23893   5.573   6.919   6.991  0.3741  0.0921  0.7056
 7665SOL    HW123894   5.573   6.828   6.950 -2.2981 -0.5453  1.9290
 7665SOL    HW223895   5.667   6.945   7.013  1.3308 -1.7822 -0.8429
 7666SOL     OW23896   0.657   3.418   1.874 -0.4657  0.3026  0.0072
 7666SOL    HW123897   0.708   3.373   1.947  0.2593  1.0609 -0.0216
 7666SOL    HW223898   0.605   3.494   1.912 -0.0406  0.7355 -0.2680
 7667SOL     OW23899   5.423   2.190   2.603  0.1268  0.2368  0.5169
 7667SOL    HW123900   5.403   2.278   2.559  1.4685  0.0320 -0.5601
 7667SOL    HW223901   5.449   2.123   2.533 -3.3388 -1.8226  0.9513
 7668SOL     OW23902   2.010   4.553   6.795 -0.2559 -0.5270 -0.2812
 7668SOL    HW123903   1.925   4.578   6.841 -0.1443 -0.7485  0.0509
 7668SOL    HW223904   1.989   4.490   6.719 -0.6582  1.3967 -1.8343
 7669SOL     OW23905   3.749   1.736   5.270  0.1045 -0.5045 -0.5507
 7669SOL    HW123906   3.746   1.725   5.370  2.0235  0.6448 -0.3133
 7669SOL    HW223907   3.843   1.725   5.238 -0.0766  1.4903 -1.9191
 7670SOL     OW23908   2.236   0.215   6.176  0.4333 -0.1602 -0.2164
 7670SOL    HW123909   2.206   0.137   6.230  1.5670  0.5784  1.5648
 7670SOL    HW223910   2.240   0.189   6.079 -0.7596 -1.7889  0.1342
 7671SOL     OW23911   2.933   0.561   0.676 -0.7441 -0.4261  0.8215
 7671SOL    HW123912   2.999   0.513   0.734 -1.4054 -3.0708 -0.4594
 7671SOL    HW223913   2.983   0.622   0.615  0.3431 -0.7981  1.2947
 7672SOL     OW23914   1.000   5.522   4.862  0.3057  0.0982 -0.1242
 7672SOL    HW123915   1.084   5.478   4.894  0.5810 -0.4698 -1.5357
 7672SOL    HW223916   1.022   5.611   4.822 -0.1457  1.2121  1.9615
 7673SOL     OW23917   2.290   6.210   2.663 -0.0552 -0.0020 -0.0743
 7673SOL    HW123918   2.229   6.132   2.657 -0.4710  0.0843  2.1667
 7673SOL    HW223919   2.338   6.222   2.576  1.0574 -3.5652 -0.1055
 7674SOL     OW23920   6.221   5.686   4.695  0.1760 -0.1145  0.2022
 7674SOL    HW123921   6.188   5.603   4.740 -0.2459 -0.0192  0.0753
 7674SOL    HW223922   6.202   5.765   4.753 -1.4033  0.1454 -0.6184
 7675SOL     OW23923   4.668   6.104   4.601 -0.3327  0.2373  0.5454
 7675SOL    HW123924   4.716   6.165   4.538 -1.4152 -0.4808 -1.0434
 7675SOL    HW223925   4.640   6.155   4.682  1.0238  1.2101  0.4441
 7676SOL     OW23926   2.278   2.200   5.358  0.2154  0.1272 -0.1895
 7676SOL    HW123927   2.334   2.246   5.427  1.0185 -1.2481  0.1021
 7676SOL    HW223928   2.324   2.203   5.269 -0.5657  1.4143 -0.5848
 7677SOL     OW23929   0.174   3.106   0.919  0.0476 -0.2373  0.0666
 7677SOL    HW123930   0.121   3.142   0.996  0.6962 -1.7799  1.2977
 7677SOL    HW223931   0.116   3.100   0.839 -1.4500 -1.1776  1.1755
 7678SOL     OW23932   2.917   2.436   6.108 -0.2491 -0.4234 -0.4058
 7678SOL    HW123933   2.941   2.436   6.011 -0.9800 -1.2859 -0.5962
 7678SOL    HW223934   2.842   2.372   6.124  0.7301 -1.3029  0.9287
 7679SOL     OW23935   2.780   5.029   4.283  0.5632 -0.4406  0.1139
 7679SOL    HW123936   2.833   5.075   4.354 -1.2823 -1.4973  2.2967
 7679SOL    HW223937   2.685   5.059   4.287  0.1953 -1.3316 -1.2039
 7680SOL     OW23938   1.298   0.251   0.300 -0.1869  0.4772 -0.0385
 7680SOL    HW123939   1.267   0.197   0.221  0.3364  0.0252  0.0584
 7680SOL    HW223940   1.324   0.189   0.374 -0.3193  0.8918  0.3547
 7681SOL     OW23941   3.550   0.503   5.198  0.0808 -0.2357  0.4239
 7681SOL    HW123942   3.639   0.507   5.244  0.4721 -0.5198 -0.2994
 7681SOL    HW223943   3.478   0.530   5.263  0.9082  2.4651  0.3452
 7682SOL     OW23944   4.904   1.429   2.279 -0.3179  0.1704  0.5906
 7682SOL    HW123945   4.999   1.398   2.286 -0.3344 -0.2637 -0.8214
 7682SOL    HW223946   4.842   1.353   2.298 -0.3554 -0.3434 -1.3566
 7683SOL     OW23947   0.931   0.551   5.526 -0.1139  0.1507 -0.4720
 7683SOL    HW123948   0.953   0.469   5.579  0.5651  0.1191 -0.7981
 7683SOL    HW223949   0.872   0.527   5.449 -1.6943  0.2974  0.6411
 7684SOL     OW23950   4.225   1.024   6.523 -0.3658  0.8995  0.0580
 7684SOL    HW123951   4.276   1.095   6.571 -0.7795  1.3594 -0.1648
 7684SOL    HW223952   4.133   1.018   6.562 -0.3582  0.5363  0.0237
 7685SOL     OW23953   2.712   2.217   4.979  0.1546  0.0718  0.4026
 7685SOL    HW123954   2.793   2.224   4.919  0.2894 -1.3193  0.3863
 7685SOL    HW223955   2.715   2.130   5.028 -0.4348  0.7964  1.7552
 7686SOL     OW23956   5.691   1.524   4.487  0.0394  0.0929 -0.6548
 7686SOL    HW123957   5.715   1.548   4.582 -1.0063 -1.3184 -0.0070
 7686SOL    HW223958   5.751   1.574   4.425 -1.2030  3.4954  0.6014
 7687SOL     OW23959   5.283   4.399   5.346 -0.0192  0.0921  0.6021
 7687SOL    HW123960   5.271   4.461   5.423 -3.5244 -2.2319  2.1699
 7687SOL    HW223961   5.347   4.327   5.370 -0.0713  0.1220  0.8293
 7688SOL     OW23962   0.417   6.768   5.161 -0.1468 -0.6347 -0.2654
 7688SOL    HW123963   0.460   6.722   5.083  0.6885 -0.7034  0.2185
 7688SOL    HW223964   0.461   6.738   5.245 -0.7653 -0.2508  0.2000
 7689SOL     OW23965   5.515   0.331   4.544 -0.2639  0.3627 -0.1463
 7689SOL    HW123966   5.475   0.328   4.636 -0.1226  0.0878 -0.0932
 7689SOL    HW223967   5.479   0.255   4.490 -0.4822  0.6274 -0.3758
 7690SOL     OW23968   4.691   6.040   1.020  0.3380  0.0046  0.0501
 7690SOL    HW123969   4.761   5.998   0.962  1.2202  0.7169  0.5800
 7690SOL    HW223970   4.613   6.067   0.964  1.3777  1.1352 -0.8951
 7691SOL     OW23971   4.875   2.161   1.983  0.2733 -0.3697 -0.0827
 7691SOL    HW123972   4.866   2.128   1.889 -1.8838  1.3975 -0.5682
 7691SOL    HW223973   4.915   2.252   1.983 -0.8834  0.1614  0.5680
 7692SOL     OW23974   0.193   4.146   2.974  0.2727  0.0415  0.3172
 7692SOL    HW123975   0.115   4.105   2.927 -0.8425  0.0501  2.0935
 7692SOL    HW223976   0.194   4.244   2.956 -0.2198  0.0679  0.4155
 7693SOL     OW23977   3.005   6.992   0.764 -0.5266 -0.6355 -0.7526
 7693SOL    HW123978   3.004   6.919   0.833 -1.0673 -0.7496 -0.8750
 7693SOL    HW223979   2.933   7.059   0.786  0.8268  0.5833  0.1160
 7694SOL     OW23980   5.673   3.578   4.421 -0.6413 -0.5400  0.5744
 7694SOL    HW123981   5.730   3.497   4.434 -1.0703 -0.7876  0.9276
 7694SOL    HW223982   5.578   3.549   4.409 -0.8798 -0.0497  1.2916
 7695SOL     OW23983   6.680   1.298   3.195  0.1141  0.0623  0.4062
 7695SOL    HW123984   6.682   1.394   3.167  1.1845  0.4415  1.6628
 7695SOL    HW223985   6.770   1.256   3.179 -0.1072 -0.5008  0.6081
 7696SOL     OW23986   6.064   1.854   5.812  0.4111  1.0101 -0.8968
 7696SOL    HW123987   6.070   1.952   5.829 -1.0434  1.8124 -4.2391
 7696SOL    HW223988   6.149   1.822   5.771  0.9659  0.7474  0.3850
 7697SOL     OW23989   1.526   6.215   2.611 -0.0955  0.0678  0.0265
 7697SOL    HW123990   1.483   6.130   2.642 -0.0774 -0.1023 -0.4161
 7697SOL    HW223991   1.614   6.195   2.570 -0.2750  0.2531 -0.4591
 7698SOL     OW23992   6.097   0.190   3.495 -0.5886  0.4267 -0.5820
 7698SOL    HW123993   6.190   0.158   3.475 -0.3357  1.5534 -1.2794
 7698SOL    HW223994   6.100   0.256   3.570 -1.0347 -0.6668  0.4350
 7699SOL     OW23995   2.322   5.245   5.776 -0.0155  0.2219  0.5262
 7699SOL    HW123996   2.224   5.228   5.793 -0.3843  0.3759 -1.2717
 7699SOL    HW223997   2.372   5.160   5.788 -0.4073  0.0809  1.2151
 7700SOL     OW23998   3.930   6.609   5.503 -0.3257 -0.5393  0.8410
 7700SOL    HW123999   3.921   6.708   5.513  2.1527 -0.0792 -0.6239
 7700SOL    HW224000   4.021   6.580   5.535 -0.9524 -2.3291  1.1248
 7701SOL     OW24001   1.118   1.450   5.309 -0.0106  0.1463 -0.1710
 7701SOL    HW124002   1.160   1.445   5.399 -0.1777  1.8533  0.0427
 7701SOL    HW224003   1.018   1.457   5.319  0.0283  1.3938 -0.3918
 7702SOL     OW24004   4.721   7.008   4.855 -0.1993 -0.6242 -0.1449
 7702SOL    HW124005   4.701   7.057   4.940  0.4609 -0.1725 -0.2363
 7702SOL    HW224006   4.690   6.914   4.862  1.7123 -1.1979  1.4109
 7703SOL     OW24007   6.223   6.087   0.812  0.1658  0.4258  0.5433
 7703SOL    HW124008   6.168   6.040   0.880  0.7287  0.7260  1.2103
 7703SOL    HW224009   6.208   6.186   0.819 -0.3202  0.4260 -0.2528
 7704SOL     OW24010   5.577   0.466   3.678 -0.1377  0.5299  0.1682
 7704SOL    HW124011   5.643   0.404   3.636  0.0093 -0.2099  1.4235
 7704SOL    HW224012   5.622   0.554   3.698  0.4020  0.1400  0.7286
 7705SOL     OW24013   3.215   6.705   2.180 -0.0822  0.4404 -0.4531
 7705SOL    HW124014   3.212   6.628   2.116  0.6501 -0.4940  0.5958
 7705SOL    HW224015   3.309   6.735   2.192 -0.2808  0.9995 -0.2646
 7706SOL     OW24016   3.765   3.473   3.632  0.5537 -0.0670 -0.4063
 7706SOL    HW124017   3.851   3.439   3.670  0.2385  1.0558  1.4578
 7706SOL    HW224018   3.784   3.550   3.571  1.1096 -2.2223 -3.1049
 7707SOL     OW24019   0.180   5.636   5.869 -0.2515  0.4020  0.1662
 7707SOL    HW124020   0.194   5.546   5.911  1.3663  0.8282  0.6057
 7707SOL    HW224021   0.096   5.634   5.814  1.1066 -2.2020 -2.0407
 7708SOL     OW24022   2.432   6.555   4.116  0.2195 -0.6263  0.2696
 7708SOL    HW124023   2.430   6.512   4.026  0.4078 -1.5630  0.6894
 7708SOL    HW224024   2.488   6.499   4.177 -0.5380 -0.4307  1.1669
 7709SOL     OW24025   0.722   6.655   2.506 -0.2682 -0.4778  0.1136
 7709SOL    HW124026   0.729   6.754   2.514 -1.7010 -0.2380 -1.0911
 7709SOL    HW224027   0.789   6.622   2.439  0.8823 -0.4836  1.2273
 7710SOL     OW24028   2.912   2.165   5.498 -0.0004 -0.6737 -0.6931
 7710SOL    HW124029   2.849   2.100   5.540 -0.3785 -0.4395 -0.8974
 7710SOL    HW224030   2.903   2.255   5.542  1.6436 -1.1269  0.6810
 7711SOL     OW24031   6.068   5.359   6.278 -0.5191  0.3566  0.0876
 7711SOL    HW124032   6.119   5.279   6.250  1.8863  2.3831 -1.8032
 7711SOL    HW224033   6.017   5.396   6.200 -1.5240  0.7213  0.8920
 7712SOL     OW24034   6.892   3.711   0.584 -0.1658  0.1686 -0.1367
 7712SOL    HW124035   6.991   3.696   0.589  0.0328  1.6358  0.7026
 7712SOL    HW224036   6.863   3.771   0.658 -1.6371  0.0778 -0.6058
 7713SOL     OW24037   1.275   4.578   6.492 -0.2366  0.1017  0.3042
 7713SOL    HW124038   1.306   4.487   6.520  0.4155 -0.1477 -1.1522
 7713SOL    HW224039   1.175   4.577   6.484 -0.3165 -0.2138  1.1663
 7714SOL     OW24040   0.315   4.218   4.390  0.0929 -0.3609  0.3450
 7714SOL    HW124041   0.300   4.187   4.484 -1.8681  1.0365  0.5415
 7714SOL    HW224042   0.269   4.156   4.326  0.3440 -0.5941  0.3888
 7715SOL     OW24043   3.240   3.771   6.581 -0.0336  0.1307 -0.5377
 7715SOL    HW124044   3.244   3.720   6.495 -1.3013  1.3712 -1.3674
 7715SOL    HW224045   3.206   3.863   6.564  0.0712  0.5351  1.2524
 7716SOL     OW24046   6.287   5.148   0.556  0.6573 -0.4247  0.0220
 7716SOL    HW124047   6.356   5.219   0.567 -0.7540  1.3438 -1.9111
 7716SOL    HW224048   6.306   5.096   0.473 -0.0248 -0.2848 -0.2249
 7717SOL     OW24049   1.075   0.918   4.202 -0.2017 -0.0376 -0.0529
 7717SOL    HW124050   1.158   0.889   4.155  0.1092  1.0484 -0.2122
 7717SOL    HW224051   1.076   0.882   4.296  0.1486 -0.5461 -0.2497
 7718SOL     OW24052   0.448   2.870   3.486 -0.3357  0.0027 -0.3544
 7718SOL    HW124053   0.536   2.860   3.533 -0.1290  0.9797 -0.4956
 7718SOL    HW224054   0.439   2.800   3.416 -0.2518 -0.9135  0.5292
 7719SOL     OW24055   1.488   3.607   3.291  0.3231 -0.0114 -0.6053
 7719SOL    HW124056   1.500   3.596   3.390  2.6168 -0.2551 -0.8563
 7719SOL    HW224057   1.471   3.703   3.270 -1.6408 -0.1537  0.0999
 7720SOL     OW24058   1.310   3.077   5.442  0.1583  0.6442  0.6053
 7720SOL    HW124059   1.398   3.106   5.404  0.7785 -2.0805 -0.2465
 7720SOL    HW224060   1.246   3.059   5.367 -0.3773  0.3626  1.1191
 7721SOL     OW24061   0.763   4.874   3.034 -0.5220  0.0437 -0.3736
 7721SOL    HW124062   0.745   4.781   3.065 -1.5013 -0.0710 -1.2509
 7721SOL    HW224063   0.749   4.880   2.935  0.1525  0.9801 -0.4305
 7722SOL     OW24064   2.078   3.636   2.245 -0.2010 -0.0470  0.0562
 7722SOL    HW124065   2.112   3.577   2.319 -1.1098 -2.5978 -1.4448
 7722SOL    HW224066   2.122   3.610   2.159 -1.3391  0.8524 -0.8176
 7723SOL     OW24067   2.729   2.363   6.808 -0.4791 -0.4462  0.0540
 7723SOL    HW124068   2.673   2.373   6.890 -0.3103 -1.6216  0.3288
 7723SOL    HW224069   2.706   2.277   6.762 -1.8451  0.9723 -2.1249
 7724SOL     OW24070   3.132   4.341   0.338 -0.1278  0.6499 -0.0491
 7724SOL    HW124071   3.072   4.417   0.311 -1.1995 -0.8183 -2.0630
 7724SOL    HW224072   3.178   4.304   0.258  0.3790 -0.8425  0.8805
 7725SOL     OW24073   5.508   2.453   1.753 -0.0684 -0.3029  0.1090
 7725SOL    HW124074   5.424   2.450   1.698  0.6220 -0.7675 -0.9536
 7725SOL    HW224075   5.587   2.445   1.693  0.7053 -1.2298  1.2095
 7726SOL     OW24076   3.472   2.438   1.098 -0.4691  0.1167  0.1929
 7726SOL    HW124077   3.452   2.355   1.046  0.2988 -0.1646  0.3413
 7726SOL    HW224078   3.571   2.452   1.102 -0.6059  2.1376 -1.5600
 7727SOL     OW24079   6.425   3.429   1.837  0.2396 -0.0923 -0.1925
 7727SOL    HW124080   6.347   3.402   1.781  0.1374  0.4195 -0.3065
 7727SOL    HW224081   6.415   3.525   1.863  1.2222  0.2030 -0.8584
 7728SOL     OW24082   2.104   3.644   4.306  0.0775  0.2480 -0.7177
 7728SOL    HW124083   2.101   3.663   4.404 -0.3790  1.2531 -0.9174
 7728SOL    HW224084   2.131   3.549   4.292 -0.4915 -0.0942  0.3951
 7729SOL     OW24085   5.419   1.390   2.140 -0.0319 -0.9217  0.4363
 7729SOL    HW124086   5.434   1.316   2.074  0.0766 -0.5951  0.0889
 7729SOL    HW224087   5.328   1.380   2.180  0.0375 -1.3251  0.5003
 7730SOL     OW24088   1.399   3.118   6.036 -0.7015 -0.1210 -1.0252
 7730SOL    HW124089   1.365   3.207   6.005  0.7265  0.8850  0.2137
 7730SOL    HW224090   1.449   3.074   5.961 -1.6276 -0.0361 -1.7229
 7731SOL     OW24091   6.822   1.345   0.934  0.2043 -0.0520  0.4674
 7731SOL    HW124092   6.786   1.438   0.937 -0.0736 -0.0686 -1.2995
 7731SOL    HW224093   6.754   1.285   0.891  0.6405 -0.9457  1.0130
 7732SOL     OW24094   5.292   0.427   1.782  0.2266  0.2000  0.0118
 7732SOL    HW124095   5.201   0.451   1.749 -0.0408  0.3665  0.8464
 7732SOL    HW224096   5.288   0.408   1.880  1.1358  0.4624  0.1085
 7733SOL     OW24097   0.296   4.734   2.644 -0.3612  0.8520  0.2951
 7733SOL    HW124098   0.198   4.712   2.639  0.3302 -2.4702 -0.8783
 7733SOL    HW224099   0.329   4.717   2.737 -0.7467  1.5223  0.5698
 7734SOL     OW24100   1.803   4.193   3.749 -0.5359  0.2113 -0.1764
 7734SOL    HW124101   1.783   4.097   3.767  1.9073 -0.0673  1.4104
 7734SOL    HW224102   1.762   4.250   3.820  1.4884 -0.0855  1.2996
 7735SOL     OW24103   3.641   5.790   0.398 -0.3091  0.2383 -0.0146
 7735SOL    HW124104   3.567   5.795   0.465 -0.5659  2.3710 -0.3816
 7735SOL    HW224105   3.704   5.717   0.424 -0.7461  0.5620  2.1985
 7736SOL     OW24106   4.505   2.844   6.797 -0.0985 -0.6509  0.0723
 7736SOL    HW124107   4.429   2.801   6.748 -1.5627  0.8376  0.9419
 7736SOL    HW224108   4.552   2.907   6.736  0.2616 -1.3394 -0.3769
 7737SOL     OW24109   4.061   0.151   2.533  0.2175  0.0876  0.5202
 7737SOL    HW124110   3.995   0.076   2.522  0.2571  0.3281 -1.9036
 7737SOL    HW224111   4.136   0.121   2.591 -0.9768 -0.8996  1.6127
 7738SOL     OW24112   3.418   6.354   1.488 -0.2863 -0.7157  0.2935
 7738SOL    HW124113   3.484   6.313   1.552  0.2782 -1.5721 -0.8210
 7738SOL    HW224114   3.354   6.285   1.457  0.5901 -0.7803 -1.5010
 7739SOL     OW24115   2.011   2.765   3.022 -0.1346 -0.1474  0.7123
 7739SOL    HW124116   2.094   2.712   3.040 -1.1940 -1.8470  0.7335
 7739SOL    HW224117   1.991   2.824   3.100  0.0344 -1.1090  1.4955
 7740SOL     OW24118   1.752   0.211   1.969 -0.6333 -0.1224  0.0105
 7740SOL    HW124119   1.691   0.282   1.936 -3.9366 -2.0158  1.4365
 7740SOL    HW224120   1.833   0.205   1.911 -2.0395  2.2256 -2.3736
 7741SOL     OW24121   0.185   4.449   4.571  0.2788  0.0603 -0.2061
 7741SOL    HW124122   0.222   4.457   4.663 -0.2241  0.1855 -0.0109
 7741SOL    HW224123   0.249   4.491   4.506  0.4612  0.3040  0.1249
 7742SOL     OW24124   5.550   2.108   2.038 -0.6472 -0.3822  0.5335
 7742SOL    HW124125   5.465   2.060   2.016 -0.0201 -1.6916  0.9114
 7742SOL    HW224126   5.531   2.206   2.047 -1.9729 -0.5517 -0.1124
 7743SOL     OW24127   4.543   2.088   6.287  0.0596 -0.1769 -0.0980
 7743SOL    HW124128   4.625   2.140   6.263  0.8659 -1.1819  0.4125
 7743SOL    HW224129   4.518   2.029   6.210 -0.8887  0.9730 -0.6991
 7744SOL     OW24130   0.619   6.156   4.355 -0.4036  0.1269  0.3356
 7744SOL    HW124131   0.664   6.138   4.268 -0.9633 -1.2736  0.3097
 7744SOL    HW224132   0.679   6.211   4.413 -0.4436  1.9789 -1.2985
 7745SOL     OW24133   1.545   6.326   0.581 -0.1437 -0.0305  0.3454
 7745SOL    HW124134   1.542   6.233   0.617 -0.1425 -0.8432 -1.5897
 7745SOL    HW224135   1.638   6.346   0.550 -0.1921  0.5452  0.5696
 7746SOL     OW24136   0.842   1.087   0.822  0.0633 -0.0467  0.0187
 7746SOL    HW124137   0.768   1.052   0.880 -1.4411  0.0437 -1.7565
 7746SOL    HW224138   0.827   1.184   0.803 -0.0692 -0.3030 -1.3250
 7747SOL     OW24139   0.642   3.687   0.142  0.7543  0.0238  0.2645
 7747SOL    HW124140   0.733   3.651   0.164 -0.0272 -1.4613  1.2366
 7747SOL    HW224141   0.650   3.760   0.075  2.7176  0.3855  0.8476
 7748SOL     OW24142   3.743   3.828   3.119  0.0869 -0.6627 -0.5723
 7748SOL    HW124143   3.748   3.916   3.166  0.0751 -0.4741 -0.9235
 7748SOL    HW224144   3.835   3.799   3.094 -0.0992  0.8295 -3.3648
 7749SOL     OW24145   3.721   4.114   3.147 -0.0230 -0.4862 -0.4960
 7749SOL    HW124146   3.762   4.205   3.141 -2.6101  0.7621 -0.3869
 7749SOL    HW224147   3.681   4.089   3.059  0.0380 -1.2277 -0.3254
 7750SOL     OW24148   5.575   0.398   1.614  0.5781  0.2189  0.2774
 7750SOL    HW124149   5.569   0.489   1.573  0.2730 -0.2390 -0.7354
 7750SOL    HW224150   5.484   0.367   1.641  0.8663  0.8098  2.0013
 7751SOL     OW24151   1.713   1.745   3.617  0.0733 -0.2273 -0.5641
 7751SOL    HW124152   1.691   1.689   3.537  1.8178 -1.0114 -0.5360
 7751SOL    HW224153   1.772   1.693   3.678 -0.8200  0.5519  1.0055
 7752SOL     OW24154   4.909   3.718   6.069  0.2634  0.7860  0.6223
 7752SOL    HW124155   4.999   3.758   6.049  0.3673 -0.4604 -1.8499
 7752SOL    HW224156   4.837   3.780   6.038  0.4054 -1.2568 -5.1724
 7753SOL     OW24157   3.434   6.314   4.073  0.3027 -0.0312  0.2861
 7753SOL    HW124158   3.341   6.338   4.101  0.8967  1.6708  0.9259
 7753SOL    HW224159   3.496   6.390   4.093  1.5380 -0.3976 -1.7746
 7754SOL     OW24160   5.020   6.433   2.628  0.0060 -0.4774 -0.0512
 7754SOL    HW124161   5.108   6.470   2.600 -0.0921 -1.2867 -1.5271
 7754SOL    HW224162   4.947   6.476   2.575 -0.3754 -0.6752  0.3052
 7755SOL     OW24163   1.633   1.669   0.120  0.3757  0.0810 -0.6675
 7755SOL    HW124164   1.563   1.684   0.049  1.0777 -0.9285 -1.5944
 7755SOL    HW224165   1.708   1.734   0.107 -1.2723  2.7240  1.6574
 7756SOL     OW24166   4.440   4.616   2.669 -0.0563 -0.0645 -0.1300
 7756SOL    HW124167   4.516   4.554   2.652 -1.3233 -1.1178 -2.2297
 7756SOL    HW224168   4.389   4.585   2.750 -0.1195 -1.2065 -0.5999
 7757SOL     OW24169   4.298   5.701   5.399  0.0041  0.1474  0.0529
 7757SOL    HW124170   4.377   5.686   5.340  0.4015 -0.1315  0.6477
 7757SOL    HW224171   4.216   5.717   5.343  0.4804  0.4496 -0.5631
 7758SOL     OW24172   1.684   2.028   6.867  0.0408  0.5697 -0.0314
 7758SOL    HW124173   1.584   2.030   6.872 -0.0342 -0.3025 -0.8476
 7758SOL    HW224174   1.715   2.103   6.809 -0.1158  0.9954  0.4268
 7759SOL     OW24175   1.559   1.503   2.081 -0.4484 -0.4666 -0.3324
 7759SOL    HW124176   1.644   1.482   2.033 -0.4851 -0.8178 -0.2450
 7759SOL    HW224177   1.510   1.418   2.101 -0.5846 -0.3011  0.0476
 7760SOL     OW24178   5.715   3.413   2.164 -0.0327  0.3495  0.0679
 7760SOL    HW124179   5.696   3.340   2.099 -0.0814  0.9319 -0.5819
 7760SOL    HW224180   5.684   3.386   2.255  0.4531 -0.6575 -0.0603
 7761SOL     OW24181   1.866   0.116   6.860  0.1738  0.1840  0.1411
 7761SOL    HW124182   1.843   0.129   6.764  1.3869  1.3054 -0.0327
 7761SOL    HW224183   1.923   0.192   6.891  2.4188 -1.6880  0.8934
 7762SOL     OW24184   4.211   0.432   4.739  0.1376  0.2642  0.4117
 7762SOL    HW124185   4.172   0.484   4.814  0.4650  0.5576  0.3817
 7762SOL    HW224186   4.206   0.486   4.655  0.1673  0.1109  0.3109
 7763SOL     OW24187   0.023   1.353   0.485 -0.2955  0.1874 -0.0943
 7763SOL    HW124188   0.034   1.341   0.584  0.5062  2.7563  0.1939
 7763SOL    HW224189   0.109   1.333   0.439 -0.1729  0.6534 -0.0720
 7764SOL     OW24190   4.170   2.215   5.330  0.2093  0.4390 -0.3961
 7764SOL    HW124191   4.217   2.153   5.267 -1.0184  0.1696 -1.0876
 7764SOL    HW224192   4.234   2.285   5.362  1.1636 -0.1249 -1.0106
 7765SOL     OW24193   6.018   1.328   4.416  0.0180 -0.0196  0.0904
 7765SOL    HW124194   5.953   1.292   4.349 -1.5528  1.8354  0.5054
 7765SOL    HW224195   6.076   1.398   4.372 -1.2926  1.4986  0.6773
 7766SOL     OW24196   5.288   1.260   0.244 -0.5089  0.1439  0.2716
 7766SOL    HW124197   5.307   1.358   0.248 -0.8171  0.1845  0.7886
 7766SOL    HW224198   5.308   1.226   0.152  0.3016  0.5431  0.2889
 7767SOL     OW24199   1.190   5.374   3.384  0.2004  0.3233  0.2149
 7767SOL    HW124200   1.128   5.324   3.444  0.9089 -2.9968 -1.6018
 7767SOL    HW224201   1.279   5.385   3.428  0.1989 -0.5435  0.4459
 7768SOL     OW24202   4.353   6.346   1.427 -0.3239 -1.0480 -0.3060
 7768SOL    HW124203   4.399   6.268   1.471 -0.0465 -1.8991 -2.0203
 7768SOL    HW224204   4.397   6.365   1.339  0.5177  1.9754  0.6542
 7769SOL     OW24205   5.450   0.794   3.608  0.2390  0.8781 -0.2964
 7769SOL    HW124206   5.496   0.782   3.695  0.5205  0.2048 -0.5374
 7769SOL    HW224207   5.351   0.801   3.623  0.3033  0.9599  0.0898
 7770SOL     OW24208   2.011   5.130   1.881 -0.5570  0.3258  0.2837
 7770SOL    HW124209   2.010   5.036   1.845 -0.0309  1.0713 -1.8159
 7770SOL    HW224210   2.065   5.133   1.965  0.1149 -1.0978 -0.0601
 7771SOL     OW24211   2.229   2.941   4.386 -0.2015  0.3758 -0.1108
 7771SOL    HW124212   2.139   2.897   4.381 -0.9132  1.8427 -0.8991
 7771SOL    HW224213   2.283   2.897   4.458 -1.5490 -0.5164  0.4130
 7772SOL     OW24214   4.821   1.193   5.796 -1.4335 -0.2465 -0.2006
 7772SOL    HW124215   4.723   1.196   5.816 -1.4506  0.6817 -0.3940
 7772SOL    HW224216   4.853   1.285   5.772 -0.3680 -0.4018  0.5711
 7773SOL     OW24217   3.473   4.609   5.303 -0.4097 -0.2646  0.0155
 7773SOL    HW124218   3.389   4.581   5.350  0.4578 -0.9504  1.2089
 7773SOL    HW224219   3.515   4.529   5.260 -0.7831  0.2238 -1.2961
 7774SOL     OW24220   6.006   2.838   0.588 -0.0499  0.1164  0.0308
 7774SOL    HW124221   6.062   2.896   0.528 -0.0798  3.2412  2.7474
 7774SOL    HW224222   5.916   2.824   0.546 -0.4493  3.1009 -0.3344
 7775SOL     OW24223   3.581   6.834   3.857  0.0211 -1.0973  0.6727
 7775SOL    HW124224   3.539   6.751   3.818  0.8848  0.0838 -3.1818
 7775SOL    HW224225   3.677   6.839   3.829 -0.3826  1.8957 -0.4883
 7776SOL     OW24226   3.995   5.250   6.264 -0.3442 -0.5163  0.6316
 7776SOL    HW124227   3.934   5.189   6.315  0.5712 -0.0642  2.3689
 7776SOL    HW224228   3.973   5.345   6.284 -0.9461 -0.2640 -1.0701
 7777SOL     OW24229   3.470   6.047   3.985  0.1171 -0.6307  0.0980
 7777SOL    HW124230   3.526   6.130   3.988  0.1553 -0.6470 -0.1283
 7777SOL    HW224231   3.375   6.071   4.003 -0.1435 -0.2849 -1.5200
 7778SOL     OW24232   2.189   5.955   0.256 -0.0372  0.3107  0.2537
 7778SOL    HW124233   2.171   6.044   0.213  1.1030 -0.4438 -1.9156
 7778SOL    HW224234   2.287   5.935   0.251 -0.3169 -1.1865  0.4782
 7779SOL     OW24235   2.271   2.549   0.774 -0.0501 -0.3456 -0.3711
 7779SOL    HW124236   2.260   2.529   0.677  0.0766 -0.5046 -0.3510
 7779SOL    HW224237   2.210   2.626   0.799 -0.2114 -0.4198 -0.5358
 7780SOL     OW24238   1.908   2.902   5.396 -0.0527 -0.0433 -0.0205
 7780SOL    HW124239   1.853   2.829   5.354 -0.8705  0.6145 -0.1219
 7780SOL    HW224240   2.004   2.888   5.372  0.3070 -2.8402  2.4567
 7781SOL     OW24241   0.734   4.553   5.348  0.0805  0.1511  0.3186
 7781SOL    HW124242   0.649   4.543   5.297  0.1145 -1.9992  0.5925
 7781SOL    HW224243   0.786   4.630   5.311 -1.4360  0.7741 -0.6094
 7782SOL     OW24244   2.856   1.385   6.919 -0.0069  0.0735 -0.3631
 7782SOL    HW124245   2.854   1.332   6.834 -1.4160  0.1116 -0.3812
 7782SOL    HW224246   2.794   1.344   6.985  0.5180  0.4807  0.3948
 7783SOL     OW24247   3.739   5.484   0.135 -0.4242 -0.5672  1.2086
 7783SOL    HW124248   3.789   5.402   0.105 -1.4179 -1.2660  1.4012
 7783SOL    HW224249   3.800   5.542   0.189  0.6134 -0.6335  0.1618
 7784SOL     OW24250   3.197   3.064   1.033 -0.0230 -0.2260 -0.3779
 7784SOL    HW124251   3.291   3.082   1.061  0.5389 -2.2537 -0.7540
 7784SOL    HW224252   3.168   3.132   0.965  0.8399  0.9277  0.3752
 7785SOL     OW24253   1.771   6.728   4.964  0.0306  0.1009 -0.1323
 7785SOL    HW124254   1.753   6.824   4.941  1.2378  0.3807  0.0378
 7785SOL    HW224255   1.696   6.692   5.019 -0.1395  1.1292  0.3187
 7786SOL     OW24256   3.135   6.513   6.953  0.1672  0.3957 -0.2163
 7786SOL    HW124257   3.195   6.582   6.911 -0.5429 -1.1941 -4.3032
 7786SOL    HW224258   3.041   6.526   6.921 -0.7493 -0.1682  2.0855
 7787SOL     OW24259   2.506   3.242   6.128  0.0991 -0.4519  0.6623
 7787SOL    HW124260   2.595   3.269   6.092 -0.6847  2.2083  0.5170
 7787SOL    HW224261   2.455   3.193   6.058 -0.1082  1.6774 -0.7458
 7788SOL     OW24262   4.144   5.975   3.300  0.9207  0.3163  0.7305
 7788SOL    HW124263   4.051   5.966   3.335  0.5117  1.7252  0.0583
 7788SOL    HW224264   4.203   6.013   3.371  1.6741 -2.9932  2.0941
 7789SOL     OW24265   3.686   6.633   6.144 -0.2246 -0.4354  0.3262
 7789SOL    HW124266   3.742   6.560   6.105 -1.0989 -0.6323 -0.6086
 7789SOL    HW224267   3.723   6.722   6.117 -0.5172 -0.5668 -0.5220
 7790SOL     OW24268   5.545   5.019   1.908  0.0916 -0.1476  0.3327
 7790SOL    HW124269   5.551   5.107   1.861  1.5824 -0.8989 -0.9836
 7790SOL    HW224270   5.637   4.984   1.926 -0.4501 -0.5466  2.6423
 7791SOL     OW24271   2.766   5.875   3.482 -0.5220  0.0394  0.6233
 7791SOL    HW124272   2.806   5.965   3.498 -0.8157  0.1659  0.6462
 7791SOL    HW224273   2.741   5.867   3.385  0.0568 -0.2430  0.4903
 7792SOL     OW24274   2.638   4.530   0.672  0.8256  0.2791 -0.1384
 7792SOL    HW124275   2.697   4.481   0.607  1.1160 -1.2624  1.2104
 7792SOL    HW224276   2.691   4.598   0.721  0.5446  1.6515 -1.6473
 7793SOL     OW24277   2.577   6.848   6.761 -0.7724 -0.0914  0.3605
 7793SOL    HW124278   2.513   6.915   6.722 -0.7264 -0.4888 -0.4045
 7793SOL    HW224279   2.644   6.822   6.692 -0.8639 -1.0315  0.6211
 7794SOL     OW24280   6.612   6.751   4.088 -0.2927 -0.2129  0.5385
 7794SOL    HW124281   6.522   6.708   4.093 -0.7871  0.7228 -0.1585
 7794SOL    HW224282   6.657   6.743   4.177 -2.1415  1.6212  1.7331
 7795SOL     OW24283   1.468   5.442   5.960 -0.2880  0.5902  0.0289
 7795SOL    HW124284   1.515   5.365   5.917 -1.2316 -0.4707  0.8574
 7795SOL    HW224285   1.520   5.473   6.039 -0.0706  0.6213 -0.1229
 7796SOL     OW24286   2.999   3.215   3.783 -0.7834 -0.1625  0.2866
 7796SOL    HW124287   3.026   3.182   3.873  1.8374 -0.9687 -0.6786
 7796SOL    HW224288   2.907   3.182   3.761 -0.5060 -2.0126  1.6945
 7797SOL     OW24289   0.100   6.851   3.142  0.1844 -0.0148  0.8929
 7797SOL    HW124290   0.030   6.817   3.205 -0.8097 -0.3072 -0.3389
 7797SOL    HW224291   0.137   6.774   3.089  0.2899  0.3748  0.4028
 7798SOL     OW24292   1.117   5.431   6.312 -0.5198 -0.3429 -0.0447
 7798SOL    HW124293   1.025   5.471   6.316 -0.2246  0.4487 -0.7323
 7798SOL    HW224294   1.136   5.402   6.218  0.3350  0.5026 -0.1512
 7799SOL     OW24295   2.066   6.408   3.990 -0.3388  0.4054  0.3245
 7799SOL    HW124296   2.104   6.439   4.077 -2.2357  0.5713  1.1446
 7799SOL    HW224297   1.998   6.336   4.006 -0.2298 -0.0587 -1.0862
 7800SOL     OW24298   1.634   5.002   5.933 -0.0790  0.1084  0.1758
 7800SOL    HW124299   1.597   5.028   6.022  2.1785 -1.5338  1.7111
 7800SOL    HW224300   1.650   4.904   5.931  1.8153  0.3842 -1.2730
 7801SOL     OW24301   0.852   1.575   2.714 -0.4108  0.1625 -0.6499
 7801SOL    HW124302   0.939   1.558   2.667 -0.5660 -1.3442 -0.4295
 7801SOL    HW224303   0.868   1.579   2.813 -0.5647  0.0907 -0.6226
 7802SOL     OW24304   6.448   2.032   0.751 -0.3980 -0.5607 -0.4040
 7802SOL    HW124305   6.376   2.063   0.814  1.1435 -0.0021  1.1833
 7802SOL    HW224306   6.455   2.096   0.675 -1.3430 -0.4330 -0.3910
 7803SOL     OW24307   6.422   3.600   5.142 -0.3399 -0.1719 -0.6833
 7803SOL    HW124308   6.499   3.656   5.173 -0.7219  1.0259 -1.7802
 7803SOL    HW224309   6.451   3.505   5.130  0.2448 -0.3381  1.5790
 7804SOL     OW24310   5.573   6.744   3.294  0.1065 -0.0164 -0.1394
 7804SOL    HW124311   5.639   6.688   3.244 -1.1517 -0.6368 -1.1741
 7804SOL    HW224312   5.600   6.840   3.289  0.2899 -0.1137 -1.6171
 7805SOL     OW24313   5.696   1.950   0.449  0.4115  0.1457  0.0419
 7805SOL    HW124314   5.741   1.944   0.538 -0.5135 -0.6988  0.4625
 7805SOL    HW224315   5.602   1.981   0.461 -0.8283 -3.1589 -0.2417
 7806SOL     OW24316   4.222   1.203   4.775 -0.0135 -0.1857  0.1299
 7806SOL    HW124317   4.264   1.291   4.754  0.0796  0.1822  1.6884
 7806SOL    HW224318   4.276   1.158   4.846 -1.0534 -0.6933  0.6134
 7807SOL     OW24319   5.661   4.755   5.955 -0.2761  0.3252  0.1505
 7807SOL    HW124320   5.601   4.811   5.897  1.5599  0.8196 -1.3784
 7807SOL    HW224321   5.756   4.782   5.941  0.8889 -3.8066 -1.4960
 7808SOL     OW24322   0.273   2.074   5.261 -0.5869  0.4997  0.6450
 7808SOL    HW124323   0.203   2.142   5.283  0.2184  1.0056  1.7510
 7808SOL    HW224324   0.281   2.008   5.336 -0.7504 -0.3118 -0.0350
 7809SOL     OW24325   0.935   6.569   4.576  0.1753  0.4409  0.2671
 7809SOL    HW124326   0.927   6.480   4.532 -0.7944  0.8189 -0.3355
 7809SOL    HW224327   0.849   6.592   4.622 -0.0355  1.6309 -0.6835
 7810SOL     OW24328   3.933   0.060   3.486  0.0663 -0.2954  0.2388
 7810SOL    HW124329   4.000   0.043   3.414 -0.5727 -0.2199 -0.3826
 7810SOL    HW224330   3.847   0.091   3.445 -0.5353 -0.9368  0.9791
 7811SOL     OW24331   5.444   4.040   2.665  0.0778 -0.4642  0.1064
 7811SOL    HW124332   5.405   4.117   2.614  1.2094  1.8734  2.5346
 7811SOL    HW224333   5.375   3.969   2.676 -1.9015  1.3744  0.0907
 7812SOL     OW24334   0.211   1.862   1.071  0.0247 -0.6180  0.6439
 7812SOL    HW124335   0.236   1.954   1.040 -1.3920 -0.4593 -0.1160
 7812SOL    HW224336   0.283   1.797   1.045  0.3091  0.0343 -0.2503
 7813SOL     OW24337   5.253   3.207   0.062  0.6196  0.5367 -0.3613
 7813SOL    HW124338   5.220   3.117   0.094  2.1778 -0.1498 -0.6165
 7813SOL    HW224339   5.237   3.275   0.134 -2.1413  0.4705 -0.7976
 7814SOL     OW24340   5.420   4.014   5.022  0.2559 -0.1886 -0.1237
 7814SOL    HW124341   5.382   4.019   5.115 -0.0184 -1.2432 -0.1643
 7814SOL    HW224342   5.513   3.978   5.026 -0.4119 -2.0501 -0.3814
 7815SOL     OW24343   6.004   1.506   5.113 -0.3983 -0.4738  0.1097
 7815SOL    HW124344   6.009   1.498   5.014 -0.5594 -1.6438  0.1845
 7815SOL    HW224345   6.097   1.508   5.151 -0.3426 -0.9941  0.0038
 7816SOL     OW24346   0.716   1.533   0.562 -0.0735  0.4852  0.3206
 7816SOL    HW124347   0.808   1.553   0.597 -1.0140  2.6316  1.7533
 7816SOL    HW224348   0.656   1.611   0.578 -2.3291 -1.0719 -0.0577
 7817SOL     OW24349   6.087   4.412   3.621  0.2678  0.2779 -0.4022
 7817SOL    HW124350   6.061   4.505   3.595 -0.4894  0.0837 -0.3713
 7817SOL    HW224351   6.069   4.398   3.719 -0.2756 -0.1033 -0.5478
 7818SOL     OW24352   4.573   1.466   2.341 -0.1173 -0.5467  0.3275
 7818SOL    HW124353   4.547   1.532   2.411 -0.2954  0.2865 -0.4950
 7818SOL    HW224354   4.545   1.501   2.251  3.6199  0.3976 -0.6723
 7819SOL     OW24355   5.356   4.619   3.866  0.3109  0.1288  1.0803
 7819SOL    HW124356   5.423   4.580   3.929  1.3620 -0.0045 -0.0673
 7819SOL    HW224357   5.356   4.718   3.873  0.6285  0.1275  1.1043
 7820SOL     OW24358   1.323   1.374   3.805 -0.1975  0.4333  0.2422
 7820SOL    HW124359   1.319   1.473   3.794  0.2880  0.3068 -1.4135
 7820SOL    HW224360   1.230   1.338   3.814 -0.4325  0.9720  0.0364
 7821SOL     OW24361   5.168   5.708   1.780 -0.5100 -1.1733  0.3518
 7821SOL    HW124362   5.181   5.709   1.681 -0.3496  0.3810  0.3630
 7821SOL    HW224363   5.241   5.655   1.822  0.6448 -0.1262 -0.2391
 7822SOL     OW24364   6.944   1.330   6.437 -0.2627 -0.1562 -0.4567
 7822SOL    HW124365   6.844   1.327   6.434 -0.4314 -1.3254  2.6094
 7822SOL    HW224366   6.978   1.259   6.499  2.4228  0.9246 -0.5392
 7823SOL     OW24367   3.740   3.995   4.539  0.1358 -0.2613  0.2112
 7823SOL    HW124368   3.706   3.915   4.490 -2.6148 -0.2000  1.8020
 7823SOL    HW224369   3.697   4.077   4.502 -0.8866 -0.0792  1.6953
 7824SOL     OW24370   5.889   0.883   3.794  0.0218 -1.0420  0.2704
 7824SOL    HW124371   5.976   0.932   3.785  0.0588 -1.2237 -0.5111
 7824SOL    HW224372   5.832   0.928   3.863  0.3731 -0.3739  0.1390
 7825SOL     OW24373   1.567   4.642   1.198 -0.7109  0.7709 -1.3886
 7825SOL    HW124374   1.554   4.564   1.138 -0.7662  1.1094 -1.8244
 7825SOL    HW224375   1.551   4.727   1.147  0.1198  1.0959 -1.1388
 7826SOL     OW24376   5.971   1.099   0.644 -0.2510 -0.3280  0.1506
 7826SOL    HW124377   5.965   1.198   0.645  1.6869 -0.1016  2.7892
 7826SOL    HW224378   6.037   1.069   0.714 -1.7628 -3.5366  0.3989
 7827SOL     OW24379   1.763   4.832   1.491  0.2905  0.1225  0.3997
 7827SOL    HW124380   1.682   4.777   1.471  1.4568 -1.4683 -0.1911
 7827SOL    HW224381   1.738   4.929   1.496 -1.5810 -0.3035  0.0316
 7828SOL     OW24382   7.010   4.675   0.062  0.1658  0.2649  0.3789
 7828SOL    HW124383   6.976   4.689   0.154 -1.1285  2.0688 -0.3133
 7828SOL    HW224384   7.094   4.727   0.048  0.3176  0.0554  0.5132
 7829SOL     OW24385   3.034   4.034   1.171  0.5356  0.0920 -0.1416
 7829SOL    HW124386   2.966   4.104   1.149 -0.6718 -0.5634  1.3634
 7829SOL    HW224387   3.018   3.953   1.114  0.7766  0.3517 -0.5842
 7830SOL     OW24388   1.926   4.603   5.034 -0.3283 -0.2953  0.2569
 7830SOL    HW124389   1.927   4.630   4.937 -0.9440  1.2124  0.6542
 7830SOL    HW224390   1.938   4.504   5.040  1.1440 -0.2697 -1.2976
 7831SOL     OW24391   0.608   6.411   3.189 -0.7277  0.3386 -0.2258
 7831SOL    HW124392   0.635   6.402   3.285  0.7156 -0.1620 -0.6507
 7831SOL    HW224393   0.620   6.323   3.143  2.2120  1.3904 -1.7125
 7832SOL     OW24394   4.467   1.451   6.799 -0.0322 -0.2142 -0.7597
 7832SOL    HW124395   4.529   1.391   6.749  1.6737  0.9241 -0.0983
 7832SOL    HW224396   4.500   1.463   6.893 -0.9261  0.8785 -0.5546
 7833SOL     OW24397   0.006   6.558   5.503  0.2016 -0.6962 -0.2966
 7833SOL    HW124398  -0.050   6.598   5.430  0.2203 -0.8749 -0.4072
 7833SOL    HW224399   0.103   6.566   5.479  0.2853  0.6378  0.4044
 7834SOL     OW24400   6.689   2.289   5.617  0.3211 -0.0991  0.1432
 7834SOL    HW124401   6.706   2.214   5.554 -0.2377  1.8763 -2.5033
 7834SOL    HW224402   6.603   2.335   5.593  0.6552  1.4171  1.6451
 7835SOL     OW24403   5.280   2.629   5.228  0.0882 -0.5612  0.2689
 7835SOL    HW124404   5.314   2.710   5.181 -0.0484 -0.4433  0.3728
 7835SOL    HW224405   5.181   2.623   5.216  0.0974 -0.7077  0.2675
 7836SOL     OW24406   4.041   1.565   3.787  0.4976 -0.3206 -0.4258
 7836SOL    HW124407   4.019   1.571   3.690  0.5580 -0.6120 -0.4584
 7836SOL    HW224408   4.058   1.469   3.812  0.5021 -0.2458 -0.1334
 7837SOL     OW24409   4.468   0.219   6.192 -0.0534 -0.0544  0.3907
 7837SOL    HW124410   4.513   0.261   6.271  1.5322  0.2592 -0.6489
 7837SOL    HW224411   4.438   0.126   6.217  2.0407 -0.6571  0.8640
 7838SOL     OW24412   3.011   0.390   1.372  0.3834  0.1215 -0.9563
 7838SOL    HW124413   3.042   0.480   1.340  0.9530  0.4164  0.3734
 7838SOL    HW224414   3.090   0.331   1.389  0.0842 -0.0714 -0.2251
 7839SOL     OW24415   5.068   2.541   6.135 -0.3351  0.4806  0.3254
 7839SOL    HW124416   5.032   2.450   6.118 -1.8174  0.7489  1.7571
 7839SOL    HW224417   5.037   2.603   6.063 -0.6087  0.1700  0.1740
 7840SOL     OW24418   6.652   3.656   1.954 -0.6405  0.2161  0.2252
 7840SOL    HW124419   6.606   3.710   1.883 -0.2415  0.5865  0.2393
 7840SOL    HW224420   6.708   3.585   1.911  1.1383  1.6409  0.0305
 7841SOL     OW24421   3.394   1.214   0.084  0.0170  0.3062  0.2127
 7841SOL    HW124422   3.296   1.232   0.094 -0.0299 -0.0462  0.4057
 7841SOL    HW224423   3.415   1.194  -0.012 -0.3830 -1.2142  0.4115
 7842SOL     OW24424   3.854   2.705   1.175  0.1660 -0.0378 -0.0233
 7842SOL    HW124425   3.816   2.659   1.094 -2.2991  2.9144 -0.7728
 7842SOL    HW224426   3.829   2.654   1.257 -0.2555 -1.3195 -0.9091
 7843SOL     OW24427   6.218   6.397   2.915 -0.1676 -0.2504  0.4592
 7843SOL    HW124428   6.281   6.388   2.838  1.7595  0.4658  1.8824
 7843SOL    HW224429   6.201   6.308   2.956  0.4166 -0.3673  0.4444
 7844SOL     OW24430   3.221   1.083   3.821  0.5863 -0.1295  0.4862
 7844SOL    HW124431   3.215   1.182   3.806  0.4248  0.0892  1.8620
 7844SOL    HW224432   3.191   1.061   3.914  1.1859 -1.4127  0.4059
 7845SOL     OW24433   5.386   2.037   4.413 -0.5890  0.8900 -0.5551
 7845SOL    HW124434   5.429   2.125   4.391 -0.0972  0.9778  0.7086
 7845SOL    HW224435   5.417   1.968   4.347  2.0669  0.7892  0.6748
 7846SOL     OW24436   1.650   2.111   0.565 -0.0152 -0.3863 -0.4410
 7846SOL    HW124437   1.647   2.119   0.466 -0.5331 -2.1812 -0.6061
 7846SOL    HW224438   1.743   2.127   0.598  0.2942 -0.4197 -1.2894
 7847SOL     OW24439   5.567   2.435   4.008 -0.1675 -0.1776  0.3965
 7847SOL    HW124440   5.531   2.426   3.915  1.8533  0.8329 -0.5524
 7847SOL    HW224441   5.511   2.500   4.059 -0.6258  0.1567 -0.5025
 7848SOL     OW24442   2.306   4.971   1.705  0.3217 -0.2699 -0.1870
 7848SOL    HW124443   2.329   5.064   1.675  1.7047 -0.7764 -0.7466
 7848SOL    HW224444   2.208   4.965   1.721  0.0718  1.0300 -1.0689
 7849SOL     OW24445   6.596   5.046   5.244 -0.1798 -0.5046 -0.0237
 7849SOL    HW124446   6.551   4.980   5.183  1.5513 -1.8154  0.0278
 7849SOL    HW224447   6.642   4.997   5.317 -0.0278  0.8949  0.8457
 7850SOL     OW24448   0.365   2.219   2.212  0.1159 -0.2426 -0.4691
 7850SOL    HW124449   0.394   2.168   2.293 -0.4112  1.4110  0.8198
 7850SOL    HW224450   0.442   2.228   2.149  0.4090 -1.9441 -0.4018
 7851SOL     OW24451   6.923   1.746   1.485  0.2084  0.2682 -0.0802
 7851SOL    HW124452   6.966   1.804   1.416  1.3379  1.0703  1.2394
 7851SOL    HW224453   6.925   1.793   1.573  1.2159 -1.7922  1.0518
 7852SOL     OW24454   4.477   3.071   5.741  0.9824 -0.3488 -0.7311
 7852SOL    HW124455   4.576   3.074   5.725  0.8444 -0.0138 -1.5596
 7852SOL    HW224456   4.430   3.120   5.668  0.3243  1.3105  0.7234
 7853SOL     OW24457   3.338   3.141   0.591  0.4153 -0.1017 -0.1405
 7853SOL    HW124458   3.262   3.109   0.535  0.0734  1.1389 -0.4224
 7853SOL    HW224459   3.404   3.067   0.603 -0.3491 -0.8991 -0.7246
 7854SOL     OW24460   3.341   2.378   6.592  0.4622 -0.3316  0.7345
 7854SOL    HW124461   3.355   2.298   6.534 -1.0638 -0.1053  0.0019
 7854SOL    HW224462   3.257   2.367   6.646 -0.3143  1.1273 -0.0840
 7855SOL     OW24463   3.880   6.784   3.517 -0.2990  0.9384 -0.3043
 7855SOL    HW124464   3.822   6.773   3.436 -1.4807  0.2336  0.5948
 7855SOL    HW224465   3.897   6.881   3.533 -2.6282  1.3231  0.2807
 7856SOL     OW24466   5.342   4.677   4.709  0.5022 -0.0610 -0.0379
 7856SOL    HW124467   5.407   4.611   4.673  1.0194 -0.0550  0.8445
 7856SOL    HW224468   5.251   4.636   4.712  0.1796  0.3447 -2.4383
 7857SOL     OW24469   4.585   1.363   0.781 -0.4187  0.6204 -0.1641
 7857SOL    HW124470   4.565   1.265   0.783 -1.0469  0.7453  1.2449
 7857SOL    HW224471   4.653   1.385   0.851  0.6652  1.0277 -1.3056
 7858SOL     OW24472   5.788   6.604   4.733  0.1249  0.0511  0.3869
 7858SOL    HW124473   5.839   6.610   4.819 -0.5364 -0.3323  0.8144
 7858SOL    HW224474   5.693   6.579   4.752 -0.0016 -0.1605 -0.4657
 7859SOL     OW24475   4.068   3.302   6.993 -0.2591 -0.3627  0.4028
 7859SOL    HW124476   4.141   3.300   6.925 -1.5699  0.2545 -1.0823
 7859SOL    HW224477   4.065   3.391   7.036 -0.1715 -0.3711  0.4266
 7860SOL     OW24478   5.405   0.113   4.719  0.0849 -0.0986 -0.0203
 7860SOL    HW124479   5.374   0.207   4.732  0.8784  0.0145  1.1616
 7860SOL    HW224480   5.368   0.077   4.633 -2.1930  0.4850  0.6481
 7861SOL     OW24481   2.024   4.900   1.020  0.0437 -0.2014  0.1565
 7861SOL    HW124482   1.930   4.900   1.055  0.0207 -1.8183  0.1813
 7861SOL    HW224483   2.072   4.820   1.054  0.7456 -0.5810 -1.6092
 7862SOL     OW24484   0.648   5.280   6.208 -0.0605 -0.3405  0.0480
 7862SOL    HW124485   0.579   5.207   6.207  1.1089 -1.5853  2.4248
 7862SOL    HW224486   0.730   5.249   6.159  0.1065 -0.2726  0.2815
 7863SOL     OW24487   1.506   4.387   4.083 -0.0084 -0.4289 -0.3762
 7863SOL    HW124488   1.427   4.350   4.036  0.5816 -2.5341  0.2077
 7863SOL    HW224489   1.540   4.321   4.150  0.1033  1.8121  1.9688
 7864SOL     OW24490   6.099   2.872   6.037 -0.4554  0.2719 -0.1138
 7864SOL    HW124491   6.082   2.777   6.064 -0.3301 -0.2308 -1.7346
 7864SOL    HW224492   6.194   2.882   6.009 -0.8105  0.5483 -1.2531
 7865SOL     OW24493   6.365   0.319   4.833  0.0402  0.1114  0.2209
 7865SOL    HW124494   6.380   0.383   4.908 -0.2489 -0.0556  0.4242
 7865SOL    HW224495   6.268   0.295   4.828  0.0363  0.2279 -0.2938
 7866SOL     OW24496   1.620   0.333   5.854 -0.4306 -0.3809  0.4183
 7866SOL    HW124497   1.612   0.433   5.846 -0.7836 -0.5251 -1.3397
 7866SOL    HW224498   1.698   0.311   5.912 -0.4677  0.9151  1.0016
 7867SOL     OW24499   6.203   5.551   3.502  0.0195  0.0975 -0.2466
 7867SOL    HW124500   6.202   5.586   3.596  1.9254 -0.3031 -0.0353
 7867SOL    HW224501   6.176   5.623   3.439 -1.5540  0.2942  0.6098
 7868SOL     OW24502   4.266   6.471   2.352 -0.5988  0.0905 -0.5078
 7868SOL    HW124503   4.328   6.528   2.405 -0.7364  1.2000 -1.5054
 7868SOL    HW224504   4.174   6.475   2.391 -0.3080 -0.6368  0.2859
 7869SOL     OW24505   6.324   3.648   6.502 -0.5726  1.1487  0.4495
 7869SOL    HW124506   6.396   3.581   6.486 -1.0732  0.3255  1.5667
 7869SOL    HW224507   6.360   3.740   6.484 -0.8022  0.5354 -4.5767
 7870SOL     OW24508   4.749   4.902   3.221 -0.4916 -0.3235  0.8789
 7870SOL    HW124509   4.762   4.823   3.281  2.2737 -1.3407 -0.8736
 7870SOL    HW224510   4.708   4.872   3.135 -0.3214  0.3149  0.5654
 7871SOL     OW24511   4.804   1.722   1.832 -0.0175 -0.6349 -0.2993
 7871SOL    HW124512   4.731   1.699   1.768 -0.4134 -3.1410  0.9118
 7871SOL    HW224513   4.806   1.654   1.906  2.4513  0.3223  0.6262
 7872SOL     OW24514   0.440   4.302   2.123 -0.1910 -0.6081 -0.1057
 7872SOL    HW124515   0.413   4.338   2.034  2.3061 -0.6061 -0.9181
 7872SOL    HW224516   0.439   4.202   2.120 -1.5938 -0.6357  0.3905
 7873SOL     OW24517   4.863   0.231   0.471  0.3294  0.2789  0.6174
 7873SOL    HW124518   4.935   0.166   0.446 -0.9280 -0.7151 -0.5147
 7873SOL    HW224519   4.904   0.320   0.489  1.7891 -0.1286 -0.5238
 7874SOL     OW24520   5.017   0.793   0.032  0.0238  0.3520  0.0021
 7874SOL    HW124521   4.948   0.850  -0.014 -1.3231 -0.9357  0.3706
 7874SOL    HW224522   5.016   0.812   0.130  1.7277  1.8666 -0.2104
 7875SOL     OW24523   5.755   1.904   0.774 -0.2388 -0.0149  0.3568
 7875SOL    HW124524   5.669   1.894   0.824  0.3050  0.0215  1.3282
 7875SOL    HW224525   5.829   1.920   0.839  0.4734  0.1532 -0.4837
 7876SOL     OW24526   2.369   0.802   3.549  0.9893  0.2081  0.0719
 7876SOL    HW124527   2.296   0.741   3.518  0.2395  0.1548  1.8051
 7876SOL    HW224528   2.410   0.766   3.632  2.4421  0.6732 -0.4250
 7877SOL     OW24529   1.596   0.030   3.601  0.1542 -0.0474  0.0962
 7877SOL    HW124530   1.692   0.004   3.593 -0.1287 -1.4187  0.8346
 7877SOL    HW224531   1.588   0.130   3.605  1.4533  0.1223 -0.9281
 7878SOL     OW24532   5.326   3.256   4.963 -0.1913 -0.1568 -0.2375
 7878SOL    HW124533   5.272   3.227   4.884 -1.2722 -0.3846  0.5648
 7878SOL    HW224534   5.282   3.336   5.005 -0.8625 -1.3401  1.4075
 7879SOL     OW24535   4.974   6.964   2.425 -0.4219  0.6438  0.3688
 7879SOL    HW124536   5.023   6.926   2.503 -0.0561 -0.1732 -0.2478
 7879SOL    HW224537   5.037   6.978   2.349 -0.8567  1.0245  0.0710
 7880SOL     OW24538   1.962   3.178   0.437 -0.2225 -0.2209  0.2176
 7880SOL    HW124539   2.014   3.264   0.434  0.2514 -0.5335 -2.2859
 7880SOL    HW224540   1.866   3.197   0.456 -0.1498  0.8900 -0.4831
 7881SOL     OW24541   6.506   2.830   3.712 -0.6564  0.1747 -0.4343
 7881SOL    HW124542   6.556   2.897   3.657  0.0734 -0.6749 -0.8159
 7881SOL    HW224543   6.569   2.782   3.772 -1.3785  0.7780  0.8491
 7882SOL     OW24544   1.752   4.654   6.857  0.2783  0.1947  0.1231
 7882SOL    HW124545   1.788   4.669   6.950  0.7066  0.3821 -0.0682
 7882SOL    HW224546   1.699   4.733   6.829 -0.3726 -0.1239  0.4442
 7883SOL     OW24547   0.935   5.666   6.302 -0.5640  0.0310 -0.4372
 7883SOL    HW124548   1.026   5.704   6.317 -1.2369  1.3582  0.4301
 7883SOL    HW224549   0.910   5.676   6.205 -0.0355  0.1925 -0.5596
 7884SOL     OW24550   1.181   3.919   4.765  0.5087 -0.1636 -0.2744
 7884SOL    HW124551   1.169   3.855   4.842 -1.9474  0.3742 -0.1227
 7884SOL    HW224552   1.215   4.006   4.799  2.4326 -0.8739 -0.2757
 7885SOL     OW24553   1.492   6.538   1.064  0.4586  0.1730 -0.8292
 7885SOL    HW124554   1.549   6.571   1.139  0.1223 -0.4304 -0.2913
 7885SOL    HW224555   1.537   6.557   0.977  2.3780 -1.8147 -0.3952
 7886SOL     OW24556   3.520   5.588   5.832 -0.0525 -0.2205 -0.1370
 7886SOL    HW124557   3.443   5.648   5.850 -0.6462 -0.6953 -1.0385
 7886SOL    HW224558   3.510   5.503   5.884  0.6070  0.2960  0.8619
 7887SOL     OW24559   3.752   2.170   6.502  0.2138 -0.7456 -0.0110
 7887SOL    HW124560   3.812   2.105   6.454  1.1324  0.9769 -1.3141
 7887SOL    HW224561   3.662   2.170   6.459  0.5256 -0.4446 -0.6912
 7888SOL     OW24562   6.085   6.763   5.514 -0.1774 -0.1292 -0.3127
 7888SOL    HW124563   6.062   6.860   5.509 -1.7854 -0.5444 -1.7357
 7888SOL    HW224564   6.167   6.745   5.459 -0.1748  0.3243 -0.4611
 7889SOL     OW24565   0.921   4.833   1.301  0.4938  0.4136 -0.3764
 7889SOL    HW124566   0.979   4.765   1.256  0.4630  0.1661 -0.0529
 7889SOL    HW224567   0.840   4.787   1.339  0.8166  0.5131  0.4567
 7890SOL     OW24568   1.368   3.218   1.653 -0.0522 -0.2575 -0.5836
 7890SOL    HW124569   1.399   3.292   1.713  0.0233  1.1317 -2.2680
 7890SOL    HW224570   1.312   3.154   1.706 -0.1695  1.0194  0.9182
 7891SOL     OW24571   1.462   1.695   2.927 -0.2141 -0.1021 -0.0404
 7891SOL    HW124572   1.527   1.712   2.854 -0.5541  1.8041  0.0375
 7891SOL    HW224573   1.373   1.734   2.903 -0.5296 -0.0856  1.0679
 7892SOL     OW24574   1.641   0.940   3.977  0.1192 -0.3276 -0.3609
 7892SOL    HW124575   1.593   1.020   3.941  0.9021  0.0807 -0.4954
 7892SOL    HW224576   1.712   0.912   3.913 -0.0443 -1.0365 -0.2385
 7893SOL     OW24577   5.814   1.092   3.544  0.0093  0.6398  0.2786
 7893SOL    HW124578   5.841   1.150   3.467 -3.2104 -1.3208 -2.6523
 7893SOL    HW224579   5.879   1.017   3.555 -0.8504 -0.7015 -2.6784
 7894SOL     OW24580   3.809   7.008   2.524 -0.2464  0.4631 -0.0157
 7894SOL    HW124581   3.740   7.066   2.480 -0.0775  0.7770  0.1264
 7894SOL    HW224582   3.797   7.012   2.623 -1.7894 -1.6804 -0.0621
 7895SOL     OW24583   6.784   0.538   5.690  1.1467  0.0172  0.2753
 7895SOL    HW124584   6.866   0.500   5.648  0.7071 -1.5024  0.7113
 7895SOL    HW224585   6.711   0.546   5.622 -0.4573 -4.9869  0.9821
 7896SOL     OW24586   5.027   4.930   0.289  0.0026 -0.1613 -0.4988
 7896SOL    HW124587   4.952   4.929   0.223  0.3680 -0.7415 -0.9226
 7896SOL    HW224588   5.018   4.852   0.351  1.1161 -1.1822 -1.5707
 7897SOL     OW24589   4.174   2.106   6.350  0.7253  0.0442  0.1318
 7897SOL    HW124590   4.240   2.101   6.425 -0.1397 -2.0530  0.8315
 7897SOL    HW224591   4.222   2.105   6.263  1.6635 -0.7529  0.6385
 7898SOL     OW24592   4.264   1.398   3.103  0.1483 -0.2723 -0.1376
 7898SOL    HW124593   4.355   1.440   3.107  0.0394  0.3479 -2.5983
 7898SOL    HW224594   4.201   1.459   3.057 -2.0109 -0.0419  2.8577
 7899SOL     OW24595   0.357   2.550   2.529  0.3306  0.2322  0.6200
 7899SOL    HW124596   0.312   2.639   2.537  0.5503  0.6871 -2.2865
 7899SOL    HW224597   0.318   2.500   2.452  5.0427  0.9607 -2.6446
 7900SOL     OW24598   1.183   5.586   2.601  0.9104 -0.6287 -0.3764
 7900SOL    HW124599   1.275   5.618   2.621  1.1428 -2.7066  2.4516
 7900SOL    HW224600   1.116   5.644   2.647  1.1179 -1.7706  1.4439
 7901SOL     OW24601   6.269   1.061   6.967  0.1772  0.0115  0.4902
 7901SOL    HW124602   6.267   1.076   6.868 -0.2799  1.2861  0.6789
 7901SOL    HW224603   6.176   1.055   7.001  0.3339 -0.1801  0.8864
 7902SOL     OW24604   5.595   5.054   1.556  0.1323  0.1016 -0.1092
 7902SOL    HW124605   5.507   5.083   1.520  0.5097 -0.2782 -1.3934
 7902SOL    HW224606   5.656   5.133   1.562  0.6746 -0.1029 -2.1725
 7903SOL     OW24607   6.389   2.356   5.885 -0.0403 -0.1612  0.1185
 7903SOL    HW124608   6.301   2.392   5.855 -0.0075 -1.5140 -1.8479
 7903SOL    HW224609   6.463   2.411   5.845 -0.0043 -0.5549 -0.3695
 7904SOL     OW24610   5.375   0.172   3.312  0.6313 -0.5970  0.0308
 7904SOL    HW124611   5.300   0.124   3.267  0.1393 -0.5909  0.8243
 7904SOL    HW224612   5.405   0.249   3.255  1.7179 -2.0565 -1.4647
 7905SOL     OW24613   5.388   3.386   6.795 -0.5420  0.0081  0.1552
 7905SOL    HW124614   5.328   3.325   6.847 -0.9484 -1.0881 -1.4891
 7905SOL    HW224615   5.467   3.335   6.762  0.1790  0.9044  0.4685
 7906SOL     OW24616   0.296   4.470   1.536 -0.2615 -0.5419  0.3879
 7906SOL    HW124617   0.370   4.538   1.532  0.7910 -1.6446  0.4810
 7906SOL    HW224618   0.230   4.490   1.463 -0.5486  1.1888  1.0710
 7907SOL     OW24619   5.826   1.589   3.821 -0.0471 -0.1821  0.0030
 7907SOL    HW124620   5.748   1.626   3.872 -0.2590 -0.9757  0.2603
 7907SOL    HW224621   5.909   1.601   3.875 -0.5996 -3.3360  1.7823
 7908SOL     OW24622   1.041   0.973   3.217  0.2396 -0.2839  0.0174
 7908SOL    HW124623   0.977   0.924   3.158 -2.0883  0.5237  1.7357
 7908SOL    HW224624   1.054   0.922   3.303 -0.2918  0.8708  0.8089
 7909SOL     OW24625   6.556   2.766   5.210 -0.0647 -0.3087  0.2510
 7909SOL    HW124626   6.546   2.718   5.297  0.3467  0.7405  0.9001
 7909SOL    HW224627   6.639   2.734   5.164 -0.8089 -1.5874 -0.2542
 7910SOL     OW24628   3.165   3.520   6.397 -0.7921  0.1750 -0.3358
 7910SOL    HW124629   3.079   3.565   6.422 -1.0102 -0.0527 -0.6541
 7910SOL    HW224630   3.218   3.580   6.336 -0.8009  0.2506 -0.2685
 7911SOL     OW24631   0.617   3.137   6.618 -0.0189  0.3450 -0.0940
 7911SOL    HW124632   0.645   3.107   6.527 -0.8262 -1.4281  0.1932
 7911SOL    HW224633   0.690   3.190   6.660  0.3549  1.2027 -1.7655
 7912SOL     OW24634   5.674   4.510   1.342 -0.4206 -0.2223  0.5202
 7912SOL    HW124635   5.745   4.485   1.408  0.1340  0.2100  0.1003
 7912SOL    HW224636   5.584   4.494   1.383 -0.0879 -0.2512  1.2682
 7913SOL     OW24637   1.170   0.491   2.460 -0.3054 -0.0972 -0.6948
 7913SOL    HW124638   1.119   0.474   2.376  0.5941  0.4977 -1.3835
 7913SOL    HW224639   1.209   0.583   2.457  0.2011 -0.2744  0.1279
 7914SOL     OW24640   6.921   5.664   4.689  0.0553  0.1602 -0.0240
 7914SOL    HW124641   6.868   5.680   4.605  0.7382  0.6080 -0.3797
 7914SOL    HW224642   6.866   5.611   4.754 -0.5843  0.0543 -0.6425
 7915SOL     OW24643   6.606   2.511   2.988  0.0592  0.4921  0.1357
 7915SOL    HW124644   6.645   2.464   3.067  0.8779  2.1126  0.7210
 7915SOL    HW224645   6.637   2.465   2.904  0.8376 -0.0064  0.6811
 7916SOL     OW24646   5.534   5.026   6.246  0.3135  0.5970  0.0097
 7916SOL    HW124647   5.484   4.940   6.234 -0.1825  0.9059 -0.1315
 7916SOL    HW224648   5.573   5.029   6.338 -0.6071  0.7121  0.4010
 7917SOL     OW24649   3.421   3.145   3.704 -0.0975 -0.2624  0.3842
 7917SOL    HW124650   3.493   3.096   3.755 -0.5789 -0.2346  1.1132
 7917SOL    HW224651   3.452   3.238   3.684  0.0726 -0.2465  0.7074
 7918SOL     OW24652   6.855   1.608   0.199 -0.1984 -0.2439 -0.7575
 7918SOL    HW124653   6.769   1.602   0.148 -0.1793  0.1011 -0.8303
 7918SOL    HW224654   6.932   1.606   0.135 -0.1525 -0.4601 -0.6981
 7919SOL     OW24655   0.789   3.602   2.973  0.5144  0.1882 -0.0524
 7919SOL    HW124656   0.870   3.551   3.004 -1.0476 -1.5610  1.3337
 7919SOL    HW224657   0.737   3.545   2.910 -0.0038  1.0628 -0.4283
 7920SOL     OW24658   0.011   6.026   6.335  0.1845 -0.1242  0.3070
 7920SOL    HW124659  -0.087   6.033   6.356 -0.1757 -1.4688 -0.7922
 7920SOL    HW224660   0.030   6.072   6.248  0.8036  1.2893  1.1493
 7921SOL     OW24661   4.107   5.834   0.866 -0.0010  0.1281 -0.3019
 7921SOL    HW124662   4.129   5.881   0.951 -1.6192 -0.5806  0.5709
 7921SOL    HW224663   4.125   5.736   0.876 -2.0560 -0.2793  0.0040
 7922SOL     OW24664   5.862   4.442   1.526  0.1782 -0.4207  0.0907
 7922SOL    HW124665   5.867   4.344   1.540 -2.2556 -0.4935  0.8530
 7922SOL    HW224666   5.813   4.485   1.602 -1.0383  1.0424 -1.4295
 7923SOL     OW24667   6.106   1.159   2.889 -0.1524 -0.0055  0.3698
 7923SOL    HW124668   6.139   1.253   2.888 -1.3899  0.4564  0.5925
 7923SOL    HW224669   6.183   1.096   2.896  0.6186  1.0640  2.2026
 7924SOL     OW24670   6.307   0.007   3.445  0.3918  0.3027  0.0905
 7924SOL    HW124671   6.301  -0.043   3.359  1.1427 -0.1788  0.3081
 7924SOL    HW224672   6.345   0.098   3.430  1.0519  0.0125 -0.0111
 7925SOL     OW24673   0.470   1.695   6.874  0.1288 -0.3945  0.1070
 7925SOL    HW124674   0.452   1.751   6.793 -3.4823 -0.8887  0.4317
 7925SOL    HW224675   0.492   1.755   6.951 -0.0729  0.3178 -0.3801
 7926SOL     OW24676   5.161   1.931   4.078 -0.4065 -0.0840  0.3854
 7926SOL    HW124677   5.068   1.922   4.042 -0.8557  2.2916  0.7664
 7926SOL    HW224678   5.162   2.001   4.149  2.2970  3.1766 -2.4633
 7927SOL     OW24679   4.739   5.128   4.994  0.0593 -0.5560  0.1338
 7927SOL    HW124680   4.812   5.060   4.986  0.8857  0.5316 -2.9430
 7927SOL    HW224681   4.673   5.116   4.920 -1.0559  0.5483  0.9089
 7928SOL     OW24682   6.875   2.283   4.452  0.3153 -0.0698  0.2804
 7928SOL    HW124683   6.811   2.233   4.511  1.2085  1.2398  2.4682
 7928SOL    HW224684   6.948   2.222   4.422 -0.6070 -0.9648 -0.2086
 7929SOL     OW24685   4.958   1.898   5.351 -0.1801 -0.5018 -0.2352
 7929SOL    HW124686   4.865   1.932   5.342 -0.5211 -1.9133 -3.0067
 7929SOL    HW224687   5.020   1.955   5.296  0.1622 -1.0834 -0.4618
 7930SOL     OW24688   5.256   5.842   4.926  0.4878 -0.0687  0.0417
 7930SOL    HW124689   5.308   5.896   4.860 -0.3849  0.1962 -0.4548
 7930SOL    HW224690   5.266   5.745   4.906  0.9191 -0.0284  0.0546
 7931SOL     OW24691   2.693   0.569   6.151  0.2923 -0.2975 -0.0427
 7931SOL    HW124692   2.780   0.571   6.200  0.6864 -0.6663 -0.7114
 7931SOL    HW224693   2.620   0.541   6.214  0.7759 -0.6710  0.3604
 7932SOL     OW24694   3.792   5.623   0.563  0.3645  0.0609  0.4114
 7932SOL    HW124695   3.803   5.697   0.630  1.3844  1.0738 -0.8359
 7932SOL    HW224696   3.882   5.588   0.536 -0.0801 -1.2238  0.4906
 7933SOL     OW24697   1.803   6.328   6.952 -0.2396 -0.4022  0.5025
 7933SOL    HW124698   1.869   6.322   6.878 -0.3191 -2.0193  0.5284
 7933SOL    HW224699   1.744   6.408   6.938  0.1310 -0.3477 -0.8350
 7934SOL     OW24700   2.400   4.757   6.756 -0.3695  0.2464  0.0851
 7934SOL    HW124701   2.437   4.849   6.766 -0.4378  0.0834  2.0594
 7934SOL    HW224702   2.457   4.705   6.692  1.7081  0.6115  1.5594
 7935SOL     OW24703   5.537   6.979   6.337  0.0258 -0.1474 -0.3652
 7935SOL    HW124704   5.515   7.029   6.421  0.1767  0.1520 -0.5027
 7935SOL    HW224705   5.622   7.014   6.299  0.7131 -1.2443  0.1196
 7936SOL     OW24706   3.492   4.941   4.319  0.1170 -0.2041  0.1357
 7936SOL    HW124707   3.571   4.881   4.316  0.8823  0.7798 -2.2575
 7936SOL    HW224708   3.416   4.899   4.269  0.2951  0.2838 -0.5727
 7937SOL     OW24709   6.502   5.316   0.568  1.0579 -0.0633  0.0209
 7937SOL    HW124710   6.493   5.414   0.548 -1.9616 -0.6355 -1.9783
 7937SOL    HW224711   6.574   5.303   0.636 -0.0816  3.7863  2.2812
 7938SOL     OW24712   4.139   4.958   5.464 -0.4581 -0.4537  0.2973
 7938SOL    HW124713   4.197   4.920   5.536  0.7109 -0.1352 -0.4355
 7938SOL    HW224714   4.163   4.916   5.376  0.0869  1.1042 -0.3489
 7939SOL     OW24715   2.078   2.603   6.485 -0.5202 -0.6260  0.3446
 7939SOL    HW124716   2.123   2.606   6.574 -0.4809  0.3562  0.2944
 7939SOL    HW224717   1.988   2.645   6.491 -0.8349 -1.2490  0.0943
 7940SOL     OW24718   0.910   4.352   3.542 -0.4563 -0.0527  0.5274
 7940SOL    HW124719   0.873   4.278   3.487 -3.3821  1.3405  0.4455
 7940SOL    HW224720   0.904   4.438   3.492 -1.9332  1.0359  2.4139
 7941SOL     OW24721   0.495   2.235   0.431 -0.0359 -0.0176 -0.6885
 7941SOL    HW124722   0.588   2.206   0.409  1.1478  0.6765  2.6705
 7941SOL    HW224723   0.473   2.319   0.381  0.8044 -0.6130 -2.1140
 7942SOL     OW24724   0.967   5.776   2.278 -0.0273 -0.4369  0.0063
 7942SOL    HW124725   0.917   5.832   2.344 -1.3894  0.0314 -1.3689
 7942SOL    HW224726   0.941   5.802   2.186  0.9595 -1.8691 -0.7142
 7943SOL     OW24727   5.325   3.628   6.133  0.6008  0.2711  0.1893
 7943SOL    HW124728   5.295   3.558   6.198 -2.2918  2.3579  1.3415
 7943SOL    HW224729   5.375   3.699   6.182  1.8766 -0.0246 -0.6369
 7944SOL     OW24730   1.252   3.869   0.571  0.4323  0.6444 -0.5807
 7944SOL    HW124731   1.308   3.869   0.488  0.3045 -0.0946 -0.6765
 7944SOL    HW224732   1.283   3.796   0.631 -0.3458  0.3107 -0.5790
 7945SOL     OW24733   5.798   6.218   3.036  0.0267 -0.0041 -0.2551
 7945SOL    HW124734   5.839   6.130   3.014  0.4658  0.4001 -1.1129
 7945SOL    HW224735   5.844   6.257   3.116  0.8390  0.1202 -0.7768
 7946SOL     OW24736   1.244   2.719   6.195  0.1946 -0.2651 -0.1452
 7946SOL    HW124737   1.281   2.778   6.267  0.4906  0.5267 -0.9378
 7946SOL    HW224738   1.217   2.774   6.117  1.0810 -1.2332 -1.1721
 7947SOL     OW24739   3.966   1.896   0.015 -0.4087  0.4280  0.0576
 7947SOL    HW124740   4.032   1.868  -0.055 -1.5109  0.1898 -0.9262
 7947SOL    HW224741   4.012   1.904   0.103  0.8016 -0.3227 -0.4790
 7948SOL     OW24742   2.142   6.650   2.489 -0.1566  0.4978  0.2065
 7948SOL    HW124743   2.185   6.654   2.399 -0.7305  0.6385 -0.0696
 7948SOL    HW224744   2.044   6.669   2.480 -0.6531 -1.5703  0.5575
 7949SOL     OW24745   5.048   4.487   4.323  0.9313 -0.4432 -0.2266
 7949SOL    HW124746   5.134   4.532   4.347 -0.6705  2.0343  1.3716
 7949SOL    HW224747   5.027   4.504   4.227  1.9536 -0.6161 -0.4896
 7950SOL     OW24748   4.459   5.312   3.598  0.5979 -0.3767  0.2274
 7950SOL    HW124749   4.374   5.292   3.549  0.0977 -3.0333  1.9318
 7950SOL    HW224750   4.456   5.268   3.688  3.0294  1.0701  1.0991
 7951SOL     OW24751   1.074   3.604   1.033 -0.6628  0.6870  0.0851
 7951SOL    HW124752   1.045   3.665   0.960  1.5314  0.4383 -1.0710
 7951SOL    HW224753   1.145   3.648   1.088  0.1982 -0.3982 -0.1148
 7952SOL     OW24754   0.410   4.132   6.248 -0.7308 -0.3372  0.3973
 7952SOL    HW124755   0.359   4.203   6.199 -0.0355  0.6198  1.0221
 7952SOL    HW224756   0.396   4.143   6.346  1.6984  0.8338  0.6930
 7953SOL     OW24757   1.407   2.535   3.748 -0.7640 -0.7941 -0.6555
 7953SOL    HW124758   1.374   2.584   3.829  0.1304  0.4881 -1.0256
 7953SOL    HW224759   1.468   2.462   3.776  1.4507  1.1152 -0.1738
 7954SOL     OW24760   3.301   3.367   5.309  0.1254 -0.0846  0.4515
 7954SOL    HW124761   3.325   3.305   5.234  0.0022 -0.6748  0.8913
 7954SOL    HW224762   3.205   3.393   5.301  0.4117  0.8208 -0.2704
 7955SOL     OW24763   0.991   0.230   5.310 -0.2098 -0.3589 -0.4336
 7955SOL    HW124764   1.053   0.286   5.366 -1.5682  0.2658  0.5132
 7955SOL    HW224765   0.937   0.171   5.370 -0.1584 -1.3029 -1.2857
 7956SOL     OW24766   1.928   4.704   4.757 -0.2139 -0.0156 -0.0710
 7956SOL    HW124767   1.921   4.803   4.748  1.0159  0.0695 -0.1920
 7956SOL    HW224768   1.836   4.664   4.752 -0.7745  1.1455  0.4780
 7957SOL     OW24769   4.057   1.929   1.140 -0.2352 -0.5744 -0.0089
 7957SOL    HW124770   4.089   2.018   1.171 -0.1167 -0.5934 -0.0749
 7957SOL    HW224771   3.986   1.941   1.070 -0.4225 -0.5321  0.1852
 7958SOL     OW24772   2.163   4.846   4.640 -0.3179 -0.0913 -0.9234
 7958SOL    HW124773   2.169   4.902   4.722  1.3925 -0.6783 -0.6068
 7958SOL    HW224774   2.100   4.770   4.656 -0.6709  0.2956 -0.4590
 7959SOL     OW24775   2.226   6.523   6.169  0.4677 -0.1526 -0.1651
 7959SOL    HW124776   2.224   6.576   6.254  0.1530 -0.2302 -0.1219
 7959SOL    HW224777   2.138   6.533   6.122 -0.4169 -2.3376  0.8999
 7960SOL     OW24778   4.021   3.103   0.171 -0.2852 -0.3213 -0.1954
 7960SOL    HW124779   4.076   3.026   0.138 -1.3658 -0.2642 -2.3107
 7960SOL    HW224780   4.021   3.176   0.101 -1.4247  0.4882  0.6163
 7961SOL     OW24781   2.428   6.199   1.319  0.1147  0.3328 -0.7350
 7961SOL    HW124782   2.491   6.262   1.272  1.0066 -0.3000 -0.4174
 7961SOL    HW224783   2.479   6.119   1.350 -0.7723  0.0237 -0.0540
 7962SOL     OW24784   3.045   0.109   1.086 -0.2681  0.5080 -0.3258
 7962SOL    HW124785   2.950   0.128   1.112  0.1278  1.1311  0.7075
 7962SOL    HW224786   3.074   0.022   1.126 -0.7402 -0.2515 -1.5727
 7963SOL     OW24787   6.201   6.666   3.516  0.2374 -0.0762 -0.0506
 7963SOL    HW124788   6.191   6.744   3.577  0.7858 -1.4595  1.9236
 7963SOL    HW224789   6.291   6.668   3.473  0.6058 -0.1066  0.7145
 7964SOL     OW24790   5.231   4.699   4.435  0.0671 -0.8367 -0.1630
 7964SOL    HW124791   5.170   4.673   4.510  0.2962 -2.1375 -0.3951
 7964SOL    HW224792   5.319   4.653   4.446  0.9298  0.8085  0.0227
 7965SOL     OW24793   4.058   4.809   5.908  0.6368  0.3939 -0.6403
 7965SOL    HW124794   3.978   4.780   5.856 -0.3626  0.0016  1.0487
 7965SOL    HW224795   4.031   4.833   6.001  2.5069  0.1196  0.0257
 7966SOL     OW24796   1.276   3.433   3.731  0.2835  0.1494  0.3074
 7966SOL    HW124797   1.187   3.466   3.698  0.8101  1.8378  0.5016
 7966SOL    HW224798   1.341   3.432   3.655  0.5516  0.6044  0.5275
 7967SOL     OW24799   4.418   4.738   5.599  0.1676 -0.2793 -0.7718
 7967SOL    HW124800   4.507   4.703   5.570  0.0362 -0.3578 -1.0845
 7967SOL    HW224801   4.346   4.685   5.556 -0.0939 -2.4580  2.0606
 7968SOL     OW24802   1.065   2.271   2.901  0.1032 -0.5836 -0.0487
 7968SOL    HW124803   1.007   2.189   2.902  0.4970 -0.8715 -0.4984
 7968SOL    HW224804   1.148   2.253   2.848 -0.1946  0.3679 -0.8778
 7969SOL     OW24805   4.284   6.327   4.102  0.1879  0.5213  0.4336
 7969SOL    HW124806   4.359   6.264   4.084  0.3929  0.6928  0.6904
 7969SOL    HW224807   4.198   6.287   4.069  0.3199  0.1195  0.5799
 7970SOL     OW24808   0.186   3.229   2.456 -0.4167  0.9628  1.3212
 7970SOL    HW124809   0.104   3.173   2.467 -0.2221  0.1605 -0.8372
 7970SOL    HW224810   0.162   3.314   2.410  0.2272 -0.3870 -1.7563
 7971SOL     OW24811   3.867   2.794   1.568  0.1483  0.4940 -0.1396
 7971SOL    HW124812   3.847   2.707   1.613  1.1850  0.1080 -0.4031
 7971SOL    HW224813   3.782   2.844   1.552 -0.3071  0.4453  1.8522
 7972SOL     OW24814   0.118   3.970   7.008 -0.3978  0.7709 -0.1447
 7972SOL    HW124815   0.179   3.924   7.072  0.5022 -0.8528 -2.0626
 7972SOL    HW224816   0.038   3.911   6.991 -0.5100  1.0778 -0.6829
 7973SOL     OW24817   5.047   4.760   3.194 -0.3334 -0.1013  0.6872
 7973SOL    HW124818   5.118   4.741   3.126 -0.6160  0.7253  0.1450
 7973SOL    HW224819   4.988   4.680   3.203  0.3006 -0.5812  0.7021
 7974SOL     OW24820   5.114   6.629   4.544  0.3031 -0.3695 -0.2815
 7974SOL    HW124821   5.087   6.535   4.521 -0.6433 -0.4243  0.9611
 7974SOL    HW224822   5.041   6.692   4.517 -0.4941 -0.3561  1.7317
 7975SOL     OW24823   4.772   0.101   2.658  0.1654  0.1212  0.2297
 7975SOL    HW124824   4.676   0.095   2.631  0.2502  0.2162 -0.0921
 7975SOL    HW224825   4.830   0.099   2.577  0.5618 -2.3385  0.5036
 7976SOL     OW24826   6.181   3.351   0.417  0.2159 -0.9557 -0.0371
 7976SOL    HW124827   6.277   3.355   0.445  0.5373  2.2379 -1.2597
 7976SOL    HW224828   6.175   3.317   0.324  0.2870 -0.0823 -0.3661
 7977SOL     OW24829   4.980   5.967   1.164 -0.1625  0.0964  0.0429
 7977SOL    HW124830   4.937   6.038   1.220  1.4983 -0.3997  2.0389
 7977SOL    HW224831   4.922   5.948   1.084 -2.5016  1.0118  1.4312
 7978SOL     OW24832   5.874   4.818   6.485  0.2421 -0.1792  0.1321
 7978SOL    HW124833   5.918   4.842   6.399 -0.5611 -2.2260 -0.9294
 7978SOL    HW224834   5.938   4.768   6.543  0.2693 -0.3728 -0.0627
 7979SOL     OW24835   1.863   1.650   6.027  0.0713  0.2052 -0.0789
 7979SOL    HW124836   1.893   1.625   5.935  1.3204 -1.3867  0.6997
 7979SOL    HW224837   1.779   1.600   6.049  1.2866 -1.6839  0.6046
 7980SOL     OW24838   4.320   6.620   0.933  0.0306 -0.4515 -0.0325
 7980SOL    HW124839   4.384   6.586   0.864  1.2519 -1.9202  1.7288
 7980SOL    HW224840   4.236   6.566   0.931  0.4015 -1.0475  0.1507
 7981SOL     OW24841   1.194   4.276   2.250  0.2387  0.6144 -0.3261
 7981SOL    HW124842   1.139   4.286   2.333 -0.7103  2.4681 -1.1154
 7981SOL    HW224843   1.261   4.350   2.247 -0.4331  1.2002 -1.6785
 7982SOL     OW24844   1.292   2.129   0.862  0.4157 -0.3758 -0.2893
 7982SOL    HW124845   1.199   2.102   0.836  0.5101 -0.5282 -0.4698
 7982SOL    HW224846   1.297   2.229   0.867 -0.2621 -0.3960  1.5792
 7983SOL     OW24847   6.795   1.645   2.889  0.3261  0.5964  0.1195
 7983SOL    HW124848   6.769   1.604   2.801 -2.5130  3.5752 -0.6238
 7983SOL    HW224849   6.733   1.611   2.960  1.8258 -0.8516  0.7910
 7984SOL     OW24850   2.017   1.451   1.376 -0.0916 -0.1266 -0.2531
 7984SOL    HW124851   1.959   1.375   1.348 -0.5558 -0.3116  1.1364
 7984SOL    HW224852   2.108   1.418   1.399  0.4190  0.0808 -1.8422
 7985SOL     OW24853   0.605   6.848   3.053  0.0618  0.1948 -0.3762
 7985SOL    HW124854   0.637   6.857   3.148  0.2817  0.5150 -0.4793
 7985SOL    HW224855   0.573   6.937   3.020 -0.4074 -0.0073 -0.4636
 7986SOL     OW24856   3.122   1.067   5.431 -0.2777  0.0806 -0.3227
 7986SOL    HW124857   3.119   1.158   5.471 -2.4905 -0.6380  1.3047
 7986SOL    HW224858   3.066   1.066   5.347 -2.5438 -0.3424  1.1052
 7987SOL     OW24859   2.278   4.349   6.290  0.0552  0.0477 -0.0850
 7987SOL    HW124860   2.271   4.415   6.365  0.4443  1.4527 -1.2588
 7987SOL    HW224861   2.323   4.266   6.323 -0.6020  0.2646  1.4544
 7988SOL     OW24862   6.943   0.786   5.711 -0.5480  0.4029 -0.0647
 7988SOL    HW124863   6.896   0.698   5.704 -1.7993  0.9625  0.8325
 7988SOL    HW224864   7.034   0.779   5.670 -0.9385 -1.0669 -0.7466
 7989SOL     OW24865   2.750   1.513   5.010  0.5416  0.1580 -0.4823
 7989SOL    HW124866   2.792   1.516   5.100  0.0802 -1.3492 -0.1839
 7989SOL    HW224867   2.746   1.605   4.972  0.2376  0.9104  1.2663
 7990SOL     OW24868   5.642   4.730   3.756 -0.2465  0.6467  0.4059
 7990SOL    HW124869   5.606   4.804   3.699  1.4447  1.4305  0.2831
 7990SOL    HW224870   5.594   4.645   3.734  0.3701  0.8959 -2.3059
 7991SOL     OW24871   5.544   5.872   5.527 -0.0663 -0.5783 -0.1307
 7991SOL    HW124872   5.577   5.953   5.479  0.9874 -0.9557 -0.0601
 7991SOL    HW224873   5.482   5.901   5.601 -0.6864  0.0734 -0.8828
 7992SOL     OW24874   1.756   5.933   0.664 -0.2951  0.0553 -0.0011
 7992SOL    HW124875   1.718   5.897   0.579  2.3587 -1.5099 -0.6275
 7992SOL    HW224876   1.808   5.861   0.711  0.5984  1.6437  1.5658
 7993SOL     OW24877   2.552   6.779   5.860 -0.1971  0.0137  0.4499
 7993SOL    HW124878   2.542   6.682   5.840 -1.4236  0.0204  0.9775
 7993SOL    HW224879   2.629   6.792   5.923  0.4434 -0.5230 -0.2021
 7994SOL     OW24880   5.389   6.557   4.457 -0.3340  0.3936  0.1365
 7994SOL    HW124881   5.307   6.601   4.492 -0.4535  1.5865 -1.5168
 7994SOL    HW224882   5.424   6.609   4.379  2.6663  0.5694  1.4721
 7995SOL     OW24883   3.223   6.499   1.342  0.1974 -0.2390 -0.3358
 7995SOL    HW124884   3.313   6.486   1.382  0.6707 -1.3401 -1.6583
 7995SOL    HW224885   3.154   6.456   1.400  0.6228 -0.0971  0.2807
 7996SOL     OW24886   2.626   0.472   5.244 -0.4184 -0.7171 -0.1375
 7996SOL    HW124887   2.719   0.459   5.209 -0.4762  0.8078 -0.9453
 7996SOL    HW224888   2.569   0.394   5.218  0.6749 -1.8093  0.6125
 7997SOL     OW24889   0.230   0.676   6.653 -0.5066  0.0229 -0.0990
 7997SOL    HW124890   0.198   0.745   6.587  1.1836 -1.2637 -2.4324
 7997SOL    HW224891   0.151   0.632   6.696 -1.7865 -0.1394 -2.4400
 7998SOL     OW24892   2.652   5.063   1.236  0.4340 -0.9031  0.3134
 7998SOL    HW124893   2.619   5.153   1.208  0.1987 -0.7639  1.0313
 7998SOL    HW224894   2.602   4.992   1.186  0.3220 -0.6467  0.0606
 7999SOL     OW24895   2.035   1.670   0.055  0.1815  0.0093  0.1769
 7999SOL    HW124896   1.964   1.704   0.115  0.5816 -0.6676  1.0565
 7999SOL    HW224897   2.024   1.571   0.043  0.8539 -0.0726  0.1768
 8000SOL     OW24898   5.700   1.623   6.018  0.5279 -0.0220 -0.0462
 8000SOL    HW124899   5.761   1.701   6.026 -0.7478  1.1411 -1.1745
 8000SOL    HW224900   5.613   1.643   6.062  0.5389 -1.2231  0.5695
 8001SOL     OW24901   2.795   6.210   0.936  0.1835  0.5104  0.8339
 8001SOL    HW124902   2.765   6.303   0.919  0.3510  0.4511  0.1638
 8001SOL    HW224903   2.728   6.163   0.994 -0.8578  0.4917 -0.3212
 8002SOL     OW24904   5.987   3.867   5.278 -0.1840  0.3971  0.0030
 8002SOL    HW124905   6.065   3.844   5.336 -0.4546  0.3931  0.3687
 8002SOL    HW224906   5.991   3.964   5.254 -0.8528  0.7591  1.2488
 8003SOL     OW24907   3.148   5.677   3.415 -0.2019 -0.1992 -0.1789
 8003SOL    HW124908   3.055   5.673   3.452 -0.2763 -2.5560 -0.5142
 8003SOL    HW224909   3.167   5.595   3.362  2.3366 -0.1255  0.4773
 8004SOL     OW24910   2.021   4.844   3.906  0.0760 -0.0461  0.3582
 8004SOL    HW124911   2.121   4.854   3.905  0.0821 -0.0025  0.9604
 8004SOL    HW224912   1.986   4.869   3.996 -0.4564 -0.2862  0.2227
 8005SOL     OW24913   4.171   0.824   1.732 -0.0956  0.2449  0.0590
 8005SOL    HW124914   4.104   0.848   1.662  0.0091 -0.4807 -0.2974
 8005SOL    HW224915   4.126   0.822   1.821  0.0767  2.6780  0.2775
 8006SOL     OW24916   3.370   6.149   2.642 -0.1875 -0.4108  0.1240
 8006SOL    HW124917   3.370   6.147   2.542 -0.4635  1.4709  0.0625
 8006SOL    HW224918   3.276   6.154   2.675 -0.0376  1.6582  0.3596
 8007SOL     OW24919   6.633   1.210   3.513  0.0681  0.0585  0.6429
 8007SOL    HW124920   6.593   1.274   3.579  0.1336 -0.0515  0.7891
 8007SOL    HW224921   6.634   1.253   3.422  0.6436  0.4843  0.8461
 8008SOL     OW24922   3.806   6.277   6.281 -0.3734  0.4291  0.5584
 8008SOL    HW124923   3.752   6.227   6.213  0.0732 -1.2762  1.4017
 8008SOL    HW224924   3.865   6.344   6.235  0.5385 -1.2619 -0.8379
 8009SOL     OW24925   0.380   2.628   3.349  0.1392  0.2215  0.2406
 8009SOL    HW124926   0.320   2.599   3.275  1.0159  0.5408 -0.6163
 8009SOL    HW224927   0.373   2.564   3.426 -0.6672 -0.1910 -0.1709
 8010SOL     OW24928   1.010   1.487   0.104  0.0555 -0.2937 -0.0325
 8010SOL    HW124929   1.020   1.556   0.032 -0.3974  0.3755  0.5329
 8010SOL    HW224930   1.058   1.404   0.077 -0.5719 -0.2473 -1.3693
 8011SOL     OW24931   2.542   2.311   0.617 -0.0511  0.2627 -0.0463
 8011SOL    HW124932   2.632   2.269   0.605  0.2739  1.1538 -0.8721
 8011SOL    HW224933   2.552   2.409   0.633 -0.7651 -0.0207  2.5326
 8012SOL     OW24934   3.504   0.519   1.550  0.4824 -0.0255 -0.5206
 8012SOL    HW124935   3.481   0.616   1.559  0.0295 -0.0098 -1.6979
 8012SOL    HW224936   3.426   0.463   1.580  1.1066 -0.0691  1.1432
 8013SOL     OW24937   0.974   4.338   3.811 -0.5509 -0.4234 -0.0978
 8013SOL    HW124938   1.019   4.413   3.858  1.1374 -1.5212  0.1317
 8013SOL    HW224939   0.960   4.362   3.715  2.0497 -0.5835 -0.5906
 8014SOL     OW24940   5.542   4.341   3.676 -0.5129  0.1495 -0.5487
 8014SOL    HW124941   5.479   4.275   3.635 -1.1396  0.3081  0.1427
 8014SOL    HW224942   5.591   4.298   3.751 -1.2207  0.5736  0.1699
 8015SOL     OW24943   4.068   1.144   0.786 -0.3189 -0.1898 -0.1222
 8015SOL    HW124944   3.982   1.165   0.833 -0.9365  0.3319 -1.4248
 8015SOL    HW224945   4.100   1.226   0.739  0.8185 -0.4312  0.2080
 8016SOL     OW24946   5.698   0.905   5.291  0.3180  0.2536  0.0007
 8016SOL    HW124947   5.693   0.835   5.219  0.7606  0.3953 -0.1669
 8016SOL    HW224948   5.630   0.976   5.273 -0.7410 -0.5693  0.6419
 8017SOL     OW24949   1.871   6.150   5.931  0.1385 -0.8751 -0.5303
 8017SOL    HW124950   1.905   6.162   5.838 -2.5659 -0.3299 -1.5461
 8017SOL    HW224951   1.942   6.108   5.987  2.0574 -0.6931 -2.6655
 8018SOL     OW24952   5.321   2.808   6.480 -0.3636  0.3839  0.3281
 8018SOL    HW124953   5.397   2.804   6.415  0.3406  1.9160  1.0084
 8018SOL    HW224954   5.327   2.732   6.544  0.9363  0.7950  0.7215
 8019SOL     OW24955   3.354   3.259   1.852  0.0218  0.3448  0.5823
 8019SOL    HW124956   3.319   3.353   1.861  1.8330  1.0779  0.2712
 8019SOL    HW224957   3.451   3.258   1.873 -0.0494 -1.5567  0.9371
 8020SOL     OW24958   5.303   5.995   0.281  0.8881  0.3443  0.3099
 8020SOL    HW124959   5.265   5.943   0.358 -0.4092  0.7683 -0.0174
 8020SOL    HW224960   5.340   6.081   0.314 -1.4198  1.4226  0.2852
 8021SOL     OW24961   1.633   1.600   1.705 -0.1642 -0.0892  0.4198
 8021SOL    HW124962   1.708   1.590   1.641 -2.1309 -0.3965 -1.9845
 8021SOL    HW224963   1.645   1.537   1.782  1.4673 -0.8554 -0.4336
 8022SOL     OW24964   5.710   6.991   3.933 -0.0871  0.3867  0.2990
 8022SOL    HW124965   5.737   6.907   3.980  0.9700  0.5088 -0.0541
 8022SOL    HW224966   5.639   7.037   3.986 -1.2825 -1.1325  0.0706
 8023SOL     OW24967   5.392   5.844   2.658 -0.3703 -0.6151 -0.7498
 8023SOL    HW124968   5.375   5.759   2.707  0.0442 -0.2901 -0.0308
 8023SOL    HW224969   5.363   5.834   2.562  0.1834 -1.7298 -0.8100
 8024SOL     OW24970   3.990   3.194   5.007  0.2709  0.7070  0.5801
 8024SOL    HW124971   3.914   3.201   4.942 -0.2441  0.9283  1.1940
 8024SOL    HW224972   3.960   3.141   5.086  1.0182  0.0996  0.4604
 8025SOL     OW24973   2.755   0.177   5.790 -0.5023  0.2928  0.1584
 8025SOL    HW124974   2.738   0.265   5.744 -1.6979  0.2110  0.4027
 8025SOL    HW224975   2.755   0.104   5.723  1.2226  0.5391 -0.1449
 8026SOL     OW24976   0.701   5.065   6.487  0.3250 -0.7933  0.7744
 8026SOL    HW124977   0.695   5.153   6.533  0.3684 -0.1989 -0.3144
 8026SOL    HW224978   0.632   5.062   6.414  0.3101 -1.6742  0.8204
 8027SOL     OW24979   2.834   3.917   6.636  0.0332  0.2329  0.1419
 8027SOL    HW124980   2.834   3.918   6.736  0.7542  0.2215  0.1488
 8027SOL    HW224981   2.746   3.884   6.603 -0.6780  1.4273  0.7535
 8028SOL     OW24982   3.588   4.637   6.055 -0.0003  0.5574 -0.5427
 8028SOL    HW124983   3.525   4.700   6.010  0.6987  1.3320 -0.4562
 8028SOL    HW224984   3.543   4.549   6.069 -1.1128  1.1526 -0.3238
 8029SOL     OW24985   4.181   3.765   0.981  0.5248 -0.2331  0.3944
 8029SOL    HW124986   4.245   3.702   0.938  0.8969  0.6216 -0.3564
 8029SOL    HW224987   4.105   3.714   1.020  0.9185 -1.1512  0.0002
 8030SOL     OW24988   3.488   4.219   5.834 -0.6114  0.2640  0.0005
 8030SOL    HW124989   3.567   4.189   5.888 -0.8518  0.8723  0.7148
 8030SOL    HW224990   3.514   4.226   5.738 -0.0901 -0.5584  0.0720
 8031SOL     OW24991   4.719   6.632   1.917  0.9693 -0.5350  0.4490
 8031SOL    HW124992   4.623   6.648   1.895  0.6549 -1.2547  1.2246
 8031SOL    HW224993   4.754   6.708   1.972  1.1895  0.2849 -0.7867
 8032SOL     OW24994   5.552   5.102   6.815 -0.2670 -0.6142  0.2387
 8032SOL    HW124995   5.525   5.195   6.791 -0.0160 -0.0974  1.7973
 8032SOL    HW224996   5.480   5.038   6.790 -1.1347  0.2117  0.5603
 8033SOL     OW24997   6.476   3.980   4.334  0.1513 -0.2450 -0.2111
 8033SOL    HW124998   6.483   4.075   4.363 -1.3637 -0.2286  0.1703
 8033SOL    HW224999   6.402   3.935   4.383 -0.7441 -0.9520 -2.1105
 8034SOL     OW25000   5.939   2.123   6.630 -0.5314  0.1827 -0.8345
 8034SOL    HW125001   5.926   2.161   6.722  0.7555  0.1603 -0.6222
 8034SOL    HW225002   5.917   2.193   6.562 -1.5842  0.1686 -0.5186
 8035SOL     OW25003   3.195   0.416   5.322 -0.7842 -0.5818 -0.0603
 8035SOL    HW125004   3.159   0.410   5.415 -2.0889 -0.4508 -0.5281
 8035SOL    HW225005   3.257   0.494   5.315 -0.6375 -0.6238  0.7101
 8036SOL     OW25006   0.069   4.137   2.032  0.1262 -0.1834  0.3097
 8036SOL    HW125007  -0.004   4.071   2.050  0.3114 -1.4498 -2.9653
 8036SOL    HW225008   0.033   4.230   2.038 -1.2678 -0.7246  0.6488
 8037SOL     OW25009   2.511   3.895   1.615  0.1405 -0.9870 -0.6628
 8037SOL    HW125010   2.557   3.845   1.688  0.4898 -0.7656 -0.7315
 8037SOL    HW225011   2.436   3.839   1.580 -2.3781  0.3150  2.2526
 8038SOL     OW25012   2.684   0.432   1.978 -0.6179  0.5580 -0.4052
 8038SOL    HW125013   2.655   0.515   1.932  0.5246  1.2013 -0.0200
 8038SOL    HW225014   2.642   0.427   2.069 -1.9432 -0.1177 -1.0282
 8039SOL     OW25015   0.570   0.416   4.439 -0.3840  0.0473 -0.8471
 8039SOL    HW125016   0.520   0.331   4.453  0.2646 -0.1573  0.3104
 8039SOL    HW225017   0.549   0.452   4.348 -3.9395  0.8487  0.1355
 8040SOL     OW25018   3.031   6.385   0.732  0.4274  0.0630 -0.1204
 8040SOL    HW125019   2.978   6.414   0.653  1.2318  0.9391 -0.3556
 8040SOL    HW225020   3.051   6.287   0.724  0.3482  0.1037 -0.9153
 8041SOL     OW25021   4.299   1.792   3.177  0.8649  0.1368 -0.2101
 8041SOL    HW125022   4.239   1.740   3.238  0.1767  0.1320 -0.8774
 8041SOL    HW225023   4.263   1.787   3.083  1.5302  0.7114 -0.4992
 8042SOL     OW25024   3.539   2.858   2.694  0.3747 -0.4317 -0.2594
 8042SOL    HW125025   3.612   2.806   2.739  2.5171  0.3049 -2.6485
 8042SOL    HW225026   3.538   2.951   2.729 -1.3710 -1.1193  1.7505
 8043SOL     OW25027   2.431   0.804   1.668  0.2785  0.4249  0.1363
 8043SOL    HW125028   2.418   0.705   1.661  2.4197 -0.1188  2.4339
 8043SOL    HW225029   2.518   0.830   1.626 -0.0932  1.2971 -0.1174
 8044SOL     OW25030   4.375   2.315   0.539 -0.2421 -0.5356 -0.4111
 8044SOL    HW125031   4.450   2.249   0.530 -0.3015 -0.5553 -0.7597
 8044SOL    HW225032   4.391   2.391   0.476 -0.1127 -0.1570  0.0720
 8045SOL     OW25033   5.881   0.496   2.354  0.1875  0.4862  0.1253
 8045SOL    HW125034   5.973   0.533   2.362  0.1287  0.7676 -0.4434
 8045SOL    HW225035   5.840   0.526   2.267 -0.4842  0.4762  0.4308
 8046SOL     OW25036   0.494   4.999   0.372 -0.3141  0.6196  0.4129
 8046SOL    HW125037   0.511   4.917   0.427  1.6852  0.9095  0.3035
 8046SOL    HW225038   0.395   5.015   0.366 -0.7226 -1.3542  1.0310
 8047SOL     OW25039   3.582   3.713   4.810 -0.4480 -0.5363 -0.7423
 8047SOL    HW125040   3.593   3.804   4.768 -1.4212 -0.7796 -1.5476
 8047SOL    HW225041   3.670   3.665   4.807  0.5452  1.0002  1.2597
 8048SOL     OW25042   5.272   0.723   5.927 -0.6823  0.4460  0.1102
 8048SOL    HW125043   5.219   0.655   5.877 -1.4781  0.5944  0.7330
 8048SOL    HW225044   5.293   0.800   5.866  0.6147 -0.5119 -0.7340
 8049SOL     OW25045   3.351   0.924   1.041 -0.0385 -0.0214 -0.4149
 8049SOL    HW125046   3.435   0.978   1.030  0.8717 -1.1221  0.7862
 8049SOL    HW225047   3.291   0.939   0.962  0.9233  1.4140 -0.9155
 8050SOL     OW25048   0.767   4.576   2.866  0.1822  0.0603 -0.4658
 8050SOL    HW125049   0.815   4.513   2.804  1.4810  0.4607  0.0916
 8050SOL    HW225050   0.778   4.669   2.832 -1.2939  0.0578 -1.0056
 8051SOL     OW25051   4.443   5.985   4.676  0.1221  0.3321 -0.4429
 8051SOL    HW125052   4.402   5.929   4.604 -0.4100 -0.9780  0.8289
 8051SOL    HW225053   4.530   6.022   4.644 -0.1752 -0.0810 -1.7998
 8052SOL     OW25054   3.028   0.275   3.392 -0.1722 -0.0075 -0.5454
 8052SOL    HW125055   3.033   0.327   3.477  0.8819 -2.9223  1.3580
 8052SOL    HW225056   3.090   0.314   3.324 -0.8843  2.2641  0.0484
 8053SOL     OW25057   2.984   3.652   3.609 -0.0112 -0.0823 -0.4584
 8053SOL    HW125058   2.927   3.687   3.683  2.0868  1.4784  0.5176
 8053SOL    HW225059   3.029   3.568   3.639 -1.1214 -0.9020 -0.9693
 8054SOL     OW25060   3.025   1.473   5.673  0.2630  0.3759  0.1720
 8054SOL    HW125061   3.097   1.444   5.610 -0.6137 -0.1068 -0.6540
 8054SOL    HW225062   3.026   1.415   5.754  1.1029  0.6914  0.3937
 8055SOL     OW25063   6.653   0.546   6.155  0.1718  0.5723 -0.3372
 8055SOL    HW125064   6.564   0.519   6.192  0.2077  1.7915  0.7158
 8055SOL    HW225065   6.640   0.603   6.074 -0.0151  0.7722 -0.1687
 8056SOL     OW25066   4.060   1.570   4.158 -0.2414  0.1998 -0.1052
 8056SOL    HW125067   3.973   1.605   4.193 -0.9967 -0.6656 -1.0581
 8056SOL    HW225068   4.067   1.588   4.060  0.3726 -0.2874 -0.1626
 8057SOL     OW25069   3.028   1.488   4.071 -0.2571  0.2282  0.0760
 8057SOL    HW125070   2.928   1.497   4.068 -0.3983 -0.7215  1.2814
 8057SOL    HW225071   3.069   1.579   4.080 -1.0139  0.6034 -0.1498
 8058SOL     OW25072   2.333   0.237   3.515 -0.0903  0.7067 -0.3309
 8058SOL    HW125073   2.240   0.270   3.497  0.0493  2.0347  1.1439
 8058SOL    HW225074   2.399   0.299   3.471  0.1283 -0.5199 -1.8131
 8059SOL     OW25075   6.000   1.915   2.845  0.5029  0.2181 -0.3970
 8059SOL    HW125076   5.998   1.846   2.917 -0.6706  1.9380  1.3535
 8059SOL    HW225077   6.089   1.960   2.844  1.0316 -0.8048 -1.0745
 8060SOL     OW25078   1.017   3.112   4.032  0.6369  0.1826  0.3533
 8060SOL    HW125079   0.992   3.067   3.946  1.3807  0.7691 -0.1861
 8060SOL    HW225080   1.044   3.043   4.099  2.3363 -0.1679 -0.6441
 8061SOL     OW25081   0.238   1.771   1.801 -0.1540 -0.3113  0.3732
 8061SOL    HW125082   0.305   1.788   1.729 -1.1320 -0.4655 -0.6007
 8061SOL    HW225083   0.178   1.850   1.810 -0.0123 -0.2746  1.0593
 8062SOL     OW25084   3.520   6.598   4.060 -0.2103 -0.5724 -0.0926
 8062SOL    HW125085   3.467   6.681   4.073  0.3671 -0.0946 -0.7382
 8062SOL    HW225086   3.611   6.609   4.101  0.0390 -0.6968 -0.5989
 8063SOL     OW25087   2.545   0.849   6.385 -0.1938 -0.0390 -0.1056
 8063SOL    HW125088   2.491   0.784   6.438  2.3330 -2.2550 -0.0048
 8063SOL    HW225089   2.598   0.907   6.447 -2.8592  2.6931 -0.1771
 8064SOL     OW25090   6.457   6.436   1.967  0.0492  0.2045 -0.1324
 8064SOL    HW125091   6.370   6.485   1.966  0.3425  0.7203 -0.6972
 8064SOL    HW225092   6.474   6.402   2.060 -1.7409 -1.7176 -0.4310
 8065SOL     OW25093   4.317   0.980   6.017 -0.5608 -0.7537  0.0187
 8065SOL    HW125094   4.224   0.991   5.981 -0.9972  0.0006  1.3028
 8065SOL    HW225095   4.340   1.059   6.074  1.6998  0.1236 -1.9633
 8066SOL     OW25096   1.799   1.536   6.527 -0.0562  0.0425 -0.4176
 8066SOL    HW125097   1.848   1.489   6.600 -0.6946  1.5140  1.0121
 8066SOL    HW225098   1.755   1.468   6.468  1.3031 -1.2057 -0.0553
 8067SOL     OW25099   4.274   3.672   1.279  0.1433  0.6065  0.0869
 8067SOL    HW125100   4.239   3.594   1.331  1.6981 -0.5539 -0.5197
 8067SOL    HW225101   4.197   3.725   1.242 -0.9450 -0.2644  1.0373
 8068SOL     OW25102   5.129   4.618   6.583  0.0063  0.1434 -0.0338
 8068SOL    HW125103   5.225   4.592   6.593  0.2981  0.0288 -2.5213
 8068SOL    HW225104   5.118   4.679   6.505 -2.0516 -0.5477 -0.3658
 8069SOL     OW25105   2.740   4.873   2.066  0.2715 -0.1908 -0.3940
 8069SOL    HW125106   2.734   4.773   2.064 -0.6193 -0.1463 -1.6996
 8069SOL    HW225107   2.655   4.912   2.028  0.9281  1.0419 -0.6602
 8070SOL     OW25108   2.893   3.329   1.520  0.1229 -0.5689  0.8390
 8070SOL    HW125109   2.981   3.281   1.514  1.2605  1.4708  0.2047
 8070SOL    HW225110   2.862   3.351   1.428 -1.4039 -1.7824  1.0238
 8071SOL     OW25111   2.117   5.972   5.156  0.2463 -0.1356 -0.4820
 8071SOL    HW125112   2.125   5.984   5.057 -1.1942 -0.1575 -0.6256
 8071SOL    HW225113   2.064   6.048   5.195  1.9796  0.6134  0.4950
 8072SOL     OW25114   2.454   6.382   0.687 -0.5230  0.0207  0.1607
 8072SOL    HW125115   2.380   6.331   0.643 -0.5136  0.2837 -0.1625
 8072SOL    HW225116   2.418   6.435   0.764 -0.3042 -1.5794  1.4169
 8073SOL     OW25117   3.656   0.067   6.589  0.2257  0.9060  0.5068
 8073SOL    HW125118   3.576   0.057   6.647  0.3409  0.4007  0.5785
 8073SOL    HW225119   3.689   0.161   6.594 -1.2689  1.5611 -0.7014
 8074SOL     OW25120   4.673   1.497   0.559 -0.1864  0.0170  0.1040
 8074SOL    HW125121   4.612   1.454   0.626 -0.4435  0.1445 -0.0469
 8074SOL    HW225122   4.655   1.595   0.555  2.5061  0.7579  2.7212
 8075SOL     OW25123   6.414   1.795   6.175  1.0018  0.1087  0.0204
 8075SOL    HW125124   6.492   1.748   6.134  0.9406  1.1880 -1.4194
 8075SOL    HW225125   6.402   1.884   6.131 -1.9019 -0.5978 -0.8398
 8076SOL     OW25126   6.139   1.514   4.210 -0.2191 -0.2794 -0.3122
 8076SOL    HW125127   6.101   1.566   4.134 -0.6763  0.5510  0.4627
 8076SOL    HW225128   6.236   1.535   4.220 -0.7198  1.6500  0.9347
 8077SOL     OW25129   1.653   0.342   6.860 -0.2844 -0.0532  0.1360
 8077SOL    HW125130   1.695   0.410   6.801 -2.2762  2.7756  1.7245
 8077SOL    HW225131   1.616   0.267   6.805  0.0381  1.2523 -1.9488
 8078SOL     OW25132   5.717   1.444   5.560  0.2145  0.0706  0.2038
 8078SOL    HW125133   5.689   1.411   5.470 -1.8016  1.9226  0.0798
 8078SOL    HW225134   5.687   1.538   5.572  1.3906  0.2322  2.4341
 8079SOL     OW25135   6.960   2.368   4.046  0.1720  0.5277  0.4580
 8079SOL    HW125136   6.917   2.336   3.962 -1.5158  0.2216  1.3782
 8079SOL    HW225137   6.999   2.459   4.031 -1.2989  1.0740 -0.3361
 8080SOL     OW25138   2.059   5.270   6.966 -0.4472  0.5189  0.1541
 8080SOL    HW125139   2.135   5.259   7.030 -1.0080 -0.0680  0.7348
 8080SOL    HW225140   2.047   5.185   6.914 -0.0172  0.9777 -0.7199
 8081SOL     OW25141   2.568   1.324   4.671  0.2889 -0.4204  0.5374
 8081SOL    HW125142   2.551   1.335   4.768  0.1957 -1.3783  0.6419
 8081SOL    HW225143   2.632   1.248   4.656 -0.0232 -0.5617 -0.1579
 8082SOL     OW25144   5.249   1.003   2.083 -0.7379 -0.4089  0.3482
 8082SOL    HW125145   5.157   1.024   2.115 -0.0080  1.9550  1.1265
 8082SOL    HW225146   5.316   1.033   2.151  0.6612 -0.6788 -0.8511
 8083SOL     OW25147   5.067   4.186   3.474 -0.1003 -0.1198 -0.4335
 8083SOL    HW125148   5.083   4.181   3.375  0.1785  0.9914 -0.4589
 8083SOL    HW225149   5.109   4.107   3.519 -0.9343 -1.0689 -1.2731
 8084SOL     OW25150   0.253   5.752   0.341  0.0043  0.2666  0.0968
 8084SOL    HW125151   0.311   5.797   0.274 -0.1432 -0.8984 -0.8368
 8084SOL    HW225152   0.158   5.779   0.327  0.0111  0.2535  0.0271
 8085SOL     OW25153   5.735   1.929   2.460  0.1548 -0.3439 -0.3815
 8085SOL    HW125154   5.740   1.834   2.428 -3.5033 -0.6826 -0.3939
 8085SOL    HW225155   5.731   1.930   2.560 -0.0362 -0.2317 -0.3895
 8086SOL     OW25156   4.653   0.940   4.169  0.3498 -0.0042 -0.0928
 8086SOL    HW125157   4.682   1.028   4.131  0.0113 -0.2708 -1.0079
 8086SOL    HW225158   4.707   0.867   4.127  0.1443 -0.2860  0.1342
 8087SOL     OW25159   3.386   0.980   6.294 -0.3678 -0.3956 -0.3094
 8087SOL    HW125160   3.445   0.945   6.221 -2.9071 -2.1649 -1.6871
 8087SOL    HW225161   3.366   0.906   6.359 -0.1339  0.4986  0.8034
 8088SOL     OW25162   4.739   2.170   2.664  0.0290  0.0417  0.6685
 8088SOL    HW125163   4.733   2.179   2.763 -1.2796 -1.1747  0.7311
 8088SOL    HW225164   4.654   2.203   2.622  0.3290 -0.0210 -0.0110
 8089SOL     OW25165   5.332   2.806   1.028 -0.3773 -0.3006  0.1312
 8089SOL    HW125166   5.296   2.897   1.007 -0.5042 -0.0069  1.5167
 8089SOL    HW225167   5.389   2.774   0.952 -0.7935  0.6877 -0.6157
 8090SOL     OW25168   3.294   1.933   6.429 -0.0102 -0.2566 -0.0108
 8090SOL    HW125169   3.215   1.931   6.491 -0.3944  0.2966 -0.4774
 8090SOL    HW225170   3.374   1.898   6.478 -0.1790  0.6923  0.9820
 8091SOL     OW25171   2.905   3.176   0.419  0.5577 -0.0847  0.1962
 8091SOL    HW125172   2.909   3.253   0.483  2.5360  0.5609 -0.6225
 8091SOL    HW225173   2.833   3.192   0.352 -1.3370 -0.6264  1.9962
 8092SOL     OW25174   0.159   0.260   4.462 -0.1200 -0.5040 -0.4258
 8092SOL    HW125175   0.084   0.317   4.496  0.7756  0.1360  0.5563
 8092SOL    HW225176   0.196   0.300   4.378 -1.2027 -1.1164 -1.2146
 8093SOL     OW25177   4.604   5.905   1.311  0.5823 -0.1822  0.2558
 8093SOL    HW125178   4.571   5.939   1.400 -1.7004 -0.3380 -0.4799
 8093SOL    HW225179   4.646   5.980   1.261 -1.4072  0.8527  0.0229
 8094SOL     OW25180   1.265   3.619   4.282 -0.3822 -0.6433 -0.2744
 8094SOL    HW125181   1.249   3.697   4.342  0.3163 -1.1175  0.5483
 8094SOL    HW225182   1.205   3.626   4.202 -1.2465  0.0514  0.4092
 8095SOL     OW25183   6.076   5.156   4.125 -0.5220 -0.0020  0.0578
 8095SOL    HW125184   6.106   5.064   4.098 -0.3357 -0.4124  1.5561
 8095SOL    HW225185   6.114   5.224   4.062  1.8370 -0.6810  0.6697
 8096SOL     OW25186   2.874   0.023   4.283 -0.5113  0.2851  0.5424
 8096SOL    HW125187   2.903   0.007   4.378  0.8292  1.7019  0.4216
 8096SOL    HW225188   2.955   0.036   4.226 -1.3217 -0.0444 -0.7109
 8097SOL     OW25189   4.105   5.571   4.986  0.1772 -0.0660  0.0842
 8097SOL    HW125190   4.169   5.547   5.059 -1.8106 -0.1848  1.9036
 8097SOL    HW225191   4.061   5.488   4.952 -1.2632  0.2365  1.1046
 8098SOL     OW25192   1.498   6.550   5.704 -0.1639  0.1555 -0.0237
 8098SOL    HW125193   1.432   6.625   5.690 -0.1190  0.1905 -0.0477
 8098SOL    HW225194   1.564   6.549   5.629 -0.7010 -0.4709 -0.5030
 8099SOL     OW25195   5.898   6.944   3.514 -0.0894 -0.2245  0.1811
 8099SOL    HW125196   5.952   7.027   3.504  0.4687 -0.6551 -0.4758
 8099SOL    HW225197   5.884   6.902   3.424  1.4770 -1.9831  0.7087
 8100SOL     OW25198   0.268   5.326   5.364  0.2769  0.3239 -0.6888
 8100SOL    HW125199   0.339   5.343   5.296  1.4255  0.9302  0.6410
 8100SOL    HW225200   0.284   5.237   5.407 -0.2486  0.0999 -0.9437
 8101SOL     OW25201   2.660   5.601   4.302 -0.2431  0.0896 -0.2168
 8101SOL    HW125202   2.653   5.700   4.296  0.0905  0.2097  1.0830
 8101SOL    HW225203   2.574   5.559   4.274 -0.0195  0.6779 -1.8478
 8102SOL     OW25204   0.734   5.770   5.816 -0.1147 -0.2419  0.0080
 8102SOL    HW125205   0.775   5.804   5.732  1.9911 -0.8816  0.7129
 8102SOL    HW225206   0.635   5.767   5.806  0.1405 -2.1684 -3.1975
 8103SOL     OW25207   2.321   0.709   0.439 -0.1186 -0.0361  0.1452
 8103SOL    HW125208   2.387   0.646   0.398 -1.2737 -1.6477  0.6402
 8103SOL    HW225209   2.247   0.656   0.482 -1.6678  1.6831 -0.2827
 8104SOL     OW25210   2.711   5.285   6.201  0.3736 -0.5481  0.2988
 8104SOL    HW125211   2.653   5.250   6.275 -0.9942  0.4519 -0.2523
 8104SOL    HW225212   2.668   5.264   6.113  1.4179 -0.7340 -0.1763
 8105SOL     OW25213   1.731   2.643   3.223  0.1897  0.5282  0.3007
 8105SOL    HW125214   1.704   2.721   3.166  0.5431  0.3651 -0.0944
 8105SOL    HW225215   1.824   2.658   3.256  0.2397  0.2950  0.2641
 8106SOL     OW25216   2.239   0.374   4.747  0.0092 -0.0024 -0.1995
 8106SOL    HW125217   2.273   0.282   4.764 -0.9912 -0.3068  0.2451
 8106SOL    HW225218   2.243   0.427   4.832 -1.4824 -0.3395  0.0967
 8107SOL     OW25219   1.958   4.940   4.151 -0.2964 -0.2991  0.0116
 8107SOL    HW125220   1.948   5.036   4.125  0.6630 -0.4384 -0.9827
 8107SOL    HW225221   1.942   4.930   4.249 -0.5420  0.8489  0.1060
 8108SOL     OW25222   6.218   4.252   5.835  0.7029 -0.1331 -0.4613
 8108SOL    HW125223   6.177   4.166   5.866  1.0579 -1.2074 -2.7948
 8108SOL    HW225224   6.147   4.322   5.827  0.5598  0.1600  2.4243
 8109SOL     OW25225   1.261   4.237   5.899 -0.6404 -0.5253 -0.4286
 8109SOL    HW125226   1.275   4.324   5.947  2.1090 -1.2832  0.3492
 8109SOL    HW225227   1.164   4.213   5.900 -1.2323  1.6749  0.8662
 8110SOL     OW25228   4.607   0.868   1.270  0.2579  0.3486  0.4701
 8110SOL    HW125229   4.555   0.855   1.354 -0.3591 -0.3112 -0.0046
 8110SOL    HW225230   4.692   0.816   1.275  1.1186  1.7746  1.4278
 8111SOL     OW25231   3.986   0.753   4.411  0.3893  0.1782  0.2439
 8111SOL    HW125232   4.017   0.681   4.348  1.1008  1.2749 -0.7135
 8111SOL    HW225233   4.049   0.758   4.489  0.0325 -0.5736  0.5916
 8112SOL     OW25234   2.437   1.373   4.293  0.0725 -0.3749  0.4383
 8112SOL    HW125235   2.482   1.292   4.332  0.6061  0.1684  0.9777
 8112SOL    HW225236   2.358   1.344   4.239 -0.1678 -1.2069  1.2058
 8113SOL     OW25237   4.121   2.859   6.255  0.0603  0.3576 -0.2843
 8113SOL    HW125238   4.158   2.766   6.262 -1.3593 -0.2388 -0.4925
 8113SOL    HW225239   4.130   2.905   6.343 -0.9060 -0.6272  0.3427
 8114SOL     OW25240   1.599   4.380   0.575 -0.2425  0.0291  0.0111
 8114SOL    HW125241   1.626   4.285   0.591 -0.3971 -0.5831 -2.8928
 8114SOL    HW225242   1.647   4.439   0.641  3.9047 -1.5504 -1.2329
 8115SOL     OW25243   3.366   0.751   2.836 -0.2471 -0.4677 -0.2716
 8115SOL    HW125244   3.438   0.776   2.901  0.3241 -2.5498 -0.0389
 8115SOL    HW225245   3.283   0.725   2.887 -0.7507  0.6318 -0.4999
 8116SOL     OW25246   4.036   1.284   3.227  0.6798 -0.3570 -0.1316
 8116SOL    HW125247   3.956   1.327   3.185  0.0445 -1.5158 -0.1464
 8116SOL    HW225248   4.118   1.308   3.175  0.3394  0.7682 -0.1704
 8117SOL     OW25249   2.939   1.843   4.718  0.5298  0.4837 -0.5110
 8117SOL    HW125250   2.992   1.854   4.634  1.2862  0.4925 -0.0422
 8117SOL    HW225251   2.987   1.887   4.794  1.1303 -1.6713  0.4260
 8118SOL     OW25252   1.025   3.146   4.756 -0.0309  0.1908  0.3128
 8118SOL    HW125253   0.963   3.074   4.725  0.5639 -0.1039 -0.2339
 8118SOL    HW225254   1.011   3.228   4.700  1.1152 -0.3750 -0.8875
 8119SOL     OW25255   5.960   4.717   4.445 -0.0699  0.0108  0.0244
 8119SOL    HW125256   5.954   4.642   4.379 -1.6485 -1.5139  1.7650
 8119SOL    HW225257   5.868   4.741   4.476  0.4574  2.2349  0.0440
 8120SOL     OW25258   2.292   4.578   6.934 -0.3724  0.3580  0.0754
 8120SOL    HW125259   2.198   4.557   6.905 -0.5482  0.7790  0.3214
 8120SOL    HW225260   2.329   4.649   6.874 -0.2395  0.2435  0.0240
 8121SOL     OW25261   6.607   5.462   4.620  0.5005  0.6568  0.0610
 8121SOL    HW125262   6.642   5.483   4.711  0.5372  0.0178  0.2007
 8121SOL    HW225263   6.591   5.363   4.612 -0.4214  0.8232 -0.3012
 8122SOL     OW25264   0.827   4.865   4.106  0.2553 -0.5649 -0.0714
 8122SOL    HW125265   0.847   4.832   4.014 -1.1282 -1.0503 -0.2242
 8122SOL    HW225266   0.753   4.810   4.145  0.8811 -0.4144  1.3683
 8123SOL     OW25267   5.065   0.478   1.130 -0.1873  0.2374 -0.2653
 8123SOL    HW125268   5.077   0.421   1.211  0.2611 -0.4095 -0.7791
 8123SOL    HW225269   5.120   0.561   1.139  1.5054 -0.7862 -0.7879
 8124SOL     OW25270   1.283   5.648   0.257 -0.1417 -0.2056 -0.6630
 8124SOL    HW125271   1.291   5.631   0.159 -0.6221  1.2257 -0.9624
 8124SOL    HW225272   1.282   5.746   0.274 -0.8120 -0.4316  0.7201
 8125SOL     OW25273   0.421   4.691   4.534 -0.2306 -0.6933 -0.3147
 8125SOL    HW125274   0.470   4.608   4.506 -2.3630 -1.7396 -1.1621
 8125SOL    HW225275   0.383   4.736   4.453  0.8497  1.1468  0.1373
 8126SOL     OW25276   4.738   3.168   0.603  0.4487 -0.1692 -0.6256
 8126SOL    HW125277   4.705   3.178   0.509 -0.8421  1.1223 -0.0766
 8126SOL    HW225278   4.704   3.244   0.658  3.4406  0.6042  0.3007
 8127SOL     OW25279   3.384   5.363   2.436  0.0183 -0.0518  0.4226
 8127SOL    HW125280   3.441   5.411   2.502 -1.9270 -0.0323  2.2041
 8127SOL    HW225281   3.317   5.306   2.484  0.7106 -2.8137 -1.5848
 8128SOL     OW25282   3.708   2.842   7.020  0.2998 -0.0420  0.0178
 8128SOL    HW125283   3.613   2.812   7.035  0.5405 -0.5042  0.6552
 8128SOL    HW225284   3.761   2.766   6.982  0.6886 -0.1413  0.7456
 8129SOL     OW25285   3.631   1.977   4.951  0.0120 -0.5748 -0.3315
 8129SOL    HW125286   3.669   1.968   5.042 -0.2408  1.1809 -0.0205
 8129SOL    HW225287   3.532   1.994   4.957 -0.7550 -3.9452 -1.0853
 8130SOL     OW25288   0.532   4.739   6.564  0.6073  0.1147 -0.4350
 8130SOL    HW125289   0.442   4.755   6.525 -0.2967  0.5033  1.7229
 8130SOL    HW225290   0.528   4.664   6.629  1.6878  0.5683  0.1862
 8131SOL     OW25291   2.469   6.663   1.258  0.2159 -0.0242  0.3465
 8131SOL    HW125292   2.472   6.622   1.349  0.7295 -0.0761  0.3104
 8131SOL    HW225293   2.412   6.606   1.198  1.2066 -0.9081  0.2004
 8132SOL     OW25294   6.983   6.536   5.793  0.3769  0.5009 -0.1445
 8132SOL    HW125295   7.017   6.517   5.701 -0.1424 -0.1874 -0.2045
 8132SOL    HW225296   6.921   6.615   5.790  1.4294  1.3398 -0.1430
 8133SOL     OW25297   3.973   4.800   3.164  0.0682 -0.3653 -0.1453
 8133SOL    HW125298   3.899   4.854   3.205 -0.5756 -0.3704 -1.2324
 8133SOL    HW225299   3.947   4.776   3.070  0.1762 -2.8947  0.4192
 8134SOL     OW25300   3.177   1.861   4.913  0.1414  0.2336 -0.7602
 8134SOL    HW125301   3.214   1.787   4.857  0.1047  0.6266 -1.3193
 8134SOL    HW225302   3.244   1.888   4.982  0.5207  0.2897 -1.1451
 8135SOL     OW25303   2.627   4.729   2.395  0.2412 -0.3851 -0.3162
 8135SOL    HW125304   2.585   4.724   2.485 -0.0443 -0.8955 -0.4779
 8135SOL    HW225305   2.594   4.654   2.338 -0.1619  0.3771 -1.0963
 8136SOL     OW25306   6.646   6.012   2.898  0.4548 -0.0160  0.8841
 8136SOL    HW125307   6.627   5.970   2.809 -0.8949 -1.1502  1.6590
 8136SOL    HW225308   6.611   6.105   2.899  0.9687  0.1986  0.0614
 8137SOL     OW25309   1.688   1.127   4.309  0.6606  0.4089  0.3230
 8137SOL    HW125310   1.634   1.138   4.225  0.5841  0.8816  0.4357
 8137SOL    HW225311   1.751   1.204   4.319  0.7205  0.3159  0.6674
 8138SOL     OW25312   4.829   2.298   1.698  0.0282 -0.3609 -0.8791
 8138SOL    HW125313   4.734   2.304   1.728  0.7730  0.1044  1.6313
 8138SOL    HW225314   4.845   2.209   1.655 -1.1344 -1.1825  0.3103
 8139SOL     OW25315   1.926   2.654   2.795 -0.2563  0.0291  0.3416
 8139SOL    HW125316   1.843   2.669   2.741  0.1780  0.1831 -0.2867
 8139SOL    HW225317   1.926   2.715   2.874 -1.9014 -1.6187  1.7046
 8140SOL     OW25318   3.627   0.085   0.764 -0.0848 -0.4183 -0.0716
 8140SOL    HW125319   3.538   0.129   0.751 -0.9557 -1.8272  0.8535
 8140SOL    HW225320   3.700   0.148   0.737 -1.2721  1.4982  0.9821
 8141SOL     OW25321   4.760   6.638   6.096 -0.3121  0.0188 -0.4211
 8141SOL    HW125322   4.708   6.578   6.157 -0.5949  0.2066 -0.4759
 8141SOL    HW225323   4.759   6.731   6.132  0.3596 -0.0564 -0.1896
 8142SOL     OW25324   2.183   6.488   1.351  0.8284  0.2675 -0.1127
 8142SOL    HW125325   2.213   6.421   1.420 -1.4127 -0.6777  0.0128
 8142SOL    HW225326   2.175   6.578   1.394  0.3859 -0.1112  0.6225
 8143SOL     OW25327   5.098   4.798   1.498 -0.3820 -0.0664  0.3201
 8143SOL    HW125328   5.000   4.816   1.507 -0.5213 -1.2980  1.6498
 8143SOL    HW225329   5.142   4.876   1.454 -2.0440  0.2331 -0.8933
 8144SOL     OW25330   1.898   5.201   6.366 -0.1716  0.1399  0.1023
 8144SOL    HW125331   1.831   5.160   6.304 -0.8322  0.0674  0.8421
 8144SOL    HW225332   1.864   5.290   6.398  0.5018  0.5185 -0.2060
 8145SOL     OW25333   5.019   3.887   1.631 -0.6995  0.3127 -0.1391
 8145SOL    HW125334   4.941   3.864   1.573 -1.4503  1.4731  0.3604
 8145SOL    HW225335   4.988   3.945   1.707  0.7101  1.0941 -0.1266
 8146SOL     OW25336   5.689   4.981   7.019  0.2423  0.1472 -0.3331
 8146SOL    HW125337   5.788   4.976   7.009  0.5056  2.2546  0.6235
 8146SOL    HW225338   5.649   5.029   6.941  0.4205  2.2773  0.8148
 8147SOL     OW25339   0.338   0.038   1.293  0.6022  0.2467  0.0062
 8147SOL    HW125340   0.352   0.137   1.286  1.5365  0.1861  0.8164
 8147SOL    HW225341   0.377   0.005   1.379 -0.0865 -0.7678 -0.0576
 8148SOL     OW25342   5.709   3.026   6.859  0.6048  0.0790  0.1438
 8148SOL    HW125343   5.762   3.082   6.795  0.4884  0.8565  0.7167
 8148SOL    HW225344   5.637   3.081   6.900  1.6015  0.0366  2.0892
 8149SOL     OW25345   2.982   5.358   3.382 -0.2485  0.2793 -0.4378
 8149SOL    HW125346   3.078   5.337   3.360 -0.2627 -0.8726  0.4966
 8149SOL    HW225347   2.941   5.279   3.429 -1.4886  0.9842 -0.3111
 8150SOL     OW25348   0.287   4.680   3.622  0.2955 -0.1707  0.1177
 8150SOL    HW125349   0.382   4.712   3.618  0.0934  0.5195  0.5362
 8150SOL    HW225350   0.236   4.736   3.688 -1.1683  1.4584 -2.2300
 8151SOL     OW25351   4.877   3.421   3.505  0.0903 -0.1922  0.3573
 8151SOL    HW125352   4.920   3.345   3.457 -1.2041 -1.6027  1.3636
 8151SOL    HW225353   4.863   3.397   3.601 -2.9962  0.1005  0.0786
 8152SOL     OW25354   0.324   2.323   5.556 -0.7010  0.1465  0.3407
 8152SOL    HW125355   0.344   2.291   5.464 -1.7084 -1.0882  0.5259
 8152SOL    HW225356   0.315   2.245   5.618 -0.7757  0.9163  1.3365
 8153SOL     OW25357   0.317   6.456   3.103 -0.3432  0.6519  0.3704
 8153SOL    HW125358   0.295   6.422   3.012  0.9625  0.0533  0.2577
 8153SOL    HW225359   0.415   6.476   3.109 -0.2008 -0.3042  1.9419
 8154SOL     OW25360   5.618   6.412   2.952 -0.0346  0.4349  0.7405
 8154SOL    HW125361   5.636   6.483   3.021 -0.0918 -0.1913  1.4146
 8154SOL    HW225362   5.674   6.332   2.971 -0.0525  0.2533  0.0462
 8155SOL     OW25363   1.686   4.084   1.544  0.6237 -0.1776  0.0636
 8155SOL    HW125364   1.722   4.062   1.634 -2.1846 -2.6524  0.7434
 8155SOL    HW225365   1.740   4.037   1.474  0.5012 -1.4983  0.8178
 8156SOL     OW25366   3.774   6.920   1.639  0.0587  0.1182 -0.2393
 8156SOL    HW125367   3.747   6.916   1.543  0.7882 -0.2618 -0.4397
 8156SOL    HW225368   3.868   6.953   1.646 -0.3842  1.2978  0.4316
 8157SOL     OW25369   5.431   4.428   6.032 -0.3512  0.5051  0.3369
 8157SOL    HW125370   5.455   4.476   5.947 -1.0393 -0.8817 -0.6719
 8157SOL    HW225371   5.511   4.427   6.092  0.8342 -0.2894 -1.1615
 8158SOL     OW25372   4.243   4.796   4.904 -0.3292 -0.3859  0.2477
 8158SOL    HW125373   4.293   4.710   4.910 -1.1034 -0.9248 -0.6631
 8158SOL    HW225374   4.300   4.865   4.861  0.3680 -0.3721  1.1581
 8159SOL     OW25375   3.579   5.314   6.018  0.0842  0.7309  0.2703
 8159SOL    HW125376   3.568   5.233   6.076 -0.0681  0.2509 -0.4126
 8159SOL    HW225377   3.501   5.375   6.031  1.2506  1.8653  2.4460
 8160SOL     OW25378   4.010   0.331   4.409  0.6085 -0.8042 -0.0579
 8160SOL    HW125379   3.967   0.370   4.490  1.4433  2.1616 -0.8983
 8160SOL    HW225380   3.962   0.248   4.382 -1.8857  0.0444  1.4472
 8161SOL     OW25381   6.527   3.542   6.819  0.2683  0.4757 -0.6371
 8161SOL    HW125382   6.433   3.577   6.816 -0.7234 -2.0138 -0.9328
 8161SOL    HW225383   6.550   3.517   6.913  0.4778  0.6397 -0.6432
 8162SOL     OW25384   5.121   0.066   6.802 -0.4420  0.0175  0.0924
 8162SOL    HW125385   5.051   0.011   6.755 -0.4292  1.3520 -1.5672
 8162SOL    HW225386   5.135   0.028   6.894 -3.7863  0.0259  0.7688
 8163SOL     OW25387   2.456   4.353   5.284 -0.3277  0.3669  0.3787
 8163SOL    HW125388   2.534   4.415   5.277 -0.8091  1.1781  1.7047
 8163SOL    HW225389   2.405   4.352   5.198  2.1305 -1.6154 -1.1981
 8164SOL     OW25390   3.753   0.545   6.768 -0.5050 -0.1286 -0.1152
 8164SOL    HW125391   3.775   0.631   6.721 -0.5088  0.5284  1.0647
 8164SOL    HW225392   3.672   0.557   6.824 -1.2245 -1.2652 -0.8768
 8165SOL     OW25393   6.507   3.590   5.782  0.4170  0.3904 -0.6558
 8165SOL    HW125394   6.551   3.506   5.815 -1.1757 -0.7337 -1.2139
 8165SOL    HW225395   6.483   3.648   5.860  1.6309  0.3981 -0.2686
 8166SOL     OW25396   4.611   2.601   4.303  0.0617  0.4099 -0.4888
 8166SOL    HW125397   4.613   2.658   4.385 -0.5497  0.8492 -0.7728
 8166SOL    HW225398   4.548   2.525   4.317 -2.1378  1.9403 -1.4597
 8167SOL     OW25399   1.425   0.461   2.891 -0.0733  0.1186  0.6382
 8167SOL    HW125400   1.481   0.448   2.973  1.9960  3.0030 -0.1248
 8167SOL    HW225401   1.341   0.509   2.916  0.2491  0.4247  1.1756
 8168SOL     OW25402   0.498   6.711   2.239  1.0030  0.6363 -0.1911
 8168SOL    HW125403   0.567   6.739   2.172 -1.0004  1.9641 -1.8418
 8168SOL    HW225404   0.407   6.715   2.197 -0.3977  1.6402  2.6488
 8169SOL     OW25405   3.798   3.146   1.697  0.1132 -0.1446  0.5410
 8169SOL    HW125406   3.743   3.204   1.636  0.8915  0.5930  0.5204
 8169SOL    HW225407   3.766   3.051   1.691 -0.4057  0.0745 -0.3428
 8170SOL     OW25408   5.780   4.931   0.716 -0.0882  0.1972 -0.0672
 8170SOL    HW125409   5.795   4.919   0.618  0.5133  1.2805 -0.1253
 8170SOL    HW225410   5.865   4.963   0.759 -0.9270  1.8796  0.4208
 8171SOL     OW25411   1.495   1.177   6.209 -0.3381 -0.2846  0.1457
 8171SOL    HW125412   1.461   1.183   6.115  1.3435  1.1586 -0.4180
 8171SOL    HW225413   1.489   1.083   6.240 -0.7728 -0.8234 -1.4642
 8172SOL     OW25414   0.384   0.037   1.856  0.1526 -0.3316  0.0856
 8172SOL    HW125415   0.371   0.122   1.805  1.9188 -0.4158 -0.5764
 8172SOL    HW225416   0.301   0.017   1.909  0.0982  2.4109  1.2097
 8173SOL     OW25417   5.060   2.912   1.270  0.5804 -0.1560 -0.0834
 8173SOL    HW125418   5.112   2.860   1.338 -0.5607  1.4338  2.1401
 8173SOL    HW225419   4.962   2.905   1.290  0.3344  2.0073 -0.2722
 8174SOL     OW25420   0.462   4.290   3.917  0.3264  0.0492  0.0071
 8174SOL    HW125421   0.446   4.191   3.909 -0.2779  0.0144  1.4637
 8174SOL    HW225422   0.552   4.311   3.881  0.4728 -1.0383 -0.3159
 8175SOL     OW25423   1.235   2.519   3.536 -0.1465 -0.0288 -0.4414
 8175SOL    HW125424   1.280   2.549   3.620 -2.8670 -1.1707  1.5736
 8175SOL    HW225425   1.296   2.458   3.486  1.8459  1.3185  0.2319
 8176SOL     OW25426   2.529   5.114   2.119  0.3080 -0.0684 -0.1441
 8176SOL    HW125427   2.474   5.196   2.138  0.4228 -0.1390  0.5379
 8176SOL    HW225428   2.596   5.101   2.193  1.8102  0.4798 -1.3687
 8177SOL     OW25429   2.929   0.823   3.325  0.0887 -0.2770 -0.4216
 8177SOL    HW125430   2.974   0.896   3.375  0.8431 -0.5378 -0.7140
 8177SOL    HW225431   2.835   0.850   3.304 -0.1774 -0.0717  0.9285
 8178SOL     OW25432   4.536   6.345   2.011 -0.4581 -0.4623 -0.6063
 8178SOL    HW125433   4.495   6.262   2.048  0.9016 -0.8061  0.2041
 8178SOL    HW225434   4.518   6.422   2.072 -2.2614  0.0217 -1.6731
 8179SOL     OW25435   3.816   1.450   4.402  0.3492 -0.3017 -0.4511
 8179SOL    HW125436   3.755   1.384   4.445 -1.2156  0.9592 -0.6340
 8179SOL    HW225437   3.886   1.480   4.467 -0.8111  0.1389  0.6173
 8180SOL     OW25438   5.445   2.031   0.505  0.1175 -0.0782  0.3291
 8180SOL    HW125439   5.477   2.107   0.563 -1.0021 -0.8387  2.0268
 8180SOL    HW225440   5.380   2.066   0.438 -0.6026  0.4617  1.2733
 8181SOL     OW25441   2.670   2.400   0.982 -0.0255  0.2723  0.2438
 8181SOL    HW125442   2.766   2.417   0.958 -0.2195  1.2690  0.1264
 8181SOL    HW225443   2.660   2.401   1.081  0.5409 -2.5482  0.4369
 8182SOL     OW25444   2.936   3.640   4.779  0.2115  0.2040 -0.5977
 8182SOL    HW125445   2.928   3.605   4.686  1.5422  0.3511 -0.7913
 8182SOL    HW225446   2.902   3.734   4.782 -3.7078 -1.0608  0.0002
 8183SOL     OW25447   5.224   1.842   3.816 -0.3978 -0.2135 -0.2820
 8183SOL    HW125448   5.323   1.830   3.807 -0.2059  1.0812 -0.1095
 8183SOL    HW225449   5.202   1.868   3.910 -1.1594 -2.5288  0.2616
 8184SOL     OW25450   0.731   5.769   0.008 -0.0741 -0.3662  0.4931
 8184SOL    HW125451   0.704   5.675   0.030 -0.2425 -0.3877  0.1918
 8184SOL    HW225452   0.677   5.833   0.063 -0.5109 -0.4188  0.1276
 8185SOL     OW25453   1.104   0.801   0.326 -0.7518  0.5356  0.4221
 8185SOL    HW125454   1.156   0.796   0.411  0.1081  2.0900  0.0343
 8185SOL    HW225455   1.012   0.764   0.340  0.0926 -1.3369  1.3933
 8186SOL     OW25456   2.948   4.903   6.747  0.4332  0.3595 -0.5772
 8186SOL    HW125457   2.989   4.826   6.796 -0.4718 -2.0048 -3.2542
 8186SOL    HW225458   3.019   4.953   6.698  0.8429  0.1816 -0.1664
 8187SOL     OW25459   2.545   1.642   4.318  0.1148  0.2114 -0.1522
 8187SOL    HW125460   2.512   1.550   4.298 -1.7095  0.2695  2.1137
 8187SOL    HW225461   2.599   1.641   4.402  0.0956  1.2039 -0.1112
 8188SOL     OW25462   5.979   3.497   2.499 -0.1101 -0.1079 -0.2118
 8188SOL    HW125463   6.069   3.473   2.463  0.5348  2.2679 -0.3431
 8188SOL    HW225464   5.935   3.562   2.437 -2.2418 -1.6965 -0.4783
 8189SOL     OW25465   4.784   5.470   1.846  0.0334  0.7924 -0.0292
 8189SOL    HW125466   4.803   5.401   1.916  0.9070  1.7145  0.6755
 8189SOL    HW225467   4.837   5.553   1.866 -0.2690  1.3329 -1.3809
 8190SOL     OW25468   5.299   4.730   3.411 -0.5248  0.2097  0.1090
 8190SOL    HW125469   5.271   4.821   3.440  0.5280  0.2278  1.1452
 8190SOL    HW225470   5.354   4.687   3.483  1.9514  0.1323 -1.6974
 8191SOL     OW25471   3.234   6.015   1.858 -0.6965  0.5127  0.2617
 8191SOL    HW125472   3.146   5.982   1.826 -0.4413 -1.0383  1.0559
 8191SOL    HW225473   3.307   5.985   1.796 -0.6695  1.5047 -0.2108
 8192SOL     OW25474   0.905   5.079   2.331 -0.4322  0.1866  0.7465
 8192SOL    HW125475   0.858   5.010   2.276  1.7100 -1.0073  0.3196
 8192SOL    HW225476   0.995   5.098   2.291  0.1879  1.1001  2.4907
 8193SOL     OW25477   4.556   4.750   6.501  0.2702 -0.4664 -0.3375
 8193SOL    HW125478   4.536   4.668   6.447  0.5657 -1.3969  0.9277
 8193SOL    HW225479   4.608   4.814   6.445 -0.2776 -0.9632 -1.4687
 8194SOL     OW25480   5.043   0.251   3.162  0.0578 -0.1302  0.8677
 8194SOL    HW125481   4.944   0.246   3.178  0.3536 -2.2613  2.4210
 8194SOL    HW225482   5.065   0.337   3.117 -2.6364 -0.0937 -0.5835
 8195SOL     OW25483   0.533   2.349   2.495  0.3408 -0.1155  0.3642
 8195SOL    HW125484   0.574   2.363   2.405 -1.3184 -1.1138 -0.5792
 8195SOL    HW225485   0.474   2.427   2.517  1.7642  0.7767  1.2304
 8196SOL     OW25486   4.428   5.692   0.351 -0.0805  0.2583  0.0233
 8196SOL    HW125487   4.443   5.695   0.253  1.5132 -1.0485  0.1807
 8196SOL    HW225488   4.459   5.778   0.392  0.4689  0.3078 -0.4817
 8197SOL     OW25489   5.045   2.512   0.536  0.8158  0.3846 -0.4401
 8197SOL    HW125490   4.985   2.441   0.571  1.1835 -0.6581 -1.8617
 8197SOL    HW225491   5.041   2.514   0.436  2.6104  0.7552 -0.5373
 8198SOL     OW25492   4.042   7.019   1.666 -0.7639 -0.2146  0.0791
 8198SOL    HW125493   4.025   7.085   1.740 -2.0647 -0.9716  0.4837
 8198SOL    HW225494   4.134   6.981   1.677 -0.3658  0.8109  0.4039
 8199SOL     OW25495   1.561   2.336   6.161 -0.2139  0.1603  0.5885
 8199SOL    HW125496   1.524   2.315   6.252 -1.0540  1.6641  0.6359
 8199SOL    HW225497   1.525   2.425   6.131  0.2836 -0.1807 -1.0939
 8200SOL     OW25498   5.708   4.181   0.266  0.1668  0.0686 -0.0922
 8200SOL    HW125499   5.641   4.200   0.337  1.0779 -0.9976  1.0969
 8200SOL    HW225500   5.687   4.235   0.185  0.1701  2.7539  1.5988
 8201SOL     OW25501   5.449   2.179   5.585 -0.2388  0.1137 -0.0286
 8201SOL    HW125502   5.367   2.197   5.640 -0.1692  1.2922 -0.2889
 8201SOL    HW225503   5.449   2.239   5.505  0.1328 -0.9313 -0.8330
 8202SOL     OW25504   6.288   3.054   5.557 -0.7602 -0.0824 -0.5999
 8202SOL    HW125505   6.303   3.125   5.626  0.6506 -0.9476  0.0306
 8202SOL    HW225506   6.272   2.966   5.602 -0.9553 -0.4541 -1.3722
 8203SOL     OW25507   4.981   2.963   1.944  0.4342 -0.2591  0.1446
 8203SOL    HW125508   5.040   2.923   2.014  2.9966  1.4836 -0.8664
 8203SOL    HW225509   4.893   2.986   1.984  1.3422 -0.5134  2.4590
 8204SOL     OW25510   1.979   3.765   6.882 -0.1327  0.3887  0.6967
 8204SOL    HW125511   1.970   3.689   6.818 -3.2988  0.6369  0.7014
 8204SOL    HW225512   2.044   3.832   6.846  0.2098 -0.7467 -0.8896
 8205SOL     OW25513   5.630   5.770   6.540 -0.7527 -0.1223 -0.2105
 8205SOL    HW125514   5.674   5.853   6.575 -1.5299 -0.1506  0.9150
 8205SOL    HW225515   5.684   5.732   6.465 -0.0571  1.0530 -0.3257
 8206SOL     OW25516   6.679   3.654   6.316 -0.7000  0.3087  0.3670
 8206SOL    HW125517   6.659   3.577   6.377  2.2820 -1.2765 -0.4536
 8206SOL    HW225518   6.685   3.620   6.221 -2.0662  2.1268 -0.4252
 8207SOL     OW25519   3.518   3.191   5.467  0.1832 -0.2804  0.3591
 8207SOL    HW125520   3.492   3.276   5.512 -2.4223  0.9636 -3.0525
 8207SOL    HW225521   3.453   3.119   5.491  0.3780 -0.3560  0.6540
 8208SOL     OW25522   6.657   1.832   0.001  0.2106 -0.0085  0.3804
 8208SOL    HW125523   6.593   1.883   0.059  1.6029  0.3906  1.6211
 8208SOL    HW225524   6.623   1.831  -0.093 -1.1382  0.9786  0.8230
 8209SOL     OW25525   2.092   5.362   4.200 -0.3420 -0.0147  0.3044
 8209SOL    HW125526   2.181   5.345   4.243  0.2866  0.2578 -0.8505
 8209SOL    HW225527   2.096   5.334   4.104 -0.5461  2.7602 -0.5999
 8210SOL     OW25528   2.135   0.443   0.360 -0.2049  0.4176 -0.7428
 8210SOL    HW125529   2.195   0.390   0.420  0.0209 -1.3874 -2.4613
 8210SOL    HW225530   2.080   0.505   0.415 -1.8374 -2.8946  1.7149
 8211SOL     OW25531   3.259   5.429   2.175  0.3885 -0.0178  0.2433
 8211SOL    HW125532   3.292   5.383   2.257 -0.2174 -0.2812  0.3440
 8211SOL    HW225533   3.314   5.399   2.096 -0.3707 -1.3929  0.2045
 8212SOL     OW25534   0.367   6.941   2.482  0.1770  0.1038  0.0061
 8212SOL    HW125535   0.435   6.970   2.416 -0.7579  0.3805 -0.8644
 8212SOL    HW225536   0.380   6.844   2.503  1.8085  0.5212  1.0817
 8213SOL     OW25537   4.737   5.927   0.165 -0.1024  1.0561  0.4339
 8213SOL    HW125538   4.686   5.902   0.082 -1.2333  0.5722  1.2506
 8213SOL    HW225539   4.738   6.026   0.174 -0.7823  1.0728  0.3400
 8214SOL     OW25540   4.840   5.396   6.173 -0.5121  1.0083  0.1016
 8214SOL    HW125541   4.784   5.443   6.240 -0.1842  1.5383  0.0095
 8214SOL    HW225542   4.891   5.322   6.217 -0.5524  1.1401  0.3646
 8215SOL     OW25543   3.056   5.192   6.758 -0.1247 -0.4948  0.1239
 8215SOL    HW125544   2.963   5.206   6.790 -1.0108 -3.8372 -0.6776
 8215SOL    HW225545   3.080   5.265   6.693 -2.1222  0.4514  0.3665
 8216SOL     OW25546   5.142   6.014   5.699 -0.2637 -0.2647 -0.2321
 8216SOL    HW125547   5.044   6.024   5.679 -0.6005 -1.9298  0.4308
 8216SOL    HW225548   5.195   6.048   5.621 -1.3957 -0.5641 -1.1631
 8217SOL     OW25549   6.773   5.737   0.006  0.0195 -0.5856 -0.2719
 8217SOL    HW125550   6.716   5.778   0.077 -1.8543 -2.1094 -0.7952
 8217SOL    HW225551   6.775   5.798  -0.074 -2.2671 -1.1128 -0.8295
 8218SOL     OW25552   6.903   5.564   5.981 -0.1008 -0.6292  0.4543
 8218SOL    HW125553   6.950   5.585   5.895 -0.3582  1.8158  0.8354
 8218SOL    HW225554   6.808   5.595   5.975  0.2122  0.7789  2.0051
 8219SOL     OW25555   3.971   2.960   0.447  0.1394  0.2202 -0.5355
 8219SOL    HW125556   3.994   3.022   0.523  0.6445 -0.6771  0.0645
 8219SOL    HW225557   3.988   3.007   0.360  1.9596  0.4587 -0.1022
 8220SOL     OW25558   3.573   3.228   2.690 -0.8677 -0.4326 -0.1063
 8220SOL    HW125559   3.484   3.236   2.736 -1.5433  0.5969 -1.5020
 8220SOL    HW225560   3.559   3.193   2.597  0.2716 -0.8236 -0.1468
 8221SOL     OW25561   4.038   6.534   6.423 -0.6436 -0.5169  0.0559
 8221SOL    HW125562   3.957   6.542   6.481  0.0345 -1.0273  1.1237
 8221SOL    HW225563   4.103   6.606   6.447 -0.0615 -1.1536  0.4644
 8222SOL     OW25564   5.836   0.998   1.327 -0.1515  0.3365  0.1734
 8222SOL    HW125565   5.827   1.085   1.279 -0.3278  1.2290  1.7597
 8222SOL    HW225566   5.812   1.010   1.423  1.3739 -1.1131  0.7925
 8223SOL     OW25567   6.039   3.625   5.641 -0.5335  0.3623  0.1841
 8223SOL    HW125568   6.038   3.537   5.594  1.3143  1.6842 -2.6161
 8223SOL    HW225569   5.948   3.666   5.639 -0.9884 -0.6548 -0.1940
 8224SOL     OW25570   0.932   1.486   3.129  0.2202  0.1487 -0.2125
 8224SOL    HW125571   0.869   1.422   3.174  0.0659 -0.4355 -1.2364
 8224SOL    HW225572   0.880   1.566   3.098  0.2437  0.3362  0.2275
 8225SOL     OW25573   1.533   0.823   6.899 -0.1926  0.3842 -0.5389
 8225SOL    HW125574   1.620   0.869   6.918 -0.2954  1.0918 -1.6815
 8225SOL    HW225575   1.459   0.890   6.902 -0.6235 -0.1059 -0.1662
 8226SOL     OW25576   5.886   5.291   2.836  0.3840 -0.3467 -0.1079
 8226SOL    HW125577   5.825   5.322   2.763 -1.4185 -1.0437  1.0221
 8226SOL    HW225578   5.932   5.207   2.808  0.4608 -0.0814 -0.7903
 8227SOL     OW25579   6.880   2.413   2.852  0.5315 -0.1002  0.0111
 8227SOL    HW125580   6.819   2.334   2.839  0.7505  0.0433 -2.4838
 8227SOL    HW225581   6.970   2.391   2.815  1.2582  0.5781  1.3280
 8228SOL     OW25582   6.888   2.492   6.106 -0.0514 -0.3944  0.2221
 8228SOL    HW125583   6.818   2.421   6.117 -1.6693  1.0106 -0.5890
 8228SOL    HW225584   6.854   2.579   6.141  1.7751  0.1048  0.9021
 8229SOL     OW25585   3.255   3.657   0.391 -0.0320  0.7547  0.3555
 8229SOL    HW125586   3.232   3.561   0.411 -1.2464  1.2520  1.5321
 8229SOL    HW225587   3.351   3.673   0.411  0.6146 -0.5783 -1.3922
 8230SOL     OW25588   3.412   5.855   6.171 -0.3294 -0.2365 -0.2728
 8230SOL    HW125589   3.388   5.807   6.086  2.0837  0.4053 -1.4344
 8230SOL    HW225590   3.469   5.934   6.148  1.2865 -0.6563  2.0164
 8231SOL     OW25591   3.649   3.717   0.146 -0.4070  0.2205 -0.1711
 8231SOL    HW125592   3.560   3.684   0.115  0.1966  0.2180 -2.0590
 8231SOL    HW225593   3.720   3.681   0.085  0.8643  0.4429  1.1302
 8232SOL     OW25594   5.166   1.745   0.781  0.6689 -0.4835  0.2497
 8232SOL    HW125595   5.093   1.762   0.847  0.6970 -0.8150  0.3727
 8232SOL    HW225596   5.228   1.823   0.778 -1.7303  1.5649 -2.6067
 8233SOL     OW25597   0.888   6.560   1.122  0.2352 -1.1282 -0.2185
 8233SOL    HW125598   0.884   6.460   1.117  0.3432 -1.1037 -0.7539
 8233SOL    HW225599   0.796   6.597   1.110  0.5600 -1.0324 -2.9717
 8234SOL     OW25600   2.995   4.977   0.061 -0.5734  0.1522 -0.0333
 8234SOL    HW125601   2.911   4.942   0.020  0.3015 -1.3398 -0.5901
 8234SOL    HW225602   3.066   4.987  -0.009  0.2119 -0.1475  0.6986
 8235SOL     OW25603   1.179   4.514   5.785 -0.2739  0.1993  0.0191
 8235SOL    HW125604   1.216   4.501   5.877 -1.9630  0.9361  0.8445
 8235SOL    HW225605   1.250   4.495   5.718  0.0467 -4.2980  1.2811
 8236SOL     OW25606   5.923   4.182   0.954 -0.5623  0.1487  0.2185
 8236SOL    HW125607   5.886   4.089   0.960 -1.7146  0.6723  2.3686
 8236SOL    HW225608   5.853   4.247   0.982  0.4864  1.6083 -0.4446
 8237SOL     OW25609   4.883   0.249   5.408 -0.0155  0.5388 -0.5009
 8237SOL    HW125610   4.857   0.261   5.504 -0.2537  2.7163 -0.7895
 8237SOL    HW225611   4.922   0.157   5.395 -1.0002 -0.1963  1.4168
 8238SOL     OW25612   6.929   4.461   5.240 -0.3568  0.8901  0.3563
 8238SOL    HW125613   7.024   4.444   5.267 -0.6775 -1.6094  0.1758
 8238SOL    HW225614   6.868   4.405   5.295 -1.4263 -0.1983 -1.7883
 8239SOL     OW25615   5.909   2.253   5.299  0.1710 -0.4002  0.1084
 8239SOL    HW125616   5.856   2.279   5.218  0.7286  1.8775  0.3922
 8239SOL    HW225617   5.852   2.197   5.359 -0.5993 -1.2421 -1.3427
 8240SOL     OW25618   3.145   3.871   1.606 -0.0548  0.4445  0.1252
 8240SOL    HW125619   3.067   3.809   1.601  0.9993 -0.8694 -0.7888
 8240SOL    HW225620   3.208   3.851   1.531  2.1424  0.0710  1.9466
 8241SOL     OW25621   2.767   0.906   0.372 -0.5152  0.4500 -0.5382
 8241SOL    HW125622   2.786   0.896   0.274 -0.8288  0.4782 -0.6026
 8241SOL    HW225623   2.724   0.995   0.388  0.3334  0.8194 -0.2573
 8242SOL     OW25624   6.651   5.355   0.055 -0.4877  0.0338 -0.1659
 8242SOL    HW125625   6.638   5.364  -0.044  1.2695 -0.4824 -0.4752
 8242SOL    HW225626   6.613   5.436   0.101 -0.1169  0.9350 -1.3886
 8243SOL     OW25627   0.722   3.323   5.727  0.1217 -0.4724  0.3394
 8243SOL    HW125628   0.640   3.342   5.673 -1.8571  0.5780  3.4615
 8243SOL    HW225629   0.705   3.242   5.784  1.2358 -0.2032  1.0720
 8244SOL     OW25630   6.847   6.798   5.841  0.2994 -0.3460  0.0024
 8244SOL    HW125631   6.926   6.844   5.801  0.3384  1.2162  1.7397
 8244SOL    HW225632   6.781   6.866   5.873 -0.1478 -1.4975  1.6850
 8245SOL     OW25633   3.096   2.154   4.000  0.0875  0.0890  0.1506
 8245SOL    HW125634   3.026   2.200   3.946  0.7364  1.4019  0.4008
 8245SOL    HW225635   3.083   2.174   4.097  0.4990 -0.0718  0.2433
 8246SOL     OW25636   1.521   1.909   5.434 -0.2545  0.0259  1.0145
 8246SOL    HW125637   1.512   1.868   5.524  1.2533 -0.1527  1.1129
 8246SOL    HW225638   1.607   1.958   5.428 -1.9910  3.3264  0.9128
 8247SOL     OW25639   0.951   6.275   1.674  0.2208 -0.6016 -0.8584
 8247SOL    HW125640   0.888   6.294   1.749 -0.6432  0.2487 -1.7791
 8247SOL    HW225641   1.033   6.231   1.710 -0.9298 -1.8410  0.3559
 8248SOL     OW25642   5.327   4.394   4.271 -0.3779  0.3687 -0.2026
 8248SOL    HW125643   5.228   4.401   4.258 -0.2474  1.1835 -0.8163
 8248SOL    HW225644   5.358   4.305   4.237 -0.9579 -0.0877  0.4313
 8249SOL     OW25645   1.318   1.087   5.133 -0.3453 -0.0652  0.1128
 8249SOL    HW125646   1.306   1.182   5.106 -1.6542  0.4930  2.4375
 8249SOL    HW225647   1.413   1.071   5.159 -0.1570  0.6373 -0.1299
 8250SOL     OW25648   3.456   2.534   0.815 -0.4926 -0.0690  0.1791
 8250SOL    HW125649   3.521   2.605   0.789  1.7798 -2.3043 -0.5845
 8250SOL    HW225650   3.470   2.508   0.911 -0.9899  0.1225  0.3119
 8251SOL     OW25651   5.663   4.546   3.434 -0.4712  0.4769  0.0945
 8251SOL    HW125652   5.594   4.585   3.495  1.2273 -0.5172  2.8381
 8251SOL    HW225653   5.735   4.614   3.419  0.8299 -0.3445  2.1590
 8252SOL     OW25654   2.944   1.083   4.911 -0.2316  0.2667  0.4616
 8252SOL    HW125655   2.932   0.984   4.915 -0.1291  0.2664  0.8090
 8252SOL    HW225656   2.885   1.122   4.840 -0.0121 -0.0828  0.0861
 8253SOL     OW25657   3.627   4.991   4.808 -0.4946 -0.0448 -0.2438
 8253SOL    HW125658   3.534   4.961   4.829 -0.2495 -1.2923 -0.8810
 8253SOL    HW225659   3.693   4.934   4.858 -0.0595  0.7347  0.0921
 8254SOL     OW25660   3.495   5.379   5.118 -0.1027 -0.0983 -0.3425
 8254SOL    HW125661   3.400   5.405   5.104 -0.0942 -0.3447 -0.9288
 8254SOL    HW225662   3.551   5.461   5.126 -0.4137  0.0469  0.4128
 8255SOL     OW25663   2.301   1.332   5.404 -0.5171 -0.6684  0.4879
 8255SOL    HW125664   2.270   1.241   5.433 -1.5097 -0.7489 -0.7568
 8255SOL    HW225665   2.305   1.392   5.484 -1.3914 -1.3776  1.0910
 8256SOL     OW25666   5.698   5.813   2.599 -0.0138  0.0497 -0.1885
 8256SOL    HW125667   5.604   5.799   2.630  0.3175  0.4493  1.0415
 8256SOL    HW225668   5.712   5.764   2.513 -1.6600  0.8973 -0.9924
 8257SOL     OW25669   6.629   4.657   4.257  0.2140 -0.2007 -0.4029
 8257SOL    HW125670   6.552   4.652   4.193  0.0999  1.0683 -0.3900
 8257SOL    HW225671   6.628   4.577   4.316 -0.5687 -0.6498 -1.0060
 8258SOL     OW25672   5.890   3.001   0.092 -0.2254 -0.8096 -0.1726
 8258SOL    HW125673   5.881   2.974  -0.004 -0.6667  0.8228 -0.6107
 8258SOL    HW225674   5.801   3.027   0.128  0.4150  1.9177 -0.3823
 8259SOL     OW25675   5.169   2.673   4.734 -0.1674  0.8019  0.1359
 8259SOL    HW125676   5.182   2.595   4.673  1.4049  1.4765 -0.4305
 8259SOL    HW225677   5.141   2.753   4.680 -1.3953  0.7470  0.6633
 8260SOL     OW25678   2.325   0.738   2.344  0.2440  0.7667  0.2373
 8260SOL    HW125679   2.348   0.724   2.248  1.5871 -1.0107  0.7660
 8260SOL    HW225680   2.226   0.742   2.355  0.0625  0.4654 -1.1578
 8261SOL     OW25681   6.978   1.669   2.546  0.2408  0.1886 -0.2599
 8261SOL    HW125682   7.034   1.683   2.465 -0.6445  0.2873 -0.8656
 8261SOL    HW225683   6.960   1.757   2.590 -1.4198  0.4842 -1.4303
 8262SOL     OW25684   0.800   2.640   6.292 -0.1919 -0.5623  0.3225
 8262SOL    HW125685   0.847   2.711   6.239  0.8180 -1.4319  0.0130
 8262SOL    HW225686   0.746   2.582   6.230 -1.0244 -0.0737  0.5759
 8263SOL     OW25687   6.372   2.009   6.850 -0.4859  0.4864 -0.0419
 8263SOL    HW125688   6.298   2.075   6.843  0.5851  1.8477  0.8517
 8263SOL    HW225689   6.460   2.058   6.850  0.5841 -1.1411 -2.9976
 8264SOL     OW25690   4.864   5.399   2.327  0.2486  0.3796  0.0487
 8264SOL    HW125691   4.958   5.381   2.353  0.1852 -0.0173  0.0179
 8264SOL    HW225692   4.839   5.492   2.353  0.0285 -0.1460  1.9016
 8265SOL     OW25693   6.479   1.483   1.669 -0.3666 -0.1979  0.1317
 8265SOL    HW125694   6.477   1.425   1.588 -0.0086 -0.4498  0.2977
 8265SOL    HW225695   6.572   1.487   1.705  0.1186  2.3120 -1.1797
 8266SOL     OW25696   2.874   1.821   2.118 -0.4042  0.7046  0.0624
 8266SOL    HW125697   2.828   1.905   2.091 -1.0247  0.3000 -0.1687
 8266SOL    HW225698   2.963   1.815   2.072 -1.0485  0.4658 -1.1967
 8267SOL     OW25699   0.781   1.165   1.647  0.0171 -0.0418  0.5193
 8267SOL    HW125700   0.764   1.261   1.671 -2.1805 -0.0926 -0.6414
 8267SOL    HW225701   0.830   1.161   1.560 -1.6218  0.0668 -0.4526
 8268SOL     OW25702   0.794   0.180   6.270 -0.7398  0.0538 -0.7976
 8268SOL    HW125703   0.888   0.145   6.267 -1.0089 -0.9660  0.9497
 8268SOL    HW225704   0.742   0.142   6.195 -0.9660 -3.3764  0.9111
 8269SOL     OW25705   2.660   0.881   1.550  0.2862  0.5835  0.3804
 8269SOL    HW125706   2.758   0.868   1.562 -0.1757 -2.9273  1.5017
 8269SOL    HW225707   2.640   0.902   1.455  1.9841 -0.8915 -0.3549
 8270SOL     OW25708   4.659   0.611   5.428 -0.2886  0.1011  0.3988
 8270SOL    HW125709   4.622   0.561   5.349  0.9870 -0.3316  0.0559
 8270SOL    HW225710   4.633   0.707   5.421  0.3609  0.1989 -0.9175
 8271SOL     OW25711   0.209   6.339   2.887  0.2879 -0.4406  0.1653
 8271SOL    HW125712   0.229   6.402   2.813 -0.7043  0.5488  0.7048
 8271SOL    HW225713   0.231   6.246   2.859  0.8468  0.0297 -1.0043
 8272SOL     OW25714   5.668   2.214   1.480  0.2811 -0.1942  0.2861
 8272SOL    HW125715   5.667   2.219   1.380  0.0351  1.8476  0.3456
 8272SOL    HW225716   5.574   2.201   1.513  0.3866 -1.0725  0.2643
 8273SOL     OW25717   5.062   1.443   1.246 -0.6203  0.3301  0.1141
 8273SOL    HW125718   5.151   1.486   1.240 -0.0337 -0.5018  2.0013
 8273SOL    HW225719   4.990   1.513   1.246  0.1151  1.0889  0.0127
 8274SOL     OW25720   4.928   5.234   3.168 -0.9590 -0.5920 -0.6467
 8274SOL    HW125721   4.831   5.225   3.146 -1.5969  0.7823  1.3087
 8274SOL    HW225722   4.955   5.161   3.231 -1.1700 -0.0215  0.1153
 8275SOL     OW25723   6.439   0.417   6.252  0.3088  0.4188  0.2144
 8275SOL    HW125724   6.348   0.405   6.214  1.3213  0.5198 -2.4527
 8275SOL    HW225725   6.465   0.336   6.305 -1.0548  0.1319  0.4734
 8276SOL     OW25726   1.559   2.925   1.072  0.0899 -0.5962  0.3130
 8276SOL    HW125727   1.587   2.844   1.020  2.4497 -0.1173  0.7559
 8276SOL    HW225728   1.618   2.937   1.151 -1.2771  0.6540  1.2036
 8277SOL     OW25729   0.615   6.706   0.725  0.1611  0.4529  0.0974
 8277SOL    HW125730   0.518   6.685   0.740  0.5358 -0.9072  0.7316
 8277SOL    HW225731   0.622   6.789   0.670 -1.3632  0.6366  0.1254
 8278SOL     OW25732   3.397   2.679   5.748 -0.3840 -0.1148 -0.2459
 8278SOL    HW125733   3.331   2.739   5.792 -1.7149 -0.7034 -1.3757
 8278SOL    HW225734   3.453   2.732   5.684  0.2056  0.3658  0.6440
 8279SOL     OW25735   1.690   0.521   3.819 -0.2116 -0.0379  0.4166
 8279SOL    HW125736   1.625   0.596   3.831  0.4247  0.5897  0.0591
 8279SOL    HW225737   1.730   0.497   3.907  1.4354  1.7802  0.2355
 8280SOL     OW25738   0.231   6.251   0.967  0.2291  0.4600  0.0426
 8280SOL    HW125739   0.223   6.348   0.945  0.6628  0.2735 -0.9723
 8280SOL    HW225740   0.169   6.198   0.910  1.2966 -0.0180 -0.7226
 8281SOL     OW25741   2.986   6.419   1.175  0.5695  0.5155  0.6523
 8281SOL    HW125742   3.038   6.469   1.245 -0.9443  0.7517  1.6461
 8281SOL    HW225743   3.028   6.434   1.086  1.1071  2.2469  1.1521
 8282SOL     OW25744   5.035   3.429   0.064  0.8277  0.1160  0.6786
 8282SOL    HW125745   5.079   3.375   0.135  1.6995 -0.2250 -0.0977
 8282SOL    HW225746   5.081   3.517   0.054  2.8515 -1.0842 -1.6192
 8283SOL     OW25747   2.853   5.634   6.535  0.7210 -0.4776  0.3692
 8283SOL    HW125748   2.923   5.704   6.523 -1.0601  1.2104 -0.7452
 8283SOL    HW225749   2.851   5.574   6.456  1.3545 -0.9714  0.7208
 8284SOL     OW25750   1.465   4.892   1.011  0.3058 -0.3327 -0.4216
 8284SOL    HW125751   1.385   4.832   1.003 -0.5091  0.7305 -0.4302
 8284SOL    HW225752   1.435   4.985   1.029  1.5419  0.1576 -0.7988
 8285SOL     OW25753   3.799   3.954   3.703  0.0660 -0.7842  0.1536
 8285SOL    HW125754   3.716   3.996   3.738  0.3421 -0.0573 -0.0479
 8285SOL    HW225755   3.789   3.854   3.704 -1.8424 -0.7209 -2.3210
 8286SOL     OW25756   5.713   2.166   5.091  0.0731  0.1844  0.1091
 8286SOL    HW125757   5.701   2.068   5.076 -1.6894  0.4244 -0.2884
 8286SOL    HW225758   5.701   2.215   5.004  0.2140  0.8048  0.4330
 8287SOL     OW25759   0.915   6.314   4.483  0.2805  0.5802  0.1592
 8287SOL    HW125760   0.974   6.240   4.516  0.5064  1.3416  1.4996
 8287SOL    HW225761   0.890   6.296   4.387  1.0394 -0.7727  0.1908
 8288SOL     OW25762   4.376   2.351   5.565 -0.2936 -0.1049  0.0639
 8288SOL    HW125763   4.384   2.402   5.479 -3.1843 -0.9398 -0.8118
 8288SOL    HW225764   4.309   2.396   5.624  0.5047 -0.4290  1.2481
 8289SOL     OW25765   0.786   5.331   4.924 -0.6739 -0.0405  0.0656
 8289SOL    HW125766   0.721   5.348   4.850  0.2229 -1.8781 -1.2092
 8289SOL    HW225767   0.861   5.398   4.919 -1.5061  0.9497  0.4395
 8290SOL     OW25768   6.880   5.843   2.600 -0.2609 -0.1267  0.0365
 8290SOL    HW125769   6.853   5.757   2.558  1.8584 -0.5652 -0.5308
 8290SOL    HW225770   6.975   5.864   2.576  0.0377  1.1720  2.1158
 8291SOL     OW25771   5.570   5.091   5.987 -0.3645  0.1470  0.0862
 8291SOL    HW125772   5.556   5.073   6.085  0.7654 -2.0433 -0.0834
 8291SOL    HW225773   5.661   5.128   5.973  0.2338 -1.3617 -0.2534
 8292SOL     OW25774   3.507   1.647   6.328  0.4164  0.9441  0.8217
 8292SOL    HW125775   3.567   1.705   6.384  0.8085  2.0222 -0.6639
 8292SOL    HW225776   3.418   1.637   6.374  0.7006  1.8475  1.5967
 8293SOL     OW25777   2.902   6.041   0.447 -0.3633  0.3605 -0.0067
 8293SOL    HW125778   2.896   6.028   0.546  0.1290  0.1046 -0.0107
 8293SOL    HW225779   2.814   6.016   0.406 -0.0342 -1.2107  0.1830
 8294SOL     OW25780   3.826   4.318   5.287 -0.1176 -0.0770  0.0879
 8294SOL    HW125781   3.787   4.277   5.205 -0.2393  0.0347  0.0892
 8294SOL    HW225782   3.919   4.285   5.300 -0.9388 -2.0832  1.3148
 8295SOL     OW25783   4.817   5.752   1.274  0.1051 -0.0627 -0.6173
 8295SOL    HW125784   4.823   5.677   1.340  1.9575  0.0196 -0.6238
 8295SOL    HW225785   4.739   5.810   1.296  1.2515  0.5578  2.1981
 8296SOL     OW25786   0.573   4.829   6.182 -0.3761  0.4552 -0.9472
 8296SOL    HW125787   0.569   4.839   6.083 -0.6096 -0.2790 -1.0245
 8296SOL    HW225788   0.602   4.736   6.204 -0.1491  0.6729 -0.3265
 8297SOL     OW25789   6.300   3.051   0.848 -0.3113  0.0479 -0.1021
 8297SOL    HW125790   6.354   2.970   0.827  0.0010  0.1316  0.3678
 8297SOL    HW225791   6.337   3.130   0.799 -0.1742  0.0506  0.0062
 8298SOL     OW25792   6.647   2.133   1.976 -0.3877 -0.2410  0.1568
 8298SOL    HW125793   6.724   2.196   1.980 -1.3177  1.0260 -0.8818
 8298SOL    HW225794   6.660   2.070   1.899  0.4651 -1.2722  1.1009
 8299SOL     OW25795   0.026   2.292   0.972 -0.3394 -1.0366  0.1215
 8299SOL    HW125796   0.084   2.337   1.041  0.0873 -1.0125 -0.2446
 8299SOL    HW225797  -0.018   2.361   0.915  1.5613 -1.0485 -1.4664
 8300SOL     OW25798   6.810   4.372   4.029 -0.1582 -0.8510  0.1460
 8300SOL    HW125799   6.802   4.320   3.944  0.7349 -1.2467  0.2917
 8300SOL    HW225800   6.723   4.368   4.080 -0.1824 -1.9851  0.0305
 8301SOL     OW25801   5.917   2.150   0.111 -0.8557 -0.0376  0.1447
 8301SOL    HW125802   5.891   2.053   0.116 -1.0890  0.0667  1.7475
 8301SOL    HW225803   5.918   2.180   0.016 -1.2347 -1.4931 -0.3456
 8302SOL     OW25804   6.266   0.387   0.158 -0.1915 -0.3661  0.2862
 8302SOL    HW125805   6.277   0.304   0.102 -1.0054  0.0636 -0.5365
 8302SOL    HW225806   6.356   0.423   0.181  0.1692 -0.5998 -0.6875
 8303SOL     OW25807   0.817   0.925   3.576  0.3954  0.0716 -0.0072
 8303SOL    HW125808   0.831   0.826   3.574  1.2692  0.1533  1.1335
 8303SOL    HW225809   0.770   0.953   3.492  0.1234 -1.2986 -0.3462
 8304SOL     OW25810   0.866   2.914   0.055 -0.1243  0.3474  0.5388
 8304SOL    HW125811   0.896   2.831   0.102 -0.0681  1.2555  2.1703
 8304SOL    HW225812   0.892   2.909  -0.041 -1.6424 -2.2869  0.1519
 8305SOL     OW25813   4.689   5.455   6.417  0.8006 -0.5658  0.4406
 8305SOL    HW125814   4.606   5.408   6.386  0.3064 -0.2417  1.2532
 8305SOL    HW225815   4.731   5.403   6.491  1.3128 -0.7091  0.0575
 8306SOL     OW25816   6.784   1.810   5.526  0.4682  0.2283  0.6559
 8306SOL    HW125817   6.713   1.741   5.517  0.4196  0.3232  0.3089
 8306SOL    HW225818   6.816   1.812   5.621  0.5928 -0.3906  0.6364
 8307SOL     OW25819   4.444   4.859   0.771  0.0938 -0.0725  0.4141
 8307SOL    HW125820   4.471   4.840   0.677 -1.2310  0.7089 -0.1351
 8307SOL    HW225821   4.401   4.777   0.810  1.4036 -0.6814  0.6578
 8308SOL     OW25822   3.885   4.608   0.599 -0.1520  0.6842 -0.2092
 8308SOL    HW125823   3.826   4.688   0.587 -0.8115  0.2501  0.1046
 8308SOL    HW225824   3.832   4.525   0.582  0.3705  0.2892  0.0888
 8309SOL     OW25825   0.451   6.047   4.029 -0.4100  0.1213 -0.2825
 8309SOL    HW125826   0.535   6.090   4.061 -0.4361  0.5829 -0.8057
 8309SOL    HW225827   0.383   6.118   4.011  0.1803  0.1188 -3.0510
 8310SOL     OW25828   6.633   4.191   6.914  0.2866  0.1742 -0.1905
 8310SOL    HW125829   6.614   4.209   6.818  0.5316 -2.1138 -0.7291
 8310SOL    HW225830   6.557   4.226   6.970 -0.6976 -0.0042 -1.3706
 8311SOL     OW25831   0.055   2.327   5.113  0.2793  0.1106 -0.4342
 8311SOL    HW125832  -0.038   2.315   5.078 -0.1144 -1.8886  1.0817
 8311SOL    HW225833   0.115   2.260   5.070  0.5734  0.0676  0.0394
 8312SOL     OW25834   0.536   0.244   6.421  0.4055 -0.1031 -0.0663
 8312SOL    HW125835   0.631   0.245   6.390  0.6756  0.2739  0.7488
 8312SOL    HW225836   0.503   0.338   6.429  0.9212 -0.0650  2.4506
 8313SOL     OW25837   4.585   1.184   2.133 -0.2855  0.1202  0.1430
 8313SOL    HW125838   4.644   1.197   2.213 -0.3426  0.8971  0.0650
 8313SOL    HW225839   4.616   1.243   2.059 -2.1954  1.8836  0.6732
 8314SOL     OW25840   4.682   1.660   6.145 -0.4438 -0.4000  0.2667
 8314SOL    HW125841   4.698   1.739   6.086 -0.9380 -1.6987 -1.6896
 8314SOL    HW225842   4.597   1.615   6.119 -0.3467 -1.4069  1.5646
 8315SOL     OW25843   4.192   2.403   0.150 -0.2671  0.3742 -0.4763
 8315SOL    HW125844   4.220   2.380   0.057 -0.9606 -2.7395 -0.0154
 8315SOL    HW225845   4.250   2.355   0.216  0.7656  3.1710  0.8204
 8316SOL     OW25846   2.000   1.940   2.277 -0.3162  0.2958  0.4901
 8316SOL    HW125847   1.975   1.843   2.282  0.5292  0.1095  3.9325
 8316SOL    HW225848   2.099   1.949   2.293 -0.3271  1.7416 -0.1048
 8317SOL     OW25849   2.508   1.846   1.685 -0.5936  0.0904 -0.0489
 8317SOL    HW125850   2.424   1.868   1.635  0.5523 -0.6613 -2.4964
 8317SOL    HW225851   2.587   1.878   1.633  0.7098 -0.9301  1.2104
 8318SOL     OW25852   4.836   2.349   3.246 -0.0459  0.1506  0.5971
 8318SOL    HW125853   4.746   2.394   3.244 -1.1220 -1.8504 -1.6387
 8318SOL    HW225854   4.835   2.277   3.315 -0.0351  0.4065  0.8621
 8319SOL     OW25855   1.774   1.905   0.071  0.1643 -0.1411  0.4512
 8319SOL    HW125856   1.869   1.929   0.089  0.6510 -2.0974  0.7710
 8319SOL    HW225857   1.735   1.968   0.004  1.9564  0.1652 -0.3595
 8320SOL     OW25858   3.546   2.640   1.762  0.0218  0.2920  0.3557
 8320SOL    HW125859   3.610   2.568   1.788 -0.3062  0.4203  1.6003
 8320SOL    HW225860   3.455   2.601   1.748 -0.0955  0.4205  0.7518
 8321SOL     OW25861   6.621   0.640   6.973  0.3218  0.1886 -0.6341
 8321SOL    HW125862   6.622   0.722   7.030 -0.4392 -0.0407 -0.2741
 8321SOL    HW225863   6.697   0.643   6.908 -0.3398  1.7365 -1.4040
 8322SOL     OW25864   6.815   6.957   0.838  0.0219 -0.1524 -0.3720
 8322SOL    HW125865   6.730   7.005   0.862 -0.1906  0.3427 -2.0216
 8322SOL    HW225866   6.835   6.889   0.909 -1.1496  0.4760  0.6081
 8323SOL     OW25867   5.656   6.438   2.108  0.3746  0.0223  0.2506
 8323SOL    HW125868   5.558   6.455   2.099  0.2265  0.0045  1.6620
 8323SOL    HW225869   5.697   6.429   2.017 -0.9668 -0.1878 -0.3479
 8324SOL     OW25870   6.272   6.909   1.009 -0.1996 -0.3602 -0.1611
 8324SOL    HW125871   6.179   6.892   0.977 -0.2517  2.0332 -1.4780
 8324SOL    HW225872   6.335   6.848   0.960 -0.8428 -0.3851 -0.9865
 8325SOL     OW25873   3.651   3.755   4.411  0.4617  0.1175  0.0630
 8325SOL    HW125874   3.697   3.683   4.464  1.0695 -0.0238 -0.6411
 8325SOL    HW225875   3.648   3.729   4.314 -1.8972 -0.2807  0.1915
 8326SOL     OW25876   6.785   4.998   6.666  0.2922  0.2596 -0.0242
 8326SOL    HW125877   6.752   4.990   6.760 -0.5382 -2.8352 -0.4819
 8326SOL    HW225878   6.883   4.976   6.663  0.3351  0.4281  0.1173
 8327SOL     OW25879   6.451   2.347   0.282  0.2432 -0.5158 -0.0042
 8327SOL    HW125880   6.391   2.318   0.208 -0.1149  1.0583 -0.3826
 8327SOL    HW225881   6.545   2.320   0.263  0.0103 -0.9546 -0.5527
 8328SOL     OW25882   2.474   4.789   0.292 -0.2168 -0.2292 -0.1188
 8328SOL    HW125883   2.479   4.876   0.243  0.3668  1.0896  2.1394
 8328SOL    HW225884   2.567   4.752   0.304  0.1108  1.2458  2.8361
 8329SOL     OW25885   0.676   3.568   0.503  0.0952 -0.2749 -1.0847
 8329SOL    HW125886   0.719   3.514   0.574  1.5334  0.7727 -1.1275
 8329SOL    HW225887   0.658   3.510   0.423 -0.6841 -1.2346 -0.2390
 8330SOL     OW25888   2.452   1.235   1.260  0.7144  0.5759  1.5096
 8330SOL    HW125889   2.463   1.165   1.331  1.0633  0.7406  1.6222
 8330SOL    HW225890   2.542   1.273   1.236  0.8838 -0.9275 -0.5089
 8331SOL     OW25891   2.695   1.529   1.222 -0.2675 -0.5858 -0.3515
 8331SOL    HW125892   2.646   1.580   1.151 -1.2316 -0.2126  0.5704
 8331SOL    HW225893   2.780   1.578   1.244 -1.0843  0.5448  0.3797
 8332SOL     OW25894   5.560   5.283   4.662  0.4243  0.3075  0.1576
 8332SOL    HW125895   5.472   5.276   4.615  0.1655 -0.4033  0.7234
 8332SOL    HW225896   5.633   5.249   4.602  0.2262  0.2861 -0.0742
 8333SOL     OW25897   1.206   6.198   1.402 -0.2749  0.7161  0.0732
 8333SOL    HW125898   1.272   6.265   1.436 -0.7359  1.2217 -0.0102
 8333SOL    HW225899   1.226   6.109   1.442 -0.5183  1.1941  1.3118
 8334SOL     OW25900   2.880   1.733   3.651  0.1130  0.0897 -0.1188
 8334SOL    HW125901   2.821   1.732   3.732 -0.2641 -0.4687 -0.3977
 8334SOL    HW225902   2.963   1.784   3.672  0.0225 -0.0495  0.6205
 8335SOL     OW25903   6.145   1.003   6.357 -0.4311  0.3978 -0.6810
 8335SOL    HW125904   6.192   1.001   6.268  2.6782  0.2294  0.8489
 8335SOL    HW225905   6.112   0.912   6.379  0.7168 -0.0418 -0.7343
 8336SOL     OW25906   6.392   5.137   3.542 -0.0782 -0.2036  0.4675
 8336SOL    HW125907   6.408   5.084   3.626  1.8293 -0.2493  0.1164
 8336SOL    HW225908   6.432   5.228   3.552 -0.8796  0.2036  0.0261
 8337SOL     OW25909   6.685   6.638   3.270 -0.3305  0.0337  0.0534
 8337SOL    HW125910   6.649   6.724   3.235  1.2546  0.9608  0.5986
 8337SOL    HW225911   6.740   6.593   3.199  0.0064  0.1790  0.2214
 8338SOL     OW25912   3.535   4.925   2.192  0.2292  0.5010 -0.6199
 8338SOL    HW125913   3.468   4.968   2.131 -1.3853 -1.6675 -0.5214
 8338SOL    HW225914   3.571   4.842   2.148  2.1978  1.1184 -0.2632
 8339SOL     OW25915   6.239   1.454   2.393  0.1328 -0.0101  0.2773
 8339SOL    HW125916   6.182   1.392   2.446 -1.1216  0.9078  0.0422
 8339SOL    HW225917   6.181   1.516   2.340  1.3549  0.7198 -0.2542
 8340SOL     OW25918   4.126   2.908   0.782  0.1425 -0.1639  0.1063
 8340SOL    HW125919   4.216   2.925   0.822  0.4687 -0.2240 -0.5794
 8340SOL    HW225920   4.123   2.815   0.746 -0.1688 -0.1334  0.0502
 8341SOL     OW25921   3.657   4.782   0.467 -0.3673 -0.1702  0.0601
 8341SOL    HW125922   3.633   4.867   0.421 -1.5101 -0.5642 -0.0957
 8341SOL    HW225923   3.645   4.705   0.404  0.3872 -0.4781  0.2830
 8342SOL     OW25924   3.877   0.857   1.639 -0.1964 -0.0063  0.0754
 8342SOL    HW125925   3.934   0.885   1.563 -0.7928 -1.0600 -0.7770
 8342SOL    HW225926   3.892   0.760   1.659 -0.3085  0.1696  1.0662
 8343SOL     OW25927   2.443   4.079   5.819  0.0913 -0.1549 -0.4780
 8343SOL    HW125928   2.496   3.998   5.845  0.4787  0.2251 -0.0656
 8343SOL    HW225929   2.379   4.055   5.747 -0.5997 -1.1087  0.4250
 8344SOL     OW25930   5.163   5.791   5.414  0.0564  0.2801  0.3469
 8344SOL    HW125931   5.074   5.834   5.429 -0.1396  0.1285 -0.3321
 8344SOL    HW225932   5.207   5.833   5.334 -0.2511 -0.9201 -0.4886
 8345SOL     OW25933   5.453   2.814   3.804  0.1978  0.0327  0.4191
 8345SOL    HW125934   5.434   2.907   3.837  2.9398  0.6929  0.4297
 8345SOL    HW225935   5.456   2.815   3.704  1.6281  0.3483  0.4363
 8346SOL     OW25936   3.911   3.111   0.739 -0.4018 -0.3224 -0.0086
 8346SOL    HW125937   3.994   3.065   0.771 -0.4254 -0.0886  0.4009
 8346SOL    HW225938   3.895   3.193   0.795 -1.1404 -0.5976  0.1967
 8347SOL     OW25939   3.101   4.866   3.915 -0.6727  0.3527 -0.0110
 8347SOL    HW125940   3.086   4.844   3.818  0.5038 -0.1437 -0.1043
 8347SOL    HW225941   3.014   4.893   3.957 -1.4102 -0.4673 -0.9423
 8348SOL     OW25942   1.454   6.527   2.515  0.2075  0.3790 -0.7266
 8348SOL    HW125943   1.499   6.468   2.582 -0.7304 -0.7478 -1.0648
 8348SOL    HW225944   1.355   6.519   2.526  0.0584  1.0563 -1.5119
 8349SOL     OW25945   0.002   5.338   6.766 -0.4479  0.0518  0.7123
 8349SOL    HW125946  -0.033   5.309   6.856 -1.3013  0.1043  0.4024
 8349SOL    HW225947   0.090   5.293   6.749 -1.1382 -1.3930  0.7907
 8350SOL     OW25948   4.199   6.602   5.091  0.2459  0.4014 -0.3019
 8350SOL    HW125949   4.252   6.531   5.137  0.2459  1.1899  0.9942
 8350SOL    HW225950   4.105   6.570   5.077  0.0293  0.4062  0.9954
 8351SOL     OW25951   4.266   5.418   5.416 -0.2042  0.1401 -0.6961
 8351SOL    HW125952   4.175   5.376   5.411  0.2148 -0.7844 -0.8066
 8351SOL    HW225953   4.257   5.515   5.438 -1.2678  0.2670 -1.6023
 8352SOL     OW25954   5.781   1.007   2.198 -0.1506 -0.1950 -0.2823
 8352SOL    HW125955   5.751   1.100   2.220  0.1260  0.1602 -1.3303
 8352SOL    HW225956   5.783   0.951   2.281 -0.8474  0.5848  0.2714
 8353SOL     OW25957   6.637   5.746   1.576 -0.3049  0.6380 -0.2137
 8353SOL    HW125958   6.544   5.773   1.550 -0.2931  1.5923  0.6527
 8353SOL    HW225959   6.692   5.828   1.592  0.1493  0.1087  1.0889
 8354SOL     OW25960   2.572   6.450   0.203  0.1831 -0.4695  0.0317
 8354SOL    HW125961   2.649   6.439   0.140  0.8552 -0.7933  0.8906
 8354SOL    HW225962   2.548   6.547   0.209  0.2043 -0.4207 -0.6070
 8355SOL     OW25963   1.873   7.010   1.206  0.1371 -0.3916 -0.2256
 8355SOL    HW125964   1.852   7.107   1.217 -1.0744 -0.8479  2.4602
 8355SOL    HW225965   1.835   6.977   1.120 -1.1559  1.1065 -0.2727
 8356SOL     OW25966   1.880   0.310   0.940  0.1407 -0.1861  0.2108
 8356SOL    HW125967   1.797   0.271   0.980 -0.6772  0.3607 -0.9019
 8356SOL    HW225968   1.921   0.244   0.877 -2.1996  1.1810 -3.0236
 8357SOL     OW25969   2.792   0.480   4.917 -0.0330 -0.6440  0.4558
 8357SOL    HW125970   2.744   0.557   4.877  1.6210  0.9928  1.4549
 8357SOL    HW225971   2.773   0.397   4.864 -1.2580  0.5699 -1.0917
 8358SOL     OW25972   0.413   2.962   5.052  0.3858  0.2357  0.0483
 8358SOL    HW125973   0.492   2.946   5.110  0.3672  1.0276  0.2979
 8358SOL    HW225974   0.377   3.053   5.068 -0.7576 -0.2131  0.1537
 8359SOL     OW25975   4.412   0.559   5.554  0.1474 -0.1527 -0.5315
 8359SOL    HW125976   4.508   0.563   5.527  0.2065 -0.7102 -0.4097
 8359SOL    HW225977   4.405   0.572   5.653  0.1531 -0.7727 -0.4491
 8360SOL     OW25978   3.080   5.180   3.016 -0.2032 -0.1090  0.2423
 8360SOL    HW125979   3.111   5.099   2.965 -0.1031 -1.1117  1.8375
 8360SOL    HW225980   3.003   5.155   3.074  1.9699 -0.0305  3.4199
 8361SOL     OW25981   2.245   5.759   4.348 -0.1934  0.0035 -0.0572
 8361SOL    HW125982   2.255   5.833   4.415  2.1152  0.1701 -0.5068
 8361SOL    HW225983   2.222   5.798   4.259  1.6510  0.3091 -0.4412
 8362SOL     OW25984   4.409   2.024   2.512  0.2178 -0.3903  0.6972
 8362SOL    HW125985   4.481   2.080   2.471  1.2079 -1.3778  1.0199
 8362SOL    HW225986   4.383   1.952   2.448  1.7629 -1.9337  1.7216
 8363SOL     OW25987   0.673   2.487   6.819 -0.1678 -0.2120 -0.5887
 8363SOL    HW125988   0.602   2.535   6.768  0.8691  0.0178 -1.8439
 8363SOL    HW225989   0.743   2.552   6.848  1.5862 -0.9985 -2.8678
 8364SOL     OW25990   0.422   3.256   2.264  0.2694  0.1020  0.1865
 8364SOL    HW125991   0.514   3.227   2.290 -0.5643 -1.3210  1.7389
 8364SOL    HW225992   0.362   3.250   2.343 -1.3551  0.1954 -0.9899
 8365SOL     OW25993   2.114   2.403   6.316 -0.3563 -0.1146  0.0286
 8365SOL    HW125994   2.096   2.468   6.390  0.5694 -1.0724  1.1219
 8365SOL    HW225995   2.027   2.381   6.271 -0.6474  2.1900 -0.6901
 8366SOL     OW25996   3.300   5.705   3.659  0.5275  0.3057  0.6850
 8366SOL    HW125997   3.248   5.780   3.699 -0.6330 -1.1315  2.0210
 8366SOL    HW225998   3.285   5.702   3.560  1.6002  2.5342  0.3864
 8367SOL     OW25999   3.437   5.200   4.204 -0.5477 -0.0971  0.4261
 8367SOL    HW126000   3.453   5.105   4.233 -0.1614  0.4259  2.0215
 8367SOL    HW226001   3.391   5.200   4.115 -1.5944 -1.8125  0.9084
 8368SOL     OW26002   3.356   0.806   1.542 -0.2160  0.1970 -0.4163
 8368SOL    HW126003   3.443   0.817   1.591 -0.2697  2.2937 -0.7013
 8368SOL    HW226004   3.306   0.893   1.542 -1.9388 -0.7463 -0.9919
 8369SOL     OW26005   4.013   1.086   5.474  0.1163  0.2841 -0.0463
 8369SOL    HW126006   4.076   1.077   5.550 -2.4475 -1.8972  2.0428
 8369SOL    HW226007   4.023   1.008   5.413  0.0885  0.4271 -0.2337
 8370SOL     OW26008   2.575   2.123   4.386 -0.0216  0.3716  0.3591
 8370SOL    HW126009   2.540   2.200   4.333 -0.1779  0.8347  1.1167
 8370SOL    HW226010   2.597   2.047   4.325 -0.5348  0.7654 -0.3217
 8371SOL     OW26011   3.101   4.860   0.296  0.2774  0.3063  0.5778
 8371SOL    HW126012   3.061   4.916   0.223 -0.2681 -1.5948 -0.6370
 8371SOL    HW226013   3.039   4.859   0.374  0.2691  1.3272  0.5985
 8372SOL     OW26014   1.401   5.579   0.822  0.2720  0.0365  0.2499
 8372SOL    HW126015   1.421   5.595   0.725 -1.7656  0.2398 -0.1778
 8372SOL    HW226016   1.304   5.595   0.839  0.5456 -0.2387  2.2960
 8373SOL     OW26017   1.341   0.424   4.683  0.1669  0.4144  0.9853
 8373SOL    HW126018   1.301   0.365   4.753  0.3074 -1.9957 -0.8077
 8373SOL    HW226019   1.415   0.374   4.637  0.0935  1.9098 -0.8506
 8374SOL     OW26020   2.501   0.929   6.769 -0.1879  0.7648 -0.9953
 8374SOL    HW126021   2.568   0.866   6.808 -0.4127  2.3679  2.3729
 8374SOL    HW226022   2.548   1.006   6.726  0.0976  0.4248 -1.2982
 8375SOL     OW26023   4.659   0.701   4.919  0.1597 -0.3399  0.1474
 8375SOL    HW126024   4.715   0.647   4.856  2.2926  2.6242 -0.7035
 8375SOL    HW226025   4.677   0.672   5.013 -1.1266 -3.0735 -0.3424
 8376SOL     OW26026   1.259   6.782   3.299 -0.7272 -0.4362 -0.1905
 8376SOL    HW126027   1.311   6.728   3.233  1.1613 -0.8360  1.5240
 8376SOL    HW226028   1.306   6.869   3.314 -1.6988  0.0858 -0.1138
 8377SOL     OW26029   5.138   5.496   0.019  0.1577  0.6243  0.1596
 8377SOL    HW126030   5.158   5.466   0.112 -1.1497  1.2460  0.6776
 8377SOL    HW226031   5.187   5.580  -0.001 -1.5478  1.9561  1.2905
 8378SOL     OW26032   5.118   6.211   4.374 -0.1732 -0.5451  0.2336
 8378SOL    HW126033   5.107   6.112   4.369 -2.5318 -0.2875 -1.3255
 8378SOL    HW226034   5.171   6.243   4.295 -0.5606 -0.4417  0.0148
 8379SOL     OW26035   6.102   2.846   0.220  0.6442  0.1767 -0.1340
 8379SOL    HW126036   6.036   2.903   0.170  2.4394  1.5608 -1.0547
 8379SOL    HW226037   6.160   2.904   0.276 -0.3971 -1.2469  2.5631
 8380SOL     OW26038   6.066   6.788   1.704 -0.5448 -0.0736  0.1208
 8380SOL    HW126039   6.012   6.782   1.788 -0.0198 -1.3066  0.3878
 8380SOL    HW226040   6.150   6.838   1.723 -0.2835 -0.6168  0.4130
 8381SOL     OW26041   2.533   2.501   3.287  0.6792  0.4540  0.1657
 8381SOL    HW126042   2.443   2.484   3.248  0.0567  1.4391  1.1079
 8381SOL    HW226043   2.604   2.465   3.226 -0.3597 -0.8933 -0.2885
 8382SOL     OW26044   3.453   1.357   1.725  0.4032 -0.4830 -0.2712
 8382SOL    HW126045   3.441   1.260   1.705  0.5940 -0.8306  1.1601
 8382SOL    HW226046   3.447   1.371   1.824  1.9100  0.7342 -0.3165
 8383SOL     OW26047   2.313   1.929   5.562 -0.1332  0.0241  0.7153
 8383SOL    HW126048   2.399   1.883   5.545 -1.3110 -1.5092 -1.6255
 8383SOL    HW226049   2.286   1.981   5.480 -1.3964  0.5114  1.4088
 8384SOL     OW26050   0.549   1.357   1.472 -0.4958 -0.2278 -0.4339
 8384SOL    HW126051   0.620   1.408   1.520  1.8487 -2.5614 -1.1769
 8384SOL    HW226052   0.506   1.417   1.403  2.1740  0.8085 -1.3545
 8385SOL     OW26053   6.967   2.527   3.090  0.0798  0.1416  0.0195
 8385SOL    HW126054   6.953   2.501   2.995 -1.4631  0.4150  0.1480
 8385SOL    HW226055   6.941   2.623   3.102 -0.4741 -0.1028  0.8551
 8386SOL     OW26056   0.828   4.617   2.302 -0.5152 -0.0630  0.0638
 8386SOL    HW126057   0.773   4.533   2.298 -1.0360  0.2794  0.0349
 8386SOL    HW226058   0.866   4.627   2.394  2.1940 -2.0033 -0.6978
 8387SOL     OW26059   2.412   0.457   1.463 -0.3351  0.6459  0.0124
 8387SOL    HW126060   2.387   0.361   1.477  0.3692 -0.0403 -2.8739
 8387SOL    HW226061   2.330   0.510   1.442 -0.5335  0.3776  0.1056
 8388SOL     OW26062   1.622   5.251   5.822 -0.2107 -0.3533 -0.2228
 8388SOL    HW126063   1.625   5.154   5.846  0.5118 -0.0585  0.9677
 8388SOL    HW226064   1.706   5.296   5.853 -0.8677  0.8050 -0.0577
 8389SOL     OW26065   5.451   3.113   3.217  0.1357  0.3099  0.2860
 8389SOL    HW126066   5.447   3.188   3.150 -0.3857  0.2884  0.2943
 8389SOL    HW226067   5.546   3.084   3.228  0.1393 -0.2842 -1.1017
 8390SOL     OW26068   4.845   0.281   5.688  0.4022  0.0225 -0.1350
 8390SOL    HW126069   4.763   0.293   5.743  0.3563 -0.7685 -0.0182
 8390SOL    HW226070   4.925   0.272   5.748  0.5724  0.7481 -0.2468
 8391SOL     OW26071   6.074   6.049   0.175  0.1786  0.0430 -0.0898
 8391SOL    HW126072   6.108   6.134   0.136  2.0427 -1.4890 -2.0442
 8391SOL    HW226073   6.141   6.012   0.239 -0.1801 -0.4458  0.0126
 8392SOL     OW26074   5.913   4.691   5.635  0.0374 -0.4370  0.0639
 8392SOL    HW126075   5.922   4.740   5.721  0.7132  0.7978 -0.6788
 8392SOL    HW226076   6.004   4.674   5.597 -0.2756 -0.0874 -0.8774
 8393SOL     OW26077   5.609   5.321   2.633  0.0649  0.1225 -0.1145
 8393SOL    HW126078   5.571   5.253   2.571 -1.1709  0.3314  0.3822
 8393SOL    HW226079   5.578   5.303   2.727  1.6840 -0.0336  0.4251
 8394SOL     OW26080   5.234   4.244   1.018 -0.3906  0.2580 -0.4566
 8394SOL    HW126081   5.205   4.152   1.042  0.9534 -0.6769 -2.1568
 8394SOL    HW226082   5.211   4.307   1.092 -2.6838 -1.1460  0.0990
 8395SOL     OW26083   3.604   5.494   4.738  0.5645  0.0096  0.7234
 8395SOL    HW126084   3.653   5.423   4.789  0.7668  0.9001  1.8189
 8395SOL    HW226085   3.534   5.535   4.797 -0.3438 -0.0572 -0.2675
 8396SOL     OW26086   4.785   4.990   2.741 -0.3671  0.2571  0.4117
 8396SOL    HW126087   4.694   4.951   2.731 -0.2464 -0.2096  1.0445
 8396SOL    HW226088   4.785   5.056   2.816  0.0111 -0.4003  1.0064
 8397SOL     OW26089   1.305   2.141   0.397  0.6154  0.0580 -1.0734
 8397SOL    HW126090   1.357   2.220   0.365 -0.0463  0.7876 -0.3964
 8397SOL    HW226091   1.362   2.087   0.459  0.5097  1.0180 -0.0952
 8398SOL     OW26092   5.458   1.932   6.296  0.0554  0.2183  0.4623
 8398SOL    HW126093   5.381   1.982   6.335  1.2453  2.3586  0.2242
 8398SOL    HW226094   5.539   1.945   6.353  1.3096  1.7294 -1.5041
 8399SOL     OW26095   6.701   0.705   5.920 -0.2131  0.1856  0.6559
 8399SOL    HW126096   6.742   0.783   5.872  1.4050  0.8758  3.0127
 8399SOL    HW226097   6.680   0.633   5.853  4.5624 -0.1090 -0.9424
 8400SOL     OW26098   0.206   0.955   5.536 -0.4654 -0.0250 -0.0987
 8400SOL    HW126099   0.184   1.023   5.466  0.0549 -1.5691 -1.8365
 8400SOL    HW226100   0.300   0.968   5.567 -0.5653  0.4157  0.0201
 8401SOL     OW26101   2.755   6.447   3.982 -0.2732  0.0490 -0.7525
 8401SOL    HW126102   2.724   6.539   3.954 -1.0064  0.3547  0.9285
 8401SOL    HW226103   2.781   6.449   4.078  1.7584 -1.0514 -1.2319
 8402SOL     OW26104   3.380   2.017   0.072 -0.4310  0.1842  0.3583
 8402SOL    HW126105   3.413   2.095   0.125  1.9617 -0.5132  0.0405
 8402SOL    HW226106   3.393   1.933   0.125 -0.7269 -0.2329 -0.2168
 8403SOL     OW26107   0.358   4.451   2.326  0.0706  0.2383  0.2519
 8403SOL    HW126108   0.356   4.375   2.260  1.0160 -0.6116  1.1641
 8403SOL    HW226109   0.452   4.465   2.358 -0.2023  1.3542  0.6225
 8404SOL     OW26110   3.351   0.206   6.487 -0.3688  0.6456  0.3184
 8404SOL    HW126111   3.413   0.246   6.555  1.2097 -0.4479 -0.4195
 8404SOL    HW226112   3.364   0.252   6.399 -1.0433  0.7948  0.2921
 8405SOL     OW26113   2.480   1.901   4.730  0.0536 -0.4735  0.3013
 8405SOL    HW126114   2.555   1.841   4.757  0.7624  0.0093 -0.5336
 8405SOL    HW226115   2.398   1.846   4.712  0.7843 -1.2506 -0.8064
 8406SOL     OW26116   4.842   0.557   2.775 -0.8400 -0.0304  0.4409
 8406SOL    HW126117   4.811   0.503   2.696  2.3533 -2.3915  0.5716
 8406SOL    HW226118   4.912   0.622   2.745 -0.6425  0.0629  1.0952
 8407SOL     OW26119   4.489   6.435   3.945  0.6683  0.3552  0.5077
 8407SOL    HW126120   4.539   6.348   3.952 -1.4350 -0.9893 -0.0833
 8407SOL    HW226121   4.402   6.427   3.992 -0.5175  1.3887 -1.3759
 8408SOL     OW26122   4.043   3.148   1.764 -0.1414 -0.2409 -0.1479
 8408SOL    HW126123   3.950   3.152   1.727  0.0521  0.1570 -0.6147
 8408SOL    HW226124   4.041   3.117   1.859 -0.6510 -1.3624 -0.5100
 8409SOL     OW26125   4.938   1.030   3.470  0.2282  0.1770  0.3397
 8409SOL    HW126126   4.952   0.946   3.523  1.5382 -1.2106 -2.0355
 8409SOL    HW226127   5.026   1.058   3.430 -0.6183  1.4205 -0.7081
 8410SOL     OW26128   5.409   1.068   2.316 -0.4802 -0.3275  0.3355
 8410SOL    HW126129   5.429   0.995   2.382 -0.7373  0.2801  1.0955
 8410SOL    HW226130   5.456   1.152   2.344 -0.9232  0.0446 -0.0279
 8411SOL     OW26131   1.477   5.712   5.877  0.1632  0.2797  0.5403
 8411SOL    HW126132   1.386   5.744   5.904  0.2035  0.2831  0.6726
 8411SOL    HW226133   1.486   5.616   5.900  0.7004  0.6223  1.8346
 8412SOL     OW26134   4.913   2.304   6.730  0.8181 -0.7912  0.2077
 8412SOL    HW126135   4.915   2.371   6.656  0.2998 -1.2068 -0.1873
 8412SOL    HW226136   4.932   2.213   6.694  1.6024 -0.8550  0.7561
 8413SOL     OW26137   4.609   4.571   5.505  0.0726  0.3860 -0.1736
 8413SOL    HW126138   4.680   4.508   5.535 -0.9954 -1.1113 -0.7019
 8413SOL    HW226139   4.526   4.520   5.482 -0.7341  1.9571 -0.9113
 8414SOL     OW26140   4.068   6.169   3.094  0.6337  0.3137 -0.0688
 8414SOL    HW126141   4.130   6.112   3.148  1.5738  1.5859  0.2502
 8414SOL    HW226142   3.976   6.165   3.132  0.7678 -0.6686  0.1702
 8415SOL     OW26143   0.891   4.266   4.176  0.0270 -0.2611  0.2652
 8415SOL    HW126144   0.984   4.299   4.193 -1.0522  1.8670  2.8847
 8415SOL    HW226145   0.879   4.176   4.216  1.1022 -0.8208 -0.6355
 8416SOL     OW26146   6.902   2.950   1.950  0.7770  0.4397  0.6084
 8416SOL    HW126147   6.911   3.011   1.872 -0.1954 -0.5983 -0.3481
 8416SOL    HW226148   6.981   2.889   1.954  1.2792  1.1080  0.9971
 8417SOL     OW26149   6.447   3.896   4.976  0.0731 -0.2433 -0.6263
 8417SOL    HW126150   6.518   3.944   5.027 -1.2742  0.9973  0.1507
 8417SOL    HW226151   6.361   3.897   5.029 -1.4937  1.4054 -2.9936
 8418SOL     OW26152   0.810   5.334   2.291 -0.2914  0.3117  0.0047
 8418SOL    HW126153   0.879   5.405   2.280 -0.0629  0.2254  0.8255
 8418SOL    HW226154   0.854   5.248   2.320 -0.4456 -0.4432 -1.8712
 8419SOL     OW26155   5.477   0.300   2.413 -0.0697  0.0660 -0.8270
 8419SOL    HW126156   5.406   0.237   2.444 -0.2890  1.1622  1.0869
 8419SOL    HW226157   5.439   0.362   2.344 -0.1727 -1.0769 -1.8368
 8420SOL     OW26158   3.428   1.157   6.834  0.3735 -0.1258  0.0445
 8420SOL    HW126159   3.360   1.086   6.818 -0.0018 -0.0811  1.3186
 8420SOL    HW226160   3.501   1.149   6.766 -0.7003 -0.4085 -1.1085
 8421SOL     OW26161   2.575   5.197   6.455 -0.2845  0.2761 -0.6984
 8421SOL    HW126162   2.503   5.134   6.423 -0.6584  1.1237 -1.5860
 8421SOL    HW226163   2.545   5.291   6.439  0.1216  0.7066  0.9219
 8422SOL     OW26164   3.107   1.148   3.218  0.2965 -0.4413  0.1168
 8422SOL    HW126165   3.069   1.113   3.303 -1.4914  1.2599  0.0811
 8422SOL    HW226166   3.140   1.241   3.231  0.2239 -0.2440 -0.9952
 8423SOL     OW26167   3.866   4.451   0.194 -0.8247  0.8471 -0.3844
 8423SOL    HW126168   3.797   4.465   0.265 -0.5975  3.0459 -0.5301
 8423SOL    HW226169   3.949   4.412   0.235 -1.0828  1.0567  0.3551
 8424SOL     OW26170   2.035   1.652   2.512  0.3372 -0.3345 -0.8663
 8424SOL    HW126171   1.941   1.668   2.542  0.9736  2.1144  0.0523
 8424SOL    HW226172   2.097   1.662   2.590  1.4300 -1.1856 -1.5958
 8425SOL     OW26173   4.877   3.044   6.385 -0.4164 -0.0563 -0.3745
 8425SOL    HW126174   4.964   3.091   6.394 -0.4115 -0.3704  1.5376
 8425SOL    HW226175   4.884   2.975   6.312  0.9227 -0.0734 -0.2512
 8426SOL     OW26176   3.895   3.485   2.668  0.1087 -0.4105  0.1066
 8426SOL    HW126177   3.868   3.404   2.721 -0.6217  0.0590  0.4682
 8426SOL    HW226178   3.866   3.474   2.573  2.0144 -1.5505 -0.3825
 8427SOL     OW26179   3.327   4.146   4.183  0.2230 -0.0290 -0.3211
 8427SOL    HW126180   3.289   4.227   4.137 -0.2700 -0.2597 -0.3287
 8427SOL    HW226181   3.425   4.142   4.167  0.6185  1.6346  1.2705
 8428SOL     OW26182   2.560   5.352   0.069  0.0254 -0.0555 -0.5799
 8428SOL    HW126183   2.532   5.341  -0.026  0.3792  1.0343 -0.8263
 8428SOL    HW226184   2.649   5.309   0.083  0.3461  0.4708 -0.9545
 8429SOL     OW26185   1.137   5.023   0.018 -0.4493 -0.1484 -0.0518
 8429SOL    HW126186   1.098   5.013   0.110 -0.7843 -1.4355 -0.3065
 8429SOL    HW226187   1.064   5.014  -0.050  0.0312 -0.9265 -0.4840
 8430SOL     OW26188   4.356   5.259   4.195 -0.1973 -0.0205  0.0841
 8430SOL    HW126189   4.445   5.224   4.165 -1.2379 -2.7140 -0.0982
 8430SOL    HW226190   4.367   5.302   4.285  1.6531  1.9048 -0.9437
 8431SOL     OW26191   2.969   5.773   0.239 -0.0549 -0.3223  0.7318
 8431SOL    HW126192   2.991   5.866   0.269  1.9905 -1.1560  2.0966
 8431SOL    HW226193   3.017   5.753   0.154 -2.5766  0.6635 -1.0328
 8432SOL     OW26194   6.291   5.348   5.006 -0.5953  0.4018  0.0989
 8432SOL    HW126195   6.267   5.316   4.915  1.4190  0.0735 -0.3582
 8432SOL    HW226196   6.248   5.289   5.075 -2.0106  0.5691 -0.5977
 8433SOL     OW26197   4.845   4.709   1.038 -0.5061  0.3164  0.6150
 8433SOL    HW126198   4.945   4.708   1.043 -0.3726  2.1742 -0.8188
 8433SOL    HW226199   4.808   4.659   1.116  1.5322 -0.6268  1.0413
 8434SOL     OW26200   4.543   2.581   4.043 -0.1528 -0.4509  0.6009
 8434SOL    HW126201   4.498   2.668   4.025  1.5974  0.8478  2.1331
 8434SOL    HW226202   4.581   2.581   4.135 -0.6304 -3.1194  0.8850
 8435SOL     OW26203   4.520   6.721   2.985  0.6925 -0.3339 -0.0935
 8435SOL    HW126204   4.550   6.811   3.015 -0.5098 -0.1009  0.4567
 8435SOL    HW226205   4.588   6.683   2.921  1.4870  0.7019  0.1067
 8436SOL     OW26206   4.090   0.485   3.418  0.0566  0.0465  0.0280
 8436SOL    HW126207   4.016   0.492   3.485 -1.9328 -1.4550 -1.8887
 8436SOL    HW226208   4.124   0.577   3.396 -1.5294  0.8153  0.6238
 8437SOL     OW26209   1.520   0.252   4.171 -0.1701  0.1170  0.2660
 8437SOL    HW126210   1.542   0.171   4.116 -1.3737 -0.1247  0.0928
 8437SOL    HW226211   1.563   0.332   4.131  0.5505 -0.3516  0.0890
 8438SOL     OW26212   0.958   4.067   5.215 -0.4473 -0.2058  0.0518
 8438SOL    HW126213   0.991   4.075   5.121 -0.6109  2.3952  0.1434
 8438SOL    HW226214   1.000   4.138   5.271  0.4369 -2.3265  2.2468
 8439SOL     OW26215   4.857   3.865   2.560 -1.2197 -0.2449  0.2928
 8439SOL    HW126216   4.841   3.798   2.488 -1.7898 -0.1331  0.3095
 8439SOL    HW226217   4.837   3.957   2.526  0.4274  0.0242 -0.0040
 8440SOL     OW26218   2.268   2.313   2.140 -0.1018  0.4192  0.1346
 8440SOL    HW126219   2.310   2.398   2.109  1.8122 -1.2146 -2.1514
 8440SOL    HW226220   2.313   2.282   2.224 -0.0944  1.1236  0.3929
 8441SOL     OW26221   4.594   0.227   0.094  0.4442 -0.2435 -0.3961
 8441SOL    HW126222   4.671   0.173   0.129  1.7567  0.9139 -1.3781
 8441SOL    HW226223   4.593   0.316   0.138 -1.1913 -0.7047  0.5835
 8442SOL     OW26224   4.394   2.528   5.354  0.0100  0.3846  0.5125
 8442SOL    HW126225   4.309   2.577   5.336  0.2241  0.1685 -1.2563
 8442SOL    HW226226   4.463   2.593   5.387 -0.8496  0.5334  2.1118
 8443SOL     OW26227   0.968   4.603   4.498 -0.3504 -0.0286  0.1128
 8443SOL    HW126228   0.999   4.697   4.483 -0.5029 -0.0583 -0.4191
 8443SOL    HW226229   1.048   4.544   4.510 -0.2408  0.1033  0.0439
 8444SOL     OW26230   1.869   6.413   3.625 -0.1792  0.0213  0.3165
 8444SOL    HW126231   1.953   6.375   3.664 -0.1025  0.5863  0.7122
 8444SOL    HW226232   1.877   6.416   3.525  0.1640 -0.1670  0.3360
 8445SOL     OW26233   4.241   1.803   0.921 -0.0306  0.5502  0.1108
 8445SOL    HW126234   4.311   1.733   0.916 -0.8881 -0.2479 -2.7049
 8445SOL    HW226235   4.253   1.857   1.004  1.1235 -2.3836  2.0004
 8446SOL     OW26236   5.984   6.585   6.244 -0.2311  0.1684 -0.0910
 8446SOL    HW126237   5.961   6.524   6.320  0.8551 -0.3254 -0.1443
 8446SOL    HW226238   6.002   6.531   6.162  0.0800  0.5966 -0.3112
 8447SOL     OW26239   4.903   0.508   0.520 -0.1584 -0.2604  0.0705
 8447SOL    HW126240   4.858   0.459   0.595 -0.2401 -0.8164 -0.3307
 8447SOL    HW226241   4.870   0.602   0.516 -1.4247 -0.6997 -0.3157
 8448SOL     OW26242   4.288   4.853   3.628 -0.4682 -0.0296  0.3360
 8448SOL    HW126243   4.195   4.857   3.591 -0.3547  0.2279  0.0703
 8448SOL    HW226244   4.292   4.905   3.713 -0.1341  1.5778 -0.6247
 8449SOL     OW26245   0.555   2.984   3.854 -0.4089  0.9026  0.2336
 8449SOL    HW126246   0.552   3.058   3.786 -0.7984 -0.2120 -1.0060
 8449SOL    HW226247   0.474   2.927   3.843  0.9615 -1.0208 -0.3678
 8450SOL     OW26248   0.975   0.456   2.240 -0.3276  0.3740 -0.2783
 8450SOL    HW126249   0.940   0.549   2.252 -1.8500 -0.3168  1.0080
 8450SOL    HW226250   0.901   0.396   2.209 -0.4010 -1.1343  2.4512
 8451SOL     OW26251   4.808   0.871   6.614  0.8430  0.5144 -0.4142
 8451SOL    HW126252   4.895   0.866   6.565  1.1610  1.1896  0.0665
 8451SOL    HW226253   4.739   0.911   6.554  0.8708  0.0264 -0.7803
 8452SOL     OW26254   0.846   1.673   3.940 -0.0096  1.1093  0.0699
 8452SOL    HW126255   0.764   1.691   3.886 -0.3944  0.2454  0.3578
 8452SOL    HW226256   0.838   1.721   4.028 -1.1556 -0.5830  0.9446
 8453SOL     OW26257   6.111   5.716   0.193  0.0066  0.1341  0.3623
 8453SOL    HW126258   6.051   5.654   0.244  1.6276 -0.6063  1.4360
 8453SOL    HW226259   6.134   5.795   0.250 -2.3983  2.1084 -1.1408
 8454SOL     OW26260   2.193   5.912   2.185  0.0515 -0.0070 -0.3211
 8454SOL    HW126261   2.230   5.911   2.092  1.6509  3.3727  0.1342
 8454SOL    HW226262   2.096   5.889   2.182  0.6399 -2.6536 -2.4103
 8455SOL     OW26263   1.435   1.676   1.501 -0.0973 -0.2394  0.4096
 8455SOL    HW126264   1.469   1.653   1.592 -2.7189 -0.8693  1.3137
 8455SOL    HW226265   1.338   1.698   1.506  0.1275  1.7610 -1.9522
 8456SOL     OW26266   4.366   4.864   3.348  0.2016 -0.0336 -0.3545
 8456SOL    HW126267   4.325   4.852   3.438 -0.3118  1.4024 -0.3706
 8456SOL    HW226268   4.410   4.954   3.344  1.5571 -0.7009 -1.0369
 8457SOL     OW26269   5.266   6.742   3.008 -0.8517  0.0475  0.3712
 8457SOL    HW126270   5.170   6.758   3.029 -0.5294 -0.6321  2.6039
 8457SOL    HW226271   5.314   6.714   3.091  1.4711  1.1712 -0.5209
 8458SOL     OW26272   2.903   0.646   0.252  0.3266 -0.4255 -0.0978
 8458SOL    HW126273   2.954   0.562   0.270 -0.0182 -0.4129  0.9889
 8458SOL    HW226274   2.856   0.675   0.335 -0.4615  0.2389 -0.7618
 8459SOL     OW26275   3.209   4.869   3.352 -0.0862 -0.1151  0.0010
 8459SOL    HW126276   3.173   4.941   3.410  1.1214 -0.0075  0.6652
 8459SOL    HW226277   3.174   4.780   3.382 -0.7888  0.1015 -0.1823
 8460SOL     OW26278   5.190   4.135   4.447 -0.8336 -0.1133 -0.5177
 8460SOL    HW126279   5.165   4.068   4.516 -0.9432 -0.9961 -1.3851
 8460SOL    HW226280   5.130   4.125   4.367  0.3596 -0.2743 -1.4298
 8461SOL     OW26281   1.139   3.371   1.842 -0.4983 -0.3123 -0.0115
 8461SOL    HW126282   1.059   3.424   1.870 -0.0881  1.2223 -1.6164
 8461SOL    HW226283   1.116   3.315   1.763  0.4319  1.5819 -1.7101
 8462SOL     OW26284   1.021   3.108   6.529 -0.1235  0.7073  0.3436
 8462SOL    HW126285   1.077   3.127   6.448 -0.2438  1.4254  0.4248
 8462SOL    HW226286   1.026   3.185   6.592 -1.2446  0.8003  0.3319
 8463SOL     OW26287   6.879   6.692   1.641 -0.5391  0.2796  0.4165
 8463SOL    HW126288   6.853   6.632   1.717  0.1997  1.1535  1.3862
 8463SOL    HW226289   6.805   6.757   1.623 -1.4068 -0.9357 -0.7329
 8464SOL     OW26290   0.006   3.881   4.206 -0.4026 -0.0230 -0.0576
 8464SOL    HW126291  -0.026   3.920   4.119 -1.3392 -1.8431 -0.5802
 8464SOL    HW226292  -0.017   3.944   4.280 -0.1294  1.2929 -1.0343
 8465SOL     OW26293   6.742   4.122   6.436  0.1499  0.2155  0.2924
 8465SOL    HW126294   6.691   4.179   6.371  0.7440  1.1234  0.5997
 8465SOL    HW226295   6.840   4.144   6.430  0.3501 -0.5243  0.6771
 8466SOL     OW26296   2.277   5.672   3.135  0.3168 -0.2023  0.2991
 8466SOL    HW126297   2.307   5.702   3.045  0.4693 -2.1707 -0.3645
 8466SOL    HW226298   2.274   5.750   3.198  0.4834  1.1480 -1.3193
 8467SOL     OW26299   3.275   5.523   1.285 -0.3880 -0.6772 -0.0964
 8467SOL    HW126300   3.221   5.440   1.300  1.2966 -1.9829 -0.9778
 8467SOL    HW226301   3.285   5.572   1.372 -0.0311 -2.2686  0.7977
 8468SOL     OW26302   5.022   1.902   1.884  0.1223  0.0433 -0.0128
 8468SOL    HW126303   4.944   1.840   1.886 -1.0336  1.4028 -1.1473
 8468SOL    HW226304   5.099   1.859   1.931 -1.4214 -1.1410  1.6053
 8469SOL     OW26305   5.647   4.372   0.099 -0.0568 -0.1387  0.3103
 8469SOL    HW126306   5.622   4.387   0.003 -1.1794  0.1701  0.6384
 8469SOL    HW226307   5.569   4.393   0.158  0.0309 -2.0186  1.1719
 8470SOL     OW26308   2.069   2.964   0.332 -0.1865  0.5111 -0.0694
 8470SOL    HW126309   1.980   2.938   0.293 -0.5271 -0.0080  0.9989
 8470SOL    HW226310   2.058   3.048   0.384 -0.1586  0.2184  0.4166
 8471SOL     OW26311   4.782   6.783   2.481  0.1113  0.8158 -0.2071
 8471SOL    HW126312   4.696   6.808   2.527 -0.6772 -0.9534 -0.6416
 8471SOL    HW226313   4.844   6.861   2.482 -0.9728  1.7158  1.3386
 8472SOL     OW26314   0.999   0.929   3.815 -0.7204  0.1326  0.4331
 8472SOL    HW126315   0.930   0.916   3.743 -0.3712 -1.1028  0.3000
 8472SOL    HW226316   0.965   0.890   3.901 -0.0570 -0.8220  0.2789
 8473SOL     OW26317   6.187   6.342   0.872 -0.4653 -0.1570 -0.1960
 8473SOL    HW126318   6.169   6.426   0.822  0.4381  0.7541  0.9772
 8473SOL    HW226319   6.218   6.363   0.965  0.3416 -1.7626 -0.0583
 8474SOL     OW26320   3.431   2.889   2.397  0.5499  0.4128  0.0173
 8474SOL    HW126321   3.433   2.826   2.474  0.7405 -0.3680 -0.6073
 8474SOL    HW226322   3.523   2.895   2.358 -0.0418 -1.3304 -1.8103
 8475SOL     OW26323   1.784   1.433   1.902  0.4788  1.0870 -0.1651
 8475SOL    HW126324   1.791   1.370   1.824 -1.3134  1.9411 -1.0735
 8475SOL    HW226325   1.876   1.454   1.936  1.2937  0.5188 -1.9039
 8476SOL     OW26326   6.891   5.344   1.697  0.0887  0.3700 -0.3786
 8476SOL    HW126327   6.941   5.263   1.728 -1.7144 -0.1060  1.5140
 8476SOL    HW226328   6.941   5.427   1.723 -0.3391 -0.0795  2.0883
 8477SOL     OW26329   4.349   0.437   0.980  0.0798 -0.3403  0.6279
 8477SOL    HW126330   4.415   0.385   0.926 -0.1425 -0.4997  0.5050
 8477SOL    HW226331   4.266   0.382   0.993  0.1171 -0.2864  1.1003
 8478SOL     OW26332   1.312   6.736   5.721  0.0468 -0.0337  0.6848
 8478SOL    HW126333   1.349   6.817   5.675 -2.1742  0.6945  0.0571
 8478SOL    HW226334   1.237   6.763   5.781 -1.7572 -1.7448 -0.6730
 8479SOL     OW26335   5.838   2.682   0.309  0.6334 -0.1233  0.0104
 8479SOL    HW126336   5.778   2.679   0.229 -0.9407  1.7979  1.0220
 8479SOL    HW226337   5.928   2.716   0.282 -0.0730  1.1564 -0.8744
 8480SOL     OW26338   4.470   0.365   6.425 -0.5242 -0.1378 -0.5190
 8480SOL    HW126339   4.454   0.464   6.425 -0.7303 -0.1583 -1.5306
 8480SOL    HW226340   4.511   0.338   6.511 -0.5565  0.8199 -0.1904
 8481SOL     OW26341   3.724   2.101   2.216 -0.2391  0.3800 -0.5013
 8481SOL    HW126342   3.728   2.152   2.130  1.0268  1.2373  0.0453
 8481SOL    HW226343   3.800   2.128   2.275  0.1547 -1.7333  0.0504
 8482SOL     OW26344   2.395   5.572   4.209 -0.9625 -0.1231 -0.1194
 8482SOL    HW126345   2.345   5.630   4.273 -0.7900  0.7724 -0.7869
 8482SOL    HW226346   2.349   5.571   4.121  0.0401  0.5018 -0.6658
 8483SOL     OW26347   4.325   4.585   1.380 -0.6842  0.4387  1.0276
 8483SOL    HW126348   4.326   4.677   1.340 -1.9083  0.3212  0.6967
 8483SOL    HW226349   4.401   4.576   1.445  0.1989  1.2568  0.1316
 8484SOL     OW26350   0.353   5.664   3.364 -0.4739 -0.3804  0.6055
 8484SOL    HW126351   0.262   5.703   3.347 -0.2390 -0.5354 -1.1656
 8484SOL    HW226352   0.420   5.708   3.305  0.5033 -0.7526  1.4005
 8485SOL     OW26353   2.864   2.942   6.668  0.4375  0.7235 -0.0988
 8485SOL    HW126354   2.794   2.918   6.600  0.6939  0.6497 -0.3350
 8485SOL    HW226355   2.821   2.994   6.742  0.0823  0.4628 -0.1183
 8486SOL     OW26356   6.016   1.666   3.965  0.0354  0.0022 -0.0368
 8486SOL    HW126357   5.961   1.721   4.027  0.8246 -1.8192  2.4297
 8486SOL    HW226358   6.084   1.724   3.919 -0.6215  1.4174  0.7315
 8487SOL     OW26359   6.599   2.370   0.823  0.3646  0.1938 -0.2826
 8487SOL    HW126360   6.502   2.388   0.806  0.2928 -0.4939 -0.6278
 8487SOL    HW226361   6.653   2.406   0.747  0.3779  0.5192 -0.1213
 8488SOL     OW26362   5.652   4.314   4.521 -0.2445 -0.0147  0.1283
 8488SOL    HW126363   5.745   4.287   4.544 -0.5651 -2.1575 -0.8052
 8488SOL    HW226364   5.596   4.316   4.604  0.4324  0.4462  0.5800
 8489SOL     OW26365   4.698   5.888   2.854 -0.1554  0.1093  0.4632
 8489SOL    HW126366   4.789   5.909   2.819 -1.0180  1.1964 -1.2861
 8489SOL    HW226367   4.705   5.859   2.950  1.8323  2.4267  1.1404
 8490SOL     OW26368   3.206   6.470   3.766  0.4866  0.1566 -0.0587
 8490SOL    HW126369   3.136   6.541   3.760  2.0235  1.6586 -1.2078
 8490SOL    HW226370   3.188   6.413   3.846 -2.1353  0.3360 -0.4247
 8491SOL     OW26371   1.581   5.665   2.875 -0.0300  0.1187 -0.3123
 8491SOL    HW126372   1.590   5.566   2.879  0.3796  0.1605 -0.1608
 8491SOL    HW226373   1.524   5.696   2.950  0.9228  0.1178  0.4315
 8492SOL     OW26374   3.514   5.801   0.663 -0.3099  0.3866 -0.1209
 8492SOL    HW126375   3.611   5.815   0.683 -0.8277  1.2011  2.0456
 8492SOL    HW226376   3.494   5.703   0.665  0.3392  0.2531  0.1167
 8493SOL     OW26377   2.779   2.550   0.664 -0.3722  0.3498  0.7214
 8493SOL    HW126378   2.846   2.565   0.590  1.9972 -0.1874  2.6138
 8493SOL    HW226379   2.746   2.638   0.697 -0.1526  0.6554  0.1490
 8494SOL     OW26380   2.450   0.193   1.570 -0.3463 -0.1402 -0.4456
 8494SOL    HW126381   2.512   0.126   1.530 -0.2479 -0.9533  0.9960
 8494SOL    HW226382   2.486   0.222   1.659 -1.5543  0.0797 -0.0100
 8495SOL     OW26383   6.270   4.063   6.700 -0.3568  0.0689 -0.2674
 8495SOL    HW126384   6.247   4.106   6.613 -0.1899  3.5594  1.2274
 8495SOL    HW226385   6.368   4.043   6.702 -0.1605  0.9360 -0.5484
 8496SOL     OW26386   1.227   1.841   0.645  0.1816 -0.4779 -0.6864
 8496SOL    HW126387   1.242   1.748   0.680  1.8737 -0.2297 -0.6412
 8496SOL    HW226388   1.314   1.877   0.610 -0.5249  0.9639 -1.0055
 8497SOL     OW26389   1.774   6.772   3.778 -0.3273 -0.8433  0.2258
 8497SOL    HW126390   1.864   6.732   3.788 -0.2514 -0.6299  0.4006
 8497SOL    HW226391   1.782   6.862   3.735 -0.5774 -1.4177 -1.0829
 8498SOL     OW26392   7.010   4.861   1.780  0.0494 -0.3795  0.2378
 8498SOL    HW126393   7.085   4.822   1.833  1.7753  3.6059  1.1151
 8498SOL    HW226394   6.937   4.890   1.842 -0.4508 -0.6898 -0.1965
 8499SOL     OW26395   2.776   4.629   5.390  0.7070 -0.0076  0.8141
 8499SOL    HW126396   2.833   4.589   5.318 -0.2169  0.2618 -0.0923
 8499SOL    HW226397   2.832   4.690   5.446  1.4874 -0.3743  0.4524
 8500SOL     OW26398   2.421   0.076   6.765 -0.1538 -0.4089  0.3602
 8500SOL    HW126399   2.336   0.047   6.809 -0.8053 -0.5178 -0.9254
 8500SOL    HW226400   2.400   0.123   6.679  1.1051 -0.7111 -0.1342
 8501SOL     OW26401   0.478   1.689   0.820 -0.0506 -0.4587 -0.3516
 8501SOL    HW126402   0.470   1.692   0.720  2.2852 -0.5988 -0.6084
 8501SOL    HW226403   0.485   1.783   0.854  3.2425 -0.4093 -0.8410
 8502SOL     OW26404   1.499   4.765   1.462  0.7180  0.0039 -0.1927
 8502SOL    HW126405   1.492   4.713   1.378 -1.4271  0.4095 -0.3313
 8502SOL    HW226406   1.410   4.768   1.507  1.3385  1.4958  1.0550
 8503SOL     OW26407   5.200   0.781   2.466 -0.3210 -0.0509  0.0849
 8503SOL    HW126408   5.263   0.830   2.406 -0.3407 -0.3094 -0.1501
 8503SOL    HW226409   5.252   0.728   2.532 -0.3014  0.4576  0.4803
 8504SOL     OW26410   1.304   4.182   4.830 -0.0185  0.7476  1.4090
 8504SOL    HW126411   1.366   4.236   4.772 -0.7603  0.5610  0.4267
 8504SOL    HW226412   1.213   4.222   4.827 -1.1268 -1.6898 -1.0287
 8505SOL     OW26413   4.741   4.265   3.211  0.1056  0.2660  0.3728
 8505SOL    HW126414   4.802   4.254   3.132  0.9347  1.3892  0.8344
 8505SOL    HW226415   4.728   4.177   3.255  0.7670 -0.1264 -0.1926
 8506SOL     OW26416   7.000   0.451   0.616  0.0824 -0.0493  0.5361
 8506SOL    HW126417   6.988   0.463   0.714  0.6980 -1.2827  0.7923
 8506SOL    HW226418   7.094   0.475   0.590 -0.6618  2.3878 -0.1627
 8507SOL     OW26419   2.504   0.973   4.621 -0.2145  0.4080  0.3098
 8507SOL    HW126420   2.435   0.973   4.694  0.4270  0.2270  0.9324
 8507SOL    HW226421   2.587   1.018   4.654 -0.3917  1.5830 -0.7995
 8508SOL     OW26422   6.613   4.444   5.599  0.2778  0.5712  0.2253
 8508SOL    HW126423   6.690   4.456   5.661  0.7375 -0.1464 -0.1917
 8508SOL    HW226424   6.556   4.526   5.600  0.6701  0.8406  1.0500
 8509SOL     OW26425   4.188   1.053   3.823  0.6098 -0.0506  0.4088
 8509SOL    HW126426   4.146   0.989   3.759  1.0300  0.5559 -0.4925
 8509SOL    HW226427   4.205   1.140   3.777  2.7871 -0.2477  0.7273
 8510SOL     OW26428   5.092   6.819   2.631 -0.9951  0.1377 -0.0841
 8510SOL    HW126429   5.150   6.862   2.701 -1.6423  2.1275 -0.7046
 8510SOL    HW226430   5.134   6.733   2.602  0.3527  0.2947  1.2500
 8511SOL     OW26431   6.685   5.299   0.347 -0.4320 -0.1184  0.2613
 8511SOL    HW126432   6.656   5.322   0.254 -0.3289  3.0599  0.8921
 8511SOL    HW226433   6.637   5.218   0.379 -1.2748 -0.6315 -2.1521
 8512SOL     OW26434   4.273   2.827   1.244 -0.4839 -0.4524 -0.0728
 8512SOL    HW126435   4.321   2.774   1.174 -1.1130 -1.9592  0.5942
 8512SOL    HW226436   4.180   2.846   1.213 -0.1889  0.5107 -0.4108
 8513SOL     OW26437   4.410   3.448   1.687  0.4378 -0.8172  0.0233
 8513SOL    HW126438   4.347   3.436   1.764  1.0980 -2.0144  0.3923
 8513SOL    HW226439   4.452   3.360   1.663  1.8734 -0.0729 -0.2990
 8514SOL     OW26440   2.657   2.191   3.206 -0.5758  0.1388  0.6127
 8514SOL    HW126441   2.683   2.196   3.302 -2.5058  0.8463  1.1419
 8514SOL    HW226442   2.715   2.252   3.152  1.7865 -1.6696  0.9778
 8515SOL     OW26443   5.982   1.245   5.201  0.0490  0.0799  0.2106
 8515SOL    HW126444   6.013   1.337   5.179 -3.8020  2.1018  2.2639
 8515SOL    HW226445   5.938   1.205   5.121  0.9541  0.3547 -0.4393
 8516SOL     OW26446   0.803   2.472   1.222 -0.0798  0.3252  0.2542
 8516SOL    HW126447   0.774   2.551   1.168 -2.1758 -1.0093 -0.7480
 8516SOL    HW226448   0.899   2.452   1.203 -0.6193  0.1239 -2.8107
 8517SOL     OW26449   0.560   1.278   6.622  0.9294 -0.2328 -0.5272
 8517SOL    HW126450   0.594   1.360   6.574  1.0635  0.1156  0.1554
 8517SOL    HW226451   0.561   1.294   6.720 -1.6638 -0.0611 -0.4862
 8518SOL     OW26452   4.011   5.730   6.524  0.0957 -0.1695 -0.5597
 8518SOL    HW126453   4.068   5.783   6.587 -2.0951 -0.3319  1.7260
 8518SOL    HW226454   3.964   5.792   6.462 -0.5842  0.3907  0.4829
 8519SOL     OW26455   1.054   3.668   2.599  0.0102 -0.1340  0.4148
 8519SOL    HW126456   1.135   3.683   2.542  0.0083 -0.9850  0.1878
 8519SOL    HW226457   0.994   3.601   2.556 -1.0992  0.8738  0.3020
 8520SOL     OW26458   4.084   4.654   0.400  0.1705 -0.3326  0.1316
 8520SOL    HW126459   4.135   4.570   0.379  0.8207  0.0562  0.1441
 8520SOL    HW226460   4.010   4.632   0.464  0.7875 -0.7722  0.7117
 8521SOL     OW26461   2.856   4.306   6.623 -0.4090  0.2749 -0.1993
 8521SOL    HW126462   2.881   4.357   6.540  2.4729  2.0260  1.5884
 8521SOL    HW226463   2.935   4.256   6.657 -1.7039 -0.9393  1.1676
 8522SOL     OW26464   1.872   6.753   0.593 -0.1352  0.4817  0.2435
 8522SOL    HW126465   1.950   6.810   0.566  1.1215 -2.2787 -2.5203
 8522SOL    HW226466   1.883   6.725   0.688  1.0916  1.8612  0.5408
 8523SOL     OW26467   3.128   0.501   0.277  0.0668 -0.4634  0.4038
 8523SOL    HW126468   3.124   0.406   0.309 -0.1822 -0.6313 -0.1176
 8523SOL    HW226469   3.218   0.519   0.237 -0.3753 -0.9309 -0.8509
 8524SOL     OW26470   5.993   2.891   5.229  0.0393 -0.8043  0.1188
 8524SOL    HW126471   5.934   2.860   5.303 -0.2294  0.1592  0.3245
 8524SOL    HW226472   6.078   2.928   5.268 -0.2984  0.1343 -0.0077
 8525SOL     OW26473   0.760   3.117   1.426 -0.2640 -0.0681 -0.2557
 8525SOL    HW126474   0.736   3.186   1.358  0.1726  0.3075 -0.0394
 8525SOL    HW226475   0.694   3.042   1.423 -0.9002  0.4858 -0.3133
 8526SOL     OW26476   4.067   6.838   2.496 -0.1535  0.1838 -0.2009
 8526SOL    HW126477   3.977   6.876   2.518  0.3308  0.3864  1.6262
 8526SOL    HW226478   4.090   6.859   2.401 -2.7469 -1.3586 -1.2733
 8527SOL     OW26479   2.370   1.009   6.225 -0.3376 -0.3213 -0.0190
 8527SOL    HW126480   2.444   1.076   6.233  1.3636 -1.9931 -0.8392
 8527SOL    HW226481   2.369   0.951   6.306 -0.3257 -0.7187 -0.3031
 8528SOL     OW26482   2.381   0.173   6.511 -0.0261 -0.2259 -0.4422
 8528SOL    HW126483   2.326   0.257   6.508  0.9819  0.4847  0.4766
 8528SOL    HW226484   2.335   0.102   6.458 -0.9004  0.9020 -1.2479
 8529SOL     OW26485   0.897   6.924   0.031  0.7574  0.0653  0.1085
 8529SOL    HW126486   0.948   6.853   0.080 -0.6959 -0.8004  0.4434
 8529SOL    HW226487   0.837   6.882  -0.037 -1.4501  0.7418  1.4984
 8530SOL     OW26488   3.185   5.289   6.300  0.5943 -0.0085  0.0595
 8530SOL    HW126489   3.245   5.368   6.286  2.1024 -0.6980  2.1167
 8530SOL    HW226490   3.189   5.261   6.396 -0.1707 -2.3664 -0.5313
 8531SOL     OW26491   4.999   6.252   3.141 -0.1005 -0.0162 -0.2044
 8531SOL    HW126492   5.057   6.292   3.070  1.0214  0.5136  0.9623
 8531SOL    HW226493   5.012   6.303   3.226 -2.9346  0.6671 -0.0942
 8532SOL     OW26494   5.012   6.451   4.813  0.2535  0.3480  0.0257
 8532SOL    HW126495   4.914   6.451   4.833  0.4765  1.5284  1.2030
 8532SOL    HW226496   5.050   6.360   4.834 -0.3008  0.3515  1.0948
 8533SOL     OW26497   0.807   5.064   4.995  0.2573 -0.5670 -0.0397
 8533SOL    HW126498   0.825   5.163   4.998  1.7769 -0.8021 -0.4142
 8533SOL    HW226499   0.724   5.044   5.047  0.9524  0.6809  1.6794
 8534SOL     OW26500   6.714   2.896   2.564  0.0029 -0.1145 -0.6159
 8534SOL    HW126501   6.713   2.905   2.664 -2.5078 -0.6383 -0.5345
 8534SOL    HW226502   6.744   2.982   2.523  1.6230 -0.0715  0.5588
 8535SOL     OW26503   6.754   1.646   4.339 -0.1600 -0.8560  0.0489
 8535SOL    HW126504   6.827   1.644   4.406  2.3235 -1.9538 -2.4934
 8535SOL    HW226505   6.728   1.741   4.320 -0.0282 -0.4948  1.5507
 8536SOL     OW26506   5.627   3.822   2.869 -0.5912  0.9140  0.3384
 8536SOL    HW126507   5.558   3.784   2.807 -0.0961 -0.8119  0.7951
 8536SOL    HW226508   5.607   3.918   2.886 -0.9131  1.3565 -2.2376
 8537SOL     OW26509   4.334   6.569   4.692  0.1166  0.6904  0.6518
 8537SOL    HW126510   4.313   6.643   4.628  0.5005  0.6967  0.5348
 8537SOL    HW226511   4.367   6.489   4.641 -0.4495  0.3808  0.7618
 8538SOL     OW26512   0.342   1.492   0.583 -0.0457 -0.6198 -0.0482
 8538SOL    HW126513   0.273   1.535   0.641  0.6195  1.9452 -1.0240
 8538SOL    HW226514   0.410   1.447   0.640 -0.0560  0.7943  1.1388
 8539SOL     OW26515   5.794   0.625   2.976 -0.6002  0.0517  0.1784
 8539SOL    HW126516   5.801   0.715   2.933 -1.7363  0.4883  0.8492
 8539SOL    HW226517   5.750   0.634   3.065  0.9360 -0.9397  1.0844
 8540SOL     OW26518   5.279   6.631   0.191  0.8673  0.0038  0.0764
 8540SOL    HW126519   5.240   6.695   0.126  0.8039  0.1321  0.2392
 8540SOL    HW226520   5.214   6.556   0.206  1.5211 -0.8418 -1.1788
 8541SOL     OW26521   1.595   0.442   3.114  0.4588  0.3225 -0.6158
 8541SOL    HW126522   1.556   0.499   3.186  2.5333  1.0753 -0.0341
 8541SOL    HW226523   1.627   0.356   3.153 -0.0900 -0.0607 -0.9920
 8542SOL     OW26524   4.416   5.386   6.318  1.2347 -0.4262 -0.4666
 8542SOL    HW126525   4.340   5.329   6.286  0.7268 -0.1662  0.2421
 8542SOL    HW226526   4.380   5.473   6.352  2.1317  1.0841 -3.1079
 8543SOL     OW26527   3.442   1.988   2.120  0.2767  0.8814 -0.4022
 8543SOL    HW126528   3.519   2.051   2.114 -0.3307  1.6401 -0.5776
 8543SOL    HW226529   3.455   1.912   2.056 -0.3353  2.3932 -2.4395
 8544SOL     OW26530   3.793   5.774   5.514 -0.3431  0.1201 -0.1311
 8544SOL    HW126531   3.820   5.868   5.533  0.0076 -0.0479  0.2373
 8544SOL    HW226532   3.867   5.728   5.464  0.6174 -0.6813  1.8991
 8545SOL     OW26533   5.070   5.256   6.607 -0.1518 -0.4650 -0.0500
 8545SOL    HW126534   5.141   5.256   6.536  0.2182 -0.4075  0.3159
 8545SOL    HW226535   5.103   5.306   6.687 -0.1636 -1.3840  0.5565
 8546SOL     OW26536   6.963   2.600   3.512 -0.4185 -0.0444  0.3781
 8546SOL    HW126537   7.019   2.538   3.457  0.8814  2.0825 -0.8440
 8546SOL    HW226538   6.953   2.562   3.604 -0.1466 -2.2804 -0.4466
 8547SOL     OW26539   0.963   6.908   5.436  0.0104  0.0265 -0.2229
 8547SOL    HW126540   1.001   6.965   5.508 -0.6122 -0.9021  0.8749
 8547SOL    HW226541   1.014   6.822   5.431  0.4150  0.3035 -1.3063
 8548SOL     OW26542   4.455   2.015   1.253  0.3629  0.4069  0.5798
 8548SOL    HW126543   4.436   1.927   1.296 -0.8647  0.3383 -0.0442
 8548SOL    HW226544   4.372   2.070   1.252  0.9048  1.2413  0.2083
 8549SOL     OW26545   2.305   2.467   3.697  0.4912  0.5094 -0.0488
 8549SOL    HW126546   2.333   2.380   3.737  1.1190  1.2351  1.1445
 8549SOL    HW226547   2.226   2.452   3.638  0.0383 -0.7319  0.8258
 8550SOL     OW26548   0.535   5.358   1.192 -0.2508 -0.4091 -0.1112
 8550SOL    HW126549   0.541   5.323   1.099 -0.9584 -1.1963  0.1246
 8550SOL    HW226550   0.608   5.318   1.248 -1.5835 -2.2814  0.3773
 8551SOL     OW26551   4.474   2.857   0.084  0.0213 -0.0159 -0.5535
 8551SOL    HW126552   4.415   2.796   0.138 -1.8768  0.8561 -1.5589
 8551SOL    HW226553   4.465   2.835  -0.013  1.2413  0.2620 -0.7425
 8552SOL     OW26554   1.766   5.687   4.212  0.5436 -0.3270  0.0160
 8552SOL    HW126555   1.820   5.766   4.181 -0.1589  0.4028  0.6267
 8552SOL    HW226556   1.733   5.703   4.305  0.0760 -1.1863  0.0089
 8553SOL     OW26557   5.481   4.605   5.814  0.3764  0.1419  0.0164
 8553SOL    HW126558   5.518   4.698   5.812 -1.2189  0.8156 -0.6685
 8553SOL    HW226559   5.384   4.608   5.788 -0.2717 -1.4690  2.0155
 8554SOL     OW26560   0.022   4.630   6.652  0.1188 -0.7924  0.3665
 8554SOL    HW126561   0.019   4.560   6.724  0.5174 -0.9281  0.2523
 8554SOL    HW226562  -0.065   4.630   6.603 -0.4502 -0.1822  1.3350
 8555SOL     OW26563   1.617   6.233   3.328  0.0702  0.0769  0.1828
 8555SOL    HW126564   1.703   6.268   3.364  0.8570  0.7881 -2.2129
 8555SOL    HW226565   1.546   6.303   3.336 -0.0660 -0.1838  1.3386
 8556SOL     OW26566   0.725   6.005   5.183  0.3531 -0.0412 -0.4543
 8556SOL    HW126567   0.722   6.104   5.188  1.1820  0.1158 -2.4778
 8556SOL    HW226568   0.648   5.971   5.129  0.6276 -0.4192 -0.6183
 8557SOL     OW26569   6.458   2.942   3.175  0.1988 -0.1422 -0.1580
 8557SOL    HW126570   6.514   3.019   3.143  1.2184  0.1361  2.1270
 8557SOL    HW226571   6.472   2.864   3.114  2.7459  0.0753  0.0259
 8558SOL     OW26572   2.165   5.823   4.076 -0.3331  0.0645 -0.6382
 8558SOL    HW126573   2.187   5.787   3.985 -2.1780  0.2897 -1.2173
 8558SOL    HW226574   2.167   5.922   4.074  3.1849  0.1471  0.5571
 8559SOL     OW26575   6.712   6.493   1.532  0.0015  0.2013 -0.4431
 8559SOL    HW126576   6.752   6.410   1.572  0.6626  0.7264 -0.0003
 8559SOL    HW226577   6.774   6.570   1.545  0.3371  0.3621 -2.6624
 8560SOL     OW26578   0.059   5.073   2.022  0.2490 -0.9672 -0.9036
 8560SOL    HW126579   0.136   5.021   1.985 -0.0010 -0.1300 -2.7507
 8560SOL    HW226580   0.075   5.171   2.008 -1.1914 -0.7864 -1.4891
 8561SOL     OW26581   4.121   0.203   1.412 -0.1017  0.7628  0.2255
 8561SOL    HW126582   4.130   0.297   1.378  0.4137  0.7792  0.4079
 8561SOL    HW226583   4.153   0.199   1.507  1.1165  0.1367 -0.1909
 8562SOL     OW26584   5.950   0.560   6.007  0.0660 -0.0070  0.2457
 8562SOL    HW126585   5.891   0.623   6.058 -0.0507  0.0536  0.0371
 8562SOL    HW226586   5.974   0.601   5.919  1.8915  0.7425  1.0522
 8563SOL     OW26587   3.757   4.179   5.910  0.2448  0.2733  0.2731
 8563SOL    HW126588   3.742   4.098   5.968  1.5593  0.8851  1.5361
 8563SOL    HW226589   3.848   4.217   5.929  0.4913  0.8688 -1.7915
 8564SOL     OW26590   2.004   6.840   4.453 -0.0123  0.5108  0.2006
 8564SOL    HW126591   1.953   6.798   4.528  1.1220  0.2180  0.8318
 8564SOL    HW226592   2.099   6.853   4.481  0.7215 -0.6325 -1.5585
 8565SOL     OW26593   3.918   0.219   1.092 -0.0401  0.2797  0.6361
 8565SOL    HW126594   3.954   0.312   1.096  0.3491  0.1968 -0.4206
 8565SOL    HW226595   3.818   0.222   1.103 -0.0860  0.8808  0.1721
 8566SOL     OW26596   0.877   0.750   1.553  0.0514  0.0512  0.0499
 8566SOL    HW126597   0.951   0.807   1.587  1.4508  0.0206 -2.6422
 8566SOL    HW226598   0.795   0.805   1.541  1.1030  1.3710 -1.5964
 8567SOL     OW26599   0.727   2.788   3.221  1.0895 -0.4774 -0.7816
 8567SOL    HW126600   0.728   2.773   3.320  3.9878 -2.4993 -0.9989
 8567SOL    HW226601   0.656   2.731   3.179 -1.5316  1.8567  0.1795
 8568SOL     OW26602   0.863   1.057   6.405  0.2451 -0.2236 -0.0310
 8568SOL    HW126603   0.959   1.032   6.410  0.4546  0.8058  2.2037
 8568SOL    HW226604   0.854   1.144   6.357  0.2600 -0.9169 -1.3402
 8569SOL     OW26605   0.599   1.750   3.857 -0.0947 -0.5750  0.2913
 8569SOL    HW126606   0.559   1.759   3.766  0.0471 -0.2382  0.2620
 8569SOL    HW226607   0.568   1.825   3.915 -0.6067 -1.0776  0.6815
 8570SOL     OW26608   1.248   0.147   5.136 -0.2039  0.9414  0.4049
 8570SOL    HW126609   1.168   0.191   5.176 -0.6570  2.6430 -2.1539
 8570SOL    HW226610   1.331   0.182   5.180 -0.7424  1.0557  1.3589
 8571SOL     OW26611   1.595   5.205   0.259  0.3670  0.0130  0.5942
 8571SOL    HW126612   1.512   5.200   0.204  1.0423 -1.0134 -0.3992
 8571SOL    HW226613   1.649   5.122   0.245  2.0746  1.0948  0.3573
 8572SOL     OW26614   2.701   6.908   0.565  0.1670 -0.2391 -0.0020
 8572SOL    HW126615   2.776   6.862   0.518  0.0595  1.5466 -2.0919
 8572SOL    HW226616   2.736   6.957   0.645  0.6644 -1.8670  0.8100
 8573SOL     OW26617   2.140   7.019   0.201  0.6392  0.0559 -0.2618
 8573SOL    HW126618   2.153   6.927   0.236 -0.0736  0.1696  0.3445
 8573SOL    HW226619   2.181   7.085   0.264 -3.0191  0.4599  2.0162
 8574SOL     OW26620   0.467   0.211   6.701  0.1145 -0.8186 -0.2561
 8574SOL    HW126621   0.484   0.207   6.602  2.5059 -2.2801  0.1410
 8574SOL    HW226622   0.537   0.267   6.745 -1.4335  0.5516  0.5699
 8575SOL     OW26623   4.031   1.038   5.072  0.4693 -0.1330 -0.2802
 8575SOL    HW126624   4.091   1.118   5.072  1.8468 -1.1254  0.2406
 8575SOL    HW226625   4.045   0.985   5.156 -0.7406 -0.6980 -0.4048
 8576SOL     OW26626   0.655   6.224   1.439  0.4707 -0.7080  0.4503
 8576SOL    HW126627   0.752   6.210   1.459  0.4874  0.6337  1.4828
 8576SOL    HW226628   0.642   6.315   1.400 -0.2599 -1.2857 -0.7052
 8577SOL     OW26629   5.979   5.419   3.662 -0.0826 -0.9378 -0.0576
 8577SOL    HW126630   5.906   5.487   3.666 -1.1775 -2.0785  0.0017
 8577SOL    HW226631   6.046   5.446   3.593 -2.7966 -1.9465 -3.3484
 8578SOL     OW26632   5.416   0.144   4.362 -0.3192  1.0330 -0.0870
 8578SOL    HW126633   5.338   0.173   4.306  0.6120  0.3251 -1.8195
 8578SOL    HW226634   5.398   0.053   4.400 -0.2160  0.7392 -0.7359
 8579SOL     OW26635   0.726   6.295   3.748 -0.0222  0.1290 -0.1686
 8579SOL    HW126636   0.773   6.360   3.689  0.3519  0.1996  0.2031
 8579SOL    HW226637   0.755   6.202   3.725  0.9026  0.2161  0.5687
 8580SOL     OW26638   0.768   0.273   3.230  0.1668  0.1988  0.5719
 8580SOL    HW126639   0.690   0.231   3.277 -0.4046  0.4994 -0.0818
 8580SOL    HW226640   0.845   0.209   3.229  0.5013  0.4921  2.6362
 8581SOL     OW26641   3.943   3.853   1.388  0.0850 -0.3470  0.3245
 8581SOL    HW126642   3.852   3.880   1.417 -0.5454 -2.0556  0.0719
 8581SOL    HW226643   3.991   3.809   1.464 -0.4452 -2.1061 -0.3012
 8582SOL     OW26644   4.952   4.384   1.820  0.1737 -0.0162  0.2577
 8582SOL    HW126645   4.934   4.480   1.798 -0.4677 -0.4932 -1.4130
 8582SOL    HW226646   4.999   4.341   1.743  1.1440 -0.8654  1.3056
 8583SOL     OW26647   6.146   0.299   4.088  0.6262  0.2629  0.1042
 8583SOL    HW126648   6.172   0.394   4.071  0.5842  0.2296 -0.1516
 8583SOL    HW226649   6.073   0.296   4.156  0.6967  0.4085  0.1860
 8584SOL     OW26650   6.979   4.614   4.648 -0.3969 -0.4222  0.0350
 8584SOL    HW126651   6.961   4.563   4.564 -0.4224  0.6122 -0.5979
 8584SOL    HW226652   6.918   4.580   4.720  1.6047 -3.3420  0.5176
 8585SOL     OW26653   5.839   6.120   6.912  0.5062  0.4247 -0.4708
 8585SOL    HW126654   5.832   6.058   6.991 -1.4303 -0.3554 -1.2079
 8585SOL    HW226655   5.902   6.195   6.935  1.2311 -0.6256  1.2239
 8586SOL     OW26656   2.206   0.107   5.909  0.6864  0.1261  0.5423
 8586SOL    HW126657   2.235   0.166   5.834  2.5039  0.7838  1.7029
 8586SOL    HW226658   2.183   0.017   5.873 -0.3927  0.9721 -1.0254
 8587SOL     OW26659   0.985   5.847   4.047  0.1700  0.1214  0.0534
 8587SOL    HW126660   1.076   5.845   4.087 -0.2649 -1.4348  1.0400
 8587SOL    HW226661   0.965   5.759   4.005 -1.2120  0.1434  0.6197
 8588SOL     OW26662   2.252   0.178   1.336 -0.2005  0.1231  0.2261
 8588SOL    HW126663   2.352   0.179   1.347 -0.3484 -0.3244  1.9565
 8588SOL    HW226664   2.216   0.092   1.370 -1.5198  1.9283  4.0205
 8589SOL     OW26665   4.923   2.698   4.875 -0.4363  0.3490 -0.4011
 8589SOL    HW126666   4.897   2.604   4.899 -1.0513  0.7815  0.7003
 8589SOL    HW226667   5.019   2.700   4.847  0.1502 -0.3217  1.4258
 8590SOL     OW26668   5.785   6.803   4.515 -0.7582 -0.0059  0.2645
 8590SOL    HW126669   5.777   6.750   4.600 -0.9234  1.3678  1.1288
 8590SOL    HW226670   5.812   6.897   4.537  1.8256 -0.2813 -1.3923
 8591SOL     OW26671   0.181   4.728   4.730 -0.2213  0.1384  0.7745
 8591SOL    HW126672   0.264   4.688   4.690 -0.5829 -0.7196  0.8602
 8591SOL    HW226673   0.101   4.676   4.699 -1.4272  3.8485 -3.5055
 8592SOL     OW26674   6.860   4.328   0.280 -0.1888 -0.3080  0.0953
 8592SOL    HW126675   6.951   4.359   0.255 -0.7518  0.5062 -1.0726
 8592SOL    HW226676   6.813   4.399   0.333  0.4023 -1.3727  2.1499
 8593SOL     OW26677   1.335   0.533   1.090 -0.2709 -0.6176  0.2773
 8593SOL    HW126678   1.400   0.512   1.163  0.4597 -0.1494 -0.2251
 8593SOL    HW226679   1.384   0.542   1.003 -1.2209 -1.8973 -0.4099
 8594SOL     OW26680   3.615   2.084   5.739 -0.3614 -0.6385 -0.1606
 8594SOL    HW126681   3.542   2.103   5.804  0.3504  2.1404 -0.0843
 8594SOL    HW226682   3.703   2.090   5.785  0.0461 -1.2449 -0.8445
 8595SOL     OW26683   1.024   6.787   4.451 -0.5060 -0.1786  0.2167
 8595SOL    HW126684   0.958   6.716   4.479 -1.6960  1.4304  1.6995
 8595SOL    HW226685   1.017   6.802   4.353  0.0339 -2.3130 -0.2193
 8596SOL     OW26686   5.733   6.162   2.315  0.9027 -0.2713 -0.4516
 8596SOL    HW126687   5.796   6.234   2.286  0.0490 -0.0188 -1.7655
 8596SOL    HW226688   5.716   6.101   2.238 -1.5571  0.4795 -0.5785
 8597SOL     OW26689   6.141   2.539   0.247  0.0990  0.8795  0.3700
 8597SOL    HW126690   6.234   2.562   0.277  0.8861 -0.5389 -0.8582
 8597SOL    HW226691   6.129   2.568   0.152 -1.3892  2.7217  1.0495
 8598SOL     OW26692   0.558   5.779   0.549  0.6529 -0.2855 -0.1833
 8598SOL    HW126693   0.485   5.713   0.564  0.8549 -0.6738 -0.8808
 8598SOL    HW226694   0.605   5.797   0.636 -1.4361  1.3918  0.7014
 8599SOL     OW26695   1.113   1.200   3.378  0.7600  1.0722 -0.0722
 8599SOL    HW126696   1.111   1.124   3.313 -2.6037  0.9782 -0.0471
 8599SOL    HW226697   1.106   1.286   3.328 -2.3932  0.9780  0.0338
 8600SOL     OW26698   5.173   5.790   6.072  0.3052  0.9720 -0.6949
 8600SOL    HW126699   5.269   5.773   6.095 -0.2023 -0.9321  0.2108
 8600SOL    HW226700   5.133   5.707   6.033 -1.7168  0.7246  1.6855
 8601SOL     OW26701   0.612   0.235   5.334 -0.2332  0.6976 -0.4951
 8601SOL    HW126702   0.651   0.320   5.301  1.7548  0.7122  1.6493
 8601SOL    HW226703   0.643   0.159   5.276  1.4451  0.9554  0.0128
 8602SOL     OW26704   2.836   5.235   4.479 -0.5588 -0.2421  0.1770
 8602SOL    HW126705   2.778   5.313   4.456 -0.2768 -0.0191  0.2228
 8602SOL    HW226706   2.916   5.266   4.529  0.9896 -0.1780 -2.1661
 8603SOL     OW26707   4.343   5.665   6.639 -0.2109  0.0910 -0.0054
 8603SOL    HW126708   4.373   5.665   6.544  2.9262  1.1891  0.8661
 8603SOL    HW226709   4.307   5.755   6.663  2.3367  1.0110  0.6771
 8604SOL     OW26710   0.492   3.675   3.187  0.1251 -0.4279 -0.0533
 8604SOL    HW126711   0.560   3.720   3.130 -0.8293  0.2859 -0.6570
 8604SOL    HW226712   0.502   3.706   3.282  1.0576 -0.8381 -0.0126
 8605SOL     OW26713   4.337   4.953   4.650 -0.1005  0.2783  0.3461
 8605SOL    HW126714   4.286   5.019   4.594  0.6134 -0.7337 -1.5893
 8605SOL    HW226715   4.346   4.867   4.600  1.9539 -0.1590  1.3749
 8606SOL     OW26716   3.707   3.229   6.477 -0.3244 -0.5199  0.1399
 8606SOL    HW126717   3.741   3.226   6.571 -0.1467 -1.2121  0.0643
 8606SOL    HW226718   3.608   3.218   6.477 -0.9647  3.6613  0.5205
 8607SOL     OW26719   3.102   5.290   6.027  0.1192 -0.1818 -0.2769
 8607SOL    HW126720   3.154   5.268   6.110 -0.1064  1.6831  0.4167
 8607SOL    HW226721   3.011   5.249   6.033  0.4728 -0.9620 -0.1106
 8608SOL     OW26722   4.187   0.091   2.101  0.1260  0.1061  0.2268
 8608SOL    HW126723   4.222   0.111   2.010 -0.1391  0.6832  0.2528
 8608SOL    HW226724   4.264   0.079   2.164  0.3387 -1.2023 -0.2500
 8609SOL     OW26725   5.044   0.376   4.113  0.4146  0.1239 -0.3536
 8609SOL    HW126726   5.124   0.322   4.089 -0.2281 -0.1579 -1.9883
 8609SOL    HW226727   4.963   0.337   4.070 -0.3711  1.2554  0.0511
 8610SOL     OW26728   6.769   0.607   2.134  0.4898  0.3568  0.3509
 8610SOL    HW126729   6.827   0.570   2.207 -0.4842  1.2472  1.6126
 8610SOL    HW226730   6.730   0.532   2.081  0.3386 -0.3611  1.4488
 8611SOL     OW26731   2.489   1.275   3.322 -0.0235  0.8922  0.0125
 8611SOL    HW126732   2.467   1.241   3.230 -0.2047  0.3235  0.2595
 8611SOL    HW226733   2.443   1.218   3.390 -0.6203  1.8624  0.4348
 8612SOL     OW26734   3.746   1.713   2.801  0.2013  0.0990 -0.3165
 8612SOL    HW126735   3.668   1.775   2.803  0.6540  0.6542  0.4735
 8612SOL    HW226736   3.831   1.765   2.792  0.5096 -0.4827 -0.8843
 8613SOL     OW26737   3.090   1.262   0.328 -0.7031  0.1736 -0.2118
 8613SOL    HW126738   3.111   1.305   0.416  0.4876 -0.3058 -0.2456
 8613SOL    HW226739   3.115   1.166   0.331 -1.8148 -0.1516 -0.6859
 8614SOL     OW26740   0.947   2.925   1.275  0.1006  0.3225  0.0938
 8614SOL    HW126741   0.860   2.968   1.297  0.4045  0.9754  0.0683
 8614SOL    HW226742   1.011   2.995   1.241  0.4577 -0.2379 -0.4106
 8615SOL     OW26743   6.348   3.008   0.019 -0.3291 -0.0299 -0.3229
 8615SOL    HW126744   6.448   3.005   0.010 -0.2594 -2.0477  0.6965
 8615SOL    HW226745   6.322   2.979   0.111 -1.8383  1.5568 -0.1978
 8616SOL     OW26746   2.817   5.591   2.139 -0.1283  1.2057  0.5140
 8616SOL    HW126747   2.772   5.653   2.075 -1.4139 -1.5047 -1.4137
 8616SOL    HW226748   2.859   5.516   2.088  3.5778  1.6668  2.5261
 8617SOL     OW26749   6.518   0.501   0.149 -0.5306 -0.3837 -0.3152
 8617SOL    HW126750   6.580   0.525   0.223 -1.5916  0.2632  0.3995
 8617SOL    HW226751   6.550   0.541   0.063  0.3877 -0.6437 -0.1033
 8618SOL     OW26752   5.377   0.380   0.353 -0.5518  0.1244 -0.3891
 8618SOL    HW126753   5.318   0.408   0.277 -0.8521 -0.9585 -0.5719
 8618SOL    HW226754   5.461   0.339   0.318 -0.5547 -0.0992 -0.1422
 8619SOL     OW26755   2.408   6.231   0.991 -0.0509 -0.1200  0.5378
 8619SOL    HW126756   2.390   6.148   0.939  2.2794 -0.1411 -0.3640
 8619SOL    HW226757   2.490   6.217   1.047 -0.0208  1.3440  0.8894
 8620SOL     OW26758   6.896   6.832   4.711 -1.0041  0.5213  0.5213
 8620SOL    HW126759   6.886   6.878   4.800 -1.9539 -0.1771  0.7900
 8620SOL    HW226760   6.993   6.829   4.686 -0.7063  0.6065  1.6090
 8621SOL     OW26761   6.993   1.866   2.896 -0.0462  0.1694  0.5722
 8621SOL    HW126762   7.063   1.844   2.827 -0.3424  0.3288  0.2191
 8621SOL    HW226763   6.930   1.789   2.905  1.3828 -0.8695  2.4254
 8622SOL     OW26764   4.437   3.988   1.148  0.0174 -0.0425  0.1119
 8622SOL    HW126765   4.444   3.907   1.206 -0.0615  0.6114  1.0461
 8622SOL    HW226766   4.529   4.015   1.118 -0.0677 -1.4477 -1.6126
 8623SOL     OW26767   1.228   4.956   3.667  0.5321  0.2018 -0.0632
 8623SOL    HW126768   1.222   4.876   3.727 -0.0755 -0.2949 -0.7812
 8623SOL    HW226769   1.287   5.025   3.711 -0.2759  0.0518  1.3240
 8624SOL     OW26770   1.969   2.999   2.892  0.1342  0.2159  0.0408
 8624SOL    HW126771   1.871   3.018   2.900 -0.7100 -1.1707 -4.2351
 8624SOL    HW226772   1.989   2.909   2.930  0.0704  1.0292  2.0849
 8625SOL     OW26773   5.166   6.964   4.654 -0.2665 -0.1008 -0.0181
 8625SOL    HW126774   5.175   6.887   4.717  3.1985  0.3340  0.2214
 8625SOL    HW226775   5.075   7.005   4.665 -1.0839 -2.1932  2.0753
 8626SOL     OW26776   5.062   3.105   5.845  0.3718  0.0451 -0.4567
 8626SOL    HW126777   5.030   3.036   5.780 -0.9230  0.1154  0.0883
 8626SOL    HW226778   5.049   3.196   5.806  1.0473  0.0402 -0.7165
 8627SOL     OW26779   0.224   1.011   2.999 -0.1289 -0.0747  0.6750
 8627SOL    HW126780   0.217   1.051   3.091  3.9174 -2.5557  2.3361
 8627SOL    HW226781   0.208   0.913   3.004  1.3319 -0.4479 -1.0045
 8628SOL     OW26782   6.477   6.851   1.974 -0.2295  0.0495 -0.2572
 8628SOL    HW126783   6.429   6.928   2.017 -1.3013 -1.3138  1.0995
 8628SOL    HW226784   6.507   6.787   2.044 -0.9729 -1.6739 -1.4430
 8629SOL     OW26785   2.254   3.662   6.516  0.1792 -0.8100 -0.3275
 8629SOL    HW126786   2.158   3.634   6.513  0.3162 -1.2056 -1.3662
 8629SOL    HW226787   2.293   3.658   6.425  0.8814  0.4681 -0.1109
 8630SOL     OW26788   4.589   4.469   4.399  0.6676 -0.9069  0.3399
 8630SOL    HW126789   4.626   4.561   4.407 -0.6169 -0.3729  0.3658
 8630SOL    HW226790   4.539   4.445   4.482  0.9100 -1.5937  0.2983
 8631SOL     OW26791   1.829   5.419   6.484 -0.3346 -0.5323 -0.2988
 8631SOL    HW126792   1.803   5.473   6.404  0.4223 -1.0841 -0.9319
 8631SOL    HW226793   1.778   5.451   6.564 -0.8793  0.2244 -0.9355
 8632SOL     OW26794   1.701   6.241   4.737  0.1298 -0.3656 -0.5825
 8632SOL    HW126795   1.774   6.191   4.691  0.7886  0.9822 -1.0466
 8632SOL    HW226796   1.639   6.280   4.669 -0.7968 -1.1275 -0.2028
 8633SOL     OW26797   6.800   2.315   3.774  0.2029 -0.3078  0.4262
 8633SOL    HW126798   6.871   2.252   3.742 -0.6504 -1.4589  0.7120
 8633SOL    HW226799   6.727   2.321   3.706  0.0235 -0.0446  0.6379
 8634SOL     OW26800   5.474   3.656   6.701  0.0584  0.2669  0.1695
 8634SOL    HW126801   5.416   3.703   6.634  0.2699  2.1560  1.2477
 8634SOL    HW226802   5.417   3.600   6.761 -0.3937  0.3284 -0.1966
 8635SOL     OW26803   6.815   5.099   6.173  0.1448 -0.2699  0.3421
 8635SOL    HW126804   6.720   5.096   6.203 -0.6104 -0.8346 -1.9623
 8635SOL    HW226805   6.843   5.194   6.159 -0.2217 -0.1331  0.5426
 8636SOL     OW26806   4.183   6.912   1.425 -0.3758  0.8209  0.0744
 8636SOL    HW126807   4.198   6.846   1.498 -1.8962 -0.8295 -1.0187
 8636SOL    HW226808   4.115   6.979   1.454  0.3939  1.2901  0.8148
 8637SOL     OW26809   3.299   2.365   0.290  0.6528  0.3661  0.1664
 8637SOL    HW126810   3.340   2.314   0.214 -1.6386 -0.2340 -0.7411
 8637SOL    HW226811   3.269   2.454   0.259  0.4138  0.4337  0.5816
 8638SOL     OW26812   1.888   0.854   1.749 -0.1465  0.2942  0.1109
 8638SOL    HW126813   1.980   0.890   1.733 -0.2000 -0.3956 -2.0294
 8638SOL    HW226814   1.893   0.755   1.763 -0.5089  0.3499  0.6624
 8639SOL     OW26815   6.640   4.222   1.610  0.4992 -0.3967  0.1044
 8639SOL    HW126816   6.653   4.293   1.541  3.5446 -0.3061  0.6427
 8639SOL    HW226817   6.679   4.252   1.697 -1.6237 -1.2424  1.4505
 8640SOL     OW26818   3.291   4.134   1.113  0.7436 -0.0504 -0.2769
 8640SOL    HW126819   3.242   4.219   1.096 -0.3281 -0.1490  1.9737
 8640SOL    HW226820   3.226   4.060   1.128  1.5725 -0.5154  1.2421
 8641SOL     OW26821   5.847   3.317   4.170  0.1545  0.1396  0.3339
 8641SOL    HW126822   5.811   3.393   4.115 -0.0330  0.0201  0.2925
 8641SOL    HW226823   5.839   3.232   4.119  1.8820  0.3086 -0.2965
 8642SOL     OW26824   4.173   5.892   2.780  0.3638  0.7991  0.7393
 8642SOL    HW126825   4.172   5.894   2.880 -2.9780 -1.1006  0.8941
 8642SOL    HW226826   4.268   5.887   2.748  1.5421  1.4627  3.7679
 8643SOL     OW26827   4.041   6.121   1.231  0.3403 -0.6292 -0.6369
 8643SOL    HW126828   4.065   6.218   1.224  0.3721 -0.6321 -0.5720
 8643SOL    HW226829   4.118   6.072   1.272 -0.4399 -0.3610  1.2257
 8644SOL     OW26830   6.151   3.264   6.424  0.6489  1.2974  0.4451
 8644SOL    HW126831   6.090   3.343   6.419  0.2523  0.9260 -1.2868
 8644SOL    HW226832   6.216   3.277   6.499  1.2632  3.7575 -0.4049
 8645SOL     OW26833   4.095   4.154   6.251 -0.3981 -0.3293  0.0289
 8645SOL    HW126834   4.015   4.136   6.308  0.6325  1.2645  2.0888
 8645SOL    HW226835   4.111   4.252   6.245  1.6377 -0.6137 -0.0075
 8646SOL     OW26836   6.120   2.576   1.163  0.5420  0.0276  0.2954
 8646SOL    HW126837   6.147   2.608   1.072 -2.2974  0.6662 -0.4271
 8646SOL    HW226838   6.120   2.476   1.165 -3.4620 -0.2214 -1.9859
 8647SOL     OW26839   3.528   6.425   5.832 -0.4009  0.1509 -0.1498
 8647SOL    HW126840   3.614   6.434   5.782 -1.0463 -0.9504 -1.5189
 8647SOL    HW226841   3.538   6.358   5.905 -0.1787 -0.2488 -0.5420
 8648SOL     OW26842   0.159   0.361   4.905  0.0776  0.3361 -0.2223
 8648SOL    HW126843   0.083   0.383   4.965 -0.1000 -0.8652  0.0170
 8648SOL    HW226844   0.245   0.373   4.955 -0.0744 -0.8363  0.3706
 8649SOL     OW26845   5.589   5.578   6.809  0.2198  0.2306 -0.3548
 8649SOL    HW126846   5.644   5.630   6.744 -0.1156  0.5765 -0.3632
 8649SOL    HW226847   5.522   5.638   6.851 -0.3827 -0.2657 -0.5952
 8650SOL     OW26848   1.670   3.432   7.013 -0.3800  0.2485  0.0964
 8650SOL    HW126849   1.582   3.429   7.062 -0.4129  0.9086  0.0878
 8650SOL    HW226850   1.656   3.404   6.918 -0.3929 -0.6267  0.3491
 8651SOL     OW26851   6.611   2.139   6.937 -0.3671 -0.2959  0.4935
 8651SOL    HW126852   6.611   2.136   7.037 -1.3868  1.0397  0.5747
 8651SOL    HW226853   6.596   2.234   6.908 -2.5662 -0.9986 -0.8947
 8652SOL     OW26854   0.818   4.310   3.164  0.4794 -0.3356  0.0891
 8652SOL    HW126855   0.871   4.234   3.202 -0.2555  0.1712  2.3327
 8652SOL    HW226856   0.721   4.290   3.173  0.1912  1.5644  2.6129
 8653SOL     OW26857   0.349   0.695   0.990 -1.0942  0.3889  0.3840
 8653SOL    HW126858   0.267   0.699   0.932 -2.3040  3.1605  2.0492
 8653SOL    HW226859   0.321   0.692   1.086  0.8540 -2.5281  0.9851
 8654SOL     OW26860   1.719   5.739   6.359  0.0025  0.0002  0.1901
 8654SOL    HW126861   1.764   5.825   6.332  1.4759 -0.6740  0.3723
 8654SOL    HW226862   1.631   5.731   6.312  0.1404  1.2925 -0.3427
 8655SOL     OW26863   6.700   1.907   4.297  0.2034 -0.1162  0.2634
 8655SOL    HW126864   6.800   1.902   4.293  0.1943  0.3247 -0.5758
 8655SOL    HW226865   6.666   1.967   4.225 -0.7003 -0.6074  0.2647
 8656SOL     OW26866   0.895   2.057   1.310  0.3728 -0.3450  0.5200
 8656SOL    HW126867   0.977   2.065   1.254  0.2723 -2.9024 -0.0818
 8656SOL    HW226868   0.818   2.099   1.262  0.9082  0.2565  0.1708
 8657SOL     OW26869   4.406   6.600   0.623 -0.3755  0.0336 -0.2576
 8657SOL    HW126870   4.470   6.667   0.661 -0.3208 -0.3921  0.4259
 8657SOL    HW226871   4.315   6.640   0.617  0.0701  0.8909 -1.9181
 8658SOL     OW26872   3.643   6.428   6.665  0.0525 -0.2789 -0.3435
 8658SOL    HW126873   3.619   6.347   6.612  0.6010 -0.8206  0.2172
 8658SOL    HW226874   3.560   6.472   6.699 -0.2240 -0.9568 -0.1359
 8659SOL     OW26875   5.004   2.231   3.891 -0.6539 -0.5085  0.3518
 8659SOL    HW126876   5.022   2.286   3.973  0.9963  1.0220 -0.9651
 8659SOL    HW226877   4.950   2.151   3.917  0.0957 -0.2732  2.9968
 8660SOL     OW26878   6.340   2.885   5.945 -0.4384 -0.1338 -0.1067
 8660SOL    HW126879   6.411   2.956   5.946 -0.2617 -0.2247  2.9431
 8660SOL    HW226880   6.378   2.801   5.983 -2.0584 -0.2518  1.3661
 8661SOL     OW26881   0.753   4.223   0.803 -1.1948 -0.1155  0.0739
 8661SOL    HW126882   0.794   4.197   0.890 -0.2509 -0.2118 -0.3809
 8661SOL    HW226883   0.670   4.277   0.819  0.2687  2.0074  1.0916
 8662SOL     OW26884   4.481   6.955   0.688 -0.3131 -0.0504  0.3086
 8662SOL    HW126885   4.406   7.006   0.730  0.5555  2.0966 -0.5621
 8662SOL    HW226886   4.563   7.013   0.685  0.9845 -1.8145 -0.0488
 8663SOL     OW26887   3.014   5.910   6.211 -0.4778  0.1913  0.3917
 8663SOL    HW126888   2.927   5.954   6.233 -0.4962  0.2942  0.1226
 8663SOL    HW226889   3.086   5.947   6.269 -0.7939 -0.6196  1.3183
 8664SOL     OW26890   3.454   5.042   3.418  0.1648 -0.6897 -0.0963
 8664SOL    HW126891   3.407   4.963   3.458 -0.5973 -1.1171 -1.7602
 8664SOL    HW226892   3.464   5.028   3.319  2.2797  0.1671 -0.0519
 8665SOL     OW26893   4.575   5.643   5.637  0.0631 -0.4289  0.1478
 8665SOL    HW126894   4.475   5.646   5.635 -0.0383 -2.5909 -1.3293
 8665SOL    HW226895   4.608   5.579   5.568  2.6210  2.0482 -1.1101
 8666SOL     OW26896   4.971   1.425   3.845  0.6298  1.0095  0.2198
 8666SOL    HW126897   4.999   1.347   3.789  1.6717  1.4564  0.0951
 8666SOL    HW226898   4.944   1.501   3.785 -0.0295  0.8731  0.3379
 8667SOL     OW26899   4.932   0.684   3.635 -0.2283  0.1065 -0.0835
 8667SOL    HW126900   4.911   0.591   3.663 -0.0026  0.1607  0.2720
 8667SOL    HW226901   5.000   0.682   3.562  0.4854  0.0145  0.5637
 8668SOL     OW26902   6.330   4.511   2.451 -0.8074  0.2622 -0.9190
 8668SOL    HW126903   6.397   4.576   2.487 -0.8787  0.2589 -0.7814
 8668SOL    HW226904   6.359   4.418   2.473 -1.5997  0.3144  0.4138
 8669SOL     OW26905   3.416   6.552   6.806 -0.2878 -0.4245 -0.1576
 8669SOL    HW126906   3.433   6.548   6.904 -3.3217 -0.7469  0.4364
 8669SOL    HW226907   3.399   6.647   6.779 -1.0761 -0.5223 -0.0285
 8670SOL     OW26908   2.715   6.499   6.279  0.4024 -0.5202  0.1146
 8670SOL    HW126909   2.805   6.503   6.323  0.4287 -0.0846  0.0264
 8670SOL    HW226910   2.722   6.444   6.196  0.3862 -1.2220  0.5612
 8671SOL     OW26911   6.401   0.656   3.851 -0.1126  0.2151 -0.0506
 8671SOL    HW126912   6.431   0.569   3.810 -0.3276  0.2871 -0.3587
 8671SOL    HW226913   6.460   0.678   3.929  1.2654  0.8513 -1.2384
 8672SOL     OW26914   1.156   4.116   3.700 -0.5166  0.4015 -0.6939
 8672SOL    HW126915   1.111   4.205   3.696  0.9994  1.5409  3.1321
 8672SOL    HW226916   1.142   4.076   3.791  0.5084 -2.3746 -1.6605
 8673SOL     OW26917   4.741   0.408   0.707  0.7977 -0.5653 -0.1709
 8673SOL    HW126918   4.657   0.460   0.726  1.7912  1.5868 -1.3098
 8673SOL    HW226919   4.792   0.396   0.792  0.2184 -0.2911  0.2247
 8674SOL     OW26920   4.948   0.309   2.855 -0.1388  0.4540  0.0925
 8674SOL    HW126921   4.904   0.235   2.805 -0.8375  2.0048 -1.7279
 8674SOL    HW226922   4.898   0.394   2.840  2.5049  2.0120 -0.7577
 8675SOL     OW26923   2.746   0.535   4.571  0.1381 -1.2311  0.6714
 8675SOL    HW126924   2.810   0.464   4.541  1.0456 -0.3189  0.3581
 8675SOL    HW226925   2.652   0.505   4.554  0.3523 -3.2798  2.6069
 8676SOL     OW26926   6.936   0.730   1.955  0.0191  0.5087  0.6437
 8676SOL    HW126927   6.876   0.761   2.029 -1.2545 -1.6496  0.6047
 8676SOL    HW226928   6.992   0.653   1.987  0.0535  0.0841 -0.3988
 8677SOL     OW26929   2.314   1.679   4.695  0.6136 -0.2256  0.2677
 8677SOL    HW126930   2.376   1.667   4.773 -1.1565  0.8230  1.9347
 8677SOL    HW226931   2.304   1.593   4.646  0.7356 -1.2829  2.0278
 8678SOL     OW26932   6.069   0.692   0.373  0.2537 -0.0424 -0.1580
 8678SOL    HW126933   6.099   0.689   0.277  0.4004 -0.3525 -0.1044
 8678SOL    HW226934   6.036   0.602   0.400  0.5857 -0.0586  0.2019
 8679SOL     OW26935   6.256   2.673   4.720 -0.0575  0.0455 -0.9763
 8679SOL    HW126936   6.256   2.616   4.802  0.3068  0.5153 -0.6515
 8679SOL    HW226937   6.312   2.630   4.649  0.4396  0.1396 -0.6368
 8680SOL     OW26938   1.816   4.864   1.183 -0.2647 -0.8620 -0.2795
 8680SOL    HW126939   1.740   4.846   1.245  0.3052 -3.3660 -0.2258
 8680SOL    HW226940   1.896   4.811   1.211  0.8268 -0.0036 -1.6318
 8681SOL     OW26941   2.989   5.924   1.701 -0.2681 -0.0648 -0.3032
 8681SOL    HW126942   3.019   5.861   1.772  1.4552  0.6711 -0.3438
 8681SOL    HW226943   2.909   5.974   1.733  0.2341 -0.0382  0.9577
 8682SOL     OW26944   2.459   6.883   7.001  0.0957  0.0561 -0.4991
 8682SOL    HW126945   2.376   6.828   6.992  1.2675 -1.8235 -0.2552
 8682SOL    HW226946   2.517   6.870   6.921  0.9063  0.0317  0.0738
 8683SOL     OW26947   2.168   0.533   1.679  0.3710  0.6089  0.0489
 8683SOL    HW126948   2.169   0.570   1.586  0.9639  1.5284  0.4171
 8683SOL    HW226949   2.162   0.433   1.674 -0.9042  0.6947 -0.9574
 8684SOL     OW26950   0.521   2.040   5.488 -0.1948  0.2397 -0.0074
 8684SOL    HW126951   0.562   1.982   5.417  2.2619  1.2653  0.4921
 8684SOL    HW226952   0.569   2.127   5.492 -1.9018  1.1890  1.2852
 8685SOL     OW26953   6.701   1.860   2.769  0.2399  0.0656  0.2759
 8685SOL    HW126954   6.722   1.784   2.830  1.2032 -0.1683 -0.3282
 8685SOL    HW226955   6.660   1.935   2.821  1.8704  0.2299  1.3671
 8686SOL     OW26956   1.936   0.579   0.829  0.1350  0.4747 -0.3092
 8686SOL    HW126957   1.959   0.574   0.732 -1.0455 -1.5886 -0.5511
 8686SOL    HW226958   1.903   0.489   0.860  3.4541  0.1081  2.7876
 8687SOL     OW26959   0.657   6.890   3.341  0.1269  0.2692  0.3985
 8687SOL    HW126960   0.583   6.879   3.407  2.5418 -0.3184  3.2711
 8687SOL    HW226961   0.690   6.984   3.344 -0.7181  0.6281 -1.1492
 8688SOL     OW26962   1.692   5.652   0.868  0.2962 -0.3913  0.8341
 8688SOL    HW126963   1.598   5.625   0.850  0.4999 -1.4428  1.2878
 8688SOL    HW226964   1.753   5.611   0.799  0.1449  2.9103 -1.5257
 8689SOL     OW26965   2.877   4.897   0.540  0.3567 -0.4352 -0.3270
 8689SOL    HW126966   2.949   4.875   0.607  1.2638  1.7120 -0.5293
 8689SOL    HW226967   2.801   4.942   0.587  0.6557  0.3765 -0.6112
 8690SOL     OW26968   1.732   2.216   2.605 -0.2010  0.1808 -0.3540
 8690SOL    HW126969   1.794   2.215   2.526  0.1395  0.0810 -0.0884
 8690SOL    HW226970   1.680   2.301   2.604 -0.7143 -0.1323 -1.0783
 8691SOL     OW26971   4.608   2.133   5.866 -0.5247  0.0741 -0.1049
 8691SOL    HW126972   4.513   2.109   5.847 -0.0212 -0.5389 -2.0484
 8691SOL    HW226973   4.618   2.232   5.871 -1.0045  0.2025 -1.4888
 8692SOL     OW26974   3.320   2.810   5.129  0.3439 -0.7929  0.0174
 8692SOL    HW126975   3.420   2.804   5.129  0.3883 -0.0795 -0.1011
 8692SOL    HW226976   3.283   2.738   5.070  0.8749  0.2486 -1.6634
 8693SOL     OW26977   1.845   1.164   6.593 -0.1723  0.0231  0.4444
 8693SOL    HW126978   1.753   1.136   6.619  0.0316 -1.1611 -0.0427
 8693SOL    HW226979   1.887   1.094   6.535  1.2262  0.3105  1.0586
 8694SOL     OW26980   4.235   1.441   3.975 -0.0861  0.2095  0.1274
 8694SOL    HW126981   4.145   1.399   3.971 -0.9730  1.6274  2.7437
 8694SOL    HW226982   4.297   1.382   4.027  0.0616 -0.0227 -0.3034
 8695SOL     OW26983   4.451   2.667   6.061 -0.1713  0.4407  0.2289
 8695SOL    HW126984   4.361   2.651   6.019  0.1771 -0.2949 -0.2548
 8695SOL    HW226985   4.502   2.733   6.005  0.6389 -1.2025 -1.0631
 8696SOL     OW26986   2.193   0.655   0.853 -0.4025  0.4450  0.4639
 8696SOL    HW126987   2.109   0.602   0.865 -0.4638  0.4687  0.1460
 8696SOL    HW226988   2.257   0.634   0.926 -0.6696  0.3935  0.6834
 8697SOL     OW26989   0.652   1.803   1.416  0.0711  0.4389  0.1238
 8697SOL    HW126990   0.728   1.753   1.374  0.2419  1.2080 -0.5037
 8697SOL    HW226991   0.594   1.843   1.344  0.1761  1.5004  0.6109
 8698SOL     OW26992   1.007   6.283   3.404  0.3108 -0.3739  0.2278
 8698SOL    HW126993   1.036   6.250   3.493  0.4479 -1.0681 -0.0662
 8698SOL    HW226994   1.084   6.326   3.357  0.7525 -1.6507 -0.2926
 8699SOL     OW26995   1.449   1.600   5.588  0.1399  0.4990 -0.2895
 8699SOL    HW126996   1.531   1.592   5.531  0.8404  1.5684  0.5420
 8699SOL    HW226997   1.474   1.633   5.679 -0.9223 -1.4482  0.7772
 8700SOL     OW26998   0.088   0.722   4.877  0.2794  0.4297  0.8805
 8700SOL    HW126999   0.138   0.721   4.790  0.0854  1.7136  0.7388
 8700SOL    HW227000   0.092   0.814   4.917  0.7032 -0.2332  2.4354
 8701SOL     OW27001   0.895   0.392   0.232  0.2884 -0.0208 -0.5853
 8701SOL    HW127002   0.920   0.344   0.148  0.2564  0.8578 -1.1168
 8701SOL    HW227003   0.978   0.420   0.280  0.3299  0.6921 -1.0528
 8702SOL     OW27004   4.375   3.432   1.125  0.5897  0.5788 -0.3291
 8702SOL    HW127005   4.400   3.520   1.166  0.1814  0.1937  0.7797
 8702SOL    HW227006   4.377   3.361   1.195  0.2392 -0.1734 -1.0682
 8703SOL     OW27007   2.848   6.395   2.420  0.4288 -0.0589  0.1377
 8703SOL    HW127008   2.761   6.441   2.403 -0.1291 -0.8219  0.8216
 8703SOL    HW227009   2.854   6.312   2.365  0.2856 -0.5107  0.7790
 8704SOL     OW27010   6.877   2.417   1.670  0.1593  0.3163  0.4529
 8704SOL    HW127011   6.878   2.402   1.571  1.6199  0.5884  0.4101
 8704SOL    HW227012   6.846   2.511   1.688  0.4246  0.4484  0.2300
 8705SOL     OW27013   6.892   6.616   6.773  0.1380 -0.2821 -0.0753
 8705SOL    HW127014   6.911   6.596   6.677 -0.7721  0.3888 -0.4099
 8705SOL    HW227015   6.798   6.589   6.794  0.8553 -2.1065  1.1191
 8706SOL     OW27016   6.539   3.453   6.528  0.0132  0.0697 -0.5153
 8706SOL    HW127017   6.538   3.486   6.623 -0.0911 -0.0120 -0.4882
 8706SOL    HW227018   6.507   3.358   6.525  2.0862 -0.6877 -0.3552
 8707SOL     OW27019   6.937   2.406   0.716  0.1247 -0.2275 -0.5936
 8707SOL    HW127020   6.897   2.497   0.727  0.2289 -0.2289 -0.2218
 8707SOL    HW227021   7.024   2.414   0.668 -0.0210 -0.1651 -0.8534
 8708SOL     OW27022   5.006   1.713   2.792  0.3086  0.0422  0.1791
 8708SOL    HW127023   4.976   1.619   2.776  3.2765 -1.1249  0.9009
 8708SOL    HW227024   5.011   1.761   2.704  1.7752 -1.4975 -0.6269
 8709SOL     OW27025   5.991   6.680   0.215 -0.3711 -0.2071  0.2671
 8709SOL    HW127026   6.075   6.736   0.216 -0.7218  0.3563 -0.7018
 8709SOL    HW227027   5.997   6.613   0.141 -2.2802  2.2761 -2.3386
 8710SOL     OW27028   1.158   3.811   3.434 -0.2094 -0.1806 -0.3872
 8710SOL    HW127029   1.073   3.840   3.476  1.2783  0.1878  2.6077
 8710SOL    HW227030   1.152   3.824   3.335 -2.8847  1.6888 -0.0793
 8711SOL     OW27031   0.911   4.752   3.854 -0.5635 -0.0186 -0.2290
 8711SOL    HW127032   1.011   4.751   3.846 -0.4923 -0.3543  0.5596
 8711SOL    HW227033   0.879   4.660   3.875 -0.8424  0.4574  1.5723
 8712SOL     OW27034   4.031   2.196   4.976  0.2727 -0.2190 -0.4819
 8712SOL    HW127035   4.015   2.134   5.053 -0.8379  0.6234 -0.0123
 8712SOL    HW227036   4.117   2.245   4.991  0.0771 -0.0754  0.2295
 8713SOL     OW27037   5.899   4.508   4.293  0.1541  0.3164  0.1019
 8713SOL    HW127038   5.899   4.487   4.195 -0.8958 -0.8029  0.3297
 8713SOL    HW227039   5.864   4.430   4.344 -1.6128  1.7335  1.1754
 8714SOL     OW27040   2.130   1.715   4.959  0.7163 -0.6587  0.2659
 8714SOL    HW127041   2.157   1.811   4.945 -0.1434 -0.4578 -0.0621
 8714SOL    HW227042   2.152   1.663   4.877  1.1214 -0.7368  0.4190
 8715SOL     OW27043   4.706   5.984   2.512 -0.3712  0.9988  0.2242
 8715SOL    HW127044   4.681   5.891   2.484  1.8027  0.6030 -0.5947
 8715SOL    HW227045   4.802   6.001   2.489 -0.3176  2.9658  1.6540
 8716SOL     OW27046   0.452   0.048   0.684 -0.2820  0.2995  0.1305
 8716SOL    HW127047   0.412   0.126   0.637  1.3694  1.0058 -0.1520
 8716SOL    HW227048   0.498   0.078   0.767 -1.5499 -0.7004  1.2570
 8717SOL     OW27049   3.272   4.139   4.450  0.1975 -0.1946  0.0065
 8717SOL    HW127050   3.172   4.132   4.450  0.1560  0.4040 -0.2892
 8717SOL    HW227051   3.306   4.131   4.357  0.3417  0.7581 -0.0261
 8718SOL     OW27052   2.033   4.250   3.967  0.0564 -0.5371  0.4910
 8718SOL    HW127053   2.047   4.344   3.938  1.1172 -0.6639  0.5645
 8718SOL    HW227054   1.945   4.217   3.933 -1.7914  1.4260  2.9875
 8719SOL     OW27055   3.070   0.018   4.987 -0.2487  0.3650  0.2612
 8719SOL    HW127056   3.169   0.007   4.979 -0.2749  1.2883 -1.7438
 8719SOL    HW227057   3.049   0.060   5.076  0.9915 -1.1914  1.3591
 8720SOL     OW27058   6.315   6.027   4.743  0.3311 -0.1565 -0.8604
 8720SOL    HW127059   6.241   6.049   4.679  2.5196  0.3286 -3.4194
 8720SOL    HW227060   6.402   6.023   4.693  2.0671 -0.7517  1.9844
 8721SOL     OW27061   5.926   4.084   2.997  1.1827 -0.5626 -1.1140
 8721SOL    HW127062   6.024   4.100   2.987  1.2946 -1.4463 -1.5344
 8721SOL    HW227063   5.893   4.031   2.919  1.0000 -3.0119  0.5367
 8722SOL     OW27064   5.051   1.991   7.001  0.5289  0.6227  0.3098
 8722SOL    HW127065   5.003   2.006   7.088 -2.5798 -2.6962 -0.5944
 8722SOL    HW227066   5.007   2.046   6.930 -1.4218 -1.5753 -0.2994
 8723SOL     OW27067   4.219   5.608   2.131  0.7048  0.7102  0.0793
 8723SOL    HW127068   4.301   5.594   2.186  1.4860  1.3916 -0.8649
 8723SOL    HW227069   4.172   5.691   2.163 -0.3661 -0.3953  1.4729
 8724SOL     OW27070   5.077   6.473   6.867 -0.1177  0.0587  0.7715
 8724SOL    HW127071   5.155   6.525   6.902 -0.6018  0.0677  1.8823
 8724SOL    HW227072   5.059   6.500   6.773 -0.0621  1.6042  1.1714
 8725SOL     OW27073   0.721   1.100   0.094  0.0728 -0.4586  0.0843
 8725SOL    HW127074   0.690   1.082   0.187  2.5342 -1.5702  0.7602
 8725SOL    HW227075   0.741   1.197   0.083 -2.6422  0.1466 -0.1343
 8726SOL     OW27076   0.408   7.012   1.553 -0.3457  0.1653  0.0682
 8726SOL    HW127077   0.393   6.915   1.574  0.6458  0.0245  0.1696
 8726SOL    HW227078   0.394   7.066   1.636 -0.3837  0.0526  0.1363
 8727SOL     OW27079   6.492   0.065   3.734 -0.1675  0.3651 -0.5160
 8727SOL    HW127080   6.515  -0.032   3.738 -1.6968 -0.0468 -0.8084
 8727SOL    HW227081   6.461   0.088   3.642  0.7434  1.2838 -0.6103
 8728SOL     OW27082   4.473   6.350   4.555  0.0598 -0.6024 -0.2320
 8728SOL    HW127083   4.549   6.399   4.511 -1.1252  0.5412 -1.1093
 8728SOL    HW227084   4.420   6.303   4.485  0.8815 -2.8127  0.5500
 8729SOL     OW27085   4.293   6.586   4.238 -0.3772  0.4036 -0.1230
 8729SOL    HW127086   4.243   6.657   4.190 -1.3082 -0.0595  0.1384
 8729SOL    HW227087   4.298   6.503   4.182  0.8880  0.7248 -0.5155
 8730SOL     OW27088   5.459   3.166   2.204  0.3296  0.5194  0.6352
 8730SOL    HW127089   5.397   3.241   2.225  1.4090  1.5850  0.1296
 8730SOL    HW227090   5.518   3.148   2.284  1.4094  1.5734  0.1104
 8731SOL     OW27091   1.401   3.231   2.063 -0.1405 -0.6488  0.7260
 8731SOL    HW127092   1.417   3.139   2.028 -1.0273 -0.5924  0.1303
 8731SOL    HW227093   1.412   3.297   1.989 -0.6070 -0.3819  0.8933
 8732SOL     OW27094   4.386   5.476   1.061 -0.2827  0.3037  0.5924
 8732SOL    HW127095   4.474   5.524   1.058 -0.4525  0.8507  2.7038
 8732SOL    HW227096   4.321   5.522   1.000  1.3909 -1.3811 -2.6977
 8733SOL     OW27097   1.240   5.442   3.084  0.1559  0.2860 -0.1736
 8733SOL    HW127098   1.171   5.397   3.027 -0.6389  1.3893 -0.1038
 8733SOL    HW227099   1.265   5.381   3.159 -1.6321  0.3041  0.4930
 8734SOL     OW27100   1.880   2.788   1.754  0.2436  0.0834  0.1998
 8734SOL    HW127101   1.802   2.850   1.752  0.1284 -0.0774 -1.0538
 8734SOL    HW227102   1.863   2.711   1.693  1.8566  0.6539 -1.0380
 8735SOL     OW27103   0.487   6.658   5.728  0.0079 -0.1762 -0.5339
 8735SOL    HW127104   0.415   6.724   5.750  0.6571  0.1722  0.6170
 8735SOL    HW227105   0.457   6.566   5.752 -1.3510 -0.5390 -3.1699
 8736SOL     OW27106   2.803   6.033   0.735 -0.3154 -0.0901  0.3113
 8736SOL    HW127107   2.850   5.945   0.735  0.0275  0.0659 -1.3310
 8736SOL    HW227108   2.819   6.080   0.822  0.5745 -1.0746  0.6900
 8737SOL     OW27109   3.988   6.691   4.638 -0.3935  0.0816 -0.2124
 8737SOL    HW127110   3.985   6.784   4.602 -1.7371  0.1950  0.1479
 8737SOL    HW227111   4.032   6.631   4.571  0.7878  1.0170 -0.3074
 8738SOL     OW27112   1.650   5.078   4.711 -0.2047 -0.3555  0.2491
 8738SOL    HW127113   1.689   4.992   4.677 -0.4591 -0.1058 -0.7020
 8738SOL    HW227114   1.603   5.125   4.637  0.1857  0.7632  0.6811
 8739SOL     OW27115   5.828   5.208   0.543  0.7604  0.5110 -0.2711
 8739SOL    HW127116   5.827   5.163   0.454 -1.0830  2.4342 -1.3072
 8739SOL    HW227117   5.737   5.243   0.564  1.3328  0.7997  2.0342
 8740SOL     OW27118   4.357   2.058   5.795 -0.4237  0.6069  0.5601
 8740SOL    HW127119   4.285   2.121   5.821 -0.9317 -0.1176  0.9564
 8740SOL    HW227120   4.374   2.064   5.697 -1.1774  0.6189  0.4295
 8741SOL     OW27121   3.824   0.712   1.166 -0.7928  0.2882 -0.2579
 8741SOL    HW127122   3.736   0.666   1.159 -0.6890  0.2183 -1.3257
 8741SOL    HW227123   3.815   0.794   1.221 -1.2003 -0.4686  0.8455
 8742SOL     OW27124   6.077   6.917   1.396  0.3487  0.3573 -0.1923
 8742SOL    HW127125   6.076   7.016   1.411  0.8280  0.4790 -0.9227
 8742SOL    HW227126   6.080   6.898   1.298  0.1718 -0.3858 -0.0595
 8743SOL     OW27127   2.031   5.525   3.385 -0.2345 -0.3530  0.6128
 8743SOL    HW127128   2.043   5.597   3.317 -0.0643  0.0475  1.0557
 8743SOL    HW227129   1.944   5.479   3.370  0.2076 -0.8721 -0.4245
 8744SOL     OW27130   5.079   4.802   0.690 -0.0346 -0.2234  0.5223
 8744SOL    HW127131   5.046   4.751   0.611  0.3333  1.5944 -0.8768
 8744SOL    HW227132   5.168   4.843   0.669 -0.1195  0.6253  1.7136
 8745SOL     OW27133   6.985   3.507   0.021  0.1118 -0.1880 -0.2852
 8745SOL    HW127134   6.932   3.468   0.096  0.8704  1.0861  0.9689
 8745SOL    HW227135   7.080   3.474   0.028  0.2224  0.0713 -0.5815
 8746SOL     OW27136   5.696   4.941   4.235  0.0807 -0.0064 -0.0872
 8746SOL    HW127137   5.636   4.901   4.166  3.1737 -1.8449 -1.9448
 8746SOL    HW227138   5.689   4.889   4.320 -0.1486 -0.8859 -0.6405
 8747SOL     OW27139   6.746   1.212   1.581 -0.1347  0.4271  0.0235
 8747SOL    HW127140   6.751   1.306   1.617  0.7279 -0.0547  1.2132
 8747SOL    HW227141   6.658   1.172   1.607 -1.4924  1.5818 -2.3512
 8748SOL     OW27142   6.910   1.256   6.922 -0.2634  0.4613 -0.0676
 8748SOL    HW127143   6.811   1.268   6.926 -0.9184 -1.9622 -3.5710
 8748SOL    HW227144   6.940   1.203   7.001 -2.2816 -0.9733 -0.1577
 8749SOL     OW27145   4.102   0.553   4.951 -0.0095 -0.5072  0.1576
 8749SOL    HW127146   4.029   0.612   4.914  0.2646  1.5128  2.5685
 8749SOL    HW227147   4.060   0.475   4.998 -0.7431  0.7343  1.6909
 8750SOL     OW27148   4.182   4.092   0.091 -0.5778  0.4263  0.0176
 8750SOL    HW127149   4.242   4.162   0.130 -0.5874  0.6131 -0.2986
 8750SOL    HW227150   4.238   4.017   0.056 -0.4164  1.2302 -1.5446
 8751SOL     OW27151   5.245   1.538   3.156  0.1064 -0.1648 -0.5987
 8751SOL    HW127152   5.245   1.494   3.066 -0.2783  0.3601 -0.8624
 8751SOL    HW227153   5.228   1.469   3.226  0.8926 -0.6595 -0.8780
 8752SOL     OW27154   3.523   5.240   6.457 -0.1568  0.1469  0.1547
 8752SOL    HW127155   3.583   5.314   6.488 -0.7227  0.6058  0.1873
 8752SOL    HW227156   3.497   5.183   6.535 -2.6832  2.1019  0.8806
 8753SOL     OW27157   5.267   3.171   5.536 -0.6064  0.0299  0.2431
 8753SOL    HW127158   5.325   3.249   5.517 -0.4708 -0.4277 -1.3110
 8753SOL    HW227159   5.207   3.192   5.613  1.3374  0.6356  1.6709
 8754SOL     OW27160   1.171   2.115   3.639 -0.4328 -0.1229  0.2478
 8754SOL    HW127161   1.096   2.140   3.577 -0.7672 -2.0621 -0.2002
 8754SOL    HW227162   1.258   2.136   3.595 -0.6758 -0.9750 -0.6927
 8755SOL     OW27163   5.020   7.010   6.151 -0.1639  0.1786 -0.3472
 8755SOL    HW127164   5.112   7.034   6.183 -0.3193  0.2693  0.0392
 8755SOL    HW227165   5.021   6.997   6.052  0.6108 -1.3691 -0.1676
 8756SOL     OW27166   1.833   1.783   2.786  0.5368  0.6547  0.1205
 8756SOL    HW127167   1.820   1.875   2.824 -0.0298  0.3110  0.7713
 8756SOL    HW227168   1.798   1.781   2.693 -1.5157  0.5267  0.8566
 8757SOL     OW27169   5.365   0.651   4.987  0.1004 -0.6658 -0.5665
 8757SOL    HW127170   5.303   0.633   5.063 -0.4818 -1.6824 -1.2449
 8757SOL    HW227171   5.426   0.727   5.010 -0.6771 -0.3502  0.5359
 8758SOL     OW27172   2.503   1.517   3.168  0.2161 -0.2076  0.3161
 8758SOL    HW127173   2.475   1.436   3.221  0.5405 -0.8213 -0.4288
 8758SOL    HW227174   2.527   1.591   3.231  0.1032 -0.7518  1.0166
 8759SOL     OW27175   3.209   3.048   6.146  0.3262 -0.0068 -0.3625
 8759SOL    HW127176   3.266   2.977   6.188  0.8485  0.1203 -0.8360
 8759SOL    HW227177   3.189   3.119   6.213  0.1432 -0.4026  0.0009
 8760SOL     OW27178   1.513   2.012   4.492 -0.3458  0.0493  0.4017
 8760SOL    HW127179   1.453   2.068   4.435 -0.6624 -0.8024 -0.1216
 8760SOL    HW227180   1.570   2.072   4.549 -0.9247  0.8877  0.1241
 8761SOL     OW27181   6.462   0.395   2.145  0.2471 -0.1124  0.0304
 8761SOL    HW127182   6.386   0.438   2.096  0.4776  1.3430  0.9072
 8761SOL    HW227183   6.525   0.354   2.080  0.5690  1.8112 -0.9144
 8762SOL     OW27184   0.318   5.805   2.247  0.4593 -0.1669  0.1939
 8762SOL    HW127185   0.282   5.723   2.201 -0.0578 -0.7449  1.5836
 8762SOL    HW227186   0.241   5.864   2.274  0.8112  0.6262 -0.4701
 8763SOL     OW27187   4.736   6.487   5.499  0.0324 -0.1017 -0.0165
 8763SOL    HW127188   4.669   6.509   5.429  0.3048 -0.3311 -0.3532
 8763SOL    HW227189   4.805   6.426   5.461  0.8401  0.7066  0.1091
 8764SOL     OW27190   5.192   0.058   3.764 -0.1027 -0.5953 -0.4300
 8764SOL    HW127191   5.284   0.063   3.724 -0.4402 -1.8403 -1.4223
 8764SOL    HW227192   5.158  -0.035   3.756 -1.9713  0.1178 -1.2473
 8765SOL     OW27193   4.824   6.177   0.319 -0.1118  0.2524 -0.1137
 8765SOL    HW127194   4.844   6.104   0.385  0.3106 -0.5258 -1.0790
 8765SOL    HW227195   4.893   6.177   0.247 -0.9425  0.6430 -0.9348
 8766SOL     OW27196   4.045   4.854   2.054  0.3049 -0.1400 -0.0645
 8766SOL    HW127197   4.004   4.798   1.982  1.0716  0.9312 -1.3827
 8766SOL    HW227198   4.125   4.807   2.091  0.6478 -0.1580 -0.8054
 8767SOL     OW27199   4.268   0.740   3.840  0.0551 -0.1586  0.0176
 8767SOL    HW127200   4.180   0.722   3.796 -0.2833 -0.8835  0.9664
 8767SOL    HW227201   4.255   0.805   3.915  0.7528  1.6816 -1.3730
 8768SOL     OW27202   1.916   3.600   0.082  0.1910  0.2461 -0.6238
 8768SOL    HW127203   1.923   3.679   0.020 -0.8405 -0.1106 -1.2082
 8768SOL    HW227204   1.854   3.532   0.043 -1.0644  0.3244  1.1274
 8769SOL     OW27205   1.491   0.261   5.232 -0.0745  0.2491  0.0169
 8769SOL    HW127206   1.496   0.242   5.330  1.5680  0.6641  0.0563
 8769SOL    HW227207   1.578   0.235   5.190 -1.3509 -1.5386 -1.6521
 8770SOL     OW27208   6.449   2.545   1.893  0.4692  0.4137 -0.5974
 8770SOL    HW127209   6.475   2.533   1.797 -1.4092 -0.6758 -1.0203
 8770SOL    HW227210   6.381   2.477   1.918  1.5507  0.1042  1.8085
 8771SOL     OW27211   1.851   6.432   6.006  0.2748  0.4146  0.2208
 8771SOL    HW127212   1.770   6.481   5.975  0.6571  0.7716 -0.2222
 8771SOL    HW227213   1.850   6.339   5.969 -0.9044 -0.2484  1.7877
 8772SOL     OW27214   5.406   5.236   4.979 -0.5327  0.1506 -0.4383
 8772SOL    HW127215   5.483   5.260   4.920  0.5732 -1.2161  0.3661
 8772SOL    HW227216   5.408   5.294   5.061 -0.3828  0.1600 -0.4475
 8773SOL     OW27217   4.521   2.511   3.643 -0.0907 -0.4596  0.5690
 8773SOL    HW127218   4.608   2.535   3.685  0.2860 -1.1396  0.1952
 8773SOL    HW227219   4.456   2.481   3.713  0.1726 -0.5330  0.7801
 8774SOL     OW27220   1.656   1.272   5.762 -0.3554 -0.8503  0.2327
 8774SOL    HW127221   1.678   1.178   5.789  0.7580 -0.2370  1.5507
 8774SOL    HW227222   1.586   1.270   5.691 -0.0992 -2.6881 -0.0212
 8775SOL     OW27223   1.348   1.540   5.179 -0.3155 -0.4659 -0.4666
 8775SOL    HW127224   1.359   1.638   5.162 -0.8044 -0.6817 -2.2096
 8775SOL    HW227225   1.272   1.527   5.243  0.2096  0.2971  0.3565
 8776SOL     OW27226   2.951   4.020   5.444 -0.4168 -0.2948 -0.0325
 8776SOL    HW127227   2.959   4.096   5.380 -2.5108  0.7636  0.8757
 8776SOL    HW227228   2.982   3.936   5.399 -0.4090  0.6533 -1.9125
 8777SOL     OW27229   6.462   2.943   1.859 -0.3334 -0.0022 -0.1566
 8777SOL    HW127230   6.485   3.040   1.857  1.1783 -0.3023  0.8265
 8777SOL    HW227231   6.521   2.893   1.795 -0.7938 -0.3437 -0.3264
 8778SOL     OW27232   4.657   1.582   3.396  0.0529 -0.4692  0.4244
 8778SOL    HW127233   4.680   1.517   3.324  1.8187  1.6123 -1.0046
 8778SOL    HW227234   4.707   1.667   3.382  1.3348 -0.2644  4.7079
 8779SOL     OW27235   0.356   6.244   0.435 -0.0916 -0.8441 -0.3351
 8779SOL    HW127236   0.422   6.299   0.486  2.8734 -4.3021  0.0064
 8779SOL    HW227237   0.376   6.251   0.337 -1.6134  0.8317 -0.5603
 8780SOL     OW27238   0.943   5.191   2.943 -0.4770 -0.2111 -0.2146
 8780SOL    HW127239   1.024   5.154   2.987 -0.4674  0.1561  0.0796
 8780SOL    HW227240   0.873   5.209   3.012 -1.6111 -2.4987 -0.6702
 8781SOL     OW27241   4.635   2.715   2.664 -0.3870 -0.1350  0.0062
 8781SOL    HW127242   4.698   2.728   2.740  0.1148  1.7402 -0.6775
 8781SOL    HW227243   4.555   2.663   2.695  0.6693 -1.0444  1.3126
 8782SOL     OW27244   5.648   0.089   2.234  0.6455  0.1923 -0.1101
 8782SOL    HW127245   5.653   0.152   2.312 -1.9343  0.6420 -0.2418
 8782SOL    HW227246   5.616   0.139   2.153 -0.6735 -1.1009 -0.4195
 8783SOL     OW27247   4.776   2.775   2.891 -0.5254  0.1051  0.2115
 8783SOL    HW127248   4.792   2.873   2.883  1.8152 -0.1902  0.5768
 8783SOL    HW227249   4.712   2.758   2.967  0.5859  1.2628  1.4596
 8784SOL     OW27250   6.668   4.699   5.731  0.2767  0.9223  0.3173
 8784SOL    HW127251   6.672   4.794   5.760  1.9910  1.0852 -0.3658
 8784SOL    HW227252   6.750   4.651   5.761  0.0147 -0.0206 -0.4181
 8785SOL     OW27253   0.332   3.723   0.038 -0.1854 -0.0970  0.0850
 8785SOL    HW127254   0.377   3.637   0.014 -0.3511 -0.4053  0.8407
 8785SOL    HW227255   0.398   3.797   0.033 -0.0527 -0.2582 -0.6273
 8786SOL     OW27256   1.647   0.844   1.143  0.3895 -0.3110  0.1422
 8786SOL    HW127257   1.628   0.761   1.092  0.8282  0.8074 -1.9461
 8786SOL    HW227258   1.745   0.862   1.144  0.3098  0.1334  0.6707
 8787SOL     OW27259   1.462   2.972   1.992 -0.4150  0.0651  0.0481
 8787SOL    HW127260   1.542   2.934   1.945 -0.9546  1.8209 -2.5136
 8787SOL    HW227261   1.379   2.934   1.953 -0.8749  0.0615  1.0086
 8788SOL     OW27262   6.719   3.994   5.520  0.3567 -0.4439  0.0632
 8788SOL    HW127263   6.746   3.937   5.597  1.8801 -0.4282 -0.4238
 8788SOL    HW227264   6.662   4.069   5.553  2.1331  0.3865  1.4445
 8789SOL     OW27265   0.118   6.126   6.075 -0.2461 -0.0333 -0.5761
 8789SOL    HW127266   0.102   6.038   6.031  1.7556 -0.1066 -1.2430
 8789SOL    HW227267   0.197   6.170   6.034 -0.4629  1.5222  0.5880
 8790SOL     OW27268   6.724   5.900   6.824  0.0116 -0.7014  0.2021
 8790SOL    HW127269   6.631   5.893   6.859 -0.6960  1.1467 -1.1193
 8790SOL    HW227270   6.733   5.984   6.770  2.5194 -0.7183  0.4715
 8791SOL     OW27271   5.548   5.831   5.151 -0.3485  0.4114  0.4108
 8791SOL    HW127272   5.567   5.764   5.222 -0.0954  0.8570  0.7679
 8791SOL    HW227273   5.489   5.790   5.081 -2.2225  0.5270  1.8507
 8792SOL     OW27274   4.666   5.679   3.637 -0.1132  0.0163 -0.1140
 8792SOL    HW127275   4.679   5.756   3.700  0.3230  0.1533 -0.3688
 8792SOL    HW227276   4.577   5.637   3.654 -0.2634  0.4441  0.1699
 8793SOL     OW27277   0.111   5.549   2.814 -0.1652 -0.3245 -0.1062
 8793SOL    HW127278   0.028   5.496   2.834  0.5920 -2.1104 -1.4321
 8793SOL    HW227279   0.138   5.534   2.719  0.5391  1.8919 -0.3024
 8794SOL     OW27280   3.403   0.188   1.346 -0.4660 -0.0631 -0.1009
 8794SOL    HW127281   3.445   0.268   1.389 -1.6012 -1.3266  3.6547
 8794SOL    HW227282   3.472   0.117   1.334 -0.3594 -0.0808  0.6215
 8795SOL     OW27283   2.628   5.062   4.591  0.1428  0.2499  0.5279
 8795SOL    HW127284   2.601   5.088   4.684  0.5239 -0.0342  0.7178
 8795SOL    HW227285   2.691   5.129   4.554  0.4228  0.0735  0.6824
 8796SOL     OW27286   4.177   1.363   5.978 -0.0018 -0.0050 -0.1024
 8796SOL    HW127287   4.143   1.271   5.953  0.6597 -0.0144 -1.0362
 8796SOL    HW227288   4.143   1.429   5.911  0.1218  0.3182  0.1564
 8797SOL     OW27289   5.900   0.141   6.441  0.3527  0.1913 -0.0236
 8797SOL    HW127290   5.822   0.096   6.484  0.0757 -0.4636 -1.1629
 8797SOL    HW227291   5.867   0.213   6.379  0.6475  0.0047 -0.4062
 8798SOL     OW27292   5.055   3.545   4.596  0.0085  0.6288 -0.1789
 8798SOL    HW127293   5.006   3.607   4.535 -2.2984  0.4815  1.3959
 8798SOL    HW227294   5.125   3.595   4.647 -0.8681  1.6324  0.0533
 8799SOL     OW27295   2.212   4.319   4.814  0.0991  0.0943  0.0374
 8799SOL    HW127296   2.131   4.351   4.764 -1.3709 -0.1993  2.1113
 8799SOL    HW227297   2.294   4.348   4.765 -1.2234  1.2376 -1.6470
 8800SOL     OW27298   4.586   2.695   5.475 -0.1473 -0.2053 -0.1284
 8800SOL    HW127299   4.591   2.746   5.561  0.9258  0.0329 -0.3150
 8800SOL    HW227300   4.675   2.652   5.456 -1.0594 -2.2829  0.0926
 8801SOL     OW27301   0.386   0.771   4.810  0.2096  0.1665  0.1930
 8801SOL    HW127302   0.392   0.727   4.900  1.1833  0.6917  0.3989
 8801SOL    HW227303   0.383   0.700   4.739 -0.5654 -0.2526  0.6273
 8802SOL     OW27304   1.496   0.938   0.192  0.0009 -0.4479 -0.1525
 8802SOL    HW127305   1.576   0.944   0.132  0.5020  0.0966  0.5558
 8802SOL    HW227306   1.437   0.864   0.161 -1.4589  1.8236 -3.3159
 8803SOL     OW27307   2.418   5.436   5.291  0.6269  0.3084 -0.1453
 8803SOL    HW127308   2.374   5.387   5.215 -1.0777  0.1631  0.8699
 8803SOL    HW227309   2.401   5.386   5.376  1.0109  1.3649  0.5676
 8804SOL     OW27310   3.445   1.012   3.608 -0.0326 -0.4285 -0.1570
 8804SOL    HW127311   3.464   1.062   3.692 -0.9395 -0.4629  0.0820
 8804SOL    HW227312   3.448   0.914   3.626 -0.1022 -0.4377 -0.1966
 8805SOL     OW27313   1.883   6.989   4.815 -0.3032  0.1350 -0.4744
 8805SOL    HW127314   1.975   6.952   4.803 -0.3454  0.3991 -1.8298
 8805SOL    HW227315   1.883   7.087   4.791 -1.0904 -0.0569 -1.3568
 8806SOL     OW27316   2.075   3.800   0.679  0.8549  0.3112  0.3595
 8806SOL    HW127317   2.123   3.716   0.653 -3.1168 -2.0563 -0.0854
 8806SOL    HW227318   2.084   3.867   0.605  1.7952 -0.7770 -0.5673
 8807SOL     OW27319   5.709   6.950   6.582  0.0730 -0.3023 -0.3908
 8807SOL    HW127320   5.706   6.922   6.486 -1.1767 -0.0059 -0.4521
 8807SOL    HW227321   5.775   6.894   6.631  0.4595 -0.7014 -1.3421
 8808SOL     OW27322   4.738   2.940   6.989  0.4076  0.4113  0.1798
 8808SOL    HW127323   4.672   2.915   6.919  0.0934  0.0164  0.6141
 8808SOL    HW227324   4.700   2.923   7.080  1.1690 -0.0036  0.4359
 8809SOL     OW27325   4.273   5.772   3.524  0.0480  0.5199  0.0405
 8809SOL    HW127326   4.243   5.756   3.430 -2.0422 -0.3591  0.7978
 8809SOL    HW227327   4.306   5.866   3.533  0.5338  0.5434 -1.5947
 8810SOL     OW27328   6.095   1.601   5.938  0.1398  0.8984  0.1694
 8810SOL    HW127329   6.014   1.545   5.950  0.5097  0.4536  0.6184
 8810SOL    HW227330   6.071   1.685   5.889 -0.1609 -0.3153 -1.9136
 8811SOL     OW27331   2.007   0.185   3.803 -0.1298  0.3982  0.4025
 8811SOL    HW127332   1.912   0.180   3.835 -0.5993  0.7477 -0.9052
 8811SOL    HW227333   2.031   0.280   3.785  0.0256  0.1919 -0.5376
 8812SOL     OW27334   3.097   1.671   0.089 -0.1868 -0.3811 -0.0887
 8812SOL    HW127335   3.191   1.679   0.057  0.1110 -1.5763  0.4356
 8812SOL    HW227336   3.034   1.687   0.013  0.3734  1.9695 -0.1239
 8813SOL     OW27337   1.999   4.711   3.198  0.6388 -0.1745  0.1469
 8813SOL    HW127338   1.944   4.752   3.271 -1.2621 -0.4923 -1.0238
 8813SOL    HW227339   2.027   4.619   3.226  0.3239 -0.1200  0.6652
 8814SOL     OW27340   5.987   0.958   1.022  0.5097  0.7020  0.2640
 8814SOL    HW127341   5.929   1.039   1.025 -0.5315 -0.0382  1.4267
 8814SOL    HW227342   6.034   0.947   1.110 -0.3294 -0.5978  0.5810
 8815SOL     OW27343   6.133   6.056   1.597  0.1329 -0.5489  0.1974
 8815SOL    HW127344   6.052   6.105   1.565 -2.1229 -3.6324  0.6300
 8815SOL    HW227345   6.182   6.111   1.663 -0.6477  2.0804 -1.2682
 8816SOL     OW27346   3.497   2.932   0.588 -0.7125 -0.3312 -0.6738
 8816SOL    HW127347   3.595   2.916   0.601 -0.7698  0.1691  0.4524
 8816SOL    HW227348   3.448   2.845   0.597 -0.5770 -0.2644  0.9270
 8817SOL     OW27349   0.686   4.182   5.563  0.2570  0.0658 -0.0146
 8817SOL    HW127350   0.643   4.235   5.637  2.5979  1.7267  0.2810
 8817SOL    HW227351   0.627   4.183   5.483 -1.8193 -0.7791  1.4155
 8818SOL     OW27352   1.770   3.704   4.689 -0.4172  0.2523  0.1887
 8818SOL    HW127353   1.760   3.633   4.619  0.4050  0.5745 -0.2689
 8818SOL    HW227354   1.855   3.755   4.673 -0.3984  0.5652  1.2098
 8819SOL     OW27355   4.342   6.088   3.906  0.3370  0.1785  0.6843
 8819SOL    HW127356   4.336   5.989   3.900 -0.1407  0.1714  1.1541
 8819SOL    HW227357   4.427   6.114   3.952  0.6651  0.0070  0.1799
 8820SOL     OW27358   2.296   1.884   3.312  0.6416 -0.2240 -0.1515
 8820SOL    HW127359   2.378   1.829   3.326  0.4445  0.0890  2.8519
 8820SOL    HW227360   2.322   1.978   3.292  0.9688 -0.6932 -2.0882
 8821SOL     OW27361   1.951   5.731   6.561 -0.3982 -0.1173 -0.5541
 8821SOL    HW127362   2.045   5.719   6.528 -0.6372 -0.1834 -1.2181
 8821SOL    HW227363   1.889   5.740   6.484 -0.8109  1.0131 -0.1042
 8822SOL     OW27364   6.095   0.766   6.882 -0.0272 -0.6252 -0.7000
 8822SOL    HW127365   6.047   0.838   6.932 -2.3329 -0.6327 -2.7105
 8822SOL    HW227366   6.141   0.806   6.802  2.7521 -0.7709  0.6722
 8823SOL     OW27367   0.933   6.958   0.948 -0.6061  0.0656  0.0577
 8823SOL    HW127368   0.984   7.013   0.881  1.9883 -1.6000  0.5164
 8823SOL    HW227369   0.875   6.892   0.900  2.0946 -1.9116 -0.7528
 8824SOL     OW27370   0.763   4.262   6.463  0.0164  0.0558  0.5157
 8824SOL    HW127371   0.684   4.305   6.420  0.4636 -0.0942 -0.4832
 8824SOL    HW227372   0.845   4.316   6.444  0.4047 -0.6285  0.1832
 8825SOL     OW27373   2.758   6.329   3.079  0.2795 -0.1214  0.1792
 8825SOL    HW127374   2.799   6.328   2.988 -0.9899  1.6147 -0.4589
 8825SOL    HW227375   2.831   6.330   3.148  1.3402  1.5145 -0.8849
 8826SOL     OW27376   7.013   0.359   1.690  0.7048  0.3076 -0.6352
 8826SOL    HW127377   7.069   0.329   1.613  1.4703  0.1606 -0.0268
 8826SOL    HW227378   6.917   0.338   1.671  0.9939 -0.5968 -1.1409
 8827SOL     OW27379   2.874   1.053   3.080  0.1060  0.0372  0.5007
 8827SOL    HW127380   2.953   1.070   3.139  1.1061  0.1792 -0.8395
 8827SOL    HW227381   2.894   0.977   3.019 -0.3449  0.7959 -0.6248
 8828SOL     OW27382   5.286   0.225   5.790  0.0443  0.6961  0.0519
 8828SOL    HW127383   5.352   0.297   5.773  0.8936 -0.2512 -0.8065
 8828SOL    HW227384   5.241   0.199   5.704 -0.2517  0.2165  0.3448
 8829SOL     OW27385   6.151   2.696   7.022  0.0683  0.3150  0.0676
 8829SOL    HW127386   6.139   2.762   7.096 -2.2368  0.9263 -0.7644
 8829SOL    HW227387   6.108   2.731   6.939  1.2558 -1.0260 -1.1643
 8830SOL     OW27388   0.535   0.919   2.416  0.1964 -0.1411  0.1156
 8830SOL    HW127389   0.623   0.963   2.396 -0.8683  1.9738 -0.2120
 8830SOL    HW227390   0.462   0.972   2.374 -1.2188 -2.1847 -0.1098
 8831SOL     OW27391   7.001   1.577   3.113 -0.4350  0.5926 -0.8046
 8831SOL    HW127392   6.956   1.569   3.024  0.3028 -2.5412 -1.0279
 8831SOL    HW227393   7.049   1.492   3.133  1.2867  2.0144  1.6353
 8832SOL     OW27394   0.578   5.398   3.725  0.1350  0.4203 -0.3035
 8832SOL    HW127395   0.498   5.447   3.691  0.0220  1.2731  1.0928
 8832SOL    HW227396   0.588   5.312   3.676 -1.9631  0.0317 -0.1374
 8833SOL     OW27397   2.744   5.654   5.440 -0.0514 -0.0330  0.2364
 8833SOL    HW127398   2.827   5.611   5.404  0.4868  0.1537  1.2056
 8833SOL    HW227399   2.681   5.583   5.471  0.4763 -0.1757  1.0449
 8834SOL     OW27400   6.027   4.302   3.885 -0.2142 -0.6696  1.2650
 8834SOL    HW127401   5.981   4.381   3.924 -1.1727 -0.7892  0.4133
 8834SOL    HW227402   5.973   4.220   3.903 -0.5507 -0.7599 -0.0521
 8835SOL     OW27403   4.577   1.314   5.465  0.0076  0.3495 -0.2021
 8835SOL    HW127404   4.522   1.396   5.451  0.9046  1.4225  2.0784
 8835SOL    HW227405   4.561   1.278   5.557  2.1326 -0.0151  0.0861
 8836SOL     OW27406   3.457   1.960   4.695 -0.1945 -0.0169  0.0408
 8836SOL    HW127407   3.421   1.999   4.779  1.9328 -0.5417  1.2690
 8836SOL    HW227408   3.416   2.005   4.616 -0.0720  2.5600  1.3663
 8837SOL     OW27409   6.312   5.776   2.097  0.3195  0.4542  0.1711
 8837SOL    HW127410   6.213   5.775   2.107  0.3207 -1.6763  0.4714
 8837SOL    HW227411   6.347   5.682   2.098  2.3244  1.1350 -0.1861
 8838SOL     OW27412   2.562   6.053   3.242  0.1299  0.0814  0.0810
 8838SOL    HW127413   2.540   6.125   3.175 -1.3622 -0.2885  0.1362
 8838SOL    HW227414   2.562   5.964   3.197  0.7438 -0.0120  0.2593
 8839SOL     OW27415   4.886   3.769   1.972 -0.3265  0.2792  0.4962
 8839SOL    HW127416   4.983   3.747   1.957 -0.5268 -1.3876  1.3309
 8839SOL    HW227417   4.854   3.830   1.900  1.1006  0.1027 -0.3358
 8840SOL     OW27418   6.661   2.678   0.945  0.7827 -0.7989 -0.3764
 8840SOL    HW127419   6.687   2.595   0.995  2.3537  1.2144  2.3925
 8840SOL    HW227420   6.743   2.723   0.910  0.1520  0.5221 -0.2220
 8841SOL     OW27421   6.539   6.131   5.861 -0.3688  0.0884  0.1515
 8841SOL    HW127422   6.509   6.039   5.836  0.7050 -0.7126  1.6440
 8841SOL    HW227423   6.604   6.164   5.793 -0.6212 -0.3339 -0.3006
 8842SOL     OW27424   4.246   3.337   1.875  0.1473  0.4604 -0.0223
 8842SOL    HW127425   4.176   3.282   1.829 -1.1164  1.1320  1.0179
 8842SOL    HW227426   4.287   3.284   1.950 -0.1165  0.4775  0.1344
 8843SOL     OW27427   2.039   3.644   4.588  0.9490  0.4660  0.4576
 8843SOL    HW127428   2.068   3.662   4.682  0.2414 -0.9480  0.9747
 8843SOL    HW227429   2.039   3.546   4.571 -1.5621  0.4901 -0.1317
 8844SOL     OW27430   6.787   1.085   0.729 -0.1663 -0.2016 -0.1426
 8844SOL    HW127431   6.727   1.111   0.655  1.3424  1.6167 -0.8080
 8844SOL    HW227432   6.735   1.075   0.814 -1.4774  0.5415 -0.8478
 8845SOL     OW27433   3.311   4.499   1.186  0.0223  0.5226  0.2626
 8845SOL    HW127434   3.304   4.562   1.109 -1.7835 -0.7399 -0.6840
 8845SOL    HW227435   3.398   4.451   1.183 -0.1807  0.2151 -1.2476
 8846SOL     OW27436   4.158   6.493   3.611 -0.1165 -0.0998 -0.2871
 8846SOL    HW127437   4.213   6.567   3.651  0.1221 -0.3500 -0.1521
 8846SOL    HW227438   4.196   6.405   3.639 -0.3424 -0.2734 -0.5314
 8847SOL     OW27439   2.633   2.087   2.882 -0.3127  0.0867  0.3936
 8847SOL    HW127440   2.637   2.186   2.898 -1.0384  0.2101 -0.1719
 8847SOL    HW227441   2.541   2.053   2.901 -0.6082 -0.1419 -1.3157
 8848SOL     OW27442   3.445   5.678   4.264 -0.3920  0.0501  0.5333
 8848SOL    HW127443   3.506   5.755   4.282 -0.0499  0.1936 -1.0918
 8848SOL    HW227444   3.386   5.699   4.186  1.0416 -2.0307 -1.2394
 8849SOL     OW27445   3.525   6.756   3.204  0.3048 -0.3822 -0.2249
 8849SOL    HW127446   3.576   6.675   3.234  0.5823  0.3335  1.3958
 8849SOL    HW227447   3.452   6.729   3.142 -0.0403 -1.9794  0.8018
 8850SOL     OW27448   1.517   0.823   0.460  0.1105  0.1058  0.1926
 8850SOL    HW127449   1.560   0.736   0.439 -2.5926 -1.1071 -0.8344
 8850SOL    HW227450   1.493   0.870   0.375 -1.9914 -0.0735  0.6359
 8851SOL     OW27451   1.984   3.837   3.937  0.4592  0.1331  0.4620
 8851SOL    HW127452   2.061   3.892   3.903 -0.1346  1.2099  0.8165
 8851SOL    HW227453   2.011   3.741   3.940  2.2055  0.6135  1.7130
 8852SOL     OW27454   0.582   2.334   4.582 -0.1743  0.3704  0.6574
 8852SOL    HW127455   0.501   2.379   4.544  1.1693  0.8399 -1.8680
 8852SOL    HW227456   0.621   2.392   4.654 -0.4594  1.5722 -0.1216
 8853SOL     OW27457   1.854   0.376   2.653  0.7648 -0.4768 -0.5976
 8853SOL    HW127458   1.867   0.438   2.731  0.1892 -0.6374 -0.3615
 8853SOL    HW227459   1.932   0.314   2.646  0.7477 -0.5722 -0.0361
 8854SOL     OW27460   0.840   3.922   3.219 -0.4129 -0.0241  0.3658
 8854SOL    HW127461   0.774   3.903   3.146 -0.7192  2.7181 -0.1598
 8854SOL    HW227462   0.824   3.859   3.295 -1.2549 -1.7759 -1.1730
 8855SOL     OW27463   0.995   4.980   0.990  0.4947 -0.0342 -0.3371
 8855SOL    HW127464   0.959   5.035   1.065  1.0698  0.6099 -0.5221
 8855SOL    HW227465   1.058   4.911   1.027 -0.6531 -0.9547 -0.0483
 8856SOL     OW27466   0.871   6.699   6.205  0.0469 -0.1436  0.4561
 8856SOL    HW127467   0.924   6.624   6.245 -1.0902 -0.6560  1.0609
 8856SOL    HW227468   0.822   6.747   6.278 -0.6583  0.0426 -0.1288
 8857SOL     OW27469   4.808   6.418   3.448  0.7439  0.8002 -0.2459
 8857SOL    HW127470   4.866   6.491   3.483  1.7137  0.0865 -0.3314
 8857SOL    HW227471   4.774   6.442   3.357  2.6342  0.3513 -1.1187
 8858SOL     OW27472   0.831   3.044   3.816  0.2329 -0.0836 -0.3168
 8858SOL    HW127473   0.735   3.031   3.841  0.5773 -1.7662  0.3111
 8858SOL    HW227474   0.840   3.044   3.716 -0.4716  0.6970 -0.3894
 8859SOL     OW27475   0.065   6.573   3.177  0.6372  0.2955 -0.4362
 8859SOL    HW127476   0.085   6.622   3.261 -2.4087  0.1047  0.5186
 8859SOL    HW227477   0.133   6.502   3.163  0.2128 -0.9482  2.9435
 8860SOL     OW27478   1.076   1.836   0.423  0.1273  0.1184  0.0984
 8860SOL    HW127479   1.085   1.740   0.396  1.6294  0.5394 -0.9890
 8860SOL    HW227480   1.122   1.851   0.510  0.4435 -0.0266 -0.0421
 8861SOL     OW27481   2.475   0.907   5.256 -0.2608 -0.5680  0.0850
 8861SOL    HW127482   2.389   0.954   5.236  1.0930  1.6956 -0.8123
 8861SOL    HW227483   2.500   0.923   5.351  1.3538  2.8246 -0.7466
 8862SOL     OW27484   6.629   6.764   4.870  0.1104 -0.3098  0.5487
 8862SOL    HW127485   6.657   6.680   4.823  1.4877  0.4631 -0.0717
 8862SOL    HW227486   6.709   6.807   4.910 -0.4185  1.1968  0.0450
 8863SOL     OW27487   2.798   5.309   4.132  0.1974 -0.4272 -0.4448
 8863SOL    HW127488   2.746   5.383   4.090  1.1244 -0.1563 -1.1291
 8863SOL    HW227489   2.845   5.344   4.213 -0.2211 -0.5416 -0.1446
 8864SOL     OW27490   1.879   3.598   6.667  0.0199  0.0431  0.1432
 8864SOL    HW127491   1.847   3.504   6.652 -0.9250  0.2119  1.0126
 8864SOL    HW227492   1.854   3.654   6.588 -2.5384  0.3290  1.0654
 8865SOL     OW27493   2.774   1.060   4.244  0.2259 -0.3573 -0.0270
 8865SOL    HW127494   2.854   1.088   4.297  0.1628  0.6173 -0.4258
 8865SOL    HW227495   2.766   0.961   4.245  1.9737 -0.5304 -0.7357
 8866SOL     OW27496   5.494   4.769   1.839  0.2126  0.9405  0.5861
 8866SOL    HW127497   5.502   4.866   1.860 -1.2309  1.0532  0.6661
 8866SOL    HW227498   5.428   4.755   1.765  1.0190  0.0767 -0.0029
 8867SOL     OW27499   5.544   6.237   2.492 -0.0819 -0.6590  0.1243
 8867SOL    HW127500   5.627   6.204   2.447 -0.7905 -2.7339  0.2722
 8867SOL    HW227501   5.517   6.324   2.450  0.4240 -1.4854 -2.0476
 8868SOL     OW27502   5.756   3.518   1.776 -0.2828 -0.5805  0.2371
 8868SOL    HW127503   5.831   3.551   1.719 -0.9006  0.7222  0.1275
 8868SOL    HW227504   5.789   3.446   1.837  1.2535  0.4311  0.6718
 8869SOL     OW27505   2.988   6.287   0.342  0.1663  0.6436  0.1263
 8869SOL    HW127506   3.054   6.243   0.403 -1.3212  1.7375  2.6903
 8869SOL    HW227507   2.901   6.238   0.347 -0.2458  1.3186 -0.3866
 8870SOL     OW27508   2.434   5.171   2.399 -1.0386  0.3702  0.2598
 8870SOL    HW127509   2.504   5.119   2.349 -0.2738  0.3062  1.3599
 8870SOL    HW227510   2.470   5.261   2.422 -0.8884 -0.0389  1.7573
 8871SOL     OW27511   2.616   0.122   3.982  0.3912  0.1317 -0.0402
 8871SOL    HW127512   2.531   0.101   3.935  0.4663  1.2376 -0.7202
 8871SOL    HW227513   2.693   0.104   3.921  0.5063  1.2441 -0.2540
 8872SOL     OW27514   1.502   6.087   0.700 -0.2120 -0.3089  0.7732
 8872SOL    HW127515   1.462   6.074   0.791  0.7917  2.3267  1.7100
 8872SOL    HW227516   1.594   6.047   0.699  0.2469  0.6850  1.3668
 8873SOL     OW27517   2.881   1.096   2.597 -0.4248  0.5818 -0.3243
 8873SOL    HW127518   2.981   1.090   2.598 -0.4804 -1.0504  1.3515
 8873SOL    HW227519   2.843   1.006   2.575 -1.4857  0.4324  1.8619
 8874SOL     OW27520   3.225   6.071   2.141 -0.4447 -0.1661  0.5860
 8874SOL    HW127521   3.246   6.059   2.044  0.6652  0.1531  0.7797
 8874SOL    HW227522   3.134   6.034   2.160 -0.6947 -0.1733 -0.5852
 8875SOL     OW27523   6.692   3.008   4.179 -0.0741 -0.1871  0.1270
 8875SOL    HW127524   6.633   3.010   4.097 -0.0004 -0.1176  0.0754
 8875SOL    HW227525   6.763   3.077   4.170 -0.8040  0.6634  0.8043
 8876SOL     OW27526   2.018   0.995   5.370 -0.2033 -0.0671  0.4774
 8876SOL    HW127527   1.961   0.947   5.438  0.6521 -0.4166  0.9623
 8876SOL    HW227528   2.101   1.028   5.414  0.8226 -1.1209 -0.6029
 8877SOL     OW27529   2.151   3.151   3.668 -1.0116 -0.3995 -0.4795
 8877SOL    HW127530   2.230   3.212   3.667 -0.4237 -0.9674  2.5332
 8877SOL    HW227531   2.181   3.057   3.654 -1.1139 -0.6081  0.5992
 8878SOL     OW27532   2.982   5.920   2.188  0.1006  0.5851  0.3865
 8878SOL    HW127533   3.012   5.900   2.282  0.0192 -2.2143 -0.0750
 8878SOL    HW227534   3.013   5.846   2.128  0.7538  2.6571 -1.9701
 8879SOL     OW27535   4.948   2.629   1.148 -0.4973 -0.3451  0.0705
 8879SOL    HW127536   4.915   2.653   1.239 -0.4483  1.8567 -0.4343
 8879SOL    HW227537   5.041   2.594   1.155 -0.5765 -0.4215  0.8905
 8880SOL     OW27538   3.552   6.305   3.802 -0.1721  0.0946  0.0427
 8880SOL    HW127539   3.461   6.325   3.839  0.5373  0.7844  1.4577
 8880SOL    HW227540   3.620   6.310   3.875  1.5162  2.9372 -1.5590
 8881SOL     OW27541   4.856   4.885   3.707  0.3885  0.7025 -0.2498
 8881SOL    HW127542   4.841   4.833   3.623 -0.7199 -0.7994  0.8219
 8881SOL    HW227543   4.772   4.933   3.732 -0.9939 -2.6904  2.4356
 8882SOL     OW27544   5.737   1.394   1.641 -0.0669 -0.4698  0.3458
 8882SOL    HW127545   5.674   1.375   1.716 -0.7530  0.6040  0.0659
 8882SOL    HW227546   5.813   1.449   1.675 -0.5421  0.2872  0.2031
 8883SOL     OW27547   0.556   6.257   5.416  0.2221  0.7386 -0.2608
 8883SOL    HW127548   0.539   6.348   5.453 -0.7582 -0.1423  1.6179
 8883SOL    HW227549   0.586   6.265   5.321  1.6591  3.0711  0.2931
 8884SOL     OW27550   6.117   3.359   5.495  0.0416  0.0435 -0.9031
 8884SOL    HW127551   6.063   3.277   5.513  0.6177 -0.0718  0.4364
 8884SOL    HW227552   6.117   3.378   5.397  0.6804 -2.1111 -1.3712
 8885SOL     OW27553   4.222   4.657   0.910  0.2215  0.4838 -0.4452
 8885SOL    HW127554   4.160   4.590   0.872 -0.8632  1.2973 -0.1632
 8885SOL    HW227555   4.260   4.623   0.996 -0.9436  0.5356  0.1093
 8886SOL     OW27556   3.203   0.336   5.738  0.2132  0.6698 -0.5273
 8886SOL    HW127557   3.146   0.404   5.785 -0.1285 -0.9427  1.5627
 8886SOL    HW227558   3.146   0.280   5.678  0.0255  0.5902 -0.2766
 8887SOL     OW27559   3.859   0.215   0.666  0.0120 -0.5212  0.4701
 8887SOL    HW127560   3.846   0.311   0.692  0.7116 -0.4539  0.5755
 8887SOL    HW227561   3.950   0.185   0.693 -0.4779 -1.4572  1.1600
 8888SOL     OW27562   2.854   2.141   4.745  0.6100 -0.1582 -0.1869
 8888SOL    HW127563   2.950   2.124   4.727  0.6626 -0.4013  0.3097
 8888SOL    HW227564   2.798   2.078   4.691  0.7702 -0.9721  0.5669
 8889SOL     OW27565   5.162   1.141   5.499 -0.2057 -0.3783  0.0763
 8889SOL    HW127566   5.140   1.044   5.509  1.5994 -0.8293  0.1157
 8889SOL    HW227567   5.079   1.196   5.505 -1.0511 -1.7689  2.0229
 8890SOL     OW27568   0.871   4.537   4.014  0.2827 -0.4145  0.3973
 8890SOL    HW127569   0.896   4.464   4.078 -1.2886 -0.8849  0.5207
 8890SOL    HW227570   0.773   4.556   4.023  0.5847  1.4394  0.0718
 8891SOL     OW27571   4.244   3.250   6.770  0.4159  0.6769  0.1460
 8891SOL    HW127572   4.319   3.315   6.778  0.6117  0.5020 -0.2455
 8891SOL    HW227573   4.262   3.170   6.828  1.1799  0.0306 -0.9383
 8892SOL     OW27574   5.458   6.459   3.856  0.6196  0.9126  0.0630
 8892SOL    HW127575   5.498   6.381   3.906  1.1871  0.4968 -1.0192
 8892SOL    HW227576   5.490   6.544   3.897  0.6943  0.5789  0.7163
 8893SOL     OW27577   6.475   3.374   3.640  0.2790 -0.8536 -0.0558
 8893SOL    HW127578   6.416   3.385   3.719  0.8496  0.2099  0.2478
 8893SOL    HW227579   6.570   3.365   3.670  0.4801 -0.6343 -0.6039
 8894SOL     OW27580   2.232   2.527   0.454  0.0556 -0.1746 -0.0187
 8894SOL    HW127581   2.195   2.619   0.468  0.3238 -0.3258  2.1525
 8894SOL    HW227582   2.332   2.532   0.446  0.3733 -0.3914  2.7155
 8895SOL     OW27583   0.672   1.019   1.868 -0.1212 -0.4763 -0.0711
 8895SOL    HW127584   0.631   0.940   1.823  0.1609  0.0636 -1.2961
 8895SOL    HW227585   0.706   1.083   1.800  2.9590 -0.9747  0.8623
 8896SOL     OW27586   2.194   3.794   5.205 -0.2557  0.2493 -0.6430
 8896SOL    HW127587   2.291   3.794   5.181 -0.8329 -0.1950 -3.1816
 8896SOL    HW227588   2.159   3.888   5.203  0.0323  0.3778  0.0042
 8897SOL     OW27589   2.463   2.242   1.401  0.1021 -0.2522 -0.2439
 8897SOL    HW127590   2.473   2.302   1.322  0.9785  1.1016  0.8378
 8897SOL    HW227591   2.545   2.247   1.458 -0.4844 -1.2110  0.7444
 8898SOL     OW27592   5.090   4.277   1.622  0.1783  0.0745 -0.0363
 8898SOL    HW127593   5.043   4.221   1.553  0.0510 -0.0472  0.1506
 8898SOL    HW227594   5.182   4.241   1.636  0.8192  1.0885 -1.3658
 8899SOL     OW27595   1.043   6.175   0.927  0.3225  0.0294 -0.6569
 8899SOL    HW127596   1.109   6.167   1.001  1.4184  0.2633 -1.5744
 8899SOL    HW227597   0.963   6.225   0.959  0.7659  0.1177  0.3610
 8900SOL     OW27598   6.446   2.927   2.752  0.2062  0.1667  0.2158
 8900SOL    HW127599   6.486   3.019   2.757  1.0406 -0.1677 -0.1849
 8900SOL    HW227600   6.404   2.914   2.662 -1.2461  0.6761  0.7826
 8901SOL     OW27601   1.474   0.656   3.295  0.3997  0.1929  0.1494
 8901SOL    HW127602   1.439   0.734   3.243 -0.1651  0.5790  1.0751
 8901SOL    HW227603   1.470   0.678   3.393 -2.0766 -1.8671  0.6096
 8902SOL     OW27604   1.393   5.338   6.727  0.3814 -0.5415 -0.3024
 8902SOL    HW127605   1.356   5.291   6.647  0.4571 -0.6239 -0.2892
 8902SOL    HW227606   1.337   5.316   6.807  1.0852 -1.5399 -0.0654
 8903SOL     OW27607   0.090   2.077   4.007  0.7824  0.0112 -0.0113
 8903SOL    HW127608   0.110   2.174   4.016 -0.1314  0.4033 -1.8006
 8903SOL    HW227609   0.142   2.038   3.931  2.5621 -1.3805  1.8186
 8904SOL     OW27610   1.892   1.299   4.067  0.0339 -0.5151 -0.9675
 8904SOL    HW127611   1.879   1.204   4.096 -1.3519 -0.1529 -0.3457
 8904SOL    HW227612   1.808   1.334   4.027  0.1938  0.7711 -0.2372
 8905SOL     OW27613   0.391   2.937   2.084 -0.2928  0.0439  0.2180
 8905SOL    HW127614   0.419   2.887   2.002 -0.7100 -1.3024  0.8688
 8905SOL    HW227615   0.400   3.036   2.068  1.4260 -0.2427 -0.7908
 8906SOL     OW27616   1.510   6.568   0.154 -0.3210  0.6739 -0.0579
 8906SOL    HW127617   1.454   6.501   0.106 -1.1299  2.7100 -2.1504
 8906SOL    HW227618   1.607   6.543   0.146 -0.7037 -2.3508  2.7661
 8907SOL     OW27619   3.347   3.307   5.748  0.5569  0.0843  0.0775
 8907SOL    HW127620   3.259   3.330   5.705 -0.4286 -1.1476  1.3598
 8907SOL    HW227621   3.331   3.277   5.842  2.1513 -2.0426 -0.2755
 8908SOL     OW27622   2.055   5.548   1.592  0.2077  0.4501  0.0103
 8908SOL    HW127623   2.048   5.450   1.610  0.2496  0.5902  0.7961
 8908SOL    HW227624   1.979   5.596   1.636  0.6663  0.8679  0.3617
 8909SOL     OW27625   1.459   1.437   0.592 -0.5581 -0.6515  0.9363
 8909SOL    HW127626   1.432   1.388   0.675 -0.6466  0.9902  1.9147
 8909SOL    HW227627   1.559   1.442   0.587 -0.5134 -1.7486  0.3054
 8910SOL     OW27628   1.137   3.194   3.518  0.0867 -0.4175 -0.3034
 8910SOL    HW127629   1.143   3.282   3.565  1.2968 -0.8393  0.3725
 8910SOL    HW227630   1.209   3.133   3.552  0.1003 -1.2234 -1.7196
 8911SOL     OW27631   4.437   3.843   6.054 -0.5089  0.3335  0.6080
 8911SOL    HW127632   4.355   3.883   6.096 -0.1251  0.8874  0.8430
 8911SOL    HW227633   4.456   3.755   6.098 -1.8219 -0.5266 -0.4626
 8912SOL     OW27634   1.798   3.045   6.756  0.0128 -0.1973 -0.3383
 8912SOL    HW127635   1.890   3.076   6.732 -0.2943 -0.0053 -1.3178
 8912SOL    HW227636   1.738   3.125   6.767 -0.3260 -0.3661 -0.9396
 8913SOL     OW27637   3.022   5.059   5.818  0.2634 -0.0712  0.7996
 8913SOL    HW127638   3.036   4.960   5.812  2.7654  0.3272 -2.7849
 8913SOL    HW227639   2.946   5.077   5.881 -0.1984 -4.1922  1.7580
 8914SOL     OW27640   6.734   0.279   5.124  0.1610  0.4167 -0.6830
 8914SOL    HW127641   6.784   0.247   5.204 -1.0244  0.5633  0.1315
 8914SOL    HW227642   6.761   0.373   5.103  1.1014  0.0925 -0.9971
 8915SOL     OW27643   2.466   2.204   5.124  0.2006 -0.2963  0.1988
 8915SOL    HW127644   2.485   2.119   5.173  1.2357  0.4268  1.1053
 8915SOL    HW227645   2.542   2.223   5.061 -0.6067 -0.6584 -0.9036
 8916SOL     OW27646   1.544   3.224   5.367 -0.4517  0.4076 -0.5189
 8916SOL    HW127647   1.634   3.254   5.334 -0.1938  1.2541  0.8966
 8916SOL    HW227648   1.498   3.300   5.412 -0.9741 -0.5774  0.6494
 8917SOL     OW27649   5.656   3.303   2.414 -0.2448 -0.6541 -0.0242
 8917SOL    HW127650   5.747   3.274   2.444  0.5364  0.0654 -1.5816
 8917SOL    HW227651   5.601   3.326   2.494  1.1130 -0.5748  0.9395
 8918SOL     OW27652   5.956   4.135   6.705 -0.1162 -0.3928 -0.2016
 8918SOL    HW127653   5.959   4.046   6.659  1.2902 -0.1177 -0.7117
 8918SOL    HW227654   5.896   4.130   6.785  0.1804 -1.8923 -0.0508
 8919SOL     OW27655   4.588   5.719   6.449  0.0777 -0.0350  0.7142
 8919SOL    HW127656   4.606   5.621   6.440 -0.3708 -0.2003  1.4835
 8919SOL    HW227657   4.507   5.744   6.395  1.6925  0.4449 -1.6279
 8920SOL     OW27658   0.346   1.294   6.039  0.0373  0.4670 -0.6966
 8920SOL    HW127659   0.316   1.250   6.124  2.2550  0.2032 -0.0018
 8920SOL    HW227660   0.329   1.233   5.962 -1.8140  0.6278 -0.4600
 8921SOL     OW27661   2.112   5.339   2.436  0.3123  0.0407  0.2696
 8921SOL    HW127662   2.131   5.267   2.503 -2.8550 -0.1090  1.1902
 8921SOL    HW227663   2.097   5.425   2.484 -1.2396  0.0987 -0.2597
 8922SOL     OW27664   3.797   4.883   1.830 -0.7231 -0.3891  0.3287
 8922SOL    HW127665   3.808   4.967   1.882  0.5144 -0.7933  0.7493
 8922SOL    HW227666   3.731   4.823   1.876 -0.9191 -0.0398  0.5079
 8923SOL     OW27667   1.883   0.155   6.583 -0.7200  0.1810  0.5399
 8923SOL    HW127668   1.882   0.255   6.571 -0.9807 -0.0967 -2.7810
 8923SOL    HW227669   1.975   0.126   6.610  0.7400  1.0921 -2.8435
 8924SOL     OW27670   6.418   5.822   4.401 -0.6884 -0.2646 -0.8474
 8924SOL    HW127671   6.436   5.793   4.306 -4.1675  1.6791 -2.2972
 8924SOL    HW227672   6.320   5.836   4.413 -0.2606  0.5119  2.8545
 8925SOL     OW27673   0.049   0.003   3.487 -0.1347 -0.0614 -0.2440
 8925SOL    HW127674  -0.023   0.071   3.504 -0.3877 -0.2294 -0.6249
 8925SOL    HW227675   0.087  -0.027   3.574  0.9933  1.6287 -0.0951
 8926SOL     OW27676   1.105   2.529   5.763 -0.0255 -0.3881 -0.3260
 8926SOL    HW127677   1.037   2.601   5.750  0.1105 -0.0051  1.0465
 8926SOL    HW227678   1.159   2.520   5.679 -0.4268  0.6845 -0.7221
 8927SOL     OW27679   5.290   1.191   3.574 -0.3000  0.6846 -0.4915
 8927SOL    HW127680   5.262   1.099   3.604 -0.5010  0.4599 -1.3294
 8927SOL    HW227681   5.376   1.185   3.523 -0.2144  0.9940 -0.3872
 8928SOL     OW27682   0.800   6.818   5.975 -0.0500 -0.2508 -0.0831
 8928SOL    HW127683   0.803   6.774   5.885 -0.2163 -0.6483  0.1026
 8928SOL    HW227684   0.842   6.758   6.042  0.9035  0.4317 -0.0475
 8929SOL     OW27685   6.697   1.095   5.287  0.3722 -0.4681  0.3158
 8929SOL    HW127686   6.608   1.103   5.333  0.2264 -0.7391  0.0883
 8929SOL    HW227687   6.752   1.026   5.334  1.3167  1.2100  1.7871
 8930SOL     OW27688   6.714   0.375   2.501 -0.2388  0.0938  0.0116
 8930SOL    HW127689   6.781   0.358   2.573  0.4650  0.5722 -0.5204
 8930SOL    HW227690   6.622   0.372   2.539 -0.0889 -2.9285  0.3397
 8931SOL     OW27691   2.575   6.640   6.490 -0.1300 -0.2873 -0.1857
 8931SOL    HW127692   2.617   6.727   6.516  0.0316 -0.7881  1.3411
 8931SOL    HW227693   2.622   6.602   6.410  1.5062 -0.2101  0.7002
 8932SOL     OW27694   6.324   0.513   2.764 -0.1972  0.0967  0.2136
 8932SOL    HW127695   6.354   0.424   2.728 -2.2795 -0.1468 -1.0726
 8932SOL    HW227696   6.390   0.545   2.832  0.3683 -2.7001  1.1495
 8933SOL     OW27697   2.634   1.340   6.588  0.0219 -1.0680  0.2200
 8933SOL    HW127698   2.565   1.299   6.646 -0.1752 -2.4038 -0.9044
 8933SOL    HW227699   2.591   1.403   6.523 -0.0713 -1.4413 -0.0826
 8934SOL     OW27700   1.974   5.770   4.739  0.3153  0.3277 -0.5497
 8934SOL    HW127701   1.988   5.685   4.689  1.9192  0.9589 -1.2260
 8934SOL    HW227702   1.964   5.750   4.836 -0.5648 -0.7122 -0.8253
 8935SOL     OW27703   1.671   5.661   0.130  0.0541 -0.4456 -0.1223
 8935SOL    HW127704   1.749   5.691   0.075 -0.6612  0.3677 -0.7210
 8935SOL    HW227705   1.702   5.595   0.199  1.2186 -0.3244 -0.5095
 8936SOL     OW27706   0.332   4.126   3.526 -0.2404 -0.5693 -0.7937
 8936SOL    HW127707   0.426   4.101   3.502 -0.3901 -3.7820  1.3711
 8936SOL    HW227708   0.330   4.222   3.555  2.5052 -0.5395 -0.3743
 8937SOL     OW27709   2.576   1.886   6.008 -0.7219  0.2222  0.1397
 8937SOL    HW127710   2.581   1.954   5.934  2.1954 -0.3312 -0.2763
 8937SOL    HW227711   2.502   1.911   6.070 -1.4172  2.3233 -1.3904
 8938SOL     OW27712   7.015   5.790   0.286 -0.7708 -0.8311 -0.2309
 8938SOL    HW127713   6.944   5.857   0.265 -1.1182 -0.9495  0.5441
 8938SOL    HW227714   7.026   5.728   0.208 -0.7407 -0.1385 -0.7871
 8939SOL     OW27715   5.142   3.776   2.402 -0.0318 -0.3835 -0.4488
 8939SOL    HW127716   5.170   3.870   2.386  0.0052  0.0418  1.8840
 8939SOL    HW227717   5.222   3.716   2.399  0.1751 -0.1150 -0.2600
 8940SOL     OW27718   5.535   3.248   1.559  0.4958 -0.4201  0.0476
 8940SOL    HW127719   5.588   3.190   1.621  1.6202  0.1551 -0.3456
 8940SOL    HW227720   5.530   3.341   1.596 -0.9107 -0.6283  0.4518
 8941SOL     OW27721   6.391   2.940   4.261  0.0562 -0.5088 -0.4532
 8941SOL    HW127722   6.352   3.000   4.190 -0.4328 -0.3448 -0.0546
 8941SOL    HW227723   6.491   2.944   4.257  0.0284  0.1449 -0.5948
 8942SOL     OW27724   6.195   5.661   1.368  0.4060  0.4014  0.2986
 8942SOL    HW127725   6.124   5.667   1.439 -0.1945  1.2436 -0.3545
 8942SOL    HW227726   6.211   5.564   1.347 -0.3573  0.1826  0.6546
 8943SOL     OW27727   3.976   3.846   5.651  0.0095  0.4515  0.0977
 8943SOL    HW127728   4.003   3.750   5.652  2.4111  1.0677  1.0165
 8943SOL    HW227729   3.949   3.872   5.559  2.2904 -0.3723 -0.8619
 8944SOL     OW27730   5.673   6.198   4.495  0.5292 -0.6324  0.2290
 8944SOL    HW127731   5.703   6.289   4.523 -2.7216  0.2526  1.3606
 8944SOL    HW227732   5.725   6.129   4.544  1.7781  0.6626  0.7868
 8945SOL     OW27733   6.419   4.856   1.250  0.4553  0.0428  0.3927
 8945SOL    HW127734   6.333   4.817   1.219 -1.2685  2.9813  1.0688
 8945SOL    HW227735   6.460   4.908   1.175  1.2233 -0.6161  0.3412
 8946SOL     OW27736   3.631   1.084   5.353 -0.2530  0.7013 -0.0427
 8946SOL    HW127737   3.574   1.159   5.320  0.9282  1.1484 -1.1667
 8946SOL    HW227738   3.632   1.010   5.286 -0.6456  0.0648  0.6283
 8947SOL     OW27739   1.888   4.237   4.887 -0.0984 -1.2071 -0.1396
 8947SOL    HW127740   1.915   4.290   4.967  1.9892 -0.5511 -1.1985
 8947SOL    HW227741   1.866   4.143   4.914 -0.0212 -0.8351  1.2583
 8948SOL     OW27742   4.338   1.163   5.386 -0.2060 -0.1588  0.7300
 8948SOL    HW127743   4.434   1.187   5.398  0.0434 -1.1982  0.8857
 8948SOL    HW227744   4.319   1.149   5.289  0.2431 -1.6940  0.8458
 8949SOL     OW27745   1.445   0.516   2.099  0.1069 -0.0174  0.1724
 8949SOL    HW127746   1.345   0.517   2.094  0.1317  0.1232 -0.3150
 8949SOL    HW227747   1.474   0.439   2.156 -0.2833  0.0338  0.4484
 8950SOL     OW27748   3.518   3.479   5.661 -0.4021 -0.0989 -0.2150
 8950SOL    HW127749   3.599   3.488   5.719  0.3677  0.9624 -1.3983
 8950SOL    HW227750   3.449   3.425   5.709  0.7013 -0.3850  1.1331
 8951SOL     OW27751   1.931   0.423   0.165 -0.0485 -0.1057 -0.1483
 8951SOL    HW127752   1.994   0.398   0.238  0.0224 -1.5406 -0.6612
 8951SOL    HW227753   1.843   0.378   0.181 -0.1264 -0.1882 -0.7756
 8952SOL     OW27754   2.492   4.910   1.919 -0.2118  0.4258 -0.0835
 8952SOL    HW127755   2.496   4.981   1.989 -1.6695  0.6419 -0.1986
 8952SOL    HW227756   2.426   4.936   1.848  0.8140 -0.0518 -1.2596
 8953SOL     OW27757   2.902   2.515   0.903  0.1329  0.0622  0.7974
 8953SOL    HW127758   2.992   2.556   0.919 -0.6581  1.9001  0.7243
 8953SOL    HW227759   2.887   2.504   0.805  0.7858 -1.4788  0.8513
 8954SOL     OW27760   6.248   0.531   4.710 -0.0059 -0.9955  0.4782
 8954SOL    HW127761   6.304   0.598   4.758  1.3419 -0.7122 -1.4106
 8954SOL    HW227762   6.291   0.441   4.714  1.0645 -0.6196 -1.6599
 8955SOL     OW27763   1.452   5.441   1.485 -0.1815  0.1228 -0.0391
 8955SOL    HW127764   1.520   5.372   1.460  1.1093  1.1422  0.5217
 8955SOL    HW227765   1.373   5.397   1.527  0.0045 -1.1158 -0.9318
 8956SOL     OW27766   0.096   6.345   6.252  0.2670  0.4418 -0.2765
 8956SOL    HW127767   0.188   6.382   6.267  0.4984 -0.8873  2.2329
 8956SOL    HW227768   0.099   6.276   6.180  1.2464  0.4351 -0.2399
 8957SOL     OW27769   2.526   5.074   1.500 -0.2490  0.4146  0.0406
 8957SOL    HW127770   2.595   5.056   1.430 -0.2586  0.5479 -0.0033
 8957SOL    HW227771   2.437   5.090   1.456 -0.1563  0.9898  0.0512
 8958SOL     OW27772   6.624   0.824   4.708 -0.3598  0.4076 -0.1112
 8958SOL    HW127773   6.704   0.799   4.762 -0.3677  0.8067  0.0916
 8958SOL    HW227774   6.637   0.915   4.668  0.6799 -0.8092 -2.8017
 8959SOL     OW27775   0.025   6.067   6.824  0.3714 -0.2293  0.3497
 8959SOL    HW127776   0.100   6.003   6.808  0.7301 -0.1341  1.5505
 8959SOL    HW227777   0.035   6.108   6.915 -0.7588  0.3019  0.2505
 8960SOL     OW27778   4.094   5.863   2.220  0.2076  0.5018  0.0005
 8960SOL    HW127779   3.996   5.881   2.205 -0.2602 -0.3263  1.7788
 8960SOL    HW227780   4.112   5.861   2.318  1.8985 -0.0387 -0.3008
 8961SOL     OW27781   2.000   2.728   3.881 -0.2902 -0.1648  0.5131
 8961SOL    HW127782   1.939   2.665   3.833  0.7071 -0.1959 -0.7683
 8961SOL    HW227783   2.031   2.686   3.966 -3.2332  0.4755  1.9991
 8962SOL     OW27784   5.211   5.842   0.512 -0.2907 -0.1610 -1.0804
 8962SOL    HW127785   5.202   5.917   0.577  0.7760  0.5192 -1.6850
 8962SOL    HW227786   5.226   5.756   0.561 -0.8537  0.1203 -0.4037
 8963SOL     OW27787   4.225   5.108   4.455  0.3749  0.1932 -0.4443
 8963SOL    HW127788   4.213   5.202   4.487 -1.0540 -0.4304  1.0290
 8963SOL    HW227789   4.144   5.079   4.405  0.0919 -0.7372  0.4996
 8964SOL     OW27790   5.773   3.512   4.872 -0.0161  1.2233 -0.3132
 8964SOL    HW127791   5.714   3.432   4.857  0.2547  1.3154 -1.9930
 8964SOL    HW227792   5.716   3.588   4.904 -0.3616  0.5365  0.7728
 8965SOL     OW27793   1.373   4.992   1.755  0.2233  0.0489  0.3548
 8965SOL    HW127794   1.398   4.915   1.696 -1.5035  1.3429 -2.2789
 8965SOL    HW227795   1.456   5.032   1.795  1.7177 -0.0121 -2.4203
 8966SOL     OW27796   6.388   4.930   3.826  1.0035 -0.1207  0.1754
 8966SOL    HW127797   6.450   4.866   3.779  1.0934  1.1931 -1.5738
 8966SOL    HW227798   6.435   5.016   3.842  0.8090 -0.3498  2.3274
 8967SOL     OW27799   4.007   0.479   1.829  0.3735  0.5370  0.3040
 8967SOL    HW127800   4.071   0.548   1.794  0.1293  1.0441  0.8284
 8967SOL    HW227801   3.972   0.509   1.918  1.0088 -0.7278  1.0102
 8968SOL     OW27802   4.653   4.530   3.500 -0.7627 -0.1910 -0.3483
 8968SOL    HW127803   4.603   4.572   3.576  0.5811 -0.6234  0.8266
 8968SOL    HW227804   4.670   4.433   3.522 -0.4720 -0.3570 -1.2726
 8969SOL     OW27805   6.705   6.839   4.345  0.2749  0.5445  0.2613
 8969SOL    HW127806   6.606   6.848   4.350  0.2656  1.6990 -1.4135
 8969SOL    HW227807   6.748   6.913   4.396  0.3071 -0.1574  1.2893
 8970SOL     OW27808   3.160   2.928   6.951  0.3236  0.1063 -0.0711
 8970SOL    HW127809   3.125   2.873   6.875 -1.6361  3.2063 -1.6168
 8970SOL    HW227810   3.103   2.913   7.032  0.6116 -1.0668 -0.0792
 8971SOL     OW27811   3.981   4.192   1.659 -0.1565 -0.3551  0.0878
 8971SOL    HW127812   4.069   4.148   1.681 -0.0968 -0.7245 -0.8380
 8971SOL    HW227813   3.907   4.128   1.680 -0.1237 -0.5507 -0.3867
 8972SOL     OW27814   5.208   4.206   0.395 -0.4878  0.1045 -0.3802
 8972SOL    HW127815   5.160   4.172   0.314 -0.7273 -1.9305  0.5631
 8972SOL    HW227816   5.276   4.139   0.424  0.3727  1.3123  0.4583
 8973SOL     OW27817   1.113   3.279   2.512 -0.1295  0.1067  0.1536
 8973SOL    HW127818   1.112   3.313   2.418 -1.3579  0.3883  0.2500
 8973SOL    HW227819   1.020   3.256   2.540  0.3293 -0.7396  1.0321
 8974SOL     OW27820   2.118   5.796   6.782  0.0341  0.2085  0.6105
 8974SOL    HW127821   2.106   5.882   6.831 -1.1165  0.1601  0.4300
 8974SOL    HW227822   2.054   5.792   6.705 -0.7041 -1.2756  1.2618
 8975SOL     OW27823   1.733   6.562   6.559  0.7047 -0.4349  0.1369
 8975SOL    HW127824   1.760   6.488   6.622 -0.1713  0.5650  1.7671
 8975SOL    HW227825   1.651   6.534   6.510  0.9055 -0.9056  0.0588
 8976SOL     OW27826   0.781   3.539   3.733 -0.2885  0.0223  0.2316
 8976SOL    HW127827   0.769   3.634   3.703 -2.0895 -0.6576 -1.4690
 8976SOL    HW227828   0.756   3.478   3.658  4.2302 -1.8882  0.0216
 8977SOL     OW27829   4.655   3.315   5.901 -0.4154 -0.0031  0.0330
 8977SOL    HW127830   4.561   3.350   5.906 -0.4015  0.1577 -0.6996
 8977SOL    HW227831   4.671   3.251   5.976 -1.2987 -0.4706 -0.1611
 8978SOL     OW27832   6.521   6.052   4.566 -0.6479  0.2040  0.0904
 8978SOL    HW127833   6.504   6.012   4.476  1.2519 -2.7120  0.8744
 8978SOL    HW227834   6.608   6.101   4.565  0.6811 -2.0136  0.8593
 8979SOL     OW27835   1.511   2.725   4.911 -0.1489 -0.1461  0.1312
 8979SOL    HW127836   1.471   2.642   4.950  0.3879  0.0585  1.1328
 8979SOL    HW227837   1.570   2.701   4.834 -0.2462 -0.6675  0.2187
 8980SOL     OW27838   1.034   3.826   6.129 -0.2939  0.2263  0.7202
 8980SOL    HW127839   0.960   3.790   6.072 -0.8299 -0.3485  1.7679
 8980SOL    HW227840   1.092   3.751   6.159  1.8805  0.8314 -1.6195
 8981SOL     OW27841   6.674   3.586   4.583 -0.2352 -0.0838 -0.0061
 8981SOL    HW127842   6.607   3.660   4.594  1.1923  1.3835 -0.6913
 8981SOL    HW227843   6.648   3.508   4.640 -1.2553  1.3312  1.5450
 8982SOL     OW27844   3.567   1.108   2.031  1.0233 -0.1406  0.1500
 8982SOL    HW127845   3.658   1.147   2.044  1.0618  0.2873 -1.1717
 8982SOL    HW227846   3.498   1.175   2.055  1.0828  0.1618 -0.4887
 8983SOL     OW27847   1.026   0.688   6.673  0.5767  0.3758 -0.2398
 8983SOL    HW127848   0.931   0.677   6.704 -0.3865  2.4672 -2.2122
 8983SOL    HW227849   1.050   0.611   6.613  0.4300 -0.5652  0.8705
 8984SOL     OW27850   1.097   1.173   6.076  0.0697 -0.1639  0.1361
 8984SOL    HW127851   1.063   1.193   6.168  1.7478  0.5305  0.6360
 8984SOL    HW227852   1.107   1.259   6.025  1.7601 -0.2419  0.2781
 8985SOL     OW27853   3.714   3.978   1.183 -0.1433 -0.5818 -0.5419
 8985SOL    HW127854   3.626   3.970   1.136 -0.9369 -1.3212  1.0150
 8985SOL    HW227855   3.785   3.934   1.127 -0.8953 -0.6736 -1.4497
 8986SOL     OW27856   3.922   5.589   1.022  0.0982 -0.0070  0.0449
 8986SOL    HW127857   3.862   5.517   0.988  1.2000 -0.9894  0.1229
 8986SOL    HW227858   3.867   5.667   1.051 -1.1341 -0.8908  0.1689
 8987SOL     OW27859   5.987   1.517   1.685  0.5150 -0.1235  0.2794
 8987SOL    HW127860   6.064   1.454   1.687  1.4524  0.9479  3.4447
 8987SOL    HW227861   6.020   1.611   1.675 -0.1921  0.4258  2.4055
 8988SOL     OW27862   0.571   4.232   5.834 -0.4980 -0.5163  0.0343
 8988SOL    HW127863   0.616   4.321   5.836  0.2167 -0.7503 -2.4496
 8988SOL    HW227864   0.555   4.201   5.928  1.1032  1.2604  0.9710
 8989SOL     OW27865   5.512   4.771   0.749  0.1856 -0.1162  0.0802
 8989SOL    HW127866   5.607   4.798   0.734  0.2298 -0.0971  0.3734
 8989SOL    HW227867   5.503   4.672   0.742  0.5308 -0.2775  1.5491
 8990SOL     OW27868   1.743   6.215   5.508  0.2139  0.3532 -0.2282
 8990SOL    HW127869   1.828   6.199   5.559  0.9067 -2.2948 -1.9984
 8990SOL    HW227870   1.666   6.185   5.563  0.6494  0.4328  0.4396
 8991SOL     OW27871   2.540   3.814   5.883  0.0590 -0.4974  0.2342
 8991SOL    HW127872   2.491   3.727   5.882  2.1275 -1.7607  1.6185
 8991SOL    HW227873   2.622   3.806   5.827  0.2936  0.5769  0.4087
 8992SOL     OW27874   5.463   1.394   6.558 -0.4803 -0.5560 -0.1430
 8992SOL    HW127875   5.458   1.306   6.605  1.3862 -1.0724 -0.8407
 8992SOL    HW227876   5.496   1.464   6.622  1.9343 -1.2314 -0.5846
 8993SOL     OW27877   5.047   1.421   1.976  0.3247 -0.6840 -0.2885
 8993SOL    HW127878   4.956   1.460   1.995 -0.0951 -0.8625 -1.8078
 8993SOL    HW227879   5.094   1.403   2.063 -0.8818 -0.1127  0.5162
 8994SOL     OW27880   1.840   3.317   6.027  0.1506  0.1063 -0.2336
 8994SOL    HW127881   1.777   3.263   6.083 -0.7216 -1.0500 -2.1958
 8994SOL    HW227882   1.918   3.260   6.001  0.8475  0.8174  0.2773
 8995SOL     OW27883   6.885   2.782   6.258 -0.2997  0.3127  0.5917
 8995SOL    HW127884   6.893   2.714   6.331  1.0217 -2.9971 -2.3766
 8995SOL    HW227885   6.938   2.863   6.284  0.8443 -1.0512  2.9260
 8996SOL     OW27886   5.883   6.162   0.688  0.1468 -0.7829 -0.0714
 8996SOL    HW127887   5.846   6.139   0.778 -1.6389  1.4494 -0.1467
 8996SOL    HW227888   5.835   6.110   0.618 -0.5914 -0.3156  0.0771
 8997SOL     OW27889   5.851   2.597   4.973  0.1611  0.1318  0.5304
 8997SOL    HW127890   5.856   2.523   4.906 -1.1666  0.1246  0.4141
 8997SOL    HW227891   5.941   2.639   4.983  0.9143 -1.4369  0.5336
 8998SOL     OW27892   5.242   4.473   2.284  0.4589  0.2612 -0.0833
 8998SOL    HW127893   5.294   4.548   2.325  0.9768  1.1663 -2.2347
 8998SOL    HW227894   5.208   4.501   2.194 -1.7573 -1.1512  0.2268
 8999SOL     OW27895   5.282   6.119   5.476 -0.0817  0.2824  0.0755
 8999SOL    HW127896   5.275   6.059   5.396  2.3002 -0.3588  0.2934
 8999SOL    HW227897   5.360   6.181   5.465 -0.7999  1.4300  1.1402
 9000SOL     OW27898   0.025   3.711   2.001  0.4761  0.3334  0.3582
 9000SOL    HW127899  -0.029   3.734   1.921 -0.3715  0.2001  0.8817
 9000SOL    HW227900  -0.001   3.621   2.035  1.8854 -0.2677 -0.0941
 9001SOL     OW27901   1.226   4.722   1.951 -0.4743 -0.1687  0.7997
 9001SOL    HW127902   1.229   4.626   1.977 -3.3353 -0.4123  0.6180
 9001SOL    HW227903   1.223   4.730   1.852 -0.3089  0.1018  0.8153
 9002SOL     OW27904   1.060   4.324   6.712  0.0803 -0.3884  0.0244
 9002SOL    HW127905   0.976   4.378   6.702 -0.3198  0.0619  4.1333
 9002SOL    HW227906   1.138   4.385   6.727  0.5869 -0.8675 -0.6010
 9003SOL     OW27907   4.016   3.321   0.891 -0.1425  0.1568 -0.2107
 9003SOL    HW127908   4.015   3.421   0.891  1.2813  0.3173 -3.2957
 9003SOL    HW227909   4.068   3.288   0.969 -0.9049  1.7847  1.0386
 9004SOL     OW27910   4.106   0.767   0.375  0.0917  0.5646  0.0667
 9004SOL    HW127911   4.014   0.808   0.384 -0.5485 -0.0286 -2.8096
 9004SOL    HW227912   4.104   0.673   0.408 -0.1675  0.7368  0.5543
 9005SOL     OW27913   5.212   2.394   5.789  0.3423  0.4131 -0.0151
 9005SOL    HW127914   5.230   2.461   5.717 -2.3116  1.8829  0.5720
 9005SOL    HW227915   5.282   2.401   5.860  1.1265  1.2502 -0.8562
 9006SOL     OW27916   4.387   5.505   2.387 -0.1442 -0.5167 -0.3465
 9006SOL    HW127917   4.395   5.406   2.375 -1.8840 -0.6457 -0.6674
 9006SOL    HW227918   4.451   5.551   2.326 -1.0031 -1.3957 -1.9676
 9007SOL     OW27919   4.584   1.630   4.000  0.7950  0.0341  0.0006
 9007SOL    HW127920   4.558   1.602   4.093  2.2453 -0.0998  0.3928
 9007SOL    HW227921   4.644   1.560   3.960 -1.6198 -1.0834 -1.9694
 9008SOL     OW27922   6.170   5.205   4.794  0.1696  0.2741 -0.8597
 9008SOL    HW127923   6.131   5.214   4.702  0.1463  1.0137 -0.7778
 9008SOL    HW227924   6.168   5.108   4.821 -0.1992  0.1050 -1.4696
 9009SOL     OW27925   3.772   6.699   0.697  0.0055  0.3675  0.2424
 9009SOL    HW127926   3.764   6.790   0.738 -0.0716  0.9034 -0.9118
 9009SOL    HW227927   3.860   6.659   0.721 -0.4197  0.2623  1.6943
 9010SOL     OW27928   1.308   4.252   4.416 -0.1144 -0.2215  0.3593
 9010SOL    HW127929   1.358   4.171   4.387  1.4063  0.6982  0.2855
 9010SOL    HW227930   1.249   4.283   4.341  1.1510  0.1170 -0.5415
 9011SOL     OW27931   6.603   3.229   0.960  0.5889  0.3461 -0.0647
 9011SOL    HW127932   6.613   3.173   1.042  0.5656 -0.0638 -0.3401
 9011SOL    HW227933   6.508   3.255   0.947  0.5008 -0.0832 -0.2850
 9012SOL     OW27934   2.632   3.610   6.232 -0.5536  0.2732  0.2620
 9012SOL    HW127935   2.573   3.575   6.158  0.0530 -0.4103  0.0901
 9012SOL    HW227936   2.653   3.706   6.214  0.6481 -0.2133 -1.1807
 9013SOL     OW27937   1.017   4.946   5.076  0.2567  0.2232 -0.6179
 9013SOL    HW127938   1.069   4.899   5.005  1.4064  1.5235 -0.6513
 9013SOL    HW227939   0.942   4.997   5.034  0.0682 -0.1462 -0.7422
 9014SOL     OW27940   1.217   2.760   0.727  0.1369  0.1387  0.2926
 9014SOL    HW127941   1.283   2.834   0.744  0.9666 -0.2558 -1.0684
 9014SOL    HW227942   1.263   2.672   0.738  0.3964 -0.1444 -2.4227
 9015SOL     OW27943   5.171   1.875   2.490  0.5734  0.2648  0.4729
 9015SOL    HW127944   5.071   1.873   2.486  0.5989  1.0316 -0.8953
 9015SOL    HW227945   5.199   1.914   2.578 -0.3405  0.8858  0.5061
 9016SOL     OW27946   0.706   5.199   0.493 -0.2432 -0.2552 -0.2384
 9016SOL    HW127947   0.683   5.194   0.590 -0.7147  0.9607 -0.2727
 9016SOL    HW227948   0.625   5.181   0.438 -0.6043  1.5861 -0.3724
 9017SOL     OW27949   4.522   1.930   3.590  0.6224  0.3294  0.1670
 9017SOL    HW127950   4.593   1.874   3.548  0.1419 -0.0612 -0.1425
 9017SOL    HW227951   4.541   2.027   3.573 -0.9213  0.1842 -3.3409
 9018SOL     OW27952   3.318   2.052   4.476 -0.2475 -0.2587  0.2327
 9018SOL    HW127953   3.400   2.096   4.438 -1.0706  0.7703 -0.4052
 9018SOL    HW227954   3.249   2.122   4.494 -0.9973 -1.1211  0.7520
 9019SOL     OW27955   0.562   4.823   2.545 -0.5712  0.0406 -0.1685
 9019SOL    HW127956   0.630   4.885   2.506  0.6469 -0.2883  1.3373
 9019SOL    HW227957   0.471   4.857   2.525  0.0181  0.5970 -2.0776
 9020SOL     OW27958   0.673   2.269   5.565  0.1993  0.2790 -0.0696
 9020SOL    HW127959   0.614   2.298   5.640 -0.4782 -1.2550  0.0189
 9020SOL    HW227960   0.768   2.270   5.596  0.0931  1.2887  0.2633
 9021SOL     OW27961   6.293   6.894   3.203  0.3356 -0.2769 -0.3497
 9021SOL    HW127962   6.270   6.947   3.121 -0.5049  0.4793  0.3634
 9021SOL    HW227963   6.253   6.803   3.197 -1.1752  0.3387 -0.0418
 9022SOL     OW27964   4.038   0.875   5.309  0.4467  0.0167 -0.3565
 9022SOL    HW127965   3.985   0.815   5.248 -0.5885 -0.3841  0.8830
 9022SOL    HW227966   4.095   0.819   5.369  0.3276  0.3238  0.0435
 9023SOL     OW27967   3.167   2.964   2.637 -0.1308  0.1336 -0.0604
 9023SOL    HW127968   3.204   2.873   2.655  1.6372  0.7614 -0.3370
 9023SOL    HW227969   3.193   2.992   2.545 -0.6769  0.9277  0.0202
 9024SOL     OW27970   1.297   2.908   3.631  0.0802 -0.5950  0.4040
 9024SOL    HW127971   1.357   2.854   3.573  0.1389 -2.6688  2.2868
 9024SOL    HW227972   1.202   2.888   3.610  0.0896 -0.4862  0.2587
 9025SOL     OW27973   2.302   6.175   6.832 -0.6754 -0.0426 -0.0805
 9025SOL    HW127974   2.397   6.169   6.864 -0.7324 -0.6639 -0.0182
 9025SOL    HW227975   2.289   6.261   6.784 -0.6467  1.0447  1.7598
 9026SOL     OW27976   3.607   4.436   1.202  0.4820 -0.1057  0.3158
 9026SOL    HW127977   3.656   4.354   1.232  1.9943  1.4988  2.5223
 9026SOL    HW227978   3.648   4.470   1.117  3.1773  1.0534  1.9643
 9027SOL     OW27979   2.059   1.720   1.795  0.3142 -0.2756 -0.1067
 9027SOL    HW127980   2.021   1.754   1.709 -0.3202 -1.4249 -0.3047
 9027SOL    HW227981   2.152   1.688   1.781 -0.4618 -2.3492 -0.8821
 9028SOL     OW27982   2.132   3.041   5.196  0.0929 -0.5450 -0.1381
 9028SOL    HW127983   2.108   3.120   5.141 -0.1521 -0.8269 -0.4359
 9028SOL    HW227984   2.232   3.030   5.197  0.0440 -1.3289 -1.6382
 9029SOL     OW27985   3.012   6.750   4.942  0.7218  0.1326 -0.2568
 9029SOL    HW127986   3.028   6.848   4.945  0.4518  0.1559  0.5992
 9029SOL    HW227987   3.026   6.710   5.033  1.3356 -0.7056 -0.7032
 9030SOL     OW27988   4.557   2.364   4.503 -0.3934  0.2156  0.4255
 9030SOL    HW127989   4.536   2.358   4.406  0.3882  1.7390  0.1371
 9030SOL    HW227990   4.513   2.288   4.551 -3.1655  0.9956 -0.6829
 9031SOL     OW27991   4.354   5.785   4.201 -0.2314 -0.0723  0.4637
 9031SOL    HW127992   4.350   5.793   4.101  0.2837 -1.5567  0.2994
 9031SOL    HW227993   4.291   5.714   4.231  2.2956 -2.3264  0.7836
 9032SOL     OW27994   2.995   4.223   0.551 -0.1011  0.1612 -0.3906
 9032SOL    HW127995   2.914   4.282   0.552 -1.0902 -1.1272 -0.8871
 9032SOL    HW227996   3.049   4.243   0.469 -0.5444  0.2353 -0.6735
 9033SOL     OW27997   0.508   2.640   2.765  0.4790 -1.1321 -0.0804
 9033SOL    HW127998   0.560   2.637   2.680 -0.7451  1.2634 -1.0110
 9033SOL    HW227999   0.414   2.612   2.748 -0.0076  0.2212  0.2331
 9034SOL     OW28000   3.107   6.559   4.323 -1.1773  0.4611 -0.0452
 9034SOL    HW128001   3.044   6.637   4.326 -2.8394 -0.8262 -0.2129
 9034SOL    HW228002   3.177   6.570   4.393 -1.5270  1.9737  0.1020
 9035SOL     OW28003   1.042   1.621   6.156  0.4490  0.4461  0.2210
 9035SOL    HW128004   1.104   1.612   6.235  0.1517  0.2363  0.4341
 9035SOL    HW228005   0.997   1.710   6.160  0.0542  0.2324  0.5691
 9036SOL     OW28006   4.075   1.986   6.015  0.0840  0.6231  0.2750
 9036SOL    HW128007   4.170   1.977   6.044  0.3303  1.1783 -0.3565
 9036SOL    HW228008   4.020   1.914   6.059  0.9885 -0.4020 -0.2293
 9037SOL     OW28009   1.753   3.315   4.789 -0.1187 -0.4800  0.2331
 9037SOL    HW128010   1.654   3.327   4.790  0.0045  0.8844  2.3347
 9037SOL    HW228011   1.792   3.346   4.876  1.8949 -3.3985  0.5492
 9038SOL     OW28012   4.439   1.153   4.313 -0.3400  0.1526 -0.0739
 9038SOL    HW128013   4.533   1.129   4.286  0.4920  1.6075  1.3845
 9038SOL    HW228014   4.386   1.069   4.324  1.5125 -0.9043  1.5864
 9039SOL     OW28015   1.977   4.909   5.312  0.2282  0.2632 -0.1614
 9039SOL    HW128016   1.903   4.931   5.377  1.0321  0.2462  0.7890
 9039SOL    HW228017   2.000   4.812   5.320 -0.1384  0.1071 -0.9834
 9040SOL     OW28018   2.288   2.040   2.736  0.1807  0.1961  0.0971
 9040SOL    HW128019   2.379   2.035   2.695  0.1439 -0.5155  0.0820
 9040SOL    HW228020   2.228   2.094   2.677  0.6354  0.8040  0.1884
 9041SOL     OW28021   1.671   3.010   1.298  0.2906 -0.2223 -0.1758
 9041SOL    HW128022   1.737   2.962   1.356 -0.0437  1.2468  1.4992
 9041SOL    HW228023   1.578   2.979   1.320  0.2891 -1.4607 -1.7342
 9042SOL     OW28024   3.167   6.370   6.140 -0.1192 -0.2074 -0.0272
 9042SOL    HW128025   3.181   6.429   6.060 -2.4524 -1.8913 -1.7951
 9042SOL    HW228026   3.114   6.419   6.209  0.1787  0.5969 -0.3536
 9043SOL     OW28027   0.494   5.890   6.744  0.2620  0.3678  0.5375
 9043SOL    HW128028   0.397   5.864   6.754  0.1832  0.7661  0.8448
 9043SOL    HW228029   0.551   5.808   6.746  0.1668  0.2692  3.2443
 9044SOL     OW28030   4.998   6.895   1.458 -0.5962  0.6373 -0.4972
 9044SOL    HW128031   4.985   6.820   1.393  0.5094  0.7177 -0.8269
 9044SOL    HW228032   5.014   6.980   1.409 -0.2189  0.7863 -0.1251
 9045SOL     OW28033   2.609   1.434   2.346 -0.6250  0.2801  0.3905
 9045SOL    HW128034   2.534   1.456   2.408 -0.1773  1.1082  0.6601
 9045SOL    HW228035   2.680   1.384   2.395 -0.3672  0.7470  0.5005
 9046SOL     OW28036   3.474   3.812   2.890 -0.3352 -0.3633  0.8046
 9046SOL    HW128037   3.481   3.911   2.877  0.9406 -0.4590  0.7037
 9046SOL    HW228038   3.496   3.790   2.985 -1.5669 -0.4779  1.0877
 9047SOL     OW28039   0.655   4.505   5.850 -0.2452  0.1489 -0.4737
 9047SOL    HW128040   0.642   4.547   5.760  1.1896  1.0539 -0.2912
 9047SOL    HW228041   0.692   4.573   5.913  1.4548 -1.1720  0.0410
 9048SOL     OW28042   5.794   3.264   4.462  0.0506 -0.9760  0.0186
 9048SOL    HW128043   5.847   3.335   4.509  0.9164 -1.0758 -0.7773
 9048SOL    HW228044   5.804   3.274   4.363 -0.8130 -1.4671 -0.1310
 9049SOL     OW28045   2.433   0.349   4.289 -0.4624  0.1154 -0.3620
 9049SOL    HW128046   2.345   0.302   4.279 -0.5545 -0.4718  2.3349
 9049SOL    HW228047   2.500   0.306   4.229 -1.6475 -0.4154 -1.3521
 9050SOL     OW28048   2.446   2.809   1.351  0.2295  0.0114 -0.3973
 9050SOL    HW128049   2.544   2.812   1.328  0.1566 -1.4523 -0.9951
 9050SOL    HW228050   2.409   2.720   1.326 -1.5185  0.9125 -1.1828
 9051SOL     OW28051   3.893   1.105   6.866 -0.2239  0.1601  0.4034
 9051SOL    HW128052   3.865   1.138   6.776  0.3331  1.1681  0.5883
 9051SOL    HW228053   3.975   1.048   6.857 -1.2507 -1.3295  0.0712
 9052SOL     OW28054   2.713   1.286   3.759 -0.0046 -0.4349 -0.0374
 9052SOL    HW128055   2.680   1.320   3.847  0.6728  0.2310 -0.0250
 9052SOL    HW228056   2.652   1.317   3.686  0.3887  0.5018  0.0178
 9053SOL     OW28057   2.420   1.166   3.081  0.1000  0.5866 -0.2085
 9053SOL    HW128058   2.367   1.220   3.015 -1.2859 -0.6856 -0.1889
 9053SOL    HW228059   2.462   1.088   3.034  2.1592  1.6485 -0.2522
 9054SOL     OW28060   1.449   5.987   4.753 -0.1913  0.3088 -0.1637
 9054SOL    HW128061   1.518   5.932   4.706 -1.3322 -1.3962  0.0756
 9054SOL    HW228062   1.482   6.011   4.845 -0.8843 -2.8190  1.0255
 9055SOL     OW28063   7.000   2.028   5.472  0.2109 -0.0524  0.0557
 9055SOL    HW128064   7.089   1.985   5.486  0.4835 -0.0723 -1.5578
 9055SOL    HW228065   6.947   2.024   5.557  1.9432  0.4569  1.2142
 9056SOL     OW28066   6.116   2.179   2.141  0.3813 -0.1165 -0.1367
 9056SOL    HW128067   6.020   2.181   2.113  0.5431  0.4179 -0.6608
 9056SOL    HW228068   6.164   2.258   2.104  0.6690  0.5087  1.4622
 9057SOL     OW28069   5.693   3.960   5.012  0.4057  0.0940  0.3823
 9057SOL    HW128070   5.768   3.909   4.969  0.9925  0.7111  0.6528
 9057SOL    HW228071   5.729   4.042   5.056 -0.2097 -0.3684  1.8273
 9058SOL     OW28072   2.919   0.612   1.567 -0.5646  0.8144 -0.0951
 9058SOL    HW128073   2.945   0.531   1.515 -0.1743  0.9661 -0.1373
 9058SOL    HW228074   2.820   0.625   1.561 -0.6196  0.3846 -0.1498
 9059SOL     OW28075   0.611   6.994   2.694  0.1906 -0.0432  0.2550
 9059SOL    HW128076   0.630   7.056   2.770 -0.3453 -0.8127  1.0537
 9059SOL    HW228077   0.513   6.971   2.694  0.3075 -0.5805 -0.2524
 9060SOL     OW28078   5.623   2.791   5.644 -0.1673  0.5254  0.6039
 9060SOL    HW128079   5.685   2.868   5.660  0.9157  0.0064 -0.8615
 9060SOL    HW228080   5.530   2.825   5.628  0.1734  1.4743  0.5886
 9061SOL     OW28081   2.149   4.707   2.891  0.1431  0.4969 -0.7156
 9061SOL    HW128082   2.223   4.772   2.871 -1.2455  2.6359  0.6656
 9061SOL    HW228083   2.061   4.753   2.882 -0.9392 -1.3333 -0.0611
 9062SOL     OW28084   0.949   6.976   6.518 -0.3437 -0.3159 -0.4517
 9062SOL    HW128085   1.016   6.909   6.551 -0.4660 -1.2562 -2.0255
 9062SOL    HW228086   0.943   7.051   6.584  1.6441 -0.6096  0.1529
 9063SOL     OW28087   3.193   1.824   3.275 -0.1941  0.1716 -0.3845
 9063SOL    HW128088   3.168   1.855   3.184  2.3710  0.6816 -0.9839
 9063SOL    HW228089   3.244   1.895   3.322 -0.1337 -0.6673  0.8728
 9064SOL     OW28090   6.307   2.151   5.583  0.5186  0.5264  0.6289
 9064SOL    HW128091   6.289   2.053   5.595  1.5912  0.1327 -0.6742
 9064SOL    HW228092   6.220   2.199   5.573  0.0021 -0.4593  0.1857
 9065SOL     OW28093   4.341   0.018   4.362  0.2142  0.4828 -0.4729
 9065SOL    HW128094   4.424  -0.018   4.319 -0.5684 -0.5626 -1.1541
 9065SOL    HW228095   4.366   0.079   4.437  1.6150  1.3154 -1.5648
 9066SOL     OW28096   3.701   6.131   1.179  0.1664 -0.3636 -0.0717
 9066SOL    HW128097   3.615   6.142   1.130  0.9856  0.1645 -1.4317
 9066SOL    HW228098   3.716   6.210   1.239  0.1141 -0.0301 -0.4944
 9067SOL     OW28099   6.891   1.107   3.695  0.1443 -0.5172  0.4596
 9067SOL    HW128100   6.915   1.165   3.616 -0.0443 -0.7716  0.2124
 9067SOL    HW228101   6.803   1.136   3.731 -0.2895 -1.1007 -0.1078
 9068SOL     OW28102   2.591   6.023   5.039  0.5054 -0.3687 -0.3139
 9068SOL    HW128103   2.621   5.976   5.122  0.8252 -0.9905 -0.7782
 9068SOL    HW228104   2.514   5.974   4.998 -1.5265  1.4179  1.0790
 9069SOL     OW28105   2.651   3.523   1.431  0.4421  0.7201 -0.5679
 9069SOL    HW128106   2.589   3.510   1.508  0.6419  1.0398 -0.3495
 9069SOL    HW228107   2.684   3.618   1.430  0.9804  0.5391 -0.6365
 9070SOL     OW28108   3.003   1.983   2.415 -0.4465 -0.2989  0.6071
 9070SOL    HW128109   3.032   2.035   2.334 -0.5308 -0.4973  0.4507
 9070SOL    HW228110   2.912   2.012   2.442 -0.5659 -0.4911  0.4130
 9071SOL     OW28111   5.902   6.189   1.511  0.2722  0.4810 -0.3551
 9071SOL    HW128112   5.842   6.110   1.518  0.7534 -0.0252 -1.6647
 9071SOL    HW228113   5.849   6.270   1.489 -0.4401  0.8983  2.4359
 9072SOL     OW28114   0.546   1.442   2.235  0.6502 -0.7054  0.1606
 9072SOL    HW128115   0.486   1.428   2.156  0.2780  1.4378  0.0010
 9072SOL    HW228116   0.640   1.416   2.211  0.4192 -0.7128 -0.7779
 9073SOL     OW28117   4.706   6.233   3.117 -0.5129  0.6069 -0.2587
 9073SOL    HW128118   4.672   6.323   3.090  2.6453  2.4142  1.1209
 9073SOL    HW228119   4.806   6.237   3.127 -0.2860 -2.9701  0.3663
 9074SOL     OW28120   1.483   2.693   2.025  0.3597  0.2601  0.4884
 9074SOL    HW128121   1.421   2.730   2.094  0.1736  0.2432  0.3313
 9074SOL    HW228122   1.476   2.593   2.024  0.2743  0.2670  0.3633
 9075SOL     OW28123   0.734   1.894   2.291  0.3645 -0.5690  0.2399
 9075SOL    HW128124   0.654   1.951   2.273 -0.2900 -1.9485 -1.5117
 9075SOL    HW228125   0.709   1.821   2.354  0.6063 -0.2366  0.7247
 9076SOL     OW28126   6.276   3.854   5.169  0.0475  0.1848 -0.3889
 9076SOL    HW128127   6.316   3.763   5.155  1.1579  0.4432  0.8961
 9076SOL    HW228128   6.216   3.851   5.249 -0.4656  0.4299 -0.7610
 9077SOL     OW28129   4.448   1.856   0.053  0.0857  0.3851 -0.6185
 9077SOL    HW128130   4.403   1.938   0.090  1.1032 -0.7826  3.6456
 9077SOL    HW228131   4.380   1.783   0.042 -0.1166  0.5533 -0.5015
 9078SOL     OW28132   3.637   3.825   3.935  0.6249 -0.1062 -0.6012
 9078SOL    HW128133   3.688   3.830   4.021 -1.3462 -0.0803  0.6343
 9078SOL    HW228134   3.621   3.730   3.911  3.5695 -0.2169 -2.5082
 9079SOL     OW28135   1.264   6.158   3.495 -0.0006 -0.1991 -0.4544
 9079SOL    HW128136   1.288   6.207   3.579  0.2502 -1.7669  0.4207
 9079SOL    HW228137   1.250   6.224   3.421  3.6253  1.0479 -0.2060
 9080SOL     OW28138   6.288   1.298   4.548 -0.4023  0.6675 -0.8021
 9080SOL    HW128139   6.253   1.209   4.577  0.6949  0.1927 -0.8899
 9080SOL    HW228140   6.212   1.355   4.518 -1.4181  0.6111  1.4387
 9081SOL     OW28141   5.261   6.951   3.439 -0.4799 -0.4514 -0.5078
 9081SOL    HW128142   5.170   6.973   3.405 -1.0664 -1.2430  0.4981
 9081SOL    HW228143   5.305   7.034   3.472 -1.6842 -0.3434  0.9437
 9082SOL     OW28144   2.732   1.584   5.311  0.5448  0.4424 -0.0554
 9082SOL    HW128145   2.799   1.654   5.338 -0.5118  1.6681 -0.4928
 9082SOL    HW228146   2.743   1.503   5.369  2.6683  0.4199 -0.3873
 9083SOL     OW28147   2.920   4.644   6.425 -0.0071  0.0435  0.1307
 9083SOL    HW128148   3.004   4.670   6.473  0.7666  0.1520 -1.2191
 9083SOL    HW228149   2.845   4.704   6.453  1.1421  2.1031 -1.0243
 9084SOL     OW28150   4.060   3.556   1.973  0.3373  0.0778  0.4446
 9084SOL    HW128151   4.082   3.488   1.904 -2.4237  0.2130 -0.7131
 9084SOL    HW228152   4.101   3.530   2.060  0.7280 -2.1868 -0.3594
 9085SOL     OW28153   2.005   6.139   4.213  0.0353  0.2206 -0.1200
 9085SOL    HW128154   1.953   6.176   4.136  1.0116  1.4896 -0.2065
 9085SOL    HW228155   2.010   6.208   4.286  1.0779 -0.1004  0.1271
 9086SOL     OW28156   1.475   4.813   7.013 -0.4221 -0.1810  0.4405
 9086SOL    HW128157   1.509   4.728   7.054 -1.4425 -1.0747 -0.4878
 9086SOL    HW228158   1.380   4.800   6.984  0.6730 -0.3171 -3.8617
 9087SOL     OW28159   5.738   2.886   0.451  0.4487 -0.2716 -0.0000
 9087SOL    HW128160   5.691   2.949   0.390  1.3861  0.0726 -0.3899
 9087SOL    HW228161   5.745   2.796   0.408  1.8821  0.1944 -0.8124
 9088SOL     OW28162   6.775   5.289   1.464 -0.0333 -0.5719 -0.1428
 9088SOL    HW128163   6.806   5.326   1.551  1.2346 -0.6417 -0.5414
 9088SOL    HW228164   6.675   5.290   1.461 -0.1941 -2.3192  2.0540
 9089SOL     OW28165   5.414   5.355   1.312  0.2035  0.0251  0.4597
 9089SOL    HW128166   5.352   5.416   1.263  0.6891  1.7067  1.8060
 9089SOL    HW228167   5.492   5.332   1.253 -0.4050  0.0284 -0.3523
 9090SOL     OW28168   0.746   0.631   4.225  0.3216 -0.0282 -0.3043
 9090SOL    HW128169   0.709   0.540   4.207  1.3127 -0.3300 -0.8893
 9090SOL    HW228170   0.814   0.626   4.298 -0.5504  0.4746  0.5657
 9091SOL     OW28171   2.879   5.469   6.336 -0.5585  0.3897  0.0366
 9091SOL    HW128172   2.938   5.513   6.268 -0.7131  0.4995 -0.0276
 9091SOL    HW228173   2.816   5.406   6.290  0.5348 -0.9121  0.2437
 9092SOL     OW28174   6.226   1.568   2.006 -0.1690 -0.5254  0.1784
 9092SOL    HW128175   6.174   1.595   2.087  0.3241 -0.3433  0.4374
 9092SOL    HW228176   6.322   1.557   2.031  0.0186 -0.2619 -0.4354
 9093SOL     OW28177   2.684   4.933   6.838 -0.2418 -0.1276 -0.1858
 9093SOL    HW128178   2.764   4.905   6.784  0.2576 -0.3195  0.6327
 9093SOL    HW228179   2.602   4.929   6.781  0.3063 -0.1035 -0.9892
 9094SOL     OW28180   0.459   4.654   2.910 -0.0367  0.0118 -0.4221
 9094SOL    HW128181   0.554   4.625   2.904 -0.0089  0.2513 -1.3139
 9094SOL    HW228182   0.432   4.662   3.006  0.7873 -0.2219 -0.1665
 9095SOL     OW28183   5.346   4.589   0.393 -0.4907 -0.2595 -0.0790
 9095SOL    HW128184   5.362   4.533   0.312  0.6058 -0.4619  0.2591
 9095SOL    HW228185   5.262   4.559   0.439 -2.3147  1.2240 -2.2610
 9096SOL     OW28186   6.425   3.539   3.108 -0.4628  0.6477 -0.3378
 9096SOL    HW128187   6.461   3.529   3.016  0.9759  1.2177  0.1376
 9096SOL    HW228188   6.420   3.449   3.152  0.9756  0.5905 -0.2305
 9097SOL     OW28189   2.280   1.569   1.490 -0.4164  0.0653 -0.1357
 9097SOL    HW128190   2.259   1.471   1.490  0.1404 -0.0656  0.8710
 9097SOL    HW228191   2.379   1.583   1.485 -0.4243  0.5467  0.8849
 9098SOL     OW28192   3.284   1.620   4.799  0.7793 -0.3152  0.1935
 9098SOL    HW128193   3.381   1.632   4.819  0.6736 -0.6516  0.9239
 9098SOL    HW228194   3.248   1.543   4.851 -0.2317  0.7453  1.1498
 9099SOL     OW28195   3.220   1.993   6.170 -0.9307  0.1395 -0.2754
 9099SOL    HW128196   3.241   1.970   6.265 -0.4255 -1.0174 -0.6444
 9099SOL    HW228197   3.135   1.948   6.143 -2.0469  1.9093  0.1340
 9100SOL     OW28198   2.206   4.411   0.817  0.5257  0.3838  0.1767
 9100SOL    HW128199   2.285   4.471   0.803 -0.6684  2.2570  1.2047
 9100SOL    HW228200   2.126   4.465   0.842 -1.4204 -1.3580 -1.8563
 9101SOL     OW28201   4.156   0.774   1.297  0.3763 -0.5338  0.0720
 9101SOL    HW128202   4.158   0.674   1.307  1.0804 -0.5114  0.2176
 9101SOL    HW228203   4.218   0.801   1.223 -0.3247 -0.2451 -0.4323
 9102SOL     OW28204   1.459   5.451   2.140 -0.5043 -0.0798 -0.3334
 9102SOL    HW128205   1.480   5.391   2.218  0.6807 -1.1257 -1.4066
 9102SOL    HW228206   1.360   5.457   2.128 -0.6795 -0.6530  0.6806
 9103SOL     OW28207   6.233   1.403   1.771  0.2744 -0.1523  0.1291
 9103SOL    HW128208   6.313   1.428   1.716  0.3084  1.3918  0.8302
 9103SOL    HW228209   6.242   1.442   1.863 -1.1530 -0.1685  0.3019
 9104SOL     OW28210   6.610   6.647   1.037 -0.2617  0.1374 -0.2469
 9104SOL    HW128211   6.707   6.626   1.051 -0.4678 -0.2414  0.7304
 9104SOL    HW228212   6.568   6.665   1.126 -1.3931 -1.0949 -0.5009
 9105SOL     OW28213   5.556   0.593   5.286 -0.2961 -0.6425 -0.4576
 9105SOL    HW128214   5.542   0.542   5.200 -0.1691  0.7773 -1.3486
 9105SOL    HW228215   5.476   0.649   5.305 -1.0673 -2.2389  1.3207
 9106SOL     OW28216   0.432   4.023   2.129 -0.5657 -0.2665  0.0813
 9106SOL    HW128217   0.362   3.961   2.095  0.5245 -0.9903 -0.9025
 9106SOL    HW228218   0.474   3.985   2.212 -0.9612 -0.0946  0.3599
 9107SOL     OW28219   3.458   0.795   0.280 -0.7164  0.0083 -0.1850
 9107SOL    HW128220   3.381   0.858   0.274 -0.9403  0.0455  2.2056
 9107SOL    HW228221   3.512   0.816   0.361  1.6220 -0.2769 -1.5827
 9108SOL     OW28222   3.636   3.959   5.213  0.1392  0.5319 -0.0661
 9108SOL    HW128223   3.627   3.860   5.201 -1.2415  0.5052  1.0284
 9108SOL    HW228224   3.546   4.000   5.223  0.6981  1.9161 -0.4375
 9109SOL     OW28225   4.903   3.073   2.663 -0.6108  0.0145  0.0934
 9109SOL    HW128226   4.902   3.171   2.642  0.8164  0.3013  1.2587
 9109SOL    HW228227   4.872   3.059   2.757 -0.4517 -0.6313  0.0515
 9110SOL     OW28228   1.012   3.484   3.983  0.2775  0.5047  0.0099
 9110SOL    HW128229   0.974   3.430   4.058  0.9861  3.0471  2.3845
 9110SOL    HW228230   0.940   3.507   3.917 -0.7792 -0.3085  0.8516
 9111SOL     OW28231   4.591   2.670   1.165  0.0193  0.3125  0.2918
 9111SOL    HW128232   4.616   2.576   1.191  0.1826  0.0259 -0.8664
 9111SOL    HW228233   4.662   2.733   1.196  0.3966 -0.0657  0.2117
 9112SOL     OW28234   1.693   4.778   3.745  0.3362 -0.4409  0.3741
 9112SOL    HW128235   1.717   4.703   3.683  1.5680 -0.3487  0.7064
 9112SOL    HW228236   1.652   4.739   3.828 -0.8248 -0.5966 -0.2507
 9113SOL     OW28237   0.227   3.419   0.030  0.2343 -0.0113 -0.0513
 9113SOL    HW128238   0.228   3.329  -0.013 -1.3320  0.1883 -0.5694
 9113SOL    HW228239   0.320   3.447   0.051  0.9731 -0.6534 -2.2057
 9114SOL     OW28240   0.676   4.463   3.767 -0.8133 -0.3792  0.1552
 9114SOL    HW128241   0.644   4.532   3.831  2.3778  1.8176 -0.3728
 9114SOL    HW228242   0.736   4.398   3.816  1.5165  1.2209 -0.4130
 9115SOL     OW28243   3.384   4.918   4.996 -0.3757  0.2393 -0.7566
 9115SOL    HW128244   3.350   4.996   5.049 -0.7028  0.1624 -0.8521
 9115SOL    HW228245   3.382   4.835   5.054 -0.1194  0.2805 -0.6857
 9116SOL     OW28246   0.392   2.245   2.902  0.5012  0.4761 -0.1686
 9116SOL    HW128247   0.353   2.153   2.899  0.3199  0.5597 -0.3577
 9116SOL    HW228248   0.319   2.313   2.896  0.5275  0.6389  1.0889
 9117SOL     OW28249   5.306   0.977   6.574 -0.1602 -0.6605 -0.5342
 9117SOL    HW128250   5.353   0.926   6.503  1.5746 -1.8803  1.3739
 9117SOL    HW228251   5.368   1.046   6.612  0.2742 -2.3354  2.0783
 9118SOL     OW28252   6.168   2.125   6.301 -0.1977 -0.1768  0.1904
 9118SOL    HW128253   6.108   2.048   6.278  0.9324 -0.9540 -0.2448
 9118SOL    HW228254   6.188   2.123   6.399  0.5497 -0.9923  0.0318
 9119SOL     OW28255   5.102   5.306   1.854 -0.1235  0.0134  0.2878
 9119SOL    HW128256   5.120   5.266   1.764 -0.7366  1.4487 -0.5206
 9119SOL    HW228257   5.092   5.234   1.922  0.4511 -1.0991 -0.7779
 9120SOL     OW28258   6.290   3.351   6.148 -0.7548  0.8375  0.3376
 9120SOL    HW128259   6.236   3.432   6.127 -0.2468  1.1075  0.0490
 9120SOL    HW228260   6.263   3.315   6.237 -3.0046 -0.3721 -0.7405
 9121SOL     OW28261   2.738   6.435   5.999  0.9854 -0.3364  0.1126
 9121SOL    HW128262   2.645   6.469   5.982  0.9171  0.3513  1.7029
 9121SOL    HW228263   2.749   6.346   5.955 -0.4522 -0.4476 -0.0771
 9122SOL     OW28264   1.817   5.513   2.147  1.0959 -0.0053 -0.0467
 9122SOL    HW128265   1.731   5.462   2.141  0.3723  1.2133 -0.4047
 9122SOL    HW228266   1.824   5.557   2.236  2.5948 -2.1584  0.9908
 9123SOL     OW28267   0.640   0.269   5.039  0.0736  0.1037  0.8630
 9123SOL    HW128268   0.646   0.170   5.042  2.3930  0.2022  1.6091
 9123SOL    HW228269   0.670   0.301   4.948 -0.0187  0.1337  0.8435
 9124SOL     OW28270   3.967   0.243   2.839 -0.2876  0.0872  0.0042
 9124SOL    HW128271   4.035   0.308   2.873  0.1486 -0.9319  1.1095
 9124SOL    HW228272   4.003   0.197   2.758  0.0382  0.0781  0.1542
 9125SOL     OW28273   3.099   3.427   0.835 -0.8220  0.0710 -0.2601
 9125SOL    HW128274   3.156   3.484   0.894  0.2498 -1.0979 -0.1441
 9125SOL    HW228275   3.150   3.401   0.754 -1.7667  0.3674 -0.9701
 9126SOL     OW28276   3.606   3.766   0.794 -0.3781 -0.3294 -0.3223
 9126SOL    HW128277   3.577   3.811   0.710  0.3727  0.7990 -0.0060
 9126SOL    HW228278   3.695   3.722   0.779 -1.5788 -2.7106 -0.9384
 9127SOL     OW28279   6.486   3.797   4.719 -0.2393  0.1594 -0.1522
 9127SOL    HW128280   6.490   3.824   4.816  3.1339 -1.4476  0.3086
 9127SOL    HW228281   6.526   3.869   4.663 -1.8564  0.9335 -0.3434
 9128SOL     OW28282   0.422   1.545   3.933  0.2711  0.2841 -0.1929
 9128SOL    HW128283   0.510   1.594   3.937  1.4099 -1.7253  0.7072
 9128SOL    HW228284   0.439   1.449   3.910 -1.8672  0.1965 -1.6597
 9129SOL     OW28285   1.484   4.062   1.083 -0.4944 -0.6937 -0.7397
 9129SOL    HW128286   1.405   4.014   1.046  0.9128 -2.4185 -1.6331
 9129SOL    HW228287   1.541   3.998   1.134  1.1075  0.1514 -1.4089
 9130SOL     OW28288   0.132   3.862   5.529  0.0033 -0.4216  0.2429
 9130SOL    HW128289   0.091   3.950   5.504  1.1932  0.0437 -0.1295
 9130SOL    HW228290   0.088   3.828   5.612 -0.1400  0.7679  0.6807
 9131SOL     OW28291   4.424   3.610   5.683  0.3410  0.1336 -0.9711
 9131SOL    HW128292   4.404   3.566   5.771  0.2093  1.9776 -0.0335
 9131SOL    HW228293   4.495   3.558   5.636  1.7259  0.0579  1.0432
 9132SOL     OW28294   1.720   3.110   2.931 -0.5383  0.0932 -0.0345
 9132SOL    HW128295   1.705   3.189   2.990  1.6963  1.1655 -0.7900
 9132SOL    HW228296   1.643   3.101   2.868 -1.0815  1.3523  0.4110
 9133SOL     OW28297   2.774   1.239   0.462 -0.3341 -0.2405 -0.4644
 9133SOL    HW128298   2.762   1.323   0.516 -0.2028 -0.7576  0.3954
 9133SOL    HW228299   2.684   1.205   0.434 -0.4134 -0.0267 -0.4752
 9134SOL     OW28300   2.600   5.342   1.816  0.6239  0.2453 -0.0130
 9134SOL    HW128301   2.671   5.283   1.778  0.6002  0.5759 -0.5805
 9134SOL    HW228302   2.511   5.301   1.800  0.3403  1.8377 -3.1826
 9135SOL     OW28303   1.508   6.321   1.273  0.1554  0.0445 -0.3055
 9135SOL    HW128304   1.586   6.341   1.332 -1.7317 -0.1056  2.4492
 9135SOL    HW228305   1.508   6.381   1.194  2.3332  0.9140  0.3070
 9136SOL     OW28306   5.075   6.948   5.149 -0.0333  0.2859 -0.3953
 9136SOL    HW128307   5.024   7.021   5.104  1.0298  1.1854 -0.1902
 9136SOL    HW228308   5.171   6.954   5.124  0.5120  0.5345  1.6155
 9137SOL     OW28309   4.202   0.475   1.310  0.6246 -0.1196 -0.4459
 9137SOL    HW128310   4.142   0.446   1.236 -0.4251  2.4631 -0.6894
 9137SOL    HW228311   4.289   0.508   1.271 -0.4199  2.4997 -0.7742
 9138SOL     OW28312   2.627   2.951   0.412 -0.3013 -0.1765 -0.2690
 9138SOL    HW128313   2.654   2.986   0.502  0.0902 -2.4777  0.5620
 9138SOL    HW228314   2.548   3.002   0.380 -0.9641  0.1751  1.7549
 9139SOL     OW28315   7.014   3.964   1.661 -0.0106 -0.6321 -0.4720
 9139SOL    HW128316   6.980   4.026   1.591  0.9758 -2.0232 -2.2792
 9139SOL    HW228317   7.107   3.989   1.685 -0.0468 -0.6716 -0.2933
 9140SOL     OW28318   1.619   5.702   1.479 -0.1019 -0.1840  0.1518
 9140SOL    HW128319   1.671   5.726   1.396  1.5464 -1.7477  0.6784
 9140SOL    HW228320   1.565   5.620   1.462 -1.0316  0.4079  0.1705
 9141SOL     OW28321   0.943   5.770   0.653 -0.0059  0.1442 -0.2536
 9141SOL    HW128322   0.907   5.859   0.680 -0.7269 -0.5599  1.2687
 9141SOL    HW228323   0.952   5.766   0.553  1.0054  2.2460 -0.3102
 9142SOL     OW28324   0.145   3.930   2.384 -0.1146 -0.4919 -0.3805
 9142SOL    HW128325   0.073   3.888   2.328 -0.0503  1.9425 -2.5207
 9142SOL    HW228326   0.204   3.985   2.325  1.1175  0.7600  1.8911
 9143SOL     OW28327   0.666   4.011   6.483  0.2755 -0.3167  0.5037
 9143SOL    HW128328   0.566   4.023   6.487  0.1722 -0.4025 -1.1427
 9143SOL    HW228329   0.709   4.100   6.466  0.4847 -0.3196  0.9786
 9144SOL     OW28330   3.013   5.605   4.499  0.3737 -0.2961 -0.1010
 9144SOL    HW128331   2.989   5.688   4.549  0.1279 -0.8076  0.6555
 9144SOL    HW228332   2.991   5.525   4.555  0.4587 -0.8784 -0.8790
 9145SOL     OW28333   0.529   5.605   6.734  0.0652  0.3182 -0.1292
 9145SOL    HW128334   0.623   5.635   6.718  0.0626 -0.0653 -0.9199
 9145SOL    HW228335   0.521   5.566   6.826  0.9741 -0.7427 -0.4735
 9146SOL     OW28336   5.875   4.354   3.098 -0.2639  0.0698 -0.2006
 9146SOL    HW128337   5.867   4.254   3.101  0.0605  0.0610  0.9103
 9146SOL    HW228338   5.784   4.395   3.101 -0.3638 -0.1858  1.1844
 9147SOL     OW28339   5.337   1.882   4.627  0.4439  0.2462 -0.2007
 9147SOL    HW128340   5.360   1.958   4.565  0.0069 -0.3309 -1.0988
 9147SOL    HW228341   5.355   1.795   4.581 -1.2953 -0.2046 -0.1021
 9148SOL     OW28342   5.997   1.150   3.168 -0.2416 -0.1564 -0.3233
 9148SOL    HW128343   5.976   1.175   3.074 -1.9362 -1.9080 -0.4987
 9148SOL    HW228344   5.932   1.195   3.230 -0.3260 -0.4323 -0.2046
 9149SOL     OW28345   5.155   3.162   2.141 -0.7141 -0.0755 -0.5504
 9149SOL    HW128346   5.194   3.071   2.128 -0.4629  0.0223 -0.4991
 9149SOL    HW228347   5.101   3.163   2.225 -0.5361 -0.1213 -0.4329
 9150SOL     OW28348   2.136   3.207   1.829  0.1477 -0.3044  0.2040
 9150SOL    HW128349   2.209   3.153   1.787 -0.2163 -0.1327 -0.6883
 9150SOL    HW228350   2.175   3.280   1.884  0.6624  0.0925 -0.6678
 9151SOL     OW28351   1.194   5.393   3.820 -0.1500  0.2248 -0.3165
 9151SOL    HW128352   1.269   5.387   3.754  0.8288 -1.4274  0.8568
 9151SOL    HW228353   1.108   5.407   3.771  0.3643 -2.1247 -2.0946
 9152SOL     OW28354   2.068   4.059   5.204  0.5923 -0.2201 -0.8967
 9152SOL    HW128355   1.983   4.040   5.154  0.6521  1.2226 -1.6030
 9152SOL    HW228356   2.144   4.063   5.139  0.5779  2.3089 -0.8273
 9153SOL     OW28357   2.301   2.812   6.731 -0.4834  0.3465  0.3661
 9153SOL    HW128358   2.306   2.834   6.633  0.0880  0.6355  0.4536
 9153SOL    HW228359   2.253   2.725   6.743 -2.3773  1.2775 -0.0226
 9154SOL     OW28360   3.660   5.370   3.372  0.2770  0.8385  0.6526
 9154SOL    HW128361   3.693   5.403   3.461  0.7149 -0.0661  0.8285
 9154SOL    HW228362   3.656   5.447   3.308  2.1931  1.1003  0.7814
 9155SOL     OW28363   2.288   4.099   2.833  0.0957  0.6566  0.2605
 9155SOL    HW128364   2.357   4.144   2.891  0.7475 -0.3250  0.2658
 9155SOL    HW228365   2.272   4.006   2.866  1.4689 -0.4243 -1.8843
 9156SOL     OW28366   0.382   3.349   0.564  0.2948  0.2098  0.7473
 9156SOL    HW128367   0.359   3.446   0.566 -0.3435  0.0732  0.4188
 9156SOL    HW228368   0.455   3.333   0.497  0.3044  0.4417  0.7017
 9157SOL     OW28369   1.270   3.422   6.249 -0.2828  0.4272  0.2998
 9157SOL    HW128370   1.291   3.411   6.151 -0.6739  0.3626  0.2244
 9157SOL    HW228371   1.349   3.392   6.303 -0.5470 -0.7490  0.0438
 9158SOL     OW28372   6.022   6.999   2.440 -0.0758 -0.0472 -0.0850
 9158SOL    HW128373   6.071   7.085   2.425 -0.0275 -0.0571  0.0149
 9158SOL    HW228374   5.934   7.018   2.483 -0.6286  0.0676 -1.2371
 9159SOL     OW28375   1.545   5.826   2.367 -0.0342 -0.2426 -0.1973
 9159SOL    HW128376   1.589   5.784   2.446  1.7016 -0.3788 -1.1880
 9159SOL    HW228377   1.479   5.895   2.398  2.3979  1.5339  1.3915
 9160SOL     OW28378   2.121   6.439   5.293 -0.2918  0.1913  0.7227
 9160SOL    HW128379   2.211   6.454   5.252  0.4940 -1.5647  1.6934
 9160SOL    HW228380   2.051   6.483   5.237  0.9607 -0.1404 -1.1894
 9161SOL     OW28381   5.809   4.467   2.412  0.5870  0.1727 -0.5190
 9161SOL    HW128382   5.807   4.443   2.509 -0.7494  0.1629 -0.5358
 9161SOL    HW228383   5.901   4.499   2.388  1.3896 -1.2879  0.3845
 9162SOL     OW28384   2.789   2.301   2.320 -0.1905 -0.3351 -0.0004
 9162SOL    HW128385   2.875   2.287   2.271  0.9516  2.0919  1.1331
 9162SOL    HW228386   2.720   2.337   2.258  1.5050  3.6321  0.1256
 9163SOL     OW28387   0.957   3.632   2.006 -0.0504 -0.4775  0.1295
 9163SOL    HW128388   0.873   3.679   2.033 -0.8213 -2.3136  1.1157
 9163SOL    HW228389   0.974   3.648   1.909 -0.4754  1.4660  0.3367
 9164SOL     OW28390   2.226   1.210   1.132  0.1469  0.2830 -0.2396
 9164SOL    HW128391   2.320   1.228   1.163  0.5752 -1.0332 -0.6670
 9164SOL    HW228392   2.173   1.171   1.207  0.4643 -0.5871 -0.4503
 9165SOL     OW28393   5.215   1.435   4.520  0.2388  0.0497 -0.2999
 9165SOL    HW128394   5.262   1.521   4.538 -0.3792  0.6554 -1.5360
 9165SOL    HW228395   5.116   1.448   4.527  0.1716 -1.1071  1.8076
 9166SOL     OW28396   3.237   0.186   2.453 -0.1047  0.0047 -0.2046
 9166SOL    HW128397   3.221   0.111   2.389  2.8679  0.4352 -1.6634
 9166SOL    HW228398   3.307   0.247   2.415  1.7169  0.3943  3.3628
 9167SOL     OW28399   5.467   0.807   6.394  0.6917 -0.0095  0.6001
 9167SOL    HW128400   5.562   0.814   6.425  0.7346  1.4540  0.1985
 9167SOL    HW228401   5.460   0.836   6.299 -0.3352  1.1028  0.9841
 9168SOL     OW28402   5.094   4.275   4.007 -0.1014 -0.1295 -0.4058
 9168SOL    HW128403   5.147   4.239   3.930 -0.4631 -0.4913 -0.4951
 9168SOL    HW228404   5.061   4.366   3.984 -1.0478 -0.6159 -1.1177
 9169SOL     OW28405   0.493   6.790   0.070 -0.2006 -0.0925  0.2217
 9169SOL    HW128406   0.456   6.697   0.081  0.0287 -0.2270 -0.1191
 9169SOL    HW228407   0.420   6.851   0.039 -0.0863 -0.4209 -0.7388
 9170SOL     OW28408   2.005   2.352   6.893 -0.2522  0.3209 -0.1216
 9170SOL    HW128409   2.012   2.269   6.838 -1.9324  0.1046 -0.0379
 9170SOL    HW228410   1.910   2.370   6.917 -0.0028  2.5333 -0.5128
 9171SOL     OW28411   3.487   5.105   1.656  0.1225 -0.6114 -0.0710
 9171SOL    HW128412   3.586   5.118   1.649  0.0314  0.0609 -0.1176
 9171SOL    HW228413   3.440   5.174   1.601 -0.4032 -0.1471  0.9503
 9172SOL     OW28414   6.093   3.406   6.801  0.2626  0.5249  0.4819
 9172SOL    HW128415   6.082   3.483   6.738 -1.4210  0.3063  0.4650
 9172SOL    HW228416   6.152   3.434   6.877  1.7374  1.0145 -0.7858
 9173SOL     OW28417   6.540   3.217   2.763 -0.3087  0.3450  0.0850
 9173SOL    HW128418   6.457   3.237   2.709 -0.6480  1.7965  1.0928
 9173SOL    HW228419   6.613   3.279   2.734 -0.7464  1.7460  1.8172
 9174SOL     OW28420   6.134   6.604   5.885  0.4984 -0.5393 -0.7776
 9174SOL    HW128421   6.126   6.608   5.786 -1.0159 -1.7867 -0.7302
 9174SOL    HW228422   6.086   6.524   5.920 -0.3763  0.7329  1.1005
 9175SOL     OW28423   2.279   0.046   0.431  0.0548 -0.5677 -0.1904
 9175SOL    HW128424   2.363  -0.008   0.430  0.5058  0.1408 -1.3479
 9175SOL    HW228425   2.298   0.136   0.471 -0.4193 -0.8162  0.6057
 9176SOL     OW28426   1.698   1.403   3.898  0.0968  0.1152  0.1424
 9176SOL    HW128427   1.603   1.413   3.928  0.4148  0.6192  1.0131
 9176SOL    HW228428   1.744   1.492   3.902  0.8492 -0.2828  0.5787
 9177SOL     OW28429   0.561   0.680   3.284  0.0870 -0.3824  0.2222
 9177SOL    HW128430   0.525   0.590   3.306  0.0103 -0.8658 -1.6787
 9177SOL    HW228431   0.543   0.700   3.188  3.8448 -0.1805 -0.6036
 9178SOL     OW28432   2.944   6.554   6.718 -0.1467 -0.3301  0.2942
 9178SOL    HW128433   2.853   6.552   6.758 -0.7682 -0.7409 -1.0708
 9178SOL    HW228434   2.961   6.469   6.668  0.5948  0.1291 -0.2728
 9179SOL     OW28435   3.455   6.142   4.328  0.1092 -0.0256  0.6021
 9179SOL    HW128436   3.360   6.118   4.347 -0.2334  0.4934 -0.4049
 9179SOL    HW228437   3.459   6.202   4.248  1.3966 -1.1019 -0.1797
 9180SOL     OW28438   0.122   3.561   2.967 -0.2761  0.0069 -0.0986
 9180SOL    HW128439   0.061   3.604   2.901  0.2851 -2.5294 -2.4557
 9180SOL    HW228440   0.080   3.476   3.000  1.5165 -1.3467 -1.1288
 9181SOL     OW28441   5.973   2.913   3.040 -0.4420  0.1612  0.8867
 9181SOL    HW128442   5.882   2.872   3.032 -0.6960  0.8083  0.3980
 9181SOL    HW228443   6.034   2.874   2.972 -0.3850 -0.1879  1.1367
 9182SOL     OW28444   2.965   1.666   2.661  0.8076 -0.4955  0.3526
 9182SOL    HW128445   2.928   1.574   2.668  2.4513 -1.1567  0.8813
 9182SOL    HW228446   2.891   1.733   2.666 -0.6773 -1.7945 -2.2216
 9183SOL     OW28447   4.372   3.242   0.833  0.1308  0.3876  0.2829
 9183SOL    HW128448   4.448   3.266   0.894 -0.0654 -0.6337  0.9668
 9183SOL    HW228449   4.371   3.143   0.821 -1.2469  0.3622  0.4932
 9184SOL     OW28450   2.831   2.053   1.939  0.4023  0.5827  0.3420
 9184SOL    HW128451   2.733   2.070   1.949  0.3550  0.9057 -0.5334
 9184SOL    HW228452   2.882   2.136   1.960  0.3461  1.0371 -1.1624
 9185SOL     OW28453   0.633   6.255   6.500 -0.4035 -0.2290  0.7265
 9185SOL    HW128454   0.712   6.272   6.441 -1.8941  0.9755 -1.0328
 9185SOL    HW228455   0.644   6.304   6.586  1.0319 -0.6028  0.7766
 9186SOL     OW28456   3.549   5.173   6.974 -0.4500 -0.2758  0.1737
 9186SOL    HW128457   3.497   5.131   7.048 -0.6849 -1.4949 -0.6512
 9186SOL    HW228458   3.594   5.257   7.007  0.2718 -1.3137  1.9548
 9187SOL     OW28459   6.044   2.108   5.883  0.6117 -0.1515  0.1674
 9187SOL    HW128460   6.086   2.192   5.849  0.7100  0.7149  2.2587
 9187SOL    HW228461   5.959   2.129   5.930 -1.5418 -1.7306 -2.7069
 9188SOL     OW28462   6.775   0.153   0.471  0.0950  0.2536  0.4927
 9188SOL    HW128463   6.779   0.248   0.501  0.4972  0.2524  0.4555
 9188SOL    HW228464   6.697   0.107   0.513 -1.5326  1.2179 -1.3166
 9189SOL     OW28465   2.397   0.647   3.072  0.3695  0.1169  0.2121
 9189SOL    HW128466   2.437   0.705   3.142  1.7337 -0.6003  0.0636
 9189SOL    HW228467   2.311   0.609   3.106  1.2392 -0.6157  1.7268
 9190SOL     OW28468   5.679   4.690   6.220  0.8306 -0.4451  0.0957
 9190SOL    HW128469   5.764   4.729   6.253 -0.0174  2.3423 -0.7226
 9190SOL    HW228470   5.666   4.714   6.124 -0.5810 -1.3314  0.0303
 9191SOL     OW28471   6.324   1.127   0.663  0.2026  0.2506 -0.2793
 9191SOL    HW128472   6.262   1.059   0.704  1.2793 -0.5969 -0.0006
 9191SOL    HW228473   6.328   1.113   0.564 -0.6407  0.8192 -0.4037
 9192SOL     OW28474   6.810   5.749   6.625 -0.1181  0.7149 -0.4109
 9192SOL    HW128475   6.879   5.681   6.651  0.7097  0.6356 -2.6190
 9192SOL    HW228476   6.801   5.816   6.699  0.1012 -0.9281  1.2010
 9193SOL     OW28477   3.427   3.362   3.302  0.0893 -0.5945  0.1245
 9193SOL    HW128478   3.412   3.268   3.333  1.0100 -0.5334  0.7851
 9193SOL    HW228479   3.463   3.361   3.208 -0.4128 -0.8769 -0.0664
 9194SOL     OW28480   4.744   0.276   4.016  0.4809 -0.2183 -0.3715
 9194SOL    HW128481   4.795   0.220   3.951  1.9730 -0.0442  0.5968
 9194SOL    HW228482   4.664   0.315   3.970  1.2873 -0.3702 -1.9968
 9195SOL     OW28483   0.509   2.718   4.938 -0.2459 -0.1719 -0.3556
 9195SOL    HW128484   0.467   2.804   4.967  0.5623  0.6301 -1.4802
 9195SOL    HW228485   0.475   2.692   4.848  0.3757 -0.4234 -0.5268
 9196SOL     OW28486   4.529   6.931   5.937 -0.1030  0.1359 -0.3572
 9196SOL    HW128487   4.607   6.875   5.907  0.4596  0.7694 -0.1150
 9196SOL    HW228488   4.497   6.987   5.861 -1.0029 -0.8725 -0.7450
 9197SOL     OW28489   2.985   2.841   6.359 -0.1422 -0.6923  0.6884
 9197SOL    HW128490   3.034   2.861   6.444 -1.5757  1.0176  1.1716
 9197SOL    HW228491   2.896   2.886   6.360 -0.8442 -1.9097 -1.0911
 9198SOL     OW28492   4.210   4.579   5.870  1.1865  0.1605  0.0905
 9198SOL    HW128493   4.182   4.668   5.906 -0.2853  0.2037 -1.0729
 9198SOL    HW228494   4.136   4.541   5.814  2.6987 -0.6890 -1.4335
 9199SOL     OW28495   0.260   4.070   5.946  0.0150  0.4652  0.1895
 9199SOL    HW128496   0.260   3.973   5.924  0.0189  0.0880  1.7588
 9199SOL    HW228497   0.277   4.123   5.863  0.3859 -0.8790 -0.6163
 9200SOL     OW28498   6.987   0.444   0.918 -0.0619 -0.4031 -0.0137
 9200SOL    HW128499   6.945   0.355   0.937 -0.4572 -0.0200  0.9569
 9200SOL    HW228500   6.950   0.513   0.980  1.8756 -0.0115  0.7824
 9201SOL     OW28501   1.259   5.243   6.504  0.2975  0.2335 -0.6609
 9201SOL    HW128502   1.208   5.160   6.529  0.7132  0.5684  1.5633
 9201SOL    HW228503   1.217   5.286   6.425 -1.9673 -0.3040  0.1833
 9202SOL     OW28504   2.285   6.152   4.173 -0.4642  0.0664  0.4931
 9202SOL    HW128505   2.192   6.134   4.202  0.2903 -1.7315  1.9430
 9202SOL    HW228506   2.312   6.244   4.202 -1.0756 -0.2135  2.0203
 9203SOL     OW28507   4.571   1.302   5.024 -0.0697  0.3900 -0.4730
 9203SOL    HW128508   4.633   1.324   4.949  1.9304  1.9866  1.5098
 9203SOL    HW228509   4.622   1.298   5.110 -2.1883 -1.7517  0.8294
 9204SOL     OW28510   4.829   4.214   1.999  0.4205  0.1933 -0.2020
 9204SOL    HW128511   4.867   4.286   1.942 -0.8415  0.3775 -0.8490
 9204SOL    HW228512   4.730   4.227   2.008  0.3574 -0.7535  0.6959
 9205SOL     OW28513   4.607   0.222   2.129 -0.3410 -0.3305 -0.3133
 9205SOL    HW128514   4.703   0.250   2.131  0.2092 -1.9361 -1.3752
 9205SOL    HW228515   4.598   0.140   2.072 -2.2894 -0.4660  0.1141
 9206SOL     OW28516   2.821   6.378   3.710  0.0329 -0.0697 -0.3939
 9206SOL    HW128517   2.822   6.414   3.803  0.5032  0.4858 -0.6081
 9206SOL    HW228518   2.745   6.420   3.659 -0.5775 -0.8019 -0.1018
 9207SOL     OW28519   3.977   0.213   0.001  0.7561 -0.3134 -0.5518
 9207SOL    HW128520   3.987   0.311  -0.016  3.5273 -0.0820  1.7361
 9207SOL    HW228521   4.067   0.171   0.013 -0.3906 -2.1776  3.1977
 9208SOL     OW28522   5.604   4.276   3.365 -0.4475 -0.0808 -0.0473
 9208SOL    HW128523   5.523   4.254   3.420 -1.2109 -0.0630 -1.1178
 9208SOL    HW228524   5.666   4.332   3.418 -1.2180  0.0368  0.7553
 9209SOL     OW28525   3.094   0.812   2.644  0.4371 -0.0194  0.7839
 9209SOL    HW128526   3.171   0.750   2.630  1.3723  1.6012 -1.9427
 9209SOL    HW228527   3.129   0.903   2.669 -0.5254  0.7898 -0.6891
 9210SOL     OW28528   4.335   1.107   3.150 -0.8548  0.1527 -0.3784
 9210SOL    HW128529   4.299   1.200   3.156  0.2502  0.5044  1.2987
 9210SOL    HW228530   4.415   1.105   3.090 -0.7269  0.3197 -0.2099
 9211SOL     OW28531   6.183   0.909   4.831  0.1474  0.1936  0.1118
 9211SOL    HW128532   6.203   0.991   4.884  1.8722 -0.3375  0.3461
 9211SOL    HW228533   6.157   0.935   4.738  1.5171  0.9945 -0.0709
 9212SOL     OW28534   3.841   5.389   5.696  0.1482 -0.1538 -0.4644
 9212SOL    HW128535   3.904   5.312   5.696  2.3789  1.5059 -2.4662
 9212SOL    HW228536   3.750   5.358   5.668  0.3620 -2.3894  1.1297
 9213SOL     OW28537   4.826   0.144   3.751 -0.4702 -0.7795 -0.2116
 9213SOL    HW128538   4.914   0.109   3.783 -0.7367 -1.3086 -0.0420
 9213SOL    HW228539   4.783   0.077   3.691 -0.2578 -0.0505 -1.1936
 9214SOL     OW28540   0.982   1.126   4.562  0.3331 -0.3051  0.1397
 9214SOL    HW128541   1.029   1.118   4.650 -0.2816  1.6092  0.6935
 9214SOL    HW228542   1.041   1.173   4.497 -0.1335  0.5564  0.3200
 9215SOL     OW28543   6.597   5.741   1.969  0.1028  0.5077 -0.6507
 9215SOL    HW128544   6.506   5.781   1.967  0.8032  2.2478 -0.0299
 9215SOL    HW228545   6.655   5.787   1.901  0.6260 -0.3546 -0.8119
 9216SOL     OW28546   2.707   1.583   4.102  0.6571 -0.0515 -0.3468
 9216SOL    HW128547   2.652   1.540   4.030  0.5382 -1.6773  0.6742
 9216SOL    HW228548   2.651   1.595   4.184  0.8113  1.7278 -0.4596
 9217SOL     OW28549   6.018   6.629   4.896  0.2980  0.2811  0.4975
 9217SOL    HW128550   5.997   6.705   4.835 -2.0245 -0.5907  0.0944
 9217SOL    HW228551   6.110   6.594   4.877 -0.1912  0.2903 -2.2614
 9218SOL     OW28552   5.971   7.015   5.507 -0.4680  0.7228 -0.7491
 9218SOL    HW128553   5.940   7.086   5.570 -0.5414 -0.4446  0.5756
 9218SOL    HW228554   5.893   6.965   5.471 -0.3162 -0.2988  0.2870
 9219SOL     OW28555   4.841   4.238   6.006 -0.0239  0.7671 -0.2245
 9219SOL    HW128556   4.897   4.281   6.077 -0.0150  1.6742 -0.7582
 9219SOL    HW228557   4.859   4.140   6.003 -0.2233  0.6650  1.1958
 9220SOL     OW28558   1.626   5.615   3.450 -0.2735  0.3718 -0.6770
 9220SOL    HW128559   1.659   5.534   3.500 -3.3158 -0.5975 -0.0086
 9220SOL    HW228560   1.583   5.585   3.365 -0.6206  1.4128 -0.8698
 9221SOL     OW28561   5.199   6.533   5.321  0.6265  0.0255  0.1737
 9221SOL    HW128562   5.139   6.487   5.387  0.7075 -0.2713  0.0434
 9221SOL    HW228563   5.151   6.611   5.281 -0.3935 -1.2674 -1.3015
 9222SOL     OW28564   1.595   4.935   3.476 -0.2876 -0.2069  0.2313
 9222SOL    HW128565   1.507   4.965   3.440  0.2504  1.9564  0.5176
 9222SOL    HW228566   1.615   4.987   3.560  2.1158  0.8693 -0.9072
 9223SOL     OW28567   1.097   1.774   4.137 -0.2650 -0.0433  0.3923
 9223SOL    HW128568   1.173   1.839   4.137 -0.6943  0.5046  2.1057
 9223SOL    HW228569   1.014   1.819   4.104 -0.0673 -0.3827 -0.5959
 9224SOL     OW28570   0.695   2.972   1.979  0.3969 -0.6654  0.0285
 9224SOL    HW128571   0.707   2.892   2.038  0.3731 -0.5572  0.1797
 9224SOL    HW228572   0.611   2.962   1.926 -1.0972  0.4942  2.0240
 9225SOL     OW28573   4.099   0.604   6.547  0.2943  0.1924  0.2634
 9225SOL    HW128574   4.107   0.580   6.450 -0.9685 -1.3172  0.4859
 9225SOL    HW228575   4.182   0.575   6.595  1.1382  1.4010 -0.4269
 9226SOL     OW28576   1.923   6.137   2.222  0.3583 -0.4687  0.2283
 9226SOL    HW128577   2.003   6.179   2.265 -0.0929 -1.8931  2.6216
 9226SOL    HW228578   1.946   6.044   2.194  0.4835  0.2551 -2.2965
 9227SOL     OW28579   1.344   6.938   1.738 -0.4574 -0.1859 -0.0054
 9227SOL    HW128580   1.277   6.979   1.676 -1.9280 -0.8293  1.1007
 9227SOL    HW228581   1.411   6.887   1.684 -0.8275  0.5015 -1.1566
 9228SOL     OW28582   2.881   2.416   5.593  0.0162 -0.6714 -0.0740
 9228SOL    HW128583   2.802   2.466   5.628  1.1851  0.7326  0.7021
 9228SOL    HW228584   2.896   2.441   5.497  0.4217  0.2744  0.2272
 9229SOL     OW28585   1.354   5.053   6.797  0.3461 -0.4966  0.2308
 9229SOL    HW128586   1.332   4.974   6.740  1.7567 -3.5212  3.5123
 9229SOL    HW228587   1.275   5.075   6.855  0.6883 -0.9750  0.8833
 9230SOL     OW28588   5.483   1.030   4.346  0.6875  0.1186  0.3019
 9230SOL    HW128589   5.554   1.084   4.392  0.5953 -0.3591  1.0212
 9230SOL    HW228590   5.404   1.020   4.407 -0.7909  2.1906 -1.1544
 9231SOL     OW28591   6.246   5.129   5.183  0.4109  0.3913  0.0700
 9231SOL    HW128592   6.271   5.142   5.279 -0.3394  1.4206  0.1438
 9231SOL    HW228593   6.222   5.034   5.167 -1.7384  0.6377  1.4802
 9232SOL     OW28594   1.862   4.613   6.456  0.2703  0.0429 -0.7906
 9232SOL    HW128595   1.948   4.660   6.437  0.9622 -1.3703 -1.3027
 9232SOL    HW228596   1.795   4.638   6.386 -0.6397  3.1886  1.0432
 9233SOL     OW28597   0.611   6.948   6.659  0.0600  0.1808 -0.3419
 9233SOL    HW128598   0.557   6.938   6.575  0.3214 -0.8223 -0.4015
 9233SOL    HW228599   0.582   7.031   6.706 -0.8952  0.1596 -0.8414
 9234SOL     OW28600   2.993   0.316   2.484 -0.2965  0.4413  0.1940
 9234SOL    HW128601   2.926   0.243   2.469 -0.8888  1.3331 -1.9451
 9234SOL    HW228602   3.081   0.287   2.448 -0.0729  0.1271  0.9713
 9235SOL     OW28603   2.790   3.289   1.767 -0.5804 -0.1013  0.4781
 9235SOL    HW128604   2.824   3.324   1.680 -0.7183 -0.7814  0.1449
 9235SOL    HW228605   2.690   3.297   1.769 -0.8050 -2.0967 -0.3583
 9236SOL     OW28606   2.703   5.690   0.148  0.0409  0.0259  0.0910
 9236SOL    HW128607   2.793   5.715   0.184  0.7363 -0.1031 -1.4976
 9236SOL    HW228608   2.690   5.592   0.157  1.2616 -0.4212 -2.1118
 9237SOL     OW28609   6.508   5.726   3.333 -0.4252 -0.3661 -0.2110
 9237SOL    HW128610   6.412   5.700   3.329 -0.4240 -0.2388 -1.4567
 9237SOL    HW228611   6.525   5.804   3.272  0.2184  0.4858  0.9866
 9238SOL     OW28612   2.123   3.304   5.817  0.5231 -0.1088 -0.3279
 9238SOL    HW128613   2.095   3.389   5.861  2.5817 -0.2384  1.4220
 9238SOL    HW228614   2.170   3.324   5.732 -0.5056  0.3682 -0.7990
 9239SOL     OW28615   0.062   6.199   0.373 -0.6613 -0.3702 -0.2660
 9239SOL    HW128616   0.143   6.166   0.421  0.0796 -1.1718 -1.9515
 9239SOL    HW228617   0.079   6.291   0.337 -1.2962  0.3201  1.1492
 9240SOL     OW28618   6.314   3.687   1.880 -0.6411 -0.5102 -0.0260
 9240SOL    HW128619   6.224   3.644   1.872 -1.4033  0.6123  1.8469
 9240SOL    HW228620   6.347   3.679   1.974  1.0189 -0.4463 -0.5575
 9241SOL     OW28621   6.253   6.137   5.963  0.0852 -0.0684 -0.3974
 9241SOL    HW128622   6.323   6.178   5.904 -0.3724  0.2879 -0.7014
 9241SOL    HW228623   6.164   6.174   5.938 -0.1419 -0.1011  0.3613
 9242SOL     OW28624   2.118   3.421   6.793  0.0378  0.5547 -0.3580
 9242SOL    HW128625   2.058   3.462   6.724  0.5511  0.9166 -0.5972
 9242SOL    HW228626   2.209   3.407   6.754 -0.2233 -1.2134 -0.4120
 9243SOL     OW28627   0.192   0.696   2.419  0.2230  0.5505  0.3452
 9243SOL    HW128628   0.262   0.673   2.351 -1.8499 -0.0867 -1.7081
 9243SOL    HW228629   0.197   0.632   2.495  0.8502 -0.5018 -0.5464
 9244SOL     OW28630   1.934   0.492   5.205  0.5579 -0.7142  0.2062
 9244SOL    HW128631   1.842   0.467   5.173  0.2284 -1.0070  1.3516
 9244SOL    HW228632   1.952   0.587   5.182  0.4397 -0.9795 -1.0764
 9245SOL     OW28633   6.041   4.573   2.756 -0.0210  0.0999  0.3022
 9245SOL    HW128634   6.039   4.642   2.683  0.3625 -0.1559  0.0486
 9245SOL    HW228635   5.964   4.510   2.744  1.1009 -1.0709 -0.9899
 9246SOL     OW28636   6.438   0.210   2.347 -0.3014 -0.1137  0.5935
 9246SOL    HW128637   6.450   0.286   2.284  1.3573 -0.1330  0.8408
 9246SOL    HW228638   6.473   0.126   2.306 -0.8097 -0.4655  0.8679
 9247SOL     OW28639   3.781   5.420   2.092 -0.0966  0.2976  0.7732
 9247SOL    HW128640   3.872   5.460   2.094 -0.3226  0.9477 -0.6157
 9247SOL    HW228641   3.774   5.357   2.014 -0.9725  0.6393  0.5657
 9248SOL     OW28642   3.497   1.156   4.224 -0.1363 -0.6539  0.1937
 9248SOL    HW128643   3.493   1.227   4.295  0.5366  0.1520 -0.5446
 9248SOL    HW228644   3.405   1.132   4.195 -0.3739  0.0385  0.3542
 9249SOL     OW28645   4.026   4.453   1.670 -0.0656 -0.1872  0.3459
 9249SOL    HW128646   4.003   4.356   1.683 -0.9612  0.2675  2.5429
 9249SOL    HW228647   4.125   4.464   1.674  0.0697 -1.0515 -0.2940
 9250SOL     OW28648   0.350   2.797   3.798  0.2227 -0.0075 -0.3010
 9250SOL    HW128649   0.314   2.754   3.880 -0.9473 -0.6666 -1.1329
 9250SOL    HW228650   0.275   2.823   3.737  1.0173  1.3278 -0.7652
 9251SOL     OW28651   3.805   1.737   6.377 -0.2988  0.0281 -0.7552
 9251SOL    HW128652   3.816   1.830   6.413 -1.5790 -0.5115  1.2077
 9251SOL    HW228653   3.875   1.720   6.307 -0.1693  2.5097 -1.3379
 9252SOL     OW28654   5.259   0.668   3.980  0.1912  0.0613  0.3363
 9252SOL    HW128655   5.188   0.737   3.963 -0.0226 -0.3230 -0.3522
 9252SOL    HW228656   5.320   0.701   4.053  0.2943  1.1298 -0.2096
 9253SOL     OW28657   6.917   5.476   0.443 -0.0052 -0.6398  0.0773
 9253SOL    HW128658   6.833   5.426   0.420  1.0294 -1.4270 -2.2563
 9253SOL    HW228659   6.896   5.573   0.455 -1.3644 -0.9612  0.4656
 9254SOL     OW28660   4.659   5.199   3.022  0.6914  0.1246 -0.0461
 9254SOL    HW128661   4.607   5.258   3.084  0.7062 -0.6569  0.7282
 9254SOL    HW228662   4.598   5.130   2.984  1.1025 -0.6604  0.6961
 9255SOL     OW28663   5.997   4.106   6.169  0.1120 -0.2361  0.3827
 9255SOL    HW128664   5.995   4.085   6.071 -0.7620 -0.5288  0.4624
 9255SOL    HW228665   6.029   4.026   6.220 -0.6589 -0.5034  0.4488
 9256SOL     OW28666   1.638   0.997   1.721 -0.0727 -0.0045 -0.6756
 9256SOL    HW128667   1.678   0.914   1.761 -0.3299 -0.0420 -0.4940
 9256SOL    HW228668   1.649   0.995   1.622 -1.2410 -0.8837 -0.8075
 9257SOL     OW28669   0.598   5.787   2.563  0.2121 -0.4177  0.2448
 9257SOL    HW128670   0.522   5.775   2.627 -0.8635  0.1264 -0.8769
 9257SOL    HW228671   0.638   5.697   2.542 -1.6933 -1.0540 -0.9486
 9258SOL     OW28672   3.523   5.098   6.213 -0.1743  0.5346  0.0528
 9258SOL    HW128673   3.604   5.040   6.223  1.0318  1.7896 -1.8575
 9258SOL    HW228674   3.520   5.164   6.289  2.1794  2.2390 -1.2135
 9259SOL     OW28675   1.996   1.624   6.322 -0.2647 -0.0769 -0.0571
 9259SOL    HW128676   1.976   1.590   6.230 -1.9121 -0.8001  0.5189
 9259SOL    HW228677   1.935   1.579   6.388 -2.7321  3.9640  0.7879
 9260SOL     OW28678   1.358   1.457   0.337  0.4555 -0.0952  0.3265
 9260SOL    HW128679   1.365   1.377   0.277  0.4298 -0.2050  0.4712
 9260SOL    HW228680   1.407   1.440   0.422 -0.1156 -0.2161  0.6386
 9261SOL     OW28681   6.375   0.630   0.413 -0.4005 -0.0474  0.1781
 9261SOL    HW128682   6.330   0.546   0.445  0.2516 -0.2123  0.6869
 9261SOL    HW228683   6.379   0.696   0.488 -1.2180  0.5827 -0.3132
 9262SOL     OW28684   6.833   5.328   3.402  0.0996 -0.1324  0.0954
 9262SOL    HW128685   6.827   5.279   3.489 -0.2993 -0.2616 -0.0021
 9262SOL    HW228686   6.926   5.360   3.388  0.1912 -0.2093  0.5183
 9263SOL     OW28687   1.913   4.572   4.322 -0.2054  0.3873  0.8618
 9263SOL    HW128688   1.864   4.627   4.255  0.2168  0.0963  0.3020
 9263SOL    HW228689   1.857   4.494   4.349 -0.1520  0.1897  0.4102
 9264SOL     OW28690   5.429   4.171   5.895  0.4111 -0.2791 -0.6104
 9264SOL    HW128691   5.386   4.260   5.913  0.2273 -0.3981 -0.4568
 9264SOL    HW228692   5.377   4.123   5.825 -0.6598 -1.1074  0.7186
 9265SOL     OW28693   4.882   2.457   4.989 -0.3603  0.1132 -0.1462
 9265SOL    HW128694   4.974   2.442   5.027 -0.9753  0.2907  1.4705
 9265SOL    HW228695   4.814   2.409   5.044 -1.3042  0.3715 -1.0494
 9266SOL     OW28696   6.850   4.599   1.325 -0.3537 -0.0426 -0.6407
 9266SOL    HW128697   6.878   4.636   1.414  1.1043 -0.5515 -0.8554
 9266SOL    HW228698   6.819   4.673   1.266  0.9693  0.6417 -0.5129
 9267SOL     OW28699   0.126   2.324   2.820 -0.0511  0.1163  0.0723
 9267SOL    HW128700   0.071   2.254   2.865 -0.5932 -0.5187 -1.4874
 9267SOL    HW228701   0.192   2.280   2.759  0.4637  0.9486  0.0110
 9268SOL     OW28702   1.824   5.725   1.655  0.1222  0.0727 -0.1934
 9268SOL    HW128703   1.760   5.706   1.580 -0.6443 -0.8891  0.6770
 9268SOL    HW228704   1.860   5.817   1.645 -2.1784  1.0525 -0.1955
 9269SOL     OW28705   2.918   1.132   1.102  0.2339 -0.6202 -0.2332
 9269SOL    HW128706   3.017   1.149   1.100  0.0399  0.5793 -0.9403
 9269SOL    HW228707   2.888   1.100   1.012 -0.0173 -0.9864 -0.0196
 9270SOL     OW28708   3.839   1.095   4.873 -0.1839 -0.2295  0.0542
 9270SOL    HW128709   3.803   1.009   4.838  0.5764 -0.2967 -0.5929
 9270SOL    HW228710   3.908   1.077   4.943 -1.4848 -0.0988  1.4280
 9271SOL     OW28711   0.405   1.319   1.760 -0.2653  0.2076 -0.1809
 9271SOL    HW128712   0.474   1.353   1.698 -1.1057 -1.3889 -2.1113
 9271SOL    HW228713   0.314   1.328   1.718 -0.7606 -1.8608  0.3002
 9272SOL     OW28714   1.439   6.238   3.702  0.2385 -0.2322  0.1588
 9272SOL    HW128715   1.387   6.287   3.772 -0.8725  1.5481 -1.8030
 9272SOL    HW228716   1.533   6.227   3.733 -0.3626 -0.1209  2.1969
 9273SOL     OW28717   4.792   4.917   2.220 -0.4320  0.0673 -0.6609
 9273SOL    HW128718   4.859   4.844   2.213  0.1039  0.6869 -2.3561
 9273SOL    HW228719   4.771   4.953   2.129 -0.6139  2.0851  0.1223
 9274SOL     OW28720   0.220   3.645   6.791  0.0720 -0.3300  0.0577
 9274SOL    HW128721   0.207   3.656   6.890  0.8533 -0.4816  0.1857
 9274SOL    HW228722   0.161   3.572   6.757  0.8430 -1.2767  0.6828
 9275SOL     OW28723   7.003   6.673   0.866  0.0185  0.0819  0.1754
 9275SOL    HW128724   6.948   6.706   0.789  1.0045 -0.0540 -0.6011
 9275SOL    HW228725   6.972   6.718   0.950 -2.7352 -1.5666  0.1669
 9276SOL     OW28726   1.309   6.059   0.503  0.2733  0.1754  0.1104
 9276SOL    HW128727   1.375   6.053   0.577 -1.0734  0.1534  1.3652
 9276SOL    HW228728   1.217   6.039   0.538 -0.3181 -0.5740 -1.7267
 9277SOL     OW28729   5.047   4.103   3.188 -0.3560  0.3029  0.0627
 9277SOL    HW128730   4.981   4.048   3.239 -0.1235  0.0692  0.1148
 9277SOL    HW228731   5.006   4.133   3.102 -0.9390  1.1664  0.6384
 9278SOL     OW28732   0.237   0.208   6.369 -0.0524  0.1287 -0.4213
 9278SOL    HW128733   0.332   0.235   6.385 -0.6650  2.3256 -0.1420
 9278SOL    HW228734   0.191   0.194   6.456  0.1567 -1.6045 -0.5616
 9279SOL     OW28735   2.663   0.489   2.446 -0.0921 -0.2796  0.0147
 9279SOL    HW128736   2.676   0.502   2.544  0.0667  1.7413 -0.2443
 9279SOL    HW228737   2.752   0.474   2.403 -0.0186  0.2029 -0.0016
 9280SOL     OW28738   2.129   3.082   2.137 -0.1724  0.3890  0.5509
 9280SOL    HW128739   2.162   2.996   2.096 -0.2532  0.2856  0.7024
 9280SOL    HW228740   2.112   3.068   2.234 -0.9082  0.3687  0.4266
 9281SOL     OW28741   3.719   3.538   0.337 -0.2192 -0.1348  0.2963
 9281SOL    HW128742   3.705   3.443   0.306  3.4950 -0.2755 -1.4466
 9281SOL    HW228743   3.669   3.600   0.277 -0.2879 -0.8715 -0.4266
 9282SOL     OW28744   3.839   0.500   4.104  0.2326  0.3399 -0.7833
 9282SOL    HW128745   3.818   0.555   4.185  1.3634  0.1391 -0.3310
 9282SOL    HW228746   3.766   0.510   4.036 -0.0704  1.5914 -0.2957
 9283SOL     OW28747   0.370   6.313   6.380 -0.3038 -0.1177  0.1244
 9283SOL    HW128748   0.444   6.329   6.446 -0.6480  0.0971  0.4682
 9283SOL    HW228749   0.300   6.255   6.423 -1.3198  1.3581  0.5442
 9284SOL     OW28750   2.990   3.959   4.762 -0.0281  0.5160 -0.0194
 9284SOL    HW128751   2.891   3.952   4.747  0.2089 -0.6581 -1.2889
 9284SOL    HW228752   3.036   3.978   4.675  0.9317 -0.0120  0.3547
 9285SOL     OW28753   3.910   5.634   0.275 -0.5278  0.7368  0.0834
 9285SOL    HW128754   4.004   5.621   0.308  0.4956  0.0195 -2.7731
 9285SOL    HW228755   3.891   5.732   0.267  0.6165  0.9179 -0.7736
 9286SOL     OW28756   3.976   5.140   0.396  0.2553  0.5602  0.1298
 9286SOL    HW128757   3.910   5.214   0.385 -0.2945  0.2862  1.3856
 9286SOL    HW228758   3.981   5.114   0.493  0.2257 -1.2240 -0.3078
 9287SOL     OW28759   2.811   3.927   6.910  0.2254 -0.2457  0.4430
 9287SOL    HW128760   2.751   3.874   6.971  1.5046  0.1430  2.1322
 9287SOL    HW228761   2.906   3.896   6.922  0.5390 -0.0347 -1.2701
 9288SOL     OW28762   3.402   1.858   2.577 -0.1516 -0.7108 -0.4195
 9288SOL    HW128763   3.463   1.920   2.527  1.3539 -1.6623  0.1577
 9288SOL    HW228764   3.330   1.826   2.516  0.3911 -0.1805 -1.3685
 9289SOL     OW28765   2.948   6.084   7.019  0.5724  0.4116  0.0647
 9289SOL    HW128766   2.877   6.110   7.085  0.7199  1.6681 -0.2516
 9289SOL    HW228767   3.026   6.044   7.068  0.1440  0.1131  0.5193
 9290SOL     OW28768   5.220   0.967   3.904  0.3114  0.5467  0.5296
 9290SOL    HW128769   5.193   1.021   3.984  0.9477  1.2136  0.3043
 9290SOL    HW228770   5.309   0.923   3.921  0.3169  0.4632  0.2990
 9291SOL     OW28771   1.917   5.199   4.303 -0.0967 -0.3589  0.9913
 9291SOL    HW128772   1.976   5.266   4.257  0.8922 -2.1701 -0.5083
 9291SOL    HW228773   1.955   5.176   4.392  1.4068 -1.3633  0.1202
 9292SOL     OW28774   1.920   0.809   6.788 -0.1915  0.2872  0.0038
 9292SOL    HW128775   1.851   0.876   6.817  0.6308  0.3322  2.0370
 9292SOL    HW228776   2.011   0.846   6.805  0.3826  0.0624 -2.2762
 9293SOL     OW28777   6.426   4.269   0.048 -0.1666 -0.0887  0.5487
 9293SOL    HW128778   6.356   4.199   0.034  1.6455 -2.4466  2.3795
 9293SOL    HW228779   6.390   4.341   0.108 -1.3794 -0.6361  0.5010
 9294SOL     OW28780   6.226   3.094   1.121 -0.0388 -0.5334  0.4350
 9294SOL    HW128781   6.161   3.169   1.112  2.7474  2.0508  0.0899
 9294SOL    HW228782   6.262   3.071   1.031  0.8800 -0.5931  0.8089
 9295SOL     OW28783   5.937   1.311   4.670  0.4338 -0.8200 -0.2518
 9295SOL    HW128784   5.977   1.311   4.578  1.1186 -1.9629  0.0293
 9295SOL    HW228785   6.009   1.314   4.738 -0.0862  0.9775  0.2933
 9296SOL     OW28786   1.969   4.511   0.597 -0.0357  0.0143  0.3596
 9296SOL    HW128787   2.009   4.453   0.527 -0.6944  0.7410 -0.6484
 9296SOL    HW228788   1.907   4.457   0.654  1.9494 -1.0159  1.6542
 9297SOL     OW28789   0.981   5.522   3.268 -0.6214 -0.1126  0.2978
 9297SOL    HW128790   1.061   5.462   3.279  1.4588  2.2786 -0.6278
 9297SOL    HW228791   0.936   5.534   3.357  2.3222  1.2937  1.7556
 9298SOL     OW28792   1.737   6.252   2.949 -0.2783  0.1465 -1.2950
 9298SOL    HW128793   1.804   6.276   3.019 -0.6178  1.4526 -1.3910
 9298SOL    HW228794   1.711   6.156   2.959  0.6087 -0.0180 -0.4288
 9299SOL     OW28795   4.995   2.157   4.697  0.0892 -0.1949 -0.0116
 9299SOL    HW128796   4.903   2.127   4.671  0.4439  1.0176 -2.9598
 9299SOL    HW228797   5.037   2.208   4.622  2.5513  0.7842  1.8761
 9300SOL     OW28798   0.220   4.673   5.034  0.1684 -1.0195  0.3443
 9300SOL    HW128799   0.147   4.729   4.996  0.1338 -1.2136  0.1282
 9300SOL    HW228800   0.306   4.723   5.029 -0.5108  0.9423  4.2081
 9301SOL     OW28801   1.774   5.916   6.079 -0.1181  0.1441  0.2802
 9301SOL    HW128802   1.678   5.924   6.050 -0.2936 -0.0404  0.8079
 9301SOL    HW228803   1.832   5.968   6.016 -0.6291  0.7835  0.3259
 9302SOL     OW28804   2.134   0.503   3.802 -0.9212  0.1904  0.2307
 9302SOL    HW128805   2.124   0.570   3.876 -2.7346  2.0751 -1.5831
 9302SOL    HW228806   2.220   0.519   3.754 -0.8418  0.5071  0.4740
 9303SOL     OW28807   2.255   5.222   0.701 -0.1393 -0.5406 -0.1810
 9303SOL    HW128808   2.196   5.145   0.724 -0.9643 -0.2031 -1.0961
 9303SOL    HW228809   2.201   5.293   0.657  0.8288  0.0789 -0.3930
 9304SOL     OW28810   4.816   5.844   1.682  0.3216  0.8155 -0.0102
 9304SOL    HW128811   4.842   5.782   1.756  1.6910  2.5155  1.0168
 9304SOL    HW228812   4.889   5.845   1.613  0.5782  1.6936  0.2667
 9305SOL     OW28813   4.807   6.919   1.874  1.2160  0.6134  0.1646
 9305SOL    HW128814   4.845   6.876   1.793  0.3166 -1.7559  0.9076
 9305SOL    HW228815   4.863   6.894   1.954 -0.2237 -0.6038  0.8452
 9306SOL     OW28816   0.360   4.432   3.439 -0.1800 -0.6299  0.0369
 9306SOL    HW128817   0.282   4.401   3.385  0.0185 -0.7504 -0.1817
 9306SOL    HW228818   0.331   4.503   3.503  0.0224  1.2610 -1.8674
 9307SOL     OW28819   0.880   3.430   6.312 -0.3878  0.6200  0.2730
 9307SOL    HW128820   0.798   3.470   6.354  0.2666  2.0393  0.2380
 9307SOL    HW228821   0.876   3.441   6.213  1.0145  3.0740  0.4280
 9308SOL     OW28822   6.894   5.130   2.497  0.3271 -0.0080 -0.5231
 9308SOL    HW128823   6.971   5.192   2.510  0.5749 -0.3973 -0.0957
 9308SOL    HW228824   6.833   5.135   2.576  0.4231 -0.4141 -0.4216
 9309SOL     OW28825   5.427   6.296   0.977 -0.2482 -0.2487  0.0514
 9309SOL    HW128826   5.470   6.290   0.887 -0.4775  0.4166 -0.1119
 9309SOL    HW228827   5.373   6.381   0.982 -1.1056 -0.8039  0.4328
 9310SOL     OW28828   5.137   6.052   6.007 -0.2949 -0.3410 -0.1357
 9310SOL    HW128829   5.122   6.068   5.909  0.0141  1.3420  0.0638
 9310SOL    HW228830   5.172   5.959   6.020 -1.6641 -1.0922 -1.4733
 9311SOL     OW28831   3.512   3.682   0.445  0.1200  0.2042 -0.1230
 9311SOL    HW128832   3.594   3.629   0.464 -1.0548 -1.7285 -0.1500
 9311SOL    HW228833   3.520   3.773   0.486  1.9136 -0.2324  0.5624
 9312SOL     OW28834   2.103   4.989   0.735  0.6119 -0.9151 -0.1537
 9312SOL    HW128835   2.141   4.905   0.696 -0.6185 -1.9861  0.8604
 9312SOL    HW228836   2.057   4.968   0.821  0.2059  0.8043  0.0862
 9313SOL     OW28837   1.024   1.524   6.854  0.0724 -0.3823  0.0574
 9313SOL    HW128838   0.943   1.560   6.807 -0.0843 -1.2658 -0.3901
 9313SOL    HW228839   1.029   1.425   6.839  1.3186 -0.3188 -0.0389
 9314SOL     OW28840   5.018   3.006   1.543 -0.0788  0.6278  0.0317
 9314SOL    HW128841   5.052   2.928   1.490 -2.4624 -1.4253  1.3099
 9314SOL    HW228842   5.081   3.025   1.618 -0.2573 -1.2837  0.7326
 9315SOL     OW28843   5.068   1.215   4.312 -0.0451 -0.0408  0.0482
 9315SOL    HW128844   5.089   1.132   4.260 -0.5915 -0.1694  0.0273
 9315SOL    HW228845   5.046   1.289   4.249  1.3614  0.3805  0.0396
 9316SOL     OW28846   6.747   1.002   4.019  0.2455 -0.2363 -0.0735
 9316SOL    HW128847   6.821   1.012   4.086 -0.1680  1.2343  0.2196
 9316SOL    HW228848   6.756   1.072   3.949 -0.2563 -0.7353 -0.6493
 9317SOL     OW28849   2.741   5.387   2.662 -0.0309 -0.7953  0.0330
 9317SOL    HW128850   2.809   5.456   2.636 -0.1055 -1.2579 -1.4946
 9317SOL    HW228851   2.781   5.296   2.649 -0.9083 -1.0700 -0.7679
 9318SOL     OW28852   4.143   5.905   0.141 -0.2330 -0.2024 -0.0942
 9318SOL    HW128853   4.191   5.983   0.182 -0.7892  0.7854 -1.2602
 9318SOL    HW228854   4.057   5.891   0.190  0.0483 -0.3472  0.3686
 9319SOL     OW28855   3.039   5.040   6.318  0.3768  0.2231 -0.5282
 9319SOL    HW128856   3.078   5.125   6.283 -0.4029  1.0846  0.6305
 9319SOL    HW228857   2.956   5.059   6.369 -1.1586 -1.4936 -2.1992
 9320SOL     OW28858   5.116   0.603   6.159 -0.3912 -0.3768  0.0627
 9320SOL    HW128859   5.190   0.636   6.100  0.2434  0.6730  1.3741
 9320SOL    HW228860   5.149   0.596   6.253 -1.2216 -2.5357  0.2414
 9321SOL     OW28861   2.216   1.496   6.791 -0.4285 -0.1644  0.5342
 9321SOL    HW128862   2.224   1.596   6.794  0.7118 -0.1601 -1.1787
 9321SOL    HW228863   2.255   1.457   6.874  0.3726  0.7738  0.6213
 9322SOL     OW28864   5.459   5.349   6.738 -0.1258 -0.1396 -0.1524
 9322SOL    HW128865   5.360   5.366   6.738 -0.3571 -1.3380  0.5328
 9322SOL    HW228866   5.507   5.434   6.759 -0.9876  0.5321 -0.8133
 9323SOL     OW28867   1.064   2.262   4.385 -0.4166 -0.3666 -0.6709
 9323SOL    HW128868   1.156   2.301   4.382 -0.1156 -0.5532  2.4129
 9323SOL    HW228869   1.001   2.320   4.333  1.2213  0.3750 -1.8877
 9324SOL     OW28870   1.382   4.169   0.198  0.1259  0.0872  0.0240
 9324SOL    HW128871   1.391   4.145   0.295  0.8304 -1.4311 -0.3843
 9324SOL    HW228872   1.472   4.166   0.155 -0.0452  1.6827 -0.4940
 9325SOL     OW28873   1.179   6.524   6.839 -0.0620  0.4620  0.0731
 9325SOL    HW128874   1.263   6.494   6.883  0.1134 -1.1914 -1.2400
 9325SOL    HW228875   1.157   6.617   6.866  0.7257 -0.0083  2.5355
 9326SOL     OW28876   3.168   4.852   2.290 -0.0788  0.3095  0.3463
 9326SOL    HW128877   3.073   4.825   2.276 -0.1840  1.2305 -0.8561
 9326SOL    HW228878   3.207   4.800   2.367 -1.4246 -0.3467  0.6059
 9327SOL     OW28879   2.580   2.026   2.285  0.1723  0.1006 -0.6091
 9327SOL    HW128880   2.645   2.062   2.352 -1.9572  0.8736  1.1606
 9327SOL    HW228881   2.614   1.939   2.250  3.6015  1.8601 -2.1146
 9328SOL     OW28882   2.033   2.114   5.282 -0.2218 -0.2396  0.5257
 9328SOL    HW128883   2.128   2.113   5.313 -0.4539 -3.3082  1.5463
 9328SOL    HW228884   2.030   2.121   5.182  0.9137  2.1072  0.6060
 9329SOL     OW28885   6.817   6.141   6.687  0.0884 -0.0081  0.1898
 9329SOL    HW128886   6.861   6.215   6.637  0.2363 -1.6558 -2.2842
 9329SOL    HW228887   6.883   6.100   6.751  1.9203 -1.5989 -2.5219
 9330SOL     OW28888   0.205   5.853   6.815  0.0864 -0.1034  0.5874
 9330SOL    HW128889   0.255   5.806   6.888  1.5932 -0.0509 -0.3593
 9330SOL    HW228890   0.144   5.788   6.770  1.5078 -0.9887 -0.1413
 9331SOL     OW28891   2.427   2.986   6.294  0.5725  0.7821  0.0173
 9331SOL    HW128892   2.445   3.084   6.307  1.4259  0.3964  2.1673
 9331SOL    HW228893   2.387   2.948   6.377 -2.0530 -0.2651 -1.6246
 9332SOL     OW28894   6.599   5.358   1.769  0.1656 -0.4681  0.1210
 9332SOL    HW128895   6.689   5.345   1.727  0.0986 -0.3451 -0.0637
 9332SOL    HW228896   6.542   5.411   1.707  0.1654 -0.0204  0.5051
 9333SOL     OW28897   1.188   6.701   1.376  0.0401  0.3404  0.1430
 9333SOL    HW128898   1.267   6.654   1.415  1.0792  0.4932 -1.6577
 9333SOL    HW228899   1.106   6.646   1.389  0.6343 -0.3656  1.0174
 9334SOL     OW28900   5.525   0.420   5.051  0.5293 -0.6110 -0.0595
 9334SOL    HW128901   5.466   0.465   4.985 -1.2941 -2.4714  0.1733
 9334SOL    HW228902   5.615   0.405   5.011 -0.0064 -0.1986 -1.4861
 9335SOL     OW28903   1.280   3.320   0.774 -0.6299 -0.0399  0.8902
 9335SOL    HW128904   1.271   3.287   0.680 -0.0416 -0.4984  0.9852
 9335SOL    HW228905   1.375   3.306   0.805 -0.4816  1.3112  1.1032
 9336SOL     OW28906   4.877   5.369   3.733  0.2906  0.1755  0.5050
 9336SOL    HW128907   4.807   5.390   3.802  0.3622 -1.2022  1.0202
 9336SOL    HW228908   4.842   5.298   3.671  1.3635 -0.8247  1.0169
 9337SOL     OW28909   6.017   1.404   6.241 -0.1135  0.4460  0.1917
 9337SOL    HW128910   6.040   1.341   6.315  0.9267  2.5899  1.7745
 9337SOL    HW228911   6.098   1.457   6.216 -1.8136  4.1472  1.9077
 9338SOL     OW28912   1.671   5.626   1.865 -0.1159  0.1269 -0.0072
 9338SOL    HW128913   1.740   5.661   1.801 -1.4339  2.0855 -0.4600
 9338SOL    HW228914   1.688   5.664   1.956  1.6029 -2.4532  0.8609
 9339SOL     OW28915   3.739   5.371   0.961 -0.5365  0.2760  0.3251
 9339SOL    HW128916   3.768   5.276   0.961 -1.8647 -0.1547  0.6299
 9339SOL    HW228917   3.654   5.380   1.014 -1.5934  1.2475 -1.4331
 9340SOL     OW28918   4.056   5.793   1.223 -0.2279 -0.0755 -0.3660
 9340SOL    HW128919   4.141   5.831   1.261 -0.6782  2.3827 -1.5836
 9340SOL    HW228920   4.060   5.693   1.225  2.1736 -0.0358  0.6942
 9341SOL     OW28921   6.490   4.661   0.242  0.3385  0.0676 -0.5677
 9341SOL    HW128922   6.503   4.757   0.220  2.3112 -0.1492 -0.4573
 9341SOL    HW228923   6.506   4.605   0.161  1.5330 -0.3090 -0.0872
 9342SOL     OW28924   3.280   6.123   6.038  0.5170 -0.0464 -0.0823
 9342SOL    HW128925   3.241   6.037   6.006  1.2041 -0.4865  0.2394
 9342SOL    HW228926   3.206   6.187   6.061 -0.0253 -0.9533  0.7891
 9343SOL     OW28927   6.523   3.982   2.495 -0.3241 -0.1561  0.3696
 9343SOL    HW128928   6.467   3.935   2.427 -1.4794  2.6474 -0.7662
 9343SOL    HW228929   6.607   3.930   2.511 -0.5033 -1.4866 -2.3946
 9344SOL     OW28930   3.520   3.958   6.182 -0.3137 -0.0227  0.0282
 9344SOL    HW128931   3.498   4.055   6.170  0.0095 -0.1771 -2.1980
 9344SOL    HW228932   3.611   3.939   6.145 -1.6829 -1.7394 -2.7942
 9345SOL     OW28933   5.965   6.842   6.874  0.2900  0.1052 -0.5559
 9345SOL    HW128934   6.039   6.908   6.858 -0.4630  1.0532 -0.2679
 9345SOL    HW228935   5.923   6.817   6.787 -1.6702  2.7373 -0.5239
 9346SOL     OW28936   6.218   4.900   4.039 -0.0312 -0.7155 -0.4394
 9346SOL    HW128937   6.280   4.892   3.961  0.9946  3.2340 -0.2571
 9346SOL    HW228938   6.164   4.817   4.048  2.4138 -2.7637 -3.0534
 9347SOL     OW28939   3.790   4.962   1.286 -0.5696 -0.0377 -0.1537
 9347SOL    HW128940   3.696   4.980   1.258 -0.8848 -2.6827 -1.0569
 9347SOL    HW228941   3.793   4.950   1.386 -1.2470 -0.2018 -0.1482
 9348SOL     OW28942   0.062   0.167   2.708 -0.2152 -0.6601  0.6402
 9348SOL    HW128943   0.111   0.144   2.624  0.3883  0.5176  0.6625
 9348SOL    HW228944   0.092   0.105   2.781 -0.6904 -1.6448  0.0319
 9349SOL     OW28945   6.302   4.386   2.767 -0.0288 -0.1278  0.1344
 9349SOL    HW128946   6.258   4.456   2.711  0.1415 -0.0441  0.1041
 9349SOL    HW228947   6.272   4.296   2.738 -0.4146 -0.0602  0.3143
 9350SOL     OW28948   0.104   1.758   3.564 -0.4405 -0.1082  0.4407
 9350SOL    HW128949   0.151   1.762   3.652  0.3817  1.8503 -0.0285
 9350SOL    HW228950   0.060   1.846   3.546 -2.5616 -1.2162 -0.1035
 9351SOL     OW28951   1.270   1.982   6.397 -0.3572 -0.4271 -0.0143
 9351SOL    HW128952   1.369   1.970   6.398 -0.2208 -0.2352 -2.7180
 9351SOL    HW228953   1.241   2.013   6.306 -2.8475  0.1265  0.8722
 9352SOL     OW28954   1.442   2.563   6.096 -0.3425  0.2992  0.5031
 9352SOL    HW128955   1.375   2.598   6.162 -0.0402  2.8629 -0.4055
 9352SOL    HW228956   1.496   2.640   6.062  0.3156 -1.1317 -1.8279
 9353SOL     OW28957   1.557   5.451   0.411 -0.3503 -0.1305 -0.0084
 9353SOL    HW128958   1.567   5.385   0.336 -1.7750  1.3253 -1.5729
 9353SOL    HW228959   1.462   5.450   0.443 -0.1197  0.3877  0.7132
 9354SOL     OW28960   5.890   3.380   6.452 -0.4574 -0.1618 -0.5428
 9354SOL    HW128961   5.790   3.383   6.460 -0.4820 -2.3025  0.4813
 9354SOL    HW228962   5.929   3.336   6.533  1.4273  1.5036 -0.4644
 9355SOL     OW28963   6.608   2.477   2.102  0.1994 -0.2566 -0.3347
 9355SOL    HW128964   6.546   2.516   2.034 -0.2953 -0.9263 -0.2800
 9355SOL    HW228965   6.665   2.407   2.060 -0.5987 -1.1742  0.0733
 9356SOL     OW28966   4.581   6.121   2.932 -0.0251  0.0114  0.6789
 9356SOL    HW128967   4.632   6.147   3.014 -0.9509 -1.5877  1.8234
 9356SOL    HW228968   4.624   6.042   2.890  0.6687  1.0618 -0.6411
 9357SOL     OW28969   3.088   3.438   0.447 -0.0186  0.3028  0.2455
 9357SOL    HW128970   3.150   3.423   0.524 -0.3859 -1.1833  0.2823
 9357SOL    HW228971   3.025   3.512   0.469 -0.3935 -0.3803  1.5708
 9358SOL     OW28972   5.468   3.540   2.120  0.2949  0.6174  0.1239
 9358SOL    HW128973   5.565   3.524   2.139  0.5917  0.9190 -1.0500
 9358SOL    HW228974   5.413   3.497   2.191  1.1707 -2.2342 -0.8040
 9359SOL     OW28975   6.139   4.992   5.978  0.5766 -0.8084  0.0603
 9359SOL    HW128976   6.203   5.012   6.052 -0.7810 -0.1166  1.0948
 9359SOL    HW228977   6.125   5.074   5.922 -1.1843 -0.2030  1.2942
 9360SOL     OW28978   2.596   0.608   5.491  0.1254 -0.3677  0.0414
 9360SOL    HW128979   2.497   0.616   5.487  0.3012  1.9424 -1.9807
 9360SOL    HW228980   2.630   0.567   5.406  0.9984  0.5570 -0.0772
 9361SOL     OW28981   2.248   5.159   2.077 -0.7545 -0.2175 -0.3102
 9361SOL    HW128982   2.239   5.061   2.060  1.9543 -1.3791  3.4487
 9361SOL    HW228983   2.173   5.190   2.136 -1.3020 -0.1479 -1.0361
 9362SOL     OW28984   1.749   1.457   0.529 -0.2183 -0.0367  0.7056
 9362SOL    HW128985   1.771   1.480   0.435 -1.2479 -1.1380  0.1657
 9362SOL    HW228986   1.833   1.440   0.580  0.3372  0.3532 -0.0730
 9363SOL     OW28987   3.315   5.888   3.269 -0.4277  0.4224 -0.4942
 9363SOL    HW128988   3.294   5.811   3.330 -0.9349  0.6935 -0.3197
 9363SOL    HW228989   3.387   5.943   3.310 -0.4596  0.3578 -0.3486
 9364SOL     OW28990   2.402   0.908   5.522 -0.0415  0.2780  0.1548
 9364SOL    HW128991   2.356   0.822   5.502 -0.7686  0.4160  1.1919
 9364SOL    HW228992   2.417   0.916   5.620  0.1286  1.2834  0.0559
 9365SOL     OW28993   2.583   0.366   5.919 -0.0283 -0.3570  0.1565
 9365SOL    HW128994   2.592   0.413   6.006 -0.6698 -0.7267  0.4251
 9365SOL    HW228995   2.610   0.270   5.930 -1.6466 -0.8085  0.3370
 9366SOL     OW28996   5.527   0.861   6.116  0.1173  0.4127  0.1412
 9366SOL    HW128997   5.572   0.944   6.150  0.3466 -0.5814  2.5316
 9366SOL    HW228998   5.432   0.880   6.095  0.4341  1.4996 -0.3687
 9367SOL     OW28999   0.342   5.963   4.717  0.1603 -0.2229 -0.1969
 9367SOL    HW129000   0.377   5.871   4.735 -0.7917 -0.4653  0.5246
 9367SOL    HW229001   0.270   5.984   4.784  0.4956  1.1140 -0.2444
 9368SOL     OW29002   2.400   1.053   1.464 -0.8812 -0.0530 -0.5223
 9368SOL    HW129003   2.411   0.958   1.434 -0.6287 -0.2209  0.0856
 9368SOL    HW229004   2.340   1.056   1.543 -1.1623  0.3359 -0.7463
 9369SOL     OW29005   0.378   0.994   6.102 -0.0776  0.4334 -0.1214
 9369SOL    HW129006   0.471   0.962   6.120  1.0122  2.9094 -0.9130
 9369SOL    HW229007   0.354   1.065   6.169 -1.1880  0.2133 -0.2758
 9370SOL     OW29008   5.314   5.628   2.001  0.5510 -0.0780  0.1307
 9370SOL    HW129009   5.234   5.577   2.033 -1.1218  0.4703 -2.8335
 9370SOL    HW229010   5.310   5.722   2.037  0.9390 -0.5903  1.5536
 9371SOL     OW29011   2.942   6.626   6.037 -0.0142 -0.2658 -0.2586
 9371SOL    HW129012   3.028   6.601   5.992 -1.0954 -0.8529 -2.0954
 9371SOL    HW229013   2.875   6.553   6.025 -1.5755  1.2394 -1.0954
 9372SOL     OW29014   5.325   6.931   4.442  0.0480 -0.3039 -0.2211
 9372SOL    HW129015   5.321   6.840   4.401 -1.8041  0.6224 -2.3177
 9372SOL    HW229016   5.255   6.938   4.513 -1.3309  0.1036 -1.5714
 9373SOL     OW29017   5.200   3.274   3.890 -0.0913 -0.5019  0.1736
 9373SOL    HW129018   5.202   3.174   3.891  0.6284 -0.4868  0.7398
 9373SOL    HW229019   5.137   3.307   3.961  0.6213 -0.5361  0.8266
 9374SOL     OW29020   0.025   3.001   6.307 -0.0833  0.5071  0.3448
 9374SOL    HW129021   0.056   3.086   6.264 -1.2963 -0.2392 -2.1630
 9374SOL    HW229022   0.062   2.996   6.400  0.3642  3.5388  0.4266
 9375SOL     OW29023   0.178   6.635   5.008  0.0645 -0.1659  0.1079
 9375SOL    HW129024   0.182   6.683   5.096  0.3512 -1.2494  0.6919
 9375SOL    HW229025   0.270   6.631   4.968 -0.0628  0.3136 -0.2514
 9376SOL     OW29026   2.380   4.117   6.399 -0.2812 -0.3103  0.4400
 9376SOL    HW129027   2.460   4.130   6.458  0.4612 -1.5851 -0.2483
 9376SOL    HW229028   2.408   4.078   6.312 -1.1959  2.5616 -1.2918
 9377SOL     OW29029   1.444   3.869   3.289 -0.2412  0.4280  0.1073
 9377SOL    HW129030   1.462   3.923   3.371 -0.8795 -0.6619  1.0020
 9377SOL    HW229031   1.444   3.928   3.209 -3.2033  2.2076  1.2592
 9378SOL     OW29032   1.331   0.065   4.514 -0.0938 -0.0687 -0.6374
 9378SOL    HW129033   1.413   0.088   4.567  0.2233 -1.0911 -0.6652
 9378SOL    HW229034   1.306   0.143   4.458  0.8640  0.2650 -0.6287
 9379SOL     OW29035   5.640   5.630   5.316  0.0092  0.2490  0.2896
 9379SOL    HW129036   5.710   5.558   5.314 -0.2685 -0.1075  2.3016
 9379SOL    HW229037   5.665   5.699   5.383 -0.2420  1.5367 -0.9065
 9380SOL     OW29038   5.363   5.637   5.501  0.0415  0.2434  0.2717
 9380SOL    HW129039   5.435   5.706   5.509 -0.7090  1.2148 -1.0598
 9380SOL    HW229040   5.290   5.671   5.442 -0.3716 -1.6841 -0.3980
 9381SOL     OW29041   2.790   1.741   6.677  0.0981  0.3244  0.0600
 9381SOL    HW129042   2.789   1.796   6.593 -0.0117 -1.5095 -1.1835
 9381SOL    HW229043   2.705   1.688   6.682  0.3639 -0.0135  1.0343
 9382SOL     OW29044   4.906   1.427   2.675  0.3574 -0.5879  0.1369
 9382SOL    HW129045   4.962   1.463   2.601  0.0750  1.1124  0.7096
 9382SOL    HW229046   4.824   1.484   2.686 -0.2024 -1.5168  0.9805
 9383SOL     OW29047   3.696   6.103   5.441 -0.5038  0.3410  0.1918
 9383SOL    HW129048   3.684   6.064   5.533  1.1780 -1.2446 -0.1907
 9383SOL    HW229049   3.738   6.194   5.448  2.2930 -0.8919  1.0276
 9384SOL     OW29050   2.978   5.512   1.650  0.4159 -0.2923  0.4657
 9384SOL    HW129051   2.996   5.431   1.705  1.3659 -0.4445 -0.0374
 9384SOL    HW229052   2.977   5.488   1.553 -3.1252 -0.3715  0.4165
 9385SOL     OW29053   2.920   0.052   3.517 -0.7187  0.3733 -0.5074
 9385SOL    HW129054   2.837   0.018   3.474  0.3499 -0.6772 -1.8128
 9385SOL    HW229055   2.953   0.133   3.468 -1.1593  1.0251  0.2471
 9386SOL     OW29056   3.385   5.205   3.873 -0.1178  0.0289  0.7513
 9386SOL    HW129057   3.285   5.205   3.875 -0.1641 -1.1149 -0.3142
 9386SOL    HW229058   3.417   5.176   3.783  1.1894  0.9468  0.8956
 9387SOL     OW29059   3.838   0.148   0.404 -0.3478 -0.1780  0.2725
 9387SOL    HW129060   3.907   0.091   0.359  0.6969  2.4047 -1.7247
 9387SOL    HW229061   3.855   0.150   0.502  0.5084 -2.0147  0.1982
 9388SOL     OW29062   1.549   6.884   3.876  0.1101 -0.0308 -0.2215
 9388SOL    HW129063   1.480   6.899   3.805 -0.5581 -0.8213  0.2377
 9388SOL    HW229064   1.630   6.840   3.836  0.4954  1.1811 -0.8222
 9389SOL     OW29065   2.009   0.333   6.946  0.3984  0.1054  0.7691
 9389SOL    HW129066   2.000   0.419   6.895 -0.2982  0.4371  1.4259
 9389SOL    HW229067   1.992   0.350   7.043 -0.8210 -0.9503  0.7720
 9390SOL     OW29068   2.563   4.621   5.104  0.3572 -0.3079  0.5167
 9390SOL    HW129069   2.660   4.637   5.087 -0.4791  4.1528 -1.6002
 9390SOL    HW229070   2.523   4.574   5.025  0.5481 -0.9150  0.7798
 9391SOL     OW29071   2.968   1.928   4.237 -0.0094  0.0976  0.0615
 9391SOL    HW129072   2.993   2.024   4.221 -0.4797  0.2649  0.3021
 9391SOL    HW229073   2.997   1.873   4.159 -0.5643  0.5912 -0.5094
 9392SOL     OW29074   0.135   0.946   5.017  0.0358 -0.1883 -0.1684
 9392SOL    HW129075   0.114   1.043   5.020 -0.9332 -0.4017  0.1866
 9392SOL    HW229076   0.232   0.932   5.041 -0.0522  0.6073  0.7057
 9393SOL     OW29077   2.443   6.416   6.321 -0.5653  0.3052 -0.0512
 9393SOL    HW129078   2.501   6.485   6.364 -0.6169 -0.0283  0.5764
 9393SOL    HW229079   2.383   6.459   6.254 -0.1226  0.7648 -0.1568
 9394SOL     OW29080   0.090   3.137   2.070  0.3197  0.2338 -0.6084
 9394SOL    HW129081   0.179   3.181   2.063  0.2973  0.2681 -0.6853
 9394SOL    HW229082   0.032   3.166   1.993  0.7622 -0.9811 -1.4270
 9395SOL     OW29083   1.666   3.179   1.020  0.2202 -0.0453 -0.6901
 9395SOL    HW129084   1.634   3.085   1.012  1.0409 -0.2887 -1.2402
 9395SOL    HW229085   1.755   3.181   1.066 -1.9314  0.8881  4.0561
 9396SOL     OW29086   6.243   3.962   3.676  0.2475 -0.6066  0.4512
 9396SOL    HW129087   6.297   4.028   3.729  1.2031 -1.6758  0.8444
 9396SOL    HW229088   6.232   3.996   3.582 -0.3536  0.6870  0.9595
 9397SOL     OW29089   1.976   2.839   6.588 -0.3739 -0.5376  0.0959
 9397SOL    HW129090   2.025   2.919   6.622  0.5924 -1.2404  0.4228
 9397SOL    HW229091   1.936   2.789   6.665 -2.3764  0.4761 -0.2275
 9398SOL     OW29092   6.185   1.315   6.781 -0.0063 -0.3177  0.5805
 9398SOL    HW129093   6.278   1.280   6.769 -0.3223 -1.2298  0.7435
 9398SOL    HW229094   6.170   1.392   6.719 -0.2130 -2.2027 -1.8533
 9399SOL     OW29095   1.851   2.738   1.385 -0.3251 -0.1531 -0.4255
 9399SOL    HW129096   1.856   2.657   1.443 -2.4908 -0.6287 -0.8296
 9399SOL    HW229097   1.814   2.713   1.295  0.5805  1.0115 -1.1712
 9400SOL     OW29098   5.925   2.604   1.552  0.5332 -0.4912  0.1710
 9400SOL    HW129099   5.926   2.511   1.589 -1.9856 -0.7957 -0.3684
 9400SOL    HW229100   5.850   2.656   1.594 -0.5781  0.0557 -2.3361
 9401SOL     OW29101   3.421   6.699   3.544 -0.2114  0.7735  0.4206
 9401SOL    HW129102   3.466   6.658   3.624 -1.1875 -0.0717  0.5545
 9401SOL    HW229103   3.474   6.679   3.462  0.8133  1.6639  0.8390
 9402SOL     OW29104   0.661   6.654   5.240 -0.0255  0.1918  0.1568
 9402SOL    HW129105   0.753   6.693   5.251 -0.3434  1.2394 -0.6800
 9402SOL    HW229106   0.653   6.612   5.149 -0.3627  0.1048  0.2251
 9403SOL     OW29107   5.257   6.583   2.563  0.6752 -0.0940  0.0405
 9403SOL    HW129108   5.275   6.493   2.523  1.5712  0.1196 -0.0437
 9403SOL    HW229109   5.306   6.591   2.650 -0.1674 -0.0358  0.5230
 9404SOL     OW29110   0.328   4.073   5.455 -0.2166  0.3733 -0.1620
 9404SOL    HW129111   0.382   4.041   5.533 -1.5891  2.5591  1.7943
 9404SOL    HW229112   0.238   4.030   5.457 -1.9172  3.6447  2.2391
 9405SOL     OW29113   0.977   6.572   1.984 -0.0408  0.1192 -0.0932
 9405SOL    HW129114   1.034   6.500   2.022  1.6478  1.7591  0.6426
 9405SOL    HW229115   0.988   6.576   1.885  0.3001 -0.2427 -0.0701
 9406SOL     OW29116   0.673   3.357   6.935  0.5441  0.1488 -0.5030
 9406SOL    HW129117   0.715   3.297   6.866  1.8301 -0.5436  0.8121
 9406SOL    HW229118   0.712   3.448   6.927 -0.6832  0.5937 -1.8626
 9407SOL     OW29119   1.741   4.268   4.631 -0.2244 -0.3514 -0.1089
 9407SOL    HW129120   1.779   4.201   4.567 -1.3604 -0.7522 -0.3951
 9407SOL    HW229121   1.803   4.280   4.708  1.1189  0.0718 -1.2322
 9408SOL     OW29122   4.504   2.726   6.328  0.6526  0.2018 -0.5517
 9408SOL    HW129123   4.477   2.821   6.340  0.5823  0.3220 -1.5799
 9408SOL    HW229124   4.465   2.690   6.243  0.1520 -0.9433  0.1424
 9409SOL     OW29125   6.117   4.645   0.548  0.0535  0.2532 -0.2748
 9409SOL    HW129126   6.045   4.605   0.490  1.3448 -1.4683 -0.8061
 9409SOL    HW229127   6.203   4.597   0.531  0.6338  0.0439  2.7059
 9410SOL     OW29128   4.192   6.904   3.642 -0.4202  0.2744  0.1276
 9410SOL    HW129129   4.223   6.865   3.555 -0.0876  0.0734  0.3332
 9410SOL    HW229130   4.156   6.996   3.627 -1.3996 -0.1777 -0.3970
 9411SOL     OW29131   2.681   2.606   1.560  0.6634 -0.0279  0.4544
 9411SOL    HW129132   2.675   2.506   1.561  3.2154 -0.2483 -0.6135
 9411SOL    HW229133   2.762   2.636   1.609  0.6955  1.4437 -0.4320
 9412SOL     OW29134   0.883   1.831   2.649 -0.5374 -0.1528  0.0419
 9412SOL    HW129135   0.811   1.899   2.661 -0.3137 -0.2175  2.1102
 9412SOL    HW229136   0.842   1.740   2.645 -0.6886 -0.0590 -0.6685
 9413SOL     OW29137   4.735   6.453   4.434  0.0693 -0.2194 -0.0397
 9413SOL    HW129138   4.815   6.426   4.489 -0.1313  1.0571  0.9218
 9413SOL    HW229139   4.752   6.542   4.392 -0.3943 -0.4834 -0.8022
 9414SOL     OW29140   2.327   1.308   4.044  0.5548  0.7673 -0.2058
 9414SOL    HW129141   2.273   1.254   3.979  1.9976  0.9344 -1.6162
 9414SOL    HW229142   2.286   1.398   4.054 -0.1116  0.4823 -0.2613
 9415SOL     OW29143   0.809   6.436   3.506  0.0595 -0.3016 -0.2603
 9415SOL    HW129144   0.881   6.381   3.464 -0.0443 -0.4538 -0.2369
 9415SOL    HW229145   0.811   6.528   3.466  0.1083 -0.3778 -0.4342
 9416SOL     OW29146   2.261   1.846   1.571 -0.2839  0.8502 -0.3383
 9416SOL    HW129147   2.220   1.905   1.503 -1.4761 -0.9039 -1.2275
 9416SOL    HW229148   2.243   1.750   1.548  1.8304  0.0819  0.8493
 9417SOL     OW29149   3.838   6.486   6.830 -0.0356  0.0746  0.7014
 9417SOL    HW129150   3.927   6.511   6.791 -0.3308  0.3802  0.2116
 9417SOL    HW229151   3.775   6.463   6.756 -0.0448 -1.2424  1.0852
 9418SOL     OW29152   1.441   6.757   0.687  0.3561 -0.3656 -0.3733
 9418SOL    HW129153   1.402   6.785   0.775  0.8544  0.9893 -0.5620
 9418SOL    HW229154   1.519   6.696   0.703  1.5939  1.3022  0.2324
 9419SOL     OW29155   3.127   4.573   5.863  0.5242  1.1619  0.4351
 9419SOL    HW129156   3.094   4.487   5.903  0.2114  0.3155 -1.5394
 9419SOL    HW229157   3.144   4.560   5.766  0.3461  3.3851  0.0575
 9420SOL     OW29158   0.280   1.942   5.486  0.3402 -0.4204  0.1205
 9420SOL    HW129159   0.278   1.881   5.566  1.0474  0.5738  0.9204
 9420SOL    HW229160   0.361   2.001   5.491 -0.2547  0.4984 -0.7002
 9421SOL     OW29161   2.035   0.430   5.906  0.7849  0.1472  0.5728
 9421SOL    HW129162   1.986   0.350   5.939 -0.7644  0.7927 -0.0830
 9421SOL    HW229163   2.133   0.411   5.907  0.4405 -1.8803  0.0751
 9422SOL     OW29164   1.859   5.141   3.466 -0.1891  0.1969  0.3474
 9422SOL    HW129165   1.836   5.115   3.372 -0.7932  0.6449  0.3678
 9422SOL    HW229166   1.855   5.060   3.524 -2.4203  0.3413  0.4746
 9423SOL     OW29167   3.227   1.388   3.812  0.3334  0.9505 -0.1795
 9423SOL    HW129168   3.154   1.446   3.846 -0.3155  0.8952 -1.4416
 9423SOL    HW229169   3.244   1.408   3.716  0.6941 -0.3373 -0.4015
 9424SOL     OW29170   4.338   2.149   3.400  0.4843  0.6974 -0.1860
 9424SOL    HW129171   4.413   2.157   3.335 -0.0100  1.2712 -0.7129
 9424SOL    HW229172   4.261   2.102   3.356 -1.0537  3.8756 -1.1829
 9425SOL     OW29173   0.807   4.787   5.227  0.0613  0.6733  0.2737
 9425SOL    HW129174   0.772   4.862   5.283  0.9363  1.3675 -0.0746
 9425SOL    HW229175   0.883   4.821   5.171  0.4994 -0.4911  0.1481
 9426SOL     OW29176   2.174   0.082   2.766  0.1428 -0.1188  0.2336
 9426SOL    HW129177   2.269   0.077   2.734  0.6872 -0.3273  1.7797
 9426SOL    HW229178   2.114   0.107   2.690  0.9992 -3.0333 -1.5366
 9427SOL     OW29179   2.470   5.335   4.768  0.1786  0.5005  0.3705
 9427SOL    HW129180   2.552   5.332   4.711 -0.3724 -1.6356 -0.4430
 9427SOL    HW229181   2.468   5.254   4.828 -0.4830  1.4232  1.6510
 9428SOL     OW29182   4.965   0.519   1.756 -0.2723  0.3368 -0.0079
 9428SOL    HW129183   4.981   0.565   1.844 -1.4848  0.8708 -0.0474
 9428SOL    HW229184   4.886   0.459   1.764  0.4219 -0.6679 -0.3786
 9429SOL     OW29185   1.732   2.726   2.620  0.1372 -0.4086  0.4754
 9429SOL    HW129186   1.661   2.756   2.684  0.6173 -0.4293  1.0255
 9429SOL    HW229187   1.769   2.806   2.571 -1.1271 -0.5333 -0.7348
 9430SOL     OW29188   6.587   6.698   2.161  0.3611 -0.0386 -0.4157
 9430SOL    HW129189   6.608   6.609   2.121 -2.6724 -0.9747 -0.2112
 9430SOL    HW229190   6.566   6.686   2.258 -1.9224  0.4915 -0.7823
 9431SOL     OW29191   4.989   5.884   1.462  0.1192 -0.2618  0.5519
 9431SOL    HW129192   5.071   5.942   1.455  0.2562 -0.3335  1.4537
 9431SOL    HW229193   4.990   5.816   1.388  0.6892 -0.0219  0.3344
 9432SOL     OW29194   3.278   0.483   3.429 -0.4655  0.1344  0.3592
 9432SOL    HW129195   3.319   0.574   3.430  0.9636 -0.4587 -0.7992
 9432SOL    HW229196   3.209   0.476   3.501 -1.9130  2.7147 -0.6438
 9433SOL     OW29197   2.878   5.566   4.942  0.6682 -0.7228 -0.6527
 9433SOL    HW129198   2.858   5.479   4.986 -0.5687 -1.0879 -1.8607
 9433SOL    HW229199   2.939   5.621   5.000 -1.3589 -0.8982  1.7586
 9434SOL     OW29200   6.604   6.031   1.837  0.5476 -0.1508  0.2519
 9434SOL    HW129201   6.557   6.024   1.924 -1.2061  1.0456 -0.5413
 9434SOL    HW229202   6.543   6.004   1.763  0.8127  2.1194 -0.8796
 9435SOL     OW29203   0.534   1.686   4.294  0.0607 -0.1765 -0.6085
 9435SOL    HW129204   0.624   1.718   4.324 -0.5866 -0.2604  1.6117
 9435SOL    HW229205   0.486   1.761   4.248  0.4628  0.5385  0.1038
 9436SOL     OW29206   6.922   4.346   2.544 -0.7219 -0.0607 -0.2429
 9436SOL    HW129207   6.981   4.390   2.611 -0.1869  0.1755 -0.8611
 9436SOL    HW229208   6.829   4.340   2.580 -0.5858  0.6703  0.2442
 9437SOL     OW29209   0.736   5.271   2.714  0.2580  0.0105  0.4221
 9437SOL    HW129210   0.829   5.282   2.748 -0.0176  1.8822  0.6948
 9437SOL    HW229211   0.672   5.268   2.791 -0.0357  0.3733  0.1962
 9438SOL     OW29212   7.009   0.467   0.046 -0.3954 -0.3694  0.0829
 9438SOL    HW129213   7.087   0.410   0.070  0.5251  0.3755 -1.0548
 9438SOL    HW229214   6.945   0.414  -0.009  0.5545 -0.2908 -1.1424
 9439SOL     OW29215   1.322   3.641   0.719  0.3501  0.0685  0.4705
 9439SOL    HW129216   1.316   3.541   0.723 -1.3555 -0.1037 -2.8817
 9439SOL    HW229217   1.416   3.668   0.697  0.0892 -1.2095 -2.8502
 9440SOL     OW29218   5.181   6.141   5.095  0.0127  0.1435  0.2287
 9440SOL    HW129219   5.138   6.228   5.119 -1.6457 -0.8165  0.9510
 9440SOL    HW229220   5.111   6.069   5.094  1.4243 -1.2744  0.1627
 9441SOL     OW29221   2.065   3.760   4.847 -0.2857 -0.7091  0.9388
 9441SOL    HW129222   2.151   3.722   4.883  1.2913  0.6571 -1.1696
 9441SOL    HW229223   2.073   3.860   4.840 -1.2419 -0.7395 -1.2691
 9442SOL     OW29224   5.249   5.733   6.969 -0.5205  0.4687 -0.3702
 9442SOL    HW129225   5.201   5.817   6.993 -0.4400  0.0487  1.3292
 9442SOL    HW229226   5.348   5.749   6.975 -0.4754  0.5453 -1.1487
 9443SOL     OW29227   2.564   4.930   3.056 -0.1360  0.5336  0.1082
 9443SOL    HW129228   2.592   4.921   2.960 -0.3802 -0.8068  0.1400
 9443SOL    HW229229   2.465   4.944   3.061 -0.5169 -1.7858  0.1994
 9444SOL     OW29230   1.777   3.912   6.999 -0.0591 -0.5645  0.4043
 9444SOL    HW129231   1.687   3.881   7.032 -1.0895  1.2890 -0.4834
 9444SOL    HW229232   1.817   3.842   6.940 -1.5582 -0.8800 -0.2897
 9445SOL     OW29233   5.072   5.824   2.613 -0.0215 -0.0808  0.1333
 9445SOL    HW129234   5.129   5.772   2.677 -0.3190  0.6412  1.0137
 9445SOL    HW229235   5.019   5.892   2.664 -1.7412 -0.7780 -0.6205
 9446SOL     OW29236   6.248   6.411   5.124  0.3717  0.4039  0.4225
 9446SOL    HW129237   6.260   6.359   5.208  1.7426  0.2258  0.1430
 9446SOL    HW229238   6.282   6.504   5.138  0.1204  0.5269  0.2207
 9447SOL     OW29239   6.056   3.048   1.335 -0.2357 -0.6266 -0.9721
 9447SOL    HW129240   6.061   2.953   1.366 -0.8011  0.0077  1.1966
 9447SOL    HW229241   6.130   3.065   1.270  0.7555 -2.1726 -0.3070
 9448SOL     OW29242   5.370   0.903   1.036 -0.5248  0.1346  0.5860
 9448SOL    HW129243   5.447   0.851   1.074 -1.0578 -0.8911  0.2902
 9448SOL    HW229244   5.290   0.890   1.094 -0.8510  0.0515  0.1188
 9449SOL     OW29245   6.466   5.116   5.542  0.2124  0.2968 -0.2694
 9449SOL    HW129246   6.435   5.027   5.507 -0.9139 -0.0557  1.5042
 9449SOL    HW229247   6.422   5.189   5.490  0.1488 -0.1861 -0.9071
 9450SOL     OW29248   3.635   4.926   3.695  0.7618  0.0411  0.0443
 9450SOL    HW129249   3.636   5.024   3.716  1.1346 -0.0194  0.3174
 9450SOL    HW229250   3.723   4.885   3.720 -0.1293 -0.7912  2.0132
 9451SOL     OW29251   3.690   5.949   6.730  0.2891  0.1327 -0.6105
 9451SOL    HW129252   3.673   6.000   6.645 -1.1138 -3.9556 -3.0489
 9451SOL    HW229253   3.785   5.919   6.732  0.1041 -0.5175 -1.2385
 9452SOL     OW29254   6.851   4.015   0.136  0.5891 -0.3112 -0.2415
 9452SOL    HW129255   6.799   3.989   0.055 -1.8024  0.3574  0.9871
 9452SOL    HW229256   6.867   3.935   0.194 -2.4811 -0.0500  1.1656
 9453SOL     OW29257   1.834   3.987   4.131  0.9009  0.3498 -0.1911
 9453SOL    HW129258   1.895   3.935   4.072  0.5803  0.2633 -0.4517
 9453SOL    HW229259   1.887   4.029   4.204  0.9337 -1.8820  1.1607
 9454SOL     OW29260   2.787   3.018   0.613  0.2265  0.0600 -0.1542
 9454SOL    HW129261   2.844   2.939   0.635 -0.7878 -1.0982 -1.5008
 9454SOL    HW229262   2.827   3.066   0.534  0.9144  1.0058  0.7442
 9455SOL     OW29263   2.805   2.286   4.454  0.2812 -0.4818  0.0216
 9455SOL    HW129264   2.776   2.362   4.397  0.1728 -0.1560  0.5060
 9455SOL    HW229265   2.744   2.208   4.440  0.7496 -0.7040 -0.9336
 9456SOL     OW29266   6.869   3.429   0.247  0.0713  0.3381 -0.0929
 9456SOL    HW129267   6.805   3.506   0.252  1.2604  1.4853 -1.5298
 9456SOL    HW229268   6.919   3.422   0.333 -0.6964  0.5713  0.3819
 9457SOL     OW29269   0.183   4.970   6.045  0.9148 -0.9664 -0.8336
 9457SOL    HW129270   0.275   5.001   6.020  2.0365 -1.9596  1.7596
 9457SOL    HW229271   0.136   5.042   6.095  1.6882 -1.6748  0.9721
 9458SOL     OW29272   1.152   1.976   5.268 -0.1230 -0.1305 -0.7813
 9458SOL    HW129273   1.169   1.925   5.352  0.1406  1.9145  0.4735
 9458SOL    HW229274   1.151   2.074   5.288 -0.3166  0.4063 -3.1338
 9459SOL     OW29275   6.491   5.679   2.545 -0.3448  0.4467 -0.3125
 9459SOL    HW129276   6.403   5.709   2.579 -0.3711 -0.4382  0.4244
 9459SOL    HW229277   6.487   5.670   2.445 -0.7033  1.6095 -0.4172
 9460SOL     OW29278   1.660   0.466   5.467  0.7536  0.0176 -0.1870
 9460SOL    HW129279   1.647   0.551   5.415  0.8771 -0.1054 -0.4222
 9460SOL    HW229280   1.704   0.487   5.554  3.1622 -0.0579 -1.2889
 9461SOL     OW29281   5.194   3.799   3.111  0.2171  0.1145 -0.3579
 9461SOL    HW129282   5.199   3.708   3.152 -1.5357  0.1753  0.0426
 9461SOL    HW229283   5.101   3.816   3.078 -0.3028  2.8291  2.0971
 9462SOL     OW29284   2.015   2.487   3.142 -0.3759  0.3881 -0.1734
 9462SOL    HW129285   1.916   2.488   3.129 -0.3568  0.0017 -0.3671
 9462SOL    HW229286   2.060   2.484   3.053 -0.2043 -0.0502 -0.0761
 9463SOL     OW29287   1.945   0.414   6.584  0.3762 -0.6033  0.2392
 9463SOL    HW129288   1.857   0.449   6.552  0.1189 -0.7578  0.7636
 9463SOL    HW229289   1.968   0.457   6.672  0.2717 -1.3986  0.6671
 9464SOL     OW29290   6.484   5.104   1.076 -0.1203 -0.6619 -0.5934
 9464SOL    HW129291   6.420   5.175   1.108  2.7900  1.5913  0.7802
 9464SOL    HW229292   6.505   5.120   0.980  1.7482  1.5615  0.0839
 9465SOL     OW29293   6.209   7.016   2.935  0.2962  0.4442  0.6623
 9465SOL    HW129294   6.138   7.056   2.992  0.9939 -0.8459  2.5179
 9465SOL    HW229295   6.167   6.951   2.871 -0.2958  0.3722  1.1114
 9466SOL     OW29296   3.574   4.170   4.087 -0.2139 -0.0511 -0.1479
 9466SOL    HW129297   3.644   4.102   4.111 -0.0104  0.5494  1.0432
 9466SOL    HW229298   3.564   4.174   3.988 -0.5560 -2.1411 -0.2563
 9467SOL     OW29299   1.641   1.160   0.494  0.0103  0.2942  0.6850
 9467SOL    HW129300   1.569   1.158   0.425 -0.8859 -0.3133  1.6008
 9467SOL    HW229301   1.655   1.255   0.524 -0.1050  0.4696  0.1934
 9468SOL     OW29302   6.761   2.704   4.450  0.3391  0.5566  0.1885
 9468SOL    HW129303   6.807   2.649   4.380 -0.4656  0.2776 -0.1312
 9468SOL    HW229304   6.803   2.795   4.454  1.0161  0.2608  0.0144
 9469SOL     OW29305   4.130   5.460   1.277 -0.4408 -0.3264  0.3677
 9469SOL    HW129306   4.084   5.409   1.204 -0.0029 -1.8635  1.1146
 9469SOL    HW229307   4.206   5.512   1.239 -2.0749  1.3954 -0.7199
 9470SOL     OW29308   4.588   4.571   4.911 -0.2399  0.1836  0.1094
 9470SOL    HW129309   4.607   4.655   4.860 -0.7353  0.5902  0.5876
 9470SOL    HW229310   4.494   4.572   4.944  0.0447 -0.1100  0.9634
 9471SOL     OW29311   5.134   0.405   3.365  0.1945 -0.1078 -0.1057
 9471SOL    HW129312   5.096   0.333   3.308 -0.7899 -0.3519  0.8083
 9471SOL    HW229313   5.133   0.376   3.461  0.3560  0.8725  0.2134
 9472SOL     OW29314   6.988   3.551   4.002 -0.2054  0.1396  0.1240
 9472SOL    HW129315   6.956   3.630   3.949 -1.9524 -0.2327  0.5593
 9472SOL    HW229316   7.013   3.581   4.094 -1.1842  0.1526  0.3947
 9473SOL     OW29317   2.702   5.974   6.182  0.1811  0.5342 -0.9199
 9473SOL    HW129318   2.647   6.048   6.222  1.2207  0.8950 -0.1138
 9473SOL    HW229319   2.675   5.887   6.223 -0.2851  0.6128 -1.0565
 9474SOL     OW29320   6.641   2.750   6.733 -0.0921  0.7260  0.7818
 9474SOL    HW129321   6.668   2.834   6.687 -1.0966  0.2508 -0.7400
 9474SOL    HW229322   6.547   2.727   6.708  0.8026 -1.9386 -0.5044
 9475SOL     OW29323   2.687   5.003   0.715  0.4878  0.3252  0.1343
 9475SOL    HW129324   2.597   4.997   0.671 -0.0701  0.7178  1.1872
 9475SOL    HW229325   2.679   4.974   0.810  1.4667  0.4440  0.2581
 9476SOL     OW29326   2.432   3.457   5.321 -0.0911  0.0518  0.2764
 9476SOL    HW129327   2.451   3.551   5.348  0.6711 -0.4811  1.7601
 9476SOL    HW229328   2.343   3.452   5.277 -0.9859  1.2025  1.8626
 9477SOL     OW29329   6.780   5.268   2.712 -0.2738 -0.1933 -0.1189
 9477SOL    HW129330   6.749   5.363   2.721  1.0399  0.3109 -0.5892
 9477SOL    HW229331   6.749   5.215   2.790 -2.0846  0.3051 -0.4414
 9478SOL     OW29332   5.971   3.689   4.202  0.2192  0.5602  0.3984
 9478SOL    HW129333   6.038   3.616   4.190 -1.2461 -0.7858  0.0293
 9478SOL    HW229334   5.935   3.687   4.295 -0.1364  0.5250  0.2621
 9479SOL     OW29335   5.937   6.211   1.836 -0.1433  0.0599  0.9638
 9479SOL    HW129336   5.929   6.243   1.741  0.3190  0.5684  1.0906
 9479SOL    HW229337   6.013   6.258   1.880 -0.1385 -0.4314  1.4873
 9480SOL     OW29338   4.546   3.607   0.644  0.0340  0.2109 -0.1218
 9480SOL    HW129339   4.601   3.593   0.562 -0.0334  0.9648 -0.3036
 9480SOL    HW229340   4.589   3.559   0.721  0.8675  0.6578 -0.2981
 9481SOL     OW29341   0.733   4.644   1.454  0.8267 -0.4660 -0.1834
 9481SOL    HW129342   0.635   4.661   1.468  0.3742 -2.8574  0.0466
 9481SOL    HW229343   0.780   4.648   1.542  0.5221 -1.4903  0.0357
 9482SOL     OW29344   6.276   2.474   4.935  0.5783  0.2609 -0.4483
 9482SOL    HW129345   6.219   2.524   5.000  0.5466 -0.1034 -0.1924
 9482SOL    HW229346   6.268   2.376   4.952  0.4750  0.1495 -1.0780
 9483SOL     OW29347   1.922   6.973   1.941  0.7805  0.1653  0.2068
 9483SOL    HW129348   1.823   6.973   1.956  0.6281  0.9566 -0.6793
 9483SOL    HW229349   1.958   7.065   1.956  0.9720  0.4697 -1.8030
 9484SOL     OW29350   3.588   0.176   3.694 -0.0144 -0.1491  0.4429
 9484SOL    HW129351   3.648   0.103   3.726  1.9828  1.0030 -0.4607
 9484SOL    HW229352   3.615   0.203   3.601 -0.4472  1.9522  0.8714
 9485SOL     OW29353   0.463   5.536   4.202 -0.8363 -0.7844 -0.2916
 9485SOL    HW129354   0.496   5.442   4.195  0.0818 -0.3998 -1.4380
 9485SOL    HW229355   0.539   5.599   4.189 -1.0993  0.1634  2.1232
 9486SOL     OW29356   3.318   4.434   0.807  0.5520 -0.5567 -0.6024
 9486SOL    HW129357   3.390   4.365   0.815  0.4047 -0.6249  0.1937
 9486SOL    HW229358   3.330   4.484   0.721  0.1571 -2.1376 -1.6200
 9487SOL     OW29359   3.513   3.540   2.586 -0.3959  0.0796  0.4046
 9487SOL    HW129360   3.448   3.583   2.649 -0.5455 -0.1648  0.4205
 9487SOL    HW229361   3.547   3.455   2.627 -0.8480 -0.3221 -0.0404
 9488SOL     OW29362   1.101   6.988   0.344  0.1847 -0.4111  0.4651
 9488SOL    HW129363   1.102   7.036   0.256 -0.2311  0.6570  1.0123
 9488SOL    HW229364   1.051   7.044   0.410  1.0609 -0.8890  1.5494
 9489SOL     OW29365   4.420   3.821   1.681 -0.4334 -0.2216  0.1197
 9489SOL    HW129366   4.494   3.755   1.666 -0.8304 -0.4226 -1.1466
 9489SOL    HW229367   4.341   3.774   1.720 -0.3154 -0.2643  0.3061
 9490SOL     OW29368   0.045   0.747   0.849 -0.3314 -0.4647  0.6994
 9490SOL    HW129369  -0.047   0.756   0.887 -0.9599  3.6437 -1.3191
 9490SOL    HW229370   0.039   0.727   0.752  1.1036 -2.6304  0.9678
 9491SOL     OW29371   1.577   3.440   1.544  0.1500 -0.3568 -0.1904
 9491SOL    HW129372   1.607   3.350   1.513  0.7090 -1.3928  3.0124
 9491SOL    HW229373   1.623   3.463   1.630 -3.1556  1.0439  1.3764
 9492SOL     OW29374   4.897   3.140   1.325 -0.3962 -0.1955  0.5240
 9492SOL    HW129375   4.818   3.080   1.340  0.2006 -1.2259 -0.2875
 9492SOL    HW229376   4.975   3.105   1.376  0.2828 -0.8470 -0.8951
 9493SOL     OW29377   4.084   0.503   3.855  0.0874  0.6262 -0.4653
 9493SOL    HW129378   4.023   0.424   3.852  0.7354  0.0975 -0.0123
 9493SOL    HW229379   4.040   0.580   3.808 -1.1815  0.4450  0.3665
 9494SOL     OW29380   3.605   3.365   6.983 -0.3444  0.0737  0.8363
 9494SOL    HW129381   3.601   3.269   6.956 -1.7690  0.1658  0.6645
 9494SOL    HW229382   3.514   3.406   6.974  0.2867  1.4897  0.7226
 9495SOL     OW29383   3.112   0.869   3.667 -0.0321 -0.5301  0.3855
 9495SOL    HW129384   3.126   0.949   3.724  0.1345 -1.6250  1.9388
 9495SOL    HW229385   3.197   0.816   3.662 -0.6218 -1.5737  0.9529
 9496SOL     OW29386   4.977   6.599   0.098  0.1277  0.0515  0.3663
 9496SOL    HW129387   4.935   6.544   0.170 -1.1416  1.7910  0.9946
 9496SOL    HW229388   4.990   6.542   0.017  1.6209 -1.9605  1.9084
 9497SOL     OW29389   0.541   4.485   0.682  0.5895 -0.4749  0.1613
 9497SOL    HW129390   0.499   4.399   0.710  1.9922 -0.7295  1.6298
 9497SOL    HW229391   0.585   4.472   0.593  1.5690 -1.5912  0.7676
 9498SOL     OW29392   4.467   5.697   6.046  0.3896  0.1321  0.6317
 9498SOL    HW129393   4.550   5.742   6.080  0.8597 -1.0822  1.1745
 9498SOL    HW229394   4.488   5.601   6.027 -0.4671  0.2221 -0.9097
 9499SOL     OW29395   2.612   0.590   6.719 -0.5652  0.2327 -0.0324
 9499SOL    HW129396   2.662   0.507   6.746 -1.5038 -0.1917  0.4365
 9499SOL    HW229397   2.603   0.649   6.799 -1.2636  0.0678  0.0117
 9500SOL     OW29398   5.379   0.378   3.110 -0.1964 -0.5773 -0.5012
 9500SOL    HW129399   5.291   0.396   3.154  1.1653 -0.2775  2.3061
 9500SOL    HW229400   5.397   0.448   3.042 -1.0866  0.7873  0.6060
 9501SOL     OW29401   2.481   0.667   5.115  0.1183 -0.1848 -0.0515
 9501SOL    HW129402   2.530   0.601   5.172 -1.5418 -1.0233  0.4821
 9501SOL    HW229403   2.497   0.760   5.150  1.2013 -0.4344  0.1620
 9502SOL     OW29404   6.991   0.441   4.689 -0.3570  0.4054 -0.0242
 9502SOL    HW129405   6.917   0.382   4.723  0.6137 -0.5898  0.4124
 9502SOL    HW229406   7.067   0.439   4.754  1.1312 -0.6856 -1.7158
 9503SOL     OW29407   0.239   1.211   1.248  0.4179  0.3483 -0.5099
 9503SOL    HW129408   0.141   1.227   1.239 -0.0554 -1.7953  0.2056
 9503SOL    HW229409   0.255   1.138   1.314  2.5507  1.0121 -0.2026
 9504SOL     OW29410   1.239   1.670   2.745 -0.3135 -0.1346 -0.1038
 9504SOL    HW129411   1.241   1.592   2.682 -0.0529  0.4214 -0.7871
 9504SOL    HW229412   1.172   1.737   2.714  0.7495  0.7557 -0.5493
 9505SOL     OW29413   5.250   3.798   4.992  0.0927 -0.1611 -0.3021
 9505SOL    HW129414   5.157   3.830   5.009 -0.1461 -0.5148 -0.8652
 9505SOL    HW229415   5.313   3.875   4.991 -0.3385  0.1897 -0.7993
 9506SOL     OW29416   6.979   3.708   4.908 -0.5474  0.0223  0.0793
 9506SOL    HW129417   7.018   3.642   4.843 -1.8829 -1.2932  0.5391
 9506SOL    HW229418   7.051   3.766   4.945  0.5175 -0.4891 -1.1366
 9507SOL     OW29419   0.614   2.423   2.244 -0.2127 -0.0485  0.0169
 9507SOL    HW129420   0.613   2.356   2.170  1.3065 -0.8780  0.7026
 9507SOL    HW229421   0.589   2.513   2.208 -1.4755 -0.8017 -1.0781
 9508SOL     OW29422   6.677   4.912   6.943 -0.3157 -0.5957 -0.7015
 9508SOL    HW129423   6.710   4.918   7.037  0.3060  0.0658 -0.9451
 9508SOL    HW229424   6.674   4.816   6.914  2.0282 -0.6737 -0.8578
 9509SOL     OW29425   1.663   0.623   0.330  0.5039  0.1532  0.9606
 9509SOL    HW129426   1.754   0.600   0.364  0.7780  1.0803  0.8768
 9509SOL    HW229427   1.661   0.613   0.230  0.6597  0.6071  0.9109
 9510SOL     OW29428   0.505   4.997   2.157  0.0958 -0.7288  0.2995
 9510SOL    HW129429   0.426   4.998   2.095  0.0980 -0.0615  0.3085
 9510SOL    HW229430   0.480   5.039   2.244  0.8730  0.8749 -0.2118
 9511SOL     OW29431   0.433   1.658   1.106  0.5154  0.1626 -0.0133
 9511SOL    HW129432   0.405   1.566   1.133  0.6317  0.5725  1.5618
 9511SOL    HW229433   0.478   1.654   1.017 -1.0254 -1.0559 -0.7995
 9512SOL     OW29434   6.781   2.081   1.620 -0.0968  0.1969  0.7263
 9512SOL    HW129435   6.767   2.016   1.696 -0.7490  0.8406  1.1677
 9512SOL    HW229436   6.713   2.154   1.626  0.3403  0.6743 -0.0401
 9513SOL     OW29437   1.349   1.644   1.880  0.1775 -0.3769  0.5615
 9513SOL    HW129438   1.277   1.712   1.894 -1.6030 -2.2317  0.9685
 9513SOL    HW229439   1.413   1.646   1.957 -0.6955 -0.1514  1.2953
 9514SOL     OW29440   3.541   0.682   5.559 -0.2973  0.1065 -0.7480
 9514SOL    HW129441   3.573   0.608   5.618 -1.1298 -0.0544 -0.4774
 9514SOL    HW229442   3.619   0.724   5.512  0.1775 -0.9624 -0.9381
 9515SOL     OW29443   1.631   0.049   2.216 -0.3709 -0.0234 -0.3724
 9515SOL    HW129444   1.609  -0.047   2.197 -2.3250  0.7712 -2.6123
 9515SOL    HW229445   1.650   0.096   2.130 -2.3499  2.2447  0.3512
 9516SOL     OW29446   4.811   3.144   5.198  0.1407 -0.1863  0.2764
 9516SOL    HW129447   4.837   3.240   5.213 -0.3742  0.0490 -0.3109
 9516SOL    HW229448   4.712   3.134   5.206 -0.1196 -0.1781 -2.0195
 9517SOL     OW29449   0.954   5.433   6.629  0.0258 -0.3341 -0.6962
 9517SOL    HW129450   1.035   5.387   6.666 -0.6001 -1.1715 -0.3297
 9517SOL    HW229451   0.941   5.405   6.534 -1.6077 -2.7805  0.1365
 9518SOL     OW29452   0.032   1.700   5.856  0.7515  0.4328 -0.4386
 9518SOL    HW129453   0.079   1.750   5.929 -0.3347  0.7858  0.0356
 9518SOL    HW229454   0.034   1.602   5.877 -0.6090  0.6239  0.7231
 9519SOL     OW29455   3.058   3.117   5.066 -0.2098  0.5092  0.0042
 9519SOL    HW129456   3.156   3.137   5.071 -0.3446  1.2079 -0.1704
 9519SOL    HW229457   3.038   3.036   5.123  0.5381  0.0710 -0.3423
 9520SOL     OW29458   0.073   0.548   3.935 -0.1618 -0.2020 -0.3279
 9520SOL    HW129459   0.048   0.633   3.981 -1.0564 -0.4520 -0.3441
 9520SOL    HW229460   0.025   0.471   3.978 -0.8240 -0.4671 -1.5081
 9521SOL     OW29461   5.408   4.366   0.223  0.0227 -0.4197  0.4068
 9521SOL    HW129462   5.383   4.327   0.134 -0.8037 -0.4521  0.6432
 9521SOL    HW229463   5.382   4.303   0.296  4.5493 -2.4599  0.5879
 9522SOL     OW29464   2.470   4.632   4.045 -0.6056  0.3934 -0.5181
 9522SOL    HW129465   2.546   4.697   4.040 -0.0537 -0.2391 -0.5548
 9522SOL    HW229466   2.475   4.583   4.132 -0.6447 -0.0453 -0.7603
 9523SOL     OW29467   2.951   3.656   6.430 -0.3004  0.1790  0.3361
 9523SOL    HW129468   2.917   3.673   6.338  2.4772 -0.7836 -0.9733
 9523SOL    HW229469   2.956   3.743   6.480  1.7198  1.4129 -1.7997
 9524SOL     OW29470   2.281   3.369   0.297  0.3371 -0.2649 -0.5930
 9524SOL    HW129471   2.239   3.404   0.213 -0.4818  0.7538  0.2205
 9524SOL    HW229472   2.213   3.367   0.370  0.8571 -1.8256 -0.1158
 9525SOL     OW29473   1.845   2.462   5.678  0.1606 -0.2379 -0.3273
 9525SOL    HW129474   1.928   2.407   5.694  1.3862  1.8700  1.0623
 9525SOL    HW229475   1.849   2.501   5.586 -0.6622 -2.2810 -1.2811
 9526SOL     OW29476   0.521   4.976   1.852  0.0767 -0.0645  0.0864
 9526SOL    HW129477   0.524   5.075   1.868  2.0042  0.3105 -2.1145
 9526SOL    HW229478   0.527   4.958   1.754  1.6337 -2.3988  0.5451
 9527SOL     OW29479   0.937   6.673   5.209 -0.2351  0.1502  0.0989
 9527SOL    HW129480   0.976   6.600   5.152 -1.0954  0.7383 -1.2950
 9527SOL    HW229481   0.962   6.762   5.172 -1.4540  0.5443  0.1577
 9528SOL     OW29482   5.477   0.640   0.058 -0.3398 -0.8108 -0.2615
 9528SOL    HW129483   5.429   0.695   0.126 -0.2563  0.1549 -0.9577
 9528SOL    HW229484   5.570   0.621   0.090 -0.2470 -0.2222 -0.1580
 9529SOL     OW29485   6.918   5.360   6.161  0.4713  0.0787  0.2375
 9529SOL    HW129486   6.907   5.425   6.085 -1.7472  0.2874  0.6478
 9529SOL    HW229487   6.888   5.403   6.246 -1.0532 -1.4286  0.5257
 9530SOL     OW29488   1.206   1.219   4.767 -0.1481  0.3819 -0.3853
 9530SOL    HW129489   1.237   1.125   4.764 -2.2728 -0.6072  2.9037
 9530SOL    HW229490   1.274   1.276   4.813  0.4209  0.1259 -0.8990
 9531SOL     OW29491   5.182   3.540   3.212 -0.4838 -0.9868 -0.6002
 9531SOL    HW129492   5.099   3.504   3.170  0.0597 -2.1370 -0.7208
 9531SOL    HW229493   5.232   3.465   3.257 -0.5384  0.0186  1.2414
 9532SOL     OW29494   2.812   5.507   1.278 -0.1180  0.9336  0.0740
 9532SOL    HW129495   2.774   5.465   1.196 -0.7172 -0.7154  1.1538
 9532SOL    HW229496   2.872   5.442   1.325 -0.4424  1.5421  1.3846
 9533SOL     OW29497   1.871   6.034   4.665  0.5886 -0.0772  0.5613
 9533SOL    HW129498   1.876   6.006   4.569  1.4624 -0.0239  0.5848
 9533SOL    HW229499   1.911   5.963   4.723  0.2775 -0.0054  0.8734
 9534SOL     OW29500   6.374   3.501   3.431 -0.3015  0.4109  0.2272
 9534SOL    HW129501   6.414   3.449   3.507 -1.9684 -0.0730  0.8215
 9534SOL    HW229502   6.401   3.459   3.345 -1.5792 -1.4776  0.6948
 9535SOL     OW29503   2.205   2.300   3.985  0.2109  0.0084 -0.0821
 9535SOL    HW129504   2.171   2.219   4.032  0.4033  0.2280  0.4453
 9535SOL    HW229505   2.295   2.282   3.947 -0.4053 -0.5222 -1.3364
 9536SOL     OW29506   3.723   4.174   5.048 -0.5289  0.5612  0.4986
 9536SOL    HW129507   3.714   4.174   4.949  0.3793  0.1985  0.4114
 9536SOL    HW229508   3.679   4.092   5.086 -0.2255  0.3195  0.3312
 9537SOL     OW29509   2.163   6.761   4.004 -0.4402 -0.2919 -0.4339
 9537SOL    HW129510   2.125   6.841   4.052  0.2933  1.1357 -2.1023
 9537SOL    HW229511   2.261   6.754   4.024 -0.6261 -1.1954  0.2175
 9538SOL     OW29512   5.661   1.200   3.745  0.2091 -0.3449 -0.0562
 9538SOL    HW129513   5.683   1.147   3.827 -1.0399 -0.1258  0.4466
 9538SOL    HW229514   5.716   1.167   3.668  0.6595 -1.2414  0.6274
 9539SOL     OW29515   3.276   2.389   5.447 -0.0044 -0.8059  0.0598
 9539SOL    HW129516   3.226   2.452   5.507 -0.4523 -0.8157 -0.3010
 9539SOL    HW229517   3.235   2.390   5.356  2.2039  1.1356 -1.0188
 9540SOL     OW29518   5.617   5.379   6.524  0.1844  0.2268 -0.2457
 9540SOL    HW129519   5.712   5.350   6.524  0.1387  0.0701  0.2016
 9540SOL    HW229520   5.565   5.323   6.588 -0.2000  0.3424 -0.4518
 9541SOL     OW29521   3.076   0.651   1.317 -0.0493  0.2368 -0.3479
 9541SOL    HW129522   3.029   0.738   1.332  0.4984  0.2895  1.3508
 9541SOL    HW229523   3.173   0.668   1.302 -0.3167  0.0479 -2.5744
 9542SOL     OW29524   4.772   5.445   5.915 -0.8557  0.4055 -0.0374
 9542SOL    HW129525   4.797   5.428   6.011  0.3424  1.2011 -0.2029
 9542SOL    HW229526   4.675   5.422   5.903 -0.8937 -0.2243  1.2329
 9543SOL     OW29527   2.385   0.154   0.098  0.0974 -0.3460  0.5212
 9543SOL    HW129528   2.420   0.076   0.046  0.5122  0.5816 -0.6240
 9543SOL    HW229529   2.338   0.217   0.037 -1.0307 -0.1110  1.5771
 9544SOL     OW29530   6.339   3.706   3.830  0.9805  0.4300 -0.1030
 9544SOL    HW129531   6.340   3.723   3.731 -2.2140  2.5523  0.0796
 9544SOL    HW229532   6.310   3.788   3.878  1.8319 -0.7268  2.6116
 9545SOL     OW29533   4.634   4.357   1.713 -0.6631 -0.4753 -0.3409
 9545SOL    HW129534   4.728   4.358   1.750 -0.5211  0.1057 -0.7070
 9545SOL    HW229535   4.571   4.330   1.786 -0.3877  0.6626  0.3483
 9546SOL     OW29536   2.770   0.724   0.862 -0.5347 -0.0063  0.2441
 9546SOL    HW129537   2.841   0.715   0.931  2.9344  1.5969 -2.7567
 9546SOL    HW229538   2.773   0.645   0.801 -0.8619  0.3988 -0.3014
 9547SOL     OW29539   2.417   4.868   5.115 -0.6368 -0.3092  0.2855
 9547SOL    HW129540   2.471   4.785   5.100  0.5354  0.4138  0.3118
 9547SOL    HW229541   2.322   4.852   5.090 -0.3025 -1.4757 -0.2845
 9548SOL     OW29542   6.116   5.557   4.919 -0.4859  0.2532  0.3022
 9548SOL    HW129543   6.201   5.506   4.935 -2.1665 -2.8432  0.1234
 9548SOL    HW229544   6.103   5.623   4.993  1.3942 -0.1615  1.0765
 9549SOL     OW29545   2.007   1.208   2.506  0.1115  0.0463  0.2795
 9549SOL    HW129546   1.932   1.231   2.444  0.7381 -0.2110 -0.5930
 9549SOL    HW229547   2.077   1.280   2.502  0.6149 -0.4601 -0.0674
 9550SOL     OW29548   1.344   0.894   0.841  0.2195  0.2339  0.3932
 9550SOL    HW129549   1.368   0.905   0.937  0.0615  0.8786  0.3649
 9550SOL    HW229550   1.427   0.890   0.786  0.3737 -1.7970  0.7050
 9551SOL     OW29551   5.423   2.436   5.943 -0.1529 -0.1554 -0.4349
 9551SOL    HW129552   5.478   2.391   5.872  0.4007  1.3436 -0.9809
 9551SOL    HW229553   5.464   2.419   6.033  0.8448  0.4182 -0.7716
 9552SOL     OW29554   4.645   6.237   4.877  0.3152 -0.1854 -0.4783
 9552SOL    HW129555   4.651   6.177   4.957  0.4716  1.8838  1.1366
 9552SOL    HW229556   4.590   6.318   4.900  0.3255  0.4368 -2.4911
 9553SOL     OW29557   6.710   0.062   6.630  0.1903  0.2397  0.5026
 9553SOL    HW129558   6.699   0.020   6.540  0.2072  0.0236  0.6029
 9553SOL    HW229559   6.757   0.150   6.619 -1.7065  1.2446  0.0636
 9554SOL     OW29560   1.006   6.695   3.198  0.1003 -0.2763  0.5023
 9554SOL    HW129561   0.997   6.607   3.150 -0.9763 -1.0504  2.0501
 9554SOL    HW229562   1.102   6.723   3.198  0.3281 -0.9378 -0.8665
 9555SOL     OW29563   2.679   0.211   3.385  0.0239  1.0041  0.3543
 9555SOL    HW129564   2.621   0.224   3.305 -1.0173  0.7310  1.0432
 9555SOL    HW229565   2.739   0.290   3.396 -0.3942  1.4110 -0.2319
 9556SOL     OW29566   2.219   4.859   0.023 -0.1713 -0.1562 -0.0677
 9556SOL    HW129567   2.271   4.779  -0.009 -1.5333 -1.4367  0.7765
 9556SOL    HW229568   2.127   4.855  -0.014 -0.2128  1.1391 -0.1315
 9557SOL     OW29569   0.194   6.923   2.727 -0.1193 -0.1198  0.2670
 9557SOL    HW129570   0.234   6.942   2.637 -0.7946 -0.6188 -0.1465
 9557SOL    HW229571   0.257   6.866   2.780 -0.2174 -0.7841 -0.3258
 9558SOL     OW29572   6.331   4.563   5.920 -0.1043  0.0941  0.6467
 9558SOL    HW129573   6.412   4.578   5.977 -0.5829  0.2417  1.3059
 9558SOL    HW229574   6.317   4.465   5.907  0.9281  0.0925 -0.5830
 9559SOL     OW29575   2.294   4.684   2.088 -0.0837  0.3888 -0.4164
 9559SOL    HW129576   2.361   4.633   2.035 -2.5585 -2.6209 -0.9528
 9559SOL    HW229577   2.307   4.665   2.185  0.3779  0.5487 -0.4444
 9560SOL     OW29578   2.730   1.061   1.771  0.4583 -0.7025  0.1075
 9560SOL    HW129579   2.652   1.031   1.716  0.6189 -2.2637  0.6701
 9560SOL    HW229580   2.756   1.154   1.745 -1.5280 -0.1697 -0.1519
 9561SOL     OW29581   0.331   6.096   1.831 -0.2255  0.1771  0.3230
 9561SOL    HW129582   0.418   6.140   1.809 -0.5227  0.3431 -0.5348
 9561SOL    HW229583   0.339   6.051   1.920  0.7605  0.1281  0.2275
 9562SOL     OW29584   4.139   6.678   5.936  0.0718  0.5294  0.3559
 9562SOL    HW129585   4.153   6.692   6.034  1.1644 -1.0100  0.4550
 9562SOL    HW229586   4.041   6.670   5.916 -0.1354  0.4003  1.3860
 9563SOL     OW29587   2.204   6.646   0.031 -0.1219  0.6343  0.1978
 9563SOL    HW129588   2.134   6.589   0.074  1.0647 -0.3141  0.9152
 9563SOL    HW229589   2.294   6.624   0.069  1.1982 -1.0033 -3.3229
 9564SOL     OW29590   3.442   1.589   0.971 -0.1309 -0.1974  0.4473
 9564SOL    HW129591   3.495   1.519   1.019  0.6051  0.7631  1.0706
 9564SOL    HW229592   3.360   1.611   1.024  1.0537  1.4008  1.7354
 9565SOL     OW29593   4.649   1.176   6.337  0.4378  0.4687  0.0397
 9565SOL    HW129594   4.612   1.091   6.374 -0.2246  0.9873  0.5995
 9565SOL    HW229595   4.746   1.164   6.317  0.5200 -0.1993  0.7888
 9566SOL     OW29596   1.159   5.566   5.700  0.0966  0.5629 -0.1074
 9566SOL    HW129597   1.253   5.533   5.686  0.2130  0.3607  1.0012
 9566SOL    HW229598   1.094   5.495   5.672  0.1512  1.6241 -3.2862
 9567SOL     OW29599   6.383   5.447   1.207  0.3426  0.9491  0.0988
 9567SOL    HW129600   6.284   5.443   1.221 -0.0207 -1.8811 -2.2799
 9567SOL    HW229601   6.429   5.392   1.277 -0.0310  0.1908 -0.2350
 9568SOL     OW29602   4.728   2.088   0.236  0.4531 -0.0212  0.0825
 9568SOL    HW129603   4.720   2.003   0.184 -1.4089  0.9842 -1.3957
 9568SOL    HW229604   4.701   2.165   0.179 -0.2912  1.3008  2.1066
 9569SOL     OW29605   0.773   0.269   2.203  0.3201  0.4578 -0.5928
 9569SOL    HW129606   0.720   0.218   2.134  0.4533 -0.1980 -0.2198
 9569SOL    HW229607   0.711   0.323   2.260 -0.0901 -1.1263  0.5289
 9570SOL     OW29608   0.027   3.548   3.506 -0.7358 -0.0434  0.0489
 9570SOL    HW129609  -0.071   3.543   3.526 -0.7466  1.7895  0.7306
 9570SOL    HW229610   0.059   3.641   3.525  1.6251 -1.1789  2.1155
 9571SOL     OW29611   4.972   3.661   6.880 -0.1493 -0.7080  0.1517
 9571SOL    HW129612   4.947   3.591   6.812  0.7951  0.2956 -1.2960
 9571SOL    HW229613   4.910   3.739   6.872  0.4312 -0.2654 -0.0883
 9572SOL     OW29614   2.533   4.524   3.803 -0.1367  0.3763 -0.0651
 9572SOL    HW129615   2.506   4.532   3.899  0.6497  1.6467  0.0823
 9572SOL    HW229616   2.616   4.578   3.787  1.1941 -1.8051 -0.9205
 9573SOL     OW29617   0.608   4.082   6.058 -0.1068  0.0189 -0.0378
 9573SOL    HW129618   0.535   4.095   6.125 -0.2216  0.4111 -0.2359
 9573SOL    HW229619   0.690   4.131   6.089  0.1772 -0.6810  0.3423
 9574SOL     OW29620   4.156   3.543   2.246 -0.0489  0.3515  0.4942
 9574SOL    HW129621   4.253   3.522   2.260  0.0618 -0.3086 -1.0781
 9574SOL    HW229622   4.121   3.593   2.325  1.6786  0.9735  0.9045
 9575SOL     OW29623   0.789   6.932   1.345 -0.2978  0.1390  0.3469
 9575SOL    HW129624   0.879   6.929   1.300 -0.4637 -0.0657  0.0200
 9575SOL    HW229625   0.797   6.896   1.438  0.1971  1.2401  0.7491
 9576SOL     OW29626   4.216   1.392   6.614  1.1188  0.2629  0.0403
 9576SOL    HW129627   4.261   1.305   6.634  1.4890  0.2795 -0.7175
 9576SOL    HW229628   4.283   1.458   6.581  0.5181  0.2141 -1.3330
 9577SOL     OW29629   0.136   1.873   6.515 -0.5761 -0.1537  0.1767
 9577SOL    HW129630   0.174   1.823   6.437  0.2277  1.0102 -0.2154
 9577SOL    HW229631   0.204   1.878   6.588 -0.2817  1.1406 -0.1602
 9578SOL     OW29632   1.064   3.099   2.037  0.1241 -0.2637 -0.4859
 9578SOL    HW129633   1.034   3.004   2.034  1.1734 -0.6403  0.4022
 9578SOL    HW229634   1.130   3.115   1.963  0.2504 -0.3341 -0.3883
 9579SOL     OW29635   1.940   4.258   4.244  0.2451 -0.1183  0.1862
 9579SOL    HW129636   1.937   4.226   4.149 -1.3565  1.2038 -0.2536
 9579SOL    HW229637   2.031   4.296   4.262  1.3553 -2.4808 -0.0368
 9580SOL     OW29638   4.479   2.529   0.384 -0.2083 -0.3117 -0.1613
 9580SOL    HW129639   4.578   2.543   0.389 -0.2812  0.4905 -0.6808
 9580SOL    HW229640   4.445   2.567   0.298 -0.9868 -0.4790  0.0689
 9581SOL     OW29641   6.110   5.557   6.722  0.0994  0.2256 -0.6306
 9581SOL    HW129642   6.147   5.524   6.635 -0.2085 -0.3682 -0.5433
 9581SOL    HW229643   6.168   5.526   6.797 -0.0355  0.1127 -0.5706
 9582SOL     OW29644   4.104   6.236   5.347  0.1222  0.2881 -0.2544
 9582SOL    HW129645   4.181   6.297   5.367  2.3992 -2.1467 -1.0213
 9582SOL    HW229646   4.088   6.235   5.249  0.8926 -1.1529 -0.3885
 9583SOL     OW29647   2.933   4.435   0.979 -0.0576  0.1483  0.1898
 9583SOL    HW129648   2.839   4.404   0.962  0.1491  0.6428 -2.2174
 9583SOL    HW229649   2.931   4.520   1.033 -1.0973  0.8920 -0.9631
 9584SOL     OW29650   0.645   5.693   5.054 -0.3177 -0.7115 -0.2011
 9584SOL    HW129651   0.571   5.759   5.048 -0.8197 -0.9517  2.4176
 9584SOL    HW229652   0.713   5.712   4.982 -0.6782  2.3054  0.1572
 9585SOL     OW29653   0.374   6.346   4.612  0.3310 -0.1726  0.1021
 9585SOL    HW129654   0.279   6.360   4.641  0.3492 -2.0213  1.2058
 9585SOL    HW229655   0.377   6.277   4.541  0.6720  1.6665 -1.7800
 9586SOL     OW29656   0.579   5.743   2.270 -0.0755  0.1777 -0.2496
 9586SOL    HW129657   0.622   5.769   2.356 -0.5891 -0.6549  0.2811
 9586SOL    HW229658   0.484   5.774   2.269 -1.1002 -2.5795  0.9370
 9587SOL     OW29659   2.360   6.285   2.414 -0.0122  0.2041  0.3591
 9587SOL    HW129660   2.386   6.379   2.434 -0.7049  0.1532  1.5445
 9587SOL    HW229661   2.438   6.237   2.373  0.5764  1.0770  0.4411
 9588SOL     OW29662   5.335   1.472   2.580  0.2558 -0.2154 -0.2678
 9588SOL    HW129663   5.361   1.536   2.652 -0.9079  0.6454 -0.5687
 9588SOL    HW229664   5.350   1.515   2.491  0.1259 -0.6258 -0.4881
 9589SOL     OW29665   3.566   4.099   6.775 -0.0396  0.4531  0.5525
 9589SOL    HW129666   3.518   4.012   6.767  0.7418  0.0328  0.3373
 9589SOL    HW229667   3.598   4.111   6.869  1.4818 -0.3797  0.1572
 9590SOL     OW29668   4.496   3.946   0.294  0.5749  0.3286 -0.3097
 9590SOL    HW129669   4.562   3.912   0.361  2.4545  0.9959 -1.7596
 9590SOL    HW229670   4.433   4.009   0.339  0.9427 -0.2542  1.0930
 9591SOL     OW29671   4.243   5.157   6.546 -0.0228  0.1889 -0.1132
 9591SOL    HW129672   4.205   5.249   6.542 -2.1961 -0.6416  0.0345
 9591SOL    HW229673   4.262   5.125   6.453  0.6171  0.7252 -0.1722
 9592SOL     OW29674   3.367   4.310   0.444  0.6632  0.2270 -0.0751
 9592SOL    HW129675   3.341   4.264   0.529 -0.0648 -0.4172 -0.6352
 9592SOL    HW229676   3.285   4.327   0.389  1.3012 -1.1130 -1.5225
 9593SOL     OW29677   0.163   0.070   5.927 -0.3473  0.4341 -0.1178
 9593SOL    HW129678   0.249   0.027   5.898  0.1733  0.6313  1.0829
 9593SOL    HW229679   0.177   0.118   6.014 -1.4330  1.3094 -0.4061
 9594SOL     OW29680   2.810   5.099   2.642 -0.1459 -0.2504  0.2286
 9594SOL    HW129681   2.807   5.112   2.741  1.5556  1.8529  0.0762
 9594SOL    HW229682   2.900   5.062   2.617 -0.6209 -0.9140 -0.5351
 9595SOL     OW29683   0.959   2.321   3.754 -0.5635  0.0206  0.1349
 9595SOL    HW129684   1.028   2.358   3.816 -1.2599  1.8229 -0.1207
 9595SOL    HW229685   1.001   2.301   3.666 -0.1743  0.1635  0.2860
 9596SOL     OW29686   6.547   5.431   5.648 -0.4009  0.3467 -0.0495
 9596SOL    HW129687   6.534   5.335   5.623  1.5156 -0.1938  0.8338
 9596SOL    HW229688   6.644   5.454   5.642 -0.6240  1.7736  1.2589
 9597SOL     OW29689   0.602   4.226   1.438 -0.2593  0.3177 -0.5596
 9597SOL    HW129690   0.609   4.261   1.532  0.6673 -0.7207 -0.2103
 9597SOL    HW229691   0.644   4.292   1.375  2.2701 -0.4404  0.1796
 9598SOL     OW29692   2.427   5.957   5.880  0.3844  0.3583  0.2164
 9598SOL    HW129693   2.351   5.900   5.851  0.8883 -1.0140  1.4792
 9598SOL    HW229694   2.412   6.051   5.849 -1.0513 -0.1960 -0.8658
 9599SOL     OW29695   2.684   4.889   5.911  0.5107  0.2067  0.5105
 9599SOL    HW129696   2.780   4.897   5.883  0.5788  1.7994  1.0805
 9599SOL    HW229697   2.663   4.793   5.930  1.5483 -0.3799 -1.0888
 9600SOL     OW29698   2.379   0.592   0.019 -0.3506  0.2638 -0.1544
 9600SOL    HW129699   2.406   0.591   0.115 -2.0010  1.3962  0.3712
 9600SOL    HW229700   2.449   0.639  -0.035 -0.2806  1.3100  0.8142
 9601SOL     OW29701   3.600   6.486   0.403  0.0691  0.0977 -0.0604
 9601SOL    HW129702   3.557   6.461   0.316  0.9437 -1.0154 -0.2126
 9601SOL    HW229703   3.607   6.585   0.410 -1.7883  0.2799 -0.3617
 9602SOL     OW29704   6.763   5.044   5.886  0.1274 -0.3682 -0.2196
 9602SOL    HW129705   6.788   5.062   5.981 -0.0648  0.7490 -0.3636
 9602SOL    HW229706   6.664   5.043   5.877  0.1300 -1.3094 -0.2738
 9603SOL     OW29707   4.080   1.786   5.794 -0.6963  0.1771  0.3790
 9603SOL    HW129708   3.984   1.795   5.821 -0.8894 -0.0802 -0.2010
 9603SOL    HW229709   4.137   1.840   5.855 -0.9686 -1.4081  2.1483
 9604SOL     OW29710   4.731   6.870   6.820  0.3068 -0.7846  0.4629
 9604SOL    HW129711   4.647   6.922   6.805  0.6067 -0.6478 -0.8365
 9604SOL    HW229712   4.743   6.855   6.918 -0.6524  0.1476  0.7480
 9605SOL     OW29713   6.658   0.025   4.103  0.1262 -0.2105 -0.5839
 9605SOL    HW129714   6.595   0.067   4.168  0.4100  0.6449 -0.8484
 9605SOL    HW229715   6.651  -0.075   4.109 -1.0706 -0.1334 -0.4412
 9606SOL     OW29716   1.664   6.125   5.269  0.8016  0.7523 -0.1975
 9606SOL    HW129717   1.568   6.146   5.251 -0.0360 -1.4907  1.2538
 9606SOL    HW229718   1.684   6.140   5.366  1.1545 -1.2500  0.0873
 9607SOL     OW29719   2.520   0.220   2.730  0.3385 -0.0461  0.0485
 9607SOL    HW129720   2.551   0.286   2.662  1.2138  0.0434  0.5150
 9607SOL    HW229721   2.447   0.261   2.786 -0.5501 -0.2065 -0.9679
 9608SOL     OW29722   3.728   6.936   3.033  0.3285 -0.5829  0.1633
 9608SOL    HW129723   3.693   6.979   3.116 -0.7275  0.5375 -0.8198
 9608SOL    HW229724   3.654   6.885   2.988  0.7122 -0.6479 -0.4104
 9609SOL     OW29725   2.332   3.751   1.016  0.8588 -0.3179  0.2843
 9609SOL    HW129726   2.348   3.652   1.021  1.7164 -0.1671  0.8423
 9609SOL    HW229727   2.336   3.790   1.108  2.7252  0.5324 -0.1116
 9610SOL     OW29728   1.421   4.475   2.988  0.1262 -0.3238 -0.4167
 9610SOL    HW129729   1.337   4.527   2.977  0.1523 -0.2334 -0.1761
 9610SOL    HW229730   1.400   4.385   3.027  0.3302  0.3525  1.3364
 9611SOL     OW29731   1.269   5.883   0.747  0.5967  0.5269 -0.1031
 9611SOL    HW129732   1.222   5.819   0.808  1.1970  1.4463  1.3631
 9611SOL    HW229733   1.331   5.832   0.686  0.5220 -0.3429  0.5364
 9612SOL     OW29734   0.711   3.936   0.698 -0.0855 -0.3347 -0.5281
 9612SOL    HW129735   0.629   3.918   0.752  1.4951 -0.3667  2.0120
 9612SOL    HW229736   0.751   4.023   0.726  0.4983 -0.0779 -2.0872
 9613SOL     OW29737   6.136   4.856   5.117  0.5607  0.1976  0.3767
 9613SOL    HW129738   6.200   4.781   5.133 -0.4639 -0.7011  0.3981
 9613SOL    HW229739   6.067   4.827   5.050 -1.1452  0.3013  1.9909
 9614SOL     OW29740   3.564   2.681   5.953 -0.5594 -0.6634 -0.0437
 9614SOL    HW129741   3.499   2.668   5.878  1.1274  1.0457 -1.9187
 9614SOL    HW229742   3.515   2.709   6.035 -2.2507  0.0792 -1.2404
 9615SOL     OW29743   2.159   6.187   1.250 -0.1440 -0.0542 -0.2172
 9615SOL    HW129744   2.139   6.152   1.159 -0.5884  0.7873 -0.4474
 9615SOL    HW229745   2.258   6.191   1.264 -0.0808 -0.9939 -0.3374
 9616SOL     OW29746   5.084   4.270   2.337 -0.2130  0.2104  0.2262
 9616SOL    HW129747   5.123   4.357   2.306 -1.5695  0.5170 -0.7208
 9616SOL    HW229748   5.112   4.253   2.432  2.4055  0.2516 -0.4648
 9617SOL     OW29749   1.969   1.171   3.214  0.4591  0.1603  0.2204
 9617SOL    HW129750   1.894   1.128   3.163  0.4250  1.4528 -0.8823
 9617SOL    HW229751   1.978   1.267   3.186  3.5518 -0.3255 -0.9229
 9618SOL     OW29752   2.739   0.284   0.283 -0.6462  0.0458  0.2971
 9618SOL    HW129753   2.734   0.268   0.185  0.3421  0.8025  0.1098
 9618SOL    HW229754   2.646   0.294   0.320 -1.0285 -0.3284 -0.5373
 9619SOL     OW29755   0.362   6.639   0.734  0.3226  0.8970 -0.2278
 9619SOL    HW129756   0.316   6.726   0.754 -1.6420 -0.0007 -0.6288
 9619SOL    HW229757   0.370   6.627   0.635 -0.8351 -0.0674 -0.2194
 9620SOL     OW29758   4.668   2.777   4.511 -0.2529  0.4892 -0.1891
 9620SOL    HW129759   4.630   2.784   4.603 -1.4454 -0.2804 -0.6052
 9620SOL    HW229760   4.748   2.838   4.503  0.9611 -0.7160  1.8793
 9621SOL     OW29761   1.490   6.773   2.249  0.3072 -0.7170 -0.3845
 9621SOL    HW129762   1.393   6.777   2.272  0.4932  0.8747  0.2957
 9621SOL    HW229763   1.542   6.738   2.327  0.5700  1.3942  0.4561
 9622SOL     OW29764   6.563   1.303   0.793 -0.1602  0.1670 -0.3684
 9622SOL    HW129765   6.555   1.240   0.715  0.9187  0.5063 -0.7722
 9622SOL    HW229766   6.477   1.304   0.844 -0.8794 -0.0619 -1.5527
 9623SOL     OW29767   2.699   4.098   0.806 -0.3531  0.3632  0.8886
 9623SOL    HW129768   2.612   4.050   0.819  0.5327 -1.4882  0.3656
 9623SOL    HW229769   2.691   4.191   0.842 -1.8813 -0.4348  2.8462
 9624SOL     OW29770   1.015   2.776   2.025  0.5344  0.0216 -0.2262
 9624SOL    HW129771   0.959   2.696   2.002 -0.2890  1.2554 -3.0031
 9624SOL    HW229772   1.085   2.750   2.091  0.0767 -2.9145 -0.7547
 9625SOL     OW29773   3.630   6.401   1.252  0.2617  0.2703 -0.1646
 9625SOL    HW129774   3.590   6.452   1.175  0.2848  0.7264  0.1241
 9625SOL    HW229775   3.557   6.361   1.307  0.2570 -0.8031 -0.9110
 9626SOL     OW29776   2.000   6.186   5.650 -0.1692  0.0512 -0.1691
 9626SOL    HW129777   2.033   6.094   5.629  1.4064 -0.2455  2.9623
 9626SOL    HW229778   2.068   6.253   5.620 -0.0923 -0.0030 -0.1172
 9627SOL     OW29779   0.477   5.385   2.303  0.7899 -0.8618  0.2678
 9627SOL    HW129780   0.548   5.398   2.233  1.0187 -0.6185  0.5405
 9627SOL    HW229781   0.482   5.459   2.370 -1.5001  0.7285 -1.1951
 9628SOL     OW29782   6.452   3.531   0.100  0.0302  0.4138 -0.1247
 9628SOL    HW129783   6.538   3.479   0.101  0.8575  1.7466  0.4989
 9628SOL    HW229784   6.466   3.619   0.145 -2.0301  0.1356  1.1726
 9629SOL     OW29785   1.641   6.638   3.499  0.3037  0.1947 -0.0443
 9629SOL    HW129786   1.706   6.652   3.574  2.0039 -0.6473 -1.3050
 9629SOL    HW229787   1.667   6.696   3.421  0.2462 -1.0095 -0.9840
 9630SOL     OW29788   6.489   4.356   6.458  0.3040  0.1033 -0.3626
 9630SOL    HW129789   6.424   4.305   6.402  0.3619 -1.5649  1.0226
 9630SOL    HW229790   6.441   4.429   6.507 -0.1634  0.0774 -0.7711
 9631SOL     OW29791   0.492   6.432   6.722  0.0821  0.0691 -0.1979
 9631SOL    HW129792   0.461   6.339   6.742 -1.0766  0.3331 -0.6425
 9631SOL    HW229793   0.578   6.449   6.769  0.1592 -1.1203  0.1424
 9632SOL     OW29794   4.051   6.131   4.105 -0.4308 -0.0821  0.2875
 9632SOL    HW129795   4.059   6.085   4.016  0.7749  1.9580 -0.7301
 9632SOL    HW229796   4.017   6.066   4.173 -0.7095 -1.8994 -1.4910
 9633SOL     OW29797   4.407   4.990   0.244  0.0999 -0.1290 -0.1782
 9633SOL    HW129798   4.446   5.066   0.296 -0.1257 -0.1945  0.0914
 9633SOL    HW229799   4.321   4.962   0.287 -0.2396  0.0102 -0.7561
 9634SOL     OW29800   6.820   0.153   2.658  0.0558 -0.7776  0.2482
 9634SOL    HW129801   6.822   0.121   2.564  0.3087  0.9240 -0.3644
 9634SOL    HW229802   6.911   0.185   2.685 -0.1656 -0.6279  0.8403
 9635SOL     OW29803   6.100   4.294   6.545  0.4610  1.1071  0.4341
 9635SOL    HW129804   6.154   4.346   6.610 -0.9347  0.3228  2.3261
 9635SOL    HW229805   6.047   4.225   6.594 -1.5388  1.2368 -1.3854
 9636SOL     OW29806   3.314   2.802   0.954  0.5265  0.0630  0.0313
 9636SOL    HW129807   3.385   2.820   1.022  0.6502  1.9274 -0.5337
 9636SOL    HW229808   3.234   2.858   0.975 -0.5817 -1.5366  0.2919
 9637SOL     OW29809   4.415   1.588   6.580  0.4977 -0.2386 -0.3138
 9637SOL    HW129810   4.413   1.537   6.666 -0.0631 -0.3589 -0.3923
 9637SOL    HW229811   4.416   1.686   6.600  0.7429 -0.2716 -0.1659
 9638SOL     OW29812   6.772   4.671   6.925 -0.1741 -0.1933 -0.2569
 9638SOL    HW129813   6.713   4.624   6.991 -0.0532 -0.2527 -0.1910
 9638SOL    HW229814   6.866   4.670   6.958 -0.4013  1.4831  0.5286
 9639SOL     OW29815   4.222   1.703   2.158  0.2492 -0.0969  0.0046
 9639SOL    HW129816   4.173   1.616   2.161  0.7277 -0.4072 -0.7829
 9639SOL    HW229817   4.159   1.776   2.133  0.4333 -0.7380 -2.7130
 9640SOL     OW29818   2.163   2.141   2.974 -0.3529  0.5859  0.0105
 9640SOL    HW129819   2.222   2.145   3.055 -1.5846 -2.2070  1.1671
 9640SOL    HW229820   2.214   2.103   2.897 -0.1947 -0.3717  0.5727
 9641SOL     OW29821   3.672   5.365   1.474 -0.0320  0.6734 -0.4284
 9641SOL    HW129822   3.592   5.308   1.454  0.0537  0.1511  0.6805
 9641SOL    HW229823   3.749   5.335   1.418  0.1677 -0.6815  0.5377
 9642SOL     OW29824   3.852   6.452   4.812 -0.0375 -0.1203 -0.4059
 9642SOL    HW129825   3.783   6.516   4.777 -0.5243 -0.2727  0.2478
 9642SOL    HW229826   3.894   6.490   4.894 -0.1376 -0.5106 -0.1696
 9643SOL     OW29827   4.833   4.806   4.595  0.4073  0.0054  0.7102
 9643SOL    HW129828   4.858   4.902   4.590  0.6407 -0.0886 -0.0569
 9643SOL    HW229829   4.751   4.796   4.651  0.1049  0.7039  0.4026
 9644SOL     OW29830   1.379   3.626   5.667  0.1296 -0.0321 -0.5068
 9644SOL    HW129831   1.305   3.665   5.722  0.7044 -0.3019  0.4870
 9644SOL    HW229832   1.455   3.600   5.727 -0.0269 -2.2156 -1.1815
 9645SOL     OW29833   4.985   5.262   2.631  0.4151  0.2986 -0.2848
 9645SOL    HW129834   5.045   5.189   2.664  0.7869  0.0974 -1.3672
 9645SOL    HW229835   4.926   5.226   2.558  0.1386  0.9150 -0.3727
 9646SOL     OW29836   3.179   4.965   2.880 -0.3536  0.4903 -0.1424
 9646SOL    HW129837   3.263   4.982   2.828 -1.5548  1.0775 -2.0171
 9646SOL    HW229838   3.128   4.891   2.836 -0.2344 -0.7683  1.7470
 9647SOL     OW29839   5.280   4.811   2.797 -0.3729  0.5648  0.0042
 9647SOL    HW129840   5.210   4.876   2.767  0.2004  0.4069 -1.8114
 9647SOL    HW229841   5.341   4.790   2.721  2.5090  1.6993  1.8229
 9648SOL     OW29842   3.844   1.807   5.982  0.1050 -0.0886  0.4621
 9648SOL    HW129843   3.785   1.838   6.057 -0.7096  2.5805 -1.1400
 9648SOL    HW229844   3.795   1.742   5.925 -0.9716  1.2775 -0.2269
 9649SOL     OW29845   2.977   4.587   0.298 -0.5221 -0.5897 -0.1098
 9649SOL    HW129846   2.908   4.659   0.296 -0.6795 -0.7256 -2.6915
 9649SOL    HW229847   3.061   4.620   0.256 -0.3175 -1.6372 -0.5500
 9650SOL     OW29848   4.537   6.425   3.010  0.0360 -0.4194  0.8161
 9650SOL    HW129849   4.522   6.523   2.993  0.6428  0.0208  2.5711
 9650SOL    HW229850   4.582   6.384   2.930  0.5625  0.9269  0.3913
 9651SOL     OW29851   5.921   0.322   6.147 -0.0518 -0.3452 -0.4843
 9651SOL    HW129852   5.948   0.408   6.103  0.9824 -0.9209 -0.9955
 9651SOL    HW229853   5.837   0.337   6.199 -1.6808  0.2486 -3.0814
 9652SOL     OW29854   0.692   4.814   6.866  0.9875 -0.3560  0.0175
 9652SOL    HW129855   0.756   4.742   6.839  2.9911  1.5362 -0.5135
 9652SOL    HW229856   0.723   4.857   6.951 -0.2731 -0.2244  0.4267
 9653SOL     OW29857   3.979   4.568   5.417 -0.8491 -0.5069  0.0154
 9653SOL    HW129858   3.927   4.483   5.403 -1.8525 -0.0346  0.7155
 9653SOL    HW229859   3.918   4.638   5.454 -0.4166  0.9968 -1.9294
 9654SOL     OW29860   3.558   3.853   1.941  0.5067 -0.9956 -0.6445
 9654SOL    HW129861   3.623   3.873   2.014  0.0497  2.0051 -0.9536
 9654SOL    HW229862   3.591   3.773   1.889  2.5304 -1.1827  0.8005
 9655SOL     OW29863   1.171   1.828   5.812 -0.1256 -0.0727  0.2904
 9655SOL    HW129864   1.079   1.844   5.849 -0.1437  0.5044  0.0182
 9655SOL    HW229865   1.227   1.780   5.879 -0.3771  0.3108  0.7773
 9656SOL     OW29866   4.610   4.958   0.058  0.0808  0.3034 -0.1401
 9656SOL    HW129867   4.568   4.958  -0.032 -0.1155  2.0126 -0.0804
 9656SOL    HW229868   4.540   4.975   0.128  0.2798 -0.7092  0.3299
 9657SOL     OW29869   0.239   1.656   3.338 -0.0243  0.9963 -0.7462
 9657SOL    HW129870   0.160   1.717   3.349 -0.8660 -0.2271  0.3714
 9657SOL    HW229871   0.260   1.613   3.426 -0.6518 -1.7076 -1.8249
 9658SOL     OW29872   5.529   2.699   5.070  0.2327  0.0211  0.5991
 9658SOL    HW129873   5.577   2.619   5.105  0.0798  0.6364  2.3223
 9658SOL    HW229874   5.565   2.781   5.114 -0.6917  0.7431  0.0475
 9659SOL     OW29875   6.494   5.690   1.082 -0.1918  0.4166 -0.2361
 9659SOL    HW129876   6.434   5.762   1.048 -0.9861  0.0616  0.3961
 9659SOL    HW229877   6.439   5.613   1.113  0.3665  1.3271  3.3919
 9660SOL     OW29878   5.744   0.247   2.481  0.1140 -0.3741 -0.0106
 9660SOL    HW129879   5.650   0.256   2.448 -0.6239 -0.9892  1.7853
 9660SOL    HW229880   5.796   0.329   2.458 -1.5408  1.0212  0.9879
 9661SOL     OW29881   4.068   6.741   1.232 -0.1818 -0.0631  0.0079
 9661SOL    HW129882   4.027   6.801   1.162 -1.6161 -0.8707  0.1267
 9661SOL    HW229883   4.130   6.795   1.289  1.5603  0.5169 -2.2359
 9662SOL     OW29884   6.010   2.288   4.501 -0.2336 -0.3898 -0.2419
 9662SOL    HW129885   6.029   2.329   4.412  2.9430  1.2669  1.0459
 9662SOL    HW229886   5.924   2.236   4.496 -0.3102 -0.1989 -4.1369
 9663SOL     OW29887   2.305   6.091   3.664 -0.2025  0.2598  0.4364
 9663SOL    HW129888   2.253   6.170   3.696  0.6121  0.8433  0.3530
 9663SOL    HW229889   2.402   6.115   3.656  0.0872 -0.7924  0.5525
 9664SOL     OW29890   5.265   4.321   4.685  0.4532 -0.0247 -0.6378
 9664SOL    HW129891   5.205   4.304   4.763  1.0612 -0.2058 -0.2076
 9664SOL    HW229892   5.221   4.287   4.601  0.5341 -1.4024 -0.1442
 9665SOL     OW29893   4.657   0.259   6.854  0.1841 -0.0375  0.0151
 9665SOL    HW129894   4.613   0.278   6.943  0.5096 -0.8110  0.3511
 9665SOL    HW229895   4.756   0.257   6.866  0.1927 -1.1328 -0.1577
 9666SOL     OW29896   3.613   3.373   1.819  0.4035 -0.4983  0.8259
 9666SOL    HW129897   3.678   3.428   1.765 -0.0305 -0.8886 -0.1071
 9666SOL    HW229898   3.663   3.303   1.869  0.5535 -2.4372 -1.8227
 9667SOL     OW29899   3.916   3.178   3.013  0.0707 -0.8088 -0.2095
 9667SOL    HW129900   3.981   3.241   3.055 -1.7263  0.9877  0.0448
 9667SOL    HW229901   3.847   3.152   3.081 -0.8629 -0.7078 -1.1008
 9668SOL     OW29902   0.201   1.823   6.065 -0.2575 -0.2326 -0.1832
 9668SOL    HW129903   0.279   1.861   6.017 -1.2975  0.5613 -1.2947
 9668SOL    HW229904   0.232   1.777   6.149  1.3651  0.1025 -0.5786
 9669SOL     OW29905   2.092   6.287   2.374  0.3613 -0.5141 -0.4318
 9669SOL    HW129906   2.188   6.304   2.395  0.7098  0.7396 -2.7637
 9669SOL    HW229907   2.035   6.336   2.441  1.3838  1.6343 -1.0330
 9670SOL     OW29908   3.694   4.719   6.641  0.1848 -0.1063  0.0169
 9670SOL    HW129909   3.769   4.655   6.656 -2.0763 -2.1529  4.3782
 9670SOL    HW229910   3.704   4.797   6.702 -1.0195 -0.2681  0.4548
 9671SOL     OW29911   0.108   5.708   4.853 -0.1957 -0.5970 -0.6376
 9671SOL    HW129912   0.142   5.621   4.888  0.3202  0.2236  1.0483
 9671SOL    HW229913   0.018   5.695   4.812 -0.3384 -1.8551  0.0254
 9672SOL     OW29914   1.000   5.491   5.248  0.0035  0.2426  0.2696
 9672SOL    HW129915   1.037   5.467   5.158  0.9221  1.4561  0.2954
 9672SOL    HW229916   1.031   5.424   5.315  2.1932  1.1672  0.2762
 9673SOL     OW29917   6.659   2.971   5.523 -0.2928  0.2105 -0.1103
 9673SOL    HW129918   6.746   2.963   5.474 -0.6313  0.7257 -0.8170
 9673SOL    HW229919   6.651   3.063   5.561  0.0061 -0.2133  1.0026
 9674SOL     OW29920   3.057   5.371   4.640 -0.2208  0.1307 -0.0416
 9674SOL    HW129921   3.155   5.387   4.636 -0.2954  0.5968  0.0179
 9674SOL    HW229922   3.029   5.358   4.735 -0.2765  0.3493 -0.0294
 9675SOL     OW29923   5.847   3.105   0.877 -0.2682 -0.5376  0.4508
 9675SOL    HW129924   5.816   3.099   0.972  0.1823  0.0717  0.6433
 9675SOL    HW229925   5.930   3.050   0.866  0.3313  0.3006  0.6975
 9676SOL     OW29926   1.474   4.305   4.679 -0.2114  0.2609 -0.4120
 9676SOL    HW129927   1.573   4.294   4.680 -0.3364 -1.0407  0.3067
 9676SOL    HW229928   1.440   4.292   4.586  0.0882 -1.7901 -0.2904
 9677SOL     OW29929   3.125   4.639   5.295  0.0491  0.0449  0.6621
 9677SOL    HW129930   3.041   4.603   5.255 -0.5664 -0.3928  2.2661
 9677SOL    HW229931   3.192   4.566   5.305  0.5959  0.3608 -0.4609
 9678SOL     OW29932   3.737   3.687   2.746 -0.0560  0.4502  0.2545
 9678SOL    HW129933   3.665   3.679   2.677 -0.6024 -0.5150  0.9140
 9678SOL    HW229934   3.811   3.623   2.724 -0.5477 -0.3699  0.9159
 9679SOL     OW29935   1.543   2.683   0.927  0.1554 -0.3978 -0.0197
 9679SOL    HW129936   1.557   2.584   0.929 -0.2202 -0.4641 -0.5172
 9679SOL    HW229937   1.571   2.719   0.838 -1.2796 -0.3072 -0.4529
 9680SOL     OW29938   5.927   0.789   3.201  0.0785  0.0730  0.2143
 9680SOL    HW129939   5.923   0.778   3.301  1.9513 -0.7786  0.2320
 9680SOL    HW229940   6.015   0.826   3.175  0.8284 -2.4966 -1.2993
 9681SOL     OW29941   4.116   1.504   0.201 -0.4063  0.6128 -0.5233
 9681SOL    HW129942   4.094   1.408   0.185 -2.5185  0.6929  1.2709
 9681SOL    HW229943   4.188   1.534   0.138  2.0926 -2.7621  0.4407
 9682SOL     OW29944   6.027   4.853   3.167  0.6730  0.0279 -0.1483
 9682SOL    HW129945   5.950   4.889   3.114  0.1825  2.6595  2.1105
 9682SOL    HW229946   6.056   4.766   3.128 -1.9913 -0.0006 -2.4261
 9683SOL     OW29947   3.123   4.987   1.155 -0.4552 -0.1278  0.1054
 9683SOL    HW129948   3.036   5.014   1.114  0.2631  2.2398 -0.0113
 9683SOL    HW229949   3.106   4.921   1.229 -2.1690 -0.8881 -0.8988
 9684SOL     OW29950   0.388   2.055   5.743  0.5131  0.3942  0.0321
 9684SOL    HW129951   0.470   2.077   5.690  1.4537 -0.9162  0.8851
 9684SOL    HW229952   0.402   1.969   5.791 -1.4975 -0.0237 -0.0461
 9685SOL     OW29953   0.521   3.971   1.460  0.4372 -0.0612 -0.3469
 9685SOL    HW129954   0.518   4.068   1.436  0.1111  1.1153  3.6916
 9685SOL    HW229955   0.595   3.956   1.526  1.2859 -2.8843 -1.7908
 9686SOL     OW29956   6.832   2.163   0.504 -0.6056 -0.1774  0.0352
 9686SOL    HW129957   6.859   2.244   0.555 -0.2114 -0.2785 -0.0085
 9686SOL    HW229958   6.794   2.095   0.567  2.7000 -1.5521  0.7592
 9687SOL     OW29959   1.166   3.208   4.394 -0.7289 -0.1535  0.0412
 9687SOL    HW129960   1.223   3.244   4.320  2.0366  2.1508  3.0218
 9687SOL    HW229961   1.172   3.108   4.394  0.1079 -0.1724 -2.0737
 9688SOL     OW29962   5.378   2.534   2.775 -0.1807 -0.0111  0.1749
 9688SOL    HW129963   5.472   2.501   2.786 -0.3037 -0.6691 -0.6375
 9688SOL    HW229964   5.343   2.506   2.686 -0.7012  1.3665 -0.0829
 9689SOL     OW29965   1.333   4.765   6.083  1.0216  0.6369 -0.4102
 9689SOL    HW129966   1.309   4.849   6.132  2.8821  0.4846  0.8642
 9689SOL    HW229967   1.345   4.786   5.986 -1.8767  1.1097 -0.7546
 9690SOL     OW29968   5.249   5.929   1.131  0.0788  0.4235 -0.1831
 9690SOL    HW129969   5.286   5.987   1.204  1.9482 -1.5733  0.5817
 9690SOL    HW229970   5.149   5.925   1.139  0.0825  1.8090  1.0359
 9691SOL     OW29971   1.935   6.836   2.310 -0.0624 -0.2536 -0.4188
 9691SOL    HW129972   1.900   6.877   2.394  0.6260  0.4732 -0.4818
 9691SOL    HW229973   1.969   6.908   2.250 -0.9030 -0.7255 -1.4978
 9692SOL     OW29974   4.314   4.958   3.886 -0.7458 -0.0741  0.2182
 9692SOL    HW129975   4.249   5.008   3.943  1.3051  0.1719  2.5050
 9692SOL    HW229976   4.343   4.875   3.932  0.3941 -0.2892 -0.8239
 9693SOL     OW29977   4.512   5.696   2.231  0.6504 -0.2735  0.1527
 9693SOL    HW129978   4.462   5.778   2.203  1.7335  0.8673  1.4331
 9693SOL    HW229979   4.540   5.645   2.149 -0.4940  0.3177 -0.6471
 9694SOL     OW29980   3.602   0.622   5.871  0.1408  0.3055  0.2465
 9694SOL    HW129981   3.564   0.532   5.849  0.4704 -0.2912  1.9215
 9694SOL    HW229982   3.529   0.682   5.903 -0.3306  1.1594 -2.2309
 9695SOL     OW29983   0.481   4.711   1.543 -0.4452 -1.3100 -0.0742
 9695SOL    HW129984   0.457   4.686   1.636 -1.4704 -0.9097 -0.2093
 9695SOL    HW229985   0.524   4.801   1.542 -1.3444 -0.8642 -0.0647
 9696SOL     OW29986   3.520   4.138   1.595  0.1342  0.3491  0.4681
 9696SOL    HW129987   3.488   4.113   1.687 -0.1662  3.1517  1.2176
 9696SOL    HW229988   3.444   4.130   1.531 -0.0651 -0.1159  0.7514
 9697SOL     OW29989   1.226   6.019   5.435 -0.0113 -0.0024 -0.3273
 9697SOL    HW129990   1.203   6.101   5.488  2.2564 -0.2818  1.2499
 9697SOL    HW229991   1.167   5.944   5.463 -0.9671  0.6467 -0.5441
 9698SOL     OW29992   5.382   2.916   5.661  0.2446  0.3461 -0.2045
 9698SOL    HW129993   5.353   2.967   5.580 -2.0689 -0.8516 -0.2239
 9698SOL    HW229994   5.367   2.971   5.742  1.2979  1.0570 -0.4829
 9699SOL     OW29995   1.589   5.032   6.213  0.3230 -0.6165 -0.2571
 9699SOL    HW129996   1.677   4.997   6.243  0.6398  0.3463 -0.0304
 9699SOL    HW229997   1.517   5.000   6.275  0.5242 -1.2998 -0.3717
 9700SOL     OW29998   3.343   4.876   3.717  0.0435 -0.0489  0.2762
 9700SOL    HW129999   3.319   4.836   3.806 -0.5793 -1.3947 -0.4633
 9700SOL    HW230000   3.442   4.875   3.706  0.0855 -0.6016  0.6413
 9701SOL     OW30001   1.666   4.624   4.674  0.4973  0.1947  0.1517
 9701SOL    HW130002   1.599   4.673   4.731  0.5456 -0.1084  0.4740
 9701SOL    HW230003   1.618   4.564   4.610  0.3425  2.1695 -1.6909
 9702SOL     OW30004   5.325   1.055   6.071  0.7729  0.5581 -0.8659
 9702SOL    HW130005   5.282   1.126   6.015  0.3072 -0.1468 -1.4133
 9702SOL    HW230006   5.263   1.030   6.146  0.1300 -0.5774 -1.7523
 9703SOL     OW30007   5.622   4.102   6.073 -0.6295 -0.1791 -0.1725
 9703SOL    HW130008   5.627   4.163   6.151  1.1407 -0.5084 -0.0039
 9703SOL    HW230009   5.534   4.114   6.027 -1.1616  0.9437  1.0909
 9704SOL     OW30010   3.328   2.132   2.823 -0.1236 -0.2140 -0.7354
 9704SOL    HW130011   3.252   2.124   2.759  0.3457  3.5963 -2.0354
 9704SOL    HW230012   3.414   2.132   2.772  0.4616  0.0240  0.2266
 9705SOL     OW30013   4.470   5.388   0.152  0.2746  0.1599  0.6008
 9705SOL    HW130014   4.436   5.481   0.138  1.4042  0.8434  2.1389
 9705SOL    HW230015   4.507   5.353   0.066 -3.2136 -0.2375 -0.8884
 9706SOL     OW30016   0.759   1.067   2.371 -0.1338 -0.3837 -0.3155
 9706SOL    HW130017   0.809   0.986   2.401 -0.7851 -0.7213 -0.1197
 9706SOL    HW230018   0.764   1.073   2.271 -2.0008 -1.9949 -0.5759
 9707SOL     OW30019   6.052   3.623   1.894 -0.2665 -0.9321 -0.8934
 9707SOL    HW130020   6.001   3.660   1.817 -0.5501 -1.5265 -0.9934
 9707SOL    HW230021   5.993   3.617   1.974  0.6966  2.2492  0.1985
 9708SOL     OW30022   2.392   2.499   1.885  0.7722  0.4504  0.3750
 9708SOL    HW130023   2.486   2.470   1.872  0.3442 -0.9844  0.3770
 9708SOL    HW230024   2.331   2.420   1.879 -0.3026  1.1316  1.7773
 9709SOL     OW30025   4.800   5.536   1.475  0.2338 -0.3978  0.0886
 9709SOL    HW130026   4.802   5.501   1.569  0.1116  0.0035  0.2438
 9709SOL    HW230027   4.787   5.460   1.411 -0.1589 -0.6195  0.4294
 9710SOL     OW30028   0.965   6.363   2.752 -0.6644 -0.2069  0.2533
 9710SOL    HW130029   0.882   6.419   2.751 -1.1000 -0.7970 -1.7665
 9710SOL    HW230030   0.948   6.277   2.703  0.6867 -1.0464  1.1998
 9711SOL     OW30031   1.744   4.474   6.661 -0.1267 -0.1222  0.2934
 9711SOL    HW130032   1.774   4.530   6.584  0.2677  0.1662  0.6501
 9711SOL    HW230033   1.741   4.530   6.744 -0.8729 -0.3475  0.4283
 9712SOL     OW30034   5.069   5.297   0.585  0.0822 -0.0718 -0.0813
 9712SOL    HW130035   5.133   5.255   0.521 -0.4437 -0.0011 -0.6678
 9712SOL    HW230036   5.065   5.243   0.669  0.9536 -0.0383 -0.0144
 9713SOL     OW30037   2.244   4.044   2.529  0.1254  0.5941  0.2054
 9713SOL    HW130038   2.161   3.992   2.546  0.3336 -0.2702 -1.2137
 9713SOL    HW230039   2.300   4.046   2.611  0.8911 -2.9262 -0.0624
 9714SOL     OW30040   2.950   2.341   1.612  0.6535 -0.4096 -0.5311
 9714SOL    HW130041   2.974   2.346   1.709 -1.8116  0.8239  0.0982
 9714SOL    HW230042   2.977   2.426   1.566 -0.6197  0.1650 -0.2603
 9715SOL     OW30043   4.490   5.684   0.079 -0.8624  0.1424  0.4098
 9715SOL    HW130044   4.406   5.722   0.038 -1.2147  0.9223  1.7640
 9715SOL    HW230045   4.569   5.714   0.026 -1.2909  1.2344  0.3495
 9716SOL     OW30046   3.504   1.850   6.559  0.6249 -0.0992 -0.0767
 9716SOL    HW130047   3.531   1.762   6.598 -0.1610  0.2905  1.3963
 9716SOL    HW230048   3.516   1.922   6.627 -1.4480  0.4937 -0.2785
 9717SOL     OW30049   5.825   6.399   0.143  0.2033 -0.0433 -0.4799
 9717SOL    HW130050   5.850   6.487   0.102  1.1688  0.3374  0.8519
 9717SOL    HW230051   5.789   6.415   0.235  0.6155 -1.0554 -0.1331
 9718SOL     OW30052   5.403   3.669   1.165 -0.4142 -0.3011 -0.7794
 9718SOL    HW130053   5.312   3.710   1.178  0.3030  0.9695  0.5702
 9718SOL    HW230054   5.412   3.587   1.222 -0.1640  0.5321  0.4195
 9719SOL     OW30055   0.259   2.154   6.759 -0.0724  0.2934 -0.1101
 9719SOL    HW130056   0.271   2.170   6.857 -0.5040  0.4072 -0.0722
 9719SOL    HW230057   0.171   2.109   6.744  0.6340 -1.0494 -0.3145
 9720SOL     OW30058   0.605   5.544   0.342  0.1847  0.5263 -0.1399
 9720SOL    HW130059   0.565   5.634   0.324 -0.1299  0.4598  0.2205
 9720SOL    HW230060   0.677   5.553   0.411  0.7046  0.6210 -0.6783
 9721SOL     OW30061   6.694   2.273   0.295  0.0636  0.7228 -0.0372
 9721SOL    HW130062   6.739   2.225   0.370 -1.2076 -1.3447 -0.5248
 9721SOL    HW230063   6.758   2.286   0.220  0.5763  0.2884  0.3235
 9722SOL     OW30064   1.816   1.166   5.388  0.3353 -0.7332 -0.6700
 9722SOL    HW130065   1.867   1.251   5.398  2.7714 -2.3723  2.7428
 9722SOL    HW230066   1.879   1.093   5.359 -1.3079 -1.7767 -1.7580
 9723SOL     OW30067   0.709   5.842   3.448  0.3319  0.4320 -0.2239
 9723SOL    HW130068   0.669   5.806   3.532  0.2592 -1.9263 -1.2129
 9723SOL    HW230069   0.642   5.836   3.374  0.8925  1.1091 -0.8049
 9724SOL     OW30070   0.632   2.765   1.213  0.2494 -0.4334 -0.3274
 9724SOL    HW130071   0.588   2.678   1.232 -1.4985  0.7402  1.3857
 9724SOL    HW230072   0.563   2.834   1.191  1.4948  0.7531 -0.7271
 9725SOL     OW30073   4.054   3.991   1.162 -0.0827  0.4426 -0.7260
 9725SOL    HW130074   4.044   3.998   1.262  0.6106  0.9561 -0.6777
 9725SOL    HW230075   3.982   3.933   1.125  0.4483 -0.8821  0.2384
 9726SOL     OW30076   5.231   0.149   4.948  0.0939  0.0576  0.3884
 9726SOL    HW130077   5.253   0.099   4.864  0.1742  0.6695  0.0438
 9726SOL    HW230078   5.142   0.194   4.938  1.7901  3.4251 -0.9262
 9727SOL     OW30079   6.778   2.673   5.075 -0.3510 -0.3261 -0.8251
 9727SOL    HW130080   6.774   2.756   5.020 -1.0554 -0.8006 -1.5190
 9727SOL    HW230081   6.867   2.667   5.120  0.4254 -0.1270 -2.2568
 9728SOL     OW30082   6.463   0.886   5.988 -0.4921 -0.9244  0.1101
 9728SOL    HW130083   6.429   0.795   5.965 -0.4450 -0.3871 -2.4459
 9728SOL    HW230084   6.563   0.887   5.984 -0.4979 -0.2193 -2.8676
 9729SOL     OW30085   6.446   4.103   3.813 -0.0771 -0.1978 -0.4916
 9729SOL    HW130086   6.534   4.111   3.765  0.4352  1.6308  0.6486
 9729SOL    HW230087   6.463   4.075   3.907 -0.4631  2.0635  0.3183
 9730SOL     OW30088   2.111   3.082   2.655  0.2556 -0.6321 -0.2031
 9730SOL    HW130089   2.169   3.121   2.727 -1.0863  0.5479  0.2794
 9730SOL    HW230090   2.020   3.063   2.691 -0.6633  0.6149 -1.7140
 9731SOL     OW30091   5.411   2.935   0.342  0.3985  0.6890  0.2709
 9731SOL    HW130092   5.447   2.973   0.427 -0.2710  1.6320  0.1393
 9731SOL    HW230093   5.321   2.973   0.323 -0.6160 -1.4456  0.4659
 9732SOL     OW30094   5.497   4.456   4.757 -0.6372 -0.1821  1.1554
 9732SOL    HW130095   5.413   4.433   4.708 -0.7709  1.3749  0.6169
 9732SOL    HW230096   5.500   4.404   4.842 -3.8599  2.1262  2.9076
 9733SOL     OW30097   4.572   5.273   1.427 -0.5264 -0.6764  0.0592
 9733SOL    HW130098   4.583   5.177   1.451 -2.3855 -1.2406 -1.0464
 9733SOL    HW230099   4.653   5.305   1.379  0.1140 -1.6907  0.4260
 9734SOL     OW30100   6.787   1.959   3.816 -0.2778  0.2898  0.4607
 9734SOL    HW130101   6.701   1.962   3.766  1.1700 -0.2996 -2.2191
 9734SOL    HW230102   6.852   2.022   3.776  1.2802 -0.9314  0.9447
 9735SOL     OW30103   1.934   4.239   1.705 -0.3473 -0.5822  0.5904
 9735SOL    HW130104   1.960   4.196   1.619 -1.9569 -0.6256  0.0952
 9735SOL    HW230105   1.973   4.331   1.709 -0.6692 -0.3901 -0.4238
 9736SOL     OW30106   4.550   2.927   5.947 -0.8038  0.4401  0.0377
 9736SOL    HW130107   4.589   2.990   6.014 -0.9381  1.3415 -0.7199
 9736SOL    HW230108   4.506   2.979   5.874  0.9221 -0.4664 -1.7287
 9737SOL     OW30109   0.649   3.365   3.906 -0.0645  0.3004 -0.0018
 9737SOL    HW130110   0.612   3.299   3.840  0.3808 -0.9766  0.9734
 9737SOL    HW230111   0.710   3.429   3.859  1.5075 -1.5621 -0.6099
 9738SOL     OW30112   2.524   0.703   2.768 -0.4348 -0.2765 -0.0508
 9738SOL    HW130113   2.476   0.762   2.702  0.3730  0.5653  0.0906
 9738SOL    HW230114   2.483   0.715   2.858  0.9169  1.5639  0.3725
 9739SOL     OW30115   5.514   4.964   3.666 -0.3445 -0.1163 -0.1308
 9739SOL    HW130116   5.432   4.946   3.613  0.4284  2.1921 -2.3574
 9739SOL    HW230117   5.512   5.059   3.699  1.1405 -0.2137  0.3180
 9740SOL     OW30118   5.921   2.997   4.985  0.1163  0.0754  0.1102
 9740SOL    HW130119   5.985   3.044   4.925  1.4787 -3.0473 -1.1096
 9740SOL    HW230120   5.969   2.967   5.068 -0.2280 -0.7068  0.0333
 9741SOL     OW30121   4.597   2.232   3.565 -0.0625 -0.1666 -0.1144
 9741SOL    HW130122   4.516   2.288   3.546 -0.2079 -0.5223 -0.5428
 9741SOL    HW230123   4.657   2.282   3.628  0.6416  1.2388 -1.7980
 9742SOL     OW30124   3.021   1.334   1.541 -0.2642  0.2203  0.0353
 9742SOL    HW130125   3.080   1.325   1.621 -0.9849  3.1733  1.0001
 9742SOL    HW230126   2.926   1.316   1.567 -0.6645  2.3687  0.2029
 9743SOL     OW30127   2.157   3.159   4.651 -0.1049  0.2920  0.2915
 9743SOL    HW130128   2.073   3.109   4.630  1.1157 -0.8531 -2.2886
 9743SOL    HW230129   2.233   3.120   4.600  1.8278  1.9746  1.7171
 9744SOL     OW30130   1.300   6.599   3.096  0.3534  0.0179 -0.0019
 9744SOL    HW130131   1.242   6.526   3.063  0.9428 -1.0555  1.2500
 9744SOL    HW230132   1.364   6.626   3.024 -1.1266  0.6802 -1.1234
 9745SOL     OW30133   1.232   3.050   6.272 -0.1327 -0.2391  0.0832
 9745SOL    HW130134   1.141   3.054   6.230  0.1634  1.7690 -0.4718
 9745SOL    HW230135   1.302   3.057   6.201  0.4595 -1.0661  0.5687
 9746SOL     OW30136   6.016   6.946   3.845 -0.3804  0.7942 -0.2976
 9746SOL    HW130137   5.942   6.999   3.804 -0.8726 -0.0261 -0.4882
 9746SOL    HW230138   6.048   6.993   3.928  0.0790  2.0434 -1.1595
 9747SOL     OW30139   4.232   6.837   3.923 -0.3133  0.0998 -0.1428
 9747SOL    HW130140   4.219   6.859   3.827  0.2319 -0.5185 -0.3586
 9747SOL    HW230141   4.306   6.893   3.961 -0.4361  0.2435 -0.1129
 9748SOL     OW30142   1.818   7.011   3.310 -0.2299  0.2138 -0.6159
 9748SOL    HW130143   1.834   7.019   3.408 -1.9436 -0.0062 -0.3034
 9748SOL    HW230144   1.906   7.021   3.262  0.6320  0.3408  0.9102
 9749SOL     OW30145   2.590   6.775   3.453 -0.8440  0.3200 -0.3286
 9749SOL    HW130146   2.511   6.750   3.396 -0.0972 -0.0913 -1.2029
 9749SOL    HW230147   2.640   6.850   3.410 -0.7838  0.6353  0.2674
 9750SOL     OW30148   4.697   4.382   2.908  0.1151  0.6628  0.8562
 9750SOL    HW130149   4.610   4.395   2.955  0.6769  2.7789  1.4533
 9750SOL    HW230150   4.682   4.336   2.821 -1.7332  1.7452  0.5473
 9751SOL     OW30151   0.804   0.784   0.467  0.1786 -0.5781 -0.1121
 9751SOL    HW130152   0.797   0.715   0.539 -1.0542 -0.1321  0.2238
 9751SOL    HW230153   0.800   0.875   0.507 -0.2180 -0.3266 -0.7054
 9752SOL     OW30154   5.171   1.682   0.066  0.1631 -0.1646 -0.5107
 9752SOL    HW130155   5.220   1.769   0.067 -0.0697  0.0083 -1.7908
 9752SOL    HW230156   5.076   1.698   0.093  0.3365 -0.1689  0.0990
 9753SOL     OW30157   5.530   5.539   5.064 -0.2155  0.0944  0.2540
 9753SOL    HW130158   5.587   5.555   5.144  0.7067  1.6236 -0.6622
 9753SOL    HW230159   5.585   5.498   4.991 -0.8036 -0.3824  0.0715
 9754SOL     OW30160   1.148   2.212   5.399 -0.1197 -0.1983 -0.1240
 9754SOL    HW130161   1.238   2.220   5.440 -0.4713  0.2255  0.5810
 9754SOL    HW230162   1.080   2.190   5.469 -0.4746 -1.1889 -0.7442
 9755SOL     OW30163   3.195   3.761   4.590  0.0476 -0.8783 -0.1100
 9755SOL    HW130164   3.134   3.686   4.564  0.9587 -1.3356 -0.9897
 9755SOL    HW230165   3.267   3.726   4.650 -0.7047 -0.2750  1.1923
 9756SOL     OW30166   5.857   3.900   0.993  0.9773  0.2143  0.4244
 9756SOL    HW130167   5.803   3.826   1.033  2.7934 -0.2632  2.1417
 9756SOL    HW230168   5.854   3.893   0.894  0.7548 -1.9286  0.5308
 9757SOL     OW30169   5.061   4.651   4.661 -0.0374  0.3726 -0.5144
 9757SOL    HW130170   5.053   4.574   4.725  1.2081  0.5463 -0.1217
 9757SOL    HW230171   4.970   4.691   4.645 -0.7454 -1.3189 -0.9302
 9758SOL     OW30172   1.564   1.609   6.649 -0.0397  0.0135 -0.2943
 9758SOL    HW130173   1.657   1.622   6.615 -0.0779  1.1756  0.0146
 9758SOL    HW230174   1.549   1.666   6.729 -1.2037  0.2755 -0.6811
 9759SOL     OW30175   0.270   0.133   6.880 -0.1999  0.1452  0.6781
 9759SOL    HW130176   0.258   0.039   6.847 -0.4449  1.1488 -2.4638
 9759SOL    HW230177   0.344   0.176   6.828 -0.2874  1.7930  1.8634
 9760SOL     OW30178   4.327   3.848   5.590 -0.0576 -0.0383 -0.0349
 9760SOL    HW130179   4.310   3.860   5.492  0.3219 -0.7270 -0.1970
 9760SOL    HW230180   4.325   3.751   5.612  1.1129  0.0183  0.3971
 9761SOL     OW30181   5.969   1.319   1.421 -0.7200 -1.0808 -0.2381
 9761SOL    HW130182   5.911   1.376   1.479 -0.5688 -1.5113  0.3414
 9761SOL    HW230183   6.038   1.273   1.478  2.8702  2.4528 -1.1846
 9762SOL     OW30184   1.277   2.730   5.298 -0.2703  0.1037  0.3443
 9762SOL    HW130185   1.264   2.830   5.294 -0.7823  0.0420  0.3914
 9762SOL    HW230186   1.365   2.707   5.258  0.0431  0.6188  0.7163
 9763SOL     OW30187   5.377   0.737   0.302 -0.1122  0.3503  0.5358
 9763SOL    HW130188   5.383   0.658   0.363  0.9447 -0.7357 -0.9038
 9763SOL    HW230189   5.382   0.821   0.355  1.5972 -0.5504  1.8799
 9764SOL     OW30190   0.386   2.320   4.921 -0.2084  0.1787  0.4055
 9764SOL    HW130191   0.368   2.366   5.008  0.1588  0.4863  0.3216
 9764SOL    HW230192   0.415   2.388   4.853  0.1084 -0.1466  0.2142
 9765SOL     OW30193   0.286   3.451   4.160  0.2832 -0.5373 -0.1020
 9765SOL    HW130194   0.384   3.440   4.175  0.5586 -0.2557 -1.5295
 9765SOL    HW230195   0.266   3.440   4.063 -1.2292 -1.4234  0.2813
 9766SOL     OW30196   3.336   0.649   5.283 -0.2410 -0.3344 -0.2267
 9766SOL    HW130197   3.335   0.745   5.310  0.2679 -0.5039  0.4254
 9766SOL    HW230198   3.290   0.639   5.195  1.1806  0.7654 -1.1385
 9767SOL     OW30199   5.383   2.698   4.059 -0.0046 -0.7154 -0.0438
 9767SOL    HW130200   5.421   2.739   3.975 -0.1336 -1.0822 -0.2829
 9767SOL    HW230201   5.404   2.757   4.137 -0.8465  0.1857 -0.4912
 9768SOL     OW30202   4.572   2.456   2.525  0.3785 -0.1119 -0.3859
 9768SOL    HW130203   4.630   2.532   2.497  0.6879 -0.7566 -1.5116
 9768SOL    HW230204   4.530   2.478   2.613  0.4154  1.3851 -0.7185
 9769SOL     OW30205   2.137   0.227   2.147  0.3880  0.1770 -0.2114
 9769SOL    HW130206   2.067   0.294   2.170  0.3643 -0.1113  0.5803
 9769SOL    HW230207   2.220   0.245   2.198  0.3640 -0.4204  0.0531
 9770SOL     OW30208   0.138   6.723   1.394 -0.0699 -0.0555  0.0212
 9770SOL    HW130209   0.153   6.772   1.308  2.7196  3.1644  2.0976
 9770SOL    HW230210   0.063   6.767   1.444  1.2872  1.1017  1.1205
 9771SOL     OW30211   4.561   5.147   1.731 -0.2853  0.1154  0.2385
 9771SOL    HW130212   4.479   5.191   1.694 -0.3294 -1.1235 -1.2325
 9771SOL    HW230213   4.536   5.094   1.812 -0.6487  0.9047  0.6587
 9772SOL     OW30214   1.339   5.933   3.125  0.3295  0.5128 -0.3168
 9772SOL    HW130215   1.362   5.962   3.218 -1.9221  0.9597  0.1582
 9772SOL    HW230216   1.367   5.837   3.113  1.9007  0.8516  0.3126
 9773SOL     OW30217   4.410   6.738   4.454  0.6852  0.1991 -0.0090
 9773SOL    HW130218   4.394   6.665   4.388 -0.8697 -0.7069  1.2896
 9773SOL    HW230219   4.363   6.821   4.424  3.0056  0.9674 -1.8316
 9774SOL     OW30220   6.074   5.397   1.651 -0.1677  0.2802  0.5927
 9774SOL    HW130221   6.161   5.376   1.697  0.8927  1.8975 -0.5695
 9774SOL    HW230222   6.021   5.460   1.707  1.5638  3.0541 -0.6591
 9775SOL     OW30223   0.847   6.692   3.417 -0.0529  0.5791 -0.5691
 9775SOL    HW130224   0.912   6.712   3.344  1.0516  0.4516  0.3431
 9775SOL    HW230225   0.759   6.734   3.396  1.3100  3.9328 -0.1341
 9776SOL     OW30226   6.551   5.353   5.130 -0.3492 -0.2678  0.5597
 9776SOL    HW130227   6.467   5.372   5.079 -0.2402  0.6654  0.7119
 9776SOL    HW230228   6.567   5.254   5.133 -1.2932 -0.4362  0.2908
 9777SOL     OW30229   5.327   4.914   0.630  0.3619 -0.0582 -0.0166
 9777SOL    HW130230   5.335   4.885   0.535  1.6246 -2.3935  0.7361
 9777SOL    HW230231   5.375   4.850   0.689 -2.2479  0.0550  2.4575
 9778SOL     OW30232   6.868   6.964   2.826 -0.1162  0.1638 -0.0567
 9778SOL    HW130233   6.840   7.059   2.809  0.3989  0.6061  1.3367
 9778SOL    HW230234   6.874   6.914   2.740 -0.9069  1.2549 -0.7656
 9779SOL     OW30235   2.443   0.419   3.304  0.2361  0.1310 -0.0633
 9779SOL    HW130236   2.363   0.464   3.266  0.1373  1.2787  1.4136
 9779SOL    HW230237   2.524   0.445   3.251 -0.1699 -0.0031 -0.7639
 9780SOL     OW30238   2.264   0.677   6.757  0.3885 -0.0737 -0.6214
 9780SOL    HW130239   2.289   0.649   6.850  4.2531 -0.4162 -1.5706
 9780SOL    HW230240   2.260   0.777   6.753  1.3003 -0.0142 -0.2896
 9781SOL     OW30241   1.800   4.760   3.033  0.7629 -0.0091 -0.6500
 9781SOL    HW130242   1.881   4.720   3.077 -0.1457 -1.0291  0.1623
 9781SOL    HW230243   1.743   4.687   2.997 -1.0283  0.4902  0.9926
 9782SOL     OW30244   7.021   1.597   7.012  0.3292 -0.1501  0.2119
 9782SOL    HW130245   6.982   1.577   6.923  1.6439 -2.5084  0.0941
 9782SOL    HW230246   7.112   1.557   7.018  0.4557  0.3586  2.4513
 9783SOL     OW30247   6.443   1.310   2.245  0.0725 -0.0726 -0.1432
 9783SOL    HW130248   6.371   1.357   2.298 -0.6596 -1.0763 -0.2057
 9783SOL    HW230249   6.527   1.308   2.298 -0.0164  0.9060  0.0443
 9784SOL     OW30250   4.779   2.262   5.167  0.4613  0.3221 -0.1078
 9784SOL    HW130251   4.816   2.233   5.255  2.1346 -1.4623 -1.3258
 9784SOL    HW230252   4.798   2.193   5.098 -3.2384  0.3508 -1.3798
 9785SOL     OW30253   7.001   3.078   5.005 -0.5260  0.3401  0.3330
 9785SOL    HW130254   7.015   3.069   5.104 -1.5695  0.2346  0.4855
 9785SOL    HW230255   6.939   3.154   4.987 -0.4272  0.2883 -0.2399
 9786SOL     OW30256   1.566   3.807   6.092  0.4914  0.0886 -0.6939
 9786SOL    HW130257   1.600   3.747   6.164 -1.7614 -0.5821 -0.0918
 9786SOL    HW230258   1.643   3.852   6.046  2.0510  1.5832  2.9742
 9787SOL     OW30259   4.454   2.549   1.463  0.5549 -0.3748  0.1918
 9787SOL    HW130260   4.522   2.622   1.463 -0.2510  0.3916 -0.0050
 9787SOL    HW230261   4.490   2.471   1.412  0.0768  1.2355 -2.8872
 9788SOL     OW30262   0.474   1.038   5.564  1.1418 -0.4739  0.1371
 9788SOL    HW130263   0.532   0.984   5.625  1.1451 -0.3041  0.2857
 9788SOL    HW230264   0.515   1.042   5.473  0.5228 -1.7745 -0.2214
 9789SOL     OW30265   1.961   0.210   4.632  0.0179  0.2499  0.1638
 9789SOL    HW130266   1.982   0.147   4.557  0.4247 -1.1529  1.4077
 9789SOL    HW230267   2.031   0.281   4.636 -0.6947  1.0907 -1.5495
 9790SOL     OW30268   4.774   5.329   0.037  0.2859  0.6774  0.4334
 9790SOL    HW130269   4.689   5.322  -0.016  0.0444 -0.1710  0.9189
 9790SOL    HW230270   4.816   5.418   0.020  0.9990 -0.0857 -2.3509
 9791SOL     OW30271   0.682   1.502   1.667  0.0763  0.6884 -0.2327
 9791SOL    HW130272   0.606   1.528   1.726 -0.0638  4.7799 -1.8723
 9791SOL    HW230273   0.738   1.582   1.646  3.7900 -1.7381 -0.7177
 9792SOL     OW30274   3.800   3.284   1.315  0.4416  0.3584  0.3355
 9792SOL    HW130275   3.802   3.383   1.305  0.2859  0.2066 -1.4980
 9792SOL    HW230276   3.890   3.251   1.343  0.3859  1.0346  1.3517
 9793SOL     OW30277   4.797   6.814   5.876  0.0562 -0.6203 -0.1375
 9793SOL    HW130278   4.859   6.884   5.911 -2.2171  1.2198  0.4478
 9793SOL    HW230279   4.785   6.743   5.946 -1.4782  1.0642  1.4312
 9794SOL     OW30280   1.887   5.784   5.011 -0.1749  0.0972  0.6259
 9794SOL    HW130281   1.820   5.804   5.082 -0.2630  3.4693 -0.2158
 9794SOL    HW230282   1.978   5.813   5.041  0.3933 -1.5454  0.5767
 9795SOL     OW30283   1.671   2.177   5.013  0.0258  1.1242  0.0427
 9795SOL    HW130284   1.697   2.128   4.930  2.4480  1.9151  0.2436
 9795SOL    HW230285   1.672   2.276   4.996  0.2826  1.2877  0.9107
 9796SOL     OW30286   5.471   2.712   1.550  0.1732  0.1326  0.2072
 9796SOL    HW130287   5.473   2.751   1.458  0.8572  0.7587  0.4732
 9796SOL    HW230288   5.422   2.625   1.549 -1.1637  0.8766 -0.4539
 9797SOL     OW30289   3.601   5.027   0.382 -0.2089 -0.6909 -0.2410
 9797SOL    HW130290   3.618   5.097   0.452 -1.8585  0.9681 -1.3993
 9797SOL    HW230291   3.626   5.063   0.292 -2.4058 -0.9888 -1.0357
 9798SOL     OW30292   1.378   2.971   0.839  0.1665 -0.4044 -0.3493
 9798SOL    HW130293   1.307   3.038   0.861 -0.0260 -0.5641 -0.4811
 9798SOL    HW230294   1.424   2.942   0.923  0.5185  0.1910 -0.3338
 9799SOL     OW30295   4.169   3.452   2.850  0.0530  0.1131  0.2202
 9799SOL    HW130296   4.232   3.491   2.783  0.0586  1.8428  1.1697
 9799SOL    HW230297   4.106   3.390   2.804 -2.4349  4.0395 -2.2214
 9800SOL     OW30298   3.950   6.864   5.347  0.2681 -0.4378  0.1894
 9800SOL    HW130299   3.898   6.869   5.262  1.8647 -1.7071 -0.9359
 9800SOL    HW230300   4.048   6.865   5.327  0.6975  0.0805  2.0880
 9801SOL     OW30301   2.944   5.623   6.841  0.2397  0.4238 -0.5020
 9801SOL    HW130302   2.903   5.709   6.870 -1.0883 -0.4526  0.3196
 9801SOL    HW230303   2.930   5.611   6.743 -0.5539  0.6259 -0.4200
 9802SOL     OW30304   1.042   0.979   2.040 -0.1827 -0.2795 -0.3258
 9802SOL    HW130305   1.040   0.908   2.110 -0.9205  0.3274  0.2909
 9802SOL    HW230306   1.084   0.943   1.956  1.1633 -0.8850  0.5665
 9803SOL     OW30307   4.957   2.447   5.700 -0.2685 -0.2332 -0.0898
 9803SOL    HW130308   5.034   2.426   5.761  0.8377  1.1535 -0.9501
 9803SOL    HW230309   4.963   2.388   5.619  0.7229  0.7874 -0.7951
 9804SOL     OW30310   6.024   3.438   1.541 -0.0422  0.5791 -0.2429
 9804SOL    HW130311   5.985   3.348   1.564 -0.8117  1.2677  1.2979
 9804SOL    HW230312   6.112   3.449   1.588 -0.1119  0.7686 -0.1574
 9805SOL     OW30313   1.629   4.451   6.015 -0.1796  0.5653 -0.3763
 9805SOL    HW130314   1.598   4.357   6.005 -0.4560  0.5715  0.3459
 9805SOL    HW230315   1.699   4.456   6.086 -0.4489  0.9582 -0.1318
 9806SOL     OW30316   1.927   0.624   1.201  0.0152 -0.1591 -0.3751
 9806SOL    HW130317   1.992   0.554   1.171 -0.3244 -0.4981 -0.3163
 9806SOL    HW230318   1.836   0.603   1.166 -0.0794  0.2821 -0.4015
 9807SOL     OW30319   2.261   1.782   6.974  0.2639 -0.0888  0.3349
 9807SOL    HW130320   2.183   1.741   7.022  0.7761 -0.2397  1.0678
 9807SOL    HW230321   2.235   1.871   6.937 -0.3536 -0.2930  0.2739
 9808SOL     OW30322   5.964   0.757   4.913  0.1205 -0.2692 -0.6018
 9808SOL    HW130323   6.036   0.806   4.863 -1.1866  1.2569 -1.0908
 9808SOL    HW230324   5.886   0.742   4.852 -0.4640 -0.7636  0.2509
 9809SOL     OW30325   6.453   2.413   5.567 -0.7314 -0.8092 -0.7000
 9809SOL    HW130326   6.369   2.461   5.593 -0.4916 -0.6825 -0.1349
 9809SOL    HW230327   6.439   2.315   5.574 -0.7784 -0.7842 -0.4117
 9810SOL     OW30328   3.341   1.926   5.123  0.1508 -0.3260 -0.1563
 9810SOL    HW130329   3.365   2.010   5.172  1.2001 -0.1571 -0.9411
 9810SOL    HW230330   3.409   1.855   5.142 -0.1228 -0.6555 -0.3826
 9811SOL     OW30331   0.275   6.929   4.668  0.1035  0.1185  0.4908
 9811SOL    HW130332   0.254   6.998   4.737  0.0851 -0.2480  0.8599
 9811SOL    HW230333   0.218   6.848   4.683  0.1408  0.0143  0.0825
 9812SOL     OW30334   3.204   2.130   0.342 -0.2754 -0.0106  0.2780
 9812SOL    HW130335   3.218   2.225   0.314 -0.3219 -0.1696 -0.2854
 9812SOL    HW230336   3.250   2.114   0.430 -0.5294  0.6139  0.5334
 9813SOL     OW30337   6.002   0.737   0.629 -0.4909  0.2478 -0.0030
 9813SOL    HW130338   6.003   0.728   0.529 -0.2460 -0.6039  0.0613
 9813SOL    HW230339   5.943   0.813   0.656  0.0484  0.9820 -0.8267
 9814SOL     OW30340   6.445   0.660   5.531 -0.7249  0.0139 -0.1382
 9814SOL    HW130341   6.517   0.729   5.519 -0.3391 -0.4739 -0.6093
 9814SOL    HW230342   6.363   0.706   5.565 -0.1707  0.5625  0.5292
 9815SOL     OW30343   5.930   3.664   1.615 -0.5384  0.0400 -0.3192
 9815SOL    HW130344   5.968   3.753   1.589 -0.1528  0.2213  0.8278
 9815SOL    HW230345   5.986   3.591   1.577  0.5051  0.3053  0.6709
 9816SOL     OW30346   6.737   1.007   6.539  0.5918  0.3679  0.1452
 9816SOL    HW130347   6.801   0.940   6.576  0.8952  0.5389 -0.0662
 9816SOL    HW230348   6.676   1.038   6.612  1.9530  1.6022  0.8233
 9817SOL     OW30349   4.182   5.865   2.480  0.1021  0.1603 -0.3661
 9817SOL    HW130350   4.272   5.903   2.500 -0.6976  2.8109 -1.3442
 9817SOL    HW230351   4.139   5.833   2.564  1.0821  0.9424  0.4516
 9818SOL     OW30352   0.107   0.248   1.931  0.1504  0.3179  0.3868
 9818SOL    HW130353   0.203   0.271   1.916  0.2737 -0.0608  0.5909
 9818SOL    HW230354   0.049   0.315   1.884  0.4993  1.1397  1.0822
 9819SOL     OW30355   6.038   3.119   4.613  0.1964  0.1011 -0.5166
 9819SOL    HW130356   5.990   3.041   4.653  0.4803 -0.5482 -1.4205
 9819SOL    HW230357   6.055   3.187   4.684  0.4807 -0.9243  0.4358
 9820SOL     OW30358   5.687   2.665   5.883 -0.0950  0.7371 -0.0797
 9820SOL    HW130359   5.678   2.712   5.795 -0.3470  1.8778  0.5394
 9820SOL    HW230360   5.783   2.639   5.896 -0.4192 -1.5189 -1.7002
 9821SOL     OW30361   4.916   3.049   0.765  0.1981 -0.0039 -0.2333
 9821SOL    HW130362   4.897   2.961   0.721  0.3926 -0.1108 -0.1046
 9821SOL    HW230363   4.872   3.122   0.713  0.1593 -0.1617 -0.4238
 9822SOL     OW30364   4.639   5.849   3.848  0.6808 -0.0944 -0.1170
 9822SOL    HW130365   4.725   5.857   3.898  0.6595 -1.2952  0.1472
 9822SOL    HW230366   4.585   5.774   3.886  0.0730 -0.1742 -1.0883
 9823SOL     OW30367   1.050   6.569   1.712 -0.2869 -0.3042 -0.4437
 9823SOL    HW130368   1.144   6.539   1.698 -0.5230 -1.1888 -0.1812
 9823SOL    HW230369   1.005   6.580   1.624  0.2977  0.9365 -0.6118
 9824SOL     OW30370   1.494   5.149   4.436  0.1581 -0.2721 -0.3350
 9824SOL    HW130371   1.408   5.124   4.391 -0.1342  1.7548 -1.0237
 9824SOL    HW230372   1.566   5.157   4.367  0.1596  0.9679 -0.2278
 9825SOL     OW30373   5.152   5.075   6.996  0.1218  0.1256 -0.3309
 9825SOL    HW130374   5.238   5.099   7.040  0.0928  1.6171 -1.0490
 9825SOL    HW230375   5.075   5.115   7.046 -0.1118 -0.5610 -0.1264
 9826SOL     OW30376   5.719   6.474   4.387  0.0639  0.5142  0.4696
 9826SOL    HW130377   5.808   6.464   4.433 -0.4031 -1.1228  1.0802
 9826SOL    HW230378   5.664   6.542   4.435  0.1839 -0.0389  1.4178
 9827SOL     OW30379   2.718   5.580   3.827 -0.5903 -0.3203  0.0106
 9827SOL    HW130380   2.689   5.654   3.767 -0.2625 -0.3264 -0.1602
 9827SOL    HW230381   2.638   5.530   3.859 -1.0126  1.4430  1.9046
 9828SOL     OW30382   3.682   1.716   4.016 -0.3997 -0.0857  0.1797
 9828SOL    HW130383   3.686   1.618   4.001 -1.7005 -0.0779 -0.4210
 9828SOL    HW230384   3.586   1.745   4.021 -0.0432  1.1627  0.2876
 9829SOL     OW30385   2.846   5.145   5.442 -0.5393 -0.3492  0.0879
 9829SOL    HW130386   2.770   5.080   5.445 -0.9972  0.2053  1.9767
 9829SOL    HW230387   2.933   5.094   5.443 -0.8946 -0.9633  0.2429
 9830SOL     OW30388   6.405   2.228   3.112 -0.3806 -0.7469 -0.0671
 9830SOL    HW130389   6.383   2.270   3.024 -0.3094 -0.1405  0.2024
 9830SOL    HW230390   6.360   2.279   3.185  0.3176 -0.6929  0.3267
 9831SOL     OW30391   0.119   5.237   2.486  0.6690 -0.2385 -0.1373
 9831SOL    HW130392   0.127   5.270   2.392  1.5992 -0.5793 -0.1916
 9831SOL    HW230393   0.149   5.142   2.490 -0.2819 -0.5293  0.3406
 9832SOL     OW30394   4.160   6.783   3.400 -0.3113  0.1589  0.6772
 9832SOL    HW130395   4.068   6.758   3.431 -0.7899  1.6609  0.5474
 9832SOL    HW230396   4.184   6.729   3.320 -1.5159  0.4677  0.0828
 9833SOL     OW30397   3.343   3.754   4.105  0.6250  0.0308 -0.1370
 9833SOL    HW130398   3.299   3.838   4.074  0.8770  0.0599 -0.4248
 9833SOL    HW230399   3.364   3.760   4.203  0.5519  0.2633 -0.1379
 9834SOL     OW30400   3.134   3.909   5.970 -0.3641 -0.6962 -0.7917
 9834SOL    HW130401   3.201   3.970   6.014 -0.3979 -1.2285  0.0287
 9834SOL    HW230402   3.053   3.962   5.946 -0.4028 -0.4021 -0.0646
 9835SOL     OW30403   3.093   3.985   3.368 -0.3393 -0.4845 -0.1367
 9835SOL    HW130404   3.161   3.990   3.294 -0.3027 -1.1600 -0.1599
 9835SOL    HW230405   3.021   3.920   3.343 -1.0566  0.3011 -0.1509
 9836SOL     OW30406   2.040   2.772   5.091  0.0527 -0.5106  0.2430
 9836SOL    HW130407   2.080   2.683   5.116  0.0581 -0.2735  1.1009
 9836SOL    HW230408   2.097   2.845   5.129  0.0542 -0.1379 -0.4727
 9837SOL     OW30409   6.600   2.066   2.235  0.8538  0.7194 -0.3690
 9837SOL    HW130410   6.619   2.089   2.140 -3.5217  0.1634 -1.6084
 9837SOL    HW230411   6.562   2.146   2.281 -0.5553  0.0141 -0.2619
 9838SOL     OW30412   0.217   0.313   0.088 -0.5114  0.3390 -0.1588
 9838SOL    HW130413   0.172   0.269   0.165  0.9765 -0.5726  0.2150
 9838SOL    HW230414   0.247   0.244   0.022  2.7070  0.5629  0.8860
 9839SOL     OW30415   4.890   1.940   2.953 -0.3378  0.2645 -0.3689
 9839SOL    HW130416   4.900   1.850   2.910 -1.6924  0.7293 -1.7547
 9839SOL    HW230417   4.977   1.966   2.995  0.6280 -0.8869 -1.5354
 9840SOL     OW30418   4.850   1.560   6.771  0.0247  0.2248 -0.0836
 9840SOL    HW130419   4.762   1.580   6.814  0.4414 -1.4230  1.6731
 9840SOL    HW230420   4.923   1.564   6.839  1.2339  0.7482 -1.3380
 9841SOL     OW30421   5.010   5.940   5.049  0.3755  0.2706 -0.4741
 9841SOL    HW130422   4.942   5.915   4.980 -0.7157 -0.1975  0.7455
 9841SOL    HW230423   5.098   5.900   5.024 -0.1580 -0.4629 -1.2444
 9842SOL     OW30424   2.551   1.977   0.366 -0.1927 -1.0309 -0.4284
 9842SOL    HW130425   2.503   1.969   0.279  0.2192  1.8497 -1.0501
 9842SOL    HW230426   2.627   2.042   0.356  0.6268 -1.5519  1.7917
 9843SOL     OW30427   6.656   1.202   2.745 -0.1240  0.1457 -0.4043
 9843SOL    HW130428   6.582   1.201   2.813  0.2990  3.0384  0.2500
 9843SOL    HW230429   6.736   1.156   2.782  0.5125  2.6948  1.7221
 9844SOL     OW30430   6.368   0.795   3.285  0.0815 -0.2512 -0.2847
 9844SOL    HW130431   6.271   0.817   3.270 -1.2241 -3.0059  2.7158
 9844SOL    HW230432   6.419   0.879   3.304 -2.2704  1.0889  0.4909
 9845SOL     OW30433   6.482   1.860   2.085 -0.0484  0.0347 -0.1068
 9845SOL    HW130434   6.544   1.931   2.117 -1.2238  0.7016  0.7363
 9845SOL    HW230435   6.397   1.901   2.052  0.4182 -0.7619 -2.4968
 9846SOL     OW30436   4.171   0.481   0.645  0.1906  0.0543 -0.0183
 9846SOL    HW130437   4.086   0.444   0.682 -0.9845  1.0930 -1.5225
 9846SOL    HW230438   4.204   0.422   0.571  0.4831 -0.0455  0.1885
 9847SOL     OW30439   3.704   1.821   2.237 -0.2905  0.3717  0.4716
 9847SOL    HW130440   3.678   1.915   2.258 -1.9287  0.1647 -0.4733
 9847SOL    HW230441   3.657   1.791   2.154  2.6860 -0.2328 -1.1398
 9848SOL     OW30442   2.947   4.776   5.573  0.4373  0.3633 -0.0407
 9848SOL    HW130443   2.900   4.801   5.658  0.5335  0.3873  0.0062
 9848SOL    HW230444   2.999   4.692   5.588 -1.7233 -1.1923 -0.8293
 9849SOL     OW30445   2.267   5.676   1.715 -0.6027  0.1963 -0.0446
 9849SOL    HW130446   2.186   5.628   1.682 -0.1657 -0.4551 -0.1924
 9849SOL    HW230447   2.344   5.613   1.720  0.0308  0.9181 -0.3848
 9850SOL     OW30448   6.920   6.527   4.168  0.1845  0.0460  0.0150
 9850SOL    HW130449   6.957   6.613   4.203  1.1923 -0.8209  1.1654
 9850SOL    HW230450   6.851   6.492   4.231  0.4290 -0.4386  0.0182
 9851SOL     OW30451   2.227   5.578   4.790  0.4574  0.2527  0.0811
 9851SOL    HW130452   2.192   5.577   4.697  1.0242  2.6150 -0.2233
 9851SOL    HW230453   2.326   5.565   4.789  0.3332 -0.8693  0.4840
 9852SOL     OW30454   1.352   1.368   4.962 -0.0673 -0.2604  0.3102
 9852SOL    HW130455   1.367   1.438   5.031 -2.8081  0.0820  0.6355
 9852SOL    HW230456   1.436   1.357   4.907  2.2578 -0.6466  3.6454
 9853SOL     OW30457   0.017   3.557   4.650 -0.8306  0.0735  0.2895
 9853SOL    HW130458  -0.058   3.612   4.613  0.2504  0.4869 -1.4254
 9853SOL    HW230459   0.103   3.583   4.606  0.0484 -1.6370  0.8642
 9854SOL     OW30460   1.522   6.296   6.778  0.4256  0.2570  0.3638
 9854SOL    HW130461   1.468   6.225   6.732 -2.3910  1.2378  1.9454
 9854SOL    HW230462   1.564   6.257   6.860  2.9457 -0.7065 -1.2630
 9855SOL     OW30463   2.200   2.645   1.524  0.1854 -0.6351 -0.6888
 9855SOL    HW130464   2.161   2.737   1.524  0.9344 -0.3116 -0.5450
 9855SOL    HW230465   2.288   2.646   1.571  0.5601 -1.2758 -1.3600
 9856SOL     OW30466   6.935   4.691   3.093 -0.3800 -0.0597 -0.2953
 9856SOL    HW130467   6.946   4.755   3.018  1.9126 -0.2807 -0.1996
 9856SOL    HW230468   6.951   4.598   3.061  0.4367 -0.1745  0.3920
 9857SOL     OW30469   6.003   0.389   1.702  0.0037 -0.2485 -1.0131
 9857SOL    HW130470   5.926   0.352   1.755  1.3513 -0.5869  0.8024
 9857SOL    HW230471   6.048   0.461   1.755  1.6331 -0.8480 -1.5341
 9858SOL     OW30472   1.204   5.906   2.170  0.1624 -0.0931  0.0518
 9858SOL    HW130473   1.251   5.851   2.100  1.6822  1.2717 -0.0587
 9858SOL    HW230474   1.115   5.864   2.191 -0.6585 -0.2164 -3.1548
 9859SOL     OW30475   6.156   5.401   3.148  0.1344  0.0803 -0.7534
 9859SOL    HW130476   6.074   5.439   3.189 -0.4903 -1.7430 -0.2082
 9859SOL    HW230477   6.237   5.436   3.196 -0.4813 -0.3735  0.6580
 9860SOL     OW30478   2.836   0.763   4.691  0.9746  0.4285 -0.0962
 9860SOL    HW130479   2.783   0.681   4.665  1.1054  0.4029 -0.2778
 9860SOL    HW230480   2.836   0.771   4.791 -0.0255  0.8548 -0.1094
 9861SOL     OW30481   0.880   1.606   1.332  0.0257  0.1278 -0.1553
 9861SOL    HW130482   0.869   1.514   1.296  0.6436 -0.3732  0.9012
 9861SOL    HW230483   0.885   1.671   1.256  1.6311 -0.9370 -1.0108
 9862SOL     OW30484   4.319   5.118   0.635 -0.3971 -0.2362  0.0131
 9862SOL    HW130485   4.392   5.185   0.628 -0.7994  0.1833 -0.2813
 9862SOL    HW230486   4.351   5.038   0.684  0.6942 -0.6610 -1.3217
 9863SOL     OW30487   3.858   6.176   2.386 -0.5525 -0.0936  0.3025
 9863SOL    HW130488   3.949   6.143   2.363 -1.0158  0.7735 -3.4209
 9863SOL    HW230489   3.864   6.268   2.425  0.1582 -0.4042  0.9575
 9864SOL     OW30490   3.230   6.551   5.946 -0.7544 -0.1720 -0.0296
 9864SOL    HW130491   3.330   6.547   5.953 -0.5600  2.2603 -0.7829
 9864SOL    HW230492   3.201   6.517   5.857 -0.7807 -2.1398  0.6604
 9865SOL     OW30493   6.802   0.765   4.894 -0.1510  0.5404  0.1311
 9865SOL    HW130494   6.790   0.831   4.968 -1.1686  1.5129 -0.8661
 9865SOL    HW230495   6.895   0.727   4.897 -0.3643  0.0831  2.2542
 9866SOL     OW30496   4.026   4.814   3.489 -0.1992  0.4347 -0.0219
 9866SOL    HW130497   3.982   4.889   3.439  1.6470  1.8495  0.3610
 9866SOL    HW230498   4.033   4.734   3.429 -1.0496  0.9792 -0.8836
 9867SOL     OW30499   5.417   1.787   3.314 -0.0326  0.2584 -0.0922
 9867SOL    HW130500   5.466   1.762   3.230  2.6713 -0.2277  1.5155
 9867SOL    HW230501   5.398   1.705   3.367  1.7185  0.7994  1.4880
 9868SOL     OW30502   0.299   4.470   4.241 -0.5370 -0.7329  0.5934
 9868SOL    HW130503   0.284   4.402   4.312  0.3457 -0.6031  0.9208
 9868SOL    HW230504   0.278   4.431   4.152 -0.2483 -1.3665  0.7989
 9869SOL     OW30505   0.802   1.064   2.099 -0.2326  0.4931  0.2435
 9869SOL    HW130506   0.724   1.067   2.037 -0.4880  0.3382  0.5566
 9869SOL    HW230507   0.884   1.039   2.048 -0.7776 -1.6058  0.2810
 9870SOL     OW30508   3.578   0.881   2.987  0.4374  0.6148  0.1849
 9870SOL    HW130509   3.618   0.894   3.077  0.1573 -0.7734  0.5325
 9870SOL    HW230510   3.527   0.963   2.961  0.1829  0.8824  1.4665
 9871SOL     OW30511   6.483   4.146   5.342  0.3247  0.0097  0.1847
 9871SOL    HW130512   6.538   4.078   5.296  1.2836 -1.2180  2.9446
 9871SOL    HW230513   6.390   4.111   5.354  0.6786 -0.6317  1.1436
 9872SOL     OW30514   3.487   5.739   4.568 -0.1073  0.5938  0.1408
 9872SOL    HW130515   3.442   5.672   4.627 -0.8526  0.4280 -0.6070
 9872SOL    HW230516   3.566   5.697   4.523 -1.4333 -0.2393 -1.4688
 9873SOL     OW30517   0.864   2.984   5.187  0.0384  0.5917 -0.5175
 9873SOL    HW130518   0.830   3.052   5.252  2.0302  1.4061 -0.2737
 9873SOL    HW230519   0.896   3.030   5.104 -0.2393 -0.2262 -1.0980
 9874SOL     OW30520   1.138   1.315   4.104  0.1373 -0.0746  0.1114
 9874SOL    HW130521   1.186   1.398   4.074 -2.4709  1.5390 -0.0243
 9874SOL    HW230522   1.092   1.274   4.026 -1.1136  0.2010  0.6658
 9875SOL     OW30523   1.682   4.554   5.774  0.1065 -0.2490 -0.1483
 9875SOL    HW130524   1.666   4.500   5.857 -0.1212 -0.8401 -0.5649
 9875SOL    HW230525   1.682   4.493   5.695 -0.5819  0.4200 -0.6775
 9876SOL     OW30526   3.594   0.857   3.920  0.1106  0.2412  0.1074
 9876SOL    HW130527   3.543   0.811   3.993 -1.3306  0.6347 -0.6098
 9876SOL    HW230528   3.557   0.949   3.906  1.6528  0.9026  0.1744
 9877SOL     OW30529   6.835   3.946   4.032 -0.5214 -0.2206  0.2255
 9877SOL    HW130530   6.846   3.872   3.967 -0.1377  1.2828 -1.4967
 9877SOL    HW230531   6.759   3.925   4.094 -0.1188 -2.2201  0.0957
 9878SOL     OW30532   3.328   3.700   0.116  0.2807  0.4592  0.4652
 9878SOL    HW130533   3.311   3.793   0.082 -0.7624  0.1003 -0.0306
 9878SOL    HW230534   3.326   3.701   0.216 -3.7381  0.3620  0.5577
 9879SOL     OW30535   0.595   5.325   0.165  0.2548  0.0572 -0.6313
 9879SOL    HW130536   0.631   5.377   0.243 -0.0480 -0.8834  0.1579
 9879SOL    HW230537   0.544   5.246   0.199 -0.7316  0.1804 -1.7758
 9880SOL     OW30538   4.306   2.098   0.770  0.1694 -0.2484 -0.3646
 9880SOL    HW130539   4.343   2.164   0.835 -0.4238 -1.3889  1.2025
 9880SOL    HW230540   4.211   2.120   0.751 -0.5373 -1.4699  1.4218
 9881SOL     OW30541   6.319   1.450   6.519  0.0353 -0.5644 -0.7024
 9881SOL    HW130542   6.311   1.507   6.437 -2.3710  0.5066  0.1630
 9881SOL    HW230543   6.306   1.354   6.494 -1.4122 -0.1835 -1.5383
 9882SOL     OW30544   3.625   3.405   5.981 -0.3700 -0.4049  0.8090
 9882SOL    HW130545   3.715   3.449   5.976 -0.0912 -0.8239  1.8454
 9882SOL    HW230546   3.623   3.325   5.922 -0.0002 -0.5041  0.9320
 9883SOL     OW30547   2.151   6.567   2.228 -0.4506  0.1019  0.4463
 9883SOL    HW130548   2.056   6.554   2.257 -0.3244 -1.1612  0.3791
 9883SOL    HW230549   2.193   6.477   2.212  0.8628  0.6204  0.8234
 9884SOL     OW30550   3.708   1.380   5.040 -0.0395 -0.0161  0.0248
 9884SOL    HW130551   3.720   1.303   4.977 -1.0431  0.1937 -0.4313
 9884SOL    HW230552   3.779   1.376   5.111  0.3442 -0.9543 -0.3954
 9885SOL     OW30553   1.712   2.715   4.105  0.1358  0.0759 -0.2524
 9885SOL    HW130554   1.758   2.760   4.028  0.1914  0.9855  0.2949
 9885SOL    HW230555   1.614   2.732   4.100  0.2586  1.1030  0.4761
 9886SOL     OW30556   6.019   0.956   1.771  0.4591 -0.3905 -0.0405
 9886SOL    HW130557   5.969   0.899   1.836  0.6948 -0.5700 -0.0172
 9886SOL    HW230558   6.020   1.051   1.803  1.8858 -0.7281  1.0095
 9887SOL     OW30559   2.510   6.217   0.327  0.2406 -0.3916 -0.1461
 9887SOL    HW130560   2.526   6.195   0.423  1.0604 -1.0071 -0.4048
 9887SOL    HW230561   2.511   6.316   0.315 -2.6058 -0.1579  0.8980
 9888SOL     OW30562   6.499   5.340   4.148  0.4901  0.4394 -0.6169
 9888SOL    HW130563   6.528   5.394   4.228  0.4019 -0.2747 -0.0960
 9888SOL    HW230564   6.407   5.368   4.121 -0.1989 -0.5425  0.6457
 9889SOL     OW30565   0.814   3.968   2.739 -0.0114  0.5468  0.1589
 9889SOL    HW130566   0.786   3.881   2.698  1.8693  0.5641 -1.3166
 9889SOL    HW230567   0.738   4.007   2.790 -1.2002 -1.4893  0.0457
 9890SOL     OW30568   5.413   2.182   6.627  0.4820  0.0124 -0.0440
 9890SOL    HW130569   5.335   2.223   6.580  0.4687  0.8528  0.6901
 9890SOL    HW230570   5.392   2.087   6.649  0.8351 -0.6846 -2.4987
 9891SOL     OW30571   4.648   4.978   1.388 -0.3019 -0.1383  0.4407
 9891SOL    HW130572   4.560   4.966   1.433 -0.7500 -0.5093 -0.5127
 9891SOL    HW230573   4.645   4.938   1.296  0.6864  0.3364  0.1821
 9892SOL     OW30574   0.416   5.238   4.213  0.1897  0.2538  0.2761
 9892SOL    HW130575   0.489   5.222   4.280  0.3712 -2.4067 -0.4364
 9892SOL    HW230576   0.333   5.266   4.260  0.7692  0.0955  1.4290
 9893SOL     OW30577   5.951   5.991   3.025 -0.9052  0.4273  0.9401
 9893SOL    HW130578   5.946   5.937   3.109  2.7169  0.9327  1.6350
 9893SOL    HW230579   6.011   5.947   2.960 -0.9303  1.7438 -0.0280
 9894SOL     OW30580   2.924   1.126   6.095  0.2077 -0.3264  0.0242
 9894SOL    HW130581   2.902   1.098   6.001 -1.4234 -0.3118  0.3674
 9894SOL    HW230582   2.879   1.064   6.159  0.1130  0.5199  0.7900
 9895SOL     OW30583   5.888   4.809   0.238 -0.3989  0.2372 -0.4463
 9895SOL    HW130584   5.917   4.823   0.143  0.1124  0.0466 -0.3204
 9895SOL    HW230585   5.851   4.717   0.247 -0.0521  0.1048 -0.3653
 9896SOL     OW30586   5.590   0.233   0.308 -0.3824 -0.1957  0.3307
 9896SOL    HW130587   5.583   0.255   0.405  0.2585  0.4058  0.2453
 9896SOL    HW230588   5.578   0.134   0.295 -1.3613 -0.1655  0.9190
 9897SOL     OW30589   6.093   0.387   2.604 -0.1327 -0.0073 -0.2907
 9897SOL    HW130590   6.165   0.435   2.654  0.0904  0.2018 -0.8030
 9897SOL    HW230591   6.037   0.335   2.668 -0.5375  1.1382  0.3326
 9898SOL     OW30592   6.328   3.338   4.125  0.4158  0.3171 -0.0964
 9898SOL    HW130593   6.384   3.393   4.187  1.9029  1.1413 -2.0590
 9898SOL    HW230594   6.296   3.257   4.173  3.2135 -0.1451  1.2088
 9899SOL     OW30595   6.460   5.754   1.345 -0.2073  0.3106 -0.7796
 9899SOL    HW130596   6.482   5.748   1.247 -2.3475  0.0404 -1.2971
 9899SOL    HW230597   6.365   5.728   1.359  0.5393 -1.4052  1.6417
 9900SOL     OW30598   1.830   2.296   4.033  0.2302 -0.2062 -0.3028
 9900SOL    HW130599   1.876   2.218   4.076  0.7135  0.5850  0.6675
 9900SOL    HW230600   1.740   2.308   4.073  0.8179  0.7472  0.8010
 9901SOL     OW30601   0.242   2.317   6.076  0.0994 -0.0426 -0.2168
 9901SOL    HW130602   0.258   2.413   6.097  2.3741 -0.5165  0.5362
 9901SOL    HW230603   0.152   2.290   6.108 -0.9555  2.0145 -1.2263
 9902SOL     OW30604   2.235   2.843   6.478 -0.2244 -0.2666 -0.2750
 9902SOL    HW130605   2.137   2.857   6.494 -0.2571 -0.6080 -0.1797
 9902SOL    HW230606   2.248   2.765   6.418 -0.1359  1.3587 -2.5049
 9903SOL     OW30607   5.778   6.591   3.188  0.1697 -0.4345 -0.0605
 9903SOL    HW130608   5.865   6.553   3.154  1.1591  2.3830 -0.9085
 9903SOL    HW230609   5.779   6.593   3.288  0.0890 -2.4401  0.0367
 9904SOL     OW30610   0.213   4.316   6.709 -0.0300  0.0279  0.3105
 9904SOL    HW130611   0.185   4.220   6.705 -0.9253  0.2850  0.3069
 9904SOL    HW230612   0.151   4.366   6.769  1.5192  0.2396  1.8190
 9905SOL     OW30613   2.570   5.775   1.109  0.1222  0.3150 -0.3869
 9905SOL    HW130614   2.625   5.774   1.192 -0.2839  2.7755  0.0033
 9905SOL    HW230615   2.473   5.781   1.132 -0.2258 -1.8413 -1.0780
 9906SOL     OW30616   1.938   4.100   0.721  0.5754  0.0997  0.2267
 9906SOL    HW130617   1.892   4.068   0.803  1.8156  1.6610  1.5921
 9906SOL    HW230618   2.037   4.102   0.736  0.7689  1.2123 -1.0149
 9907SOL     OW30619   4.246   0.165   3.711 -0.4429  0.3714 -0.3390
 9907SOL    HW130620   4.329   0.167   3.767  0.0848 -2.6922 -0.7996
 9907SOL    HW230621   4.270   0.186   3.616 -0.6468  1.8200 -0.0792
 9908SOL     OW30622   6.866   4.768   4.140  0.1964 -0.2698  0.0441
 9908SOL    HW130623   6.778   4.739   4.178 -0.0043 -0.2846 -0.4313
 9908SOL    HW230624   6.887   4.861   4.172 -0.1998 -0.0980 -0.1924
 9909SOL     OW30625   5.246   1.806   2.860 -0.0344 -0.1938  0.3896
 9909SOL    HW130626   5.154   1.768   2.847 -1.0953  1.8254  1.4977
 9909SOL    HW230627   5.251   1.896   2.817  0.7078  0.6795  2.1999
 9910SOL     OW30628   0.079   5.129   1.001  0.1970 -0.3414 -0.0365
 9910SOL    HW130629   0.047   5.042   1.038  0.0736 -0.6757 -0.9111
 9910SOL    HW230630   0.154   5.113   0.937  0.8556  0.2842  0.5460
 9911SOL     OW30631   4.173   5.523   2.890  0.6563  0.4484  0.3581
 9911SOL    HW130632   4.166   5.500   2.793  0.1632  0.0712  0.4802
 9911SOL    HW230633   4.269   5.543   2.913  1.0732 -1.1443  0.1591
 9912SOL     OW30634   3.741   0.745   2.848  0.1197  0.1418 -0.3323
 9912SOL    HW130635   3.679   0.814   2.885 -1.8175 -1.4889 -0.4026
 9912SOL    HW230636   3.730   0.741   2.748  1.3346  0.7244 -0.5172
 9913SOL     OW30637   4.326   2.320   1.876 -0.5439 -0.0371 -0.3393
 9913SOL    HW130638   4.269   2.315   1.794 -1.8431  2.0745  0.3521
 9913SOL    HW230639   4.382   2.403   1.872  1.0101 -1.0349 -0.0518
 9914SOL     OW30640   2.069   2.302   5.743 -0.0548  0.1164  0.1570
 9914SOL    HW130641   1.998   2.234   5.762  1.1279 -1.4412 -0.7953
 9914SOL    HW230642   2.142   2.294   5.811 -0.0998  0.7371  0.2854
 9915SOL     OW30643   5.119   3.018   3.842  0.3258  0.2774 -0.3500
 9915SOL    HW130644   5.021   3.037   3.841 -0.0968 -1.5742  0.6351
 9915SOL    HW230645   5.140   2.947   3.775  0.9151  0.3129 -0.2152
 9916SOL     OW30646   2.586   1.431   1.880  0.2677 -0.2747  0.2980
 9916SOL    HW130647   2.499   1.408   1.835  0.2804 -0.2285  0.2491
 9916SOL    HW230648   2.655   1.450   1.811 -0.0962  1.2404  0.3262
 9917SOL     OW30649   4.480   3.436   6.635  0.0776  0.4743  0.0767
 9917SOL    HW130650   4.472   3.535   6.624  3.0967  0.8512  0.2916
 9917SOL    HW230651   4.504   3.394   6.548  2.1718  0.4798  0.5773
 9918SOL     OW30652   1.907   1.099   0.445  0.4467 -0.1278 -0.2118
 9918SOL    HW130653   1.812   1.117   0.470  0.4891  0.5515 -0.5289
 9918SOL    HW230654   1.958   1.073   0.527  0.1746  0.3154  0.1018
 9919SOL     OW30655   1.977   5.945   1.591  0.4919  0.1181 -0.1984
 9919SOL    HW130656   2.051   5.890   1.553  0.5910 -0.5570  0.9304
 9919SOL    HW230657   1.985   6.039   1.557  1.5317 -0.0711 -0.5190
 9920SOL     OW30658   3.241   0.295   3.187 -0.0684 -0.7908  0.1678
 9920SOL    HW130659   3.232   0.270   3.091  0.7524  0.0674 -0.1486
 9920SOL    HW230660   3.290   0.382   3.195  0.1072 -0.9736  1.3701
 9921SOL     OW30661   0.262   4.644   3.979  0.3458  0.2583 -0.3678
 9921SOL    HW130662   0.170   4.604   3.974 -0.2193  1.5939 -1.4478
 9921SOL    HW230663   0.263   4.717   4.047  0.7289 -0.0127 -0.0768
 9922SOL     OW30664   4.916   5.319   1.017 -0.1527  0.4559  0.3211
 9922SOL    HW130665   4.832   5.303   0.965 -0.4843  0.7552  0.7510
 9922SOL    HW230666   4.968   5.234   1.023 -0.5715  0.1944  0.2992
 9923SOL     OW30667   0.795   3.445   0.725 -0.1604  0.4695 -0.0531
 9923SOL    HW130668   0.891   3.443   0.752 -0.1829  1.5748  0.1645
 9923SOL    HW230669   0.738   3.459   0.806 -0.6349 -1.4922  0.0160
 9924SOL     OW30670   4.857   2.925   2.268 -0.0497 -0.3133  0.2714
 9924SOL    HW130671   4.861   3.002   2.332  0.9052 -1.2384  1.3562
 9924SOL    HW230672   4.814   2.955   2.183 -0.5731  1.1659  1.0230
 9925SOL     OW30673   1.495   3.842   5.829 -0.1667 -0.1630 -0.3610
 9925SOL    HW130674   1.497   3.807   5.923  1.0154  1.4081  0.2427
 9925SOL    HW230675   1.438   3.782   5.773 -0.6543 -1.3192  1.2741
 9926SOL     OW30676   4.326   2.394   2.408 -0.2910  0.4700  0.1041
 9926SOL    HW130677   4.404   2.446   2.443  0.0621  0.7219 -0.9962
 9926SOL    HW230678   4.332   2.389   2.308 -1.9697  0.9694 -0.0570
 9927SOL     OW30679   2.428   4.330   0.495  0.3352 -0.1741 -0.2871
 9927SOL    HW130680   2.506   4.315   0.434  1.2859  1.6560  0.4327
 9927SOL    HW230681   2.454   4.392   0.569 -0.4197 -3.1953  2.7569
 9928SOL     OW30682   4.920   5.065   1.988  0.3726  0.0391 -0.3952
 9928SOL    HW130683   4.951   4.985   1.937 -1.2071 -0.8441 -0.0235
 9928SOL    HW230684   4.893   5.137   1.924 -1.7289 -1.1149 -0.8866
 9929SOL     OW30685   1.115   4.687   5.453  0.1461 -0.2127 -0.1528
 9929SOL    HW130686   1.111   4.633   5.537  0.5949 -0.1867 -0.1107
 9929SOL    HW230687   1.173   4.640   5.387 -0.3916 -0.3451 -0.5346
 9930SOL     OW30688   5.572   0.477   5.549 -0.0779 -0.3832  0.3329
 9930SOL    HW130689   5.626   0.513   5.473 -0.3243  1.4593  0.9853
 9930SOL    HW230690   5.567   0.377   5.542 -1.2463 -0.2200 -2.8382
 9931SOL     OW30691   6.983   5.633   5.723  0.7490 -0.1509  0.2768
 9931SOL    HW130692   6.916   5.565   5.694  1.1427  0.0887 -1.3064
 9931SOL    HW230693   6.965   5.720   5.676  1.3911  0.2859  0.8125
 9932SOL     OW30694   0.779   2.087   6.977  0.2153 -0.1632  0.2357
 9932SOL    HW130695   0.773   2.026   6.898 -1.2557  0.7677 -0.4339
 9932SOL    HW230696   0.686   2.107   7.010  0.6989  1.0126  0.9567
 9933SOL     OW30697   2.995   0.812   2.980  0.1579  0.4153  0.2267
 9933SOL    HW130698   2.999   0.743   2.907  0.5408  0.9359 -0.2583
 9933SOL    HW230699   3.019   0.769   3.067  3.1169  0.4288 -0.4631
 9934SOL     OW30700   0.679   3.058   0.694  0.2336  0.1171 -0.0988
 9934SOL    HW130701   0.746   3.122   0.731  0.6256 -1.1382  1.4913
 9934SOL    HW230702   0.588   3.099   0.700  0.5500  0.7871  0.2760
 9935SOL     OW30703   4.721   1.473   1.583  0.1874  0.1275 -0.1198
 9935SOL    HW130704   4.814   1.508   1.584 -0.0617  0.8309  1.5978
 9935SOL    HW230705   4.722   1.374   1.572  1.0105  0.3323 -2.3931
 9936SOL     OW30706   0.947   3.715   0.048  0.0641  0.7090 -0.1928
 9936SOL    HW130707   1.021   3.694  -0.015  0.9635  2.7261  0.1008
 9936SOL    HW230708   0.983   3.764   0.127 -1.4526  0.9456  0.3938
 9937SOL     OW30709   2.593   5.141   4.012  0.0474  0.0530  0.4642
 9937SOL    HW130710   2.531   5.141   4.091  0.3461 -3.4148  0.8549
 9937SOL    HW230711   2.683   5.176   4.040  0.0152 -0.6924  1.5738
 9938SOL     OW30712   4.967   1.507   3.475 -0.3628 -0.2074  0.4826
 9938SOL    HW130713   5.004   1.565   3.548 -0.0879 -0.2583  0.3843
 9938SOL    HW230714   4.912   1.563   3.413 -1.2607 -0.2986  1.1668
 9939SOL     OW30715   2.402   3.397   6.388 -0.5355  0.3558  0.2843
 9939SOL    HW130716   2.467   3.465   6.423  1.3982 -0.6930 -1.0733
 9939SOL    HW230717   2.424   3.376   6.293 -0.0779 -3.1853  1.0375
 9940SOL     OW30718   0.295   6.608   3.521  0.2280  0.4244 -0.7111
 9940SOL    HW130719   0.357   6.534   3.496  0.2682  0.8516 -1.9072
 9940SOL    HW230720   0.219   6.570   3.574 -0.2786 -0.6718 -2.1473
 9941SOL     OW30721   3.206   5.042   6.919  0.5562 -0.2851 -0.0614
 9941SOL    HW130722   3.170   5.115   6.861 -1.4136 -0.9423  0.2755
 9941SOL    HW230723   3.277   4.992   6.870 -1.1888 -0.9542 -2.0381
 9942SOL     OW30724   4.573   4.918   3.739 -0.2222  0.2043 -0.1888
 9942SOL    HW130725   4.580   4.827   3.698  0.0607  0.4875 -0.7863
 9942SOL    HW230726   4.487   4.926   3.788 -0.0789 -0.5183  0.1975
 9943SOL     OW30727   0.145   2.572   6.112 -0.1510  0.5307  0.2541
 9943SOL    HW130728   0.057   2.526   6.117  0.3275 -0.4742 -0.1644
 9943SOL    HW230729   0.136   2.658   6.061 -0.2319 -1.3366 -3.1717
 9944SOL     OW30730   6.748   5.972   4.312 -0.6780  0.6332 -0.5618
 9944SOL    HW130731   6.693   6.055   4.302 -1.0196  0.6112  0.9373
 9944SOL    HW230732   6.844   5.993   4.291 -0.8777  1.2126 -0.9294
 9945SOL     OW30733   3.448   6.324   0.604  0.0343 -0.7222 -0.0117
 9945SOL    HW130734   3.508   6.366   0.536 -0.8637  0.9278  0.1619
 9945SOL    HW230735   3.486   6.236   0.632  1.7978 -0.2283 -0.6904
 9946SOL     OW30736   5.199   5.796   3.855  0.4195  0.4816 -0.0946
 9946SOL    HW130737   5.190   5.732   3.932 -0.8970 -0.1623 -0.7673
 9946SOL    HW230738   5.212   5.745   3.770  1.0916  1.1748 -0.4261
 9947SOL     OW30739   2.269   1.447   4.529  0.2222 -0.0669 -0.3634
 9947SOL    HW130740   2.309   1.370   4.580  0.1091  0.5903  0.7593
 9947SOL    HW230741   2.313   1.455   4.440  0.4864 -1.2042 -0.3552
 9948SOL     OW30742   0.374   3.836   3.712 -0.2805  0.3472  0.2510
 9948SOL    HW130743   0.367   3.915   3.773  1.5517  1.0339 -0.3544
 9948SOL    HW230744   0.318   3.851   3.631 -1.0582  0.3693  0.7784
 9949SOL     OW30745   5.980   3.532   2.933  0.7113  0.1044 -0.0150
 9949SOL    HW130746   5.925   3.615   2.937  0.8445  0.1775  0.4053
 9949SOL    HW230747   5.969   3.480   3.018 -0.2215 -0.8614 -0.7023
 9950SOL     OW30748   6.922   4.808   5.608  0.3878  0.3077 -0.0124
 9950SOL    HW130749   6.962   4.817   5.699  0.8831 -1.2572 -0.0414
 9950SOL    HW230750   6.994   4.789   5.542 -0.2961 -2.3383 -0.0997
 9951SOL     OW30751   2.542   1.752   3.331  0.6713 -0.1318  0.3452
 9951SOL    HW130752   2.603   1.703   3.392  0.0091  0.4528  1.5108
 9951SOL    HW230753   2.592   1.825   3.284  1.2476 -0.7664 -0.0435
 9952SOL     OW30754   0.697   4.442   1.268 -0.2057 -0.9517 -0.6024
 9952SOL    HW130755   0.707   4.535   1.306  0.2643 -1.3221  0.2142
 9952SOL    HW230756   0.786   4.408   1.239 -0.4321 -1.0223 -1.2282
 9953SOL     OW30757   4.433   1.254   3.725 -0.1974  0.5000  0.4824
 9953SOL    HW130758   4.345   1.254   3.679 -0.4039  0.0490  0.8621
 9953SOL    HW230759   4.419   1.255   3.824  0.2187  0.2664  0.5465
 9954SOL     OW30760   3.495   0.579   6.888  0.0823  0.6986 -0.0555
 9954SOL    HW130761   3.519   0.594   6.984  2.5148 -0.8079 -0.3337
 9954SOL    HW230762   3.409   0.625   6.867  0.7548  3.2000  2.1879
 9955SOL     OW30763   5.269   3.250   0.606 -0.5710  0.0030 -0.6836
 9955SOL    HW130764   5.192   3.262   0.544 -2.7802 -1.6045  1.5723
 9955SOL    HW230765   5.247   3.289   0.695  1.2487 -0.4853  0.0293
 9956SOL     OW30766   6.164   4.124   1.820  0.2521  0.4940  0.3942
 9956SOL    HW130767   6.166   4.224   1.812  1.4322  0.4099 -0.7698
 9956SOL    HW230768   6.257   4.089   1.834  0.0237 -0.4986 -0.3781
 9957SOL     OW30769   6.037   6.819   0.904 -0.2653 -0.5473  0.1394
 9957SOL    HW130770   5.999   6.865   0.984  0.6590  1.6043 -0.5885
 9957SOL    HW230771   5.987   6.733   0.888  0.1391 -1.5712  3.5323
 9958SOL     OW30772   3.370   4.196   6.334 -0.5311  0.7186  0.2781
 9958SOL    HW130773   3.307   4.263   6.293 -0.0269  1.6946  1.0486
 9958SOL    HW230774   3.463   4.233   6.332 -0.3301  0.2939  1.2376
 9959SOL     OW30775   4.439   4.576   2.064  0.4035  0.4321  0.4459
 9959SOL    HW130776   4.349   4.567   2.022 -0.6738  1.2112  2.4162
 9959SOL    HW230777   4.464   4.491   2.109  0.1901  0.5122  0.7198
 9960SOL     OW30778   1.342   6.123   0.072  0.1386  0.6046  0.0273
 9960SOL    HW130779   1.330   6.051   0.140 -0.0363 -2.0037 -2.5688
 9960SOL    HW230780   1.437   6.125   0.040 -0.2125  0.3282 -1.1031
 9961SOL     OW30781   0.734   4.164   2.015  0.4037 -0.0018 -0.8405
 9961SOL    HW130782   0.792   4.093   1.974  0.8448  0.7806 -1.6076
 9961SOL    HW230783   0.744   4.163   2.114  1.3657 -0.2014 -0.9332
 9962SOL     OW30784   3.425   1.783   3.033 -0.0700  0.1605  0.1063
 9962SOL    HW130785   3.455   1.820   3.121  1.1742 -0.1647 -0.1613
 9962SOL    HW230786   3.473   1.830   2.959  0.5426 -1.0536 -0.3004
 9963SOL     OW30787   2.445   1.819   0.550  0.2204 -0.0775  0.2016
 9963SOL    HW130788   2.392   1.745   0.509  1.6484 -1.3672  0.6004
 9963SOL    HW230789   2.494   1.869   0.478  1.6533 -1.4839  0.1273
 9964SOL     OW30790   2.648   4.211   6.437  0.0420 -0.2679 -0.5904
 9964SOL    HW130791   2.687   4.213   6.529  2.0290 -0.3656 -1.3751
 9964SOL    HW230792   2.648   4.304   6.400  0.5364 -0.4243 -0.9878
 9965SOL     OW30793   4.902   5.994   3.695  0.2184  0.4750 -0.1587
 9965SOL    HW130794   4.878   6.039   3.781  0.3211 -1.3494  0.8765
 9965SOL    HW230795   4.856   6.041   3.619  0.7607  2.6089  0.7616
 9966SOL     OW30796   2.631   4.595   3.248 -0.6692 -0.2764 -0.6321
 9966SOL    HW130797   2.640   4.694   3.247  0.2104 -0.3512 -0.7787
 9966SOL    HW230798   2.632   4.560   3.154 -1.0379 -0.4237 -0.5847
 9967SOL     OW30799   4.879   6.560   3.136 -0.5478  0.1801  0.8370
 9967SOL    HW130800   4.916   6.638   3.186 -2.2985  0.6556  1.4500
 9967SOL    HW230801   4.954   6.497   3.113  0.6511  1.1812  1.8394
 9968SOL     OW30802   3.851   5.890   0.271 -0.0598  0.5451  0.0462
 9968SOL    HW130803   3.777   5.845   0.322  0.5897  0.1506  0.6577
 9968SOL    HW230804   3.812   5.961   0.213 -1.4494 -2.2190 -2.6948
 9969SOL     OW30805   1.869   3.499   3.343 -0.2782 -0.0563  0.1999
 9969SOL    HW130806   1.825   3.518   3.256  0.0610 -1.7306 -0.3778
 9969SOL    HW230807   1.806   3.451   3.404 -0.1492  0.0728  0.4396
 9970SOL     OW30808   5.015   6.301   0.748 -0.0798 -0.2647 -0.2267
 9970SOL    HW130809   4.965   6.297   0.835 -0.0180 -0.6872 -0.2108
 9970SOL    HW230810   5.027   6.397   0.721  2.2655  0.0689  1.6033
 9971SOL     OW30811   0.964   3.644   1.719 -0.4688 -0.0064 -0.5587
 9971SOL    HW130812   1.039   3.710   1.717 -0.1947 -0.3257 -1.1329
 9971SOL    HW230813   0.983   3.570   1.654 -0.1162 -1.3638  1.0357
 9972SOL     OW30814   2.540   3.375   1.687 -0.0070 -0.4260  0.0452
 9972SOL    HW130815   2.459   3.394   1.743 -0.1666  3.1235 -1.1420
 9972SOL    HW230816   2.519   3.302   1.621 -1.0253 -1.9696  1.9713
 9973SOL     OW30817   6.219   4.977   5.422  0.4998 -0.4263 -1.1136
 9973SOL    HW130818   6.214   4.891   5.370 -2.1305 -0.1294 -1.4549
 9973SOL    HW230819   6.131   4.995   5.466  0.6015  2.6302 -1.9274
 9974SOL     OW30820   0.765   3.702   3.403 -1.0030 -0.3490  0.0932
 9974SOL    HW130821   0.770   3.605   3.427 -3.1817 -1.4255 -3.0551
 9974SOL    HW230822   0.717   3.752   3.475  1.6623 -1.1610  2.5838
 9975SOL     OW30823   0.022   5.572   0.112  0.0795  0.5400  0.1533
 9975SOL    HW130824  -0.067   5.545   0.076 -0.1973 -0.1084  1.2726
 9975SOL    HW230825   0.040   5.522   0.197  1.8527  0.0791 -0.4474
 9976SOL     OW30826   6.785   5.444   5.578 -0.6868  0.1282 -0.1492
 9976SOL    HW130827   6.819   5.502   5.505  0.0426  1.5926  1.2856
 9976SOL    HW230828   6.786   5.348   5.549 -1.8135  0.7818 -2.5338
 9977SOL     OW30829   3.509   4.286   5.232  0.1183  0.1734 -0.4010
 9977SOL    HW130830   3.584   4.285   5.167  0.3674 -0.1883 -0.1102
 9977SOL    HW230831   3.467   4.195   5.236  0.8358 -0.1182  0.7835
 9978SOL     OW30832   6.813   0.933   6.284  0.0580 -0.6935  0.1734
 9978SOL    HW130833   6.768   0.938   6.373  1.2742 -0.7058  0.8242
 9978SOL    HW230834   6.760   0.983   6.216 -1.8715 -2.2282  0.4608
 9979SOL     OW30835   5.972   3.850   4.995  0.4553 -0.4469  0.3672
 9979SOL    HW130836   6.046   3.783   4.996  0.7415 -0.1275  1.0098
 9979SOL    HW230837   5.938   3.865   5.088  0.2147  0.1031  0.1970
 9980SOL     OW30838   2.627   0.048   1.392 -0.7777 -0.1040 -0.0881
 9980SOL    HW130839   2.676   0.056   1.305 -0.0034  2.1165  0.4772
 9980SOL    HW230840   2.677  -0.013   1.453  0.1336  0.4246 -0.2870
 9981SOL     OW30841   5.805   3.482   0.926  0.2442 -0.1276  0.0725
 9981SOL    HW130842   5.887   3.491   0.982  0.5631 -0.3738 -0.3442
 9981SOL    HW230843   5.832   3.469   0.830 -0.2868  0.0599 -0.1031
 9982SOL     OW30844   1.804   1.772   5.418  0.0279  0.0273  0.2488
 9982SOL    HW130845   1.880   1.758   5.355  0.3641 -0.3918  0.7358
 9982SOL    HW230846   1.766   1.863   5.405 -0.0274 -0.1228 -0.6847
 9983SOL     OW30847   5.511   4.550   1.989  0.3831  0.0674  0.0146
 9983SOL    HW130848   5.549   4.567   2.080 -3.0890  1.7769  1.3336
 9983SOL    HW230849   5.516   4.633   1.935  1.3355 -0.6088 -0.9853
 9984SOL     OW30850   1.048   6.896   1.217  0.2359  0.4291  0.6132
 9984SOL    HW130851   1.018   6.876   1.124 -1.0875  1.7307  0.7358
 9984SOL    HW230852   1.108   6.822   1.249 -0.3729 -0.7023 -0.7621
 9985SOL     OW30853   2.675   4.337   1.449 -0.2674  0.2030 -0.2726
 9985SOL    HW130854   2.592   4.393   1.442  0.6174  1.6610  0.3342
 9985SOL    HW230855   2.755   4.397   1.449  0.6496 -0.8837  2.5498
 9986SOL     OW30856   5.785   2.373   2.446 -0.3354 -0.0119 -0.4291
 9986SOL    HW130857   5.875   2.344   2.478 -1.2367 -0.2271  2.0734
 9986SOL    HW230858   5.744   2.301   2.391  1.8741  0.9549 -3.6536
 9987SOL     OW30859   5.614   3.226   1.986 -0.0890  0.1822  0.2666
 9987SOL    HW130860   5.590   3.176   1.904  2.3317 -1.0913  0.2581
 9987SOL    HW230861   5.566   3.188   2.065  2.6302 -3.2566  0.4962
 9988SOL     OW30862   5.592   4.985   2.720 -0.4570  0.0455  1.1135
 9988SOL    HW130863   5.540   5.011   2.801 -0.4895  0.5576  0.9322
 9988SOL    HW230864   5.549   4.904   2.678 -0.9166  0.2672  1.1470
 9989SOL     OW30865   5.475   4.438   0.570 -0.0920 -0.5180 -0.0936
 9989SOL    HW130866   5.445   4.512   0.510  0.5802 -1.0565 -1.1217
 9989SOL    HW230867   5.520   4.477   0.650 -0.1747  0.1930 -0.3822
 9990SOL     OW30868   3.172   6.762   3.491  0.6507  0.2907 -0.8861
 9990SOL    HW130869   3.115   6.795   3.565  1.4102 -0.0136 -0.1486
 9990SOL    HW230870   3.261   6.734   3.527  1.9755  2.4347 -2.2137
 9991SOL     OW30871   1.694   2.380   3.456  0.8996  0.2844 -0.5585
 9991SOL    HW130872   1.772   2.427   3.497  1.2043 -1.2955  0.7834
 9991SOL    HW230873   1.711   2.281   3.454 -0.2050  0.0752 -2.1924
 9992SOL     OW30874   2.438   3.543   0.044  0.1475 -0.5506  0.3786
 9992SOL    HW130875   2.511   3.481   0.013  0.5500  0.4010 -0.6453
 9992SOL    HW230876   2.349   3.506   0.014  0.2794 -1.2358  0.8126
 9993SOL     OW30877   1.076   6.520   6.270 -0.0827  0.0761  0.2481
 9993SOL    HW130878   1.117   6.451   6.330 -0.1196 -0.5945 -0.4802
 9993SOL    HW230879   1.135   6.533   6.190  0.0798  1.1256  0.5152
 9994SOL     OW30880   0.032   3.594   0.932 -0.5891 -0.1120  0.0831
 9994SOL    HW130881   0.090   3.579   0.853  0.3278 -0.9398  0.8885
 9994SOL    HW230882  -0.063   3.608   0.902 -0.1036  0.5732 -1.1945
 9995SOL     OW30883   3.366   1.037   5.566 -0.1039 -0.0688 -1.0586
 9995SOL    HW130884   3.353   0.959   5.629  1.7093 -0.3475 -0.9729
 9995SOL    HW230885   3.281   1.054   5.517 -0.4281 -2.4635 -1.4670
 9996SOL     OW30886   2.134   4.772   6.352  0.0488 -0.1160  0.1064
 9996SOL    HW130887   2.146   4.754   6.254  1.3077 -1.2327  0.4341
 9996SOL    HW230888   2.126   4.871   6.367 -0.6164  0.0482 -1.1511
 9997SOL     OW30889   6.516   0.246   4.573  0.3620 -0.2953 -0.0636
 9997SOL    HW130890   6.579   0.316   4.541 -0.6577  0.2332 -0.9898
 9997SOL    HW230891   6.448   0.287   4.634 -0.6856 -0.2898 -1.1925
 9998SOL     OW30892   6.604   4.806   1.538 -0.3258  0.7531  0.2224
 9998SOL    HW130893   6.565   4.898   1.538 -0.7824  0.5604  0.4542
 9998SOL    HW230894   6.702   4.811   1.556 -0.4774  1.1353  0.9425
 9999SOL     OW30895   0.009   5.113   4.140  0.0154  0.3492  0.0665
 9999SOL    HW130896  -0.064   5.086   4.203 -0.3507  0.1470 -0.4364
 9999SOL    HW230897  -0.029   5.174   4.070  0.5696  1.1618  0.4577
10000SOL     OW30898   3.170   2.681   1.555  0.9582 -0.5491 -0.5728
10000SOL    HW130899   3.119   2.750   1.605  3.4481  1.1827 -0.2169
10000SOL    HW230900   3.138   2.678   1.460 -0.1858 -0.0017 -0.2203
10001SOL     OW30901   2.696   1.000   6.556  0.8789  1.0357  0.3976
10001SOL    HW130902   2.739   0.941   6.624  2.9644 -0.0403 -1.6658
10001SOL    HW230903   2.763   1.067   6.523  0.3413  0.7561 -1.3965
10002SOL     OW30904   3.204   1.823   0.650  0.2914  0.5835  0.7415
10002SOL    HW130905   3.132   1.842   0.716  0.3716 -1.9685  1.6680
10002SOL    HW230906   3.283   1.783   0.697  2.4014  3.2373 -0.2375
10003SOL     OW30907   2.753   1.461   3.046  0.1528  0.1914  0.1389
10003SOL    HW130908   2.678   1.503   3.097 -0.7313  1.6496 -2.1701
10003SOL    HW230909   2.723   1.375   3.007 -0.1065  0.4234 -0.1824
10004SOL     OW30910   4.666   3.346   6.260 -0.1782  0.5148  0.3221
10004SOL    HW130911   4.712   3.427   6.295  1.3878 -0.1135 -0.1980
10004SOL    HW230912   4.719   3.308   6.184 -1.8060  0.0085 -0.6020
10005SOL     OW30913   3.686   5.986   2.442 -0.4088 -0.0821 -0.3958
10005SOL    HW130914   3.703   6.080   2.412 -1.9907  0.2815 -0.2687
10005SOL    HW230915   3.752   5.960   2.512  0.2827  0.7949 -0.7100
10006SOL     OW30916   5.004   5.222   6.294  0.0149  0.2217  0.3973
10006SOL    HW130917   5.100   5.227   6.321  0.3179  0.7442 -0.7016
10006SOL    HW230918   4.991   5.143   6.234  0.0569  0.8645 -0.4905
10007SOL     OW30919   1.273   3.691   5.901  0.0936 -0.3761 -0.5480
10007SOL    HW130920   1.207   3.766   5.903  0.2414 -0.2516 -0.1559
10007SOL    HW230921   1.288   3.658   5.994  1.2868  0.2156 -0.5067
10008SOL     OW30922   5.833   3.089   4.011  0.3768 -0.6341 -0.4396
10008SOL    HW130923   5.782   3.134   3.938 -1.6628 -2.4595 -0.2650
10008SOL    HW230924   5.918   3.051   3.975 -0.5834 -1.4824 -1.9332
10009SOL     OW30925   2.535   5.443   2.076  0.1129  0.4871  0.3152
10009SOL    HW130926   2.559   5.411   1.985  0.3385  0.0589  0.5244
10009SOL    HW230927   2.480   5.527   2.069  0.9906  1.0307 -0.1844
10010SOL     OW30928   3.284   0.077   0.097  0.3372 -0.1439  0.5596
10010SOL    HW130929   3.264  -0.021   0.096 -0.8399  0.0858  0.7313
10010SOL    HW230930   3.383   0.090   0.097  0.5597 -1.3204 -1.5969
10011SOL     OW30931   5.516   5.803   6.941 -0.4410  0.0710 -0.0191
10011SOL    HW130932   5.556   5.820   7.031 -0.2516 -0.2967 -0.0295
10011SOL    HW230933   5.560   5.862   6.873 -1.4136  1.2088  0.3187
10012SOL     OW30934   5.849   6.354   1.205  0.1984  0.4555 -0.3848
10012SOL    HW130935   5.947   6.362   1.224  0.0142  1.6622  0.1397
10012SOL    HW230936   5.818   6.436   1.157 -0.8238  0.7008  0.6546
10013SOL     OW30937   1.498   3.771   4.598 -0.2333 -0.2231 -0.0256
10013SOL    HW130938   1.593   3.742   4.585 -0.2787 -0.8692  0.9957
10013SOL    HW230939   1.450   3.767   4.510  0.7336  0.3235 -0.5922
10014SOL     OW30940   0.662   0.544   1.678  0.3524 -0.9130  0.1512
10014SOL    HW130941   0.736   0.567   1.615  0.2445 -0.0388  0.3383
10014SOL    HW230942   0.701   0.517   1.767  0.4748 -1.3773 -0.0411
10015SOL     OW30943   4.033   4.496   0.799 -0.5168 -0.4329 -0.1042
10015SOL    HW130944   3.985   4.545   0.726 -0.2733  1.2227  0.7873
10015SOL    HW230945   3.976   4.495   0.881  0.6162  0.9639  0.7645
10016SOL     OW30946   1.453   1.188   4.489  0.3177 -0.8814 -0.1918
10016SOL    HW130947   1.358   1.205   4.462  0.1419 -0.9005  0.4119
10016SOL    HW230948   1.503   1.148   4.412 -0.5984 -2.5000  0.0241
10017SOL     OW30949   0.537   2.168   3.124  0.4263 -0.0156  0.2888
10017SOL    HW130950   0.593   2.247   3.148 -0.3680  0.5818  0.2306
10017SOL    HW230951   0.482   2.189   3.043 -1.0416  0.0131  1.2470
10018SOL     OW30952   6.157   4.612   5.564 -0.3397 -0.2417 -0.3797
10018SOL    HW130953   6.241   4.633   5.614 -0.0098  0.3781 -1.1614
10018SOL    HW230954   6.153   4.515   5.543 -0.7151 -0.5981  1.2413
10019SOL     OW30955   0.958   6.895   3.878 -0.1837  0.3763 -0.1841
10019SOL    HW130956   0.911   6.835   3.813  0.5484 -0.9274  0.4570
10019SOL    HW230957   0.896   6.918   3.953 -0.5034  0.5448 -0.4925
10020SOL     OW30958   6.710   6.782   0.394 -0.0819 -0.1911  0.1599
10020SOL    HW130959   6.764   6.740   0.467  0.3396  0.0609  0.0011
10020SOL    HW230960   6.772   6.822   0.326 -0.3395  3.1154  1.6686
10021SOL     OW30961   1.269   1.085   2.608 -0.5596 -0.3675  0.2953
10021SOL    HW130962   1.191   1.142   2.636  0.7285  0.7850  1.7206
10021SOL    HW230963   1.243   1.029   2.530 -3.6092 -1.8746  2.1916
10022SOL     OW30964   3.362   5.074   0.120 -0.2608 -0.4762  0.3040
10022SOL    HW130965   3.283   5.070   0.059 -1.2347 -0.2646  1.5125
10022SOL    HW230966   3.337   5.120   0.205  1.3426  0.1636  0.4803
10023SOL     OW30967   2.074   0.029   4.054  0.1828 -0.4247  0.6199
10023SOL    HW130968   2.055   0.069   3.965  0.3585  0.5401  1.0068
10023SOL    HW230969   2.108   0.100   4.116 -0.0615 -1.0527  1.4916
10024SOL     OW30970   1.635   6.419   2.764 -0.0578 -0.4093  0.1317
10024SOL    HW130971   1.599   6.343   2.709  0.7547 -0.4492 -0.3708
10024SOL    HW230972   1.669   6.383   2.851 -1.2812 -0.3567  0.6539
10025SOL     OW30973   1.223   4.598   1.345 -0.2657 -0.0852 -0.6506
10025SOL    HW130974   1.230   4.698   1.342  0.5154 -0.1443 -1.0623
10025SOL    HW230975   1.168   4.566   1.268  0.4461 -0.0451 -1.1810
10026SOL     OW30976   3.014   6.262   3.949 -0.1757 -0.2373 -0.0321
10026SOL    HW130977   2.923   6.275   3.987  0.4780  1.3234  1.0941
10026SOL    HW230978   3.007   6.225   3.856 -2.0379  1.6090 -0.6968
10027SOL     OW30979   0.280   1.937   3.383  0.1452  0.2217  0.3554
10027SOL    HW130980   0.296   1.842   3.357 -0.5330  0.2498 -0.1797
10027SOL    HW230981   0.330   1.957   3.468  2.2483  0.0845 -0.7850
10028SOL     OW30982   2.244   1.306   1.430  0.1714 -0.2470 -0.0953
10028SOL    HW130983   2.319   1.286   1.366 -1.5253 -0.7359 -2.0322
10028SOL    HW230984   2.204   1.219   1.461  1.0784 -0.0248  1.8519
10029SOL     OW30985   2.375   2.265   2.405 -0.3464  0.1925  0.3496
10029SOL    HW130986   2.282   2.264   2.442 -0.1452 -2.1488  0.9414
10029SOL    HW230987   2.441   2.255   2.480  0.4317  2.0776 -0.0394
10030SOL     OW30988   3.562   6.831   5.711  0.5056  0.0511 -0.4398
10030SOL    HW130989   3.618   6.822   5.628  1.7325  1.5092  0.1777
10030SOL    HW230990   3.498   6.755   5.716 -0.2374  0.3824 -3.1764
10031SOL     OW30991   6.903   4.261   3.601  0.3441 -0.5640 -0.5896
10031SOL    HW130992   6.812   4.275   3.561 -0.2433  1.2792  1.2243
10031SOL    HW230993   6.954   4.347   3.600  1.0427 -0.9290  0.7992
10032SOL     OW30994   3.975   1.749   4.841  0.2394 -0.1477 -0.3869
10032SOL    HW130995   3.983   1.809   4.761  3.1331 -1.3041 -1.0865
10032SOL    HW230996   3.992   1.802   4.924  1.9847  0.2385 -0.9427
10033SOL     OW30997   5.693   2.808   3.965 -0.0158 -0.4323  0.0239
10033SOL    HW130998   5.628   2.823   3.890  1.0533  1.2734 -0.6125
10033SOL    HW230999   5.786   2.818   3.931  0.4884  1.2333  1.7224
10034SOL     OW31000   2.027   1.771   5.271  0.3475 -0.3585  0.1941
10034SOL    HW131001   2.024   1.852   5.211 -1.1265  0.1292  0.8623
10034SOL    HW231002   2.041   1.689   5.216 -0.0157  0.1750 -0.7178
10035SOL     OW31003   1.028   5.529   2.385  0.5094 -1.3499  0.1451
10035SOL    HW131004   1.099   5.537   2.454 -0.4658 -0.4924  1.0770
10035SOL    HW231005   0.978   5.615   2.377 -0.7298 -2.0650 -0.1455
10036SOL     OW31006   6.427   6.759   0.823  0.1116  0.0403 -0.1097
10036SOL    HW131007   6.461   6.681   0.876  0.4730 -0.8798 -1.6516
10036SOL    HW231008   6.433   6.739   0.726 -0.0318  1.9141 -0.5419
10037SOL     OW31009   4.399   6.620   0.169  0.0441  0.0061  0.3897
10037SOL    HW131010   4.379   6.547   0.235 -1.1462 -0.8023 -0.8186
10037SOL    HW231011   4.320   6.633   0.109  0.7979  1.2923 -0.3656
10038SOL     OW31012   4.846   1.446   5.708 -0.2902 -0.2157  0.5553
10038SOL    HW131013   4.768   1.490   5.665 -0.9979 -1.1187  0.8837
10038SOL    HW231014   4.929   1.499   5.689 -0.7990  0.1595 -0.7162
10039SOL     OW31015   4.887   5.617   0.017  0.3556 -0.2662 -0.3164
10039SOL    HW131016   4.975   5.571   0.004  0.6017  0.5790 -1.9213
10039SOL    HW231017   4.900   5.698   0.075  0.3581 -0.9285  0.6140
10040SOL     OW31018   3.110   5.460   0.019  0.5374  0.4595 -0.5542
10040SOL    HW131019   3.073   5.515  -0.056 -1.7897 -1.0950 -0.6602
10040SOL    HW231020   3.050   5.467   0.099  0.5777 -1.2840 -0.3239
10041SOL     OW31021   5.942   6.300   5.449 -0.4612  0.2718 -0.1101
10041SOL    HW131022   5.922   6.387   5.405 -3.4842 -0.3944 -0.2878
10041SOL    HW231023   5.922   6.307   5.547  1.7655  0.4434  0.3733
10042SOL     OW31024   0.269   1.724   5.697  0.7434 -0.2908  0.4405
10042SOL    HW131025   0.204   1.702   5.770 -0.5781  2.6055  0.2904
10042SOL    HW231026   0.251   1.666   5.617 -0.5083 -0.7452  1.0275
10043SOL     OW31027   0.806   6.764   3.708  0.0406  0.5303 -0.3062
10043SOL    HW131028   0.715   6.806   3.700  0.1610  0.5866 -1.5620
10043SOL    HW231029   0.838   6.737   3.617  0.7412 -0.6558  0.2738
10044SOL     OW31030   1.046   2.778   3.545  0.7382  0.3778  0.0064
10044SOL    HW131031   1.089   2.801   3.458  0.5059 -1.9671 -0.8089
10044SOL    HW231032   1.070   2.684   3.569 -1.1439  0.1838  1.2694
10045SOL     OW31033   6.588   0.839   2.118  0.0806  0.1162  0.3141
10045SOL    HW131034   6.652   0.763   2.128  0.4046  0.4623  0.9122
10045SOL    HW231035   6.536   0.851   2.203  1.7036  2.0433  1.1240
10046SOL     OW31036   0.485   3.991   0.895  0.1779  0.1886  0.1496
10046SOL    HW131037   0.479   3.932   0.975 -0.6128  1.5880  1.1725
10046SOL    HW231038   0.410   3.970   0.832  0.9993 -1.1486 -0.4355
10047SOL     OW31039   6.721   4.485   4.493  0.1213  0.2366 -0.5525
10047SOL    HW131040   6.685   4.555   4.554 -1.1616  1.0102 -2.1149
10047SOL    HW231041   6.748   4.405   4.546  0.5904  1.4761  1.1624
10048SOL     OW31042   4.939   2.742   0.274  0.2837 -0.4787 -0.4770
10048SOL    HW131043   4.861   2.804   0.285 -1.1638 -2.3082  0.1696
10048SOL    HW231044   4.989   2.766   0.191 -0.6574  1.0710 -0.6438
10049SOL     OW31045   0.072   6.468   0.021 -0.4139 -0.5054 -0.8057
10049SOL    HW131046   0.113   6.497  -0.066  0.5082  2.3990  0.4804
10049SOL    HW231047  -0.027   6.466   0.012 -0.3116 -1.3227 -2.1695
10050SOL     OW31048   6.723   3.421   3.812  0.3668  0.1970  0.1016
10050SOL    HW131049   6.805   3.372   3.839  0.9697  1.3898  0.5275
10050SOL    HW231050   6.687   3.472   3.891 -1.1307 -0.7677  0.0832
10051SOL     OW31051   6.892   2.557   3.773 -0.4405  0.2771  0.4185
10051SOL    HW131052   6.841   2.623   3.829 -0.0463 -1.4067  2.8987
10051SOL    HW231053   6.854   2.465   3.786  1.2505 -0.5433 -0.1750
10052SOL     OW31054   2.015   2.375   2.272 -0.1875 -0.1051 -0.4697
10052SOL    HW131055   2.038   2.467   2.303  2.2543 -0.6084 -0.5037
10052SOL    HW231056   2.097   2.332   2.234 -0.9773 -2.6691  0.4914
10053SOL     OW31057   1.915   5.335   3.182  0.2634 -0.1557  0.2298
10053SOL    HW131058   1.856   5.254   3.184 -0.1353  0.1312  0.5254
10053SOL    HW231059   2.011   5.307   3.179  0.1457 -0.6464  0.8294
10054SOL     OW31060   6.480   4.830   0.615  0.8422  0.4745 -0.3988
10054SOL    HW131061   6.528   4.894   0.674 -0.7311  1.1978  0.1451
10054SOL    HW231062   6.503   4.737   0.640 -0.9579  0.6886  2.4980
10055SOL     OW31063   5.274   2.465   4.213  0.1770 -0.0123 -0.1718
10055SOL    HW131064   5.279   2.525   4.293 -0.7086 -0.3975  0.1834
10055SOL    HW231065   5.281   2.520   4.129  2.5154  0.2693  0.1287
10056SOL     OW31066   6.562   4.454   1.891  0.6121  0.8802 -0.2779
10056SOL    HW131067   6.478   4.425   1.847  0.3129  0.8044  0.3300
10056SOL    HW231068   6.541   4.498   1.979  1.2389  0.1004  0.2803
10057SOL     OW31069   3.791   2.091   6.171  0.1961  0.0803 -0.4298
10057SOL    HW131070   3.819   2.095   6.075 -0.8468  2.1036 -0.7038
10057SOL    HW231071   3.716   2.025   6.181 -1.2264  1.4536 -1.4954
10058SOL     OW31072   0.580   4.314   4.827 -0.4969 -0.3187 -0.6235
10058SOL    HW131073   0.612   4.396   4.873 -3.6579  2.0391 -2.2359
10058SOL    HW231074   0.653   4.277   4.770  0.3520  3.0463 -1.9671
10059SOL     OW31075   5.028   6.347   1.792  0.4717 -0.2594 -0.0468
10059SOL    HW131076   5.064   6.308   1.707  0.3444 -2.3071  0.7756
10059SOL    HW231077   4.982   6.275   1.844 -3.1037  1.7248 -0.0913
10060SOL     OW31078   2.067   2.447   1.645 -0.1726  0.4920  0.5983
10060SOL    HW131079   2.138   2.383   1.673 -0.4096  0.1602  0.4406
10060SOL    HW231080   2.109   2.524   1.596 -0.1025 -0.8342 -1.5966
10061SOL     OW31081   5.926   0.849   4.433  0.5045 -0.1083 -0.1296
10061SOL    HW131082   5.982   0.792   4.492 -1.5644 -0.6990  1.3672
10061SOL    HW231083   5.832   0.817   4.434 -0.1103  1.4337 -1.7749
10062SOL     OW31084   6.874   1.065   4.463  0.0638  0.3442  0.2501
10062SOL    HW131085   6.947   1.033   4.522 -0.3243  0.0145  0.5556
10062SOL    HW231086   6.831   1.146   4.504  0.6793  0.9392 -0.2496
10063SOL     OW31087   1.736   6.440   4.160 -0.1042 -0.3318 -0.7497
10063SOL    HW131088   1.720   6.536   4.137  0.4370  0.2704  1.2469
10063SOL    HW231089   1.719   6.384   4.079 -0.3212  1.4378 -1.9970
10064SOL     OW31090   6.120   0.046   6.850  0.1961 -0.3413 -0.1606
10064SOL    HW131091   6.149   0.091   6.766  0.6675 -2.3128 -1.1119
10064SOL    HW231092   6.180   0.074   6.925 -2.2893  4.2151  0.5193
10065SOL     OW31093   1.998   5.108   2.888  0.5885  0.0894 -0.7409
10065SOL    HW131094   1.922   5.167   2.862 -0.4512 -0.8598  0.0346
10065SOL    HW231095   1.980   5.015   2.858  0.2234 -0.6686  1.5707
10066SOL     OW31096   6.582   1.718   2.298 -0.8414 -0.0849 -0.6066
10066SOL    HW131097   6.672   1.680   2.273 -0.5597 -0.3047  0.6451
10066SOL    HW231098   6.548   1.775   2.224  0.8693  0.9390 -0.6710
10067SOL     OW31099   7.021   5.190   4.883  0.4125 -0.1295  0.0329
10067SOL    HW131100   6.938   5.166   4.832  1.2898  0.5344 -1.7993
10067SOL    HW231101   7.080   5.110   4.891  0.4552 -0.1387 -0.3630
10068SOL     OW31102   5.101   2.859   2.193 -1.5060  0.0355  0.7797
10068SOL    HW131103   5.005   2.886   2.205 -2.5704 -1.9383 -2.0473
10068SOL    HW231104   5.112   2.764   2.221 -0.9582 -0.4445 -0.9557
10069SOL     OW31105   3.201   6.037   5.032  0.3003 -0.1345 -0.4341
10069SOL    HW131106   3.295   6.036   4.997 -0.4950  0.2337 -2.7043
10069SOL    HW231107   3.191   6.114   5.096  1.6973 -0.5829  0.3757
10070SOL     OW31108   6.965   1.311   3.551 -0.0469 -0.1473 -0.8121
10070SOL    HW131109   7.050   1.277   3.510  1.8267  0.6287  2.1535
10070SOL    HW231110   6.958   1.409   3.536 -0.1891 -0.1364 -0.6720
10071SOL     OW31111   0.031   5.865   3.188  0.2616  0.2612 -0.5461
10071SOL    HW131112   0.009   5.959   3.214  0.6759 -0.3675  2.4664
10071SOL    HW231113  -0.052   5.817   3.160 -0.2995  0.9554 -0.1021
10072SOL     OW31114   0.958   6.542   2.386 -0.5214 -0.2254  0.2520
10072SOL    HW131115   1.011   6.530   2.470 -1.3791  0.7260  0.9541
10072SOL    HW231116   0.927   6.453   2.353  1.6088 -0.8461 -0.2867
10073SOL     OW31117   5.874   5.262   6.473  0.6872 -0.2903  0.0895
10073SOL    HW131118   5.930   5.300   6.400  0.2847 -1.5785 -0.9189
10073SOL    HW231119   5.932   5.235   6.550  1.0377  1.7666  0.6016
10074SOL     OW31120   2.218   1.737   5.855 -0.5751  0.2017  0.7290
10074SOL    HW131121   2.135   1.725   5.800  0.6167 -2.3101 -0.6929
10074SOL    HW231122   2.236   1.834   5.867 -2.6871  0.8235 -0.5086
10075SOL     OW31123   0.815   2.967   3.066 -0.5075 -0.6268 -0.5089
10075SOL    HW131124   0.786   2.899   3.133  0.5062 -0.9423 -0.3696
10075SOL    HW231125   0.739   3.029   3.045 -0.4268  0.4879  2.1334
10076SOL     OW31126   5.349   6.456   2.139 -0.4145  0.0800 -0.3618
10076SOL    HW131127   5.309   6.534   2.186  0.0562  0.3016 -0.3283
10076SOL    HW231128   5.283   6.420   2.073 -1.3115 -0.6098  0.8741
10077SOL     OW31129   3.279   3.417   0.637 -0.0413 -0.1214 -0.3643
10077SOL    HW131130   3.347   3.483   0.670  0.4035  0.6145 -2.5367
10077SOL    HW231131   3.324   3.329   0.620 -0.1784 -0.3685  0.5089
10078SOL     OW31132   5.677   6.229   5.705  0.3347 -0.0928  0.4284
10078SOL    HW131133   5.678   6.197   5.610 -0.7448 -0.4786  0.5375
10078SOL    HW231134   5.592   6.278   5.723  0.3199 -0.4271  1.3279
10079SOL     OW31135   6.557   3.966   1.551  0.3485  0.5321  0.0678
10079SOL    HW131136   6.511   3.907   1.617  1.8441 -0.3956  0.3333
10079SOL    HW231137   6.571   4.056   1.591  0.6163  0.1918  0.7599
10080SOL     OW31138   4.582   1.641   5.260  0.3284 -0.2905  0.0297
10080SOL    HW131139   4.543   1.602   5.177 -0.8009  1.0841 -0.1070
10080SOL    HW231140   4.682   1.633   5.257  0.2319 -1.3298 -0.8913
10081SOL     OW31141   0.274   6.922   0.279 -0.8608  0.7202  0.9604
10081SOL    HW131142   0.231   6.832   0.270 -2.0817  1.2347  1.3618
10081SOL    HW231143   0.211   6.992   0.244  0.4173  1.3598 -0.1597
10082SOL     OW31144   0.313   5.318   1.396  0.2485 -0.1752  0.2707
10082SOL    HW131145   0.217   5.324   1.370 -0.1479 -1.3884  1.3924
10082SOL    HW231146   0.366   5.281   1.320 -0.2783 -0.1793 -0.1011
10083SOL     OW31147   3.526   1.413   3.811  0.4303 -0.0801  0.2517
10083SOL    HW131148   3.550   1.396   3.716  1.3800  2.3468 -0.0176
10083SOL    HW231149   3.431   1.443   3.817  0.6871  0.8216 -0.0902
10084SOL     OW31150   1.283   2.459   0.946 -0.3963  0.0965  0.4301
10084SOL    HW131151   1.359   2.488   1.004  0.8001  0.3172 -1.1839
10084SOL    HW231152   1.309   2.468   0.849 -2.1986 -0.5729 -0.1616
10085SOL     OW31153   6.577   6.394   1.310 -0.5280  0.2264  0.1313
10085SOL    HW131154   6.590   6.296   1.296  0.8511  0.1784  1.4385
10085SOL    HW231155   6.647   6.429   1.373 -1.1820  1.9941 -0.0404
10086SOL     OW31156   3.902   6.046   0.928  0.4133 -0.2596  0.4036
10086SOL    HW131157   3.975   6.019   0.865 -1.2302  0.3463 -1.8882
10086SOL    HW231158   3.853   6.125   0.891 -1.6881 -0.9071  1.6196
10087SOL     OW31159   6.889   1.033   2.819 -0.7098  0.1079 -0.0670
10087SOL    HW131160   6.965   1.077   2.866 -0.7472  0.1850 -0.0795
10087SOL    HW231161   6.877   0.940   2.855  0.5999 -0.6004 -1.3497
10088SOL     OW31162   0.507   4.457   6.468  1.0345  0.2534 -0.5573
10088SOL    HW131163   0.505   4.464   6.568  1.5214  0.3789 -0.5516
10088SOL    HW231164   0.430   4.508   6.430 -1.1939 -2.6036 -0.1394
10089SOL     OW31165   2.662   0.950   1.267  0.4125  0.0516  0.9680
10089SOL    HW131166   2.704   1.038   1.248  3.3897 -1.1060  1.5617
10089SOL    HW231167   2.646   0.901   1.181 -1.0803  1.0302  0.6518
10090SOL     OW31168   0.124   3.442   0.715  0.0823 -0.1265  0.0326
10090SOL    HW131169   0.035   3.404   0.737 -0.2600  0.0378 -0.9929
10090SOL    HW231170   0.177   3.374   0.663 -0.4577  0.6704 -1.6398
10091SOL     OW31171   1.327   4.106   6.369  0.3808 -0.0541  0.1349
10091SOL    HW131172   1.329   4.034   6.438 -0.1209  0.4911  0.7300
10091SOL    HW231173   1.385   4.080   6.292 -0.2719 -1.3732  0.0633
10092SOL     OW31174   1.474   2.264   6.411  0.2556 -0.1064  0.5097
10092SOL    HW131175   1.460   2.165   6.420  0.0501  0.0442  1.9871
10092SOL    HW231176   1.473   2.307   6.501 -0.8030  1.4219 -0.1804
10093SOL     OW31177   2.173   2.522   3.354 -0.3013  0.2156 -0.5571
10093SOL    HW131178   2.097   2.511   3.290 -0.3224  0.2300 -0.5345
10093SOL    HW231179   2.140   2.505   3.447 -0.2175 -0.0404 -0.5731
10094SOL     OW31180   1.833   5.394   1.296  0.8399 -0.3466  0.0126
10094SOL    HW131181   1.854   5.473   1.239  1.0711 -0.3483  0.0946
10094SOL    HW231182   1.839   5.420   1.393  1.7280 -0.6689  0.0508
10095SOL     OW31183   6.050   2.319   1.270 -0.9503 -0.0064  0.2430
10095SOL    HW131184   6.078   2.334   1.365 -0.6223  0.0450  0.1410
10095SOL    HW231185   6.122   2.267   1.223 -0.0505  1.8897 -0.5830
10096SOL     OW31186   6.477   5.317   2.215 -0.0345 -0.3995  0.1586
10096SOL    HW131187   6.523   5.275   2.293  0.4981 -1.6154 -0.7666
10096SOL    HW231188   6.541   5.380   2.169 -0.7321  1.2541  1.3634
10097SOL     OW31189   2.702   2.750   1.258  0.1557 -0.5097  0.0272
10097SOL    HW131190   2.678   2.782   1.166  0.1560  0.6609  0.4146
10097SOL    HW231191   2.778   2.685   1.252  0.8380  0.3247 -0.7346
10098SOL     OW31192   2.097   1.527   5.169  0.2517 -0.2075  0.6486
10098SOL    HW131193   2.104   1.593   5.095 -1.0987  0.6368  1.2332
10098SOL    HW231194   2.050   1.445   5.136 -0.7734  0.3584  0.6796
10099SOL     OW31195   0.496   3.976   0.025 -0.7042 -0.1952  0.5997
10099SOL    HW131196   0.515   4.071   0.049  1.2711 -0.2452 -0.5470
10099SOL    HW231197   0.579   3.933  -0.009 -1.6909 -2.1950  0.5645
10100SOL     OW31198   4.453   0.756   4.758 -0.3307  0.1844  0.2464
10100SOL    HW131199   4.464   0.834   4.697 -1.7792  0.4945  0.3507
10100SOL    HW231200   4.533   0.748   4.818  0.0265  1.3004 -0.0676
10101SOL     OW31201   5.988   5.540   2.063  0.7215  0.7009 -0.6804
10101SOL    HW131202   6.053   5.489   2.119  0.2514  0.6962 -0.1309
10101SOL    HW231203   5.993   5.637   2.085 -0.6122  0.5101  0.5674
10102SOL     OW31204   1.588   6.516   0.800 -0.4638 -0.0360  0.2564
10102SOL    HW131205   1.682   6.534   0.831 -0.5050  1.5990 -0.4532
10102SOL    HW231206   1.589   6.443   0.731 -0.0387 -1.7102  1.9399
10103SOL     OW31207   1.110   6.523   5.991 -0.1130 -0.5930  0.0802
10103SOL    HW131208   1.149   6.473   5.914  0.6127  1.0202 -0.6525
10103SOL    HW231209   1.013   6.504   5.998 -0.7955  1.1445 -2.8938
10104SOL     OW31210   2.136   1.873   4.622 -0.2318 -0.8194 -0.0039
10104SOL    HW131211   2.145   1.919   4.711  1.2767 -0.4682 -0.3123
10104SOL    HW231212   2.204   1.801   4.615  0.5262 -0.0063 -1.3670
10105SOL     OW31213   0.805   0.593   6.444 -0.4357  0.3128 -0.5094
10105SOL    HW131214   0.862   0.511   6.455 -0.9147 -0.0188 -0.4800
10105SOL    HW231215   0.785   0.632   6.533  0.5959  1.0293 -0.5696
10106SOL     OW31216   4.122   1.528   0.980  0.0710  0.4832 -0.4960
10106SOL    HW131217   4.146   1.607   0.924  1.1139 -1.4290 -2.9609
10106SOL    HW231218   4.145   1.444   0.930 -1.7797 -1.4132  1.6262
10107SOL     OW31219   6.359   1.158   6.545  0.2828 -0.2112  0.3998
10107SOL    HW131220   6.425   1.138   6.617  1.9936  0.2473 -0.9622
10107SOL    HW231221   6.402   1.144   6.456 -1.6197 -0.3148 -0.5630
10108SOL     OW31222   5.854   6.906   0.106 -0.2811  0.0059  0.7006
10108SOL    HW131223   5.890   6.890   0.014  0.2259 -0.8667  1.0424
10108SOL    HW231224   5.876   6.829   0.165 -2.7443 -0.6213  0.9216
10109SOL     OW31225   4.000   6.811   6.672  0.0213 -0.2561 -0.0031
10109SOL    HW131226   3.954   6.790   6.758  0.5786  0.8500  0.5888
10109SOL    HW231227   3.935   6.803   6.596 -1.7817  3.1185  0.9736
10110SOL     OW31228   4.837   6.465   5.880 -0.1794  0.0163  0.7606
10110SOL    HW131229   4.815   6.499   5.972 -2.7771 -0.1730  0.2941
10110SOL    HW231230   4.774   6.506   5.814  0.1373 -1.6006 -0.6154
10111SOL     OW31231   6.667   4.284   5.082 -1.1325 -0.4635 -0.0175
10111SOL    HW131232   6.691   4.305   4.988  0.7241 -0.4865  0.4054
10111SOL    HW231233   6.711   4.350   5.143 -0.2236 -1.9105  0.9619
10112SOL     OW31234   6.928   3.228   4.175  0.7410  0.1138  0.3234
10112SOL    HW131235   6.902   3.302   4.237  1.7667  1.5770 -0.9088
10112SOL    HW231236   6.936   3.264   4.082 -0.2037 -1.9015 -0.6000
10113SOL     OW31237   3.575   0.534   0.408 -0.1634 -0.3203 -0.2815
10113SOL    HW131238   3.611   0.445   0.378 -0.7852 -0.2959 -1.1638
10113SOL    HW231239   3.517   0.572   0.335  0.8068  1.2259 -0.3020
10114SOL     OW31240   6.517   0.487   2.942 -0.1563  0.2118  0.1084
10114SOL    HW131241   6.608   0.455   2.917  0.2652  0.4636  1.2695
10114SOL    HW231242   6.464   0.411   2.979  0.0644  0.3565  0.7314
10115SOL     OW31243   3.329   0.783   3.326 -0.5624  0.4179  0.6609
10115SOL    HW131244   3.332   0.879   3.297 -0.5279  0.7607  1.7220
10115SOL    HW231245   3.366   0.776   3.419  0.7663 -0.8526  0.0623
10116SOL     OW31246   1.011   5.181   5.380  0.5450 -0.5112 -0.1868
10116SOL    HW131247   1.065   5.204   5.461 -0.9088  1.0786  0.4077
10116SOL    HW231248   0.962   5.095   5.395  0.0426 -0.0763  0.7860
10117SOL     OW31249   6.658   0.870   5.536  0.1551 -0.3419  0.4847
10117SOL    HW131250   6.749   0.876   5.495 -0.2903  1.3093 -0.3401
10117SOL    HW231251   6.662   0.901   5.631  0.0298  2.3524 -0.3206
10118SOL     OW31252   2.051   3.554   2.838 -0.0290  0.3273 -0.0832
10118SOL    HW131253   2.088   3.646   2.826  1.2615 -0.2189 -0.5166
10118SOL    HW231254   2.009   3.524   2.752 -1.6124  0.9894  0.4416
10119SOL     OW31255   1.610   6.757   2.512  0.1165  0.4800 -0.3905
10119SOL    HW131256   1.585   6.840   2.561  0.8997  1.3734 -1.4662
10119SOL    HW231257   1.538   6.689   2.524 -0.3810  1.1799  0.7788
10120SOL     OW31258   0.314   3.585   4.985 -0.6935  0.0872  0.4188
10120SOL    HW131259   0.300   3.492   4.952 -1.7450  0.5052 -0.3721
10120SOL    HW231260   0.280   3.593   5.079  0.2768 -0.5512  0.8365
10121SOL     OW31261   0.304   4.258   5.731 -0.1026 -0.7886 -0.5898
10121SOL    HW131262   0.392   4.240   5.773  0.0282  0.3675 -0.3260
10121SOL    HW231263   0.317   4.318   5.652 -0.7156  0.0372 -0.0825
10122SOL     OW31264   1.052   2.370   1.772  0.0724 -0.7651 -0.1063
10122SOL    HW131265   1.019   2.310   1.699  0.4550 -1.9596  0.6891
10122SOL    HW231266   1.091   2.315   1.846 -2.1812  0.2755  1.9763
10123SOL     OW31267   5.293   6.467   0.640 -0.3659  0.0687 -0.2865
10123SOL    HW131268   5.290   6.370   0.613 -1.2708  0.3395 -1.2404
10123SOL    HW231269   5.205   6.493   0.678  0.0778  0.3683  0.5416
10124SOL     OW31270   6.894   3.268   6.868 -0.8054 -0.4955  0.5700
10124SOL    HW131271   6.832   3.274   6.790  0.2691 -0.7614 -0.3330
10124SOL    HW231272   6.947   3.353   6.874 -1.6466 -0.0299  1.6914
10125SOL     OW31273   0.776   3.456   1.411 -0.3895 -0.1339  0.3592
10125SOL    HW131274   0.713   3.481   1.484 -1.2974  0.0768 -0.4717
10125SOL    HW231275   0.864   3.430   1.450 -1.2109 -1.1433  1.5895
10126SOL     OW31276   0.493   0.791   6.504  0.2685  0.0783 -0.0624
10126SOL    HW131277   0.407   0.804   6.554  1.6308  0.4515  2.3628
10126SOL    HW231278   0.562   0.854   6.539  1.8278 -0.8743 -1.2494
10127SOL     OW31279   3.082   4.249   6.756 -0.0361  0.3637  0.2184
10127SOL    HW131280   3.114   4.331   6.804  0.1095  1.4791 -1.6557
10127SOL    HW231281   3.077   4.172   6.819 -1.4408  2.1175  2.3577
10128SOL     OW31282   3.267   1.058   1.487  0.2027 -0.2029 -0.0109
10128SOL    HW131283   3.200   1.105   1.545 -0.6161 -2.1722  0.7204
10128SOL    HW231284   3.230   1.049   1.395  1.1580  2.1878 -0.6971
10129SOL     OW31285   6.678   2.582   1.339 -0.5481 -0.0427  0.0459
10129SOL    HW131286   6.600   2.536   1.298  0.1656 -1.6540  0.4048
10129SOL    HW231287   6.761   2.530   1.321  0.5111  1.7291 -0.4904
10130SOL     OW31288   0.257   4.235   0.426  0.3907  0.3264 -0.2315
10130SOL    HW131289   0.313   4.249   0.345 -0.0841 -0.3395 -0.6920
10130SOL    HW231290   0.175   4.183   0.401  1.1992 -1.6669  0.9914
10131SOL     OW31291   2.308   6.395   3.055 -0.1990 -0.2726 -0.5583
10131SOL    HW131292   2.287   6.442   3.140 -1.8023 -0.2398 -0.9476
10131SOL    HW231293   2.385   6.333   3.069 -0.0304  0.2037  0.7343
10132SOL     OW31294   3.258   7.019   0.662 -0.2886  0.3065 -0.4043
10132SOL    HW131295   3.314   6.936   0.660  0.2454  0.5654  1.5779
10132SOL    HW231296   3.161   6.995   0.652 -0.1786 -0.6184  0.6799
10133SOL     OW31297   4.721   0.069   0.692  0.4606 -0.9050 -0.0145
10133SOL    HW131298   4.733   0.111   0.602 -0.4398  2.1041  1.1238
10133SOL    HW231299   4.807   0.074   0.743  0.9321 -2.4812 -0.6084
10134SOL     OW31300   0.571   6.540   5.474  0.1030 -0.2616 -0.1406
10134SOL    HW131301   0.566   6.590   5.561 -0.3786 -1.8903  0.8144
10134SOL    HW231302   0.583   6.605   5.399  0.0778  1.2257  1.0867
10135SOL     OW31303   5.737   2.710   4.258 -0.4635 -0.2063  0.1330
10135SOL    HW131304   5.681   2.695   4.176 -0.6654 -1.3794  0.4686
10135SOL    HW231305   5.709   2.647   4.330 -0.6952  1.2231  1.3379
10136SOL     OW31306   4.247   1.394   2.596 -0.4108  0.4340  0.5141
10136SOL    HW131307   4.321   1.395   2.663 -1.3426 -1.7639  1.7201
10136SOL    HW231308   4.266   1.324   2.526 -1.2364 -0.0582  0.7622
10137SOL     OW31309   6.465   5.219   2.935  0.2485 -0.1356 -0.5071
10137SOL    HW131310   6.416   5.182   3.014  1.2487 -0.3245  0.0362
10137SOL    HW231311   6.536   5.282   2.966  0.9993 -0.6069 -1.2260
10138SOL     OW31312   4.432   4.255   1.459  0.4842  0.0438  0.0091
10138SOL    HW131313   4.347   4.290   1.499  0.2623  0.2536 -0.6391
10138SOL    HW231314   4.502   4.249   1.531  0.7470  2.5021  0.0349
10139SOL     OW31315   3.473   3.241   4.289  0.4081  0.5029 -0.0150
10139SOL    HW131316   3.400   3.309   4.293  0.3936  0.4437  0.6938
10139SOL    HW231317   3.478   3.205   4.196 -1.2639 -0.3648  0.1855
10140SOL     OW31318   5.778   6.394   6.824  0.2374 -0.3855  0.2607
10140SOL    HW131319   5.710   6.419   6.755  0.6012 -0.9144 -0.2990
10140SOL    HW231320   5.768   6.297   6.846  0.9535 -0.5243  0.0066
10141SOL     OW31321   3.850   2.360   6.253  0.0676  0.0126 -0.0304
10141SOL    HW131322   3.835   2.262   6.239 -1.2221 -0.2880  2.7016
10141SOL    HW231323   3.791   2.392   6.327  0.6441  2.8313 -0.6945
10142SOL     OW31324   4.519   1.241   5.721 -0.4503  0.3730  0.0278
10142SOL    HW131325   4.431   1.283   5.741 -0.2890 -0.1003  1.8772
10142SOL    HW231326   4.506   1.146   5.695 -0.4246 -0.0092  1.3742
10143SOL     OW31327   5.356   1.112   0.028 -0.3387 -0.4087 -0.6164
10143SOL    HW131328   5.300   1.031   0.047 -1.3836  0.5847  0.7713
10143SOL    HW231329   5.446   1.101   0.068 -1.2059 -0.0158  1.5581
10144SOL     OW31330   2.472   0.282   0.322 -0.1746 -0.3626 -0.2333
10144SOL    HW131331   2.439   0.229   0.244  0.0180 -0.9423  0.0813
10144SOL    HW231332   2.416   0.262   0.402 -0.4268  0.2992 -0.2369
10145SOL     OW31333   3.712   5.447   5.389  0.0051 -0.1728  0.5642
10145SOL    HW131334   3.673   5.504   5.462 -1.0152 -0.5525  0.3351
10145SOL    HW231335   3.658   5.363   5.381 -1.6575  1.0354 -2.4306
10146SOL     OW31336   3.285   2.812   5.432  0.5508 -0.1928  0.8151
10146SOL    HW131337   3.282   2.806   5.332  2.2570 -2.7910  0.8278
10146SOL    HW231338   3.263   2.906   5.460 -2.1880  0.1056 -1.8124
10147SOL     OW31339   5.794   3.225   5.083  0.3875  0.0478  0.6754
10147SOL    HW131340   5.754   3.285   5.014  0.4427  1.0960  1.5193
10147SOL    HW231341   5.828   3.141   5.040 -1.6234 -0.3460 -0.2198
10148SOL     OW31342   5.173   5.834   6.663  0.2778 -0.1969  0.0575
10148SOL    HW131343   5.228   5.784   6.596  0.7448  1.4683 -0.8674
10148SOL    HW231344   5.231   5.864   6.738  0.5479  0.9946 -0.5948
10149SOL     OW31345   4.994   2.250   1.225  0.1314 -0.4677 -0.0622
10149SOL    HW131346   4.935   2.246   1.145  0.1603 -2.4340 -0.0531
10149SOL    HW231347   4.961   2.185   1.294  1.1705 -0.1782  0.7473
10150SOL     OW31348   3.734   4.791   0.104  0.3679  0.2984  1.0078
10150SOL    HW131349   3.796   4.734   0.158  2.0625  1.4460  0.3595
10150SOL    HW231350   3.736   4.885   0.139  0.9789  0.9150 -0.5772
10151SOL     OW31351   1.954   5.285   4.717 -0.0557 -0.5564 -0.0588
10151SOL    HW131352   1.869   5.295   4.666  0.5142  0.2646 -0.8911
10151SOL    HW231353   2.031   5.304   4.656  0.6744 -0.2074  0.9465
10152SOL     OW31354   0.663   0.342   5.596 -0.5358 -0.4222  0.2740
10152SOL    HW131355   0.569   0.308   5.602  0.1682 -2.3472  0.9888
10152SOL    HW231356   0.685   0.361   5.500 -1.0199 -1.8363 -0.1341
10153SOL     OW31357   4.910   5.035   6.130 -0.6580 -0.3945 -0.1564
10153SOL    HW131358   4.912   4.936   6.138 -0.3088 -0.4353 -0.6702
10153SOL    HW231359   4.818   5.065   6.105 -0.5855 -0.6559 -0.7468
10154SOL     OW31360   4.899   1.257   3.605 -0.6127  0.1019 -0.5181
10154SOL    HW131361   4.908   1.333   3.540 -0.5376 -0.0400 -0.6754
10154SOL    HW231362   4.911   1.170   3.556 -0.1902  0.0083 -0.2492
10155SOL     OW31363   4.136   1.833   5.517 -0.3244 -0.3657 -0.6558
10155SOL    HW131364   4.105   1.801   5.607 -0.9424 -0.8247 -1.0305
10155SOL    HW231365   4.099   1.774   5.446  2.1264 -1.4920 -1.0931
10156SOL     OW31366   3.580   0.311   3.917 -0.1651 -0.1138  0.4546
10156SOL    HW131367   3.580   0.262   3.830 -0.4147  0.2575  0.2420
10156SOL    HW231368   3.593   0.409   3.899  1.5478 -0.2137  0.9360
10157SOL     OW31369   0.234   1.771   0.253 -0.5881 -0.0237 -0.1770
10157SOL    HW131370   0.194   1.722   0.176 -0.4036 -0.5643  0.0651
10157SOL    HW231371   0.295   1.710   0.303 -2.2609 -0.3359  1.6181
10158SOL     OW31372   6.314   4.271   6.224  0.0293  0.5083 -0.0050
10158SOL    HW131373   6.373   4.245   6.148  2.0779  0.7218  1.4336
10158SOL    HW231374   6.273   4.189   6.264 -2.2703  0.4741 -2.1316
10159SOL     OW31375   2.703   2.520   0.269  0.0566 -0.2772  0.0084
10159SOL    HW131376   2.664   2.537   0.178 -1.2267  0.8862  0.7383
10159SOL    HW231377   2.645   2.562   0.339  0.3089 -2.2189  1.4910
10160SOL     OW31378   2.471   2.570   2.966 -0.2867  0.1862  0.0775
10160SOL    HW131379   2.429   2.641   2.910  0.8367  1.4442  0.7706
10160SOL    HW231380   2.515   2.611   3.046  1.6699 -1.0891 -0.2440
10161SOL     OW31381   3.909   3.288   0.513  0.3797 -0.5916 -0.4647
10161SOL    HW131382   3.875   3.230   0.588 -2.7105  0.7307 -0.6954
10161SOL    HW231383   3.857   3.268   0.430  1.1742  0.5862 -1.2645
10162SOL     OW31384   4.764   6.095   1.577  0.3395 -0.1507 -0.5246
10162SOL    HW131385   4.771   6.004   1.616  1.3659 -0.3008 -1.0236
10162SOL    HW231386   4.727   6.158   1.645  0.1109 -0.8323 -0.0133
10163SOL     OW31387   6.427   4.692   5.607  0.3745 -0.2217  0.0165
10163SOL    HW131388   6.523   4.703   5.632  0.3881 -1.3493  0.5339
10163SOL    HW231389   6.373   4.765   5.650  1.0906  0.9092 -0.9595
10164SOL     OW31390   6.767   3.576   4.316 -0.1041 -0.4815 -0.2803
10164SOL    HW131391   6.745   3.574   4.414 -0.6708  2.9553 -0.2115
10164SOL    HW231392   6.864   3.556   4.304 -0.2715 -2.2312  0.7843
10165SOL     OW31393   0.136   0.561   1.992 -0.1128  0.5114 -0.1583
10165SOL    HW131394   0.187   0.567   1.906  0.6535 -0.2693  0.2247
10165SOL    HW231395   0.187   0.504   2.057  0.4620  2.9422  1.6509
10166SOL     OW31396   5.545   2.836   3.476 -0.2326  0.0943 -0.0458
10166SOL    HW131397   5.625   2.794   3.520 -2.3895 -1.8808  2.3819
10166SOL    HW231398   5.544   2.812   3.379  1.6337 -0.5563  0.0469
10167SOL     OW31399   6.174   4.366   0.636 -0.3596  0.1368  0.5527
10167SOL    HW131400   6.086   4.320   0.647  0.6423 -2.1667 -0.5116
10167SOL    HW231401   6.193   4.420   0.718 -1.6642 -1.2332  1.8308
10168SOL     OW31402   6.570   4.586   6.713 -0.3808  0.1552  0.2070
10168SOL    HW131403   6.479   4.545   6.722 -0.6678  0.7085 -0.1529
10168SOL    HW231404   6.594   4.633   6.798 -0.5730  0.2954  0.1843
10169SOL     OW31405   6.440   4.784   2.013  0.2105 -0.4412 -0.3916
10169SOL    HW131406   6.457   4.882   2.029 -2.9070  0.2905 -0.9353
10169SOL    HW231407   6.491   4.755   1.932  1.0412  0.7686 -0.3321
10170SOL     OW31408   6.644   6.036   5.399  0.3032  0.5682  0.1708
10170SOL    HW131409   6.549   6.063   5.418  0.6505  0.4472  2.2819
10170SOL    HW231410   6.675   6.082   5.316 -1.8306  0.0206 -1.0262
10171SOL     OW31411   1.380   2.984   4.276  0.0010  0.0368 -0.2975
10171SOL    HW131412   1.446   2.978   4.350  2.2911  1.7291 -2.0898
10171SOL    HW231413   1.366   3.079   4.250 -4.2786 -0.0687  0.8588
10172SOL     OW31414   6.358   6.333   4.677  0.5457 -0.6673  0.3939
10172SOL    HW131415   6.425   6.264   4.649  2.8603  0.5230  2.6961
10172SOL    HW231416   6.306   6.362   4.596  0.7817 -3.6371 -0.9847
10173SOL     OW31417   2.541   1.490   1.491 -0.2866 -0.3287 -0.1359
10173SOL    HW131418   2.616   1.503   1.555  0.4898 -3.2469 -0.2769
10173SOL    HW231419   2.572   1.515   1.399  0.0846 -0.2904 -0.0035
10174SOL     OW31420   5.249   3.466   2.602  0.5862 -0.2680 -0.0326
10174SOL    HW131421   5.252   3.528   2.681  1.4543  1.2916 -1.2464
10174SOL    HW231422   5.246   3.372   2.635  1.7292  0.3039  1.8820
10175SOL     OW31423   6.720   2.298   4.216 -0.2797 -0.4298  0.1264
10175SOL    HW131424   6.780   2.329   4.143  0.7213  0.7568  1.4131
10175SOL    HW231425   6.773   2.279   4.299 -1.2910 -2.4061  0.4029
10176SOL     OW31426   0.315   4.482   4.818  0.3078 -0.3472 -0.4890
10176SOL    HW131427   0.383   4.413   4.843  1.0080  0.0539 -1.2139
10176SOL    HW231428   0.288   4.534   4.899  0.7629 -0.6076 -0.1648
10177SOL     OW31429   1.864   0.315   1.685  0.3642  0.0185 -0.6576
10177SOL    HW131430   1.861   0.226   1.641  3.2257  0.2904 -1.6325
10177SOL    HW231431   1.902   0.304   1.777  0.1751  0.1675 -0.5624
10178SOL     OW31432   1.063   6.641   4.802 -0.4693  0.3228  0.4845
10178SOL    HW131433   1.044   6.620   4.706 -0.5217  1.4800  0.2282
10178SOL    HW231434   1.150   6.689   4.809 -1.1130  1.4889  0.8395
10179SOL     OW31435   0.946   1.696   5.445 -0.1666  0.0038 -0.3564
10179SOL    HW131436   0.849   1.675   5.450 -0.1220 -0.3104 -0.7361
10179SOL    HW231437   0.976   1.693   5.349  0.3216 -0.4010 -0.2004
10180SOL     OW31438   3.490   1.214   6.385 -0.0612 -0.3972 -0.4565
10180SOL    HW131439   3.434   1.136   6.357  1.6394 -1.8729  0.0671
10180SOL    HW231440   3.441   1.269   6.452 -1.6392 -0.4743 -1.4973
10181SOL     OW31441   0.072   4.243   1.247 -0.1083  0.2543  0.3550
10181SOL    HW131442  -0.011   4.276   1.201 -0.7104 -1.5654  0.0211
10181SOL    HW231443   0.053   4.152   1.286  1.4149  0.2980  1.2498
10182SOL     OW31444   5.622   3.772   2.080  0.2103 -0.2003 -0.1757
10182SOL    HW131445   5.661   3.765   2.171  0.3128 -0.6822 -0.2534
10182SOL    HW231446   5.543   3.711   2.072 -0.8826  1.1192  0.1351
10183SOL     OW31447   0.528   2.486   6.408  0.1344  0.4206 -0.0512
10183SOL    HW131448   0.477   2.463   6.491  1.1175  0.2342  0.5185
10183SOL    HW231449   0.567   2.402   6.370 -0.0919  0.5434 -0.5593
10184SOL     OW31450   4.831   0.994   5.599 -0.0766  0.1012 -0.3694
10184SOL    HW131451   4.799   1.013   5.507  0.5973 -0.0169 -0.6357
10184SOL    HW231452   4.827   1.077   5.654 -0.9839  0.0481 -0.3468
10185SOL     OW31453   4.493   5.009   2.929  0.0399 -0.1585  0.1117
10185SOL    HW131454   4.395   4.989   2.930  0.0657 -0.2662  1.0055
10185SOL    HW231455   4.545   4.924   2.933  0.2276 -0.2816 -2.6263
10186SOL     OW31456   4.665   4.114   5.203 -0.7009 -0.8164  0.0650
10186SOL    HW131457   4.702   4.092   5.113 -0.6465 -0.6412  0.0436
10186SOL    HW231458   4.617   4.202   5.199 -1.8973 -1.4606 -0.1191
10187SOL     OW31459   1.206   4.758   6.918  0.3412  0.2791 -0.1005
10187SOL    HW131460   1.158   4.724   6.999  0.0791 -0.3531 -0.5191
10187SOL    HW231461   1.185   4.855   6.906 -0.5284  0.1048 -0.0597
10188SOL     OW31462   3.169   6.526   2.876  0.0311  0.5607 -0.6463
10188SOL    HW131463   3.122   6.609   2.847 -2.6381 -0.9870 -1.0462
10188SOL    HW231464   3.112   6.446   2.856  2.5471 -1.4333 -0.4342
10189SOL     OW31465   6.719   1.797   4.698 -0.4725 -0.4587 -0.1258
10189SOL    HW131466   6.669   1.881   4.720 -2.4217 -1.1475 -1.6681
10189SOL    HW231467   6.706   1.730   4.771 -0.9334 -0.2595 -0.0199
10190SOL     OW31468   3.192   5.244   1.227 -0.2354  0.1210 -0.1418
10190SOL    HW131469   3.118   5.238   1.295 -0.3918 -0.2398 -0.3417
10190SOL    HW231470   3.207   5.154   1.187  2.5238 -0.6005  2.2125
10191SOL     OW31471   3.712   6.001   5.711 -0.0624  0.0489 -0.1423
10191SOL    HW131472   3.654   6.054   5.773  0.3351 -0.3531  0.5830
10191SOL    HW231473   3.715   5.906   5.742  0.7559  0.0072 -0.3385
10192SOL     OW31474   6.041   6.738   5.206  0.3791  0.2033  0.4047
10192SOL    HW131475   5.949   6.767   5.179  0.5862  0.4715 -0.0291
10192SOL    HW231476   6.094   6.716   5.124  0.4177 -0.8444  0.6932
10193SOL     OW31477   2.994   2.877   1.048 -0.4646 -0.5171  0.4828
10193SOL    HW131478   2.905   2.912   1.018 -0.0736 -1.5793 -2.2479
10193SOL    HW231479   3.061   2.951   1.046 -0.9458 -0.0507  1.0628
10194SOL     OW31480   5.802   6.015   4.700 -0.6774 -0.2514  0.0651
10194SOL    HW131481   5.862   6.034   4.777  1.1374  0.4496 -1.4483
10194SOL    HW231482   5.768   5.921   4.707  0.0046 -0.4273  1.3306
10195SOL     OW31483   3.007   6.158   1.281 -0.0720 -0.4154  0.3440
10195SOL    HW131484   2.977   6.241   1.233 -1.8164  0.0620  2.1427
10195SOL    HW231485   3.028   6.087   1.214 -0.6119  0.7985 -1.1734
10196SOL     OW31486   4.813   1.047   5.299 -0.1243 -0.2770  0.4435
10196SOL    HW131487   4.807   1.146   5.295 -2.1908 -0.3878 -0.6416
10196SOL    HW231488   4.796   1.009   5.207 -2.2611 -1.6815  1.3270
10197SOL     OW31489   6.387   1.416   5.478 -0.1616  0.0467 -0.1175
10197SOL    HW131490   6.334   1.365   5.410 -0.8452 -0.6445  0.9102
10197SOL    HW231491   6.337   1.500   5.501  1.0025  1.3035 -1.8711
10198SOL     OW31492   2.600   5.339   3.208 -0.4090  0.5475 -0.1108
10198SOL    HW131493   2.660   5.359   3.131 -0.5006 -2.6909 -1.2032
10198SOL    HW231494   2.507   5.367   3.186 -0.3077  0.2868 -0.9138
10199SOL     OW31495   2.001   2.971   0.732  0.3912  0.6874  0.3778
10199SOL    HW131496   2.036   2.926   0.815  0.9558  0.8680  0.2414
10199SOL    HW231497   2.046   3.060   0.721  2.3256 -0.4404 -1.5510
10200SOL     OW31498   4.465   4.230   0.764 -0.1918  0.3097 -0.4062
10200SOL    HW131499   4.554   4.207   0.726  0.8544 -0.4421  2.2615
10200SOL    HW231500   4.458   4.329   0.775  0.2146  0.3904 -0.8801
10201SOL     OW31501   1.277   6.852   0.898 -0.2421  0.0571 -0.2640
10201SOL    HW131502   1.217   6.775   0.919 -0.1939 -0.1401 -0.8291
10201SOL    HW231503   1.225   6.922   0.848 -0.2964  0.4137  0.2830
10202SOL     OW31504   3.807   4.655   1.219  0.0869  0.0786 -0.1980
10202SOL    HW131505   3.793   4.668   1.121  1.4927  0.1038 -0.4091
10202SOL    HW231506   3.872   4.723   1.253  1.5652 -1.5000  0.2366
10203SOL     OW31507   6.557   3.722   3.285 -0.2438  0.1064 -0.0340
10203SOL    HW131508   6.502   3.792   3.330 -0.2448 -1.0872  1.9455
10203SOL    HW231509   6.499   3.667   3.226 -1.0849 -0.6949  1.4879
10204SOL     OW31510   4.950   1.224   1.388  0.0320 -0.0219  0.5376
10204SOL    HW131511   4.858   1.237   1.352  0.9240 -1.1814 -2.5063
10204SOL    HW231512   5.009   1.298   1.356  1.2544 -2.0107 -2.2025
10205SOL     OW31513   2.919   0.177   1.959 -0.4989 -0.5947 -0.6309
10205SOL    HW131514   3.018   0.181   1.948 -0.5958 -0.2603 -1.4656
10205SOL    HW231515   2.884   0.268   1.979 -0.6729 -0.6670 -0.6018
10206SOL     OW31516   5.363   5.674   6.522  0.2677  0.6641  0.6586
10206SOL    HW131517   5.457   5.701   6.541  1.0268 -1.2726 -0.0987
10206SOL    HW231518   5.361   5.578   6.495 -1.6825  1.1613 -1.2007
10207SOL     OW31519   0.744   1.607   6.025  0.1536  0.2851 -0.0302
10207SOL    HW131520   0.797   1.588   6.107  1.7352 -0.0077 -1.0817
10207SOL    HW231521   0.712   1.522   5.984  0.5950  0.3370 -0.4932
10208SOL     OW31522   6.987   4.069   2.544 -0.3418 -0.1790 -0.3786
10208SOL    HW131523   6.957   4.156   2.505  1.8839  0.9734  0.2904
10208SOL    HW231524   7.051   4.025   2.480 -0.2982 -0.5836 -0.0592
10209SOL     OW31525   0.634   6.650   1.016  0.2525  0.1516 -0.0365
10209SOL    HW131526   0.538   6.668   1.035 -0.0869 -1.8816  0.4707
10209SOL    HW231527   0.655   6.673   0.921 -1.1611 -0.8094 -0.6188
10210SOL     OW31528   6.359   5.579   2.899 -0.1794  0.2782 -0.3071
10210SOL    HW131529   6.350   5.677   2.880  1.5019  0.5925  0.3721
10210SOL    HW231530   6.274   5.533   2.874 -0.7221  1.7798 -1.4029
10211SOL     OW31531   4.891   6.329   5.357 -0.2975 -0.1851 -0.3969
10211SOL    HW131532   4.935   6.337   5.267 -0.7607  1.5700 -0.4904
10211SOL    HW231533   4.960   6.345   5.429 -0.5727  1.8352 -0.5318
10212SOL     OW31534   1.082   0.167   3.968 -0.1993 -1.0559  0.2056
10212SOL    HW131535   1.131   0.222   3.901 -1.2597 -0.4963 -0.1296
10212SOL    HW231536   1.054   0.081   3.927 -0.7634 -0.7543 -0.0569
10213SOL     OW31537   5.727   1.720   4.135  0.3650 -0.2105  0.3541
10213SOL    HW131538   5.676   1.725   4.049  2.1557  1.7838 -0.6804
10213SOL    HW231539   5.692   1.789   4.198  1.5085  0.9638 -0.2515
10214SOL     OW31540   0.132   1.996   1.419  1.0172 -0.1891  0.1151
10214SOL    HW131541   0.196   2.045   1.360  0.6005  0.7013  0.3962
10214SOL    HW231542   0.116   2.049   1.503  0.7329 -0.9075  0.5232
10215SOL     OW31543   3.922   3.345   3.922 -0.0351  0.2698 -0.0985
10215SOL    HW131544   3.993   3.383   3.981 -0.3557  1.3146 -0.3584
10215SOL    HW231545   3.961   3.273   3.864 -0.5249 -3.9592  4.2435
10216SOL     OW31546   0.707   0.250   1.748  0.4711 -0.4688  0.0025
10216SOL    HW131547   0.734   0.301   1.666 -0.4174 -0.4254 -0.2732
10216SOL    HW231548   0.725   0.152   1.734  0.6067 -0.4274 -0.1189
10217SOL     OW31549   4.043   2.255   3.478 -0.3484  0.2011  0.0439
10217SOL    HW131550   3.951   2.215   3.482 -0.5220  0.6824  0.8577
10217SOL    HW231551   4.104   2.204   3.539 -0.0336 -0.1839 -0.5719
10218SOL     OW31552   2.154   2.489   1.266  0.3704  0.1163  0.4713
10218SOL    HW131553   2.171   2.557   1.338  1.9021 -0.8415  1.0568
10218SOL    HW231554   2.084   2.425   1.297 -2.4610  2.3660 -0.7856
10219SOL     OW31555   7.009   6.770   4.262 -0.2248 -0.2611 -0.8659
10219SOL    HW131556   6.931   6.832   4.268  1.0379  1.2570  1.5677
10219SOL    HW231557   7.089   6.821   4.230  0.4240 -1.0670 -0.5569
10220SOL     OW31558   5.443   1.799   6.562  0.0720 -0.2667 -0.1476
10220SOL    HW131559   5.384   1.785   6.483 -0.3643 -0.1940  0.1661
10220SOL    HW231560   5.463   1.711   6.604 -2.2694 -0.0776  1.5311
10221SOL     OW31561   0.440   5.696   4.746 -0.1964  0.3622  0.0359
10221SOL    HW131562   0.363   5.692   4.683 -0.6359  1.2523  0.4817
10221SOL    HW231563   0.437   5.618   4.808 -0.4309  0.1007 -0.3068
10222SOL     OW31564   3.375   2.915   4.858  0.1242 -0.0902  0.3850
10222SOL    HW131565   3.380   3.014   4.872 -2.4884  0.1913 -0.1638
10222SOL    HW231566   3.362   2.869   4.946 -0.3736  0.2140  0.4698
10223SOL     OW31567   1.761   5.006   0.008 -0.1945  0.5128 -0.3434
10223SOL    HW131568   1.814   5.081  -0.032  2.9274 -1.3890 -0.0996
10223SOL    HW231569   1.779   5.000   0.106  0.3153 -1.0399 -0.4985
10224SOL     OW31570   1.146   2.473   5.279  0.3786  0.0570  0.4994
10224SOL    HW131571   1.222   2.529   5.246  0.4932 -0.5624 -0.3466
10224SOL    HW231572   1.181   2.383   5.307  0.1969  0.3661  1.8045
10225SOL     OW31573   6.112   5.248   5.862 -0.1208 -0.1184 -0.0824
10225SOL    HW131574   6.117   5.261   5.763 -0.4688  0.1047 -0.0721
10225SOL    HW231575   6.124   5.337   5.908 -1.1417 -0.0302  0.0336
10226SOL     OW31576   0.641   1.402   0.347 -0.1146 -0.4550 -0.2683
10226SOL    HW131577   0.683   1.455   0.420  1.5058  0.4674 -1.8015
10226SOL    HW231578   0.620   1.310   0.381 -0.4278  0.2700  1.6390
10227SOL     OW31579   6.312   4.518   6.579 -0.1819 -0.4307  0.3885
10227SOL    HW131580   6.261   4.600   6.553  0.5382 -0.1329 -0.0998
10227SOL    HW231581   6.281   4.487   6.670 -0.7800  0.1041  0.3756
10228SOL     OW31582   3.276   5.637   2.766  0.3300 -0.4395 -0.5880
10228SOL    HW131583   3.293   5.732   2.741  1.1921 -0.7911 -1.3985
10228SOL    HW231584   3.355   5.581   2.742 -0.8603 -1.6743 -1.8638
10229SOL     OW31585   1.899   2.465   4.531  0.3261 -0.2693 -0.3118
10229SOL    HW131586   1.848   2.490   4.449  0.2397  2.2310  0.4043
10229SOL    HW231587   1.992   2.501   4.525  0.8185 -1.4291  0.0484
10230SOL     OW31588   4.644   6.383   2.568  0.1640  0.0544 -0.4637
10230SOL    HW131589   4.555   6.355   2.531 -0.2185  1.5306 -0.7662
10230SOL    HW231590   4.636   6.396   2.667  0.3821 -0.9821 -0.2998
10231SOL     OW31591   5.146   4.965   5.720  0.0915 -0.1221 -0.2973
10231SOL    HW131592   5.074   4.925   5.664 -0.0656 -0.4918  0.1613
10231SOL    HW231593   5.217   5.003   5.661 -0.1049 -0.4420 -0.7460
10232SOL     OW31594   3.600   2.115   4.140 -0.1113 -0.3910 -0.0411
10232SOL    HW131595   3.512   2.105   4.093  0.0331  1.4494 -0.7914
10232SOL    HW231596   3.674   2.094   4.077  0.0404  0.7219 -0.2600
10233SOL     OW31597   3.354   3.206   4.832  0.1731  0.1196  0.6860
10233SOL    HW131598   3.400   3.258   4.905  0.6188 -1.0191  1.2457
10233SOL    HW231599   3.274   3.257   4.800  0.5442  1.0997  1.2779
10234SOL     OW31600   4.994   0.142   1.005 -0.1738 -0.4575 -0.1503
10234SOL    HW131601   5.043   0.113   0.923  0.8667  0.0489  0.2698
10234SOL    HW231602   4.957   0.234   0.991 -2.0458 -1.2657 -0.8813
10235SOL     OW31603   3.628   2.945   1.555  0.0827 -0.3022 -0.4874
10235SOL    HW131604   3.561   2.937   1.629 -0.4839  1.0649 -0.8238
10235SOL    HW231605   3.612   3.030   1.505  1.2960 -0.5675 -1.3617
10236SOL     OW31606   2.479   1.317   0.868  0.4341 -0.1328 -0.5325
10236SOL    HW131607   2.440   1.376   0.938 -0.1595 -0.3035 -0.7108
10236SOL    HW231608   2.540   1.250   0.911  1.1253  0.6101 -0.3344
10237SOL     OW31609   0.984   2.480   6.559 -0.5543 -0.4481  0.2939
10237SOL    HW131610   0.886   2.482   6.539 -0.5224 -2.3145 -0.2233
10237SOL    HW231611   1.032   2.436   6.483  0.6864  0.3610  0.5838
10238SOL     OW31612   3.723   3.170   1.968 -0.0825  0.6413 -0.5488
10238SOL    HW131613   3.663   3.106   2.016 -1.0754  1.6055 -0.4611
10238SOL    HW231614   3.773   3.122   1.896 -1.2270 -0.1410 -0.8514
10239SOL     OW31615   0.937   3.312   4.548  0.4586  0.1111  0.3334
10239SOL    HW131616   0.947   3.411   4.546 -0.6402  0.2280 -1.4103
10239SOL    HW231617   1.011   3.269   4.496  0.9181  0.0031  1.0644
10240SOL     OW31618   1.458   3.828   2.152  0.3764  0.3644  0.1086
10240SOL    HW131619   1.403   3.909   2.170  0.2092  0.2401  0.1615
10240SOL    HW231620   1.530   3.850   2.087 -0.7155  0.1469 -1.2211
10241SOL     OW31621   4.955   5.955   2.823  0.2247 -0.0597  0.0438
10241SOL    HW131622   4.997   5.930   2.910  2.3272 -0.8253 -1.1015
10241SOL    HW231623   4.945   6.054   2.818 -0.9559 -0.0664  1.5590
10242SOL     OW31624   0.711   6.555   1.900 -0.7887 -0.3292 -0.5072
10242SOL    HW131625   0.640   6.578   1.967 -0.0838 -0.2671  0.2230
10242SOL    HW231626   0.801   6.563   1.942 -0.3891 -1.6002 -1.0649
10243SOL     OW31627   2.156   6.005   2.443  0.0769 -0.1090  0.1626
10243SOL    HW131628   2.131   6.102   2.436  2.2110  0.6591  1.9030
10243SOL    HW231629   2.187   5.972   2.354  0.1049  1.0595 -0.2829
10244SOL     OW31630   1.634   3.289   6.761  0.0972 -0.8187  0.0327
10244SOL    HW131631   1.544   3.333   6.759  0.2632 -0.3158  1.7378
10244SOL    HW231632   1.672   3.286   6.669 -0.5652  1.3357 -0.3710
10245SOL     OW31633   3.023   1.879   1.098  0.1727 -0.3054 -0.0327
10245SOL    HW131634   3.079   1.917   1.171  0.5595 -0.5978 -0.1709
10245SOL    HW231635   2.953   1.819   1.138  1.3076 -1.6317  0.0233
10246SOL     OW31636   3.853   2.966   2.830  0.0035  0.0943 -0.0426
10246SOL    HW131637   3.901   3.023   2.897  1.1811 -1.3347  0.3917
10246SOL    HW231638   3.805   2.893   2.878 -1.5637  0.7375 -0.5850
10247SOL     OW31639   6.621   2.965   4.666  0.5901  0.5697  0.0730
10247SOL    HW131640   6.702   2.980   4.608  1.4403 -1.4577  0.6473
10247SOL    HW231641   6.554   2.910   4.617  1.0660 -0.6658  0.7557
10248SOL     OW31642   2.340   6.018   0.813 -0.4916  0.2975  0.8336
10248SOL    HW131643   2.366   5.923   0.826 -0.3870  0.4773  2.0711
10248SOL    HW231644   2.360   6.046   0.719  0.7641 -0.5050  0.8433
10249SOL     OW31645   4.175   5.448   6.600  0.3656  0.5235  0.2168
10249SOL    HW131646   4.111   5.478   6.528 -1.6105 -0.2943  1.5381
10249SOL    HW231647   4.250   5.513   6.606 -0.1823  1.4061 -1.5883
10250SOL     OW31648   0.465   2.820   1.861  0.7575  0.4964 -0.2387
10250SOL    HW131649   0.457   2.721   1.873  1.1194  0.4660 -0.2200
10250SOL    HW231650   0.391   2.853   1.803 -0.7514  0.5595  1.6216
10251SOL     OW31651   1.704   1.579   3.136  0.5008 -0.3482 -0.2350
10251SOL    HW131652   1.744   1.670   3.122 -2.3157  1.0942  0.3917
10251SOL    HW231653   1.699   1.531   3.048 -0.3983  1.2259 -1.0918
10252SOL     OW31654   4.129   3.289   5.721 -1.0180 -0.4384  0.6150
10252SOL    HW131655   4.213   3.262   5.767 -1.0719 -1.0867  0.3373
10252SOL    HW231656   4.122   3.389   5.722  1.5165 -0.0821 -2.4008
10253SOL     OW31657   3.148   6.005   0.169  0.5933  0.5071  0.1120
10253SOL    HW131658   3.162   6.084   0.228 -0.5379  0.8320 -0.0263
10253SOL    HW231659   3.200   5.927   0.203  0.6297  0.9290  1.0351
10254SOL     OW31660   4.205   1.268   5.117 -0.3696 -0.4549 -0.6589
10254SOL    HW131661   4.276   1.337   5.134 -0.2311 -0.3226 -1.6892
10254SOL    HW231662   4.117   1.302   5.151  0.2645 -1.2366  1.9760
10255SOL     OW31663   3.586   1.024   0.937 -0.2358  0.2166  0.1507
10255SOL    HW131664   3.663   1.046   0.997 -0.1184  0.2503 -0.0117
10255SOL    HW231665   3.603   0.938   0.890  0.5281  1.0718 -1.2357
10256SOL     OW31666   5.741   1.066   1.571  0.0407 -0.1292 -0.4140
10256SOL    HW131667   5.696   1.154   1.556 -2.2779 -1.2169 -0.3579
10256SOL    HW231668   5.751   1.049   1.669  1.8837  0.6810 -0.4243
10257SOL     OW31669   2.869   0.202   4.917  0.2628  0.0626  0.2255
10257SOL    HW131670   2.896   0.106   4.909 -2.3736 -0.8046  0.6770
10257SOL    HW231671   2.917   0.244   4.994 -0.7814 -1.8337  2.0121
10258SOL     OW31672   2.303   1.901   3.592 -0.3712 -0.1145 -0.2821
10258SOL    HW131673   2.245   1.974   3.630 -0.0903 -0.7878  1.5232
10258SOL    HW231674   2.293   1.900   3.493 -2.3982  0.6795 -0.1486
10259SOL     OW31675   1.432   5.510   1.107  0.5392 -0.5792  0.4488
10259SOL    HW131676   1.526   5.529   1.135  0.5826  0.2249 -0.1821
10259SOL    HW231677   1.370   5.573   1.153  0.4616 -0.2040 -0.1554
10260SOL     OW31678   0.726   1.293   3.266 -0.3531 -0.5640 -0.5356
10260SOL    HW131679   0.713   1.197   3.289  0.5382 -0.4852  0.3491
10260SOL    HW231680   0.689   1.350   3.339  2.0942 -0.3108  0.6350
10261SOL     OW31681   6.396   3.771   1.126  0.1707 -0.7575 -0.7729
10261SOL    HW131682   6.384   3.800   1.221 -2.2937 -0.7201 -1.0338
10261SOL    HW231683   6.399   3.671   1.121 -1.8604 -0.8507 -0.8049
10262SOL     OW31684   1.873   1.015   5.958  0.3666 -0.1932  0.2144
10262SOL    HW131685   1.933   0.951   6.005  0.0797  0.0722  0.9624
10262SOL    HW231686   1.865   1.099   6.013  1.2181  0.7354 -1.0256
10263SOL     OW31687   4.198   0.883   0.144 -0.0877  0.2963 -0.2706
10263SOL    HW131688   4.162   0.852   0.232  1.1361  1.9668  0.8909
10263SOL    HW231689   4.127   0.877   0.074 -2.0086  1.5871  1.4646
10264SOL     OW31690   5.421   5.985   4.087  0.1180  0.9277  0.5588
10264SOL    HW131691   5.447   6.015   4.179 -0.6425  2.0764  0.4109
10264SOL    HW231692   5.368   5.901   4.094 -0.6894  1.4716  1.2560
10265SOL     OW31693   2.402   3.037   6.857  0.6063 -0.4288 -0.5422
10265SOL    HW131694   2.374   2.955   6.807  0.2319  0.1463 -1.2991
10265SOL    HW231695   2.349   3.044   6.942 -0.8264  0.0728 -1.4325
10266SOL     OW31696   3.251   4.043   3.162  0.5092  0.4044 -0.1730
10266SOL    HW131697   3.214   4.134   3.140 -3.3145 -0.9431 -0.0205
10266SOL    HW231698   3.188   3.973   3.129  2.7130 -2.2033  0.8425
10267SOL     OW31699   4.418   2.956   0.751  0.5007  0.3934  0.6053
10267SOL    HW131700   4.431   2.871   0.701  3.8800  0.4207  1.1907
10267SOL    HW231701   4.442   2.943   0.847 -1.5327  1.4114  1.3067
10268SOL     OW31702   5.954   6.499   2.985  0.0566 -0.2458 -0.1801
10268SOL    HW131703   5.925   6.405   2.963 -0.4443 -0.0956 -0.1668
10268SOL    HW231704   6.053   6.501   2.994  0.0230 -0.9217  0.4803
10269SOL     OW31705   0.261   3.981   5.064  0.5701  0.2824 -0.0720
10269SOL    HW131706   0.352   4.024   5.065  0.3767  0.6952  1.0470
10269SOL    HW231707   0.191   4.050   5.081 -0.0760  0.1785 -2.1080
10270SOL     OW31708   4.328   5.727   1.272 -0.6900 -0.1417  0.2853
10270SOL    HW131709   4.366   5.655   1.330  0.1972 -0.3553 -0.5422
10270SOL    HW231710   4.388   5.743   1.195 -1.3135  0.9007 -0.0069
10271SOL     OW31711   4.960   2.296   6.040 -0.5556  0.4691  0.3392
10271SOL    HW131712   5.004   2.291   5.951 -0.6401  1.4199  0.2398
10271SOL    HW231713   5.005   2.231   6.103 -1.2492 -1.0638 -0.6908
10272SOL     OW31714   0.823   0.896   5.905 -0.2583 -0.0331  0.0472
10272SOL    HW131715   0.843   0.941   5.819 -1.3829 -1.1011 -0.8043
10272SOL    HW231716   0.908   0.870   5.951  0.3867  2.1031  0.1402
10273SOL     OW31717   3.833   5.902   2.204 -0.1009 -0.1701 -0.5096
10273SOL    HW131718   3.818   5.957   2.286  0.2596 -0.6697 -0.1015
10273SOL    HW231719   3.767   5.827   2.201  0.3929 -0.6208 -0.2571
10274SOL     OW31720   1.142   5.285   0.360  0.2944 -0.0206 -0.2221
10274SOL    HW131721   1.156   5.332   0.272  2.3006 -1.5636 -0.7838
10274SOL    HW231722   1.220   5.302   0.420  0.9325 -2.3198 -0.3214
10275SOL     OW31723   6.623   5.465   3.313 -0.0131 -0.2701  0.2666
10275SOL    HW131724   6.698   5.418   3.361  0.5528 -0.1952 -0.5069
10275SOL    HW231725   6.635   5.564   3.320 -0.1514 -0.2576  0.3164
10276SOL     OW31726   3.706   3.888   5.928  0.6036 -0.4145  0.3452
10276SOL    HW131727   3.677   3.812   5.986  0.8524  0.4707  1.6597
10276SOL    HW231728   3.679   3.869   5.833  1.9004 -2.7739  0.3811
10277SOL     OW31729   0.839   6.577   0.340  0.0681  0.0899  0.2574
10277SOL    HW131730   0.895   6.522   0.401 -0.8445 -0.7563  0.3580
10277SOL    HW231731   0.778   6.517   0.288 -2.7867  1.1053  2.1991
10278SOL     OW31732   0.458   3.279   4.686 -0.0169 -0.4131  0.0369
10278SOL    HW131733   0.416   3.295   4.776  1.8133  2.0088  0.5662
10278SOL    HW231734   0.544   3.229   4.698  0.1066 -0.3022 -0.3887
10279SOL     OW31735   1.037   2.642   3.109 -0.7031 -0.1664  0.2039
10279SOL    HW131736   1.091   2.596   3.038 -1.3463 -0.6233  0.0049
10279SOL    HW231737   0.983   2.715   3.067 -1.1162 -0.4652  0.2105
10280SOL     OW31738   0.337   3.017   5.913 -0.2430 -0.0968 -0.6478
10280SOL    HW131739   0.346   2.964   5.828  2.8014 -0.7789 -0.0291
10280SOL    HW231740   0.243   3.048   5.923 -0.9235 -0.7959 -3.7742
10281SOL     OW31741   4.682   0.374   3.436  0.2232 -0.1480  0.2860
10281SOL    HW131742   4.622   0.448   3.466  0.6137  0.3008 -0.0174
10281SOL    HW231743   4.767   0.376   3.488 -0.1357 -0.9757  0.9308
10282SOL     OW31744   4.906   4.696   5.869  0.0563 -0.9344  0.2497
10282SOL    HW131745   4.895   4.597   5.855  1.3515 -1.1169  0.4360
10282SOL    HW231746   4.869   4.745   5.790 -0.0857 -1.5961 -0.0982
10283SOL     OW31747   0.116   3.323   6.719 -0.1206  0.7429 -0.2093
10283SOL    HW131748   0.033   3.274   6.747  0.2334 -0.0235 -0.4766
10283SOL    HW231749   0.102   3.362   6.628  0.3278 -0.6905 -0.9200
10284SOL     OW31750   4.654   1.086   3.719 -0.0142  0.0907 -0.1910
10284SOL    HW131751   4.735   1.141   3.741 -0.8039  1.2160 -0.0288
10284SOL    HW231752   4.575   1.145   3.709 -0.6672 -0.9136 -1.2069
10285SOL     OW31753   5.409   1.865   1.205 -0.0024 -0.1573  0.5129
10285SOL    HW131754   5.508   1.879   1.208 -0.0170 -0.1688  1.5553
10285SOL    HW231755   5.365   1.929   1.268 -0.7027  0.1040 -0.2201
10286SOL     OW31756   4.726   1.497   3.696 -0.2633 -0.1126 -0.0628
10286SOL    HW131757   4.702   1.417   3.752 -3.7079 -0.5220 -1.8229
10286SOL    HW231758   4.710   1.476   3.600  0.7192  2.1077 -0.7660
10287SOL     OW31759   3.633   5.344   2.929 -0.2329 -0.4171 -0.2110
10287SOL    HW131760   3.645   5.443   2.936  2.4228 -0.5487 -1.4197
10287SOL    HW231761   3.588   5.309   3.011 -0.0580  1.6357  0.8160
10288SOL     OW31762   4.228   5.766   5.938 -0.1346  0.6248  0.0884
10288SOL    HW131763   4.314   5.750   5.985 -0.3707  0.3821  0.4350
10288SOL    HW231764   4.237   5.738   5.842  0.0634  0.2711  0.2087
10289SOL     OW31765   2.676   6.686   1.086 -0.2994 -0.5371 -1.1834
10289SOL    HW131766   2.722   6.762   1.131  0.4999 -2.3351  1.2384
10289SOL    HW231767   2.607   6.647   1.147  0.2928 -2.6123 -1.7340
10290SOL     OW31768   2.981   3.609   2.499 -0.1451 -0.1422  0.1065
10290SOL    HW131769   2.939   3.628   2.588  0.2146  0.6569  0.1112
10290SOL    HW231770   2.979   3.691   2.443  0.6574 -0.3291 -0.2060
10291SOL     OW31771   3.138   1.157   2.747  0.2503  0.2514 -0.0070
10291SOL    HW131772   3.143   1.123   2.841  1.6193 -1.3356 -0.6009
10291SOL    HW231773   3.163   1.254   2.745  1.6484 -0.0474  1.1097
10292SOL     OW31774   1.317   2.557   6.945  0.1897 -0.0299  0.1080
10292SOL    HW131775   1.229   2.583   6.905  0.2339 -0.5724 -0.3620
10292SOL    HW231776   1.318   2.458   6.959  0.1121  0.1653  1.6309
10293SOL     OW31777   1.846   3.844   2.867 -0.0642  0.2908 -0.2655
10293SOL    HW131778   1.838   3.787   2.949  0.7423  0.5859  0.0278
10293SOL    HW231779   1.781   3.812   2.798 -0.2832 -0.3877  0.2414
10294SOL     OW31780   5.685   1.762   2.847 -0.1519 -0.4182 -0.1576
10294SOL    HW131781   5.701   1.851   2.805  0.1429 -0.4613 -0.1379
10294SOL    HW231782   5.643   1.775   2.937  2.9655 -0.0958  1.3879
10295SOL     OW31783   0.242   3.976   3.185  0.0496  0.2364  0.1649
10295SOL    HW131784   0.237   3.877   3.171  1.9164  0.2633 -0.8769
10295SOL    HW231785   0.213   4.023   3.102  0.9816  0.5233 -0.0089
10296SOL     OW31786   4.205   2.908   6.520 -0.3729 -0.1399  0.1426
10296SOL    HW131787   4.210   2.882   6.617 -1.1695  1.0212  0.5171
10296SOL    HW231788   4.297   2.930   6.488 -0.3736  2.0987  1.4417
10297SOL     OW31789   0.271   5.390   0.802  0.0079  0.1111  0.3927
10297SOL    HW131790   0.184   5.415   0.845 -3.2671 -2.4054 -4.0273
10297SOL    HW231791   0.291   5.453   0.728  0.2741 -1.0825 -0.5815
10298SOL     OW31792   3.107   5.773   0.929 -0.3245  0.6044  0.0901
10298SOL    HW131793   3.118   5.689   0.981 -0.1202  0.8931  0.5170
10298SOL    HW231794   3.191   5.792   0.877  1.1593  2.5095  2.9091
10299SOL     OW31795   5.698   3.757   3.738 -0.5689  0.7072  0.4090
10299SOL    HW131796   5.752   3.810   3.803  0.4484  1.4543 -1.0046
10299SOL    HW231797   5.758   3.699   3.684 -1.4726 -0.4056  0.5602
10300SOL     OW31798   0.742   4.164   2.555 -0.5488 -0.3289 -0.0967
10300SOL    HW131799   0.786   4.100   2.618  0.3311  0.6045  0.2585
10300SOL    HW231800   0.747   4.256   2.593 -1.9003 -0.0529 -0.5472
10301SOL     OW31801   5.006   2.667   5.892  0.1734 -0.0663  0.0545
10301SOL    HW131802   4.948   2.743   5.921  0.8747  0.0343  1.2284
10301SOL    HW231803   4.967   2.626   5.809 -1.6800 -0.1420  0.9234
10302SOL     OW31804   1.687   0.733   4.631  0.3703  0.0106 -0.5729
10302SOL    HW131805   1.629   0.714   4.710 -0.3473  0.0186 -1.0883
10302SOL    HW231806   1.736   0.818   4.646  0.7463 -0.3218  0.1456
10303SOL     OW31807   3.203   6.358   3.147  0.0296 -0.0981  0.1008
10303SOL    HW131808   3.184   6.411   3.064  1.7972 -1.0612 -0.9918
10303SOL    HW231809   3.299   6.371   3.173 -0.5586  0.3558  2.1543
10304SOL     OW31810   0.659   6.119   1.705 -0.0662 -0.1699  0.3005
10304SOL    HW131811   0.686   6.023   1.709  0.1825 -0.0746  1.1517
10304SOL    HW231812   0.649   6.147   1.610 -1.8341 -1.5008  0.0546
10305SOL     OW31813   0.507   2.822   5.497 -0.0996 -0.2970  0.1437
10305SOL    HW131814   0.579   2.874   5.543 -1.7575  0.3058  2.2206
10305SOL    HW231815   0.521   2.725   5.513 -0.0363 -0.1536  0.9727
10306SOL     OW31816   4.758   0.047   0.213 -0.4699 -0.2430  0.0299
10306SOL    HW131817   4.844   0.091   0.238  0.7065 -1.5397 -1.5161
10306SOL    HW231818   4.709   0.020   0.295  1.2416 -0.6502  0.9620
10307SOL     OW31819   3.588   2.889   5.144 -0.3558  0.4666  0.1753
10307SOL    HW131820   3.639   2.858   5.224 -0.4641  2.0608  0.8807
10307SOL    HW231821   3.648   2.890   5.064  0.3849  1.1536  0.7421
10308SOL     OW31822   6.166   4.897   3.597  0.1162  0.3920 -0.5072
10308SOL    HW131823   6.146   4.995   3.607 -1.3823 -0.0049  0.8594
10308SOL    HW231824   6.247   4.873   3.650 -0.5015  0.6029  0.5478
10309SOL     OW31825   5.195   1.570   6.729 -0.4910  0.8566 -0.0643
10309SOL    HW131826   5.240   1.492   6.685  1.7688  1.4225  1.1254
10309SOL    HW231827   5.121   1.536   6.788 -0.5484 -0.2367 -0.7293
10310SOL     OW31828   3.071   4.375   1.268  0.3168  0.0973  0.7089
10310SOL    HW131829   3.159   4.406   1.234  0.2177  0.1883  0.5311
10310SOL    HW231830   3.006   4.371   1.192  0.1524  0.0900  0.8497
10311SOL     OW31831   0.487   5.405   1.578 -0.0079  0.0157  0.3520
10311SOL    HW131832   0.424   5.385   1.504 -0.9961 -2.7891  1.8017
10311SOL    HW231833   0.438   5.452   1.652  0.0543 -0.4399  0.6890
10312SOL     OW31834   4.818   5.217   1.698  0.1251 -0.1517  0.4603
10312SOL    HW131835   4.725   5.196   1.727 -0.0181 -0.1488  0.0043
10312SOL    HW231836   4.844   5.308   1.730 -1.3536  1.4181 -2.4872
10313SOL     OW31837   5.521   1.278   3.021  0.1477  0.2404 -0.1058
10313SOL    HW131838   5.501   1.272   3.119  2.3701 -0.6567  0.3556
10313SOL    HW231839   5.523   1.186   2.982  1.9385  0.3547 -0.3619
10314SOL     OW31840   0.686   6.518   1.614  0.0592 -0.5757  0.6208
10314SOL    HW131841   0.660   6.530   1.709  1.7703 -1.7313  1.2852
10314SOL    HW231842   0.656   6.428   1.582  1.5346 -1.1635  0.8288
10315SOL     OW31843   5.599   6.170   4.808  0.1092 -0.3411 -0.6355
10315SOL    HW131844   5.682   6.144   4.757  0.1000  0.0971 -0.8774
10315SOL    HW231845   5.531   6.097   4.800  0.5073 -0.7438 -0.3564
10316SOL     OW31846   5.851   0.041   4.613  0.3724  0.6649  0.0767
10316SOL    HW131847   5.776   0.102   4.639  0.9168  0.5003  2.2338
10316SOL    HW231848   5.929   0.095   4.581  0.0216  0.9336 -0.3418
10317SOL     OW31849   5.444   5.563   5.764  0.3728  0.6773 -0.2622
10317SOL    HW131850   5.416   5.563   5.668  0.7363 -1.9074 -0.4212
10317SOL    HW231851   5.398   5.488   5.813  1.5147  0.8739  1.1793
10318SOL     OW31852   0.133   0.462   5.289  0.4586 -0.4796 -0.1386
10318SOL    HW131853   0.184   0.390   5.337 -2.2113 -1.4963  1.3843
10318SOL    HW231854   0.175   0.550   5.309  0.7107 -1.0927  2.4092
10319SOL     OW31855   6.895   2.932   5.390  0.5014  0.1373 -0.3871
10319SOL    HW131856   6.903   2.832   5.385 -0.4470 -0.1194  1.9531
10319SOL    HW231857   6.941   2.965   5.473  0.9214  1.6948 -1.1929
10320SOL     OW31858   6.939   1.876   1.987  0.1787  0.3866 -0.3316
10320SOL    HW131859   6.914   1.878   2.084  0.4187  2.9698 -0.2581
10320SOL    HW231860   6.962   1.782   1.961 -0.2468 -0.4404  1.9990
10321SOL     OW31861   3.464   1.500   1.475 -0.0458  0.5691  0.2052
10321SOL    HW131862   3.472   1.440   1.395 -0.8537  2.6590 -1.5315
10321SOL    HW231863   3.410   1.454   1.546 -0.5627 -0.7838 -1.0196
10322SOL     OW31864   0.762   6.720   5.731 -0.2050  0.1663 -0.2625
10322SOL    HW131865   0.669   6.682   5.728 -0.1195 -0.0345 -2.7024
10322SOL    HW231866   0.764   6.806   5.681  0.8644  0.3056  0.0063
10323SOL     OW31867   5.758   3.546   4.039  0.6560 -0.3367 -0.4631
10323SOL    HW131868   5.670   3.573   4.080  0.4993 -2.5896  0.8940
10323SOL    HW231869   5.830   3.609   4.069  0.0196 -0.2495  0.9619
10324SOL     OW31870   2.601   3.645   1.738  0.2597 -0.1134  0.2851
10324SOL    HW131871   2.697   3.672   1.745  0.4817 -1.0887  1.4079
10324SOL    HW231872   2.595   3.545   1.739 -0.7578 -0.0622  0.1284
10325SOL     OW31873   2.381   2.561   2.537  0.3311  0.5480  0.1537
10325SOL    HW131874   2.338   2.644   2.502 -0.6381 -0.0638 -0.1347
10325SOL    HW231875   2.340   2.480   2.494  0.8535 -0.1140  0.8488
10326SOL     OW31876   2.713   5.534   2.997  0.1564  0.1899 -0.2743
10326SOL    HW131877   2.809   5.507   2.987  0.5962  1.8709 -1.0027
10326SOL    HW231878   2.664   5.516   2.912  0.2440  0.8115 -0.4653
10327SOL     OW31879   2.426   2.937   0.837  0.5060 -1.0349 -0.0720
10327SOL    HW131880   2.389   2.859   0.886 -1.5334  0.0291  0.1726
10327SOL    HW231881   2.447   3.010   0.902  0.0163 -0.4772 -0.5221
10328SOL     OW31882   6.409   2.813   0.513 -0.3212  0.1702  0.0991
10328SOL    HW131883   6.409   2.725   0.466  3.1456  0.3906 -0.5485
10328SOL    HW231884   6.390   2.798   0.610 -0.4988 -1.1690 -0.1172
10329SOL     OW31885   2.610   0.702   1.903  0.1867 -0.2672  0.5272
10329SOL    HW131886   2.699   0.740   1.875 -0.8181  1.0628 -1.0278
10329SOL    HW231887   2.537   0.746   1.851 -1.2317 -3.2673 -0.2357
10330SOL     OW31888   4.957   1.215   4.579  0.1653 -0.5028 -0.1310
10330SOL    HW131889   5.005   1.231   4.493  0.2208  1.0362  0.1450
10330SOL    HW231890   4.872   1.269   4.581 -0.1782 -1.0470  0.4979
10331SOL     OW31891   0.571   0.589   0.390  0.0391 -0.0335 -0.1197
10331SOL    HW131892   0.542   0.673   0.345  0.1112 -0.3805 -0.8274
10331SOL    HW231893   0.654   0.606   0.443 -0.6069  0.6146  0.7186
10332SOL     OW31894   6.508   1.893   1.562  0.4614 -0.4455 -0.7760
10332SOL    HW131895   6.505   1.825   1.636  1.4422  1.0683  0.7235
10332SOL    HW231896   6.570   1.861   1.490 -0.9897 -2.2329 -1.3216
10333SOL     OW31897   5.709   2.471   5.560  0.3110 -0.2902  0.0015
10333SOL    HW131898   5.767   2.465   5.641  0.3667  2.4414  0.2792
10333SOL    HW231899   5.637   2.539   5.575  0.0335 -0.0379 -2.0620
10334SOL     OW31900   0.524   1.299   4.785 -0.0762 -0.2562 -0.2714
10334SOL    HW131901   0.483   1.207   4.787 -0.3959 -0.1111  1.3391
10334SOL    HW231902   0.618   1.293   4.752 -0.3767 -1.0446 -1.0055
10335SOL     OW31903   1.285   4.698   1.671  0.5991 -0.0558  0.2198
10335SOL    HW131904   1.339   4.622   1.636  2.4307  1.3214 -0.0898
10335SOL    HW231905   1.210   4.717   1.607  0.9809 -0.6695 -0.4276
10336SOL     OW31906   0.416   6.294   2.127  0.2444  0.1789 -0.1798
10336SOL    HW131907   0.457   6.210   2.091  0.8603  0.2272  0.3972
10336SOL    HW231908   0.388   6.279   2.222  1.8644  1.1126  0.4723
10337SOL     OW31909   1.753   6.986   0.245  0.4691 -0.1824 -0.3564
10337SOL    HW131910   1.829   6.922   0.254 -0.0671 -0.6974  0.7323
10337SOL    HW231911   1.668   6.935   0.231 -0.2510  0.1030  2.3522
10338SOL     OW31912   3.334   5.815   4.061  0.2713 -0.2351 -0.2782
10338SOL    HW131913   3.375   5.901   4.029  0.0276  0.2447  0.6645
10338SOL    HW231914   3.236   5.828   4.076  0.0492 -0.9532 -1.0423
10339SOL     OW31915   4.840   5.179   0.510  0.7313  0.0028  0.0303
10339SOL    HW131916   4.807   5.260   0.461 -1.4716 -0.3403  0.7984
10339SOL    HW231917   4.937   5.188   0.529  1.6742  0.3474 -3.9617
10340SOL     OW31918   3.172   3.304   1.573  0.0780  0.1313  0.0290
10340SOL    HW131919   3.224   3.238   1.627  0.1174  1.3592  1.5791
10340SOL    HW231920   3.223   3.326   1.490  0.9249 -0.4272  0.3826
10341SOL     OW31921   0.885   3.503   2.471 -0.2151  0.1147  0.1920
10341SOL    HW131922   0.915   3.480   2.379  0.9247  1.9044  0.0709
10341SOL    HW231923   0.789   3.476   2.483 -0.4539  0.0791 -1.5837
10342SOL     OW31924   1.252   5.881   4.467 -0.0147 -0.1224 -0.4882
10342SOL    HW131925   1.246   5.812   4.539 -1.2175  0.7653  0.3122
10342SOL    HW231926   1.342   5.923   4.467 -0.0624  0.0009  0.6446
10343SOL     OW31927   3.719   4.356   0.604  0.5628 -0.1321 -0.1030
10343SOL    HW131928   3.730   4.283   0.536 -0.6446 -1.8128  1.3948
10343SOL    HW231929   3.656   4.325   0.675  0.5147  2.1782  0.9390
10344SOL     OW31930   4.035   4.544   1.421  0.1295  0.3867  0.1606
10344SOL    HW131931   4.134   4.558   1.415  0.1095  0.4755  0.0374
10344SOL    HW231932   4.010   4.524   1.516  0.4209 -0.8598 -0.0083
10345SOL     OW31933   2.511   2.693   0.494 -0.6181  0.7485  0.3556
10345SOL    HW131934   2.477   2.701   0.401  0.2281 -0.3990 -0.0611
10345SOL    HW231935   2.594   2.748   0.504 -0.5110  0.5870  0.3427
10346SOL     OW31936   1.607   5.685   2.606 -0.4637 -0.2674  0.1614
10346SOL    HW131937   1.616   5.592   2.570 -0.1480 -0.0467 -0.3334
10346SOL    HW231938   1.624   5.684   2.704  0.1463 -0.6353  0.0567
10347SOL     OW31939   5.239   2.002   3.356  0.4362  0.1327 -0.1795
10347SOL    HW131940   5.284   1.913   3.366 -0.2230 -0.2190 -0.2376
10347SOL    HW231941   5.283   2.069   3.416 -0.9740 -0.9786  2.2641
10348SOL     OW31942   0.047   2.199   0.359 -0.0829  0.1436 -0.0181
10348SOL    HW131943  -0.035   2.163   0.403  0.5893 -0.2470  0.9313
10348SOL    HW231944   0.078   2.136   0.288 -1.2631  0.8537 -1.2195
10349SOL     OW31945   6.427   2.376   6.537  0.2036 -0.4012 -0.0247
10349SOL    HW131946   6.329   2.389   6.551  0.3538 -0.3750  1.0735
10349SOL    HW231947   6.449   2.279   6.548  0.4542 -0.2587  0.7237
10350SOL     OW31948   1.338   1.010   5.903 -0.3227  0.2101 -0.3984
10350SOL    HW131949   1.344   1.106   5.931  0.3699 -0.4067  1.7775
10350SOL    HW231950   1.423   0.963   5.927 -1.6091 -1.5242  1.0618
10351SOL     OW31951   3.927   3.672   5.266  0.0517 -0.6747  0.2570
10351SOL    HW131952   3.969   3.762   5.278  2.4078 -1.5820 -0.5462
10351SOL    HW231953   3.963   3.609   5.336 -1.6639 -0.9968  0.9014
10352SOL     OW31954   5.189   1.454   6.138 -0.6326  0.0053 -0.1575
10352SOL    HW131955   5.137   1.372   6.161 -0.1371 -0.3611 -0.3132
10352SOL    HW231956   5.224   1.446   6.044 -2.2797  1.2979 -0.9174
10353SOL     OW31957   0.233   1.170   6.268  0.3559  0.0119  0.3231
10353SOL    HW131958   0.276   1.166   6.358 -0.6752 -0.8660  0.8007
10353SOL    HW231959   0.137   1.196   6.278  0.5200  1.0667 -0.6397
10354SOL     OW31960   5.885   2.114   1.562 -0.0801  0.5741 -0.5341
10354SOL    HW131961   5.798   2.163   1.554 -0.7390 -0.4626  0.1286
10354SOL    HW231962   5.916   2.088   1.470 -1.9633 -1.5565 -0.6589
10355SOL     OW31963   1.015   6.220   3.680 -0.1078 -0.4996 -0.0912
10355SOL    HW131964   1.083   6.189   3.746 -0.5159  0.1099  0.6265
10355SOL    HW231965   0.944   6.151   3.669  0.7253 -1.2532 -1.0310
10356SOL     OW31966   2.920   4.116   6.262 -0.0905  0.2630 -0.5327
10356SOL    HW131967   2.924   4.214   6.279  0.0156  0.0472  0.7824
10356SOL    HW231968   2.927   4.067   6.348  0.5581 -0.9268 -1.2370
10357SOL     OW31969   2.798   3.104   5.556  0.0976  1.0245 -0.0688
10357SOL    HW131970   2.881   3.159   5.564  1.5529 -1.2193  1.5723
10357SOL    HW231971   2.730   3.136   5.622  0.7201  1.2164  0.4921
10358SOL     OW31972   5.090   3.314   2.848 -0.9427  0.0902  0.0170
10358SOL    HW131973   5.177   3.284   2.809  0.2717  1.5530  1.4482
10358SOL    HW231974   5.032   3.349   2.775 -0.2307 -0.6175 -0.9275
10359SOL     OW31975   0.064   3.243   1.308  0.0018  0.2738 -0.0795
10359SOL    HW131976   0.039   3.329   1.263 -1.2712  0.3232  0.6775
10359SOL    HW231977   0.044   3.166   1.247  0.6666  0.4695 -0.5590
10360SOL     OW31978   4.799   5.318   2.073 -0.6120 -0.5746  0.9368
10360SOL    HW131979   4.807   5.335   2.171 -0.7909  0.2508  0.8198
10360SOL    HW231980   4.818   5.222   2.054  2.1094 -0.2427  1.4978
10361SOL     OW31981   4.827   1.758   3.730  0.7424  0.5777  0.2711
10361SOL    HW131982   4.877   1.764   3.644 -0.5229  0.6021 -0.4835
10361SOL    HW231983   4.769   1.676   3.730 -1.1329  1.8323  0.0468
10362SOL     OW31984   6.812   5.503   4.901 -0.5666  0.1620  0.4884
10362SOL    HW131985   6.899   5.474   4.941 -0.4015  1.0178  0.7641
10362SOL    HW231986   6.756   5.546   4.971 -2.1639 -2.3307  0.8810
10363SOL     OW31987   4.396   1.237   1.669  0.4680  0.8131  0.5832
10363SOL    HW131988   4.349   1.175   1.731 -0.4071  0.3452 -0.5139
10363SOL    HW231989   4.473   1.190   1.625 -1.5700 -0.3576 -2.0146
10364SOL     OW31990   3.333   4.137   1.384 -0.0163  0.5693 -0.3794
10364SOL    HW131991   3.346   4.141   1.285 -0.0353 -0.1056 -0.4164
10364SOL    HW231992   3.236   4.150   1.405  0.0394  1.0675 -0.4230
10365SOL     OW31993   5.118   3.171   6.377  0.2486 -0.6515 -0.3208
10365SOL    HW131994   5.180   3.093   6.389  1.7890  0.6072  0.4131
10365SOL    HW231995   5.148   3.226   6.299  0.4077  0.2468  0.3487
10366SOL     OW31996   3.396   2.085   3.089  0.8748  0.1234  0.7709
10366SOL    HW131997   3.374   2.098   2.993  0.3059  2.0573  1.1216
10366SOL    HW231998   3.496   2.085   3.100  0.9477 -0.3424  0.1745
10367SOL     OW31999   6.919   1.898   2.255  0.3997  0.1485 -0.2159
10367SOL    HW132000   7.013   1.931   2.246  0.2194  0.3578 -1.6423
10367SOL    HW232001   6.873   1.950   2.327  1.7419 -0.8851  1.4675
10368SOL     OW32002   2.032   1.852   4.125  0.4241 -0.3292  0.0978
10368SOL    HW132003   2.049   1.764   4.081  0.4284  0.3044 -1.1959
10368SOL    HW232004   2.001   1.836   4.219  0.7463 -1.6958 -0.0018
10369SOL     OW32005   4.745   0.576   4.449  0.2689 -0.5302 -0.0153
10369SOL    HW132006   4.698   0.663   4.436 -0.8494 -1.2828 -1.3119
10369SOL    HW232007   4.814   0.565   4.377  1.1729 -0.2484  0.7919
10370SOL     OW32008   5.759   2.752   5.374 -0.4141 -0.9182 -0.7644
10370SOL    HW132009   5.724   2.832   5.324  1.5435  1.0954  0.8582
10370SOL    HW232010   5.696   2.730   5.449 -0.6870 -0.5031 -0.8665
10371SOL     OW32011   2.312   5.847   3.818  0.0025 -0.0109  0.3487
10371SOL    HW132012   2.401   5.893   3.817 -1.3360  2.7786  0.7353
10371SOL    HW232013   2.252   5.889   3.750 -1.3133 -1.2656  0.6947
10372SOL     OW32014   6.477   0.822   0.233 -0.0561 -0.6275  0.1923
10372SOL    HW132015   6.446   0.735   0.197  1.3209 -0.8832 -0.4302
10372SOL    HW232016   6.461   0.826   0.332  0.9611 -2.0928  0.4418
10373SOL     OW32017   4.691   6.013   4.319  0.4232 -0.3903  0.4517
10373SOL    HW132018   4.595   5.997   4.295  0.0990  1.5738  0.2221
10373SOL    HW232019   4.696   6.043   4.414  1.0835 -2.6402  1.1615
10374SOL     OW32020   4.546   2.137   3.225  0.0139  0.1850 -0.3534
10374SOL    HW132021   4.582   2.111   3.135 -0.3184 -0.4594 -0.3001
10374SOL    HW232022   4.617   2.123   3.294  0.6208  1.6357 -0.6337
10375SOL     OW32023   4.010   3.142   1.459 -0.1120 -0.1490  0.4237
10375SOL    HW132024   4.078   3.069   1.465  0.0578 -0.0217  0.0507
10375SOL    HW232025   3.955   3.143   1.543 -0.7071 -1.2844  0.0618
10376SOL     OW32026   3.599   0.888   5.172 -0.3740 -0.2539 -0.2390
10376SOL    HW132027   3.520   0.844   5.213 -0.6028  0.2710 -0.1131
10376SOL    HW232028   3.620   0.842   5.085 -0.6039 -0.6106 -0.1115
10377SOL     OW32029   6.677   0.203   3.878  0.5188 -0.1588  0.0342
10377SOL    HW132030   6.616   0.176   3.803  2.0671 -0.1271 -1.3097
10377SOL    HW232031   6.675   0.134   3.949 -0.5025 -0.5180 -0.3184
10378SOL     OW32032   0.426   7.007   6.187 -0.1256  0.2453 -0.0697
10378SOL    HW132033   0.507   7.021   6.130  1.0319 -0.9901  1.2155
10378SOL    HW232034   0.393   7.096   6.220 -0.2772  0.9051 -1.8674
10379SOL     OW32035   4.366   6.354   5.178 -0.4714 -0.1567  0.0169
10379SOL    HW132036   4.419   6.359   5.263 -0.6139  1.6179  0.0396
10379SOL    HW232037   4.342   6.259   5.160  0.7134 -0.7362  1.2401
10380SOL     OW32038   6.896   1.361   2.612  0.3565  0.1764 -0.5392
10380SOL    HW132039   6.822   1.339   2.675  0.6590  2.9541  0.9251
10380SOL    HW232040   6.907   1.460   2.605  3.4240 -0.0935 -1.2950
10381SOL     OW32041   5.638   6.663   5.250  0.4601  0.2866  0.2910
10381SOL    HW132042   5.584   6.632   5.171 -0.2255  3.4436 -0.6525
10381SOL    HW232043   5.620   6.603   5.328 -1.0735 -1.2843 -1.1563
10382SOL     OW32044   2.860   5.358   2.010 -0.2853 -0.3178 -0.7874
10382SOL    HW132045   2.805   5.368   1.927  1.3704 -0.5581 -1.9381
10382SOL    HW232046   2.918   5.278   2.002  1.8784  1.1493 -0.5764
10383SOL     OW32047   0.199   3.082   0.178  0.6787  0.2462  0.7566
10383SOL    HW132048   0.273   3.022   0.207  0.9938 -0.2319 -0.9522
10383SOL    HW232049   0.218   3.116   0.086 -1.5673 -0.4529 -0.0162
10384SOL     OW32050   0.955   6.321   1.407  0.2360 -0.6909  0.1870
10384SOL    HW132051   0.945   6.308   1.505  2.3501 -1.3118  0.3543
10384SOL    HW232052   1.042   6.282   1.376 -0.2531 -0.2591 -1.8879
10385SOL     OW32053   3.429   0.640   6.579  0.0330 -0.3845  0.2807
10385SOL    HW132054   3.464   0.596   6.496 -0.9729 -1.4930  0.4114
10385SOL    HW232055   3.331   0.656   6.569  0.1785  0.8498  0.6833
10386SOL     OW32056   6.924   2.534   4.326 -0.1883 -0.1925 -0.2333
10386SOL    HW132057   6.925   2.507   4.229 -2.5491 -1.0032 -0.0905
10386SOL    HW232058   6.899   2.455   4.382  1.8929  0.0746  1.1661
10387SOL     OW32059   4.899   3.335   2.592 -0.2422 -0.8893  0.6500
10387SOL    HW132060   4.899   3.332   2.492  0.0894 -0.7178  0.6422
10387SOL    HW232061   4.874   3.426   2.622  1.9275 -0.2298  0.6746
10388SOL     OW32062   0.549   5.841   3.671 -0.3701  0.3863  0.5155
10388SOL    HW132063   0.522   5.936   3.689  0.8514  0.8527  0.0321
10388SOL    HW232064   0.525   5.784   3.749  1.3241  1.6309  2.0397
10389SOL     OW32065   6.761   0.407   0.540 -0.1128 -0.2126 -0.3510
10389SOL    HW132066   6.854   0.443   0.533 -0.7858  2.0373  1.2249
10389SOL    HW232067   6.708   0.435   0.459  0.4228 -1.0962 -1.0235
10390SOL     OW32068   1.436   2.990   1.481 -0.2372 -0.1120  0.0877
10390SOL    HW132069   1.373   2.950   1.415 -0.2097  1.3485 -0.8737
10390SOL    HW232070   1.405   3.082   1.505  1.5584  0.7040 -0.5205
10391SOL     OW32071   1.054   4.703   5.979 -0.4651  0.3023  0.0804
10391SOL    HW132072   1.011   4.646   6.048 -1.8861  0.2698 -0.7931
10391SOL    HW232073   1.088   4.645   5.905  2.1781  0.2052  1.2456
10392SOL     OW32074   4.960   4.066   0.707 -0.1571 -0.1446  0.2170
10392SOL    HW132075   4.973   3.968   0.693  0.5708 -0.1711  1.0163
10392SOL    HW232076   5.021   4.117   0.647 -1.1299 -0.1498 -0.8104
10393SOL     OW32077   2.141   1.123   3.640  0.2191  0.1254 -0.6725
10393SOL    HW132078   2.062   1.087   3.591  0.5175 -0.3950 -0.7834
10393SOL    HW232079   2.224   1.099   3.589  0.5053 -0.1168 -0.0939
10394SOL     OW32080   0.927   6.313   5.631 -0.2108  0.4502 -0.6642
10394SOL    HW132081   0.944   6.408   5.656  0.9190  0.3346 -0.9369
10394SOL    HW232082   0.998   6.281   5.569  0.1377 -0.9451  0.3869
10395SOL     OW32083   5.242   6.324   4.164 -0.1162 -0.2199 -0.0678
10395SOL    HW132084   5.335   6.321   4.200  0.7095  1.0355 -1.9050
10395SOL    HW232085   5.240   6.279   4.075 -1.3341 -0.4719  0.0783
10396SOL     OW32086   3.891   6.718   5.870  0.2308  0.2357 -0.0040
10396SOL    HW132087   3.877   6.776   5.950  0.2401 -0.3013  0.3914
10396SOL    HW232088   3.875   6.772   5.787 -0.1730  0.6950  0.3626
10397SOL     OW32089   2.778   1.479   2.108 -0.4909 -0.0313  0.1649
10397SOL    HW132090   2.718   1.482   2.188 -0.1767 -2.5373  0.5785
10397SOL    HW232091   2.723   1.478   2.025 -0.8415  1.7493  0.3299
10398SOL     OW32092   5.561   4.266   6.711  0.0222 -0.2863 -0.3107
10398SOL    HW132093   5.637   4.214   6.749  1.2042  0.7183 -1.2031
10398SOL    HW232094   5.513   4.313   6.785  0.4524 -0.7025  0.2395
10399SOL     OW32095   5.218   1.959   6.441  0.0936 -0.0242 -0.3606
10399SOL    HW132096   5.247   1.973   6.536 -0.6689 -1.9422  0.2021
10399SOL    HW232097   5.159   1.878   6.436 -0.4242  0.4348 -2.3790
10400SOL     OW32098   5.575   3.890   6.869 -0.1947  0.0115  0.2649
10400SOL    HW132099   5.598   3.805   6.822  0.0935 -0.1134  0.6248
10400SOL    HW232100   5.479   3.913   6.852 -0.3435 -0.5160  0.3648
10401SOL     OW32101   5.922   1.475   2.770  0.3833  0.4896  0.2323
10401SOL    HW132102   5.888   1.556   2.724 -0.0655  1.7854  2.6441
10401SOL    HW232103   5.845   1.423   2.808  0.7549 -0.2204  0.0323
10402SOL     OW32104   0.958   2.039   3.226 -0.0699 -0.2898  0.0372
10402SOL    HW132105   0.948   2.016   3.129  0.7302 -0.1090 -0.0999
10402SOL    HW232106   0.929   2.134   3.241 -1.6950 -0.7943  0.2792
10403SOL     OW32107   5.397   1.208   1.892 -0.0479 -0.1858 -0.1885
10403SOL    HW132108   5.360   1.251   1.810  1.1960 -0.1339 -0.7434
10403SOL    HW232109   5.334   1.139   1.925 -1.0928  0.5832 -0.5207
10404SOL     OW32110   0.012   6.234   3.697 -0.0923 -0.7262 -0.4736
10404SOL    HW132111   0.064   6.317   3.716 -1.1371  0.2209 -1.6208
10404SOL    HW232112   0.022   6.210   3.600 -0.2317 -1.6581 -0.2721
10405SOL     OW32113   0.058   4.292   4.883 -0.2015 -0.3882  0.6865
10405SOL    HW132114   0.120   4.360   4.844  0.1949 -1.1866 -0.1263
10405SOL    HW232115   0.077   4.203   4.841 -1.9037 -0.6547  0.4398
10406SOL     OW32116   1.673   3.168   3.837 -0.2499  0.1007  0.2538
10406SOL    HW132117   1.577   3.151   3.859 -0.0982  0.3162  1.0899
10406SOL    HW232118   1.705   3.248   3.886  0.1543  0.4802 -0.6117
10407SOL     OW32119   6.754   6.274   6.123 -0.2726 -0.2207 -0.7423
10407SOL    HW132120   6.781   6.179   6.107  1.1813 -0.3897  2.0229
10407SOL    HW232121   6.725   6.285   6.218 -0.4115  2.1021 -0.9878
10408SOL     OW32122   4.095   6.580   2.953  0.2675  0.2409  0.1253
10408SOL    HW132123   4.040   6.529   3.019 -1.6549  1.5455 -0.3776
10408SOL    HW232124   4.035   6.625   2.887  1.9631  1.6302 -0.5528
10409SOL     OW32125   1.743   2.970   6.317 -0.0338 -0.4965 -0.5758
10409SOL    HW132126   1.713   2.957   6.411  0.0033  3.5103  0.1534
10409SOL    HW232127   1.842   2.985   6.315 -0.4460  3.0517 -0.5893
10410SOL     OW32128   5.060   4.482   0.230 -0.2870  0.2749 -0.1896
10410SOL    HW132129   5.101   4.414   0.292 -0.9719 -0.7635 -0.8378
10410SOL    HW232130   5.125   4.505   0.158 -0.4881 -0.6655 -0.6853
10411SOL     OW32131   3.298   5.285   3.469 -0.6841  0.4836  0.4653
10411SOL    HW132132   3.348   5.200   3.449 -0.3689  0.2860  1.9777
10411SOL    HW232133   3.320   5.353   3.399  1.7709  0.4057  1.0498
10412SOL     OW32134   1.121   0.747   0.930  0.3952 -0.1129 -0.2375
10412SOL    HW132135   1.200   0.793   0.890  0.2053 -1.2803 -2.0902
10412SOL    HW232136   1.140   0.724   1.025  1.8796  0.5402 -0.3562
10413SOL     OW32137   1.892   2.533   0.754  0.3171 -0.5961 -0.0137
10413SOL    HW132138   1.879   2.602   0.683 -1.5060  0.3030  1.1305
10413SOL    HW232139   1.923   2.577   0.838 -1.2345 -1.0572  0.8496
10414SOL     OW32140   6.471   6.836   0.267  0.0344  0.2055 -0.0826
10414SOL    HW132141   6.489   6.908   0.200 -0.5980  1.6502  1.2469
10414SOL    HW232142   6.550   6.827   0.329 -0.6587  1.1900  0.9875
10415SOL     OW32143   1.673   4.325   5.596 -0.0219  0.0139  0.2216
10415SOL    HW132144   1.627   4.246   5.555  1.3630  0.1218 -1.6872
10415SOL    HW232145   1.741   4.294   5.663  0.7544 -0.4663 -0.7648
10416SOL     OW32146   5.795   1.991   5.693 -0.2713 -0.4736  0.1237
10416SOL    HW132147   5.894   2.001   5.685 -0.2733 -1.7640 -3.1155
10416SOL    HW232148   5.774   1.905   5.739  0.1450 -0.7622 -0.2179
10417SOL     OW32149   4.792   4.154   5.458 -0.3541  0.8855 -0.0534
10417SOL    HW132150   4.737   4.106   5.526  0.2702 -0.3094 -0.3503
10417SOL    HW232151   4.749   4.147   5.368  0.6434 -0.8286 -0.4595
10418SOL     OW32152   4.129   4.206   5.233  0.5198 -0.3364 -0.0772
10418SOL    HW132153   4.178   4.288   5.202  0.6309 -0.0834  0.7457
10418SOL    HW232154   4.182   4.161   5.305 -1.8807  1.8145  3.3429
10419SOL     OW32155   1.500   6.711   6.225  0.3441 -0.6055  0.3108
10419SOL    HW132156   1.554   6.641   6.270  0.3359  0.4307  2.0107
10419SOL    HW232157   1.478   6.784   6.290 -2.1427 -0.4337 -0.6105
10420SOL     OW32158   6.713   2.229   2.813  0.3802 -0.0023 -0.6828
10420SOL    HW132159   6.705   2.171   2.894 -0.3289  0.4667 -0.3964
10420SOL    HW232160   6.664   2.187   2.737  0.3570 -0.0614 -0.6354
10421SOL     OW32161   1.943   2.943   3.576  0.4142  0.0059  0.0896
10421SOL    HW132162   1.933   3.038   3.546  1.7104 -0.2756 -1.4060
10421SOL    HW232163   2.032   2.931   3.619  0.6202 -0.7145 -0.5219
10422SOL     OW32164   6.904   4.497   4.957 -0.0154 -0.6337 -0.2884
10422SOL    HW132165   6.897   4.502   5.057  0.1420 -0.1310 -0.3002
10422SOL    HW232166   6.966   4.423   4.932 -0.5777 -1.1967 -0.0321
10423SOL     OW32167   2.364   4.478   6.039  0.1802  0.5638  0.1740
10423SOL    HW132168   2.359   4.423   6.122  3.4520 -0.4268 -0.1436
10423SOL    HW232169   2.364   4.418   5.959 -1.6232  1.4231 -0.5193
10424SOL     OW32170   5.960   2.337   0.312  0.0808 -0.0733  0.0784
10424SOL    HW132171   5.996   2.423   0.276  0.4486 -0.7419 -1.1981
10424SOL    HW232172   5.948   2.271   0.237  0.2750 -1.3051  1.0982
10425SOL     OW32173   2.737   0.416   1.329 -0.2145  0.2257 -0.6264
10425SOL    HW132174   2.697   0.437   1.418  0.2598  1.0067 -0.5855
10425SOL    HW232175   2.837   0.420   1.336 -0.1831  1.5442 -1.4642
10426SOL     OW32176   4.890   4.319   4.527  0.5334  0.0389  0.5641
10426SOL    HW132177   4.978   4.362   4.509  0.6380 -0.1992  0.5029
10426SOL    HW232178   4.834   4.322   4.444 -0.1537  1.6616  1.0440
10427SOL     OW32179   4.558   6.254   0.260  0.1821  0.3557  0.1226
10427SOL    HW132180   4.564   6.236   0.162 -1.4323  0.1992  0.0268
10427SOL    HW232181   4.650   6.255   0.299  0.8357  0.1468 -1.3334
10428SOL     OW32182   0.008   6.925   5.684  0.4340 -0.4080  0.3990
10428SOL    HW132183  -0.047   6.938   5.601  2.1797 -0.3994 -0.8130
10428SOL    HW232184   0.019   7.014   5.730 -1.0751 -0.5207  1.0305
10429SOL     OW32185   1.810   3.736   1.782  0.7343  0.8258  0.2608
10429SOL    HW132186   1.804   3.643   1.819  1.3963  0.2084 -1.1146
10429SOL    HW232187   1.906   3.762   1.773  0.7976 -0.2209 -3.7069
10430SOL     OW32188   4.461   5.693   5.131 -0.1113  0.0617  0.3738
10430SOL    HW132189   4.483   5.703   5.034 -0.7265  1.8739  0.3758
10430SOL    HW232190   4.477   5.780   5.177  1.8580 -1.2253  2.2990
10431SOL     OW32191   4.178   1.434   4.350 -0.3466 -0.1753 -0.0279
10431SOL    HW132192   4.153   1.462   4.443  1.3038  2.1698 -0.1937
10431SOL    HW232193   4.130   1.492   4.284  1.6274  1.0347 -0.4680
10432SOL     OW32194   0.169   7.013   4.420  0.0538 -0.3184  0.4018
10432SOL    HW132195   0.146   7.110   4.426 -0.4578 -0.3327 -1.0440
10432SOL    HW232196   0.183   6.976   4.513 -1.0533  0.8184  1.0496
10433SOL     OW32197   1.227   5.693   1.469  0.2384 -0.2829 -0.4466
10433SOL    HW132198   1.287   5.737   1.535 -0.1069 -1.5627  0.7609
10433SOL    HW232199   1.271   5.690   1.379  1.0244  0.8048 -0.1094
10434SOL     OW32200   4.324   6.368   5.470 -0.2662  0.1834  0.2021
10434SOL    HW132201   4.389   6.332   5.536 -0.8998 -0.9912  0.2162
10434SOL    HW232202   4.252   6.418   5.518 -1.8550 -2.3811  0.6927
10435SOL     OW32203   0.131   2.002   0.160 -0.2154 -0.0005 -0.0569
10435SOL    HW132204   0.151   1.915   0.206 -1.2645  0.1755  0.7702
10435SOL    HW232205   0.053   1.990   0.099  1.4304 -0.3433 -2.2033
10436SOL     OW32206   0.229   3.706   3.145  0.2190 -0.0787 -0.5528
10436SOL    HW132207   0.329   3.706   3.139  0.2555 -0.3802  0.0309
10436SOL    HW232208   0.192   3.631   3.091  0.4113 -1.1223  0.7069
10437SOL     OW32209   4.637   5.239   4.156  0.0537  0.3531  0.4520
10437SOL    HW132210   4.688   5.214   4.073 -1.2770 -0.3240 -0.1999
10437SOL    HW232211   4.636   5.162   4.219 -0.9750 -0.0035  0.0244
10438SOL     OW32212   0.649   0.036   6.023  0.2557 -0.3561 -0.2609
10438SOL    HW132213   0.597   0.108   5.976 -1.3453 -0.9005  0.6329
10438SOL    HW232214   0.648  -0.047   5.968 -0.4711 -0.5926  0.1085
10439SOL     OW32215   5.503   3.209   5.174  0.2133  0.2116  0.0534
10439SOL    HW132216   5.573   3.281   5.170  1.5648 -1.0787 -2.3717
10439SOL    HW232217   5.442   3.217   5.095 -0.7993 -0.2160  0.7648
10440SOL     OW32218   6.935   2.596   6.492  0.4851 -0.0107 -0.2856
10440SOL    HW132219   6.964   2.507   6.526 -1.1573 -0.6450 -0.4311
10440SOL    HW232220   6.941   2.664   6.565 -1.1400 -0.9376  0.7669
10441SOL     OW32221   1.895   1.867   1.573  0.2496 -0.2703  0.4047
10441SOL    HW132222   1.928   1.959   1.555 -1.1709 -0.1741 -2.0821
10441SOL    HW232223   1.796   1.868   1.584  0.0641 -1.6044 -0.8113
10442SOL     OW32224   3.915   0.071   4.348 -0.1937  0.1954 -0.0421
10442SOL    HW132225   3.832   0.032   4.387  0.4467 -0.4411  0.7052
10442SOL    HW232226   3.950   0.011   4.276  0.3353 -0.2133  0.5447
10443SOL     OW32227   6.503   1.525   2.037  0.3465  0.0944 -0.4192
10443SOL    HW132228   6.531   1.432   2.060 -0.5047  0.0691  0.6037
10443SOL    HW232229   6.539   1.589   2.105 -3.0464 -0.0996  1.8095
10444SOL     OW32230   4.207   5.255   3.502  0.2110 -0.4579  0.1086
10444SOL    HW132231   4.227   5.168   3.457 -2.8648 -0.7523 -0.9305
10444SOL    HW232232   4.180   5.323   3.433  1.0798  0.9079  1.0525
10445SOL     OW32233   1.677   3.642   1.051 -0.2037  0.4769  0.1550
10445SOL    HW132234   1.646   3.562   1.103 -1.4293  1.8342  1.6181
10445SOL    HW232235   1.724   3.612   0.968  2.1078 -1.8451  2.0992
10446SOL     OW32236   1.561   3.835   5.351 -0.2206 -0.1404  0.0208
10446SOL    HW132237   1.629   3.778   5.306  1.2145  2.5397 -1.3987
10446SOL    HW232238   1.505   3.778   5.412  1.1433 -2.9767 -1.2146
10447SOL     OW32239   5.765   6.471   1.524  0.2538 -0.5605 -0.4735
10447SOL    HW132240   5.770   6.517   1.436  0.9568  0.2510 -0.0162
10447SOL    HW232241   5.670   6.472   1.557  0.0314 -0.6513 -1.0959
10448SOL     OW32242   4.792   1.830   3.349 -0.1662  0.2618 -0.7236
10448SOL    HW132243   4.804   1.924   3.380  1.3812 -0.4255  0.9918
10448SOL    HW232244   4.853   1.813   3.271  0.5611  0.3450 -0.1897
10449SOL     OW32245   3.372   6.773   5.294  0.6777 -0.1870 -0.0836
10449SOL    HW132246   3.275   6.756   5.317 -0.2451  1.1760 -2.6249
10449SOL    HW232247   3.409   6.839   5.359 -0.3710 -0.0193  0.3820
10450SOL     OW32248   0.189   1.262   0.095  0.4628 -0.2440  0.4783
10450SOL    HW132249   0.122   1.192   0.115  0.9287 -1.1786 -1.0206
10450SOL    HW232250   0.266   1.222   0.045  0.4439  1.4123 -1.0073
10451SOL     OW32251   3.617   5.898   4.242 -0.9075  0.1655 -0.1101
10451SOL    HW132252   3.622   5.933   4.336  0.6900  1.1224 -0.5172
10451SOL    HW232253   3.579   5.969   4.182 -1.5914 -0.3203 -0.2700
10452SOL     OW32254   6.762   6.005   1.547  0.0265  0.3610  0.6970
10452SOL    HW132255   6.846   5.957   1.523  0.5934  1.6255  0.0391
10452SOL    HW232256   6.785   6.098   1.577 -1.1343  0.6940  0.5967
10453SOL     OW32257   3.527   6.761   2.867  0.1499  0.2634  0.0279
10453SOL    HW132258   3.580   6.680   2.842  1.1982  0.9872 -0.1628
10453SOL    HW232259   3.459   6.736   2.935 -0.3462 -1.0141 -0.8804
10454SOL     OW32260   6.147   2.046   1.642  0.1872 -0.2227  0.1943
10454SOL    HW132261   6.051   2.070   1.630  0.4471  0.7857  0.0957
10454SOL    HW232262   6.205   2.108   1.588  0.8774 -1.0712 -0.0764
10455SOL     OW32263   6.892   0.294   4.032  0.0055  0.2727 -0.0095
10455SOL    HW132264   6.826   0.245   3.975  1.4258  0.3612 -1.8182
10455SOL    HW232265   6.848   0.324   4.116 -2.0048 -0.4236 -0.7646
10456SOL     OW32266   6.810   6.433   0.062  0.4801 -0.3984  0.8291
10456SOL    HW132267   6.773   6.342   0.042 -0.4000 -0.3873  2.3093
10456SOL    HW232268   6.839   6.437   0.157 -1.8983  1.6435  1.5493
10457SOL     OW32269   5.064   2.869   6.815  0.2287 -0.1591  0.4526
10457SOL    HW132270   4.993   2.816   6.769  1.5408 -0.7469 -0.9615
10457SOL    HW232271   5.030   2.962   6.834 -1.1310 -0.6345  0.4562
10458SOL     OW32272   0.502   1.743   6.414  0.7661  0.4248  0.4060
10458SOL    HW132273   0.562   1.814   6.452  1.0889  0.2056  0.3072
10458SOL    HW232274   0.536   1.653   6.441  2.5439  0.0817 -2.4609
10459SOL     OW32275   6.423   5.127   0.315 -0.5634 -0.5918  0.2229
10459SOL    HW132276   6.370   5.098   0.236 -0.5714 -1.3278  0.4878
10459SOL    HW232277   6.396   5.219   0.342 -0.2806 -0.1779 -0.8670
10460SOL     OW32278   1.165   5.135   3.115 -0.6939  0.1932  0.5054
10460SOL    HW132279   1.253   5.089   3.126 -0.1482  1.4030  1.4385
10460SOL    HW232280   1.119   5.141   3.204 -1.1397  0.6645  0.2523
10461SOL     OW32281   5.420   5.007   6.542 -0.0386  0.0849 -0.5095
10461SOL    HW132282   5.518   5.002   6.525 -0.1557 -0.0014 -1.2099
10461SOL    HW232283   5.397   4.954   6.623  0.5758  0.6235  0.0283
10462SOL     OW32284   5.070   1.736   3.165  0.0104  0.3922 -0.5214
10462SOL    HW132285   5.118   1.817   3.132  1.1751  0.1828  0.5514
10462SOL    HW232286   5.133   1.658   3.167 -0.2939  0.1377  1.0661
10463SOL     OW32287   5.191   5.158   0.375 -0.0158 -0.8396 -0.2324
10463SOL    HW132288   5.286   5.126   0.371  0.2870  0.1079 -0.9107
10463SOL    HW232289   5.132   5.092   0.329  0.4455 -0.9746 -0.6408
10464SOL     OW32290   5.711   4.904   2.434  0.8970 -0.1004 -0.6453
10464SOL    HW132291   5.808   4.893   2.455  1.0337  2.8432  0.6235
10464SOL    HW232292   5.680   4.995   2.461 -2.8396 -1.7000  1.2978
10465SOL     OW32293   4.896   3.638   2.388  0.0337  0.1205  0.6360
10465SOL    HW132294   4.870   3.622   2.292 -1.4584 -0.0286  1.0504
10465SOL    HW232295   4.988   3.677   2.391 -0.3824  1.3095 -0.9264
10466SOL     OW32296   2.958   3.481   6.693 -0.0779 -0.2440 -0.4332
10466SOL    HW132297   3.033   3.543   6.716  0.3415 -0.7252 -0.4790
10466SOL    HW232298   2.972   3.445   6.600 -0.5959 -0.0031 -0.6085
10467SOL     OW32299   1.858   2.659   0.370 -0.0685 -0.3036 -0.3695
10467SOL    HW132300   1.849   2.745   0.320  0.2438 -0.5405 -0.8507
10467SOL    HW232301   1.870   2.677   0.467 -0.8295  0.1670 -0.3526
10468SOL     OW32302   4.266   4.790   3.128 -0.2180  0.2207  0.4858
10468SOL    HW132303   4.321   4.821   3.206  1.5368 -2.3023  0.4128
10468SOL    HW232304   4.175   4.765   3.159  0.2461 -0.1247  1.6481
10469SOL     OW32305   4.880   4.779   6.142  0.1662  0.1960 -0.3293
10469SOL    HW132306   4.905   4.727   6.060  1.1961  0.7918 -0.4058
10469SOL    HW232307   4.781   4.788   6.147  0.0415 -0.7076 -0.9742
10470SOL     OW32308   4.184   2.119   2.882 -0.0901 -0.1941  0.1496
10470SOL    HW132309   4.163   2.045   2.818 -1.4147 -0.1656  0.5080
10470SOL    HW232310   4.113   2.123   2.953  0.0652  1.2713  0.2610
10471SOL     OW32311   1.799   0.924   0.181 -0.2601  0.4965  0.8718
10471SOL    HW132312   1.855   0.845   0.157  0.6944  0.8352  1.9101
10471SOL    HW232313   1.761   0.912   0.272  1.2830  1.9341  1.7647
10472SOL     OW32314   4.127   0.648   0.945  0.9575  0.3885  0.1047
10472SOL    HW132315   4.215   0.648   0.896  1.8627  0.7361  1.6602
10472SOL    HW232316   4.075   0.729   0.918  1.3299  0.4506 -0.4564
10473SOL     OW32317   5.798   6.779   5.676 -0.3043 -0.4246  0.0152
10473SOL    HW132318   5.811   6.795   5.578  1.4436 -0.3212  0.2212
10473SOL    HW232319   5.888   6.775   5.721 -1.0229 -1.5707  1.4414
10474SOL     OW32320   5.621   0.874   4.132 -0.1483  0.0829 -0.4098
10474SOL    HW132321   5.585   0.909   4.218 -0.2396 -0.4154 -0.2430
10474SOL    HW232322   5.673   0.790   4.149  1.4582  0.9972 -0.5834
10475SOL     OW32323   2.737   6.825   2.341  0.0397  0.6835  0.0763
10475SOL    HW132324   2.814   6.764   2.324 -0.0272  0.7468 -0.4755
10475SOL    HW232325   2.731   6.892   2.267  1.2057  2.5034  1.5592
10476SOL     OW32326   5.508   5.527   0.980 -0.0885  0.0591  0.2849
10476SOL    HW132327   5.540   5.465   1.052  0.3052 -0.2545 -0.1521
10476SOL    HW232328   5.438   5.481   0.925  0.3200 -0.0675 -0.1400
10477SOL     OW32329   6.919   6.159   2.846 -0.1335 -0.1167  0.3541
10477SOL    HW132330   7.018   6.151   2.858 -0.1794 -0.2318  0.6736
10477SOL    HW232331   6.877   6.069   2.860 -0.2505 -0.1354 -0.1087
10478SOL     OW32332   6.394   2.273   2.474  0.6943  0.2032 -0.7838
10478SOL    HW132333   6.313   2.221   2.446 -0.5415  1.7765 -0.3463
10478SOL    HW232334   6.365   2.362   2.509  2.6187  0.6565 -0.2186
10479SOL     OW32335   5.668   1.299   0.577 -0.0248  0.2179 -0.1393
10479SOL    HW132336   5.679   1.222   0.514 -0.1154  1.1682 -1.3463
10479SOL    HW232337   5.752   1.352   0.580  0.4385 -0.5371  1.5739
10480SOL     OW32338   2.516   0.776   3.304 -0.2172  0.6783  0.6099
10480SOL    HW132339   2.545   0.872   3.292 -0.9930  1.0617  1.6542
10480SOL    HW232340   2.467   0.767   3.391 -1.5959 -0.3364 -0.2373
10481SOL     OW32341   1.585   4.482   2.629 -0.3936  0.6311 -0.3384
10481SOL    HW132342   1.657   4.419   2.601 -0.1217  0.0221  1.5725
10481SOL    HW232343   1.620   4.542   2.701 -1.5681  0.8241  0.0892
10482SOL     OW32344   5.122   6.285   3.424 -0.1829 -0.4399 -1.0675
10482SOL    HW132345   5.058   6.215   3.455 -1.4524  1.1923  0.2467
10482SOL    HW232346   5.210   6.273   3.470 -0.6988 -0.6023 -0.1059
10483SOL     OW32347   4.514   5.198   0.384 -0.4358  0.5673 -0.3003
10483SOL    HW132348   4.510   5.264   0.309  0.3941  1.3158  0.2956
10483SOL    HW232349   4.592   5.219   0.443 -0.8099 -0.2838  0.5226
10484SOL     OW32350   5.299   2.573   2.211 -0.3357 -0.5792 -0.2789
10484SOL    HW132351   5.313   2.619   2.124 -3.6204 -0.2141 -0.7154
10484SOL    HW232352   5.340   2.628   2.284  2.0321 -0.6477 -1.4420
10485SOL     OW32353   1.959   4.101   0.147  0.4062  0.8125  0.4968
10485SOL    HW132354   2.055   4.076   0.161  0.3963  0.5054  0.0432
10485SOL    HW232355   1.915   4.033   0.087 -0.4665  0.1536  1.8253
10486SOL     OW32356   1.392   0.746   6.516  0.4288  0.8492 -1.1111
10486SOL    HW132357   1.378   0.715   6.422 -0.2235  0.5697 -0.9280
10486SOL    HW232358   1.305   0.778   6.553 -0.0473 -2.0090  0.4715
10487SOL     OW32359   2.741   7.014   2.043  0.4412 -0.1348 -0.2287
10487SOL    HW132360   2.702   7.070   2.115  0.4721 -1.1363  0.5864
10487SOL    HW232361   2.825   7.057   2.009  0.5061  0.2707  0.4318
10488SOL     OW32362   2.078   0.876   6.089  0.0288  0.1099 -0.2169
10488SOL    HW132363   2.090   0.868   6.188 -0.3076 -0.5684 -0.2249
10488SOL    HW232364   2.158   0.920   6.049  0.7998 -0.8801  0.1909
10489SOL     OW32365   0.151   1.424   4.724 -0.6329  0.0362 -0.2594
10489SOL    HW132366   0.123   1.486   4.797 -0.9156 -3.6606  3.1160
10489SOL    HW232367   0.247   1.438   4.702 -0.0189  0.0570  2.2476
10490SOL     OW32368   0.380   5.770   2.755  0.7313 -0.1851 -0.3505
10490SOL    HW132369   0.295   5.783   2.806  0.1259 -2.3131 -0.7578
10490SOL    HW232370   0.401   5.673   2.747  3.9617  0.2610  0.9424
10491SOL     OW32371   1.725   3.897   6.472 -0.1477 -0.5821  0.2137
10491SOL    HW132372   1.698   3.982   6.426  0.1215 -0.9574 -0.6716
10491SOL    HW232373   1.798   3.916   6.537 -1.0527  0.0839  1.0647
10492SOL     OW32374   5.152   4.333   5.618 -0.0533  0.0937 -0.1517
10492SOL    HW132375   5.108   4.338   5.528 -0.1518 -1.2196 -0.1884
10492SOL    HW232376   5.158   4.426   5.657  0.0968  0.6919 -1.5444
10493SOL     OW32377   3.371   1.273   2.131  0.0716 -0.1378  0.6507
10493SOL    HW132378   3.325   1.285   2.219 -0.5441 -0.0259  0.3159
10493SOL    HW232379   3.310   1.300   2.057  0.8452  0.4774  0.2177
10494SOL     OW32380   4.251   4.543   5.429 -0.7321  0.0205 -0.3285
10494SOL    HW132381   4.273   4.469   5.492 -1.3192 -0.9782 -1.2546
10494SOL    HW232382   4.152   4.546   5.414 -0.5654 -0.1848 -1.6516
10495SOL     OW32383   2.634   6.072   1.129  0.1810 -0.2300 -0.2987
10495SOL    HW132384   2.612   5.988   1.080  0.1456 -0.5936  0.3300
10495SOL    HW232385   2.656   6.051   1.224  0.2170  0.4651 -0.1438
10496SOL     OW32386   0.740   6.937   0.668 -0.1032  0.2148  0.3269
10496SOL    HW132387   0.655   6.990   0.672  0.0505  0.4329  0.7998
10496SOL    HW232388   0.758   6.911   0.573 -2.0710 -2.1150  0.5090
10497SOL     OW32389   2.852   0.550   3.885 -0.4200 -0.2712  0.6285
10497SOL    HW132390   2.914   0.471   3.881  0.4689  0.3556  1.4778
10497SOL    HW232391   2.877   0.616   3.815  1.5890  1.1382  2.5188
10498SOL     OW32392   1.841   1.050   2.879 -0.1150 -0.0048 -0.3968
10498SOL    HW132393   1.908   0.986   2.916  0.9902  0.8984 -0.7836
10498SOL    HW232394   1.755   1.002   2.863 -0.1025 -0.8111  1.6680
10499SOL     OW32395   2.227   1.106   1.699 -0.6786 -0.5283  0.6736
10499SOL    HW132396   2.156   1.156   1.749 -0.2766 -0.5299  1.2613
10499SOL    HW232397   2.185   1.049   1.628 -1.1564  0.5763  0.0382
10500SOL     OW32398   6.892   1.920   0.901 -0.1549 -0.0916  0.0232
10500SOL    HW132399   6.920   1.891   0.810 -1.5153 -1.3677 -0.0207
10500SOL    HW232400   6.836   2.002   0.895 -0.6699 -0.4630 -0.3600
10501SOL     OW32401   1.908   5.872   2.195 -0.3335  0.0157 -0.1508
10501SOL    HW132402   1.834   5.887   2.129 -1.3720 -0.3701  0.8705
10501SOL    HW232403   1.893   5.784   2.241  1.3236 -0.5359 -0.6027
10502SOL     OW32404   2.762   0.162   1.169 -0.0133  0.0836  0.2698
10502SOL    HW132405   2.758   0.258   1.196 -0.5288  0.4807 -1.1275
10502SOL    HW232406   2.684   0.141   1.109  1.2700 -0.6281 -1.2151
10503SOL     OW32407   5.524   2.850   6.067  0.2721 -0.0046  0.3175
10503SOL    HW132408   5.572   2.934   6.043  1.6378 -0.8697 -0.0721
10503SOL    HW232409   5.525   2.787   5.989 -2.2895  0.2497 -0.0336
10504SOL     OW32410   2.774   2.198   6.033 -0.4788  0.1018 -0.5322
10504SOL    HW132411   2.763   2.136   5.955 -2.0132  0.4239 -0.5860
10504SOL    HW232412   2.685   2.228   6.065  0.0583 -0.7803  2.0024
10505SOL     OW32413   5.321   5.081   2.668 -0.1561  0.7891  0.3577
10505SOL    HW132414   5.418   5.058   2.674  0.1852  2.0936  0.0548
10505SOL    HW232415   5.279   5.027   2.596  0.0567 -0.6472  1.2486
10506SOL     OW32416   0.552   0.051   0.284  0.4308 -0.1875  0.3243
10506SOL    HW132417   0.619  -0.014   0.319 -0.5523 -0.9473  0.8497
10506SOL    HW232418   0.462   0.007   0.279 -0.0556  0.8324 -0.2742
10507SOL     OW32419   3.411   0.420   0.623 -0.0943  0.2593  0.5230
10507SOL    HW132420   3.367   0.349   0.568  0.0975  0.9920 -0.5995
10507SOL    HW232421   3.490   0.457   0.574 -0.3868  1.4825  0.9259
10508SOL     OW32422   4.338   6.763   4.885 -0.3836 -0.9387 -0.2530
10508SOL    HW132423   4.340   6.704   4.805  0.9543 -1.5045  0.1732
10508SOL    HW232424   4.287   6.718   4.958  0.6062 -1.5855  0.0602
10509SOL     OW32425   6.848   5.184   5.196  0.0801  0.1612  0.0932
10509SOL    HW132426   6.888   5.261   5.245  1.1912 -0.8325  0.7889
10509SOL    HW232427   6.765   5.155   5.243  0.6765 -0.2431  0.9193
10510SOL     OW32428   4.880   4.024   0.031  0.0783 -0.3855  0.0506
10510SOL    HW132429   4.795   4.068   0.061  1.2680  1.8256  0.4043
10510SOL    HW232430   4.860   3.958  -0.041 -2.1441 -1.4012  1.5064
10511SOL     OW32431   4.546   2.237   1.434 -0.2347  0.9985 -0.0089
10511SOL    HW132432   4.546   2.212   1.531 -0.6314  1.7821  0.2069
10511SOL    HW232433   4.531   2.156   1.378 -0.7394  0.6487  0.6236
10512SOL     OW32434   4.897   6.813   4.489 -0.2083 -0.0678 -0.5368
10512SOL    HW132435   4.910   6.810   4.389 -1.6953  0.8300 -0.7944
10512SOL    HW232436   4.803   6.787   4.511  0.1711 -0.4655  0.6557
10513SOL     OW32437   6.381   2.203   3.584 -0.4771 -0.1001 -0.3907
10513SOL    HW132438   6.315   2.195   3.509 -2.4743 -0.3227  1.2882
10513SOL    HW232439   6.333   2.199   3.671  1.7785 -0.0195  0.9460
10514SOL     OW32440   5.800   4.406   1.059  0.7467 -0.8182  0.2225
10514SOL    HW132441   5.804   4.487   1.001  2.1784 -1.0773 -0.0801
10514SOL    HW232442   5.818   4.432   1.154  3.2382 -0.9660 -0.1260
10515SOL     OW32443   6.326   2.563   2.365 -0.0631  0.0449 -0.3539
10515SOL    HW132444   6.395   2.614   2.416 -0.3746 -0.1989  0.3198
10515SOL    HW232445   6.321   2.598   2.271  0.1665  0.8369 -0.0787
10516SOL     OW32446   4.900   6.936   2.842 -0.2647  0.4185 -0.1007
10516SOL    HW132447   4.839   6.987   2.782 -0.3510 -1.0287 -1.3086
10516SOL    HW232448   4.933   6.855   2.794  0.0292 -0.5454  1.6585
10517SOL     OW32449   0.436   2.569   1.931  0.3395 -0.1990  0.1548
10517SOL    HW132450   0.358   2.520   1.893 -0.7283  1.9921 -0.6428
10517SOL    HW232451   0.420   2.589   2.028 -0.9787  1.7811 -0.4183
10518SOL     OW32452   2.288   3.983   5.619  0.2123  0.2523 -0.7540
10518SOL    HW132453   2.317   3.888   5.625  0.1288  0.1703 -1.6076
10518SOL    HW232454   2.317   4.022   5.532  1.1847  1.3366  0.0121
10519SOL     OW32455   4.745   2.490   0.986 -0.0467  0.2220  0.1293
10519SOL    HW132456   4.823   2.528   1.036 -1.8321 -0.5795  3.8634
10519SOL    HW232457   4.763   2.395   0.964  0.4409  0.3378  0.0193
10520SOL     OW32458   0.950   3.317   5.313  0.3478  0.7795 -1.3102
10520SOL    HW132459   0.922   3.357   5.226 -1.2945  3.2998  0.2598
10520SOL    HW232460   1.044   3.343   5.334 -0.2639  2.8546 -0.9383
10521SOL     OW32461   6.119   0.129   1.538 -0.1273 -0.2352 -0.2448
10521SOL    HW132462   6.105   0.226   1.519 -0.0934 -0.2272 -0.2294
10521SOL    HW232463   6.196   0.119   1.602 -0.2925 -0.2559 -0.0490
10522SOL     OW32464   1.065   0.807   6.972  0.2172 -0.7173 -0.5462
10522SOL    HW132465   1.074   0.738   6.900  0.0479 -1.6976  0.3486
10522SOL    HW232466   1.012   0.769   7.048  1.6834 -0.2424  0.7656
10523SOL     OW32467   6.342   5.438   6.113  0.6960  0.2658 -0.0742
10523SOL    HW132468   6.358   5.485   6.026 -0.2454  0.8630  0.0622
10523SOL    HW232469   6.244   5.436   6.132  0.7069 -1.7008 -0.0410
10524SOL     OW32470   0.840   0.392   3.912 -0.2749  0.6767  0.2695
10524SOL    HW132471   0.915   0.331   3.940 -0.0413  0.1358 -1.3817
10524SOL    HW232472   0.864   0.486   3.934  0.1007  0.3431  1.3625
10525SOL     OW32473   3.298   6.222   6.363  0.1896 -0.0812 -0.3688
10525SOL    HW132474   3.268   6.239   6.269 -0.7785 -1.8295 -0.4208
10525SOL    HW232475   3.297   6.307   6.414  1.9981  1.1717 -2.2464
10526SOL     OW32476   0.384   0.737   1.384  0.5623 -0.5261  0.2528
10526SOL    HW132477   0.470   0.776   1.353  0.6821 -0.7364  0.3177
10526SOL    HW232478   0.401   0.669   1.455  0.1354  2.0632  3.0448
10527SOL     OW32479   6.006   2.771   5.657 -0.0565 -1.0628  0.9148
10527SOL    HW132480   5.929   2.835   5.661  0.3398 -0.6285  1.8281
10527SOL    HW232481   5.994   2.709   5.579  0.6267  1.4881 -1.3839
10528SOL     OW32482   0.824   0.998   4.373  0.5741 -0.0039  0.0185
10528SOL    HW132483   0.867   1.031   4.456  0.4784  0.3338 -0.0648
10528SOL    HW232484   0.893   0.988   4.301  0.6518 -0.2688  0.1282
10529SOL     OW32485   1.568   4.791   4.296 -0.2030 -0.4126  0.0465
10529SOL    HW132486   1.509   4.842   4.234 -1.9242 -0.2319  1.7407
10529SOL    HW232487   1.651   4.762   4.247 -0.9604  0.6481 -1.9859
10530SOL     OW32488   1.974   0.062   0.826  0.2234  0.1834 -0.1557
10530SOL    HW132489   1.898   0.014   0.870  0.1479  0.4859  0.0478
10530SOL    HW232490   1.987   0.027   0.734  0.1184 -0.1748 -0.0374
10531SOL     OW32491   2.330   2.028   3.975 -0.2301  0.0019  0.1636
10531SOL    HW132492   2.239   1.995   3.999 -0.0273 -1.8550 -1.3729
10531SOL    HW232493   2.380   2.052   4.059 -1.0698 -1.9067  1.2664
10532SOL     OW32494   3.043   3.291   5.530  0.0431 -0.0799  0.2338
10532SOL    HW132495   3.043   3.359   5.457  0.0942 -0.6454 -0.3079
10532SOL    HW232496   3.056   3.336   5.618 -0.9770  0.7128 -0.0007
10533SOL     OW32497   2.908   1.177   4.028  0.1500 -0.0810  0.6647
10533SOL    HW132498   2.850   1.194   3.949 -0.0521  1.0303  1.0338
10533SOL    HW232499   2.851   1.164   4.109  0.4080  1.5507  1.1280
10534SOL     OW32500   3.916   5.787   1.640  0.1156 -0.3918 -0.4227
10534SOL    HW132501   3.992   5.741   1.594  1.4010  1.2535 -0.0696
10534SOL    HW232502   3.899   5.744   1.728  0.5136 -0.9023 -0.5886
10535SOL     OW32503   0.741   1.279   2.849 -0.0421  1.0983 -0.0357
10535SOL    HW132504   0.837   1.267   2.876  0.0410  0.3300 -0.6440
10535SOL    HW232505   0.732   1.263   2.751 -1.0869 -0.6806  0.3034
10536SOL     OW32506   1.835   0.574   3.086  0.2687 -0.5361  0.2869
10536SOL    HW132507   1.868   0.575   2.991 -0.3498  1.0896  0.0539
10536SOL    HW232508   1.741   0.540   3.088 -0.9641  2.4615 -0.2234
10537SOL     OW32509   2.165   5.668   5.037  0.5871  0.0652  0.2081
10537SOL    HW132510   2.233   5.645   5.107  0.9976  0.0412 -0.1910
10537SOL    HW232511   2.196   5.632   4.948  0.3855  0.6446 -0.1011
10538SOL     OW32512   4.943   2.017   6.696  0.5953 -0.3043 -0.2712
10538SOL    HW132513   5.005   1.943   6.720  1.0202  0.1865  0.1820
10538SOL    HW232514   4.919   2.010   6.599  2.1690  0.0559 -0.7174
10539SOL     OW32515   0.309   0.210   0.509  0.6181  0.0549  0.5106
10539SOL    HW132516   0.209   0.211   0.505  0.5353 -0.2515  1.9885
10539SOL    HW232517   0.346   0.261   0.430 -0.6975  0.5596  0.1884
10540SOL     OW32518   1.778   2.740   5.232  0.0074 -0.6298  0.2026
10540SOL    HW132519   1.849   2.735   5.161  0.0113  0.1117  0.1473
10540SOL    HW232520   1.695   2.781   5.193 -0.2580 -0.9520  0.4242
10541SOL     OW32521   3.292   2.823   0.354  1.2978  0.1423  0.4053
10541SOL    HW132522   3.340   2.774   0.426  1.6295  0.0377  0.1157
10541SOL    HW232523   3.221   2.880   0.394  0.4666 -1.0640  0.7078
10542SOL     OW32524   0.394   1.904   6.692 -0.1986 -0.0978 -0.1764
10542SOL    HW132525   0.357   1.989   6.729 -1.0997 -0.0254 -1.2014
10542SOL    HW232526   0.469   1.924   6.630  1.1731 -0.2088  1.3698
10543SOL     OW32527   0.058   0.820   3.990  0.0956 -0.2020  0.1955
10543SOL    HW132528   0.136   0.787   4.043 -1.3241 -1.0447  1.8612
10543SOL    HW232529   0.049   0.919   4.003  0.0529 -0.3194  1.1781
10544SOL     OW32530   2.426   6.848   4.150  0.5609 -0.1294 -0.0222
10544SOL    HW132531   2.426   6.872   4.052  0.3839 -0.2091 -0.0428
10544SOL    HW232532   2.451   6.752   4.161  0.9104 -0.0323  0.0354
10545SOL     OW32533   4.864   2.205   0.974 -0.0218  0.3636 -0.2308
10545SOL    HW132534   4.937   2.272   0.956 -0.2797  0.6574 -0.1921
10545SOL    HW232535   4.901   2.130   1.029  0.6270 -0.2374 -1.4452
10546SOL     OW32536   5.615   6.617   5.783  0.0802 -0.5152  0.3177
10546SOL    HW132537   5.654   6.590   5.872  1.8345  0.9336  0.0670
10546SOL    HW232538   5.686   6.664   5.730 -1.4889  0.3396 -1.0861
10547SOL     OW32539   4.688   3.532   0.427 -0.0743 -0.0809  0.0504
10547SOL    HW132540   4.775   3.498   0.464 -1.3482 -3.0833  0.6269
10547SOL    HW232541   4.706   3.592   0.349  2.5458 -1.9326 -0.9273
10548SOL     OW32542   5.089   3.481   5.437  0.4627  0.6615 -0.0980
10548SOL    HW132543   5.076   3.423   5.518  3.1996  1.3016  0.9148
10548SOL    HW232544   5.180   3.466   5.400  0.1819  2.2521 -1.5461
10549SOL     OW32545   4.871   0.275   2.064 -0.0776  0.2774  0.6545
10549SOL    HW132546   4.817   0.253   1.983 -1.2548 -2.6102  2.0883
10549SOL    HW232547   4.958   0.225   2.061 -0.8411 -1.2082  1.8688
10550SOL     OW32548   4.457   0.336   4.836  0.6086 -0.9111  0.1490
10550SOL    HW132549   4.360   0.361   4.828  1.0754  1.1041  0.2115
10550SOL    HW232550   4.511   0.389   4.771  1.8547 -0.8074  1.2098
10551SOL     OW32551   0.852   2.724   2.914 -0.2961 -0.2647  0.1599
10551SOL    HW132552   0.778   2.748   2.978 -1.3767  1.0148 -1.4954
10551SOL    HW232553   0.861   2.796   2.845  1.1094 -1.4127 -0.9000
10552SOL     OW32554   4.508   2.286   5.187  0.3340  0.3816  0.4831
10552SOL    HW132555   4.601   2.258   5.163  1.4849  3.9710  0.2908
10552SOL    HW232556   4.443   2.246   5.122  2.1037  0.4530 -1.4142
10553SOL     OW32557   6.273   6.080   6.973 -0.0026  0.2042  0.9554
10553SOL    HW132558   6.213   6.036   7.039 -0.2635  0.7848  1.1072
10553SOL    HW232559   6.234   6.071   6.881 -0.0044  0.0388  0.9711
10554SOL     OW32560   4.261   6.055   1.047  0.2752 -0.3933  0.0329
10554SOL    HW132561   4.333   6.041   1.115  0.2007 -0.3228  0.1254
10554SOL    HW232562   4.183   6.102   1.089  1.3409  2.2691 -0.7718
10555SOL     OW32563   2.862   2.049   0.064  0.1589 -0.2421 -0.2811
10555SOL    HW132564   2.813   2.124   0.109  0.5946 -0.0198 -0.1677
10555SOL    HW232565   2.880   1.977   0.131  1.1207  0.2442  0.0027
10556SOL     OW32566   2.090   2.513   5.139  0.1315 -0.2713 -0.1209
10556SOL    HW132567   2.189   2.510   5.124  0.2679 -2.7508  0.7212
10556SOL    HW232568   2.068   2.467   5.225 -1.7938 -0.0420 -0.4397
10557SOL     OW32569   1.758   4.333   2.437  0.2875  0.6467  0.6340
10557SOL    HW132570   1.697   4.339   2.358 -0.7769 -2.0798  1.1615
10557SOL    HW232571   1.849   4.305   2.406 -0.2752 -0.9976  0.3460
10558SOL     OW32572   3.529   1.394   4.384  0.0665  0.6310  0.7091
10558SOL    HW132573   3.562   1.397   4.478  0.3266  0.1399  0.6338
10558SOL    HW232574   3.594   1.441   4.324  0.3771  0.1236  0.6395
10559SOL     OW32575   5.384   6.847   2.291  0.4213 -0.0791  0.3808
10559SOL    HW132576   5.469   6.844   2.238  0.7540  0.8106  0.8373
10559SOL    HW232577   5.330   6.766   2.272  0.4762  0.2677 -1.4211
10560SOL     OW32578   2.323   5.594   3.961 -0.2871  0.1006  0.0915
10560SOL    HW132579   2.231   5.565   3.935 -0.1278 -0.1908 -0.1498
10560SOL    HW232580   2.337   5.689   3.932 -0.2593 -0.0885 -0.5292
10561SOL     OW32581   2.836   3.988   0.589 -0.2874  0.1574  0.1042
10561SOL    HW132582   2.902   4.059   0.564 -2.0451  0.7577 -3.7221
10561SOL    HW232583   2.778   4.021   0.664 -1.6792  3.4210 -2.1564
10562SOL     OW32584   4.609   5.915   0.437 -0.7025 -0.6344  0.2858
10562SOL    HW132585   4.669   5.901   0.516 -0.8960  0.7663  0.7219
10562SOL    HW232586   4.664   5.925   0.355 -0.3976 -0.4319  0.5112
10563SOL     OW32587   0.814   1.418   5.547  0.0662  0.4745 -0.1036
10563SOL    HW132588   0.860   1.331   5.527  2.7504  1.7592  0.0086
10563SOL    HW232589   0.791   1.421   5.644  0.3130  0.0385 -0.0258
10564SOL     OW32590   5.148   5.408   2.399  0.2431 -0.1405 -0.1617
10564SOL    HW132591   5.132   5.352   2.481  0.0216  1.3443  0.8567
10564SOL    HW232592   5.243   5.439   2.398  0.7382 -1.5505 -1.4250
10565SOL     OW32593   0.632   1.310   3.739  0.0138 -0.1595  0.0826
10565SOL    HW132594   0.701   1.285   3.671 -0.4317  1.6399 -1.0749
10565SOL    HW232595   0.671   1.302   3.830  1.3409 -0.3946 -0.4871
10566SOL     OW32596   3.725   2.189   0.260 -0.0664  0.3206  0.5637
10566SOL    HW132597   3.759   2.263   0.202  0.3044  0.6197  1.1487
10566SOL    HW232598   3.778   2.186   0.345 -1.1977  0.4885  1.2980
10567SOL     OW32599   2.069   2.234   4.409 -0.4078  0.4373 -0.2439
10567SOL    HW132600   2.059   2.228   4.509  1.2859 -0.7948 -0.0913
10567SOL    HW232601   2.108   2.323   4.385  0.8668  0.0837  0.4041
10568SOL     OW32602   4.347   1.121   2.195 -0.1457 -0.2788  0.6925
10568SOL    HW132603   4.355   1.021   2.191 -0.3013 -0.2471 -1.6241
10568SOL    HW232604   4.434   1.162   2.167 -1.2560  0.1519 -2.5101
10569SOL     OW32605   6.185   3.776   2.717  0.7219 -0.7102 -0.2115
10569SOL    HW132606   6.215   3.818   2.802 -2.4360 -1.6224  1.5231
10569SOL    HW232607   6.184   3.676   2.728 -0.5725 -0.8007 -0.9937
10570SOL     OW32608   0.515   4.975   3.282 -0.0885  0.3286  0.1936
10570SOL    HW132609   0.520   4.878   3.305 -0.2871  0.5195  1.0815
10570SOL    HW232610   0.425   5.011   3.307 -0.1437  0.6629 -0.4565
10571SOL     OW32611   0.774   2.379   5.331  0.2622  0.4363  0.3231
10571SOL    HW132612   0.748   2.355   5.425 -1.1388 -0.6779 -0.3059
10571SOL    HW232613   0.795   2.476   5.326  0.8472  0.4272  1.8784
10572SOL     OW32614   6.991   3.171   1.794  0.0814  0.3183  0.0577
10572SOL    HW132615   6.962   3.155   1.700 -1.8058 -0.2483  0.6992
10572SOL    HW232616   7.037   3.260   1.800 -1.1668  1.0830 -1.1161
10573SOL     OW32617   3.782   6.869   5.131 -0.3464  0.2101  0.2663
10573SOL    HW132618   3.727   6.786   5.133  0.5922 -0.4616 -0.4393
10573SOL    HW232619   3.784   6.905   5.038  0.6725  0.0110  0.1918
10574SOL     OW32620   0.933   1.091   5.104  0.1199 -0.1099 -0.4217
10574SOL    HW132621   0.986   1.170   5.073 -0.6521 -0.2087 -2.1019
10574SOL    HW232622   0.992   1.030   5.156  0.9783  1.0589  0.0387
10575SOL     OW32623   0.212   1.714   2.391 -0.0050 -0.2660  0.5921
10575SOL    HW132624   0.291   1.688   2.446 -0.6269 -0.5412  1.3899
10575SOL    HW232625   0.241   1.737   2.299  0.8600 -1.4691  0.5453
10576SOL     OW32626   6.611   6.292   4.914  0.2405 -0.3605 -0.0591
10576SOL    HW132627   6.516   6.309   4.891  0.8084  0.9606 -1.6315
10576SOL    HW232628   6.668   6.368   4.881  1.7789 -0.8291  1.3522
10577SOL     OW32629   2.316   2.402   6.611 -0.1573 -0.3617 -0.5292
10577SOL    HW132630   2.290   2.328   6.549  2.2351 -1.5031 -0.3160
10577SOL    HW232631   2.415   2.415   6.607 -0.0021  0.1253  2.3348
10578SOL     OW32632   5.987   1.523   3.389  0.1362 -0.2099  0.3182
10578SOL    HW132633   5.989   1.589   3.464  0.6884  1.1581 -0.8564
10578SOL    HW232634   6.079   1.508   3.355 -0.2035 -0.1014 -0.6838
10579SOL     OW32635   4.634   2.582   6.716  0.3273  0.2505 -0.2084
10579SOL    HW132636   4.727   2.582   6.679  1.6425 -0.7220  2.8304
10579SOL    HW232637   4.623   2.658   6.780 -1.7322  1.5963 -1.9872
10580SOL     OW32638   0.505   0.168   0.970 -0.2651 -0.0019  0.8364
10580SOL    HW132639   0.534   0.096   1.033 -0.0757 -2.1487 -1.5271
10580SOL    HW232640   0.545   0.255   0.998  2.5924 -1.4915  1.7888
10581SOL     OW32641   6.736   6.856   3.638  0.1792  0.0209  0.2827
10581SOL    HW132642   6.700   6.925   3.575 -0.4082 -1.9215 -1.6254
10581SOL    HW232643   6.669   6.840   3.711 -0.3369  0.4140 -0.0952
10582SOL     OW32644   2.467   6.514   5.969 -0.2883  0.0107  0.6921
10582SOL    HW132645   2.477   6.590   6.033  0.6125 -0.1448  0.7589
10582SOL    HW232646   2.401   6.448   6.005 -0.7320  0.5390  0.8495
10583SOL     OW32647   6.130   1.898   0.195  0.5471 -0.4579  0.0747
10583SOL    HW132648   6.034   1.877   0.212  0.4051 -1.3362 -1.5200
10583SOL    HW232649   6.153   1.987   0.233 -0.2155 -1.2968  2.6808
10584SOL     OW32650   0.069   5.532   1.739 -0.0829 -0.0699 -0.2046
10584SOL    HW132651   0.161   5.492   1.749 -0.2414 -0.5357 -0.5764
10584SOL    HW232652   0.065   5.617   1.790  0.6133  0.0402 -0.3171
10585SOL     OW32653   1.759   3.688   5.266 -0.3599  0.2626 -0.1109
10585SOL    HW132654   1.766   3.614   5.333  0.3506  0.0049 -0.4597
10585SOL    HW232655   1.841   3.688   5.207 -1.0210  0.3962 -1.0614
10586SOL     OW32656   1.363   4.429   5.570  0.5752 -0.0198 -0.2623
10586SOL    HW132657   1.298   4.406   5.497 -2.0568 -2.1156  2.4367
10586SOL    HW232658   1.436   4.362   5.571  0.3942 -0.2313 -0.7075
10587SOL     OW32659   5.860   2.523   6.822 -0.6706  0.4438  0.4090
10587SOL    HW132660   5.764   2.544   6.807 -0.8736  0.0866  1.1837
10587SOL    HW232661   5.915   2.605   6.802 -1.3028  1.2243  1.7275
10588SOL     OW32662   5.967   4.591   2.043 -0.2449  0.0559  0.2671
10588SOL    HW132663   5.887   4.605   2.100  0.1742  0.0227  0.8736
10588SOL    HW232664   5.988   4.493   2.038  0.3816  0.1471  0.9865
10589SOL     OW32665   5.134   0.947   4.202 -0.0733  0.3880 -0.0558
10589SOL    HW132666   5.200   0.872   4.202 -0.7161 -0.1864 -1.0817
10589SOL    HW232667   5.043   0.912   4.180 -0.2339  1.5864 -1.4276
10590SOL     OW32668   3.155   6.763   2.502  0.2981 -0.0318  0.3428
10590SOL    HW132669   3.159   6.674   2.457  2.5220  0.3161 -0.2504
10590SOL    HW232670   3.234   6.817   2.476 -1.9892  2.9583 -0.9521
10591SOL     OW32671   2.744   6.828   6.022  0.3478  0.8765 -0.7026
10591SOL    HW132672   2.692   6.815   6.106 -0.5298 -0.0495 -1.3741
10591SOL    HW232673   2.824   6.768   6.023 -0.5646 -0.3908 -1.2389
10592SOL     OW32674   1.727   3.692   1.413  0.8310 -0.3061  0.2582
10592SOL    HW132675   1.647   3.652   1.458 -0.4715  0.7489 -1.0104
10592SOL    HW232676   1.805   3.631   1.424 -0.3718 -1.8293  0.7592
10593SOL     OW32677   2.966   4.381   6.315 -0.5049 -0.4474  0.2507
10593SOL    HW132678   3.064   4.367   6.298 -0.4124 -0.0395  0.4470
10593SOL    HW232679   2.949   4.476   6.339 -0.6269 -0.9512  2.3970
10594SOL     OW32680   6.684   0.412   1.515  0.0525  0.5354 -0.4261
10594SOL    HW132681   6.590   0.411   1.547  0.5105  0.6399  0.9989
10594SOL    HW232682   6.732   0.330   1.548  0.2190 -0.0022 -1.9438
10595SOL     OW32683   3.494   1.650   5.190  0.4277 -0.5122 -0.1742
10595SOL    HW132684   3.583   1.671   5.230 -1.0900  1.8889  2.2848
10595SOL    HW232685   3.503   1.639   5.091  3.5329 -1.2543  0.1014
10596SOL     OW32686   5.782   6.509   0.583  0.2129 -0.4565 -0.1784
10596SOL    HW132687   5.736   6.474   0.501 -0.0173 -1.9038  0.5413
10596SOL    HW232688   5.745   6.599   0.605 -1.2756 -0.9683 -0.4433
10597SOL     OW32689   2.417   0.768   6.095  0.4951  0.2209  0.2125
10597SOL    HW132690   2.400   0.850   6.149 -1.1215 -0.2839  0.5171
10597SOL    HW232691   2.502   0.725   6.127  0.7556  1.1461  0.8176
10598SOL     OW32692   3.214   1.706   0.391  0.1610 -0.8146 -0.2380
10598SOL    HW132693   3.169   1.755   0.466  0.4751 -1.1751  0.1947
10598SOL    HW232694   3.146   1.655   0.339 -0.0772 -0.4626 -0.2732
10599SOL     OW32695   0.766   2.759   5.044  0.7513 -0.0875 -0.4824
10599SOL    HW132696   0.673   2.755   5.007  1.0408 -1.1857 -1.1221
10599SOL    HW232697   0.771   2.832   5.112 -0.7172 -0.3517 -0.0506
10600SOL     OW32698   2.424   1.969   0.108 -0.5990 -0.0996  0.1115
10600SOL    HW132699   2.381   2.042   0.056 -1.2094  1.1698  2.2458
10600SOL    HW232700   2.382   1.881   0.085 -1.0956  0.4589 -1.1809
10601SOL     OW32701   2.457   3.178   0.414 -0.2412 -0.2444  0.1525
10601SOL    HW132702   2.405   3.254   0.375  0.5308  1.9037  2.9241
10601SOL    HW232703   2.396   3.119   0.465 -0.4553  0.3345  0.5811
10602SOL     OW32704   5.780   2.514   3.688  0.1779  0.2811  0.2059
10602SOL    HW132705   5.812   2.433   3.640  0.2152  0.1383  0.4700
10602SOL    HW232706   5.817   2.514   3.781  1.4810  1.3854 -0.2619
10603SOL     OW32707   1.464   6.596   4.808 -0.1806  0.0216 -0.7180
10603SOL    HW132708   1.477   6.609   4.709  0.2395 -1.7937 -0.9312
10603SOL    HW232709   1.444   6.500   4.826  0.7007  0.1443  1.0763
10604SOL     OW32710   6.220   2.239   3.886  0.4259 -0.0611  0.5016
10604SOL    HW132711   6.229   2.339   3.891  2.1618 -0.2351  1.6646
10604SOL    HW232712   6.218   2.201   3.978  0.5110 -1.1557  0.0649
10605SOL     OW32713   1.897   4.777   0.544 -0.0039  0.5673 -0.6321
10605SOL    HW132714   1.944   4.689   0.547 -0.3050  0.4418  1.0041
10605SOL    HW232715   1.948   4.839   0.484 -0.0047 -0.8044 -2.1222
10606SOL     OW32716   6.177   0.948   3.805 -0.2739  0.1751  0.5744
10606SOL    HW132717   6.210   0.879   3.740  0.7431  2.1627 -1.1289
10606SOL    HW232718   6.255   0.992   3.849 -0.7471  1.9551 -0.2709
10607SOL     OW32719   3.776   3.164   5.551  0.0296 -0.5619  0.3554
10607SOL    HW132720   3.798   3.233   5.620  1.0316 -2.2939  1.8288
10607SOL    HW232721   3.683   3.132   5.565 -0.2705  0.1190 -0.0301
10608SOL     OW32722   5.648   0.838   5.018 -0.8546  0.6569  0.0385
10608SOL    HW132723   5.579   0.909   5.027 -1.5077  0.4597 -2.6640
10608SOL    HW232724   5.691   0.843   4.927 -0.1684 -1.7242  0.1453
10609SOL     OW32725   3.584   0.238   3.021  0.3937 -0.3067 -0.9336
10609SOL    HW132726   3.556   0.239   3.117  0.7133 -1.4711 -0.8257
10609SOL    HW232727   3.584   0.145   2.987  0.4476  0.0808 -2.0318
10610SOL     OW32728   1.100   4.973   6.542 -0.5087 -0.2494  0.3883
10610SOL    HW132729   1.068   5.026   6.463 -1.5579  2.4759  2.4307
10610SOL    HW232730   1.034   4.900   6.562  0.3763 -1.7562 -1.8424
10611SOL     OW32731   4.073   3.618   6.523 -0.1052 -0.3951  0.1928
10611SOL    HW132732   4.098   3.521   6.521  1.6707  0.0237  0.5892
10611SOL    HW232733   3.976   3.628   6.499 -0.6084 -2.3490  1.2119
10612SOL     OW32734   2.421   6.901   3.884 -0.2672 -0.2332 -0.4123
10612SOL    HW132735   2.479   6.847   3.824  0.3024  1.3021 -1.2810
10612SOL    HW232736   2.352   6.949   3.831 -1.2385 -0.6584  0.4260
10613SOL     OW32737   0.857   0.750   4.006  0.4225  0.4173 -0.0345
10613SOL    HW132738   0.837   0.720   4.099 -0.4299 -0.6688 -0.5434
10613SOL    HW232739   0.771   0.766   3.957  0.8435  0.0133 -0.9263
10614SOL     OW32740   0.710   2.189   4.034 -0.4486  0.0279 -0.3599
10614SOL    HW132741   0.798   2.206   3.989 -0.6431  0.3203 -0.6296
10614SOL    HW232742   0.699   2.253   4.110 -1.4733  1.6245 -1.7771
10615SOL     OW32743   2.754   6.832   4.180  0.0186 -0.2578 -0.2466
10615SOL    HW132744   2.777   6.921   4.219 -2.2198  0.0649  0.5031
10615SOL    HW232745   2.656   6.816   4.189 -0.0098 -1.8389 -2.4186
10616SOL     OW32746   3.542   0.860   1.902  0.0778 -0.0902  0.9662
10616SOL    HW132747   3.448   0.829   1.917 -0.0231  0.0430  0.6183
10616SOL    HW232748   3.554   0.951   1.942 -0.3325  0.4804 -0.1706
10617SOL     OW32749   3.217   0.702   6.373  0.2950 -0.2752 -0.1583
10617SOL    HW132750   3.272   0.651   6.307  1.0429  1.5728 -1.0314
10617SOL    HW232751   3.179   0.639   6.440 -0.2794 -2.2142 -2.1730
10618SOL     OW32752   5.540   4.342   5.665  0.2737  0.0922 -0.0808
10618SOL    HW132753   5.496   4.398   5.735 -1.9944 -3.3537  1.5245
10618SOL    HW232754   5.623   4.301   5.702  0.3575  0.1025 -0.2539
10619SOL     OW32755   1.258   3.963   2.697  0.0080  0.5956 -0.0776
10619SOL    HW132756   1.314   4.046   2.701  1.0214 -0.1015  1.1678
10619SOL    HW232757   1.281   3.912   2.614  0.4919  0.8218 -0.0904
10620SOL     OW32758   7.014   4.149   6.406  0.1951  0.2071 -0.2910
10620SOL    HW132759   7.067   4.116   6.484  1.1799  1.7962 -0.2335
10620SOL    HW232760   7.065   4.132   6.321  0.5099  1.1418 -0.2989
10621SOL     OW32761   1.470   1.210   0.256 -0.2657  0.7359  0.3628
10621SOL    HW132762   1.436   1.241   0.168  0.0157  1.6333  0.5614
10621SOL    HW232763   1.469   1.110   0.259 -0.4522  0.7032 -0.5799
10622SOL     OW32764   5.969   2.056   1.299 -0.1954 -0.3524  0.2213
10622SOL    HW132765   5.966   2.152   1.272 -2.3992 -0.1668  1.0144
10622SOL    HW232766   6.037   2.008   1.242  1.1323  1.6822 -0.0059
10623SOL     OW32767   6.444   3.738   3.572 -0.2000  0.3549  0.4215
10623SOL    HW132768   6.416   3.661   3.516  2.1443 -0.0416 -0.3454
10623SOL    HW232769   6.420   3.824   3.526  1.0193  0.0347 -0.8800
10624SOL     OW32770   0.456   2.128   4.724  0.3599  0.0832 -0.1448
10624SOL    HW132771   0.444   2.183   4.807 -2.3788  0.0854 -0.4464
10624SOL    HW232772   0.507   2.180   4.656  2.3199  0.2257  1.3380
10625SOL     OW32773   1.879   6.921   5.673  0.8771 -0.1667 -0.2296
10625SOL    HW132774   1.847   7.012   5.698 -0.0201 -0.9424  1.6141
10625SOL    HW232775   1.929   6.926   5.586 -0.0755  1.8779 -0.7193
10626SOL     OW32776   1.045   4.620   0.586  0.6207  0.0761 -0.1323
10626SOL    HW132777   1.068   4.535   0.634 -1.8953  0.5251  2.1470
10626SOL    HW232778   0.948   4.620   0.563  1.1983  1.0860 -2.9681
10627SOL     OW32779   4.998   6.582   0.707 -0.7611  0.0146 -0.5240
10627SOL    HW132780   4.920   6.629   0.666  0.1571  2.2690  0.1792
10627SOL    HW232781   5.009   6.611   0.802  0.1733 -1.2659 -0.2086
10628SOL     OW32782   5.762   5.032   1.138 -0.2967 -0.2472 -0.4075
10628SOL    HW132783   5.772   4.943   1.182  0.7216 -0.9414 -1.9753
10628SOL    HW232784   5.772   5.022   1.039  0.8253  1.7359 -0.5512
10629SOL     OW32785   2.695   5.861   5.222 -0.0625 -0.3045  0.1030
10629SOL    HW132786   2.761   5.844   5.149  0.3046  0.0264  0.3590
10629SOL    HW232787   2.723   5.813   5.305  0.5751  0.8944  0.6071
10630SOL     OW32788   6.292   1.452   3.506 -0.4093  0.1380 -0.0153
10630SOL    HW132789   6.216   1.396   3.539  1.1160 -0.9334  1.8212
10630SOL    HW232790   6.325   1.416   3.419 -1.1165 -0.2114 -0.1439
10631SOL     OW32791   3.145   6.315   5.052  0.0467 -0.5127  0.1758
10631SOL    HW132792   3.221   6.330   5.115  0.1073  0.6841 -0.1440
10631SOL    HW232793   3.181   6.294   4.961 -0.0253 -1.1084  0.2825
10632SOL     OW32794   0.015   2.014   3.418  0.0552  0.6709  0.3872
10632SOL    HW132795   0.113   1.998   3.403 -0.1007 -0.4246  0.4623
10632SOL    HW232796  -0.037   1.964   3.349 -0.4601  1.2094  0.3836
10633SOL     OW32797   2.115   2.773   0.906 -0.1688  0.2301 -0.5171
10633SOL    HW132798   2.074   2.710   0.973  0.5092 -0.8349 -1.0848
10633SOL    HW232799   2.170   2.841   0.954 -0.5524  0.1327  0.0783
10634SOL     OW32800   2.221   4.937   4.258  0.2535  0.3622  0.6142
10634SOL    HW132801   2.235   4.974   4.350 -2.4586  2.3347  0.3669
10634SOL    HW232802   2.124   4.921   4.242  0.8355 -1.8958 -1.2667
10635SOL     OW32803   3.754   1.781   1.275 -0.3639 -0.4226  0.5048
10635SOL    HW132804   3.832   1.835   1.306 -0.2634 -0.4410  0.2798
10635SOL    HW232805   3.675   1.802   1.333  0.5703 -2.6534  2.7437
10636SOL     OW32806   2.277   2.894   1.115 -0.3542  0.2455  0.4390
10636SOL    HW132807   2.189   2.910   1.160 -0.5173  1.0103 -0.1363
10636SOL    HW232808   2.348   2.881   1.184 -1.1145 -1.6689  0.9391
10637SOL     OW32809   3.754   5.676   4.076  0.4599  0.3327 -0.2126
10637SOL    HW132810   3.735   5.585   4.112  1.9441 -1.2019 -2.9818
10637SOL    HW232811   3.703   5.744   4.129 -4.1608 -2.4119 -0.5853
10638SOL     OW32812   6.426   5.175   2.667  0.3510  0.0388 -0.1187
10638SOL    HW132813   6.499   5.236   2.637 -0.2728  0.5962 -0.5215
10638SOL    HW232814   6.417   5.180   2.767  0.9487 -0.1478 -0.0460
10639SOL     OW32815   0.856   5.955   2.456  0.0786  0.5835  0.2649
10639SOL    HW132816   0.892   6.047   2.464  0.6508  0.3839  0.0311
10639SOL    HW232817   0.909   5.893   2.513  0.7929  0.1049 -0.8793
10640SOL     OW32818   3.974   0.246   6.012  0.2385  0.4578 -0.1359
10640SOL    HW132819   3.947   0.191   6.091 -1.0887 -0.7469 -1.3726
10640SOL    HW232820   3.923   0.332   6.011  1.6568  1.3645  1.3128
10641SOL     OW32821   4.045   2.115   5.564  0.1618  0.0900 -0.0166
10641SOL    HW132822   4.064   2.017   5.568 -0.5932 -0.0346  1.2725
10641SOL    HW232823   4.082   2.154   5.480  0.1990 -1.3626 -0.6864
10642SOL     OW32824   6.630   2.493   2.672  0.5923  0.4080 -0.0125
10642SOL    HW132825   6.654   2.426   2.602 -1.0117  0.3024 -0.4996
10642SOL    HW232826   6.570   2.563   2.632  1.2428  1.4638  0.7830
10643SOL     OW32827   2.376   5.701   5.554 -0.4138 -0.4241 -0.0682
10643SOL    HW132828   2.347   5.606   5.545 -0.4916 -0.2891 -1.4328
10643SOL    HW232829   2.409   5.734   5.466  2.2594 -0.0197  0.9833
10644SOL     OW32830   5.299   2.952   3.432 -0.1266 -0.5089 -0.2548
10644SOL    HW132831   5.357   2.875   3.457  0.4556 -0.1470 -0.4655
10644SOL    HW232832   5.336   2.996   3.350  0.0505  0.5210  0.3651
10645SOL     OW32833   6.594   0.705   3.591 -0.2556  0.0986  0.7863
10645SOL    HW132834   6.510   0.719   3.539 -0.3327 -0.0441  0.8733
10645SOL    HW232835   6.606   0.780   3.656  1.0466  1.5673 -1.0257
10646SOL     OW32836   1.300   2.600   5.571  0.2471 -0.1320  0.2194
10646SOL    HW132837   1.291   2.681   5.627 -2.1260 -0.1182 -0.0691
10646SOL    HW232838   1.291   2.624   5.474 -0.5269 -0.7229  0.1315
10647SOL     OW32839   4.000   5.105   1.495  0.3895 -0.1014  0.0053
10647SOL    HW132840   3.967   5.118   1.401  1.0924  0.7303 -0.1402
10647SOL    HW232841   4.067   5.176   1.516  1.7740 -1.4922  0.4476
10648SOL     OW32842   5.031   4.651   6.309  0.3428 -0.0233 -0.2453
10648SOL    HW132843   5.126   4.635   6.280  1.3140  2.1081  1.4610
10648SOL    HW232844   4.989   4.718   6.248  0.5597  0.4043  0.0726
10649SOL     OW32845   0.240   3.761   1.030 -0.2449 -0.5661 -0.7148
10649SOL    HW132846   0.206   3.853   1.013  0.5292 -0.3728 -1.2289
10649SOL    HW232847   0.162   3.699   1.041 -0.7773 -0.1325 -1.8655
10650SOL     OW32848   6.523   6.254   2.966  0.4770  0.6847 -0.3135
10650SOL    HW132849   6.584   6.310   2.910  0.5819  0.6410 -0.2442
10650SOL    HW232850   6.555   6.254   3.060 -0.4467  1.8256  0.0165
10651SOL     OW32851   4.344   6.566   6.320  0.0363 -0.0403 -0.2169
10651SOL    HW132852   4.261   6.547   6.267  0.1848  1.5047 -1.0809
10651SOL    HW232853   4.328   6.542   6.416 -2.0263  1.7100 -0.0312
10652SOL     OW32854   3.940   0.108   6.679 -0.0432  0.2178 -0.1749
10652SOL    HW132855   3.883   0.080   6.756 -1.0320  0.2979 -0.8614
10652SOL    HW232856   3.902   0.190   6.637  0.4493  0.1453 -0.7864
10653SOL     OW32857   4.598   5.514   4.198  0.3139 -1.2157  0.4188
10653SOL    HW132858   4.516   5.542   4.149  1.8855  1.3496 -0.9596
10653SOL    HW232859   4.605   5.414   4.198 -1.0811 -1.4054 -2.3777
10654SOL     OW32860   5.327   0.968   0.418  0.1567 -0.3964 -0.0947
10654SOL    HW132861   5.306   1.054   0.372 -0.3068 -0.7416 -0.5366
10654SOL    HW232862   5.253   0.946   0.482 -0.6866 -1.4227 -1.3763
10655SOL     OW32863   3.327   3.379   1.332  0.1796  0.1677 -0.0963
10655SOL    HW132864   3.231   3.397   1.311  0.2094  0.5269  0.0595
10655SOL    HW232865   3.364   3.312   1.268 -0.2906 -0.2966  0.1122
10656SOL     OW32866   6.238   0.983   0.224  0.0099  0.3121  0.0839
10656SOL    HW132867   6.288   0.898   0.238  1.2476  0.9739 -0.1243
10656SOL    HW232868   6.243   1.009   0.127 -1.0619  0.2039 -0.0096
10657SOL     OW32869   6.248   6.467   0.493 -0.1390  0.1260  0.6492
10657SOL    HW132870   6.225   6.515   0.408 -1.1309 -1.1846  0.1452
10657SOL    HW232871   6.164   6.431   0.534  0.3639  0.4566  2.0323
10658SOL     OW32872   0.120   4.886   5.374 -0.1324  0.6840 -0.1606
10658SOL    HW132873   0.100   4.940   5.292 -3.4166 -1.7837 -1.2179
10658SOL    HW232874   0.179   4.809   5.350 -2.4743 -1.0279 -0.7518
10659SOL     OW32875   4.698   6.769   1.497  0.4860 -0.2680  0.1491
10659SOL    HW132876   4.761   6.703   1.456 -0.1604 -0.0087 -1.3246
10659SOL    HW232877   4.695   6.852   1.442  0.4599  0.5694  1.3843
10660SOL     OW32878   6.190   5.276   5.612  0.2943 -0.5864  0.2730
10660SOL    HW132879   6.232   5.190   5.584  1.7258  0.0572  0.3865
10660SOL    HW232880   6.157   5.325   5.531  0.4277 -0.7594  0.1127
10661SOL     OW32881   0.260   6.394   1.940  0.3108  0.1795 -0.4157
10661SOL    HW132882   0.311   6.357   2.018 -0.5514 -1.5428 -0.6238
10661SOL    HW232883   0.321   6.449   1.884  0.9400  1.5577  1.4895
10662SOL     OW32884   6.879   1.136   3.147 -0.3625  0.0919  0.0810
10662SOL    HW132885   6.967   1.178   3.167 -0.3653  0.2443 -0.2180
10662SOL    HW232886   6.887   1.037   3.155  0.4544 -0.0790 -2.1919
10663SOL     OW32887   1.234   4.013   2.179  0.1670  0.2526 -0.4722
10663SOL    HW132888   1.218   3.987   2.084  3.1277 -0.3870 -0.8986
10663SOL    HW232889   1.219   4.112   2.189 -1.0398  0.1818 -1.3741
10664SOL     OW32890   1.112   3.252   5.772 -0.1299  0.2828 -0.0091
10664SOL    HW132891   1.075   3.260   5.680  0.1927  0.2668 -0.1431
10664SOL    HW232892   1.184   3.182   5.773 -0.7725 -0.3816  0.4592
10665SOL     OW32893   2.205   6.606   1.843 -0.1603 -0.1464  0.0985
10665SOL    HW132894   2.125   6.633   1.897 -0.2316  0.7888 -0.4522
10665SOL    HW232895   2.259   6.687   1.821 -1.3946 -0.1101 -3.2590
10666SOL     OW32896   3.086   2.291   1.207 -0.1042  0.3163  0.0188
10666SOL    HW132897   3.141   2.240   1.140 -1.2711  0.1885 -0.8760
10666SOL    HW232898   3.131   2.378   1.227 -0.1382  0.7385 -1.5919
10667SOL     OW32899   2.856   2.737   5.849  0.4500  0.2852  0.4654
10667SOL    HW132900   2.906   2.808   5.799 -0.0468  0.0805 -0.3259
10667SOL    HW232901   2.904   2.718   5.935  2.2111 -0.4808 -0.6220
10668SOL     OW32902   1.143   0.656   3.669  0.3207  0.2453  0.5322
10668SOL    HW132903   1.210   0.590   3.637  0.7285  0.3755  1.1097
10668SOL    HW232904   1.135   0.651   3.768  0.3341  1.0313  0.5832
10669SOL     OW32905   5.742   6.014   0.501 -0.1721  0.5441 -0.1082
10669SOL    HW132906   5.723   5.915   0.502  1.1239  0.2879  1.0741
10669SOL    HW232907   5.777   6.040   0.411 -0.5125 -0.0689 -0.4259
10670SOL     OW32908   5.511   4.715   5.148 -0.1955 -0.0993  0.1828
10670SOL    HW132909   5.560   4.713   5.235  0.2193 -1.6171 -0.0614
10670SOL    HW232910   5.510   4.809   5.113 -0.7398  0.6203  2.0020
10671SOL     OW32911   2.430   2.669   1.656  0.2580  0.2700 -0.6954
10671SOL    HW132912   2.526   2.667   1.626  0.3520  0.0793 -0.3892
10671SOL    HW232913   2.419   2.610   1.736 -0.2737 -0.2915 -1.1798
10672SOL     OW32914   6.233   3.628   0.325 -0.0758  0.6065  0.3538
10672SOL    HW132915   6.193   3.537   0.333 -0.2668  0.7005  0.4556
10672SOL    HW232916   6.275   3.638   0.235 -1.2454  0.9060 -0.1667
10673SOL     OW32917   0.577   2.211   6.322  0.5044 -0.9679 -0.3175
10673SOL    HW132918   0.488   2.194   6.364 -0.1988 -1.4374 -1.9417
10673SOL    HW232919   0.646   2.151   6.362 -0.3684 -2.1462 -0.5600
10674SOL     OW32920   2.868   3.986   1.645  0.0518  0.5095  0.3736
10674SOL    HW132921   2.818   3.989   1.559  0.3311  1.2775  0.2357
10674SOL    HW232922   2.846   3.901   1.693 -1.3422  0.8011  0.2928
10675SOL     OW32923   1.392   0.335   6.255  0.4241  0.0585  0.1542
10675SOL    HW132924   1.436   0.284   6.181  0.3728 -1.1323  0.9106
10675SOL    HW232925   1.304   0.370   6.224  0.5861 -0.0760 -0.4707
10676SOL     OW32926   6.858   0.096   0.195  0.2058 -0.4654 -0.9601
10676SOL    HW132927   6.838   0.063   0.287  1.2162 -1.6479 -1.1446
10676SOL    HW232928   6.794   0.169   0.172  0.9950  1.0687  1.3302
10677SOL     OW32929   0.706   6.059   2.179 -0.2704 -0.4674 -0.2314
10677SOL    HW132930   0.727   6.064   2.276  2.4963 -0.2499 -0.7482
10677SOL    HW232931   0.746   6.138   2.132 -1.5548 -0.5625 -1.5775
10678SOL     OW32932   3.029   6.273   2.896 -0.5718 -0.0243  0.0241
10678SOL    HW132933   2.947   6.276   2.840 -1.2311  0.7451  1.0088
10678SOL    HW232934   3.022   6.197   2.961 -0.6017  0.1801  0.2595
10679SOL     OW32935   5.135   4.845   5.990  0.0876  0.5480  0.4799
10679SOL    HW132936   5.181   4.890   5.914 -0.4907  1.1630  0.4857
10679SOL    HW232937   5.050   4.802   5.957 -1.4718  2.8986  1.1641
10680SOL     OW32938   2.262   1.389   3.591 -0.4792 -0.2650  0.0820
10680SOL    HW132939   2.359   1.384   3.567 -0.7045 -2.1177 -0.5630
10680SOL    HW232940   2.219   1.300   3.577 -2.7995  1.0487 -1.8165
10681SOL     OW32941   6.630   3.744   5.260 -0.2762  0.3159 -0.4906
10681SOL    HW132942   6.641   3.842   5.242 -0.0511  0.6938  1.4398
10681SOL    HW232943   6.718   3.705   5.286 -0.5798 -0.1219 -0.0942
10682SOL     OW32944   0.270   0.543   2.852  0.1025 -0.0616 -0.5251
10682SOL    HW132945   0.186   0.543   2.798 -0.4171  0.2401  0.2533
10682SOL    HW232946   0.254   0.591   2.939  1.3347  0.8190 -0.7490
10683SOL     OW32947   2.227   1.647   2.269  0.1310 -0.6695 -0.0784
10683SOL    HW132948   2.236   1.590   2.187  3.6835  0.7251 -0.8644
10683SOL    HW232949   2.194   1.591   2.345  1.1157 -3.1998 -1.3674
10684SOL     OW32950   3.330   3.221   0.132 -0.2403 -0.2622 -0.1183
10684SOL    HW132951   3.338   3.189   0.038  0.0167 -0.4630 -0.0300
10684SOL    HW232952   3.399   3.176   0.189  1.1677  1.5592 -0.2836
10685SOL     OW32953   0.699   3.747   2.030  0.6597  0.2819 -0.1655
10685SOL    HW132954   0.646   3.693   1.965  0.4542 -0.7241  0.8144
10685SOL    HW232955   0.647   3.828   2.057  0.3497  0.2020 -0.5111
10686SOL     OW32956   4.499   5.181   6.620 -0.0908  0.0754 -0.1212
10686SOL    HW132957   4.537   5.273   6.629  0.0503  0.0207 -0.1536
10686SOL    HW232958   4.400   5.186   6.616 -0.1813  0.0960  1.5577
10687SOL     OW32959   6.500   5.771   0.327  0.4806 -0.4740  0.1672
10687SOL    HW132960   6.507   5.683   0.280 -0.0076 -0.9060  0.8855
10687SOL    HW232961   6.554   5.769   0.411  2.1190  0.6094 -0.7916
10688SOL     OW32962   6.616   4.137   1.257 -0.5551  0.2291  0.0868
10688SOL    HW132963   6.555   4.113   1.332 -1.9760  2.6019 -0.2158
10688SOL    HW232964   6.701   4.085   1.265 -0.5732  0.5052  3.4481
10689SOL     OW32965   0.442   5.537   2.571 -0.4263 -0.2158  0.0201
10689SOL    HW132966   0.419   5.455   2.623  0.5639  0.1706  1.1009
10689SOL    HW232967   0.538   5.535   2.545 -0.3995  0.5812  0.0263
10690SOL     OW32968   6.795   5.712   4.443 -0.3648 -1.0163 -0.4361
10690SOL    HW132969   6.747   5.799   4.439 -1.0589 -1.3062  0.8816
10690SOL    HW232970   6.838   5.693   4.355  1.4604  1.5617 -0.1935
10691SOL     OW32971   1.042   2.630   1.622 -0.2217 -0.0380 -0.6185
10691SOL    HW132972   1.044   2.555   1.688 -0.6824 -0.7415 -1.3941
10691SOL    HW232973   0.948   2.645   1.591 -0.1445  0.8972 -0.4357
10692SOL     OW32974   1.818   4.357   1.056  0.2364 -0.1857  0.2376
10692SOL    HW132975   1.866   4.270   1.050  0.3428 -0.1718  0.8775
10692SOL    HW232976   1.808   4.384   1.152  1.1780  1.0381  0.0114
10693SOL     OW32977   1.944   1.386   6.707  0.2593 -0.0964  0.0499
10693SOL    HW132978   2.042   1.390   6.724  0.1342  1.7403  0.5914
10693SOL    HW232979   1.920   1.299   6.663  1.8346 -1.3676  1.6214
10694SOL     OW32980   3.191   1.039   2.989 -0.0746 -0.2263 -0.0005
10694SOL    HW132981   3.170   1.084   3.076 -1.6729 -0.2964 -0.3148
10694SOL    HW232982   3.117   0.976   2.966  1.0330 -1.3171 -0.6990
10695SOL     OW32983   6.242   2.514   3.907  0.8406  0.0191 -0.4554
10695SOL    HW132984   6.293   2.523   3.821  1.4425 -0.5500 -0.1688
10695SOL    HW232985   6.283   2.574   3.976 -0.1150  1.0672 -0.7537
10696SOL     OW32986   1.047   2.905   0.420 -0.2032  0.3277  0.1462
10696SOL    HW132987   0.964   2.961   0.416  1.6008  3.1420 -1.5190
10696SOL    HW232988   1.085   2.909   0.513 -1.2204  0.0674  0.5898
10697SOL     OW32989   6.977   4.437   3.004 -0.2244  0.2795  0.4083
10697SOL    HW132990   6.925   4.352   3.003  0.2617 -0.0232  0.2842
10697SOL    HW232991   7.013   4.455   2.912  0.0135  0.4034  0.5251
10698SOL     OW32992   2.184   5.966   4.882  0.0989  0.0642  0.4526
10698SOL    HW132993   2.251   5.901   4.919 -0.0376 -0.8381 -0.8126
10698SOL    HW232994   2.134   5.922   4.807 -1.9344  0.7054  1.3826
10699SOL     OW32995   3.787   2.136   3.451  0.2140 -0.5124 -0.2928
10699SOL    HW132996   3.827   2.046   3.434 -0.1048 -0.7789  0.3360
10699SOL    HW232997   3.733   2.164   3.371 -0.2764 -1.1971 -0.2037
10700SOL     OW32998   0.448   6.635   2.503  0.1500  0.0375 -0.4169
10700SOL    HW132999   0.540   6.634   2.542  0.3992  0.2677 -0.9848
10700SOL    HW233000   0.453   6.662   2.406 -0.6838  1.7475 -0.0122
10701SOL     OW33001   5.019   6.462   6.277 -0.0350  0.4220 -0.0782
10701SOL    HW133002   5.010   6.560   6.258  1.3917  0.6433  0.2835
10701SOL    HW233003   4.937   6.430   6.325 -0.6343  1.3727 -0.4358
10702SOL     OW33004   6.400   2.431   4.503  0.2602  0.2854  0.3379
10702SOL    HW133005   6.463   2.457   4.576  0.4199 -0.6654  0.5638
10702SOL    HW233006   6.341   2.357   4.536  1.2726 -1.1433 -0.9150
10703SOL     OW33007   2.998   3.322   4.607 -0.0449 -0.4682  0.5860
10703SOL    HW133008   2.974   3.258   4.681 -2.0853 -0.8875 -0.3612
10703SOL    HW233009   3.066   3.280   4.548 -1.2186 -1.7507  0.0839
10704SOL     OW33010   5.869   6.683   2.810  0.7892 -0.0088  0.1808
10704SOL    HW133011   5.774   6.705   2.835  0.0666 -1.4038 -1.2049
10704SOL    HW233012   5.905   6.615   2.873  0.7091  0.1758  0.4280
10705SOL     OW33013   0.968   2.916   5.848 -0.3004  0.1797  0.2864
10705SOL    HW133014   0.998   2.909   5.752 -1.9571 -0.2864 -0.2292
10705SOL    HW233015   0.878   2.873   5.858  0.2052 -0.5027  2.2400
10706SOL     OW33016   4.688   1.821   1.534  0.7656  0.7090  0.4444
10706SOL    HW133017   4.601   1.850   1.574  0.0400 -0.9823  0.1963
10706SOL    HW233018   4.705   1.872   1.450  0.4196  1.6179  0.9215
10707SOL     OW33019   6.326   5.977   3.532 -0.6220 -0.1498  0.0953
10707SOL    HW133020   6.253   6.046   3.531 -1.1993 -0.7535  0.0634
10707SOL    HW233021   6.394   6.002   3.600  0.7640  2.0841 -1.9416
10708SOL     OW33022   5.744   0.351   1.804  0.2569  0.3488 -0.3455
10708SOL    HW133023   5.689   0.316   1.879 -1.4539 -0.3128 -1.8256
10708SOL    HW233024   5.687   0.359   1.722  2.1119  0.7581 -1.6617
10709SOL     OW33025   5.720   1.113   6.960 -0.1115 -0.5951  0.3964
10709SOL    HW133026   5.695   1.035   6.903 -0.4004 -0.1359 -0.1087
10709SOL    HW233027   5.678   1.103   7.050 -1.3712 -0.2944 -0.1440
10710SOL     OW33028   2.236   5.212   3.747 -0.5433  1.0499 -0.2519
10710SOL    HW133029   2.272   5.132   3.794  0.5010  1.8170  0.2977
10710SOL    HW233030   2.238   5.197   3.648  1.0085  0.9372 -0.2298
10711SOL     OW33031   1.645   0.672   5.229 -0.5495  0.3205  0.6571
10711SOL    HW133032   1.664   0.601   5.161 -1.8291 -0.3483  0.9531
10711SOL    HW233033   1.611   0.754   5.183 -0.7346  0.1194  0.4344
10712SOL     OW33034   3.089   1.757   1.800  0.1152 -0.4498  0.2935
10712SOL    HW133035   3.150   1.760   1.720 -0.3687  1.4897 -0.0585
10712SOL    HW233036   3.013   1.820   1.786  0.3535  0.4365  2.5346
10713SOL     OW33037   1.547   5.185   1.086  0.2413  0.0256 -0.1326
10713SOL    HW133038   1.504   5.167   1.174  2.0467 -1.1958  0.5700
10713SOL    HW233039   1.645   5.201   1.100  0.2123  2.0228 -1.7102
10714SOL     OW33040   0.176   5.242   4.333 -0.0167 -0.3849  0.0389
10714SOL    HW133041   0.159   5.331   4.376 -0.1212 -0.3188 -0.1370
10714SOL    HW233042   0.097   5.218   4.275  0.4822 -0.0831 -0.7857
10715SOL     OW33043   6.672   2.044   4.045 -0.6632 -0.1373  0.2568
10715SOL    HW133044   6.713   2.019   3.958  1.5999 -0.5044  1.3532
10715SOL    HW233045   6.630   2.135   4.038  0.0079  0.0891 -1.0540
10716SOL     OW33046   6.307   0.777   1.150 -0.1215  0.2209  0.0257
10716SOL    HW133047   6.280   0.681   1.163 -1.4484  0.4092 -1.0639
10716SOL    HW233048   6.356   0.809   1.230 -2.2421 -0.5074  1.7095
10717SOL     OW33049   1.751   3.229   1.455 -0.2727 -0.1851 -0.0739
10717SOL    HW133050   1.809   3.184   1.523 -0.3206 -0.2700 -0.0893
10717SOL    HW233051   1.715   3.161   1.391 -0.7199 -0.1856  0.1796
10718SOL     OW33052   5.961   5.259   0.939  0.0295  0.2860 -0.1812
10718SOL    HW133053   5.998   5.261   0.847 -0.5496  0.0050 -0.4308
10718SOL    HW233054   5.965   5.165   0.974 -0.9110  0.1442 -0.4186
10719SOL     OW33055   5.984   5.774   2.453  0.0896 -0.8055  0.3087
10719SOL    HW133056   5.906   5.716   2.434 -1.1344  0.7299  0.4625
10719SOL    HW233057   5.958   5.845   2.518  0.6906  1.6338 -1.9466
10720SOL     OW33058   0.454   4.233   0.132  0.4951  0.0297  0.0730
10720SOL    HW133059   0.487   4.323   0.106  0.3596  0.2966  0.7977
10720SOL    HW233060   0.510   4.197   0.207  0.0758 -0.1528  0.3050
10721SOL     OW33061   0.656   1.766   5.652 -0.3294  0.1249  0.1922
10721SOL    HW133062   0.617   1.683   5.612 -0.4283  0.0664  0.4042
10721SOL    HW233063   0.626   1.845   5.600 -0.0039  0.0051 -0.1806
10722SOL     OW33064   4.741   4.536   1.301  0.3629 -0.1955  0.2010
10722SOL    HW133065   4.719   4.626   1.339  0.1327 -0.8713  1.7268
10722SOL    HW233066   4.657   4.483   1.290  0.5933 -0.5605  0.1813
10723SOL     OW33067   0.039   4.890   6.715 -0.4258  0.0158  0.0764
10723SOL    HW133068   0.025   4.877   6.813  0.5356 -0.7035  0.1323
10723SOL    HW233069   0.048   4.801   6.671 -1.5958  0.3072 -0.7991
10724SOL     OW33070   3.053   5.508   5.844 -0.2446  0.1423  0.2852
10724SOL    HW133071   3.076   5.419   5.885 -0.0763 -0.0916 -0.3077
10724SOL    HW233072   2.962   5.536   5.875 -0.3138 -0.2559  0.4505
10725SOL     OW33073   5.884   3.974   3.475 -0.1375 -0.4652 -0.2831
10725SOL    HW133074   5.904   3.893   3.530  0.3130  0.4919  1.0051
10725SOL    HW233075   5.954   4.044   3.491 -0.1354 -0.0553 -1.9011
10726SOL     OW33076   6.155   0.459   5.250 -0.2642  0.0808 -0.1711
10726SOL    HW133077   6.103   0.486   5.331  1.0161  0.7675  0.4382
10726SOL    HW233078   6.221   0.388   5.275 -0.2676 -0.1370 -0.7539
10727SOL     OW33079   1.263   3.360   5.982 -0.1695 -0.0643  0.1254
10727SOL    HW133080   1.318   3.436   5.945 -0.1460 -0.0643  0.1605
10727SOL    HW233081   1.187   3.341   5.920  0.3023 -0.5611 -0.3115
10728SOL     OW33082   4.956   7.005   5.375  0.0990 -0.6829 -0.0609
10728SOL    HW133083   4.923   6.920   5.418 -1.6133 -0.2928 -0.5151
10728SOL    HW233084   4.994   6.984   5.285 -3.3937 -0.7056 -1.6935
10729SOL     OW33085   0.467   2.637   0.808 -0.3683 -0.1406  0.3857
10729SOL    HW133086   0.563   2.615   0.825 -0.8324 -1.9703  0.8966
10729SOL    HW233087   0.441   2.601   0.718 -0.8534 -0.7145  0.7434
10730SOL     OW33088   3.019   4.821   3.650 -0.2711  0.0449 -0.1177
10730SOL    HW133089   3.036   4.916   3.624 -1.0486  0.4549  0.8204
10730SOL    HW233090   2.982   4.771   3.571 -0.1019  0.5785 -0.5437
10731SOL     OW33091   2.844   6.612   2.012  0.5343 -0.0910  0.3820
10731SOL    HW133092   2.836   6.633   2.110  0.6382  1.6949  0.0515
10731SOL    HW233093   2.903   6.681   1.969  1.3220 -1.4422 -0.7733
10732SOL     OW33094   0.552   5.779   3.217  0.1127 -0.5853  0.2221
10732SOL    HW133095   0.628   5.728   3.179  0.6799 -0.2982  0.9471
10732SOL    HW233096   0.542   5.866   3.168  1.0672 -0.0548  0.9327
10733SOL     OW33097   5.420   1.595   5.844  0.0084 -0.0466  0.0666
10733SOL    HW133098   5.418   1.540   5.927 -1.7421  0.9396  0.7341
10733SOL    HW233099   5.513   1.628   5.828  0.3638 -0.2002  1.6712
10734SOL     OW33100   6.018   1.802   5.198  0.8052 -0.4094  0.4780
10734SOL    HW133101   6.083   1.736   5.236  0.5988 -1.2021 -0.4991
10734SOL    HW233102   5.929   1.758   5.185  0.3012  0.4261  1.0098
10735SOL     OW33103   1.574   4.783   2.343  0.6559 -0.2070 -1.0550
10735SOL    HW133104   1.637   4.717   2.302  0.5104 -0.6403 -0.5968
10735SOL    HW233105   1.529   4.741   2.422  0.3619  0.3551 -0.9188
10736SOL     OW33106   1.097   0.611   3.259 -0.5408  0.2558  0.2407
10736SOL    HW133107   1.021   0.568   3.210  0.8697 -1.2045 -0.7652
10736SOL    HW233108   1.159   0.540   3.294  0.6703  1.4118  0.5227
10737SOL     OW33109   5.817   3.488   6.881 -1.0239  0.2147  0.0540
10737SOL    HW133110   5.839   3.585   6.870  0.0800 -0.0538 -0.2347
10737SOL    HW233111   5.900   3.438   6.907 -1.1122 -0.9673 -1.7792
10738SOL     OW33112   1.491   0.725   3.854  0.5654  0.7685 -0.3945
10738SOL    HW133113   1.414   0.678   3.897  1.1194 -0.9187 -1.1634
10738SOL    HW233114   1.540   0.779   3.923  0.7111 -0.8836  0.8608
10739SOL     OW33115   0.267   2.342   1.610 -0.1341  0.0890 -0.8520
10739SOL    HW133116   0.262   2.372   1.705  2.6536  1.7714 -1.1188
10739SOL    HW233117   0.193   2.277   1.591 -1.0634  0.0804  2.2867
10740SOL     OW33118   1.578   6.901   4.319  0.4790 -0.2411 -0.6409
10740SOL    HW133119   1.641   6.827   4.343  0.0727 -0.6724 -0.9017
10740SOL    HW233120   1.484   6.872   4.335  0.3698  0.8200  0.9393
10741SOL     OW33121   2.595   2.341   2.857 -0.3297  0.1456 -0.2102
10741SOL    HW133122   2.601   2.360   2.759 -0.5829 -0.4352 -0.3388
10741SOL    HW233123   2.527   2.402   2.899 -0.0658  0.5420 -0.3523
10742SOL     OW33124   5.997   5.583   3.892  0.3151  0.0334  0.5475
10742SOL    HW133125   5.968   5.621   3.804  0.1015 -1.2928  0.0202
10742SOL    HW233126   5.992   5.484   3.889  0.5163 -0.0511  2.0003
10743SOL     OW33127   3.615   1.841   6.139 -0.3496  0.6013  0.3640
10743SOL    HW133128   3.583   1.752   6.171 -1.8996  1.2000  0.5457
10743SOL    HW233129   3.540   1.891   6.097  1.4832 -0.0879 -4.3650
10744SOL     OW33130   4.280   1.714   2.896 -0.2700 -0.1314  0.1975
10744SOL    HW133131   4.257   1.710   2.798  2.3577  1.4277 -0.5668
10744SOL    HW233132   4.379   1.719   2.907 -0.4444 -1.1919  3.0378
10745SOL     OW33133   1.904   5.638   0.366 -0.1374 -0.0231  0.0782
10745SOL    HW133134   1.976   5.680   0.311 -1.2815 -0.8142 -2.1439
10745SOL    HW233135   1.889   5.544   0.335 -2.9668  0.5038 -0.4938
10746SOL     OW33136   3.531   5.532   0.597  0.2322 -0.0438  0.2370
10746SOL    HW133137   3.630   5.540   0.583  0.1820 -0.4758 -0.4159
10746SOL    HW233138   3.491   5.482   0.521 -0.5637  0.5301  0.2709
10747SOL     OW33139   6.373   2.319   2.785  0.3461 -0.0355 -0.6387
10747SOL    HW133140   6.370   2.221   2.767  0.9324  0.1272 -1.6931
10747SOL    HW233141   6.467   2.346   2.807 -0.1385 -0.0181  1.5815
10748SOL     OW33142   5.613   5.674   1.617 -0.1794 -0.1646  0.8752
10748SOL    HW133143   5.710   5.654   1.607 -0.5347 -0.7857 -2.6955
10748SOL    HW233144   5.559   5.595   1.586 -1.7822  1.1163  0.2487
10749SOL     OW33145   0.006   4.901   1.104 -0.4396  0.1100  0.5388
10749SOL    HW133146  -0.054   4.898   1.184 -1.3506 -0.3269 -0.1348
10749SOL    HW233147  -0.015   4.823   1.044  0.7620 -0.0088  0.2492
10750SOL     OW33148   0.071   4.038   4.688 -0.6543  0.5463  0.2467
10750SOL    HW133149   0.170   4.030   4.693 -0.7470 -0.4581  0.7274
10750SOL    HW233150   0.030   3.947   4.693 -1.5263  0.7146 -2.2580
10751SOL     OW33151   1.107   1.041   5.341  0.4348  0.0884 -0.0916
10751SOL    HW133152   1.187   1.066   5.286 -1.3972  2.1800 -1.9904
10751SOL    HW233153   1.111   1.089   5.429  0.8395  0.8612 -0.5206
10752SOL     OW33154   0.269   5.234   6.694 -0.7705 -0.1732 -0.0688
10752SOL    HW133155   0.249   5.236   6.596  0.1756  0.1387 -0.2623
10752SOL    HW233156   0.344   5.171   6.712  0.4980  1.3477  0.1641
10753SOL     OW33157   5.082   6.383   5.528  0.4485  0.3006 -0.1966
10753SOL    HW133158   5.101   6.467   5.579 -1.3053 -0.2862  1.5677
10753SOL    HW233159   5.149   6.313   5.553  0.2376  0.3492  0.5519
10754SOL     OW33160   0.152   0.949   2.563  1.0104 -0.3438 -0.3737
10754SOL    HW133161   0.144   0.855   2.529  1.4192 -0.5159  0.0025
10754SOL    HW233162   0.062   0.992   2.562  0.9080 -0.5648 -1.0448
10755SOL     OW33163   0.620   1.967   6.566  0.3263 -0.1700 -0.6220
10755SOL    HW133164   0.678   1.962   6.485  0.7641  0.4468 -0.3560
10755SOL    HW233165   0.635   2.055   6.612  1.8259 -1.4231  1.4412
10756SOL     OW33166   6.614   1.557   0.694 -0.3407 -0.1352  0.0825
10756SOL    HW133167   6.564   1.600   0.618  1.5412  1.3330 -0.3984
10756SOL    HW233168   6.591   1.460   0.698 -1.1214 -0.0792 -1.8378
10757SOL     OW33169   0.298   4.927   6.563  0.8434 -0.3356  0.0574
10757SOL    HW133170   0.212   4.923   6.612  0.0064 -3.1701 -1.4246
10757SOL    HW233171   0.299   5.007   6.503  0.0179  0.6615  1.3204
10758SOL     OW33172   0.543   5.565   7.005 -0.5539 -0.2137 -0.3418
10758SOL    HW133173   0.554   5.481   7.058 -0.0040  0.1886  0.1995
10758SOL    HW233174   0.447   5.591   7.002 -0.6521 -0.5342  0.0024
10759SOL     OW33175   0.771   2.645   6.565  0.0242  0.6120  0.0300
10759SOL    HW133176   0.864   2.679   6.577  0.4025 -0.1929 -0.4869
10759SOL    HW233177   0.754   2.628   6.468  0.4093 -2.0257  0.3257
10760SOL     OW33178   1.656   5.789   0.452 -0.3630 -0.7948 -0.0171
10760SOL    HW133179   1.631   5.840   0.370  0.5520  2.3822  1.5173
10760SOL    HW233180   1.733   5.728   0.431 -1.6202 -1.8308 -1.9675
10761SOL     OW33181   1.303   1.357   6.557  0.3406  0.2548 -0.1000
10761SOL    HW133182   1.293   1.450   6.522 -1.9221  0.7219  1.6037
10761SOL    HW233183   1.242   1.296   6.507  0.1060  0.1421  0.3247
10762SOL     OW33184   5.550   1.586   6.742  0.0035  0.0091 -0.5212
10762SOL    HW133185   5.636   1.568   6.789 -0.2214  0.5851  0.1298
10762SOL    HW233186   5.491   1.643   6.800 -0.1979  0.9265 -1.5800
10763SOL     OW33187   6.183   6.869   2.235 -0.1890 -0.4665 -0.1007
10763SOL    HW133188   6.157   6.774   2.248  0.4863 -0.9866 -2.1263
10763SOL    HW233189   6.160   6.922   2.317  0.0484 -2.4839  1.3460
10764SOL     OW33190   4.607   6.618   7.019 -0.2420  0.0023 -0.0377
10764SOL    HW133191   4.537   6.613   7.091  0.2085 -0.4135  0.3798
10764SOL    HW233192   4.666   6.697   7.036  0.5054 -0.6859  0.6562
10765SOL     OW33193   5.224   0.457   2.610  0.1042  0.3531 -0.4048
10765SOL    HW133194   5.175   0.416   2.533 -1.5426 -1.5508  1.5298
10765SOL    HW233195   5.221   0.395   2.688 -0.2421  3.1036  1.9425
10766SOL     OW33196   2.104   3.424   0.516  0.1371 -0.1641 -0.2291
10766SOL    HW133197   2.011   3.458   0.530  0.7080  1.4744 -0.1960
10766SOL    HW233198   2.169   3.498   0.532  1.5110 -1.4933  0.5514
10767SOL     OW33199   2.891   6.479   0.523 -0.0879 -0.6256 -0.0891
10767SOL    HW133200   2.905   6.577   0.508 -1.5651 -0.2899  0.6331
10767SOL    HW233201   2.930   6.428   0.445  0.2159  0.5478 -0.7338
10768SOL     OW33202   5.372   4.519   6.616  0.0860 -0.2199 -0.0485
10768SOL    HW133203   5.433   4.573   6.557  1.0604 -1.3775 -0.1385
10768SOL    HW233204   5.416   4.433   6.640 -0.5861 -0.0872  1.8315
10769SOL     OW33205   3.308   3.500   4.171 -0.0535 -0.7336 -0.1776
10769SOL    HW133206   3.307   3.430   4.100 -0.3932 -0.8945 -0.0180
10769SOL    HW233207   3.315   3.590   4.129 -1.6939 -0.7262 -0.5167
10770SOL     OW33208   4.842   0.540   4.198  0.0449  0.0461  0.1672
10770SOL    HW133209   4.900   0.473   4.152  0.7668 -0.5440  1.8564
10770SOL    HW233210   4.746   0.517   4.183  0.2822 -0.9932  0.1743
10771SOL     OW33211   4.465   6.037   6.187  0.3148  0.0417  0.3055
10771SOL    HW133212   4.373   6.075   6.190  0.1126 -0.3552 -0.6977
10771SOL    HW233213   4.530   6.107   6.218 -0.3781  0.0567  1.8386
10772SOL     OW33214   0.093   6.623   2.312  0.0581  0.2082 -0.0295
10772SOL    HW133215   0.012   6.673   2.342 -0.9399 -0.1652 -1.9370
10772SOL    HW233216   0.144   6.679   2.246  0.3121 -0.3108 -0.2774
10773SOL     OW33217   6.611   5.508   6.823 -0.0996 -0.2356 -0.7185
10773SOL    HW133218   6.667   5.572   6.876 -0.1005 -1.4224  0.7843
10773SOL    HW233219   6.665   5.473   6.746  0.3789  0.4747 -0.7214
10774SOL     OW33220   1.518   1.563   2.423  0.2924 -0.0194 -0.5149
10774SOL    HW133221   1.557   1.595   2.337 -1.5339  1.5402 -0.8435
10774SOL    HW233222   1.427   1.603   2.435 -0.2470 -1.6207  1.2978
10775SOL     OW33223   2.149   6.875   5.840 -0.1861 -0.6143  0.3205
10775SOL    HW133224   2.052   6.851   5.833 -0.4154  0.5247 -0.6511
10775SOL    HW233225   2.201   6.823   5.773 -0.2283 -0.6607  0.3229
10776SOL     OW33226   6.462   6.994   1.424 -0.3724  0.3139  0.5604
10776SOL    HW133227   6.426   7.045   1.502  0.7287  0.2670  1.1243
10776SOL    HW233228   6.499   6.907   1.455  0.4075  0.4530  0.0551
10777SOL     OW33229   4.551   6.822   2.593  0.3874 -0.6460 -0.7971
10777SOL    HW133230   4.498   6.775   2.663 -0.5063 -0.1344 -1.0979
10777SOL    HW233231   4.488   6.870   2.531  1.1773 -0.6519 -1.6300
10778SOL     OW33232   4.826   5.356   6.623  0.5467  0.5208  0.6781
10778SOL    HW133233   4.805   5.402   6.709  0.2387 -1.6131  1.8225
10778SOL    HW233234   4.918   5.316   6.628 -0.0363 -0.9067  0.6594
10779SOL     OW33235   6.700   5.478   3.974 -0.2977  0.3434 -0.1093
10779SOL    HW133236   6.628   5.437   4.030 -2.4357  1.1388 -2.1368
10779SOL    HW233237   6.742   5.554   4.024  0.9924 -1.7031  2.1076
10780SOL     OW33238   5.770   5.271   5.965  0.2183  0.0842 -0.2843
10780SOL    HW133239   5.771   5.364   5.929  1.1261 -0.3849 -1.5337
10780SOL    HW233240   5.785   5.274   6.064  0.3296  1.2572 -0.3181
10781SOL     OW33241   4.945   3.101   5.434  0.6143  0.2418 -0.3919
10781SOL    HW133242   4.871   3.098   5.367  1.0641  0.4972 -0.9076
10781SOL    HW233243   4.989   3.191   5.431  0.8948  0.1181 -0.0378
10782SOL     OW33244   5.813   3.138   2.822 -0.5528 -0.1128  0.4583
10782SOL    HW133245   5.831   3.041   2.839 -2.8242 -0.5155  0.9463
10782SOL    HW233246   5.839   3.192   2.903  0.1809 -0.3758  0.4048
10783SOL     OW33247   1.121   1.575   0.361 -0.0386  0.8020  0.0394
10783SOL    HW133248   1.071   1.547   0.279  0.2184 -2.3251  0.8248
10783SOL    HW233249   1.213   1.535   0.360  0.2540  1.3621  1.4531
10784SOL     OW33250   4.122   6.277   2.110  0.3682  0.4138  0.0611
10784SOL    HW133251   4.122   6.228   2.198  1.5501 -0.7899 -0.5794
10784SOL    HW233252   4.042   6.338   2.107 -0.0380  0.0325  1.7129
10785SOL     OW33253   0.686   6.001   0.466  0.0215 -0.0835  0.7081
10785SOL    HW133254   0.636   6.081   0.499  0.3786  1.4162 -2.0798
10785SOL    HW233255   0.631   5.919   0.480 -1.7893  1.0801  0.6789
10786SOL     OW33256   3.981   1.948   3.344 -0.3111 -0.2083  0.1943
10786SOL    HW133257   4.058   1.919   3.400 -0.0226 -0.0324 -0.1080
10786SOL    HW233258   3.913   1.875   3.339 -0.0083 -0.4890  0.1845
10787SOL     OW33259   5.763   3.183   3.694  0.0024  0.5057 -0.2631
10787SOL    HW133260   5.842   3.245   3.688  0.4816  0.9107  5.3368
10787SOL    HW233261   5.679   3.237   3.701 -0.1461  0.2985 -0.4435
10788SOL     OW33262   2.051   4.365   0.378  0.3715  0.1607 -0.2322
10788SOL    HW133263   2.107   4.352   0.296  0.9688  1.3318 -0.0432
10788SOL    HW233264   1.964   4.318   0.368  0.3008  0.5592 -1.6881
10789SOL     OW33265   7.000   2.075   6.696 -0.0903 -0.0079 -0.0719
10789SOL    HW133266   6.938   2.123   6.633 -0.1697 -0.1627 -0.1111
10789SOL    HW233267   6.978   1.977   6.696  0.3157 -0.0993 -0.2771
10790SOL     OW33268   6.767   1.524   5.332  0.2532 -0.2705  0.1314
10790SOL    HW133269   6.718   1.534   5.419  0.9471 -1.1926  0.6496
10790SOL    HW233270   6.720   1.457   5.276 -0.6241  0.8741 -0.5454
10791SOL     OW33271   1.937   2.209   1.870 -0.0657  0.1000  0.0301
10791SOL    HW133272   1.905   2.169   1.956  0.7248  0.4191  0.4843
10791SOL    HW233273   2.031   2.179   1.853 -0.2904 -0.1280 -0.8378
10792SOL     OW33274   3.738   2.382   0.751  0.7741 -0.0452  0.3483
10792SOL    HW133275   3.638   2.389   0.759  0.6931 -1.8759  1.6606
10792SOL    HW233276   3.770   2.309   0.810  2.8582  0.1145 -0.5197
10793SOL     OW33277   5.087   0.530   3.116  0.0179  0.0548  0.3707
10793SOL    HW133278   5.017   0.592   3.081 -0.5527 -1.3278 -1.0630
10793SOL    HW233279   5.117   0.561   3.206 -0.7122  2.0095 -0.0059
10794SOL     OW33280   3.430   2.414   1.445 -0.1379  0.0049  0.4187
10794SOL    HW133281   3.332   2.425   1.428 -0.2402 -0.6456  0.5358
10794SOL    HW233282   3.475   2.502   1.440 -1.0135  0.6060  2.1939
10795SOL     OW33283   6.086   4.411   2.326  0.0400 -0.0421 -0.3834
10795SOL    HW133284   6.071   4.358   2.242  0.9879 -0.8422 -0.0806
10795SOL    HW233285   6.175   4.457   2.321 -1.1420  2.3093 -1.0075
10796SOL     OW33286   5.107   6.177   6.293  0.0818 -0.0824 -0.0726
10796SOL    HW133287   5.053   6.261   6.284 -1.2786 -1.1019 -2.3052
10796SOL    HW233288   5.107   6.128   6.206  2.8792 -1.2264  0.4767
10797SOL     OW33289   2.688   1.665   0.137  0.2312 -0.8285  0.3015
10797SOL    HW133290   2.695   1.578   0.187  1.8677 -0.8189  0.1482
10797SOL    HW233291   2.736   1.656   0.050  0.8664  0.3987  0.5166
10798SOL     OW33292   3.316   5.763   0.316 -0.2352  0.2996  0.0856
10798SOL    HW133293   3.363   5.742   0.231  0.0629 -1.2883  0.6141
10798SOL    HW233294   3.293   5.678   0.364 -3.3171  0.9984  0.0499
10799SOL     OW33295   4.295   1.828   3.748  0.3752 -0.6930  0.0594
10799SOL    HW133296   4.370   1.862   3.692  1.4700 -1.5489  0.9523
10799SOL    HW233297   4.316   1.736   3.780 -0.6895 -0.6365  1.0157
10800SOL     OW33298   0.918   0.570   1.344  0.1983  0.0585 -0.1596
10800SOL    HW133299   0.931   0.477   1.378  0.7676 -0.3593 -1.4516
10800SOL    HW233300   0.938   0.635   1.417  1.4102 -0.7957  0.3151
10801SOL     OW33301   2.589   5.861   4.290 -0.2396  0.3575  0.0117
10801SOL    HW133302   2.556   5.914   4.212 -0.6931 -0.4100 -0.3286
10801SOL    HW233303   2.661   5.912   4.337  0.6816  0.4622 -1.4472
10802SOL     OW33304   1.997   0.859   4.200 -0.4781  0.8283  0.0008
10802SOL    HW133305   1.995   0.878   4.101 -0.3252  1.0269  0.0349
10802SOL    HW233306   2.021   0.942   4.249  1.4388  0.3020  0.0666
10803SOL     OW33307   3.821   5.055   5.791  0.2999  0.0481 -0.1507
10803SOL    HW133308   3.832   4.993   5.713  1.1673  0.8653 -0.7039
10803SOL    HW233309   3.739   5.029   5.843 -0.4980 -0.3115 -1.5342
10804SOL     OW33310   5.859   4.125   0.483  0.1935 -0.1025  0.0651
10804SOL    HW133311   5.788   4.145   0.414  0.5772 -0.3501 -0.4067
10804SOL    HW233312   5.929   4.066   0.442  0.6725  0.1419  0.5338
10805SOL     OW33313   3.531   6.445   2.112  0.3026 -0.1851  0.6160
10805SOL    HW133314   3.540   6.544   2.125 -1.3873  0.1817 -0.6784
10805SOL    HW233315   3.465   6.409   2.179 -3.7976  0.7033 -2.5362
10806SOL     OW33316   5.055   3.251   0.436 -0.2588 -0.1568 -0.6460
10806SOL    HW133317   4.996   3.172   0.420  0.5432 -0.7833 -0.5626
10806SOL    HW233318   5.001   3.325   0.476 -0.8750 -0.9164 -0.0363
10807SOL     OW33319   3.370   0.311   4.752  0.2590 -0.0896 -0.6991
10807SOL    HW133320   3.457   0.340   4.713  0.6462 -0.5058 -0.1587
10807SOL    HW233321   3.296   0.365   4.712  0.7646  0.2919 -1.1354
10808SOL     OW33322   0.534   1.758   6.124 -0.0209 -0.1739  0.0995
10808SOL    HW133323   0.625   1.725   6.100 -0.3550 -1.2422  0.2717
10808SOL    HW233324   0.513   1.732   6.218 -0.6610 -0.2743 -0.0676
10809SOL     OW33325   3.354   0.777   5.711  0.2220 -0.6218  0.3246
10809SOL    HW133326   3.267   0.730   5.705 -1.5012  2.4810 -1.4867
10809SOL    HW233327   3.411   0.752   5.633 -0.9389  0.6636 -0.9825
10810SOL     OW33328   0.043   1.517   6.228  0.2350  0.5186  0.0113
10810SOL    HW133329  -0.029   1.483   6.288 -0.1342  1.4169  0.0943
10810SOL    HW233330   0.110   1.568   6.281 -0.0977  1.3272 -0.3213
10811SOL     OW33331   1.641   5.402   4.899 -0.3453 -0.6981 -0.4363
10811SOL    HW133332   1.579   5.384   4.976  2.7633  0.8750  2.7284
10811SOL    HW233333   1.724   5.446   4.933  1.1718  0.3528 -4.8445
10812SOL     OW33334   5.819   3.490   3.386 -0.0123 -0.3884  0.4626
10812SOL    HW133335   5.839   3.393   3.395 -0.2513 -0.5498 -0.6307
10812SOL    HW233336   5.750   3.503   3.315  1.6424  0.7521 -1.0145
10813SOL     OW33337   3.781   6.146   1.552 -0.3302  0.6936 -0.3579
10813SOL    HW133338   3.716   6.206   1.598  0.3139  2.3612 -1.5173
10813SOL    HW233339   3.865   6.140   1.606 -1.0436 -0.6815  0.6574
10814SOL     OW33340   1.433   1.918   5.722 -0.1371  0.3755  0.1137
10814SOL    HW133341   1.366   1.853   5.758 -0.7165  1.0533  0.2944
10814SOL    HW233342   1.412   2.009   5.758  1.3792  0.4674  0.8521
10815SOL     OW33343   5.352   3.549   1.831  0.2040  0.2208 -0.1896
10815SOL    HW133344   5.364   3.535   1.929  0.2939  1.2252 -0.0457
10815SOL    HW233345   5.263   3.591   1.814  0.1248 -0.0859 -0.5540
10816SOL     OW33346   0.122   0.209   4.020 -0.3002 -0.2831 -0.0775
10816SOL    HW133347   0.029   0.246   4.025  0.7720  2.7012 -0.6453
10816SOL    HW233348   0.140   0.179   3.926  0.0610  1.3762 -0.5645
10817SOL     OW33349   6.276   1.140   4.213  0.4452 -0.2786  0.0932
10817SOL    HW133350   6.212   1.101   4.146 -0.4266  0.0880  0.7013
10817SOL    HW233351   6.281   1.080   4.293  2.7034 -1.5642 -0.9057
10818SOL     OW33352   6.296   4.758   6.964  0.0481  0.0532  0.0328
10818SOL    HW133353   6.301   4.810   7.049  2.4794  0.4426 -0.2695
10818SOL    HW233354   6.219   4.695   6.968  0.0032  0.1729  2.4491
10819SOL     OW33355   0.957   2.980   6.779 -0.1495 -1.1443  0.2405
10819SOL    HW133356   0.886   2.911   6.794  1.1857 -2.4137  0.9300
10819SOL    HW233357   0.960   3.003   6.682 -1.7859 -0.7333  0.2607
10820SOL     OW33358   6.355   6.688   5.157 -1.4555 -0.2939  0.5281
10820SOL    HW133359   6.408   6.742   5.091 -0.5071 -1.5215  0.2528
10820SOL    HW233360   6.359   6.733   5.247 -1.0337  0.3102  0.2213
10821SOL     OW33361   0.613   6.454   1.307 -0.8253  0.0069 -0.0489
10821SOL    HW133362   0.518   6.461   1.277 -0.8646 -0.3132 -0.0028
10821SOL    HW233363   0.671   6.436   1.227 -0.8453 -0.1498 -0.0276
10822SOL     OW33364   0.866   2.966   1.764 -0.0561 -0.0862  0.2395
10822SOL    HW133365   0.821   2.982   1.851  0.1058 -1.4922  0.5992
10822SOL    HW233366   0.829   2.884   1.721  2.4823 -1.6674  0.8306
10823SOL     OW33367   3.776   0.677   0.547 -0.2292  0.1241  0.0245
10823SOL    HW133368   3.813   0.740   0.479 -0.1759 -0.7481 -0.7881
10823SOL    HW233369   3.722   0.606   0.500 -0.6661 -0.1671  0.9475
10824SOL     OW33370   6.130   0.026   4.059  0.2771  0.0390  0.5971
10824SOL    HW133371   6.182   0.017   4.144  2.6252 -0.5747 -0.8010
10824SOL    HW233372   6.114   0.123   4.041 -0.3341  0.1722  1.7572
10825SOL     OW33373   1.103   0.359   0.633  0.3430 -0.3758  0.1067
10825SOL    HW133374   1.073   0.438   0.687  0.3668 -1.0801  1.1832
10825SOL    HW233375   1.196   0.334   0.660 -0.1141 -1.5302  0.6863
10826SOL     OW33376   1.482   3.303   2.333 -0.0341  0.3610 -1.1912
10826SOL    HW133377   1.542   3.245   2.388  1.0959  2.0221 -0.5758
10826SOL    HW233378   1.476   3.266   2.240  1.3798 -0.2452 -1.0648
10827SOL     OW33379   5.628   4.100   3.864 -0.4356 -0.0860  0.1787
10827SOL    HW133380   5.599   4.058   3.778 -1.5620  0.0433  0.4862
10827SOL    HW233381   5.646   4.029   3.932  2.0230 -0.2987 -0.5889
10828SOL     OW33382   0.434   6.285   3.695 -0.3680 -0.2022 -0.1822
10828SOL    HW133383   0.380   6.295   3.778 -0.8195  2.3064 -0.6838
10828SOL    HW233384   0.531   6.278   3.718 -0.6044 -0.9657  0.5969
10829SOL     OW33385   2.098   4.501   1.670  0.3636  0.3412  0.7274
10829SOL    HW133386   2.001   4.523   1.672  0.6384  1.6354  2.4152
10829SOL    HW233387   2.151   4.582   1.694  1.7355 -0.9060  2.1413
10830SOL     OW33388   5.304   3.039   5.892  0.2863  0.2114  0.1487
10830SOL    HW133389   5.313   2.968   5.962 -2.3319 -0.6632 -0.3052
10830SOL    HW233390   5.208   3.062   5.880  0.6152  0.3784 -3.1112
10831SOL     OW33391   6.791   2.043   2.459 -0.3868 -0.5772  0.6890
10831SOL    HW133392   6.742   2.066   2.543  0.9377 -0.2451  1.4013
10831SOL    HW233393   6.726   2.036   2.383 -1.6831 -1.3883  1.8164
10832SOL     OW33394   1.021   1.232   0.464  0.0763  0.0166  0.7411
10832SOL    HW133395   1.017   1.331   0.450 -1.9817  0.1954  2.1622
10832SOL    HW233396   1.070   1.212   0.549  1.6073 -0.3127 -0.1751
10833SOL     OW33397   3.861   0.390   3.561  0.0821 -0.4742 -0.4827
10833SOL    HW133398   3.926   0.357   3.628 -0.9628  0.0418  0.8440
10833SOL    HW233399   3.823   0.313   3.509  0.3373 -0.9652  0.0555
10834SOL     OW33400   1.055   0.600   3.909 -0.0352 -0.0094 -0.3155
10834SOL    HW133401   0.995   0.673   3.942 -0.7225 -0.5893 -0.2680
10834SOL    HW233402   1.081   0.541   3.985  1.1190  0.5890 -0.2157
10835SOL     OW33403   0.186   3.394   1.511 -0.5208 -0.0916 -0.0726
10835SOL    HW133404   0.277   3.416   1.476  0.3639 -1.9145  0.9579
10835SOL    HW233405   0.140   3.331   1.449 -1.2441  1.0760 -0.7560
10836SOL     OW33406   1.603   1.195   4.705  0.8728  0.8106  0.2197
10836SOL    HW133407   1.537   1.209   4.631 -0.4931  0.6511  1.3575
10836SOL    HW233408   1.693   1.173   4.666 -0.2725 -1.4596 -1.4031
10837SOL     OW33409   5.863   5.473   6.871  0.2775 -0.2777  0.0331
10837SOL    HW133410   5.914   5.534   6.811 -1.1205 -0.1382 -1.0677
10837SOL    HW233411   5.766   5.497   6.868  0.2590  0.3475  3.1204
10838SOL     OW33412   0.761   0.827   5.373  0.6441  0.0837  0.1569
10838SOL    HW133413   0.790   0.768   5.299  0.6820  1.1139 -0.6763
10838SOL    HW233414   0.796   0.792   5.460  2.7494  0.2295 -0.5846
10839SOL     OW33415   2.830   2.791   0.317 -0.1012 -0.5978 -1.2041
10839SOL    HW133416   2.764   2.856   0.353  0.5911 -0.6400  0.2012
10839SOL    HW233417   2.788   2.739   0.243 -1.3540 -0.0398 -0.9168
10840SOL     OW33418   2.469   5.035   0.175  1.0828  0.9184  0.3645
10840SOL    HW133419   2.466   5.088   0.260  0.6631  1.7323 -0.1506
10840SOL    HW233420   2.435   5.090   0.100 -0.4731 -0.4470  0.0040
10841SOL     OW33421   3.783   5.828   0.737 -0.0988  0.0318  0.3766
10841SOL    HW133422   3.810   5.813   0.832  1.0369  0.5938  0.1587
10841SOL    HW233423   3.855   5.879   0.690 -0.3788 -0.7559 -0.9419
10842SOL     OW33424   5.959   3.463   1.272 -0.0551  0.0388 -0.8482
10842SOL    HW133425   5.981   3.555   1.241 -0.9063  0.5390 -0.0162
10842SOL    HW233426   5.993   3.450   1.366 -2.0842  0.3922 -0.0167
10843SOL     OW33427   2.761   1.990   0.755 -0.6584  0.2287 -0.3063
10843SOL    HW133428   2.783   2.068   0.697  0.1633  0.0748 -0.2161
10843SOL    HW233429   2.670   2.003   0.795 -0.3766  1.3403  0.0225
10844SOL     OW33430   5.729   5.755   4.716 -0.2043 -0.6039 -0.4275
10844SOL    HW133431   5.672   5.700   4.776 -0.8311  0.1973 -0.2592
10844SOL    HW233432   5.742   5.707   4.629 -0.9034 -0.9311 -0.3611
10845SOL     OW33433   0.576   0.833   1.671  0.3861  0.1750  0.4723
10845SOL    HW133434   0.596   0.866   1.579  1.3816  1.0636  0.9907
10845SOL    HW233435   0.592   0.734   1.675  1.8261  0.3763  0.0814
10846SOL     OW33436   5.911   3.723   6.787  0.1176 -0.5838 -0.2923
10846SOL    HW133437   6.009   3.704   6.778  0.1409  0.0441 -1.8439
10846SOL    HW233438   5.880   3.771   6.704 -1.3322 -0.0657  0.5271
10847SOL     OW33439   2.187   1.057   4.958  0.4126  0.0420 -0.4259
10847SOL    HW133440   2.156   0.968   4.993 -0.0987  0.6344  0.6856
10847SOL    HW233441   2.285   1.065   4.971  0.6854 -0.8619 -1.7163
10848SOL     OW33442   4.072   1.545   0.476  0.1979  0.0466 -0.4155
10848SOL    HW133443   4.005   1.616   0.501 -1.2749 -0.2230 -3.1966
10848SOL    HW233444   4.109   1.564   0.385  1.4678 -1.5826 -0.2927
10849SOL     OW33445   3.871   5.236   3.039  0.0195 -0.2594  0.0910
10849SOL    HW133446   3.796   5.230   2.972  1.3405  0.7163 -1.5613
10849SOL    HW233447   3.957   5.213   2.993  0.8338 -0.6867  1.7825
10850SOL     OW33448   2.616   0.460   1.052  0.1624  0.0514  0.3920
10850SOL    HW133449   2.549   0.532   1.067  2.0307  1.9454  0.1166
10850SOL    HW233450   2.660   0.437   1.139  1.0078  0.7723  0.1734
10851SOL     OW33451   3.697   2.538   6.704 -0.1731  0.3650  0.4171
10851SOL    HW133452   3.641   2.466   6.745 -1.1522  0.4661 -0.7051
10851SOL    HW233453   3.718   2.513   6.609  1.4610  0.4655  0.7274
10852SOL     OW33454   6.174   0.325   6.236  0.3045 -0.1652  0.0392
10852SOL    HW133455   6.080   0.326   6.202  0.4278  0.0281 -0.3028
10852SOL    HW233456   6.202   0.231   6.254  0.1990 -0.2615 -0.2942
10853SOL     OW33457   5.148   1.217   4.034 -0.2264  0.0130  0.1845
10853SOL    HW133458   5.224   1.244   3.975  0.8605 -0.2390  1.4084
10853SOL    HW233459   5.115   1.297   4.084 -0.8658  0.1479 -0.4470
10854SOL     OW33460   5.490   0.593   0.915 -0.1499  0.1384 -0.4034
10854SOL    HW133461   5.454   0.641   0.835 -0.0870 -0.7641 -0.9933
10854SOL    HW233462   5.487   0.653   0.995 -1.6388  0.5405 -0.7427
10855SOL     OW33463   3.187   5.161   2.281 -0.7541  0.6017  0.1478
10855SOL    HW133464   3.185   5.062   2.295  1.6387  0.7619  2.2874
10855SOL    HW233465   3.148   5.207   2.361 -1.0405  1.4225 -0.4531
10856SOL     OW33466   6.641   0.597   0.363  0.2966 -0.2837 -0.4232
10856SOL    HW133467   6.543   0.598   0.382  0.5685 -0.6769  1.1800
10856SOL    HW233468   6.686   0.667   0.419  0.7076  1.5276 -2.8337
10857SOL     OW33469   6.221   2.664   1.596  0.4659  0.0461  0.2970
10857SOL    HW133470   6.212   2.726   1.674  1.4162  1.1518 -0.4390
10857SOL    HW233471   6.146   2.682   1.531  0.4661  0.0840  0.3074
10858SOL     OW33472   1.589   4.243   6.703 -0.2671 -0.2155 -0.4505
10858SOL    HW133473   1.657   4.170   6.711  0.3079  0.1773 -1.4689
10858SOL    HW233474   1.633   4.331   6.719 -1.5166 -0.1492  3.7321
10859SOL     OW33475   1.595   2.285   4.221  0.2691  0.2673 -0.0310
10859SOL    HW133476   1.589   2.303   4.319  0.0453  0.9376 -0.1578
10859SOL    HW233477   1.503   2.287   4.181  0.0205 -2.8171  0.1899
10860SOL     OW33478   6.278   0.229   1.862 -0.1428 -0.6514 -0.2052
10860SOL    HW133479   6.267   0.304   1.927 -0.3622  0.9812 -2.0476
10860SOL    HW233480   6.195   0.172   1.863 -1.0229  0.5893 -0.5608
10861SOL     OW33481   4.252   1.869   1.784 -0.4412 -0.1248  0.6372
10861SOL    HW133482   4.268   1.921   1.868 -1.4735 -1.0246  1.4130
10861SOL    HW233483   4.162   1.892   1.747 -0.5709 -0.7686  0.5428
10862SOL     OW33484   1.798   1.470   0.237  0.1379  0.0018 -0.8173
10862SOL    HW133485   1.854   1.551   0.257  0.0495  0.1087 -1.0071
10862SOL    HW233486   1.716   1.497   0.187 -1.3027  0.1956  1.4780
10863SOL     OW33487   2.174   0.828   1.893  0.0799 -0.3988 -0.3721
10863SOL    HW133488   2.179   0.895   1.967 -0.2926 -1.5751  0.7560
10863SOL    HW233489   2.237   0.855   1.820  1.4549  0.1336  0.9424
10864SOL     OW33490   1.607   5.256   1.344  0.2550  0.3072 -0.1263
10864SOL    HW133491   1.687   5.312   1.323  0.4747  1.3386  2.9265
10864SOL    HW233492   1.636   5.176   1.398 -0.7056  0.4748  0.6626
10865SOL     OW33493   5.575   3.732   4.833 -0.1972 -0.1097 -0.8263
10865SOL    HW133494   5.536   3.757   4.744  1.0402 -0.0328 -1.3737
10865SOL    HW233495   5.646   3.798   4.858 -0.8163  0.1070  0.4310
10866SOL     OW33496   1.306   1.973   1.704  0.3115  0.3524 -0.2927
10866SOL    HW133497   1.335   2.067   1.688 -1.3068  0.8647 -0.3531
10866SOL    HW233498   1.383   1.920   1.741  1.0393  1.8552  0.4082
10867SOL     OW33499   2.340   1.460   0.532  0.2940 -0.1647  0.1574
10867SOL    HW133500   2.328   1.375   0.583 -0.9171  0.1148  0.3575
10867SOL    HW233501   2.290   1.454   0.446  0.3716  0.2698  0.0829
10868SOL     OW33502   1.677   3.589   3.040  0.0552  0.0781 -0.1296
10868SOL    HW133503   1.738   3.652   3.087  0.7385  0.1567 -1.0857
10868SOL    HW233504   1.642   3.632   2.957 -0.9607 -0.1319  0.1810
10869NA      NA33505   1.144   1.636   4.523 -0.2443 -0.3461  0.2126
10870NA      NA33506   4.316   4.623   5.221  0.7442 -0.4376  0.1523
10871NA      NA33507   2.945   5.525   3.745  0.5432 -0.3756  0.0500
10872NA      NA33508   6.448   5.025   3.323  0.4292 -0.2504  0.3305
10873NA      NA33509   4.428   2.509   5.113  0.2077  0.4927 -0.0111
10874NA      NA33510   2.670   5.544   2.297  0.2593 -0.4836  0.6894
10875NA      NA33511   1.549   5.009   6.887 -0.6554 -0.1046 -0.0066
10876NA      NA33512   3.069   4.116   1.666 -0.0399  0.2533  0.2080
10877NA      NA33513   4.235   4.026   1.027 -0.0115 -0.0613  0.5516
10878NA      NA33514   4.325   1.399   6.132  0.2472  0.1094 -0.7070
10879NA      NA33515   3.888   5.965   1.144 -0.4460 -0.0302  0.1275
10880NA      NA33516   1.186   6.901   4.562  0.2715 -0.0914  0.0807
10881NA      NA33517   3.665   4.571   1.384 -0.1696  0.1408 -0.5313
10882NA      NA33518   2.919   2.509   6.792  0.0684  0.5859 -0.7728
   7.02213   7.02213   7.02213
