CNT in water
33518
    1C        C    1   2.838   2.765   4.739 -0.3632 -0.5101 -0.1149
    1C        C    2   2.890   2.711   4.858  0.1296  0.5523  0.1655
    1C        C    3   2.840   2.768   4.976  0.1687  0.0394  0.4361
    1C        C    4   2.844   2.771   4.254  0.2275  0.2113  0.1317
    1C        C    5   2.898   2.723   4.375  0.2809 -0.0354  0.0121
    1C        C    6   2.844   2.771   4.496 -0.0383  0.2826 -0.2544
    1C        C    7   3.012   2.643   4.619 -0.1197  0.2354  0.0569
    1C        C    8   2.893   2.718   4.618 -0.2446  0.0359 -0.2760
    1C        C    9   3.074   2.606   4.740 -0.1369 -0.1217 -0.0424
    1C        C   10   3.006   2.631   4.861 -0.0123  0.3320 -0.0635
    1C        C   11   3.173   2.482   4.966 -0.2391 -0.2273 -0.4238
    1C        C   12   3.057   2.560   4.971 -0.3897 -0.4506 -0.3843
    1C        C   13   2.847   2.773   3.768 -0.3248 -0.2331  0.3912
    1C        C   14   2.901   2.727   3.890  0.3262  0.0896  0.2360
    1C        C   15   2.847   2.776   4.011 -0.4052 -0.0038 -0.0451
    1C        C   16   3.016   2.646   4.133 -0.1953  0.1742  0.0206
    1C        C   17   2.903   2.731   4.133 -0.4018 -0.0963 -0.0784
    1C        C   18   3.079   2.612   4.254  0.2532  0.5318 -0.1071
    1C        C   19   3.012   2.639   4.376  0.3688  0.0824  0.0615
    1C        C   20   3.206   2.553   4.499  0.1343 -0.0279 -0.2093
    1C        C   21   3.075   2.607   4.498  0.3891  0.6188  0.1988
    1C        C   22   3.278   2.534   4.619 -0.6013 -0.5075  0.1633
    1C        C   23   3.202   2.544   4.737 -0.2502 -0.3861  0.3820
    1C        C   24   3.407   2.488   4.861  0.5228  0.6137 -0.3040
    1C        C   25   3.265   2.504   4.858  0.3597 -0.6507 -0.0141
    1C        C   26   3.484   2.473   4.977  0.0027 -0.2719 -0.0619
    1C        C   27   2.841   2.759   3.280  0.0233  0.1528  0.0484
    1C        C   28   2.895   2.717   3.403 -0.2099 -0.1474  0.0482
    1C        C   29   2.842   2.764   3.525  0.0762  0.2724  0.0136
    1C        C   30   3.018   2.645   3.647  0.2020  0.9937  0.1138
    1C        C   31   2.902   2.725   3.647 -0.2854  0.2864  0.1974
    1C        C   32   3.072   2.601   3.770  0.2681  0.4949 -0.0947
    1C        C   33   3.012   2.640   3.891  0.2505 -0.0113  0.0642
    1C        C   34   3.204   2.548   4.010 -0.2153 -0.1084 -0.1403
    1C        C   35   3.072   2.599   4.012 -0.3855 -0.5494  0.2064
    1C        C   36   3.276   2.536   4.131  0.2511  0.7918 -0.3233
    1C        C   37   3.211   2.563   4.253  0.1192  0.1684 -0.2533
    1C        C   38   3.413   2.512   4.376  0.0183 -0.2269 -0.0884
    1C        C   39   3.275   2.540   4.377  0.0547 -0.0364 -0.2560
    1C        C   40   3.485   2.502   4.497 -0.0954 -0.2915 -0.0244
    1C        C   41   3.417   2.507   4.620 -0.4668  0.1376 -0.2425
    1C        C   42   3.627   2.486   4.741  0.0548 -0.3142 -0.4890
    1C        C   43   3.485   2.485   4.742  0.0506 -0.3062 -0.6044
    1C        C   44   3.701   2.485   4.861 -0.4055 -0.2042 -0.1976
    1C        C   45   3.623   2.475   4.977  0.0019 -0.1292  0.0883
    1C        C   46   2.834   2.747   2.790  0.3914  0.3345 -0.1876
    1C        C   47   2.889   2.703   2.912 -0.0190 -0.0561 -0.1421
    1C        C   48   2.837   2.753   3.033 -0.1292 -0.3704 -0.0595
    1C        C   49   3.010   2.635   3.157 -0.2159 -0.1271  0.0518
    1C        C   50   2.890   2.710   3.157 -0.2051 -0.1134  0.0624
    1C        C   51   3.076   2.609   3.279 -0.3088  0.2868  0.1911
    1C        C   52   3.015   2.642   3.402 -0.2178 -0.1651  0.3597
    1C        C   53   3.203   2.546   3.524  0.0960  0.2229 -0.1173
    1C        C   54   3.076   2.608   3.524  0.0067  0.0430  0.3056
    1C        C   55   3.273   2.527   3.646  0.0219  0.3296 -0.0566
    1C        C   56   3.204   2.550   3.767  0.2040  0.3159  0.0507
    1C        C   57   3.411   2.502   3.890  0.1285  0.0646 -0.1323
    1C        C   58   3.273   2.529   3.888  0.0748 -0.1939  0.0355
    1C        C   59   3.486   2.501   4.010  0.0623 -0.1295 -0.0927
    1C        C   60   3.414   2.506   4.132  0.1062  0.1205 -0.0768
    1C        C   61   3.626   2.499   4.254  0.0462 -0.0422  0.2012
    1C        C   62   3.485   2.499   4.254  0.0419 -0.3535 -0.0636
    1C        C   63   3.697   2.504   4.375  0.2409 -0.1128  0.0927
    1C        C   64   3.626   2.508   4.497 -0.1053  0.0538 -0.1095
    1C        C   65   3.832   2.548   4.618  0.2040  0.1834 -0.1077
    1C        C   66   3.696   2.511   4.620  0.3175 -0.2662 -0.3344
    1C        C   67   3.901   2.560   4.740 -0.2344 -0.2718  0.1911
    1C        C   68   3.837   2.522   4.861 -0.3577 -0.3603  0.1035
    1C        C   69   4.051   2.575   4.971  0.1059 -0.3246 -0.3546
    1C        C   70   3.920   2.527   4.974 -0.1812  0.4613 -0.0555
    1C        C   71   2.820   2.730   2.303  0.1492  0.0434 -0.6156
    1C        C   72   2.873   2.683   2.425  0.5885  1.1893 -0.3556
    1C        C   73   2.823   2.736   2.546  0.0604  0.1153 -0.0877
    1C        C   74   3.003   2.623   2.668  0.1359  0.1434  0.0027
    1C        C   75   2.881   2.694   2.668 -0.0478 -0.1760 -0.1376
    1C        C   76   3.068   2.594   2.790  0.1458  0.0729 -0.0209
    1C        C   77   3.010   2.630   2.914  0.0637  0.0865 -0.0656
    1C        C   78   3.205   2.547   3.034 -0.0226  0.3970  0.1423
    1C        C   79   3.073   2.597   3.036 -0.1759  0.0013  0.0335
    1C        C   80   3.271   2.528   3.157  0.0825  0.4037  0.0852
    1C        C   81   3.203   2.549   3.280 -0.3001  0.3016 -0.1073
    1C        C   82   3.411   2.509   3.402 -0.2499 -0.4133  0.0219
    1C        C   83   3.271   2.527   3.402 -0.2168 -0.1431 -0.2328
    1C        C   84   3.483   2.500   3.523 -0.0969 -0.2129 -0.0527
    1C        C   85   3.413   2.504   3.645 -0.1739 -0.9215 -0.0707
    1C        C   86   3.623   2.495   3.766  0.0398 -0.2079 -0.1200
    1C        C   87   3.482   2.494   3.768  0.0400 -0.4640 -0.1522
    1C        C   88   3.696   2.503   3.886 -0.0865 -0.3077 -0.0365
    1C        C   89   3.627   2.505   4.009  0.0374  0.8057  0.0229
    1C        C   90   3.834   2.542   4.134  0.0663 -0.5244 -0.0988
    1C        C   91   3.697   2.507   4.132 -0.1069  0.1318  0.1212
    1C        C   92   3.901   2.564   4.256  0.3761 -0.3237 -0.3031
    1C        C   93   3.836   2.532   4.376  0.2204  0.0305 -0.2858
    1C        C   94   4.026   2.634   4.497  0.3993 -0.3789 -0.0431
    1C        C   95   3.901   2.568   4.496 -0.1384  0.5921 -0.2467
    1C        C   96   4.085   2.673   4.620 -0.1799  0.1644  0.0815
    1C        C   97   4.028   2.623   4.739 -0.2627 -0.2082 -0.1042
    1C        C   98   4.190   2.761   4.862  0.2456 -0.2764 -0.3244
    1C        C   99   4.097   2.652   4.860 -0.2229  0.1070 -0.1974
    1C        C  100   4.219   2.836   4.977 -0.0420  0.0373 -0.4472
    1C        C  101   2.815   2.723   2.068 -0.0326  0.3312 -0.5719
    1C        C  102   2.985   2.582   2.189 -0.6340 -0.6492  0.2305
    1C        C  103   2.876   2.674   2.185 -0.2930 -0.2693 -0.6819
    1C        C  104   3.056   2.563   2.310 -0.1946 -0.2143  0.0420
    1C        C  105   2.994   2.610   2.428  0.1319  0.4302 -0.0345
    1C        C  106   3.197   2.535   2.548 -0.0805 -0.2939 -0.2807
    1C        C  107   3.065   2.584   2.547  0.1906  0.4479 -0.0663
    1C        C  108   3.266   2.510   2.669 -0.4447 -0.4944 -0.1112
    1C        C  109   3.198   2.539   2.789  0.0394 -0.1752  0.0906
    1C        C  110   3.406   2.497   2.913 -0.1040 -0.1664  0.1347
    1C        C  111   3.267   2.519   2.911 -0.0640  0.0882  0.1907
    1C        C  112   3.480   2.495   3.034  0.0264 -0.3433  0.0524
    1C        C  113   3.410   2.504   3.156  0.0325  0.1044  0.0230
    1C        C  114   3.621   2.498   3.278 -0.1577 -0.2875 -0.2066
    1C        C  115   3.480   2.497   3.279 -0.1559 -0.6311  0.0935
    1C        C  116   3.692   2.508   3.400 -0.1723 -0.3003 -0.1952
    1C        C  117   3.624   2.498   3.523 -0.0962 -0.2698 -0.1493
    1C        C  118   3.833   2.533   3.643 -0.0780  0.3478 -0.0929
    1C        C  119   3.696   2.501   3.645 -0.0785  0.3436 -0.1677
    1C        C  120   3.898   2.561   3.766 -0.3653  0.5915  0.0034
    1C        C  121   3.831   2.545   3.889 -0.2479  0.2198  0.0188
    1C        C  122   4.024   2.630   4.011 -0.0955  0.0096 -0.3937
    1C        C  123   3.900   2.564   4.011  0.0430 -0.2578 -0.0667
    1C        C  124   4.087   2.667   4.131 -0.6329  0.3480 -0.2119
    1C        C  125   4.024   2.633   4.253  0.1039  0.1932  0.1349
    1C        C  126   4.191   2.767   4.375  0.1772  0.3585 -0.1680
    1C        C  127   4.083   2.675   4.375  0.0234  0.5279  0.0669
    1C        C  128   4.237   2.822   4.496  0.4187 -0.0006 -0.0866
    1C        C  129   4.187   2.770   4.618 -0.2149  0.2069 -0.2423
    1C        C  130   4.320   2.934   4.738 -0.0461 -0.0200  0.3986
    1C        C  131   4.239   2.817   4.741  0.5268 -0.4421 -0.2912
    1C        C  132   4.350   3.003   4.858 -0.3948  0.4682  0.2135
    1C        C  133   4.291   2.955   4.976 -0.5508  0.3541  0.0926
    1C        C  134   3.169   2.468   2.080 -0.0033 -0.1166 -0.9161
    1C        C  135   3.034   2.507   2.077 -0.2269 -0.7183  0.4525
    1C        C  136   3.255   2.474   2.190 -0.2754 -0.1997 -0.6964
    1C        C  137   3.190   2.516   2.308  0.0247  0.4122 -0.7466
    1C        C  138   3.404   2.483   2.426 -0.4895 -0.6129 -0.1211
    1C        C  139   3.266   2.511   2.428 -0.3971 -0.1221 -0.4966
    1C        C  140   3.475   2.472   2.547 -0.4691 -0.1445 -0.0914
    1C        C  141   3.405   2.484   2.669 -0.3793 -0.1412 -0.0407
    1C        C  142   3.617   2.481   2.791 -0.3698  0.3141 -0.2508
    1C        C  143   3.476   2.484   2.791 -0.3775  0.0094 -0.0413
    1C        C  144   3.688   2.503   2.911 -0.2417  0.0965 -0.2848
    1C        C  145   3.621   2.503   3.034  0.0359 -0.4778 -0.1263
    1C        C  146   3.831   2.526   3.156 -0.1118  0.1727 -0.0056
    1C        C  147   3.692   2.501   3.156  0.0174 -0.5780 -0.1146
    1C        C  148   3.898   2.553   3.277  0.0541  0.0558 -0.0684
    1C        C  149   3.830   2.538   3.400 -0.3365  0.4792 -0.2297
    1C        C  150   4.026   2.621   3.520 -0.5201  0.8569 -0.2949
    1C        C  151   3.899   2.559   3.521 -0.4097  0.6288 -0.2123
    1C        C  152   4.081   2.663   3.643 -0.5413  0.8959 -0.2974
    1C        C  153   4.022   2.628   3.767 -0.4145  0.6927 -0.2939
    1C        C  154   4.191   2.760   3.886  0.2542 -0.1309 -0.0521
    1C        C  155   4.080   2.673   3.888 -0.0696  0.2687 -0.2961
    1C        C  156   4.244   2.807   4.008  0.1575  0.1064 -0.0979
    1C        C  157   4.194   2.760   4.131 -0.2506 -0.0824 -0.3276
    1C        C  158   4.334   2.920   4.250 -0.2335  0.1941 -0.1150
    1C        C  159   4.246   2.810   4.252 -0.2676  0.2049 -0.4316
    1C        C  160   4.370   2.984   4.370  0.6777 -0.1459 -0.1881
    1C        C  161   4.328   2.930   4.494  0.5321 -0.0924 -0.2084
    1C        C  162   4.436   3.111   4.612  0.0213 -0.5857  0.1550
    1C        C  163   4.366   2.988   4.616  0.2234 -0.7036  0.1871
    1C        C  164   4.462   3.180   4.733  0.5721 -0.1807 -0.1921
    1C        C  165   4.427   3.120   4.856  0.4777 -0.1019 -0.1795
    1C        C  166   4.504   3.321   4.967  0.0743 -0.0620 -0.1134
    1C        C  167   4.470   3.186   4.972  0.4682 -0.1637 -0.1409
    1C        C  168   3.471   2.430   2.073 -0.1523  0.7103 -0.3267
    1C        C  169   3.395   2.452   2.189 -0.1952  0.2609 -0.2701
    1C        C  170   3.615   2.471   2.306 -0.3888  0.6938  0.0862
    1C        C  171   3.474   2.456   2.305 -0.3254  0.0432 -0.1736
    1C        C  172   3.688   2.485   2.426 -0.3167  0.5543  0.0591
    1C        C  173   3.616   2.488   2.547 -0.5194  0.3333 -0.0563
    1C        C  174   3.822   2.537   2.667 -0.2804  0.3246  0.0089
    1C        C  175   3.687   2.498   2.669 -0.2575  0.2271 -0.1999
    1C        C  176   3.890   2.562   2.788 -0.2986  0.0271  0.0830
    1C        C  177   3.827   2.530   2.911 -0.3783  0.8178  0.2558
    1C        C  178   4.021   2.615   3.029  0.3152  0.0994 -0.3170
    1C        C  179   3.897   2.548   3.032 -0.1298  0.9170  0.1037
    1C        C  180   4.083   2.651   3.150  0.3318  0.0330 -0.3024
    1C        C  181   4.025   2.613   3.273 -0.1211  0.4150 -0.3904
    1C        C  182   4.188   2.749   3.395 -0.1297  0.1691  0.0462
    1C        C  183   4.084   2.653   3.395 -0.1648  0.2025 -0.2974
    1C        C  184   4.237   2.804   3.515 -0.3942  0.7743 -0.1167
    1C        C  185   4.189   2.753   3.638 -0.6401  1.0273 -0.1064
    1C        C  186   4.327   2.914   3.761  0.1236  0.1747  0.2084
    1C        C  187   4.238   2.805   3.760 -0.2180  0.4518 -0.0244
    1C        C  188   4.372   2.971   3.882  0.3681  0.0238  0.1920
    1C        C  189   4.333   2.916   4.006  0.0387  0.2133  0.1754
    1C        C  190   4.441   3.101   4.122  1.4251 -0.3293  0.2299
    1C        C  191   4.375   2.977   4.127  0.2977  0.2458  0.0748
    1C        C  192   4.464   3.170   4.243  0.6540 -0.0132  0.2057
    1C        C  193   4.430   3.112   4.367  0.5184 -0.0582  0.1517
    1C        C  194   4.499   3.312   4.484  0.0325 -0.2476  0.0959
    1C        C  195   4.461   3.176   4.490  0.2394 -0.2952  0.3501
    1C        C  196   4.512   3.382   4.605  0.4332  0.0719 -0.1303
    1C        C  197   4.506   3.315   4.729  0.5642 -0.1798 -0.2606
    1C        C  198   4.554   3.531   4.843  0.1168 -0.2259  0.0143
    1C        C  199   4.529   3.390   4.848  0.4237 -0.2833 -0.1688
    1C        C  200   4.584   3.616   4.955 -0.3462 -0.3127  0.2074
    1C        C  201   3.610   2.411   2.074 -0.2031  0.3433  0.5711
    1C        C  202   3.823   2.504   2.183  0.3112 -0.4052  0.2578
    1C        C  203   3.686   2.462   2.184  0.1488  0.1121  0.4341
    1C        C  204   3.894   2.535   2.302  0.5799 -0.8332  0.2125
    1C        C  205   3.824   2.522   2.424 -0.2596  0.3363 -0.1173
    1C        C  206   4.018   2.616   2.541 -0.5698  0.7686  0.0147
    1C        C  207   3.891   2.554   2.544 -0.4371  0.4896 -0.0586
    1C        C  208   4.078   2.655   2.663 -0.4919  0.6768  0.0079
    1C        C  209   4.016   2.626   2.786 -0.2556 -0.0562 -0.0410
    1C        C  210   4.193   2.740   2.906  0.6368 -0.3712  0.1628
    1C        C  211   4.080   2.657   2.908  0.2170  0.1757 -0.3415
    1C        C  212   4.241   2.795   3.027  0.5060  0.2269 -0.0479
    1C        C  213   4.189   2.745   3.149  0.0924  0.3130 -0.1844
    1C        C  214   4.319   2.911   3.270  0.5500 -0.4987  0.2604
    1C        C  215   4.238   2.796   3.271  0.1998 -0.2581  0.0153
    1C        C  216   4.364   2.968   3.391  0.3698 -0.1277  0.1554
    1C        C  217   4.326   2.913   3.516  0.6068 -0.0284  0.2720
    1C        C  218   4.428   3.099   3.635  0.8572 -0.0924  0.2363
    1C        C  219   4.361   2.975   3.638 -0.1632  0.4441  0.2612
    1C        C  220   4.455   3.166   3.756  1.5465 -0.3146  0.2108
    1C        C  221   4.429   3.101   3.879  0.6045 -0.0789  0.1505
    1C        C  222   4.502   3.303   3.995  0.5150 -0.1610  0.0817
    1C        C  223   4.461   3.168   3.999  1.1512 -0.3573  0.1661
    1C        C  224   4.516   3.374   4.116  0.3664 -0.0609  0.0407
    1C        C  225   4.499   3.307   4.239  0.9484 -0.0888  0.1114
    1C        C  226   4.512   3.520   4.359  0.0690 -0.1137  0.0116
    1C        C  227   4.506   3.379   4.360  0.2263 -0.1195  0.1766
    1C        C  228   4.513   3.593   4.480 -0.4710 -0.0933  0.0002
    1C        C  229   4.525   3.523   4.602  0.4775  0.0688 -0.0006
    1C        C  230   4.498   3.737   4.719 -0.2768 -0.1469  0.0196
    1C        C  231   4.530   3.599   4.721 -0.0591 -0.0940  0.1229
    1C        C  232   4.491   3.812   4.839 -0.0039 -0.1408  0.0302
    1C        C  233   4.543   3.749   4.953  0.0449 -0.1948 -0.0230
    1C        C  234   4.015   2.597   2.062 -0.4954  0.8097 -0.0724
    1C        C  235   3.889   2.539   2.065  0.2423 -0.8630  0.0805
    1C        C  236   4.082   2.640   2.178 -0.2591 -0.0447  0.1171
    1C        C  237   4.022   2.597   2.299  0.2138 -0.0524  0.3505
    1C        C  238   4.194   2.731   2.417  0.1526  0.3388  0.3246
    1C        C  239   4.082   2.644   2.418 -0.0718  0.6217  0.2358
    1C        C  240   4.244   2.783   2.538  0.5523 -0.2915  0.4314
    1C        C  241   4.189   2.743   2.662 -0.1200  0.2179  0.3000
    1C        C  242   4.327   2.903   2.780  0.5445 -0.1689 -0.0407
    1C        C  243   4.244   2.789   2.784  0.3504 -0.0235  0.1789
    1C        C  244   4.370   2.960   2.902  0.7876 -0.2865 -0.0698
    1C        C  245   4.327   2.906   3.025  0.3621  0.3428  0.0668
    1C        C  246   4.430   3.090   3.144 -0.2800  0.1903  0.1970
    1C        C  247   4.363   2.966   3.148  0.1572 -0.0448  0.3200
    1C        C  248   4.456   3.157   3.266  0.5689 -0.1661  0.2179
    1C        C  249   4.429   3.093   3.389  0.6839 -0.2868  0.1817
    1C        C  250   4.493   3.296   3.507  0.3838 -0.1136  0.3199
    1C        C  251   4.449   3.162   3.510  0.1569 -0.0448  0.1368
    1C        C  252   4.505   3.369   3.628  0.8878  0.0165  0.1968
    1C        C  253   4.493   3.302   3.751  1.2497 -0.2331  0.0976
    1C        C  254   4.519   3.512   3.872  0.4035 -0.1387  0.1668
    1C        C  255   4.516   3.371   3.872  0.8575 -0.1489  0.1267
    1C        C  256   4.518   3.585   3.993  0.1555 -0.0897  0.1345
    1C        C  257   4.523   3.515   4.116  0.5485 -0.0696  0.1286
    1C        C  258   4.496   3.729   4.234 -0.4988 -0.1231  0.3559
    1C        C  259   4.518   3.589   4.236  0.2703 -0.0099  0.0805
    1C        C  260   4.476   3.799   4.354 -0.3853  0.1486  0.2147
    1C        C  261   4.491   3.732   4.478 -0.2849 -0.0654  0.0849
    1C        C  262   4.425   3.937   4.596 -0.1498 -0.0026  0.1674
    1C        C  263   4.472   3.804   4.598 -0.4296 -0.1010  0.0796
    1C        C  264   4.399   4.006   4.717 -0.1514 -0.2051  0.2798
    1C        C  265   4.431   3.940   4.838 -0.1612 -0.2130  0.2760
    1C        C  266   4.316   4.125   4.953  0.3500  0.4369  0.3522
    1C        C  267   4.392   4.009   4.953 -0.1272  0.1205  0.0874
    1C        C  268   4.259   2.767   2.058 -0.1401  0.5656  0.7480
    1C        C  269   4.194   2.725   2.175 -0.2028 -0.1037  0.4764
    1C        C  270   4.345   2.880   2.296  0.0988  0.1624  0.2773
    1C        C  271   4.248   2.776   2.295  0.0669  0.1920  0.2321
    1C        C  272   4.377   2.949   2.415 -0.1694  0.5114  0.1480
    1C        C  273   4.333   2.893   2.536  0.2326 -0.0394  0.0431
    1C        C  274   4.435   3.081   2.655  0.4679 -0.0722  0.1745
    1C        C  275   4.372   2.955   2.656  0.5294 -0.1051 -0.0203
    1C        C  276   4.460   3.149   2.777  0.7440  0.0035  0.0778
    1C        C  277   4.437   3.084   2.900  0.7018 -0.2388 -0.0555
    1C        C  278   4.499   3.288   3.019 -0.1449 -0.2429 -0.1159
    1C        C  279   4.464   3.151   3.021  0.4045 -0.3832  0.0931
    1C        C  280   4.517   3.358   3.141  0.1333 -0.3812 -0.0753
    1C        C  281   4.493   3.294   3.264  0.2576 -0.0826  0.1078
    1C        C  282   4.519   3.506   3.381  0.4647 -0.3355 -0.0838
    1C        C  283   4.507   3.366   3.385  0.6670 -0.3452  0.2195
    1C        C  284   4.520   3.577   3.503  0.4859 -0.1670 -0.1804
    1C        C  285   4.522   3.509   3.626  0.8333  0.0219 -0.0788
    1C        C  286   4.487   3.719   3.746 -0.6299 -0.4306  0.3803
    1C        C  287   4.514   3.580   3.748 -0.0825 -0.3312  0.0780
    1C        C  288   4.471   3.790   3.867 -0.8940 -0.1985  0.2103
    1C        C  289   4.495   3.724   3.990 -0.7594 -0.2303  0.1657
    1C        C  290   4.430   3.928   4.110 -0.0422 -0.1732 -0.1952
    1C        C  291   4.479   3.796   4.111 -0.3115 -0.2707  0.2508
    1C        C  292   4.389   3.990   4.231 -0.4611 -0.4195 -0.2119
    1C        C  293   4.413   3.925   4.354 -0.8329 -0.0747  0.0395
    1C        C  294   4.323   4.121   4.473 -0.3316 -0.1088  0.1807
    1C        C  295   4.395   3.999   4.473 -0.4334 -0.1652  0.1568
    1C        C  296   4.283   4.185   4.592 -0.2449 -0.2619  0.2898
    1C        C  297   4.330   4.130   4.713 -0.1708 -0.2179  0.2790
    1C        C  298   4.198   4.305   4.830 -0.2126 -0.0885 -0.1829
    1C        C  299   4.286   4.192   4.833 -0.2538 -0.1104  0.1905
    1C        C  300   4.164   4.387   4.942 -0.2813  0.1432 -0.3761
    1C        C  301   4.344   2.877   2.058 -0.0775  0.5213 -0.0988
    1C        C  302   4.455   3.066   2.168  0.1935 -0.1826 -0.3472
    1C        C  303   4.392   2.937   2.175  0.1364 -0.1302  0.1543
    1C        C  304   4.474   3.137   2.290  0.5915 -0.4003 -0.2809
    1C        C  305   4.440   3.076   2.412  0.2896  0.2818 -0.0194
    1C        C  306   4.494   3.283   2.531  0.3325 -0.0194  0.0299
    1C        C  307   4.465   3.145   2.533  0.2167  0.0068  0.1533
    1C        C  308   4.504   3.353   2.652  0.7108 -0.0235  0.0033
    1C        C  309   4.493   3.286   2.776  0.3210  0.1071  0.0428
    1C        C  310   4.523   3.498   2.894  0.0951  0.0967  0.4762
    1C        C  311   4.505   3.358   2.897 -0.0891  0.1099  0.0855
    1C        C  312   4.524   3.571   3.015  0.3061  0.3048  0.3518
    1C        C  313   4.528   3.499   3.137  1.1830 -0.4581 -0.1167
    1C        C  314   4.488   3.711   3.258 -0.0074 -0.5269  0.0652
    1C        C  315   4.522   3.574   3.257  0.2685 -0.4596 -0.1577
    1C        C  316   4.476   3.784   3.378 -0.6556 -0.5284  0.0078
    1C        C  317   4.493   3.716   3.501  0.1244 -0.2315  0.0725
    1C        C  318   4.422   3.917   3.622 -0.9204 -0.8487 -0.2292
    1C        C  319   4.468   3.784   3.622 -0.1424 -0.5878  0.2190
    1C        C  320   4.391   3.981   3.745 -0.7151 -0.7046 -0.2530
    1C        C  321   4.423   3.922   3.869 -0.5023 -0.0506  0.0048
    1C        C  322   4.311   4.106   3.985 -0.4348  0.0207  0.3322
    1C        C  323   4.394   3.991   3.989 -0.5713 -0.0878  0.0085
    1C        C  324   4.268   4.159   4.109  0.0594  0.7837  0.1783
    1C        C  325   4.317   4.111   4.232 -0.6707 -0.5477 -0.0389
    1C        C  326   4.180   4.277   4.348 -0.0202 -0.1878  0.3739
    1C        C  327   4.282   4.178   4.351 -0.2048 -0.3876  0.0084
    1C        C  328   4.125   4.328   4.467 -0.2628 -0.0021  0.1796
    1C        C  329   4.186   4.288   4.588  0.0470  0.0041  0.0250
    1C        C  330   4.023   4.428   4.708 -0.4438 -0.2681  0.2101
    1C        C  331   4.140   4.348   4.708 -0.1777  0.1228 -0.1236
    1C        C  332   3.963   4.477   4.826 -0.2181  0.1433  0.1545
    1C        C  333   4.042   4.456   4.940 -0.4602 -0.1437  0.2700
    1C        C  334   4.540   3.261   2.055  0.4053  0.1138 -0.1049
    1C        C  335   4.528   3.122   2.059 -0.0364  0.1458 -0.3303
    1C        C  336   4.532   3.344   2.168  0.0406  0.0356 -0.0733
    1C        C  337   4.509   3.275   2.289  0.3197 -0.3318 -0.2287
    1C        C  338   4.529   3.491   2.406 -0.0041 -0.3070  0.1006
    1C        C  339   4.516   3.350   2.408 -0.2207 -0.2930 -0.2216
    1C        C  340   4.522   3.564   2.527  0.6113 -0.1610  0.0499
    1C        C  341   4.515   3.494   2.650  0.8580 -0.0311  0.1392
    1C        C  342   4.503   3.707   2.770  0.0806 -0.2660 -0.0551
    1C        C  343   4.519   3.567   2.771  0.3636 -0.2355  0.2802
    1C        C  344   4.482   3.776   2.891  0.0782 -0.2489 -0.0645
    1C        C  345   4.491   3.708   3.015 -0.6855  0.0762  0.1766
    1C        C  346   4.412   3.907   3.130 -0.8572 -0.3617 -0.2024
    1C        C  347   4.468   3.778   3.135 -0.1885 -0.0550  0.3498
    1C        C  348   4.386   3.973   3.253 -0.3709 -0.3519 -0.1049
    1C        C  349   4.418   3.912   3.376  0.0246 -0.2168 -0.1388
    1C        C  350   4.315   4.096   3.497 -0.1875 -0.2472  0.1872
    1C        C  351   4.393   3.978   3.499 -0.3968 -0.3911 -0.1306
    1C        C  352   4.266   4.151   3.617 -0.7179 -0.7942  0.2225
    1C        C  353   4.309   4.096   3.740 -0.7487 -0.7054  0.2724
    1C        C  354   4.166   4.254   3.862  0.1324  0.4095  0.1517
    1C        C  355   4.268   4.156   3.861 -0.8497 -0.6392  0.2050
    1C        C  356   4.113   4.303   3.983 -0.0242  0.4247  0.0748
    1C        C  357   4.164   4.254   4.105 -0.5146  0.1580  0.1753
    1C        C  358   3.999   4.388   4.226  0.0156  0.0770 -0.0840
    1C        C  359   4.114   4.306   4.227 -0.1333 -0.1287  0.4522
    1C        C  360   3.942   4.433   4.347 -0.1424  0.1152 -0.1746
    1C        C  361   4.008   4.406   4.469 -0.4145 -0.2271 -0.1047
    1C        C  362   3.819   4.501   4.590 -0.1203 -0.0976 -0.0741
    1C        C  363   3.953   4.457   4.589 -0.2188 -0.3925  0.0519
    1C        C  364   3.756   4.537   4.710 -0.0855 -0.5756  0.0870
    1C        C  365   3.832   4.532   4.829 -0.2541  0.0489  0.2239
    1C        C  366   3.626   4.588   4.945 -0.1358 -0.1817  0.4977
    1C        C  367   3.764   4.569   4.945 -0.0390  0.4808  0.2132
    1C        C  368   4.507   3.561   2.049 -0.1088 -0.0985 -0.0185
    1C        C  369   4.528   3.485   2.166 -0.0250  0.0352  0.0533
    1C        C  370   4.500   3.701   2.285 -0.0367 -0.1652 -0.0264
    1C        C  371   4.520   3.561   2.284 -0.0771 -0.1725  0.1834
    1C        C  372   4.484   3.773   2.406 -0.3315 -0.3499  0.0439
    1C        C  373   4.506   3.704   2.527 -0.0515 -0.2340  0.0611
    1C        C  374   4.423   3.901   2.647  0.4572 -0.0058 -0.2005
    1C        C  375   4.488   3.775   2.647  0.3461 -0.0629  0.0215
    1C        C  376   4.384   3.963   2.767 -0.0532 -0.1516 -0.2882
    1C        C  377   4.429   3.906   2.889 -0.1745 -0.3557 -0.3379
    1C        C  378   4.317   4.094   3.010 -0.8550 -0.7868  0.0933
    1C        C  379   4.389   3.973   3.007  0.1120 -0.2213 -0.3161
    1C        C  380   4.271   4.152   3.130 -0.7738 -0.7624  0.1128
    1C        C  381   4.309   4.092   3.251 -0.7227 -0.5753  0.1901
    1C        C  382   4.161   4.241   3.373 -0.1239 -0.0749  0.2100
    1C        C  383   4.263   4.143   3.374 -0.7126 -0.6873  0.2401
    1C        C  384   4.110   4.295   3.493  0.0404  0.6744 -0.0519
    1C        C  385   4.167   4.252   3.615 -0.0329 -0.1263 -0.2975
    1C        C  386   3.994   4.370   3.738  0.4587 -0.2302  0.0854
    1C        C  387   4.116   4.298   3.738  0.8630  0.4479 -0.1339
    1C        C  388   3.930   4.405   3.859 -0.4964 -0.3395 -0.3863
    1C        C  389   3.993   4.378   3.982 -0.3445 -0.0873 -0.4106
    1C        C  390   3.808   4.478   4.104  0.3381  0.4661 -0.1029
    1C        C  391   3.938   4.423   4.104  0.0639 -0.1944 -0.1860
    1C        C  392   3.744   4.509   4.226  0.2241  0.3087 -0.1220
    1C        C  393   3.815   4.495   4.348 -0.1248  0.1465  0.0622
    1C        C  394   3.609   4.542   4.472 -0.2948 -0.1881  0.3443
    1C        C  395   3.748   4.521   4.469 -0.2885 -0.1038  0.0248
    1C        C  396   3.538   4.558   4.593 -0.1411  0.2955  0.3717
    1C        C  397   3.615   4.553   4.712 -0.0791 -0.5450  0.3013
    1C        C  398   3.407   4.533   4.838 -0.1087  0.6155  0.0165
    1C        C  399   3.545   4.565   4.833  0.0469 -0.0012  0.3239
    1C        C  400   3.335   4.503   4.955 -0.5893  1.2783 -0.1058
    1C        C  401   4.508   3.700   2.048 -0.0994 -0.0988 -0.0234
    1C        C  402   4.452   3.910   2.164  0.2990  0.0085 -0.1297
    1C        C  403   4.491   3.774   2.165 -0.3245 -0.1725 -0.0087
    1C        C  404   4.405   3.970   2.283  0.4105 -0.0826 -0.0403
    1C        C  405   4.428   3.902   2.405  0.2409 -0.0985 -0.0181
    1C        C  406   4.318   4.085   2.524 -0.5793 -0.3005  0.2288
    1C        C  407   4.399   3.969   2.526 -0.3699 -0.1614 -0.1259
    1C        C  408   4.260   4.132   2.643 -0.7000 -0.2901  0.1652
    1C        C  409   4.304   4.079   2.766 -0.6441 -0.5519  0.0296
    1C        C  410   4.164   4.238   2.886 -0.4173 -0.4296  0.2079
    1C        C  411   4.270   4.144   2.886 -0.5262 -0.5514  0.0625
    1C        C  412   4.103   4.281   3.006 -0.2059  0.0600  0.1383
    1C        C  413   4.163   4.244   3.128 -0.4664 -0.4023  0.1283
    1C        C  414   3.993   4.370   3.249 -0.5860 -0.6917 -0.0057
    1C        C  415   4.109   4.289   3.250 -0.5124 -0.5814  0.1730
    1C        C  416   3.932   4.405   3.371 -0.0691  0.2181 -0.0054
    1C        C  417   3.996   4.377   3.494  0.1560  0.8324  0.0205
    1C        C  418   3.804   4.465   3.615  0.3340  0.1204  0.3362
    1C        C  419   3.933   4.407   3.617  0.5109  0.5125  0.2831
    1C        C  420   3.736   4.490   3.737 -0.2164  0.2655  0.0003
    1C        C  421   3.799   4.459   3.859 -0.3476  0.0206  0.0046
    1C        C  422   3.602   4.526   3.984 -0.0065  0.6479  0.0381
    1C        C  423   3.740   4.497   3.981 -0.1241  0.0859  0.0921
    1C        C  424   3.532   4.530   4.107  0.1700  0.1406  0.1550
    1C        C  425   3.605   4.528   4.228  0.2245  0.2831  0.1240
    1C        C  426   3.395   4.541   4.354  0.1418 -0.0528 -0.4788
    1C        C  427   3.536   4.541   4.351  0.1564  0.5205  0.0616
    1C        C  428   3.324   4.538   4.476  0.2592 -0.2421 -0.4153
    1C        C  429   3.398   4.546   4.597 -0.1045 -0.3377 -0.1855
    1C        C  430   3.189   4.516   4.722  0.0166  0.0409 -0.2217
    1C        C  431   3.330   4.536   4.720  0.0208  0.0199 -0.0869
    1C        C  432   3.118   4.492   4.843 -0.0865  0.1688 -0.2575
    1C        C  433   3.197   4.485   4.958 -0.5086  0.6923  0.0674
    1C        C  434   4.381   4.124   2.052 -0.1716  0.3488  0.1648
    1C        C  435   4.441   3.997   2.055 -0.1977  0.3370  0.1773
    1C        C  436   4.297   4.158   2.162 -0.0759 -0.1231  0.3853
    1C        C  437   4.323   4.086   2.282  0.0973 -0.3029  0.2407
    1C        C  438   4.171   4.239   2.401 -0.6494 -0.6878 -0.4594
    1C        C  439   4.273   4.140   2.402 -0.4664 -0.4962  0.0975
    1C        C  440   4.111   4.286   2.519 -0.5174 -0.8086 -0.3436
    1C        C  441   4.158   4.230   2.640 -0.7115 -0.3098 -0.0349
    1C        C  442   3.993   4.361   2.762 -0.3393 -0.4506 -0.0240
    1C        C  443   4.107   4.278   2.763 -0.3140 -0.4099  0.1683
    1C        C  444   3.926   4.397   2.881 -0.2900  0.0408 -0.1483
    1C        C  445   3.988   4.362   3.003  0.0462  0.4094 -0.2112
    1C        C  446   3.802   4.460   3.129  0.1689  0.4476 -0.2389
    1C        C  447   3.929   4.399   3.127 -0.0395  0.0033 -0.1309
    1C        C  448   3.733   4.481   3.250  0.5187  0.9267 -0.1251
    1C        C  449   3.800   4.455   3.372 -0.0777  0.1923  0.0470
    1C        C  450   3.598   4.521   3.494  0.2475 -0.3240  0.0469
    1C        C  451   3.734   4.482   3.494  0.3611  0.0682  0.3138
    1C        C  452   3.531   4.536   3.618 -0.0752  0.1902 -0.1863
    1C        C  453   3.599   4.525   3.741 -0.1813  0.4130 -0.1103
    1C        C  454   3.389   4.544   3.862 -0.0299  0.6279 -0.1050
    1C        C  455   3.530   4.540   3.864 -0.0441  0.1286  0.0003
    1C        C  456   3.321   4.534   3.986  0.1355 -0.1599 -0.0721
    1C        C  457   3.391   4.532   4.108  0.1739  0.7536 -0.0703
    1C        C  458   3.185   4.503   4.235 -0.1969  0.1753 -0.3020
    1C        C  459   3.323   4.533   4.232 -0.2362  0.3632 -0.2895
    1C        C  460   3.118   4.489   4.358 -0.1014  0.5217 -0.2088
    1C        C  461   3.185   4.516   4.480  0.2544 -0.1876 -0.2445
    1C        C  462   2.991   4.431   4.598  0.0569  0.2400 -0.0428
    1C        C  463   3.118   4.495   4.602  0.0403  0.2852 -0.2787
    1C        C  464   2.930   4.397   4.721  0.2137 -0.2270 -0.0962
    1C        C  465   2.984   4.442   4.844 -0.1397  0.3198 -0.1418
    1C        C  466   2.795   4.333   4.956 -0.0739 -0.3063  0.1378
    1C        C  467   2.895   4.432   4.956 -0.1200 -0.2608 -0.1793
    1C        C  468   4.118   4.282   2.042  0.4550  0.6862 -0.1542
    1C        C  469   4.182   4.243   2.160 -0.1533 -0.2344 -0.1207
    1C        C  470   3.996   4.360   2.274 -0.5738 -0.2715  0.0021
    1C        C  471   4.116   4.285   2.279 -0.4611 -0.1168 -0.3299
    1C        C  472   3.933   4.395   2.396 -0.2165 -0.2192  0.1721
    1C        C  473   3.995   4.367   2.519  0.2711  0.3588  0.0645
    1C        C  474   3.803   4.453   2.638  0.0909  0.2106 -0.2815
    1C        C  475   3.935   4.405   2.641  0.0881  0.2218  0.0179
    1C        C  476   3.734   4.477   2.759 -0.0854  0.3935 -0.4172
    1C        C  477   3.797   4.454   2.884 -0.1216  0.4378 -0.3923
    1C        C  478   3.597   4.514   3.007  0.2157  1.0612  0.3186
    1C        C  479   3.735   4.485   3.007  0.0298  0.1155 -0.2330
    1C        C  480   3.526   4.531   3.127 -0.0375  1.0769  0.1685
    1C        C  481   3.597   4.517   3.249  0.4711  0.7432 -0.1629
    1C        C  482   3.388   4.534   3.375  0.5485  0.3334 -0.1730
    1C        C  483   3.529   4.530   3.372  0.5520  0.3861 -0.0760
    1C        C  484   3.320   4.531   3.499  0.3894  0.3096 -0.2597
    1C        C  485   3.390   4.543   3.621 -0.0817 -0.0462  0.0471
    1C        C  486   3.181   4.504   3.741 -0.1576  0.4873 -0.5262
    1C        C  487   3.317   4.542   3.741 -0.1856  0.5807 -0.0103
    1C        C  488   3.118   4.481   3.865 -0.0402  0.2709 -0.5078
    1C        C  489   3.183   4.504   3.989  0.0167  0.3276 -0.5501
    1C        C  490   2.992   4.420   4.111  0.3901 -0.4785  0.3239
    1C        C  491   3.119   4.481   4.112  0.3276 -0.3205 -0.5021
    1C        C  492   2.932   4.386   4.234 -0.0071 -0.1056  0.2349
    1C        C  493   2.993   4.425   4.355 -0.0128  0.3336  0.0968
    1C        C  494   2.825   4.297   4.479  0.1572 -0.1705  0.0987
    1C        C  495   2.933   4.388   4.478  0.2865 -0.3263  0.0468
    1C        C  496   2.775   4.247   4.602  0.3926 -0.4071  0.0971
    1C        C  497   2.822   4.304   4.722 -0.0319  0.0625  0.0416
    1C        C  498   2.668   4.155   4.843 -0.0077 -0.1673 -0.0630
    1C        C  499   2.755   4.266   4.840  0.2266 -0.3475  0.0566
    1C        C  500   2.587   4.115   4.950  0.0316 -0.3396 -0.0969
    1C        C  501   3.998   4.352   2.037  0.0095 -0.0521 -0.0070
    1C        C  502   3.809   4.463   2.154 -0.5795 -0.6953 -0.2401
    1C        C  503   3.935   4.398   2.153 -0.3762 -0.3126 -0.1119
    1C        C  504   3.735   4.470   2.273 -0.0235 -0.1439  0.0866
    1C        C  505   3.802   4.446   2.395 -0.3979 -0.6771  0.1948
    1C        C  506   3.594   4.492   2.517 -0.3886  0.1364 -0.0229
    1C        C  507   3.733   4.470   2.516 -0.3118  0.6105  0.0009
    1C        C  508   3.525   4.513   2.639  0.0972  0.1969  0.2434
    1C        C  509   3.595   4.502   2.761 -0.1362  0.0789  0.3673
    1C        C  510   3.387   4.525   2.881  0.0679  0.2749 -0.1889
    1C        C  511   3.528   4.523   2.884  0.0679  0.7212  0.3751
    1C        C  512   3.317   4.527   3.003 -0.0541  1.0743 -0.2625
    1C        C  513   3.385   4.534   3.127 -0.0331  1.5113 -0.2943
    1C        C  514   3.180   4.505   3.252  0.4384 -0.6063 -0.0744
    1C        C  515   3.318   4.534   3.252  0.3463 -0.1510 -0.0631
    1C        C  516   3.115   4.476   3.375  0.2333 -0.3466 -0.1212
    1C        C  517   3.184   4.495   3.497  0.4539  0.0685 -0.3104
    1C        C  518   2.987   4.418   3.623  0.2683 -0.4565  0.2803
    1C        C  519   3.115   4.477   3.619  0.1347 -0.2209 -0.5324
    1C        C  520   2.934   4.373   3.746  0.2955 -0.2516  0.3649
    1C        C  521   3.001   4.402   3.867  0.5083 -0.5477  0.3148
    1C        C  522   2.828   4.283   3.991  0.6239 -0.6913 -0.0473
    1C        C  523   2.938   4.372   3.989  0.4191 -0.4327  0.2950
    1C        C  524   2.779   4.237   4.115  0.1742 -0.3014 -0.0781
    1C        C  525   2.827   4.291   4.236  0.1204 -0.2541 -0.0796
    1C        C  526   2.695   4.126   4.359  0.1896 -0.0674  0.1546
    1C        C  527   2.780   4.238   4.358  0.4526 -0.2698  0.0397
    1C        C  528   2.655   4.071   4.483  0.4042 -0.3432  0.0997
    1C        C  529   2.689   4.136   4.604  0.1734 -0.2357  0.1048
    1C        C  530   2.584   3.951   4.728 -0.3871 -0.0887  0.1208
    1C        C  531   2.643   4.080   4.725 -0.2784 -0.1407 -0.0222
    1C        C  532   2.536   3.897   4.850 -0.4398 -0.0702  0.1090
    1C        C  533   2.519   3.993   4.955 -0.5428 -0.0186  0.0465
    1C        C  534   3.612   4.548   2.035 -0.2382  0.0535 -0.3968
    1C        C  535   3.746   4.509   2.037 -0.3858 -0.4695 -0.2584
    1C        C  536   3.530   4.526   2.151  0.1835  0.5881  0.0084
    1C        C  537   3.595   4.497   2.274 -0.0782 -0.4014 -0.0744
    1C        C  538   3.383   4.520   2.394 -0.0243  0.9483 -0.1759
    1C        C  539   3.524   4.507   2.395 -0.0193  0.9909 -0.1369
    1C        C  540   3.313   4.511   2.517  0.0801 -0.0425 -0.1753
    1C        C  541   3.384   4.521   2.638  0.0970  0.1781 -0.2018
    1C        C  542   3.175   4.491   2.763  0.0237  0.5495 -0.0528
    1C        C  543   3.313   4.519   2.760  0.0935  0.2098 -0.2025
    1C        C  544   3.108   4.471   2.886 -0.3416  1.0195 -0.1739
    1C        C  545   3.179   4.495   3.005  0.0446  0.6383 -0.3272
    1C        C  546   2.996   4.402   3.131  0.8741 -0.7573  0.0167
    1C        C  547   3.115   4.478   3.130  0.4710 -0.1152 -0.2041
    1C        C  548   2.940   4.363   3.255  0.4252 -0.3994 -0.0727
    1C        C  549   2.992   4.407   3.379  0.5147 -0.8410  0.0459
    1C        C  550   2.830   4.275   3.496  0.5860 -0.3942 -0.2393
    1C        C  551   2.931   4.374   3.502  0.3427 -0.1698  0.1432
    1C        C  552   2.786   4.225   3.620  0.7369 -0.2707 -0.1376
    1C        C  553   2.832   4.276   3.744  0.6193 -0.5808  0.0340
    1C        C  554   2.705   4.113   3.870  0.5309 -0.6185 -0.0391
    1C        C  555   2.780   4.233   3.868  0.4702 -0.5821 -0.0304
    1C        C  556   2.670   4.054   3.994  0.5623 -0.4832  0.0333
    1C        C  557   2.702   4.119   4.116  0.2540 -0.3516  0.0426
    1C        C  558   2.604   3.932   4.240 -0.0166 -0.0115 -0.0652
    1C        C  559   2.664   4.060   4.238  0.5816 -0.2866  0.1739
    1C        C  560   2.568   3.875   4.364 -0.4888  0.2429 -0.0826
    1C        C  561   2.594   3.944   4.485 -0.2149 -0.0457  0.0242
    1C        C  562   2.528   3.743   4.610 -0.0116 -0.0494  0.1551
    1C        C  563   2.566   3.879   4.607 -0.5894  0.1170  0.0272
    1C        C  564   2.508   3.679   4.734 -0.1480 -0.4745 -0.0834
    1C        C  565   2.517   3.755   4.854 -0.2520 -0.1094 -0.3034
    1C        C  566   2.521   3.541   4.968 -0.2819 -0.2303 -0.0088
    1C        C  567   2.516   3.680   4.972  0.1833 -0.2002 -0.3553
    1C        C  568   3.322   4.460   2.037  0.1835 -1.1013  0.3046
    1C        C  569   3.389   4.507   2.151  0.1828  0.5747 -0.3625
    1C        C  570   3.175   4.481   2.274  0.2624  0.9667 -0.2425
    1C        C  571   3.314   4.512   2.272  0.2455  1.0442 -0.3368
    1C        C  572   3.106   4.461   2.396  0.3737 -0.0375 -0.3332
    1C        C  573   3.174   4.484   2.517  0.1152 -0.2358 -0.1455
    1C        C  574   2.982   4.405   2.640  0.1601  0.2383 -0.2172
    1C        C  575   3.109   4.466   2.641  0.1015  0.3638 -0.0606
    1C        C  576   2.925   4.366   2.763  0.2821 -0.1528 -0.2826
    1C        C  577   2.984   4.404   2.886  0.4581 -0.5039 -0.2542
    1C        C  578   2.824   4.273   3.011  0.6927 -0.2589 -0.0040
    1C        C  579   2.930   4.367   3.011  0.8485 -0.4350 -0.0656
    1C        C  580   2.775   4.222   3.133  0.8883 -0.5087 -0.0289
    1C        C  581   2.832   4.272   3.252  0.3154 -0.2769  0.1496
    1C        C  582   2.697   4.110   3.378  0.1798 -0.5241 -0.1579
    1C        C  583   2.781   4.223   3.374  0.0871 -0.4508 -0.0153
    1C        C  584   2.668   4.048   3.501  0.2207 -0.1469  0.0420
    1C        C  585   2.705   4.109   3.623  0.4178 -0.0465 -0.0690
    1C        C  586   2.602   3.929   3.751  0.0154 -0.0314 -0.0619
    1C        C  587   2.669   4.053   3.748  0.0669 -0.0626 -0.1770
    1C        C  588   2.573   3.866   3.874  0.0130 -0.2612 -0.1798
    1C        C  589   2.600   3.932   3.996  0.3948 -0.3920 -0.1951
    1C        C  590   2.535   3.732   4.123  0.2368 -0.0686  0.2033
    1C        C  591   2.571   3.868   4.119  0.1105 -0.0441 -0.0819
    1C        C  592   2.519   3.666   4.247  0.2122 -0.0366  0.2192
    1C        C  593   2.529   3.739   4.367 -0.0274  0.1140  0.1482
    1C        C  594   2.504   3.529   4.490 -0.2089  0.0320  0.1116
    1C        C  595   2.517   3.670   4.490  0.1967 -0.0015  0.1060
    1C        C  596   2.505   3.460   4.613  0.2164 -0.1825 -0.0062
    1C        C  597   2.502   3.537   4.732 -0.0109 -0.4878  0.1926
    1C        C  598   2.520   3.322   4.856 -0.2719 -0.5367  0.4266
    1C        C  599   2.513   3.463   4.851  0.0800 -0.5262  0.1640
    1C        C  600   2.514   3.244   4.972 -0.6837 -0.5274  0.4186
    1C        C  601   3.186   4.438   2.038 -0.0169  0.0754 -0.0680
    1C        C  602   2.975   4.394   2.152  0.1748  0.1820  0.1355
    1C        C  603   3.109   4.444   2.154  0.1386  0.2890  0.0261
    1C        C  604   2.915   4.362   2.277  0.4441 -0.1916  0.1689
    1C        C  605   2.979   4.399   2.397  0.2962  0.1197  0.1550
    1C        C  606   2.814   4.270   2.523  0.1094 -0.3822  0.0538
    1C        C  607   2.920   4.363   2.520  0.4284 -0.7398 -0.0224
    1C        C  608   2.767   4.218   2.645 -0.1863  0.0959  0.1436
    1C        C  609   2.824   4.267   2.765  0.5385 -0.4149  0.0123
    1C        C  610   2.703   4.099   2.892  0.3226 -0.1354 -0.3501
    1C        C  611   2.779   4.217   2.889  0.4328 -0.1953  0.0623
    1C        C  612   2.656   4.045   3.014  0.7078 -0.2490 -0.2514
    1C        C  613   2.689   4.110   3.135  0.5151 -0.2285 -0.2110
    1C        C  614   2.593   3.922   3.261 -0.2337 -0.0621 -0.2442
    1C        C  615   2.655   4.049   3.257  0.3819 -0.3587 -0.3126
    1C        C  616   2.570   3.858   3.384  0.3456  0.1195 -0.0397
    1C        C  617   2.607   3.921   3.505  0.9030 -0.4753  0.1065
    1C        C  618   2.545   3.723   3.632  0.0316 -0.2895 -0.1898
    1C        C  619   2.580   3.860   3.630  0.5208 -0.4086  0.0581
    1C        C  620   2.528   3.658   3.756 -0.0544 -0.3104 -0.2106
    1C        C  621   2.538   3.729   3.877 -0.3246 -0.1811 -0.2587
    1C        C  622   2.509   3.522   4.001  0.1710  0.1709 -0.0640
    1C        C  623   2.524   3.662   4.001  0.8205  0.1086  0.0441
    1C        C  624   2.505   3.453   4.124 -0.4171  0.1902 -0.0656
    1C        C  625   2.512   3.525   4.246  0.8024 -0.0718  0.0420
    1C        C  626   2.530   3.317   4.371  0.1293  0.0515  0.0904
    1C        C  627   2.513   3.457   4.369 -0.2096  0.0169  0.1160
    1C        C  628   2.548   3.250   4.494  0.1726  0.1055  0.1197
    1C        C  629   2.528   3.320   4.615 -0.5879 -0.3194  0.2528
    1C        C  630   2.587   3.115   4.738  0.9379  0.1063 -0.1226
    1C        C  631   2.543   3.251   4.737 -0.1286 -0.2212  0.2596
    1C        C  632   2.612   3.047   4.860  0.2935  0.2830  0.1198
    1C        C  633   2.547   3.107   4.972 -0.1756 -0.4094  0.2323
    1C        C  634   2.775   4.301   2.046  0.4382  0.0177 -0.3901
    1C        C  635   2.883   4.390   2.042  0.3391  0.1586 -0.0036
    1C        C  636   2.749   4.226   2.161  0.4662  0.1076 -0.3234
    1C        C  637   2.800   4.279   2.281  0.7629 -0.6563 -0.1086
    1C        C  638   2.684   4.101   2.405  0.5702 -0.6671 -0.2167
    1C        C  639   2.754   4.224   2.403  0.8324 -0.8152 -0.1524
    1C        C  640   2.647   4.043   2.528  0.4721 -0.1478  0.0018
    1C        C  641   2.681   4.106   2.650 -0.1495  0.0648  0.0710
    1C        C  642   2.587   3.918   2.772 -0.2445 -0.1112 -0.3354
    1C        C  643   2.649   4.045   2.773 -0.5013  0.0111 -0.0482
    1C        C  644   2.567   3.851   2.895 -0.1883  0.1798 -0.1687
    1C        C  645   2.592   3.919   3.016  0.2261 -0.0051 -0.1517
    1C        C  646   2.535   3.717   3.143  0.1997 -0.2071  0.1269
    1C        C  647   2.569   3.854   3.139  0.3895 -0.2631 -0.2559
    1C        C  648   2.521   3.649   3.265  0.1855  0.1297  0.3142
    1C        C  649   2.541   3.720   3.386  0.6196  0.0633  0.2816
    1C        C  650   2.512   3.513   3.512  0.0654 -0.5048 -0.2668
    1C        C  651   2.527   3.654   3.510  0.0334 -0.4959 -0.0749
    1C        C  652   2.518   3.445   3.636  0.3316 -0.3329 -0.1799
    1C        C  653   2.516   3.517   3.757  0.2882 -0.3425 -0.1719
    1C        C  654   2.524   3.309   3.884 -0.3952 -0.1020  0.0838
    1C        C  655   2.509   3.449   3.880  0.4746 -0.0003  0.0330
    1C        C  656   2.542   3.243   4.008 -0.0458 -0.2746 -0.0505
    1C        C  657   2.523   3.313   4.129 -0.3546  0.1835 -0.3526
    1C        C  658   2.599   3.114   4.252  0.2625  0.6752 -0.5536
    1C        C  659   2.547   3.245   4.251 -0.6165  0.3461 -0.2021
    1C        C  660   2.629   3.051   4.375  0.2297  0.7429 -0.5049
    1C        C  661   2.598   3.118   4.496 -0.0347  0.0167 -0.1546
    1C        C  662   2.700   2.932   4.619 -0.2268 -0.3697 -0.0648
    1C        C  663   2.626   3.052   4.618  0.1751 -0.1182 -0.2680
    1C        C  664   2.745   2.872   4.739 -0.2542 -0.4128 -0.0714
    1C        C  665   2.691   2.927   4.859 -0.1443 -0.0067 -0.2017
    1C        C  666   2.734   2.858   4.973  0.5868  0.5157 -0.1577
    1C        C  667   2.679   4.017   2.048 -0.0016  0.3584 -0.0459
    1C        C  668   2.697   4.094   2.163  0.1318  0.2425  0.0103
    1C        C  669   2.587   3.910   2.285 -0.3498 -0.0757 -0.1289
    1C        C  670   2.652   4.036   2.284 -0.1269 -0.1931 -0.2922
    1C        C  671   2.562   3.844   2.408 -0.5673  0.3381  0.0471
    1C        C  672   2.587   3.915   2.527 -0.1683  0.1483  0.0730
    1C        C  673   2.533   3.712   2.651 -0.6736 -0.1852  0.1516
    1C        C  674   2.564   3.850   2.650 -0.8086 -0.1570 -0.2060
    1C        C  675   2.521   3.643   2.774  0.1285  0.0052  0.3385
    1C        C  676   2.534   3.714   2.895  0.1690  0.0962  0.2804
    1C        C  677   2.509   3.508   3.022  0.3267 -0.1747 -0.4809
    1C        C  678   2.520   3.649   3.020 -0.1943 -0.1200  0.1253
    1C        C  679   2.503   3.439   3.146 -0.1522  0.3454 -0.2080
    1C        C  680   2.502   3.509   3.268 -0.1648  0.1643 -0.1047
    1C        C  681   2.524   3.300   3.394 -0.3383 -0.3997 -0.2011
    1C        C  682   2.506   3.440   3.392  0.2371 -0.3252 -0.3865
    1C        C  683   2.544   3.235   3.518 -0.3677 -0.2792 -0.1313
    1C        C  684   2.525   3.304   3.639 -0.2228 -0.3603 -0.0605
    1C        C  685   2.590   3.106   3.764 -0.4321 -0.0889 -0.0647
    1C        C  686   2.535   3.236   3.763 -0.5782 -0.1470  0.0902
    1C        C  687   2.620   3.045   3.887 -0.2297 -0.3994 -0.2623
    1C        C  688   2.592   3.112   4.009 -0.2498 -0.3611 -0.2838
    1C        C  689   2.712   2.936   4.134  0.3740  0.3252  0.2255
    1C        C  690   2.628   3.049   4.130 -0.7294 -0.4848 -0.1998
    1C        C  691   2.749   2.876   4.256 -0.0569 -0.0411  0.1813
    1C        C  692   2.708   2.934   4.378 -0.0602  0.5477 -0.0927
    1C        C  693   2.747   2.874   4.499 -0.5094 -0.1532 -0.2851
    1C        C  694   2.626   3.888   2.049 -0.0640  0.3849  0.0246
    1C        C  695   2.522   3.702   2.170 -0.5878  0.1603 -0.0002
    1C        C  696   2.573   3.834   2.167 -0.1175 -0.0274 -0.1857
    1C        C  697   2.505   3.634   2.292  0.1809  0.0163  0.0300
    1C        C  698   2.532   3.706   2.411  0.5187  0.0974 -0.1003
    1C        C  699   2.492   3.499   2.537 -0.1046  0.1732  0.0860
    1C        C  700   2.509   3.639   2.533 -0.0860  0.1602 -0.1831
    1C        C  701   2.507   3.429   2.658  0.1908 -0.0587 -0.0865
    1C        C  702   2.504   3.503   2.778 -0.6218  0.0742 -0.1863
    1C        C  703   2.526   3.295   2.905 -0.6433 -0.3143 -0.0995
    1C        C  704   2.507   3.435   2.902 -0.4666 -0.2975 -0.3965
    1C        C  705   2.541   3.228   3.029 -0.4420 -0.0052  0.0428
    1C        C  706   2.530   3.301   3.149 -0.1451  0.3494 -0.1404
    1C        C  707   2.597   3.101   3.275 -0.4366 -0.0931 -0.2420
    1C        C  708   2.543   3.232   3.272 -0.6230 -0.1722 -0.3753
    1C        C  709   2.631   3.041   3.398 -0.5467 -0.2554 -0.2895
    1C        C  710   2.599   3.105   3.520 -0.2126 -0.2161 -0.2186
    1C        C  711   2.695   2.919   3.645 -0.3361 -0.0482 -0.1260
    1C        C  712   2.624   3.041   3.643 -0.0398  0.1266 -0.0738
    1C        C  713   2.743   2.869   3.768 -0.4482 -0.3639 -0.2084
    1C        C  714   2.703   2.931   3.888 -0.2650 -0.4289 -0.1104
    1C        C  715   2.750   2.879   4.010 -0.4219 -0.0146  0.1321
    1C        C  716   2.448   3.493   2.060 -0.1124  0.0294  0.1633
    1C        C  717   2.485   3.628   2.057 -0.2175  0.0536 -0.0505
    1C        C  718   2.467   3.418   2.180 -0.0912 -0.1854  0.0220
    1C        C  719   2.481   3.494   2.299  0.2454  0.0006 -0.1375
    1C        C  720   2.510   3.282   2.421  0.2040  0.3203  0.2932
    1C        C  721   2.484   3.421   2.419 -0.0699  0.2631  0.0285
    1C        C  722   2.532   3.215   2.544  0.8258 -0.0186 -0.0035
    1C        C  723   2.528   3.289   2.664  0.4266 -0.0192 -0.0204
    1C        C  724   2.589   3.087   2.786 -0.6137 -0.3789  0.1095
    1C        C  725   2.542   3.220   2.786 -0.3415 -0.2828 -0.0790
    1C        C  726   2.620   3.027   2.910 -0.1478 -0.1607  0.0998
    1C        C  727   2.592   3.096   3.030 -0.2294  0.0770 -0.0573
    1C        C  728   2.700   2.916   3.154  0.2950  0.1302 -0.3280
    1C        C  729   2.627   3.037   3.153  0.2707  0.1167 -0.1804
    1C        C  730   2.749   2.866   3.276 -0.1956 -0.0428 -0.2025
    1C        C  731   2.707   2.922   3.399  0.3184  0.2870 -0.1761
    1C        C  732   2.745   2.866   3.524  0.1442  0.3363 -0.1005
    1C        C  733   2.487   3.193   2.068 -0.5901 -0.4556  0.4893
    1C        C  734   2.489   3.276   2.181  0.3442 -0.1156  0.2258
    1C        C  735   2.576   3.077   2.302  0.6875  0.3739 -0.0779
    1C        C  736   2.520   3.208   2.301  0.0410  0.0983  0.4209
    1C        C  737   2.600   3.010   2.423  0.4580 -0.0147 -0.2483
    1C        C  738   2.574   3.080   2.543  0.3037 -0.1778 -0.1891
    1C        C  739   2.694   2.904   2.666 -0.3723 -0.1459 -0.1943
    1C        C  740   2.613   3.020   2.664 -0.4547 -0.2026  0.0444
    1C        C  741   2.736   2.849   2.788  0.1641  0.1159 -0.2638
    1C        C  742   2.693   2.906   2.910  0.3449  0.1357 -0.2100
    1C        C  743   2.740   2.855   3.033  0.0232 -0.2274 -0.2378
    1C        C  744   2.546   3.067   2.067  0.2357 -0.0735 -0.1693
    1C        C  745   2.684   2.894   2.180  0.2203  0.1470 -0.3353
    1C        C  746   2.607   3.012   2.180  0.3537  0.2314 -0.0871
    1C        C  747   2.729   2.839   2.302  0.0008 -0.0749 -0.3539
    1C        C  748   2.679   2.892   2.423 -0.2390 -0.4817 -0.2760
    1C        C  749   2.725   2.839   2.545 -0.2502 -0.1815 -0.1412
    1C        C  750   2.723   2.827   2.063 -0.0141  0.3498 -0.5320
    1C        C  751   3.655   2.285   2.011  0.1867  0.7963 -0.0681
    1C        O  752   3.696   2.185   2.075 -0.5626  0.5832  0.0932
    1C        O  753   3.659   2.262   1.873 -0.0493 -0.5063  0.1283
    1C        C  754   4.622   3.036   1.984 -0.1762 -0.1172 -0.2035
    1C        O  755   4.603   3.029   1.859 -0.9106  0.2273 -0.1155
    1C        O  756   4.689   2.929   2.044  0.1082  0.2393  0.1140
    1C        C  757   4.464   4.225   1.981 -0.2440  0.1633 -0.1896
    1C        O  758   4.573   4.269   2.026 -0.3180  0.2252 -0.0680
    1C        O  759   4.414   4.300   1.874  0.0540 -0.2011 -0.5844
    1C        C  760   3.582   4.645   1.928 -0.1115  0.6232  0.0790
    1C        O  761   3.577   4.770   1.949  0.7505  0.6086  0.4335
    1C        O  762   3.566   4.606   1.795  0.0898  0.7808  0.0077
    1C        C  763   2.889   4.478   1.923  0.4845 -0.0530 -0.1523
    1C        O  764   2.939   4.427   1.819  0.3803 -0.0198 -0.2202
    1C        O  765   2.829   4.604   1.913 -0.2503 -0.4091 -0.3727
    1C        C  766   2.332   3.454   1.977 -0.0078  0.1105 -0.0196
    1C        O  767   2.339   3.420   1.856  0.6937 -0.1399  0.0879
    1C        O  768   2.197   3.453   2.013  0.0915  0.0775  0.3491
    1C        C  769   4.706   3.592   5.035 -0.1321 -0.1236 -0.0642
    1C        O  770   4.697   3.574   5.160 -0.0620 -0.1886 -0.0692
    1C        O  771   4.831   3.642   4.995  0.1220 -0.8070 -0.1378
    1C        C  772   4.268   4.449   5.027 -0.5326  0.1716 -0.0846
    1C        O  773   4.312   4.400   5.134 -0.2128  0.0925 -0.2511
    1C        O  774   4.316   4.580   5.009 -0.2904  0.1263  0.2207
    1C        C  775   4.140   2.512   5.071 -0.0702 -0.2953 -0.1756
    1C        O  776   4.247   2.449   5.049  0.1551 -0.0898  0.3148
    1C        O  777   4.109   2.532   5.207  0.3130  0.1200 -0.1443
    1C        C  778   2.871   4.551   5.041  0.5705 -0.0618 -0.2653
    1C        O  779   2.789   4.641   5.010 -0.6004 -0.8998  0.3268
    1C        O  780   2.919   4.551   5.172 -0.3040  0.3186  0.0569
    1C        C  781   2.468   3.027   5.068  0.0626 -0.0532  0.7328
    1C        O  782   2.365   2.956   5.050 -0.3635  0.5995  0.5477
    1C        O  783   2.501   3.024   5.203 -0.3859 -0.6686  0.8329
    1C        C  784   2.389   3.999   5.026 -0.4631  0.3662  0.1626
    1C        O  785   2.299   4.074   4.980 -0.3449  0.2741 -0.2250
    1C        O  786   2.393   3.994   5.166  0.2711  0.3727  0.1500
    1C        C  787   2.945   2.410   2.010  0.1281 -0.6026 -0.2009
    1C        O  788   2.926   2.396   1.886  0.0093 -0.0235 -0.2490
    1C        O  789   2.873   2.317   2.085 -0.1866 -0.0082  0.2453
    1C        C  790   3.155   2.351   5.033 -0.0512 -0.1393 -0.1925
    1C        O  791   3.151   2.238   4.976  0.0865 -0.2325 -0.0176
    1C        O  792   3.174   2.336   5.171  0.1968 -0.5828 -0.2729
    1C        H  793   4.311   3.008   5.067  0.7943  1.1747 -0.6377
    1C        H  794   4.158   2.818   5.063  0.7387 -0.3393  0.0425
    1C        H  795   4.487   3.130   5.061  0.4682 -0.2335 -0.1844
    1C        H  796   4.535   3.368   5.058  0.1655  1.1491 -0.7483
    1C        H  797   4.549   3.806   5.044 -1.5119 -0.1429  0.0757
    1C        H  798   4.464   4.005   5.032  0.2872  0.7591 -0.2458
    1C        H  799   4.335   4.187   5.038 -1.1732 -0.1897  1.2020
    1C        H  800   4.004   4.483   5.036 -0.8457 -0.1035  0.1059
    1C        H  801   3.808   4.547   5.040 -0.0958  2.3200  0.7186
    1C        H  802   3.588   4.627   5.037  1.2842 -0.9573  1.4428
    1C        H  803   3.389   4.459   5.035 -1.4229 -0.6799 -0.5599
    1C        H  804   3.154   4.508   5.053 -0.6055  1.9897 -0.2667
    1C        H  805   3.881   2.524   5.073  0.5722 -0.9019  0.2167
    1C        H  806   3.661   2.434   5.068  0.0867  2.1946  1.1675
    1C        H  807   3.009   2.576   5.065 -0.4172  0.0467 -0.4768
    1C        H  808   3.442   2.425   5.063 -1.6779 -2.3451 -1.9127
    1C        H  809   2.909   2.771   5.058 -0.0190 -0.0664  0.6020
    1C        H  810   2.691   2.883   5.068  1.1098 -0.0901  0.2497
    1C        H  811   2.517   3.290   5.069  0.5131 -1.0670  0.6616
    1C        H  812   2.554   3.495   5.058  0.8771  0.7868  0.1190
    1C        H  813   2.531   3.734   5.063  1.0240 -0.6491 -0.2151
    1C        H  814   2.557   4.196   5.014  0.8867  0.6567 -0.9227
    1C        H  815   2.766   4.294   5.051 -0.0428  0.2225  0.3653
    1C        H  816   2.671   2.833   1.970 -1.3265 -2.1649 -0.0796
    1C        H  817   2.852   2.695   1.972  0.2344  0.2809 -0.4563
    1C        H  818   3.213   2.439   1.988  0.1474 -1.9980 -0.2829
    1C        H  819   3.420   2.409   1.981  0.8809  2.0575 -1.2467
    1C        H  820   3.828   2.557   1.979  0.9379  0.0667 -0.2346
    1C        H  821   4.068   2.581   1.970 -2.0642  1.8897 -1.2180
    1C        H  822   4.247   2.713   1.966  0.2854  0.1200  0.9466
    1C        H  823   4.372   2.917   1.962 -0.4418  1.6484  0.2586
    1C        H  824   4.539   3.308   1.959 -1.0757  0.2454 -0.0454
    1C        H  825   4.479   3.510   1.960 -0.5668 -0.3347  0.2535
    1C        H  826   4.558   3.745   1.965  0.0217  1.3524  0.8206
    1C        H  827   3.810   4.557   1.965 -0.1440 -0.0481  0.2275
    1C        H  828   3.943   4.353   1.945  0.4407  1.8737 -0.2956
    1C        H  829   4.165   4.266   1.947  1.7556  0.5497  0.4851
    1C        H  830   4.440   3.946   1.961 -0.7623  0.1919  0.2620
    1C        H  831   2.645   3.827   1.963  1.6654 -1.3990  1.5634
    1C        H  832   2.763   4.020   1.982  0.1280  0.5276  0.1280
    1C        H  833   2.693   4.330   1.982  0.3535 -0.6266 -0.5768
    1C        H  834   3.376   4.384   1.985  0.3903 -0.9838  0.3427
    1C        H  835   3.141   4.463   1.944  0.2069 -2.1461 -0.8223
    1C        H  836   2.551   3.018   1.972 -0.0548 -0.3613 -0.0368
    1C        H  837   2.415   3.216   1.992 -1.8485 -0.1164  1.7378
    1C        H  838   2.437   3.683   1.979  1.0347  0.0259 -0.8716
    2V3OU   H29  839   2.804   3.555   0.593  1.4947 -0.8368  0.3652
    2V3OU   C27  840   2.788   3.495   0.686 -0.3315  0.0188  0.6573
    2V3OU   H27  841   2.738   3.559   0.762  0.9666 -0.8360  2.2986
    2V3OU   H28  842   2.736   3.402   0.650 -1.6033  1.4410 -1.3865
    2V3OU   O11  843   2.915   3.463   0.744 -0.1399 -0.4051  0.0140
    2V3OU   C15  844   2.919   3.384   0.857 -0.0927 -0.6363 -0.1476
    2V3OU   C13  845   3.048   3.369   0.911 -0.1360  0.2962  0.2455
    2V3OU   C14  846   3.073   3.264   1.001  0.1455 -0.2069 -0.4076
    2V3OU   C16  847   2.973   3.179   1.047  0.2794 -0.1246  0.0409
    2V3OU    H6  848   2.986   3.096   1.118  0.0624 -0.4750 -0.3286
    2V3OU   C12  849   3.208   3.222   1.045 -0.0300 -0.4757 -0.1166
    2V3OU    O2  850   3.225   3.126   1.122 -0.6329 -0.2886  0.2555
    2V3OU   C10  851   3.320   3.309   1.005 -0.0411 -0.6353 -0.5011
    2V3OU    C8  852   3.449   3.267   1.030  0.1070  0.0635 -0.0559
    2V3OU   O10  853   3.473   3.146   1.088  0.0778  0.0652 -0.0397
    2V3OU   H26  854   3.388   3.105   1.109  0.5450 -0.4939  0.8444
    2V3OU    C6  855   3.561   3.342   0.982  0.1473  0.1950  0.2395
    2V3OU    C5  856   3.534   3.464   0.922 -0.2884  0.1423  0.3253
    2V3OU    C4  857   3.700   3.288   0.985  0.2526  0.4218 -0.3201
    2V3OU    H4  858   3.717   3.217   1.072 -1.0382 -0.2111 -0.5635
    2V3OU    H5  859   3.716   3.225   0.893  1.5664  1.1084 -0.5816
    2V3OU    C2  860   3.809   3.396   0.987  0.4128  0.2632 -0.4152
    2V3OU    O6  861   3.802   3.467   1.111 -0.0261 -0.4033 -0.0470
    2V3OU   H21  862   3.749   3.546   1.092  1.3921  1.1164  1.7875
    2V3OU    C3  863   3.781   3.495   0.874 -0.0661  0.4246 -0.1583
    2V3OU    H2  864   3.860   3.573   0.888  2.2475 -2.0128  1.3883
    2V3OU    H3  865   3.784   3.441   0.776  2.0508  1.2692 -0.6105
    2V3OU   C25  866   3.943   3.325   0.974 -0.0368 -0.6685 -0.0941
    2V3OU    O7  867   3.988   3.288   0.866 -0.1956 -0.7295 -0.1393
    2V3OU   C26  868   4.020   3.283   1.099  0.0914 -0.2458 -0.0277
    2V3OU   H22  869   4.057   3.380   1.139  2.8972 -1.4481  0.4936
    2V3OU   H23  870   4.111   3.225   1.070  0.4147  0.3211 -0.1588
    2V3OU    O8  871   3.954   3.202   1.194 -0.0194  0.2020  0.2795
    2V3OU   H24  872   3.915   3.259   1.262 -2.6844 -0.2906 -0.7317
    2V3OU    C1  873   3.644   3.560   0.887 -0.2361  0.0152  0.1373
    2V3OU    H1  874   3.622   3.621   0.794 -0.4733 -0.1582  0.0806
    2V3OU    O3  875   3.660   3.647   1.000 -0.4140  0.0470  0.1385
    2V3OU   C19  876   3.614   3.782   0.991 -0.3153  0.0760  0.0714
    2V3OU    H9  877   3.512   3.794   0.946 -1.4621 -0.9483  2.2440
    2V3OU    O4  878   3.704   3.844   0.902 -0.0259  0.0789  0.3630
    2V3OU   C20  879   3.836   3.873   0.951 -0.0185 -0.2290  0.5233
    2V3OU   H10  880   3.894   3.777   0.967 -0.4112 -0.3550  1.2333
    2V3OU   C24  881   3.611   3.853   1.127 -0.4759  0.6020 -0.2039
    2V3OU   H16  882   3.541   3.796   1.193 -1.5600 -0.0053 -1.8054
    2V3OU   H17  883   3.566   3.952   1.102 -0.2237  1.5737  2.7890
    2V3OU   C23  884   3.751   3.873   1.185 -0.2451  0.2016 -0.6169
    2V3OU   H15  885   3.795   3.770   1.208  1.0813  1.2672  1.9495
    2V3OU    N1  886   3.724   3.950   1.305  0.0913 -0.4366 -0.1263
    2V3OU   H19  887   3.801   3.930   1.366  2.6710  1.7297 -2.3918
    2V3OU   H20  888   3.643   3.921   1.355  0.4057  0.7464  1.1128
    2V3OU   C21  889   3.847   3.945   1.085  0.7941  0.0890  0.2868
    2V3OU   H11  890   3.949   3.924   1.130  1.1312  0.5147 -0.2641
    2V3OU    O5  891   3.822   4.084   1.084 -0.1285 -0.0772  0.0270
    2V3OU   H18  892   3.776   4.103   1.168 -0.2984  3.9112 -0.7653
    2V3OU   C22  893   3.906   3.948   0.839  0.8003 -1.0663  0.4606
    2V3OU   H12  894   3.856   4.048   0.830  0.0469 -1.5574 -1.3669
    2V3OU   H13  895   3.897   3.890   0.743 -3.3102  0.0135 -0.0026
    2V3OU   H14  896   4.013   3.961   0.867  0.5896  0.5770  0.5966
    2V3OU   C11  897   3.151   3.472   0.897  0.0650  0.0699  0.0490
    2V3OU    O1  898   3.130   3.582   0.842 -0.3512 -0.0284  0.0072
    2V3OU    C9  899   3.288   3.426   0.931 -0.0542 -0.2874  0.0496
    2V3OU    C7  900   3.399   3.501   0.893 -0.2646  0.0403  0.0752
    2V3OU    O9  901   3.385   3.622   0.829 -0.4169  0.2282  0.4551
    2V3OU   H25  902   3.290   3.625   0.808 -0.5535 -0.1160  1.0030
    2V3OU   C17  903   2.814   3.309   0.915 -0.3998 -0.1082 -0.0096
    2V3OU    H7  904   2.711   3.343   0.907  0.1828  1.5948 -1.0734
    2V3OU   C18  905   2.843   3.209   1.006  0.3586  0.0027 -0.1185
    2V3OU    H8  906   2.762   3.155   1.058 -0.7512 -0.5094 -2.2562
    3SOL     OW  907   0.174   3.693   0.185 -0.0369  0.4945 -0.9784
    3SOL    HW1  908   0.120   3.627   0.133  1.1890  0.1932 -1.9232
    3SOL    HW2  909   0.148   3.786   0.158  1.1195  0.3437 -2.7832
    4SOL     OW  910   0.493   2.593   2.689 -0.8851  0.3131  0.2552
    4SOL    HW1  911   0.514   2.603   2.786 -0.1682  1.5487 -0.0058
    4SOL    HW2  912   0.576   2.602   2.635 -1.1809 -0.9952 -0.4548
    5SOL     OW  913   4.316   3.354   0.350 -0.0816 -0.0277  0.1108
    5SOL    HW1  914   4.344   3.445   0.319  1.5844 -0.3415  0.5863
    5SOL    HW2  915   4.226   3.360   0.393  0.6239  1.6963  1.4868
    6SOL     OW  916   4.722   2.090   0.231 -0.2317  0.9183 -0.0456
    6SOL    HW1  917   4.663   2.009   0.227  0.8889  0.1205 -1.8418
    6SOL    HW2  918   4.807   2.068   0.279  0.5986  0.6055 -1.5806
    7SOL     OW  919   4.238   2.360   1.102 -0.0282  0.0853 -0.2893
    7SOL    HW1  920   4.259   2.334   1.008  1.5330  1.8083 -0.4720
    7SOL    HW2  921   4.245   2.280   1.162 -1.4272 -1.1199 -1.6442
    8SOL     OW  922   1.916   1.970   4.244  0.2665 -0.7597  0.4412
    8SOL    HW1  923   2.013   1.963   4.220 -0.5767 -2.1489 -3.3928
    8SOL    HW2  924   1.862   1.985   4.161 -2.8790 -0.2219  2.3921
    9SOL     OW  925   0.143   3.894   5.780 -0.2375  0.2344 -0.7867
    9SOL    HW1  926   0.091   3.881   5.864  1.2613  0.9644  0.2927
    9SOL    HW2  927   0.179   3.987   5.777  0.4347 -0.0465 -1.8359
   10SOL     OW  928   6.068   3.086   2.130 -0.0515 -0.5518  0.7619
   10SOL    HW1  929   6.149   3.125   2.173 -0.5486 -0.8675  2.0417
   10SOL    HW2  930   6.094   3.009   2.072  0.5322 -0.9418  1.5242
   11SOL     OW  931   1.624   0.006   6.303 -0.3511  0.0320  0.0041
   11SOL    HW1  932   1.723  -0.004   6.289 -0.6698  0.3048 -3.5319
   11SOL    HW2  933   1.585  -0.083   6.327  0.5519 -0.4618 -0.2893
   12SOL     OW  934   4.616   4.965   1.350 -0.3758 -0.1915 -0.1742
   12SOL    HW1  935   4.649   4.899   1.282 -0.2225 -0.2605 -0.0344
   12SOL    HW2  936   4.687   4.980   1.418 -1.2601 -1.6913  1.1383
   13SOL     OW  937   1.224   6.126   0.198  0.2125 -0.3400 -0.8996
   13SOL    HW1  938   1.213   6.205   0.259 -3.1950 -1.4937  0.2315
   13SOL    HW2  939   1.139   6.110   0.149  0.1695 -4.1556  0.0702
   14SOL     OW  940   1.696   6.896   3.266  0.2596 -0.3985  0.0054
   14SOL    HW1  941   1.624   6.947   3.220 -1.8072  0.0948  3.4498
   14SOL    HW2  942   1.683   6.798   3.249 -0.7336 -0.2612 -0.0910
   15SOL     OW  943   2.839   0.562   6.586  0.4013  0.0639 -0.0366
   15SOL    HW1  944   2.843   0.542   6.684  3.3157 -0.5897 -0.2171
   15SOL    HW2  945   2.838   0.661   6.572  2.7224  0.2320  0.6689
   16SOL     OW  946   1.426   2.738   0.126 -0.3510  0.5484  0.4335
   16SOL    HW1  947   1.439   2.823   0.074 -0.2396  1.2312  1.5351
   16SOL    HW2  948   1.444   2.660   0.067  1.2368  1.3224 -0.1735
   17SOL     OW  949   4.371   0.220   5.097 -0.0528 -0.4522  0.0863
   17SOL    HW1  950   4.315   0.231   5.015 -0.5829 -0.7115  0.4140
   17SOL    HW2  951   4.387   0.123   5.114 -0.9143 -0.4543  0.9400
   18SOL     OW  952   1.749   6.790   6.000 -0.1021  0.5983  0.6882
   18SOL    HW1  953   1.789   6.758   6.086 -1.4262 -0.4087  0.9568
   18SOL    HW2  954   1.661   6.834   6.018 -1.2171 -1.1340 -0.2821
   19SOL     OW  955   6.767   6.962   0.890  0.2845  0.0888 -0.4458
   19SOL    HW1  956   6.680   7.008   0.908  1.4584  1.6346  1.6903
   19SOL    HW2  957   6.799   6.917   0.973  2.4097  1.1396 -0.6374
   20SOL     OW  958   3.929   5.539   3.998  0.1199  0.3245 -0.3730
   20SOL    HW1  959   3.983   5.526   3.915  3.3061  0.6041  1.5231
   20SOL    HW2  960   3.906   5.450   4.038 -0.6464  0.2155 -1.0174
   21SOL     OW  961   2.672   2.442   1.463  0.1016  0.2172 -0.1079
   21SOL    HW1  962   2.593   2.437   1.401  0.3263 -0.0188 -0.3763
   21SOL    HW2  963   2.686   2.353   1.506 -0.6010  0.5985  0.9789
   22SOL     OW  964   2.408   6.964   6.030 -0.3936 -0.2510  0.4067
   22SOL    HW1  965   2.410   7.042   5.968 -0.0378 -0.8430 -0.3372
   22SOL    HW2  966   2.336   6.977   6.098  2.0340  2.5665  2.7125
   23SOL     OW  967   2.323   5.682   4.198 -0.3011  0.0382  0.1395
   23SOL    HW1  968   2.354   5.642   4.284 -0.1095  0.1629  0.1301
   23SOL    HW2  969   2.235   5.642   4.171  1.3994 -2.8775 -1.5932
   24SOL     OW  970   5.583   0.551   6.202 -0.5615 -0.1059 -0.1035
   24SOL    HW1  971   5.512   0.536   6.134 -0.4988 -0.7345 -0.0361
   24SOL    HW2  972   5.667   0.581   6.156  0.0297 -2.2403 -0.5366
   25SOL     OW  973   2.080   0.445   1.420 -0.4570 -0.4287 -0.1147
   25SOL    HW1  974   2.120   0.489   1.340 -1.8193  1.0406 -0.0374
   25SOL    HW2  975   2.093   0.346   1.414  0.2564 -0.2676 -1.6827
   26SOL     OW  976   0.735   1.432   3.755 -0.2976  1.0722 -0.4658
   26SOL    HW1  977   0.669   1.381   3.811 -0.0362  0.5656 -0.6112
   26SOL    HW2  978   0.826   1.393   3.767  0.0132  1.8959 -0.1148
   27SOL     OW  979   4.425   1.556   1.450  0.6907  0.4296 -0.1635
   27SOL    HW1  980   4.373   1.533   1.368  1.4155 -0.2612 -0.4375
   27SOL    HW2  981   4.384   1.636   1.494 -0.2487  0.2474 -0.6900
   28SOL     OW  982   2.963   1.914   2.564 -0.5138 -0.0625  0.0368
   28SOL    HW1  983   2.982   2.012   2.567 -2.5990  0.3685  0.6287
   28SOL    HW2  984   2.960   1.884   2.468 -1.5176  0.8188 -0.2252
   29SOL     OW  985   5.203   3.650   2.033  0.1902 -0.5523 -0.5513
   29SOL    HW1  986   5.217   3.698   1.947  0.5622  1.0670  0.3821
   29SOL    HW2  987   5.135   3.698   2.088  2.0870  0.1546  1.3031
   30SOL     OW  988   3.816   0.456   5.876 -0.6837 -0.3499 -0.1948
   30SOL    HW1  989   3.812   0.539   5.931  0.7381 -0.0241 -0.5575
   30SOL    HW2  990   3.887   0.395   5.912 -1.0158 -0.9671 -0.5516
   31SOL     OW  991   2.430   1.584   5.099  0.0150 -0.6727 -0.1592
   31SOL    HW1  992   2.380   1.640   5.166  0.7189  0.3555 -0.4674
   31SOL    HW2  993   2.526   1.580   5.125 -0.3849 -3.9168  1.2992
   32SOL     OW  994   1.017   2.525   1.245  0.2007  0.0471 -0.0650
   32SOL    HW1  995   0.997   2.468   1.165 -0.5025 -0.8977  0.7652
   32SOL    HW2  996   1.085   2.480   1.302  0.0589  0.3101  0.3112
   33SOL     OW  997   2.052   0.533   5.070 -1.2033  0.2108  0.6764
   33SOL    HW1  998   2.071   0.627   5.043  3.0263 -0.0220  2.0877
   33SOL    HW2  999   2.105   0.470   5.012 -3.4301 -1.3434  0.1876
   34SOL     OW 1000   6.395   0.564   4.057 -0.3790  0.3304  0.2112
   34SOL    HW1 1001   6.389   0.560   4.157 -0.5227  0.6547  0.2158
   34SOL    HW2 1002   6.323   0.624   4.022 -0.6737 -0.2121 -0.1231
   35SOL     OW 1003   4.636   4.185   6.868  0.3482 -0.3535 -0.3432
   35SOL    HW1 1004   4.717   4.137   6.901  0.5040  0.4908  0.5365
   35SOL    HW2 1005   4.638   4.280   6.899 -0.8986 -0.2772 -0.4495
   36SOL     OW 1006   1.390   1.336   0.458  0.3091 -0.4354 -0.2649
   36SOL    HW1 1007   1.397   1.320   0.556  0.0178  1.0677  0.0284
   36SOL    HW2 1008   1.403   1.250   0.409 -2.1610 -1.7356  1.1875
   37SOL     OW 1009   3.210   5.474   1.154 -0.0430 -0.5589  0.5445
   37SOL    HW1 1010   3.144   5.517   1.215 -0.2132 -2.0730  1.4848
   37SOL    HW2 1011   3.241   5.387   1.193  1.4329 -0.5825 -0.5537
   38SOL     OW 1012   6.728   0.077   2.386 -0.1856 -0.0214 -0.4503
   38SOL    HW1 1013   6.787   0.052   2.463 -0.9547  0.1870  0.2184
   38SOL    HW2 1014   6.632   0.068   2.412 -0.4968 -1.8283 -1.9995
   39SOL     OW 1015   0.126   3.971   4.286  0.0560  0.1335  0.3121
   39SOL    HW1 1016   0.187   3.988   4.363 -0.0356 -1.8265  0.8645
   39SOL    HW2 1017   0.180   3.957   4.203  0.2953 -0.3766  0.5516
   40SOL     OW 1018   1.264   3.231   1.483  0.0857 -0.0095 -0.3111
   40SOL    HW1 1019   1.305   3.233   1.574 -1.5621  0.7025  0.4471
   40SOL    HW2 1020   1.257   3.324   1.448 -1.5306 -0.0230 -0.0972
   41SOL     OW 1021   1.844   1.321   6.171  0.9732  0.0037  0.4147
   41SOL    HW1 1022   1.936   1.306   6.208  1.0860 -1.6831 -0.4531
   41SOL    HW2 1023   1.803   1.233   6.147  0.5823  0.8868 -2.6259
   42SOL     OW 1024   4.182   6.362   6.922 -0.3106 -0.1120 -0.1124
   42SOL    HW1 1025   4.218   6.448   6.957 -0.7864 -0.2453  0.7363
   42SOL    HW2 1026   4.094   6.343   6.965 -0.8686 -0.3436 -1.3186
   43SOL     OW 1027   4.115   4.668   5.774 -0.2131 -0.5405 -0.1357
   43SOL    HW1 1028   4.122   4.702   5.868  1.2498  0.9710 -0.7278
   43SOL    HW2 1029   4.204   4.676   5.730 -0.8915 -1.1758 -1.6827
   44SOL     OW 1030   2.095   4.492   0.459 -0.5151 -1.1935  0.2459
   44SOL    HW1 1031   2.121   4.398   0.435 -0.7137 -1.3516  0.6297
   44SOL    HW2 1032   2.105   4.505   0.558  0.2195 -0.5786  0.0965
   45SOL     OW 1033   2.189   5.544   0.562  0.5050 -0.7434 -0.6784
   45SOL    HW1 1034   2.286   5.542   0.587  0.1754  0.8316  0.9358
   45SOL    HW2 1035   2.174   5.612   0.490  0.5497 -0.7186 -0.6642
   46SOL     OW 1036   0.119   4.402   4.235  0.1689 -0.6152 -0.2094
   46SOL    HW1 1037   0.206   4.437   4.199 -1.2599  2.3769 -1.0580
   46SOL    HW2 1038   0.074   4.347   4.165  0.3655 -0.3072 -0.5808
   47SOL     OW 1039   1.466   3.644   3.900 -0.3013 -0.0343  0.0704
   47SOL    HW1 1040   1.476   3.609   3.807 -1.3003 -0.8228  0.2350
   47SOL    HW2 1041   1.385   3.703   3.905  0.2780  0.7593  0.2389
   48SOL     OW 1042   6.001   1.462   5.351  0.9096  0.2258 -0.0345
   48SOL    HW1 1043   5.990   1.558   5.325  0.3141 -0.2417 -1.6504
   48SOL    HW2 1044   5.918   1.411   5.327  1.8086 -0.9803 -0.6878
   49SOL     OW 1045   4.064   3.368   0.463 -0.2999  0.3738  0.5387
   49SOL    HW1 1046   4.015   3.450   0.432 -0.9792 -0.5079 -0.8455
   49SOL    HW2 1047   4.003   3.313   0.519 -0.3828  0.0581  0.1467
   50SOL     OW 1048   2.454   2.751   5.276  0.4266  0.1622 -0.7209
   50SOL    HW1 1049   2.376   2.707   5.231  0.8906 -1.4008 -0.0798
   50SOL    HW2 1050   2.462   2.845   5.244 -0.7038 -0.1545 -2.0583
   51SOL     OW 1051   2.446   5.664   2.937  0.0800  0.0796 -0.0933
   51SOL    HW1 1052   2.431   5.760   2.961  0.5691 -0.0812  0.9120
   51SOL    HW2 1053   2.534   5.633   2.974  0.7888 -0.2761 -1.9244
   52SOL     OW 1054   2.585   2.384   2.533 -0.0878 -0.2423  0.1056
   52SOL    HW1 1055   2.677   2.345   2.528  0.4402  1.0030 -0.0413
   52SOL    HW2 1056   2.557   2.416   2.442 -1.1203 -1.5623 -0.0912
   53SOL     OW 1057   4.852   6.243   3.333 -0.3994  0.4055  0.3105
   53SOL    HW1 1058   4.836   6.151   3.298 -1.9879  1.3400 -1.5813
   53SOL    HW2 1059   4.823   6.248   3.429 -0.2654 -1.0459  0.4452
   54SOL     OW 1060   5.282   4.561   5.101  0.0229  1.0058  0.4113
   54SOL    HW1 1061   5.342   4.631   5.064 -1.4948  1.9507 -0.3725
   54SOL    HW2 1062   5.209   4.541   5.036 -1.9527  1.7350  2.2592
   55SOL     OW 1063   4.711   2.864   1.015 -0.5715 -0.2102 -0.1951
   55SOL    HW1 1064   4.664   2.776   1.011  0.0834 -0.5551 -0.4819
   55SOL    HW2 1065   4.807   2.851   0.992  0.0461  0.2321  1.9273
   56SOL     OW 1066   6.242   6.688   1.455 -0.2306 -0.4047 -0.1082
   56SOL    HW1 1067   6.182   6.633   1.513 -0.2537 -0.7181 -0.4286
   56SOL    HW2 1068   6.197   6.775   1.434  0.2008  0.1488  1.1823
   57SOL     OW 1069   4.831   1.238   6.672  0.1773 -0.2039 -0.2400
   57SOL    HW1 1070   4.872   1.181   6.743  0.5666 -0.5764 -0.7524
   57SOL    HW2 1071   4.807   1.181   6.593  0.6904  0.3415 -0.8133
   58SOL     OW 1072   0.111   0.244   1.365 -0.4384 -0.2960  0.3166
   58SOL    HW1 1073   0.032   0.278   1.416 -0.2068  0.5905  0.1141
   58SOL    HW2 1074   0.085   0.231   1.269 -0.2092  0.5590  0.1234
   59SOL     OW 1075   0.452   0.975   3.706  0.1624 -0.0049  0.2548
   59SOL    HW1 1076   0.547   0.992   3.678  0.6174 -0.7433  1.2649
   59SOL    HW2 1077   0.397   1.056   3.690  1.0584  0.5607 -0.0049
   60SOL     OW 1078   3.367   6.702   4.297  0.0045  0.3037  0.2906
   60SOL    HW1 1079   3.399   6.620   4.250  0.8953  1.0652 -0.4703
   60SOL    HW2 1080   3.278   6.730   4.260 -1.2449 -1.3748  1.8702
   61SOL     OW 1081   1.992   0.890   3.363 -0.1225  0.3116  0.4836
   61SOL    HW1 1082   2.074   0.871   3.417  1.1416  0.0529 -1.4163
   61SOL    HW2 1083   2.009   0.867   3.268 -2.7111 -0.5279  0.1421
   62SOL     OW 1084   2.185   6.491   3.770 -0.2653  0.1910  0.6193
   62SOL    HW1 1085   2.106   6.534   3.726  0.5086  0.5792 -0.4357
   62SOL    HW2 1086   2.154   6.422   3.835 -1.4676  0.1314  0.0085
   63SOL     OW 1087   0.843   2.453   5.767 -0.0751  0.6362  0.2967
   63SOL    HW1 1088   0.819   2.490   5.857 -0.0286 -2.1450  1.5795
   63SOL    HW2 1089   0.895   2.369   5.779  1.0582  0.8577 -2.4008
   64SOL     OW 1090   0.478   3.122   4.454  0.0842 -0.1251 -0.2398
   64SOL    HW1 1091   0.381   3.112   4.429  0.1427 -1.7162  0.0837
   64SOL    HW2 1092   0.485   3.154   4.548 -0.1135  0.1991 -0.3315
   65SOL     OW 1093   1.455   4.253   4.004  0.6220 -0.0269  0.1893
   65SOL    HW1 1094   1.468   4.312   4.084  0.5734 -1.3743  1.2325
   65SOL    HW2 1095   1.359   4.257   3.976  0.0269 -1.4875  1.8389
   66SOL     OW 1096   1.580   5.221   1.450 -0.1100 -0.1725  0.0762
   66SOL    HW1 1097   1.661   5.280   1.446  1.0417 -1.7312 -2.7169
   66SOL    HW2 1098   1.594   5.148   1.517  0.8412 -0.4188 -0.3730
   67SOL     OW 1099   5.334   4.885   5.034  0.2597  0.0164  0.2267
   67SOL    HW1 1100   5.283   4.923   5.111 -3.0245 -1.3270 -1.1398
   67SOL    HW2 1101   5.288   4.908   4.948  2.9249  0.1069 -1.2968
   68SOL     OW 1102   5.613   4.477   6.560  0.3379  0.3495 -0.0646
   68SOL    HW1 1103   5.557   4.473   6.477 -1.2515  0.7231  0.9441
   68SOL    HW2 1104   5.644   4.571   6.575 -0.1761  0.4688  0.2654
   69SOL     OW 1105   2.379   2.759   4.858 -0.4760  1.5786  0.4222
   69SOL    HW1 1106   2.383   2.663   4.886  0.3380  1.1138 -1.1517
   69SOL    HW2 1107   2.380   2.818   4.939 -0.9090  0.2682  1.4068
   70SOL     OW 1108   6.336   0.885   2.037  0.2559 -0.1050 -0.1159
   70SOL    HW1 1109   6.252   0.903   1.985 -0.6525  0.0180  1.3106
   70SOL    HW2 1110   6.372   0.971   2.072 -0.2934 -0.3596  1.1215
   71SOL     OW 1111   1.168   4.124   0.950 -0.5765  0.0040  0.6620
   71SOL    HW1 1112   1.177   4.127   0.850 -1.6903 -1.1303  0.5072
   71SOL    HW2 1113   1.078   4.089   0.974  0.1232 -0.9156  2.0673
   72SOL     OW 1114   4.637   5.266   4.630 -0.3584  0.1298  0.6430
   72SOL    HW1 1115   4.575   5.284   4.554 -1.2356 -2.1063  0.7652
   72SOL    HW2 1116   4.726   5.237   4.596 -0.5904 -0.3773  0.4711
   73SOL     OW 1117   4.343   2.610   0.732  0.0762 -0.1042  0.0027
   73SOL    HW1 1118   4.266   2.587   0.792 -0.0433  0.7362  0.1867
   73SOL    HW2 1119   4.391   2.527   0.706 -0.1903 -0.5270  0.8384
   74SOL     OW 1120   4.228   2.345   4.617  0.1793 -0.2752 -0.0698
   74SOL    HW1 1121   4.273   2.344   4.706  1.8964  2.1098 -0.7946
   74SOL    HW2 1122   4.163   2.421   4.614 -1.2991 -1.5098 -0.2548
   75SOL     OW 1123   2.606   5.502   3.988 -0.1640  0.2543 -0.1829
   75SOL    HW1 1124   2.557   5.512   4.075 -0.4753  0.1806 -0.3506
   75SOL    HW2 1125   2.593   5.409   3.954 -0.7480  0.5323 -0.7383
   76SOL     OW 1126   1.945   0.779   2.116 -0.4634 -0.2171 -0.7800
   76SOL    HW1 1127   1.910   0.832   2.193  1.1060 -3.0087  2.0782
   76SOL    HW2 1128   2.043   0.799   2.104  0.1886 -2.3804  0.4332
   77SOL     OW 1129   0.764   6.495   6.072  0.6115 -0.5582 -0.3006
   77SOL    HW1 1130   0.714   6.580   6.092 -1.0316 -1.2972 -1.0740
   77SOL    HW2 1131   0.798   6.499   5.978  0.8235 -0.6276 -0.2265
   78SOL     OW 1132   4.017   0.670   5.764 -0.3519 -0.0134  0.3784
   78SOL    HW1 1133   3.948   0.730   5.725 -1.7874 -0.6091  1.9208
   78SOL    HW2 1134   3.975   0.608   5.830  1.3487 -1.6714 -0.0181
   79SOL     OW 1135   2.501   5.400   6.261 -0.5716 -0.3588  0.4626
   79SOL    HW1 1136   2.472   5.489   6.296  2.4015  1.0471 -0.3328
   79SOL    HW2 1137   2.486   5.397   6.162  0.4332 -0.2119  0.2909
   80SOL     OW 1138   5.967   1.173   3.160  0.2405 -0.1731  0.4833
   80SOL    HW1 1139   6.045   1.143   3.215 -0.3602 -1.4943  0.6759
   80SOL    HW2 1140   5.930   1.094   3.111 -0.5889  0.5579 -0.0846
   81SOL     OW 1141   2.662   4.683   3.413 -0.4054 -0.3985 -0.0226
   81SOL    HW1 1142   2.757   4.704   3.390 -0.5167 -0.6875 -0.8000
   81SOL    HW2 1143   2.610   4.767   3.422 -0.5629 -0.2742 -1.8109
   82SOL     OW 1144   6.453   4.291   5.095 -0.2832 -0.7654 -0.2719
   82SOL    HW1 1145   6.529   4.230   5.114 -0.0775 -1.9315 -3.9319
   82SOL    HW2 1146   6.370   4.237   5.080 -1.0192  0.2085  0.1579
   83SOL     OW 1147   6.380   6.747   4.750  0.0990 -0.4778 -0.9546
   83SOL    HW1 1148   6.403   6.656   4.716 -2.4347 -1.1740 -1.0377
   83SOL    HW2 1149   6.433   6.767   4.832  1.4197 -1.5899 -1.5034
   84SOL     OW 1150   6.345   2.887   1.459 -0.4446  0.0793 -0.0451
   84SOL    HW1 1151   6.443   2.881   1.479 -0.6501 -1.7240  0.6086
   84SOL    HW2 1152   6.331   2.876   1.361 -0.0564 -0.8264 -0.0085
   85SOL     OW 1153   0.564   0.233   5.199  0.0626  0.0750 -0.4984
   85SOL    HW1 1154   0.483   0.289   5.184 -1.4723 -1.9459 -0.1163
   85SOL    HW2 1155   0.581   0.176   5.118  0.1257 -0.6831  0.0361
   86SOL     OW 1156   2.371   0.256   4.064 -0.6217  0.3820  0.0250
   86SOL    HW1 1157   2.371   0.172   4.012 -1.3747  0.5086 -0.1853
   86SOL    HW2 1158   2.337   0.331   4.008 -0.0317  0.8152  0.2329
   87SOL     OW 1159   4.714   5.217   2.903 -0.3582 -0.1578 -0.0007
   87SOL    HW1 1160   4.726   5.132   2.953 -0.0259  0.5936  1.2628
   87SOL    HW2 1161   4.710   5.199   2.805 -0.4669 -1.6247  0.2596
   88SOL     OW 1162   4.871   0.305   1.282 -0.0602  0.2416  0.0883
   88SOL    HW1 1163   4.844   0.244   1.207 -0.1165 -0.4102  0.6364
   88SOL    HW2 1164   4.859   0.400   1.253 -1.5596 -0.0117 -0.1943
   89SOL     OW 1165   4.218   1.173   6.538 -0.1872  0.2472 -0.0265
   89SOL    HW1 1166   4.202   1.206   6.445 -0.9115 -1.4254 -0.5166
   89SOL    HW2 1167   4.283   1.098   6.536  0.1819  0.5281  0.8965
   90SOL     OW 1168   6.690   6.005   3.552  0.1801 -0.4140  0.5506
   90SOL    HW1 1169   6.677   6.104   3.549 -0.3238 -0.4696  0.8636
   90SOL    HW2 1170   6.714   5.977   3.644 -2.4142 -0.9023  1.1462
   91SOL     OW 1171   5.626   5.099   4.311  0.1084 -0.2585 -0.1257
   91SOL    HW1 1172   5.686   5.160   4.259 -0.7388  1.2249  0.5584
   91SOL    HW2 1173   5.642   5.113   4.409 -0.6744 -0.5460  0.0465
   92SOL     OW 1174   1.407   6.741   6.614  0.2315 -0.0320 -0.6317
   92SOL    HW1 1175   1.417   6.834   6.651  0.0681  0.2819 -1.3546
   92SOL    HW2 1176   1.451   6.676   6.676  0.0672  0.4858  0.0537
   93SOL     OW 1177   3.840   6.029   5.410 -0.3450  0.3250  0.1166
   93SOL    HW1 1178   3.803   5.948   5.456 -1.5049  0.6852 -0.1374
   93SOL    HW2 1179   3.767   6.072   5.356  0.7028  0.5127 -1.2037
   94SOL     OW 1180   1.126   6.875   3.084  0.2523  0.5833  0.5246
   94SOL    HW1 1181   1.124   6.962   3.034  2.2113  1.0219  1.1423
   94SOL    HW2 1182   1.046   6.820   3.058  0.8042  1.0522 -2.6015
   95SOL     OW 1183   6.819   6.647   5.113  0.4736 -0.0091  0.4532
   95SOL    HW1 1184   6.766   6.716   5.162 -0.3696  1.3000 -2.1469
   95SOL    HW2 1185   6.885   6.605   5.176 -0.6610  1.3762  2.7104
   96SOL     OW 1186   0.671   6.676   4.519 -0.4178  0.6183 -0.3937
   96SOL    HW1 1187   0.720   6.596   4.484 -0.4903  0.0483  0.7498
   96SOL    HW2 1188   0.644   6.659   4.614 -0.8742  1.8128 -0.2974
   97SOL     OW 1189   6.112   6.911   2.785 -0.2242 -0.1992 -0.5162
   97SOL    HW1 1190   6.145   7.003   2.804  1.6333 -1.1430  1.2941
   97SOL    HW2 1191   6.155   6.847   2.849 -1.3748 -2.3493 -1.7849
   98SOL     OW 1192   4.423   1.599   4.627 -0.3785  0.0212 -0.3025
   98SOL    HW1 1193   4.441   1.511   4.582  1.9827  0.0905  0.3855
   98SOL    HW2 1194   4.376   1.583   4.714  1.1117 -0.7276  0.4059
   99SOL     OW 1195   4.943   0.923   1.930 -0.4177 -0.1555 -0.9445
   99SOL    HW1 1196   4.902   1.014   1.924  1.9366  1.2770  1.9177
   99SOL    HW2 1197   4.874   0.858   1.960 -1.5126  1.3839  0.0508
  100SOL     OW 1198   6.315   0.355   2.418  0.9200 -0.1523  0.1066
  100SOL    HW1 1199   6.380   0.385   2.488  2.3694  1.7925 -1.8933
  100SOL    HW2 1200   6.365   0.336   2.333 -1.0684  1.0142 -1.4009
  101SOL     OW 1201   0.087   0.661   2.485  0.0542  0.4646 -0.3265
  101SOL    HW1 1202   0.123   0.584   2.539 -1.1423  0.2552  0.2122
  101SOL    HW2 1203   0.150   0.682   2.411 -0.1257 -1.8078 -1.2062
  102SOL     OW 1204   3.667   6.651   1.797 -0.5912  0.3175 -0.4781
  102SOL    HW1 1205   3.725   6.691   1.868  0.6404  0.6034 -1.6118
  102SOL    HW2 1206   3.596   6.717   1.772  1.6155  2.0634 -2.5666
  103SOL     OW 1207   5.657   6.685   3.455  0.6167 -0.0661 -0.0180
  103SOL    HW1 1208   5.558   6.673   3.467  0.6259 -0.5504 -0.4087
  103SOL    HW2 1209   5.698   6.708   3.543  0.1026  0.5656  0.0731
  104SOL     OW 1210   6.288   5.903   1.985  0.3139 -0.0166 -0.7795
  104SOL    HW1 1211   6.267   5.959   2.065 -1.6497  0.6188 -1.6785
  104SOL    HW2 1212   6.364   5.841   2.006  0.3824  0.7045  1.2783
  105SOL     OW 1213   6.852   2.217   6.957  0.0083  0.0732 -0.0196
  105SOL    HW1 1214   6.772   2.162   6.936 -0.9817  1.8013 -1.0271
  105SOL    HW2 1215   6.830   2.282   7.029  0.3348  0.8721 -0.6214
  106SOL     OW 1216   3.650   0.105   6.850  0.3079 -0.0320 -0.6071
  106SOL    HW1 1217   3.693   0.189   6.882  0.3132  0.2931 -1.4240
  106SOL    HW2 1218   3.631   0.113   6.752 -1.2717 -0.3019 -0.3604
  107SOL     OW 1219   4.527   3.831   6.465  0.1095  0.2855  0.2166
  107SOL    HW1 1220   4.566   3.909   6.417  1.0621 -0.7123 -0.7110
  107SOL    HW2 1221   4.519   3.851   6.562  0.0350  1.6352 -0.0528
  108SOL     OW 1222   4.612   3.299   5.858  0.0155 -0.7045 -0.4225
  108SOL    HW1 1223   4.565   3.326   5.774 -0.7182 -0.0297  0.1909
  108SOL    HW2 1224   4.706   3.334   5.856 -0.2933  0.1544 -0.5521
  109SOL     OW 1225   6.114   0.952   1.900  0.6747  0.2889 -0.2711
  109SOL    HW1 1226   6.091   0.962   1.803 -0.2024  0.8877 -0.0136
  109SOL    HW2 1227   6.048   1.002   1.955  1.3299  0.1839  0.6302
  110SOL     OW 1228   4.641   0.224   5.470 -0.4310  0.1774 -0.6245
  110SOL    HW1 1229   4.673   0.131   5.452  1.5140  0.0075  2.8854
  110SOL    HW2 1230   4.711   0.290   5.441 -0.4890  0.3583 -0.3503
  111SOL     OW 1231   2.522   1.428   3.779  0.2299 -0.1695 -0.1237
  111SOL    HW1 1232   2.549   1.462   3.869 -0.6557 -2.0555  0.9206
  111SOL    HW2 1233   2.431   1.462   3.757 -0.1787 -0.8882  0.4026
  112SOL     OW 1234   2.588   1.883   0.404 -0.3918 -0.3482  0.2177
  112SOL    HW1 1235   2.529   1.806   0.378  0.5705 -0.6588 -1.1806
  112SOL    HW2 1236   2.556   1.922   0.490 -1.0950 -2.1030  0.8045
  113SOL     OW 1237   5.966   6.673   3.915 -0.0385 -0.3117  0.2765
  113SOL    HW1 1238   6.030   6.626   3.976  1.4796 -0.4456 -1.3332
  113SOL    HW2 1239   5.881   6.691   3.963  0.3638 -2.1923  1.8090
  114SOL     OW 1240   1.901   5.819   1.701 -0.1610 -0.1760  0.1651
  114SOL    HW1 1241   1.918   5.918   1.700 -0.1080 -0.0763  2.9938
  114SOL    HW2 1242   1.909   5.785   1.795 -0.2021 -2.8919 -0.7375
  115SOL     OW 1243   4.708   1.514   5.875  0.0400 -0.4357 -0.7131
  115SOL    HW1 1244   4.721   1.610   5.849  0.2613 -0.0907  0.5888
  115SOL    HW2 1245   4.643   1.471   5.812 -2.0379  1.2799  0.1122
  116SOL     OW 1246   0.626   2.811   3.204  0.2313  0.1725  0.0035
  116SOL    HW1 1247   0.631   2.907   3.230  2.1814  0.0211  0.3649
  116SOL    HW2 1248   0.695   2.791   3.134 -1.8861 -0.4328 -2.0478
  117SOL     OW 1249   0.883   5.537   6.662 -0.7098 -1.0153 -0.1252
  117SOL    HW1 1250   0.861   5.486   6.578 -1.5343 -1.5202  0.3873
  117SOL    HW2 1251   0.875   5.476   6.741  1.2185 -0.8515  0.2269
  118SOL     OW 1252   2.267   1.788   5.304  0.1274  0.1222 -0.5034
  118SOL    HW1 1253   2.273   1.887   5.297 -1.9295  0.2538 -1.1553
  118SOL    HW2 1254   2.309   1.758   5.390 -0.9398  1.7771  0.6491
  119SOL     OW 1255   0.024   3.287   6.515 -0.2273 -0.2366  0.1339
  119SOL    HW1 1256   0.110   3.313   6.471 -0.8632 -1.0761 -1.7293
  119SOL    HW2 1257   0.043   3.233   6.596  1.0192  2.0340  1.4737
  120SOL     OW 1258   3.369   5.756   1.456  0.4819 -0.9425  0.7235
  120SOL    HW1 1259   3.401   5.837   1.506 -0.3161 -0.7214  0.8774
  120SOL    HW2 1260   3.430   5.738   1.379 -0.1287  0.6300 -0.1552
  121SOL     OW 1261   2.094   3.069   5.921  0.3796  0.8899  0.0946
  121SOL    HW1 1262   2.040   3.055   6.004  0.5707 -1.2663 -0.0834
  121SOL    HW2 1263   2.033   3.094   5.845 -0.3712 -1.0551  0.0028
  122SOL     OW 1264   1.533   3.475   6.634 -0.6642 -0.1552 -0.5212
  122SOL    HW1 1265   1.507   3.399   6.694 -0.4249  0.3814  0.2776
  122SOL    HW2 1266   1.549   3.556   6.689  2.3517 -0.3488 -0.9829
  123SOL     OW 1267   6.527   1.730   1.680  0.2615 -0.1688 -0.0797
  123SOL    HW1 1268   6.522   1.786   1.763  0.5305  1.3641 -1.0607
  123SOL    HW2 1269   6.550   1.788   1.602 -0.0161 -1.5733 -1.2486
  124SOL     OW 1270   6.042   2.923   1.346  0.8663 -0.2033  0.2267
  124SOL    HW1 1271   6.015   2.847   1.406  1.7926 -1.9892 -1.5146
  124SOL    HW2 1272   6.044   3.008   1.399  0.1526 -1.4346  2.3420
  125SOL     OW 1273   2.637   3.567   1.640  0.4886 -0.1774  0.0624
  125SOL    HW1 1274   2.635   3.528   1.548  1.5280 -1.4209  0.5382
  125SOL    HW2 1275   2.544   3.592   1.668  0.1520  0.2037 -1.2931
  126SOL     OW 1276   2.624   5.665   0.923  0.9005  0.3673 -0.0399
  126SOL    HW1 1277   2.593   5.573   0.899 -0.9515  0.9779 -0.1463
  126SOL    HW2 1278   2.723   5.671   0.911  1.1237 -1.7349  0.4228
  127SOL     OW 1279   0.345   5.723   0.491 -0.4236  0.2512  0.2214
  127SOL    HW1 1280   0.250   5.733   0.464  0.2416  0.9186 -2.1399
  127SOL    HW2 1281   0.366   5.784   0.568 -1.6926  0.6716  0.2434
  128SOL     OW 1282   6.195   1.150   1.530 -0.7581 -0.4291 -0.0216
  128SOL    HW1 1283   6.106   1.165   1.573 -1.1120  1.9617 -1.3767
  128SOL    HW2 1284   6.221   1.233   1.479  1.7557 -1.4606 -0.5377
  129SOL     OW 1285   1.434   3.411   3.998 -0.0196 -0.2347 -0.2090
  129SOL    HW1 1286   1.432   3.504   3.961  1.0358  0.4603  1.3672
  129SOL    HW2 1287   1.439   3.346   3.922 -1.8579  0.9056 -1.3863
  130SOL     OW 1288   0.984   2.168   4.741  0.2916 -0.5376 -0.3294
  130SOL    HW1 1289   0.927   2.234   4.693  2.0429 -0.1545 -1.9748
  130SOL    HW2 1290   1.029   2.213   4.818 -0.4589 -0.4851  0.0944
  131SOL     OW 1291   5.003   2.137   2.124  0.8221 -0.1102  0.1726
  131SOL    HW1 1292   5.049   2.120   2.212  0.5486 -1.2151  0.1234
  131SOL    HW2 1293   5.013   2.233   2.099  2.7561 -0.2137  0.3696
  132SOL     OW 1294   1.537   0.438   2.321  0.1434 -0.3485  0.2473
  132SOL    HW1 1295   1.458   0.446   2.260 -0.1404 -1.4005  0.4582
  132SOL    HW2 1296   1.620   0.467   2.271  0.0175 -1.8133 -0.8999
  133SOL     OW 1297   0.762   5.304   3.605 -0.7385  0.4429 -0.6639
  133SOL    HW1 1298   0.827   5.374   3.636 -0.1321 -0.1576 -0.5494
  133SOL    HW2 1299   0.672   5.323   3.643 -0.6822  1.3946 -0.9728
  134SOL     OW 1300   2.350   3.631   1.667  0.3893  0.1336 -0.5360
  134SOL    HW1 1301   2.297   3.705   1.708 -3.6869 -1.1563 -2.7928
  134SOL    HW2 1302   2.343   3.549   1.725 -0.2683 -0.0495 -0.8546
  135SOL     OW 1303   4.661   0.160   4.425 -0.0935  0.0431  0.1764
  135SOL    HW1 1304   4.589   0.116   4.479 -0.1080 -2.9226 -2.0181
  135SOL    HW2 1305   4.660   0.259   4.443 -2.0943 -0.3656  3.1146
  136SOL     OW 1306   4.136   5.236   4.895  0.6819 -0.6524  0.0075
  136SOL    HW1 1307   4.100   5.152   4.855 -2.7454  0.9779 -0.7577
  136SOL    HW2 1308   4.194   5.283   4.829  1.8505 -1.9021  0.1049
  137SOL     OW 1309   4.522   1.033   5.793 -0.3142 -0.5594  0.4522
  137SOL    HW1 1310   4.459   1.042   5.716  2.0566  0.3813 -1.4825
  137SOL    HW2 1311   4.574   0.948   5.784  0.1673 -0.3191  0.8944
  138SOL     OW 1312   5.667   3.490   3.838 -0.1248 -0.2491  0.5487
  138SOL    HW1 1313   5.600   3.444   3.897  0.5574 -1.4362  0.4156
  138SOL    HW2 1314   5.752   3.503   3.889  0.2565 -0.7113  0.0340
  139SOL     OW 1315   2.294   5.587   3.677 -0.1643  0.2832 -1.0501
  139SOL    HW1 1316   2.366   5.651   3.705  1.1579 -1.1737 -1.0257
  139SOL    HW2 1317   2.331   5.519   3.615 -1.7338 -0.0289 -1.7005
  140SOL     OW 1318   5.715   2.820   4.831  0.4570 -0.0736 -0.1062
  140SOL    HW1 1319   5.648   2.887   4.797  0.2691  0.3746  1.0610
  140SOL    HW2 1320   5.761   2.858   4.912  0.2630 -1.3924  0.6556
  141SOL     OW 1321   6.813   1.325   2.472 -0.5516 -0.2324  0.0304
  141SOL    HW1 1322   6.746   1.398   2.461 -0.7972 -0.4226  0.2445
  141SOL    HW2 1323   6.767   1.237   2.469 -0.1738 -0.4036 -0.8309
  142SOL     OW 1324   1.307   4.527   0.787  0.0779 -0.6867 -0.1024
  142SOL    HW1 1325   1.218   4.571   0.799  0.0616 -0.4108 -1.1338
  142SOL    HW2 1326   1.355   4.523   0.874  0.2136  1.6783 -0.0077
  143SOL     OW 1327   5.241   3.682   1.266 -0.2980  0.2640  0.4490
  143SOL    HW1 1328   5.249   3.655   1.362  0.5360 -1.3051 -0.0310
  143SOL    HW2 1329   5.317   3.644   1.214 -0.7103  1.1343 -0.8432
  144SOL     OW 1330   2.592   6.788   1.048  0.0202  0.3958  0.5806
  144SOL    HW1 1331   2.579   6.861   0.981 -0.4539 -1.0842 -1.0078
  144SOL    HW2 1332   2.530   6.801   1.125 -0.3331  1.4438  0.1323
  145SOL     OW 1333   4.889   7.013   1.414  0.3356 -0.4980  0.0440
  145SOL    HW1 1334   4.935   7.097   1.442  0.9086 -0.3972 -1.1462
  145SOL    HW2 1335   4.876   6.954   1.494 -0.8523  1.0594  1.0730
  146SOL     OW 1336   2.590   3.333   7.011  0.1194  0.3463  0.3356
  146SOL    HW1 1337   2.654   3.353   7.086  2.0450 -0.7323 -0.9413
  146SOL    HW2 1338   2.634   3.353   6.924 -0.5794 -2.1426 -0.6768
  147SOL     OW 1339   6.231   1.800   1.073 -0.3504  0.5095  0.3522
  147SOL    HW1 1340   6.137   1.829   1.094 -0.6208 -0.3311  0.3210
  147SOL    HW2 1341   6.248   1.812   0.975 -0.4189  0.6624  0.3573
  148SOL     OW 1342   6.186   5.165   5.585  0.3389  0.1322 -0.5519
  148SOL    HW1 1343   6.116   5.236   5.579 -0.4144 -0.5456 -0.0408
  148SOL    HW2 1344   6.231   5.155   5.496 -0.2651  0.5288 -0.9096
  149SOL     OW 1345   3.973   1.942   1.006 -0.2259 -0.5401  0.2732
  149SOL    HW1 1346   4.068   1.913   1.010 -0.4778 -1.2463  2.0919
  149SOL    HW2 1347   3.932   1.936   1.097 -2.3870 -1.4891 -0.6894
  150SOL     OW 1348   5.409   5.524   3.678  0.2765  0.5576 -0.1812
  150SOL    HW1 1349   5.455   5.442   3.713 -3.0605 -1.3846  0.0356
  150SOL    HW2 1350   5.384   5.584   3.754 -2.6430 -1.3004  0.4727
  151SOL     OW 1351   5.039   1.615   2.525  0.3512 -0.3627 -0.8517
  151SOL    HW1 1352   5.098   1.549   2.571  1.1156  0.9682  0.1494
  151SOL    HW2 1353   4.991   1.570   2.450  1.7637 -1.7525 -0.9746
  152SOL     OW 1354   0.586   0.923   4.443 -0.0061 -0.3832  0.7036
  152SOL    HW1 1355   0.546   0.990   4.505  0.9373 -0.3682  1.3040
  152SOL    HW2 1356   0.573   0.831   4.480  1.6439 -0.2977  1.5819
  153SOL     OW 1357   2.138   7.012   2.409 -0.5572  0.1028  0.1521
  153SOL    HW1 1358   2.152   7.110   2.398  0.2042 -0.1309 -1.1855
  153SOL    HW2 1359   2.201   6.962   2.349 -0.4181 -1.2278  1.3496
  154SOL     OW 1360   1.106   1.756   1.567 -0.0135  0.0456 -0.3312
  154SOL    HW1 1361   1.198   1.725   1.545 -0.3643 -0.4129 -1.2034
  154SOL    HW2 1362   1.094   1.758   1.666  0.5609 -0.9694 -0.2329
  155SOL     OW 1363   1.561   1.654   3.103  0.0282 -0.0917  0.3435
  155SOL    HW1 1364   1.597   1.695   3.187  1.4255 -1.1102  0.2833
  155SOL    HW2 1365   1.622   1.581   3.073  0.0193  0.7778 -2.0139
  156SOL     OW 1366   1.769   4.055   1.619  0.1642  0.4493  0.2545
  156SOL    HW1 1367   1.706   4.066   1.541  0.5998  0.0448 -0.1614
  156SOL    HW2 1368   1.735   4.108   1.697 -0.2061  0.9767 -0.2553
  157SOL     OW 1369   6.940   2.468   1.828  0.3866  0.4498 -0.4868
  157SOL    HW1 1370   7.019   2.447   1.885  1.0156  1.0411 -1.1237
  157SOL    HW2 1371   6.856   2.440   1.876  0.9274  0.4840  0.5110
  158SOL     OW 1372   3.529   2.093   4.055  0.9271  0.0698  0.3388
  158SOL    HW1 1373   3.568   2.014   4.008  1.2175  1.5297 -2.0300
  158SOL    HW2 1374   3.434   2.106   4.027  0.1106 -0.7240  2.5041
  159SOL     OW 1375   4.334   3.576   0.210 -0.2536  0.0121  0.3207
  159SOL    HW1 1376   4.325   3.524   0.125  1.4945 -0.1369  0.1969
  159SOL    HW2 1377   4.282   3.661   0.202 -1.0091 -0.4964 -0.4612
  160SOL     OW 1378   0.658   5.030   6.260  0.1497  0.2706 -0.1665
  160SOL    HW1 1379   0.642   5.045   6.358  1.7263 -1.4794  0.4303
  160SOL    HW2 1380   0.610   5.099   6.207 -2.0636  0.3443  1.7679
  161SOL     OW 1381   2.291   4.158   5.616  0.5724 -0.5230  0.2570
  161SOL    HW1 1382   2.324   4.186   5.525 -2.1356  1.3496 -0.2782
  161SOL    HW2 1383   2.212   4.097   5.605 -0.8010  0.9930  1.2582
  162SOL     OW 1384   4.014   0.012   2.481  0.1910  0.2740  0.6200
  162SOL    HW1 1385   3.953  -0.016   2.407  0.8172  0.6744 -0.0581
  162SOL    HW2 1386   4.026  -0.064   2.545  0.5927 -0.4948 -0.3388
  163SOL     OW 1387   4.634   6.472   6.844 -0.1861  1.0458 -0.4071
  163SOL    HW1 1388   4.722   6.476   6.893  0.0798  1.6557 -0.9218
  163SOL    HW2 1389   4.651   6.460   6.747 -0.5750  3.3468 -0.8048
  164SOL     OW 1390   6.323   2.060   2.591  0.2607 -0.3353 -0.8650
  164SOL    HW1 1391   6.355   2.030   2.681 -0.6210 -1.2599 -0.8402
  164SOL    HW2 1392   6.265   1.989   2.551 -1.7924  1.2649 -0.8993
  165SOL     OW 1393   6.397   4.547   5.448  1.0096 -0.5419  0.0051
  165SOL    HW1 1394   6.408   4.560   5.547 -1.4764 -1.7307  0.5230
  165SOL    HW2 1395   6.486   4.554   5.403  2.5823 -2.2838  2.6000
  166SOL     OW 1396   1.338   6.362   6.133  0.4652 -0.0556  0.1274
  166SOL    HW1 1397   1.258   6.363   6.073  0.7036  0.7738 -0.1977
  166SOL    HW2 1398   1.408   6.302   6.095  0.3285 -0.1128 -0.0345
  167SOL     OW 1399   0.738   0.294   2.186 -0.2242 -0.6062 -0.7377
  167SOL    HW1 1400   0.646   0.255   2.189 -0.7610  0.5635  2.6211
  167SOL    HW2 1401   0.733   0.391   2.163  0.1861 -0.5411 -0.5708
  168SOL     OW 1402   1.885   6.190   1.445 -0.4470 -0.2117 -0.2383
  168SOL    HW1 1403   1.819   6.261   1.470  0.0174  0.4166 -0.7674
  168SOL    HW2 1404   1.953   6.180   1.517 -0.1689  0.2992 -0.4310
  169SOL     OW 1405   2.336   2.510   0.557 -0.2796  0.2520 -0.1517
  169SOL    HW1 1406   2.390   2.577   0.506  0.3078 -0.3838 -0.3672
  169SOL    HW2 1407   2.242   2.542   0.564 -0.3280  0.4349 -1.4689
  170SOL     OW 1408   6.919   1.887   4.906 -0.5882  0.7279  0.0504
  170SOL    HW1 1409   6.973   1.963   4.868  1.3476 -1.0958 -1.0984
  170SOL    HW2 1410   6.884   1.912   4.996  0.3225  2.8228 -0.1186
  171SOL     OW 1411   2.147   4.957   0.058 -0.2208 -0.3154  0.1301
  171SOL    HW1 1412   2.068   4.995   0.107 -0.3791 -0.8444  0.2952
  171SOL    HW2 1413   2.183   4.879   0.109 -0.0139 -0.5010 -0.2954
  172SOL     OW 1414   6.645   4.069   6.790  0.0455  0.0251 -0.0595
  172SOL    HW1 1415   6.606   3.997   6.733  0.5320 -0.1071 -0.2338
  172SOL    HW2 1416   6.738   4.044   6.816 -0.5350 -0.4388  1.7280
  173SOL     OW 1417   0.125   6.802   4.878  0.6982  0.0537  0.3694
  173SOL    HW1 1418   0.183   6.723   4.861 -0.3584 -0.6148 -0.2845
  173SOL    HW2 1419   0.083   6.831   4.792  3.1157  3.0445  0.0324
  174SOL     OW 1420   1.174   6.023   3.244 -0.3991  0.0848 -0.5479
  174SOL    HW1 1421   1.145   6.084   3.171  1.2669 -0.4536 -1.7136
  174SOL    HW2 1422   1.159   6.067   3.333  1.6726  2.6674 -1.3596
  175SOL     OW 1423   0.789   5.652   2.704  0.0078  0.6102 -0.1306
  175SOL    HW1 1424   0.706   5.605   2.734 -0.2524  0.1023 -1.5805
  175SOL    HW2 1425   0.764   5.740   2.664  0.2675  0.8665  0.2611
  176SOL     OW 1426   0.419   6.156   6.226 -0.3660 -0.0319  0.0468
  176SOL    HW1 1427   0.509   6.199   6.225 -0.7607  0.8077 -0.7010
  176SOL    HW2 1428   0.380   6.164   6.318 -0.3537  1.0811 -0.0235
  177SOL     OW 1429   4.300   0.866   2.619  0.4341 -0.5618 -0.0348
  177SOL    HW1 1430   4.278   0.857   2.522  1.9252  2.0475 -0.7357
  177SOL    HW2 1431   4.359   0.791   2.648 -0.7518 -1.8445 -0.8786
  178SOL     OW 1432   4.010   5.800   6.140 -0.4236  0.5006 -0.6921
  178SOL    HW1 1433   4.017   5.877   6.076 -0.1320  0.6082 -0.5317
  178SOL    HW2 1434   3.968   5.831   6.225 -0.1685  0.5159 -0.5718
  179SOL     OW 1435   3.282   0.104   2.020  0.0678 -0.2683  0.6084
  179SOL    HW1 1436   3.338   0.072   1.943 -0.1816 -1.0648  0.7545
  179SOL    HW2 1437   3.287   0.204   2.024 -1.0274 -0.0753 -1.3216
  180SOL     OW 1438   0.088   3.058   0.075 -0.3259  0.7198 -0.5651
  180SOL    HW1 1439   0.145   3.140   0.086 -0.2317  0.8862 -2.0153
  180SOL    HW2 1440   0.080   3.037  -0.022  0.8510 -1.8366 -0.2021
  181SOL     OW 1441   3.528   3.484   4.558 -0.0610  0.1274  0.2063
  181SOL    HW1 1442   3.515   3.398   4.607  1.5704 -0.6762 -0.6887
  181SOL    HW2 1443   3.502   3.473   4.463  0.0565  0.6670  0.1090
  182SOL     OW 1444   5.404   2.330   4.193  0.3517 -0.0016  0.1867
  182SOL    HW1 1445   5.458   2.370   4.119  0.7686 -2.3543 -0.8746
  182SOL    HW2 1446   5.312   2.367   4.191  0.4059  0.1090 -1.4341
  183SOL     OW 1447   5.879   0.545   2.494  0.4298 -0.6990  0.1475
  183SOL    HW1 1448   5.968   0.587   2.475 -0.2220  0.6779  0.0889
  183SOL    HW2 1449   5.839   0.587   2.575 -0.8484 -0.2442 -0.7035
  184SOL     OW 1450   0.955   4.826   2.030  0.1927 -0.5865 -0.2960
  184SOL    HW1 1451   0.932   4.848   2.124  0.0048  1.9548 -0.8547
  184SOL    HW2 1452   0.923   4.734   2.007  0.8307 -1.5180  2.2659
  185SOL     OW 1453   4.562   4.192   0.367  0.8141  0.7825  0.0019
  185SOL    HW1 1454   4.548   4.093   0.372 -0.6079  0.9659  0.3411
  185SOL    HW2 1455   4.504   4.230   0.294 -2.3720  1.8627  2.8110
  186SOL     OW 1456   6.587   6.295   4.592 -0.6489 -0.1476 -0.4626
  186SOL    HW1 1457   6.681   6.331   4.588 -0.7603  0.3109  0.8098
  186SOL    HW2 1458   6.590   6.196   4.597 -0.1594 -0.0694  1.1738
  187SOL     OW 1459   5.810   6.705   4.552  0.1015 -0.7561  0.2569
  187SOL    HW1 1460   5.737   6.767   4.525  0.5252  0.2073  1.2489
  187SOL    HW2 1461   5.803   6.687   4.651 -0.1149 -2.4463 -0.0236
  188SOL     OW 1462   6.033   2.943   6.212 -0.5139 -0.3487  0.1339
  188SOL    HW1 1463   6.084   2.920   6.130  0.0832  2.2863 -0.3318
  188SOL    HW2 1464   6.094   2.939   6.292  0.3221  1.8872 -0.2989
  189SOL     OW 1465   0.436   6.379   2.482  0.6886 -0.0942  0.1819
  189SOL    HW1 1466   0.513   6.433   2.514 -0.2019 -0.1735  2.6895
  189SOL    HW2 1467   0.352   6.409   2.528 -0.3714 -1.5449 -0.6916
  190SOL     OW 1468   3.702   1.505   2.909 -0.2255 -0.0252  0.5589
  190SOL    HW1 1469   3.669   1.572   2.975  2.4446  0.8514  1.1498
  190SOL    HW2 1470   3.696   1.414   2.948 -1.8730  0.0832  0.6157
  191SOL     OW 1471   6.461   3.949   5.672  0.4829 -0.2024  0.4825
  191SOL    HW1 1472   6.479   3.853   5.652  1.0140 -0.1856  0.8704
  191SOL    HW2 1473   6.411   3.956   5.759 -0.3221 -0.1762  0.0224
  192SOL     OW 1474   1.771   0.371   0.567  0.1390  0.2744  0.4647
  192SOL    HW1 1475   1.734   0.463   0.575  1.7124  0.9134  0.7715
  192SOL    HW2 1476   1.721   0.310   0.629 -0.3859  1.0878  0.8640
  193SOL     OW 1477   5.507   4.905   0.088 -0.3150 -0.4964  0.1363
  193SOL    HW1 1478   5.547   4.833   0.031 -0.5799 -0.1762 -0.4607
  193SOL    HW2 1479   5.518   4.881   0.184  0.7386 -0.7293 -0.0269
  194SOL     OW 1480   4.759   2.716   4.580 -0.1577  0.1396  0.6474
  194SOL    HW1 1481   4.851   2.677   4.577  0.0358  0.4193  2.1146
  194SOL    HW2 1482   4.701   2.662   4.641 -0.6112  0.6627  0.6913
  195SOL     OW 1483   5.965   5.513   2.882 -0.0787 -0.1044 -0.0793
  195SOL    HW1 1484   5.909   5.576   2.828 -0.5622  0.8737  1.4877
  195SOL    HW2 1485   5.918   5.426   2.891 -0.5783  0.1465 -0.2111
  196SOL     OW 1486   0.848   3.194   0.157  0.3283 -0.3726  0.3988
  196SOL    HW1 1487   0.756   3.155   0.164 -0.8830  2.2228  0.1962
  196SOL    HW2 1488   0.908   3.130   0.111 -2.2810 -0.8712 -2.6995
  197SOL     OW 1489   3.409   1.096   0.896  1.0710 -0.0765 -0.4798
  197SOL    HW1 1490   3.320   1.051   0.890  0.8585  0.4797 -2.1022
  197SOL    HW2 1491   3.398   1.185   0.940  1.0487 -0.5376  0.4509
  198SOL     OW 1492   1.721   0.657   5.101  0.2362  0.3630 -0.2360
  198SOL    HW1 1493   1.624   0.672   5.120  0.0067 -3.8896  3.7156
  198SOL    HW2 1494   1.730   0.604   5.017 -0.4818  3.0692 -2.1420
  199SOL     OW 1495   1.462   0.501   5.231 -0.5061  0.0714  0.6291
  199SOL    HW1 1496   1.381   0.459   5.272 -0.2548 -0.1690  0.8911
  199SOL    HW2 1497   1.518   0.430   5.188 -0.2424  0.1799  0.7892
  200SOL     OW 1498   5.239   2.001   0.843 -0.4475 -0.4162  0.0685
  200SOL    HW1 1499   5.290   2.082   0.872  0.6747 -0.6493 -1.1768
  200SOL    HW2 1500   5.154   1.995   0.896 -0.5895  1.5985  0.1622
  201SOL     OW 1501   1.495   1.241   6.005 -0.3101 -0.3408 -0.2352
  201SOL    HW1 1502   1.563   1.182   6.048 -0.1099  0.4768  0.5889
  201SOL    HW2 1503   1.525   1.336   6.011  0.0492 -0.2261 -2.7754
  202SOL     OW 1504   0.401   6.865   5.610 -0.3645 -0.1825 -0.5187
  202SOL    HW1 1505   0.407   6.786   5.671 -0.7440 -0.1818 -0.4763
  202SOL    HW2 1506   0.441   6.841   5.521  1.0719  0.1303  0.0209
  203SOL     OW 1507   0.770   3.240   6.066  0.3417  0.3898  0.0710
  203SOL    HW1 1508   0.740   3.145   6.070  1.5351  0.0309  0.9586
  203SOL    HW2 1509   0.857   3.245   6.017  0.1460  1.0659 -0.2155
  204SOL     OW 1510   6.078   6.993   6.793 -0.4639  0.6934  0.0038
  204SOL    HW1 1511   6.102   6.994   6.890  0.5773  1.4675 -0.2418
  204SOL    HW2 1512   6.120   6.913   6.750 -0.3074  0.7534  0.0448
  205SOL     OW 1513   1.444   4.030   3.238  0.7176 -0.2654 -0.4760
  205SOL    HW1 1514   1.409   3.956   3.296 -0.2534 -0.3788 -1.1740
  205SOL    HW2 1515   1.428   4.006   3.142  1.0713  0.5212 -0.7315
  206SOL     OW 1516   0.204   4.658   0.320 -0.2887  0.1545  0.1696
  206SOL    HW1 1517   0.265   4.616   0.253 -0.7233  0.6565 -0.5586
  206SOL    HW2 1518   0.199   4.601   0.402 -0.1496 -0.7338 -0.4297
  207SOL     OW 1519   1.090   2.322   4.007 -0.2373  0.2810  0.1609
  207SOL    HW1 1520   1.112   2.225   4.016  0.2355  0.4440  0.8803
  207SOL    HW2 1521   1.105   2.368   4.094 -0.5584  0.9829 -0.1431
  208SOL     OW 1522   0.925   2.972   3.630  0.2231  0.0878  0.4522
  208SOL    HW1 1523   0.921   2.908   3.554  1.8354  0.5221 -0.0455
  208SOL    HW2 1524   0.839   3.023   3.636 -0.5494 -1.1245  0.0018
  209SOL     OW 1525   5.108   2.730   2.466  0.1242 -0.1967  0.1912
  209SOL    HW1 1526   5.181   2.661   2.477 -0.1667 -0.3099  1.7430
  209SOL    HW2 1527   5.030   2.704   2.523  0.2930  1.7860  1.4048
  210SOL     OW 1528   3.273   3.037   1.908 -0.1903 -0.3802  0.0293
  210SOL    HW1 1529   3.292   2.944   1.876  0.5992  0.4192 -1.9640
  210SOL    HW2 1530   3.340   3.062   1.978 -1.4759 -1.8879  1.9064
  211SOL     OW 1531   2.518   0.260   2.144  0.0320  0.0367  0.3666
  211SOL    HW1 1532   2.439   0.264   2.084 -1.5196  2.6207  2.3495
  211SOL    HW2 1533   2.574   0.342   2.131  1.3031 -0.7995  0.3907
  212SOL     OW 1534   2.847   4.799   0.265 -0.4760  0.1593  0.0164
  212SOL    HW1 1535   2.931   4.806   0.318 -0.5464 -1.6259  0.4036
  212SOL    HW2 1536   2.794   4.719   0.295 -2.0438  0.9077 -0.6050
  213SOL     OW 1537   6.527   0.131   6.827 -0.3640 -0.2226  0.2035
  213SOL    HW1 1538   6.616   0.097   6.856 -0.6316  0.0152  1.3631
  213SOL    HW2 1539   6.495   0.079   6.747  1.0329  0.0465 -0.5511
  214SOL     OW 1540   0.099   5.594   1.862  0.4576  0.3969  0.2121
  214SOL    HW1 1541   0.031   5.528   1.830  1.3313  0.1021 -1.1010
  214SOL    HW2 1542   0.138   5.562   1.948 -0.5343  0.2141  0.6141
  215SOL     OW 1543   1.142   5.919   3.713 -0.5257  0.7145 -0.2124
  215SOL    HW1 1544   1.137   5.986   3.639 -0.9679 -1.0095 -1.8353
  215SOL    HW2 1545   1.216   5.854   3.694  0.8713  1.5279  2.0771
  216SOL     OW 1546   2.123   5.878   6.948 -0.5707  0.6326  0.3683
  216SOL    HW1 1547   2.125   5.846   6.853  0.3935 -0.1079  0.6233
  216SOL    HW2 1548   2.057   5.953   6.956 -3.0917 -1.4074 -0.2047
  217SOL     OW 1549   6.608   4.724   0.441 -0.1103 -0.0819  0.1954
  217SOL    HW1 1550   6.683   4.674   0.398 -1.1092 -0.6755 -0.9196
  217SOL    HW2 1551   6.524   4.670   0.436 -1.1223  1.4832 -0.6158
  218SOL     OW 1552   2.795   1.455   6.931  0.2792 -0.0764  0.2327
  218SOL    HW1 1553   2.801   1.407   6.843  1.2961  2.3511 -1.1100
  218SOL    HW2 1554   2.886   1.461   6.971  0.2756  1.2183  0.0687
  219SOL     OW 1555   5.521   3.236   2.019 -0.1549  0.1352  0.3283
  219SOL    HW1 1556   5.439   3.248   1.964  0.2641 -0.2878 -0.4063
  219SOL    HW2 1557   5.600   3.274   1.970  0.3368 -0.8617  0.3217
  220SOL     OW 1558   2.411   0.592   0.563 -0.4374 -0.2196 -0.4438
  220SOL    HW1 1559   2.430   0.690   0.567 -1.8605  0.0992 -0.8872
  220SOL    HW2 1560   2.372   0.562   0.651  0.2112 -0.4576 -0.2256
  221SOL     OW 1561   5.679   2.280   2.993 -0.1010 -0.1227  0.2581
  221SOL    HW1 1562   5.630   2.356   2.950  1.1270 -0.2459 -1.4425
  221SOL    HW2 1563   5.640   2.262   3.083 -1.5870  1.3380 -0.0520
  222SOL     OW 1564   0.720   5.618   0.828 -0.5757  0.5252 -0.2715
  222SOL    HW1 1565   0.737   5.710   0.863 -1.2153  0.3363  0.5521
  222SOL    HW2 1566   0.623   5.596   0.838 -0.5536  0.0174 -1.0968
  223SOL     OW 1567   6.198   1.876   0.249  0.1705 -0.8131 -0.3519
  223SOL    HW1 1568   6.136   1.798   0.255  2.2682 -2.6697 -1.1769
  223SOL    HW2 1569   6.237   1.895   0.339 -0.1034 -0.9315 -0.2074
  224SOL     OW 1570   3.184   2.832   5.237  0.0300 -0.1681 -0.2341
  224SOL    HW1 1571   3.218   2.891   5.164  1.6517  0.9757  1.3563
  224SOL    HW2 1572   3.095   2.866   5.268  0.0079  0.2090 -0.7016
  225SOL     OW 1573   4.771   5.593   5.142 -0.0936 -0.8538 -0.8021
  225SOL    HW1 1574   4.781   5.685   5.105  2.3704 -0.6792  0.1352
  225SOL    HW2 1575   4.849   5.537   5.114 -0.6058 -2.1112  0.1786
  226SOL     OW 1576   1.128   1.646   0.913  0.1653 -0.1674 -0.3933
  226SOL    HW1 1577   1.140   1.689   1.002 -2.3823 -0.1204  0.0051
  226SOL    HW2 1578   1.122   1.716   0.842 -1.3604  0.0442 -0.0887
  227SOL     OW 1579   3.014   3.650   1.279  0.2929 -0.6972  0.2204
  227SOL    HW1 1580   2.947   3.586   1.319 -0.8504  1.2738  1.6351
  227SOL    HW2 1581   2.980   3.683   1.191  0.9218 -1.9984 -0.5549
  228SOL     OW 1582   6.869   0.988   1.563  0.0127  0.2760  0.2511
  228SOL    HW1 1583   6.773   1.017   1.557 -0.6456 -1.8805 -0.6765
  228SOL    HW2 1584   6.920   1.054   1.618 -1.7034  2.1716 -0.2959
  229SOL     OW 1585   5.365   0.722   4.064  0.2320  0.7909 -0.2644
  229SOL    HW1 1586   5.382   0.784   3.988  1.6208  3.1328  1.8304
  229SOL    HW2 1587   5.277   0.744   4.106 -0.2958 -0.1643 -0.8217
  230SOL     OW 1588   4.466   2.918   5.609 -0.2829  0.3112 -0.1474
  230SOL    HW1 1589   4.555   2.958   5.632  0.2101 -0.4315 -0.6946
  230SOL    HW2 1590   4.395   2.959   5.666  0.3320  1.2861 -0.0631
  231SOL     OW 1591   5.564   1.519   0.414  0.3200  0.2203 -0.1819
  231SOL    HW1 1592   5.527   1.513   0.322  1.0375 -2.5876 -0.3821
  231SOL    HW2 1593   5.495   1.557   0.476 -0.4811  1.2768 -1.6750
  232SOL     OW 1594   2.432   2.530   5.785 -0.1429  0.5171 -0.3292
  232SOL    HW1 1595   2.477   2.482   5.709  1.6682  1.1477  0.2747
  232SOL    HW2 1596   2.401   2.620   5.753 -0.4526  0.3092 -0.6183
  233SOL     OW 1597   4.428   1.335   4.539 -0.1270 -0.1773  0.0689
  233SOL    HW1 1598   4.394   1.241   4.527 -0.9473  0.1805 -0.5040
  233SOL    HW2 1599   4.516   1.345   4.493 -1.3706  0.0868 -2.3743
  234SOL     OW 1600   4.573   5.651   0.472  0.3016 -0.1066  0.1941
  234SOL    HW1 1601   4.528   5.606   0.395  0.9571 -1.4140  0.5495
  234SOL    HW2 1602   4.653   5.597   0.500  1.0610  1.2365  0.7009
  235SOL     OW 1603   4.858   3.262   3.325 -0.3007 -0.3113  0.1520
  235SOL    HW1 1604   4.826   3.288   3.234  0.8892 -1.9261 -0.7950
  235SOL    HW2 1605   4.868   3.343   3.382 -2.2962  0.6072 -0.7207
  236SOL     OW 1606   3.658   2.299   5.948 -0.1828 -0.2892 -0.3398
  236SOL    HW1 1607   3.587   2.332   6.010 -1.0919 -0.2883 -1.3680
  236SOL    HW2 1608   3.676   2.202   5.967  0.3939 -0.0037  0.6956
  237SOL     OW 1609   5.815   3.499   4.648 -0.1975 -0.0365  0.9856
  237SOL    HW1 1610   5.789   3.587   4.609 -0.1080  0.0039  1.0167
  237SOL    HW2 1611   5.745   3.470   4.714  0.7464  0.9926  2.5238
  238SOL     OW 1612   5.802   1.570   6.776 -0.0704  0.0876 -0.1020
  238SOL    HW1 1613   5.796   1.475   6.743 -1.3829 -0.4713  1.5798
  238SOL    HW2 1614   5.710   1.605   6.793  0.4920  0.8706  1.4488
  239SOL     OW 1615   1.195   3.169   0.514 -0.3055 -0.6916  0.2573
  239SOL    HW1 1616   1.111   3.178   0.460  0.0172 -1.1485 -0.3329
  239SOL    HW2 1617   1.206   3.249   0.573  1.1842  1.6565 -2.9244
  240SOL     OW 1618   6.287   3.694   2.275  0.2733 -0.0603  0.2002
  240SOL    HW1 1619   6.260   3.722   2.367  2.7637 -0.7607  1.2177
  240SOL    HW2 1620   6.337   3.769   2.231 -0.2581  0.0004 -0.3170
  241SOL     OW 1621   2.927   2.263   3.991 -0.0817 -0.5958  0.2615
  241SOL    HW1 1622   2.857   2.326   4.025 -0.8166 -1.3616  0.2083
  241SOL    HW2 1623   2.927   2.266   3.891  0.0605 -0.4941  0.2645
  242SOL     OW 1624   3.719   3.065   3.423  0.2599  0.0531  0.7078
  242SOL    HW1 1625   3.804   3.086   3.472 -1.3792 -0.7125  4.2581
  242SOL    HW2 1626   3.683   3.147   3.380  0.4551  1.6016  3.2850
  243SOL     OW 1627   5.924   2.635   6.756 -0.7349  0.0784  0.0547
  243SOL    HW1 1628   5.970   2.719   6.785  1.1259 -1.1168  0.7087
  243SOL    HW2 1629   5.988   2.577   6.705 -2.1038 -0.7750 -0.7667
  244SOL     OW 1630   4.945   3.767   5.451 -0.1151  0.3241  0.0688
  244SOL    HW1 1631   4.887   3.836   5.409  0.3076 -0.0639 -1.2148
  244SOL    HW2 1632   5.014   3.736   5.385 -1.9847 -3.3316 -0.4521
  245SOL     OW 1633   3.315   0.466   4.736  0.6686  0.2388 -0.2566
  245SOL    HW1 1634   3.359   0.479   4.824 -0.4915  1.7992  0.1428
  245SOL    HW2 1635   3.252   0.389   4.741  2.0910 -0.9666 -0.3577
  246SOL     OW 1636   5.864   0.507   1.883 -0.0643 -0.0826 -0.2978
  246SOL    HW1 1637   5.843   0.601   1.858 -0.7460  0.0237  0.6277
  246SOL    HW2 1638   5.811   0.481   1.964  0.1039 -1.2615 -0.5390
  247SOL     OW 1639   1.604   6.184   1.773  0.1993 -0.5557  0.1429
  247SOL    HW1 1640   1.616   6.176   1.674 -1.8447  1.0084 -0.3220
  247SOL    HW2 1641   1.507   6.202   1.793  0.8428  0.9718  2.2649
  248SOL     OW 1642   3.656   2.958   1.280  0.1899 -0.5653 -0.0196
  248SOL    HW1 1643   3.573   2.937   1.332  0.6767 -1.1569  0.5392
  248SOL    HW2 1644   3.725   2.997   1.341  0.3647 -0.1804 -0.4585
  249SOL     OW 1645   5.578   6.593   6.989  0.1415  0.3770  0.1308
  249SOL    HW1 1646   5.551   6.540   7.069 -1.2483  1.0402  0.1309
  249SOL    HW2 1647   5.616   6.532   6.919  1.2981 -0.2119  1.2423
  250SOL     OW 1648   2.887   3.773   0.472 -0.0379 -0.0593 -0.3721
  250SOL    HW1 1649   2.854   3.829   0.548  0.9796 -0.7146  0.5822
  250SOL    HW2 1650   2.986   3.785   0.464 -0.0544 -0.4693 -1.2184
  251SOL     OW 1651   3.986   6.178   5.609 -0.5148  0.2929  0.0951
  251SOL    HW1 1652   4.041   6.111   5.658  3.0490  1.3473 -2.0654
  251SOL    HW2 1653   3.934   6.132   5.536  1.0740 -0.3284 -0.6997
  252SOL     OW 1654   5.887   6.191   1.040 -0.4132 -0.7990  1.0214
  252SOL    HW1 1655   5.924   6.189   1.133 -1.8490  0.2933  1.6524
  252SOL    HW2 1656   5.795   6.152   1.040 -1.3254  1.2164  0.5324
  253SOL     OW 1657   5.423   5.266   5.860 -0.0200 -0.8304 -0.3481
  253SOL    HW1 1658   5.365   5.304   5.787 -0.5141 -0.1710  0.3766
  253SOL    HW2 1659   5.366   5.213   5.923 -0.7427  3.2066  2.7652
  254SOL     OW 1660   0.752   2.472   6.304  0.1675 -0.0977  0.1510
  254SOL    HW1 1661   0.821   2.415   6.349  0.5458  0.2906  0.0810
  254SOL    HW2 1662   0.736   2.438   6.211  1.7509  0.9554 -0.5615
  255SOL     OW 1663   1.220   6.880   5.582 -0.3364 -0.0074 -0.4739
  255SOL    HW1 1664   1.209   6.926   5.494 -0.1009  1.6548  0.3195
  255SOL    HW2 1665   1.175   6.934   5.653 -0.3465 -1.2153  0.4667
  256SOL     OW 1666   5.240   3.201   6.868  0.1636  0.3003  0.3191
  256SOL    HW1 1667   5.288   3.205   6.780 -0.4317 -2.9043 -0.2497
  256SOL    HW2 1668   5.247   3.290   6.913  1.4385  1.7189 -2.4348
  257SOL     OW 1669   5.712   4.248   2.720  0.0850  0.7787 -0.2686
  257SOL    HW1 1670   5.679   4.339   2.698  0.3901  1.5208  2.1085
  257SOL    HW2 1671   5.803   4.235   2.680  0.1787  1.6547 -0.3615
  258SOL     OW 1672   0.915   1.465   5.036 -0.0582  0.1707 -0.0196
  258SOL    HW1 1673   0.979   1.533   5.073  0.4705  0.8361 -2.0302
  258SOL    HW2 1674   0.821   1.498   5.048  0.1542  0.8859 -0.2529
  259SOL     OW 1675   3.569   2.408   5.346 -0.0303  0.5765  0.1779
  259SOL    HW1 1676   3.617   2.321   5.329  0.7400  0.8151  1.0504
  259SOL    HW2 1677   3.472   2.390   5.359 -0.5874  0.2726 -3.5012
  260SOL     OW 1678   3.534   5.573   3.463  0.2998 -0.5119  0.0824
  260SOL    HW1 1679   3.526   5.521   3.378  0.4352 -1.0063  0.3738
  260SOL    HW2 1680   3.515   5.514   3.541  4.3699 -1.2221  0.7336
  261SOL     OW 1681   3.105   5.545   0.228 -0.5816 -0.1709 -0.2612
  261SOL    HW1 1682   3.026   5.519   0.284 -0.2442  0.8293  0.7210
  261SOL    HW2 1683   3.136   5.636   0.255  0.3284 -0.1616 -1.2908
  262SOL     OW 1684   1.907   2.247   6.814 -0.6501  0.1114  0.6205
  262SOL    HW1 1685   1.859   2.334   6.822 -1.1161 -0.0277 -0.5189
  262SOL    HW2 1686   1.960   2.231   6.897 -1.1443  1.1229  1.1512
  263SOL     OW 1687   2.351   1.986   4.934 -0.6862  0.0015 -0.1613
  263SOL    HW1 1688   2.423   1.965   5.000  1.2884  1.1703 -1.8402
  263SOL    HW2 1689   2.273   1.925   4.951  0.5860 -1.2282  1.8119
  264SOL     OW 1690   5.560   3.130   5.980 -0.4228  0.0414 -0.3518
  264SOL    HW1 1691   5.660   3.123   5.970 -0.4278  0.1696 -0.4924
  264SOL    HW2 1692   5.536   3.224   6.004 -0.6180  0.3363 -1.6285
  265SOL     OW 1693   1.473   6.092   0.083  0.2441  0.4295 -0.0078
  265SOL    HW1 1694   1.514   6.122   0.169  1.8229  1.1527 -0.9702
  265SOL    HW2 1695   1.374   6.091   0.093  0.3893  0.3076  1.8721
  266SOL     OW 1696   2.530   0.790   1.233  0.2205 -0.3123 -0.2101
  266SOL    HW1 1697   2.569   0.813   1.144  1.6603 -0.3253  0.3930
  266SOL    HW2 1698   2.433   0.770   1.222  0.5944 -1.4142 -1.9538
  267SOL     OW 1699   1.424   6.458   0.667 -0.0282  0.6831  0.0036
  267SOL    HW1 1700   1.424   6.511   0.751 -0.0157  2.2730 -0.9589
  267SOL    HW2 1701   1.376   6.509   0.595  0.6019 -0.2933 -1.1439
  268SOL     OW 1702   4.566   4.410   0.775 -0.0067  0.2075 -0.4486
  268SOL    HW1 1703   4.599   4.330   0.724 -0.5739 -0.3234 -0.0029
  268SOL    HW2 1704   4.572   4.392   0.873 -0.4075  0.6028 -0.3489
  269SOL     OW 1705   6.874   2.852   6.870 -0.5477  0.2230  0.0816
  269SOL    HW1 1706   6.969   2.873   6.845 -1.2126  2.4796 -0.7666
  269SOL    HW2 1707   6.864   2.753   6.879  1.9527 -0.0784  0.5470
  270SOL     OW 1708   6.475   1.183   0.305  0.2694 -0.5169  0.2013
  270SOL    HW1 1709   6.375   1.187   0.297  0.0722 -1.1708  1.8637
  270SOL    HW2 1710   6.507   1.091   0.284  0.6752 -0.0056 -1.5090
  271SOL     OW 1711   1.437   6.057   5.884  0.6705  0.4749 -0.1464
  271SOL    HW1 1712   1.455   5.987   5.952  0.1664 -1.0490 -1.5036
  271SOL    HW2 1713   1.340   6.082   5.887  0.4259 -0.3054 -0.8872
  272SOL     OW 1714   2.620   5.148   2.679  0.0189 -0.1052  0.1811
  272SOL    HW1 1715   2.635   5.075   2.612 -1.0386  0.7588 -1.0494
  272SOL    HW2 1716   2.523   5.153   2.702  0.0017  1.1408 -0.0583
  273SOL     OW 1717   1.640   5.247   5.139 -0.3273  0.9331  0.7317
  273SOL    HW1 1718   1.651   5.169   5.200 -0.0086  0.8408  0.5587
  273SOL    HW2 1719   1.613   5.215   5.048  1.5405  0.8474  0.1474
  274SOL     OW 1720   5.903   6.261   3.925  0.1887  0.3068 -1.0056
  274SOL    HW1 1721   5.919   6.293   3.831  0.3252  1.2638 -0.6764
  274SOL    HW2 1722   5.806   6.269   3.947  0.2897  0.9389 -0.7743
  275SOL     OW 1723   6.697   0.027   3.340  0.5668  0.4397 -0.3015
  275SOL    HW1 1724   6.780   0.008   3.392  0.3344  0.7743  0.1989
  275SOL    HW2 1725   6.642   0.095   3.389 -0.7015 -0.8328  0.0971
  276SOL     OW 1726   0.677   1.190   4.123  0.3773 -0.5003  0.7162
  276SOL    HW1 1727   0.590   1.225   4.160  0.5854 -0.6689  1.3896
  276SOL    HW2 1728   0.743   1.264   4.117  0.3191 -0.4569  0.6058
  277SOL     OW 1729   2.063   5.381   1.373  0.3206  0.4466  0.4369
  277SOL    HW1 1730   2.148   5.381   1.425  0.8776  2.0671 -0.4062
  277SOL    HW2 1731   2.068   5.449   1.300 -1.2816 -0.2081 -0.3482
  278SOL     OW 1732   1.142   2.294   3.511  0.0968 -0.1596  0.2998
  278SOL    HW1 1733   1.163   2.237   3.590 -0.2241 -1.5100 -0.5504
  278SOL    HW2 1734   1.044   2.286   3.489 -0.0014  0.8935  0.2750
  279SOL     OW 1735   6.355   0.543   1.706 -0.3580  0.5902 -0.1338
  279SOL    HW1 1736   6.288   0.609   1.740 -0.7874  1.0407 -1.7870
  279SOL    HW2 1737   6.374   0.561   1.609 -0.3301 -1.5774 -0.5813
  280SOL     OW 1738   0.666   6.748   2.204 -0.5791 -0.0033  0.0774
  280SOL    HW1 1739   0.717   6.669   2.169 -1.5448 -0.5135 -0.2218
  280SOL    HW2 1740   0.717   6.831   2.185 -0.5506 -0.3567 -1.6036
  281SOL     OW 1741   2.879   4.908   2.419 -0.0142 -0.1232  0.4698
  281SOL    HW1 1742   2.796   4.904   2.476 -1.2343 -2.6133 -1.2626
  281SOL    HW2 1743   2.861   4.861   2.332  3.0552 -0.1860 -0.2232
  282SOL     OW 1744   1.004   2.355   5.171  0.0559  0.4896 -0.4180
  282SOL    HW1 1745   1.063   2.304   5.110 -0.5064 -0.3138 -0.3011
  282SOL    HW2 1746   1.046   2.444   5.191 -0.0272  1.0383 -2.4396
  283SOL     OW 1747   1.583   3.212   6.333  0.0239  0.4025  0.3273
  283SOL    HW1 1748   1.613   3.300   6.370  0.8366  0.0546  0.5295
  283SOL    HW2 1749   1.643   3.187   6.256 -0.6972  0.3980 -0.2438
  284SOL     OW 1750   0.936   4.205   3.865 -0.0285  1.2199 -0.0293
  284SOL    HW1 1751   0.891   4.127   3.909  2.7541  0.5088  1.8049
  284SOL    HW2 1752   0.947   4.278   3.932  0.7669  1.6810 -0.6492
  285SOL     OW 1753   6.307   3.860   3.104  0.2109  0.0035  0.0414
  285SOL    HW1 1754   6.213   3.876   3.133 -0.2081 -0.2132 -1.1387
  285SOL    HW2 1755   6.326   3.762   3.102  0.3895  0.0366  0.0812
  286SOL     OW 1756   2.978   4.190   1.160 -0.2265  0.1728 -0.3847
  286SOL    HW1 1757   2.891   4.159   1.123 -1.4137  0.4057  2.0584
  286SOL    HW2 1758   3.006   4.275   1.115  0.2463 -1.3180 -3.1741
  287SOL     OW 1759   6.609   2.704   2.531  0.4653 -0.0519  0.3179
  287SOL    HW1 1760   6.630   2.687   2.627  0.4373  0.9139  0.5091
  287SOL    HW2 1761   6.548   2.783   2.523  1.5249  0.7210 -0.5503
  288SOL     OW 1762   6.677   2.134   3.387 -0.1206 -0.3740 -0.1338
  288SOL    HW1 1763   6.596   2.100   3.435 -0.4436 -0.5636 -0.8023
  288SOL    HW2 1764   6.674   2.234   3.385  0.4702 -0.3134  1.2140
  289SOL     OW 1765   2.377   6.552   4.753  0.2178  0.6823  0.5502
  289SOL    HW1 1766   2.411   6.519   4.841  1.1130  1.2168  0.4204
  289SOL    HW2 1767   2.402   6.487   4.681  0.9586  1.0562  0.4607
  290SOL     OW 1768   6.379   0.655   6.048 -0.2525 -0.5012 -0.2254
  290SOL    HW1 1769   6.315   0.687   5.979  0.1658  0.4969 -0.1653
  290SOL    HW2 1770   6.433   0.732   6.083 -1.4397 -0.6998  2.2711
  291SOL     OW 1771   0.882   1.380   2.184  0.1193  0.3741  0.1513
  291SOL    HW1 1772   0.850   1.466   2.223 -1.3050 -0.2085  0.3489
  291SOL    HW2 1773   0.858   1.305   2.245 -0.9094 -0.4054 -1.1377
  292SOL     OW 1774   4.331   6.234   3.116 -0.1088 -0.0775 -0.3157
  292SOL    HW1 1775   4.267   6.183   3.058  0.1635 -1.2500  0.3982
  292SOL    HW2 1776   4.281   6.307   3.163 -0.4253  0.6012 -1.6438
  293SOL     OW 1777   5.572   5.131   3.280  0.8785 -0.3794 -0.2073
  293SOL    HW1 1778   5.607   5.209   3.228  1.3574  0.2437  1.0111
  293SOL    HW2 1779   5.515   5.164   3.355  0.1523 -1.2658 -0.3526
  294SOL     OW 1780   3.903   6.843   1.533  0.2810  0.3489 -0.1338
  294SOL    HW1 1781   3.819   6.837   1.479  0.2801  0.4528 -0.1423
  294SOL    HW2 1782   3.881   6.864   1.628  0.2797  0.1196 -0.0830
  295SOL     OW 1783   5.648   1.212   3.585  0.5963  0.1418  0.1146
  295SOL    HW1 1784   5.634   1.121   3.624  2.3326 -0.4726 -0.6147
  295SOL    HW2 1785   5.621   1.211   3.488  1.5983  0.0983 -0.1733
  296SOL     OW 1786   1.754   1.241   0.789 -0.7917  0.3063 -0.1077
  296SOL    HW1 1787   1.746   1.337   0.759  0.3280 -0.2966 -2.6702
  296SOL    HW2 1788   1.851   1.217   0.796 -1.0622 -0.6484  0.5499
  297SOL     OW 1789   6.652   4.661   2.024 -0.2114  0.1985  0.0711
  297SOL    HW1 1790   6.680   4.682   2.118 -0.0641 -0.0669  0.0859
  297SOL    HW2 1791   6.693   4.575   1.995 -1.1309 -0.2776  0.1441
  298SOL     OW 1792   5.020   5.218   0.386 -0.0486 -0.0453 -0.1716
  298SOL    HW1 1793   5.114   5.240   0.411 -0.6304  0.2386  1.9547
  298SOL    HW2 1794   5.017   5.186   0.291  2.1219  0.2361 -0.3796
  299SOL     OW 1795   3.675   2.101   2.970 -0.1033  0.6677  0.0639
  299SOL    HW1 1796   3.620   2.185   2.972 -0.5807  0.3648 -0.0571
  299SOL    HW2 1797   3.618   2.023   2.998 -0.2973  0.0438 -1.8957
  300SOL     OW 1798   5.944   5.646   2.400  0.6628  0.0746 -0.0346
  300SOL    HW1 1799   6.006   5.670   2.474 -2.8772  0.0360  3.2337
  300SOL    HW2 1800   5.921   5.549   2.406 -0.6497  0.3512 -0.3707
  301SOL     OW 1801   5.306   2.755   5.616 -0.2362 -0.5438  0.1904
  301SOL    HW1 1802   5.212   2.751   5.581 -0.4928 -0.0528  0.7985
  301SOL    HW2 1803   5.310   2.820   5.692  0.5102 -0.8779  0.4426
  302SOL     OW 1804   0.354   6.054   2.244 -0.9512  0.9175  0.2212
  302SOL    HW1 1805   0.289   6.010   2.182  1.5137 -0.5317 -1.5323
  302SOL    HW2 1806   0.366   6.149   2.217 -0.8642  0.6472 -0.7502
  303SOL     OW 1807   5.729   0.326   2.816 -0.0773  0.1165 -0.0894
  303SOL    HW1 1808   5.692   0.418   2.829 -0.2887  0.0504 -0.2241
  303SOL    HW2 1809   5.810   0.331   2.757  1.5673  0.5680  2.0684
  304SOL     OW 1810   4.366   0.705   5.962  0.1052 -0.0112 -0.4467
  304SOL    HW1 1811   4.398   0.764   6.036  0.8119  0.1196 -0.8449
  304SOL    HW2 1812   4.318   0.760   5.893 -0.9590 -0.1991  0.1234
  305SOL     OW 1813   1.724   5.217   0.031  0.3785  0.0270  0.4966
  305SOL    HW1 1814   1.750   5.313   0.039 -0.4831  0.2879  0.2681
  305SOL    HW2 1815   1.653   5.207  -0.039  1.3181 -0.9431 -0.3533
  306SOL     OW 1816   2.782   6.545   2.983 -0.0639 -0.6759  0.4518
  306SOL    HW1 1817   2.876   6.564   2.955 -0.3712 -0.5478 -0.5332
  306SOL    HW2 1818   2.726   6.627   2.968 -0.8981 -1.5542 -1.5495
  307SOL     OW 1819   2.523   0.605   6.035 -0.0420  0.0831 -0.6192
  307SOL    HW1 1820   2.513   0.684   6.096  1.4390  0.6270 -1.0486
  307SOL    HW2 1821   2.446   0.603   5.971 -0.6554  0.5473  0.0746
  308SOL     OW 1822   6.867   5.799   6.009  0.3523 -0.7176 -0.5512
  308SOL    HW1 1823   6.943   5.737   5.993  2.4266  1.8044 -1.1527
  308SOL    HW2 1824   6.804   5.795   5.931  0.9806 -1.3432 -1.0415
  309SOL     OW 1825   3.922   5.779   4.085 -0.0044  0.0674 -0.0087
  309SOL    HW1 1826   3.941   5.683   4.065  1.8232  0.3358  0.3365
  309SOL    HW2 1827   3.956   5.836   4.010 -0.9602  0.4731 -0.1478
  310SOL     OW 1828   0.901   5.992   6.183 -0.8492 -0.1755 -0.2707
  310SOL    HW1 1829   0.928   6.087   6.199 -1.8979 -0.2596  2.7128
  310SOL    HW2 1830   0.934   5.962   6.094 -0.0373  2.7989 -1.0712
  311SOL     OW 1831   6.607   6.680   1.535 -0.0875  0.2924  0.0696
  311SOL    HW1 1832   6.664   6.598   1.542  0.2882  0.6295  0.9768
  311SOL    HW2 1833   6.656   6.750   1.482 -0.9567 -0.5149 -1.9321
  312SOL     OW 1834   3.612   0.683   6.936  0.5372  0.0612  0.0911
  312SOL    HW1 1835   3.644   0.589   6.948 -0.9201 -0.6088 -0.9424
  312SOL    HW2 1836   3.550   0.687   6.858 -0.3763  1.6523  0.8517
  313SOL     OW 1837   4.631   4.559   1.532  0.1850 -0.2144 -0.1150
  313SOL    HW1 1838   4.729   4.536   1.529  0.1583 -0.5070  0.7851
  313SOL    HW2 1839   4.606   4.583   1.626 -0.1157  2.1571 -0.7504
  314SOL     OW 1840   3.234   4.565   1.364 -0.1112 -0.0245  0.7480
  314SOL    HW1 1841   3.140   4.535   1.352  0.4360 -1.3311 -0.6805
  314SOL    HW2 1842   3.292   4.485   1.382  1.8716 -0.7045 -5.9140
  315SOL     OW 1843   1.710   5.651   4.006  0.0025 -0.0711  0.2775
  315SOL    HW1 1844   1.730   5.749   4.009 -1.7601  0.3010  0.7609
  315SOL    HW2 1845   1.641   5.633   3.935 -0.2235 -0.8615  0.6870
  316SOL     OW 1846   1.813   4.718   4.038 -0.4869  0.6499 -0.2426
  316SOL    HW1 1847   1.755   4.747   4.114 -0.7547  0.1581 -0.2582
  316SOL    HW2 1848   1.848   4.627   4.056  0.7129  1.1429  0.0118
  317SOL     OW 1849   0.536   0.166   1.498  0.3134 -0.0042  0.3411
  317SOL    HW1 1850   0.523   0.129   1.590  0.5315 -0.6882  0.1034
  317SOL    HW2 1851   0.616   0.226   1.498  0.7282 -0.5533  0.4400
  318SOL     OW 1852   3.015   4.748   1.783  0.6464 -0.2036 -0.6106
  318SOL    HW1 1853   3.108   4.715   1.770 -0.1662 -1.4874 -4.5396
  318SOL    HW2 1854   2.960   4.676   1.827  1.8439  1.5664  4.5818
  319SOL     OW 1855   0.014   2.439   4.822 -0.2353 -0.1186 -0.4416
  319SOL    HW1 1856   0.107   2.412   4.794 -0.8639 -1.6559 -1.1831
  319SOL    HW2 1857  -0.037   2.470   4.741 -0.4070  0.6176 -0.0559
  320SOL     OW 1858   6.000   3.758   2.762 -0.3187 -0.0049 -0.3168
  320SOL    HW1 1859   6.087   3.716   2.786 -0.9581 -0.5048  1.3086
  320SOL    HW2 1860   5.986   3.840   2.817 -0.6704  0.3323 -0.9004
  321SOL     OW 1861   1.793   0.685   2.375 -0.5293 -0.1781  0.2095
  321SOL    HW1 1862   1.757   0.769   2.416 -0.2575 -0.9722  2.1676
  321SOL    HW2 1863   1.874   0.655   2.426  0.1495 -0.9467 -1.2628
  322SOL     OW 1864   5.077   3.029   5.826  0.4587  0.2471  0.5958
  322SOL    HW1 1865   4.979   3.039   5.843  0.1483 -1.5306  0.1331
  322SOL    HW2 1866   5.101   2.932   5.829  2.0317  0.5740 -0.2368
  323SOL     OW 1867   1.836   4.333   0.999 -0.3975  0.3398 -0.2661
  323SOL    HW1 1868   1.892   4.415   1.004 -0.1754  0.1832 -0.1905
  323SOL    HW2 1869   1.889   4.258   0.960  0.1657 -0.4125  1.8005
  324SOL     OW 1870   0.397   1.738   2.297 -0.3716  0.3325 -0.0566
  324SOL    HW1 1871   0.368   1.826   2.259 -2.0743 -0.1008  0.1596
  324SOL    HW2 1872   0.463   1.753   2.370 -1.4877  1.5166  0.7506
  325SOL     OW 1873   4.056   6.184   1.276 -0.5256  0.1198  0.3366
  325SOL    HW1 1874   4.041   6.270   1.228 -3.4172 -0.4942 -0.0094
  325SOL    HW2 1875   4.149   6.182   1.313  0.0519  2.7795 -0.8007
  326SOL     OW 1876   1.562   3.893   4.395  0.1385 -0.0252  0.0780
  326SOL    HW1 1877   1.635   3.935   4.448  1.0679 -1.2519 -0.2005
  326SOL    HW2 1878   1.560   3.934   4.304  0.7900 -0.2903 -0.0638
  327SOL     OW 1879   5.932   4.350   5.664  0.3310 -0.2813  0.4375
  327SOL    HW1 1880   5.956   4.345   5.567  2.0142  2.7072  0.5796
  327SOL    HW2 1881   5.840   4.313   5.677 -0.3941  0.1779 -2.4836
  328SOL     OW 1882   2.306   5.852   3.840 -0.5075 -0.2252  0.3797
  328SOL    HW1 1883   2.315   5.876   3.937  0.7266 -1.5019  0.6089
  328SOL    HW2 1884   2.235   5.784   3.829  0.2790 -1.1067  0.6033
  329SOL     OW 1885   3.767   3.982   2.569  0.0692 -0.0033 -0.2984
  329SOL    HW1 1886   3.736   3.991   2.663  0.4446 -1.6255  0.0113
  329SOL    HW2 1887   3.855   3.934   2.567 -0.6324 -1.2990 -1.5555
  330SOL     OW 1888   2.442   1.525   0.966  0.2784 -0.0615  0.1674
  330SOL    HW1 1889   2.395   1.597   1.017  1.2528  0.3394  0.5468
  330SOL    HW2 1890   2.418   1.531   0.870  0.6043  1.0217  0.1316
  331SOL     OW 1891   6.839   4.179   5.892  0.5162 -0.4890  0.0616
  331SOL    HW1 1892   6.747   4.203   5.923  0.2639 -0.8501 -0.3994
  331SOL    HW2 1893   6.895   4.262   5.886  0.7726 -0.4584  2.0594
  332SOL     OW 1894   5.213   3.278   3.169 -0.7398 -0.0103 -0.2283
  332SOL    HW1 1895   5.136   3.215   3.161 -0.5321 -0.1652 -1.1429
  332SOL    HW2 1896   5.215   3.338   3.088 -0.8184  1.0430  0.5287
  333SOL     OW 1897   4.306   4.798   6.818  0.6141  0.2914 -0.4231
  333SOL    HW1 1898   4.313   4.850   6.733 -0.7608  0.3762 -0.5116
  333SOL    HW2 1899   4.354   4.711   6.807 -1.2263 -0.6085 -2.0500
  334SOL     OW 1900   6.141   6.950   3.472 -0.2906  0.2381 -0.3425
  334SOL    HW1 1901   6.049   6.930   3.504  0.3876  1.1098  2.4116
  334SOL    HW2 1902   6.140   6.962   3.372 -2.7507 -1.6165 -0.6362
  335SOL     OW 1903   4.420   0.353   1.616  0.2327  0.1915  0.0845
  335SOL    HW1 1904   4.368   0.407   1.682 -0.0588  1.0254 -0.7944
  335SOL    HW2 1905   4.517   0.355   1.639  0.0994  0.2100  0.6569
  336SOL     OW 1906   4.775   6.787   6.908  0.0831 -0.1945 -0.5044
  336SOL    HW1 1907   4.709   6.825   6.843  0.2818  3.7052  1.2742
  336SOL    HW2 1908   4.856   6.756   6.859 -0.2584  1.4927 -2.2392
  337SOL     OW 1909   2.128   3.439   3.040 -0.1279 -0.0714  0.3970
  337SOL    HW1 1910   2.116   3.485   2.952 -1.6396 -1.2962 -0.0677
  337SOL    HW2 1911   2.088   3.495   3.113  0.7033  0.7190  0.2716
  338SOL     OW 1912   1.959   2.429   1.443  0.2500  0.1885  0.2698
  338SOL    HW1 1913   1.888   2.499   1.439  1.5332  1.5581  0.9706
  338SOL    HW2 1914   2.048   2.470   1.422  0.8032 -1.6027 -1.1733
  339SOL     OW 1915   5.164   1.077   2.052 -0.4411  0.1096  0.4081
  339SOL    HW1 1916   5.069   1.047   2.054 -0.9754  1.4907 -1.3437
  339SOL    HW2 1917   5.175   1.156   2.113 -0.2048 -0.5449  1.2290
  340SOL     OW 1918   5.729   2.682   4.294  0.6206  0.5907  0.5295
  340SOL    HW1 1919   5.710   2.676   4.392 -0.5560 -0.1032  0.2750
  340SOL    HW2 1920   5.810   2.628   4.272 -0.6205 -1.4409  0.7407
  341SOL     OW 1921   1.955   4.834   5.871  0.0898 -0.2363 -0.1752
  341SOL    HW1 1922   1.916   4.744   5.853 -0.6680 -0.0194  0.3300
  341SOL    HW2 1923   2.019   4.858   5.798 -1.2471 -0.3181 -1.4308
  342SOL     OW 1924   4.312   4.166   1.570  0.0024 -0.3407 -0.2183
  342SOL    HW1 1925   4.217   4.175   1.599 -0.3106 -2.8316 -0.2810
  342SOL    HW2 1926   4.370   4.151   1.650  0.2955  0.6470 -0.2309
  343SOL     OW 1927   2.406   1.960   2.404 -0.5314 -0.1468 -0.3959
  343SOL    HW1 1928   2.330   1.895   2.410 -0.0653 -0.7263 -0.6512
  343SOL    HW2 1929   2.399   2.026   2.478 -0.5078 -1.0381  0.4210
  344SOL     OW 1930   4.871   6.272   0.791 -0.2211 -0.2802 -0.0768
  344SOL    HW1 1931   4.866   6.371   0.780  1.5069 -0.1388  0.0537
  344SOL    HW2 1932   4.841   6.227   0.707  1.7741  0.4675 -1.2667
  345SOL     OW 1933   1.777   1.226   5.282  0.0479  0.2137 -0.0235
  345SOL    HW1 1934   1.813   1.195   5.194 -1.6585 -0.4274 -0.5434
  345SOL    HW2 1935   1.787   1.325   5.290  1.7442  0.0849 -0.1819
  346SOL     OW 1936   2.790   5.647   3.308  0.4167 -0.0295  0.1823
  346SOL    HW1 1937   2.851   5.678   3.235  1.5791 -1.4548  0.4879
  346SOL    HW2 1938   2.836   5.660   3.396 -1.1580  2.1219  0.7570
  347SOL     OW 1939   4.355   4.639   5.278  0.0832  0.0048 -0.5537
  347SOL    HW1 1940   4.329   4.572   5.348 -0.0600 -1.3508 -1.8679
  347SOL    HW2 1941   4.329   4.606   5.188  1.4646  1.1009 -1.4090
  348SOL     OW 1942   2.642   0.361   3.961 -0.3915  0.2918  0.4549
  348SOL    HW1 1943   2.714   0.303   3.999 -0.2515  0.0130 -0.2192
  348SOL    HW2 1944   2.614   0.429   4.029 -0.2844 -0.3143  1.1200
  349SOL     OW 1945   1.434   6.610   1.552  0.1910  0.1813 -0.2042
  349SOL    HW1 1946   1.406   6.588   1.646  0.3914  0.0231 -0.1804
  349SOL    HW2 1947   1.496   6.539   1.519  0.3820  0.4093 -0.3383
  350SOL     OW 1948   4.841   3.887   2.827  0.6775 -0.2938 -0.0875
  350SOL    HW1 1949   4.924   3.941   2.813  0.4687 -0.0536 -0.4253
  350SOL    HW2 1950   4.818   3.838   2.742 -0.7607  1.3931 -0.7337
  351SOL     OW 1951   4.775   0.516   1.914  0.1097  0.6376  0.5474
  351SOL    HW1 1952   4.681   0.489   1.891  0.0054 -0.1360  1.8096
  351SOL    HW2 1953   4.774   0.604   1.961  0.1544  1.2828 -0.6241
  352SOL     OW 1954   2.072   1.768   6.167  0.3541 -0.0739  0.1516
  352SOL    HW1 1955   2.128   1.820   6.232 -1.2269  3.4798 -1.0592
  352SOL    HW2 1956   1.977   1.766   6.199 -0.1728  0.4815 -1.2750
  353SOL     OW 1957   1.045   6.689   1.928 -0.0418 -0.1717 -0.1246
  353SOL    HW1 1958   1.065   6.738   2.013  0.4727  1.3390 -1.0649
  353SOL    HW2 1959   0.971   6.736   1.879  0.6517 -0.1634 -1.1916
  354SOL     OW 1960   4.788   0.847   1.229  0.4891 -0.2122 -0.2556
  354SOL    HW1 1961   4.780   0.913   1.154 -1.2686 -1.0173 -0.8123
  354SOL    HW2 1962   4.707   0.853   1.287  1.3159 -0.3917  0.9388
  355SOL     OW 1963   0.738   0.713   0.828 -0.0394  0.0247  0.1759
  355SOL    HW1 1964   0.665   0.762   0.780  0.4738  1.0137  0.3697
  355SOL    HW2 1965   0.742   0.744   0.923  0.6931  0.0580  0.1421
  356SOL     OW 1966   2.074   0.287   2.434 -0.3906 -0.3268  0.0702
  356SOL    HW1 1967   1.988   0.240   2.456 -0.1959 -0.3909  0.7235
  356SOL    HW2 1968   2.090   0.359   2.501 -0.4367  0.3541 -0.6444
  357SOL     OW 1969   0.748   4.585   3.736 -0.3117  0.1687 -0.1054
  357SOL    HW1 1970   0.688   4.565   3.814  0.2440  0.0670  0.3034
  357SOL    HW2 1971   0.838   4.544   3.752 -0.5819 -0.9841 -1.4035
  358SOL     OW 1972   4.407   2.048   3.192  0.0992 -0.0302 -0.2534
  358SOL    HW1 1973   4.465   2.016   3.116 -0.1467  1.0690 -0.9244
  358SOL    HW2 1974   4.311   2.029   3.171  0.1633 -2.2741  1.0632
  359SOL     OW 1975   0.712   3.496   0.388  0.1722  0.0740  0.1976
  359SOL    HW1 1976   0.783   3.488   0.319 -0.0722 -1.2506  0.0745
  359SOL    HW2 1977   0.711   3.413   0.445 -1.3896 -0.0260  0.0712
  360SOL     OW 1978   0.089   0.725   6.356 -0.0742 -0.1916 -0.5367
  360SOL    HW1 1979  -0.006   0.735   6.386  0.3519 -1.2917  1.4083
  360SOL    HW2 1980   0.116   0.804   6.302 -1.0083  2.0199  1.9972
  361SOL     OW 1981   1.094   6.795   2.777 -0.2519  0.4925  0.0965
  361SOL    HW1 1982   1.187   6.831   2.778 -0.5792  1.3823 -0.6579
  361SOL    HW2 1983   1.094   6.703   2.816  1.0269  0.2755 -0.3706
  362SOL     OW 1984   3.874   4.052   6.802  0.3843  0.5926  0.3356
  362SOL    HW1 1985   3.938   3.987   6.760  0.2990 -0.5640  1.9077
  362SOL    HW2 1986   3.780   4.024   6.780  0.2969 -0.7022  2.1477
  363SOL     OW 1987   5.120   5.158   3.197  0.3438  0.2597 -1.3824
  363SOL    HW1 1988   5.079   5.152   3.107  0.6719 -0.6162 -1.4812
  363SOL    HW2 1989   5.092   5.244   3.241 -0.6399  0.2158 -1.8985
  364SOL     OW 1990   2.902   3.994   5.579  0.3486 -0.2112  0.6189
  364SOL    HW1 1991   2.881   3.987   5.676 -0.2278 -0.1407  0.5043
  364SOL    HW2 1992   2.986   3.944   5.559  0.4273 -0.2906  1.1374
  365SOL     OW 1993   5.912   5.125   4.019  0.1237 -0.0990 -0.1740
  365SOL    HW1 1994   5.977   5.049   4.008 -0.4258 -0.5055 -0.6943
  365SOL    HW2 1995   5.842   5.119   3.948 -1.1595 -0.3384  1.0691
  366SOL     OW 1996   6.143   3.058   6.947  0.2052  0.2232  0.3470
  366SOL    HW1 1997   6.240   3.051   6.926  0.2110  0.9950  0.1113
  366SOL    HW2 1998   6.108   3.147   6.919  0.0212  1.0089  2.8275
  367SOL     OW 1999   6.366   1.898   3.140 -0.0745  0.0549 -0.2364
  367SOL    HW1 2000   6.352   1.810   3.185 -1.0750 -0.1521 -0.9182
  367SOL    HW2 2001   6.322   1.970   3.193  0.8321  0.1715  0.3755
  368SOL     OW 2002   5.546   4.267   3.628  0.0254  0.2733 -0.1132
  368SOL    HW1 2003   5.453   4.230   3.620 -0.0336 -0.1570  1.8314
  368SOL    HW2 2004   5.591   4.225   3.707  1.6416  0.9807 -0.6211
  369SOL     OW 2005   0.624   5.208   2.174  1.2360  0.0732 -0.3294
  369SOL    HW1 2006   0.594   5.304   2.178  0.9130 -0.0586  0.6478
  369SOL    HW2 2007   0.546   5.149   2.157  1.0096 -0.2134  1.5527
  370SOL     OW 2008   3.241   6.643   2.256 -0.3974 -0.3586 -0.6111
  370SOL    HW1 2009   3.251   6.742   2.261  2.3388 -0.5751 -0.2404
  370SOL    HW2 2010   3.321   6.603   2.211 -0.5905 -2.5148  0.7727
  371SOL     OW 2011   5.504   2.041   0.009  0.1384 -0.5278  0.1462
  371SOL    HW1 2012   5.513   1.956   0.060 -0.1447 -0.4155  0.3840
  371SOL    HW2 2013   5.409   2.055  -0.018 -0.2049  0.6810  1.8110
  372SOL     OW 2014   1.124   1.177   5.841 -0.5777  0.6908 -0.1722
  372SOL    HW1 2015   1.211   1.136   5.815 -0.8283  0.1407 -0.1654
  372SOL    HW2 2016   1.049   1.128   5.796 -0.8786  1.2109 -0.2427
  373SOL     OW 2017   5.782   0.683   5.253  0.4166 -0.0742 -0.0341
  373SOL    HW1 2018   5.700   0.630   5.275 -1.0743  0.8718 -2.8287
  373SOL    HW2 2019   5.758   0.779   5.241  2.0961  0.3534 -0.2393
  374SOL     OW 2020   3.775   0.070   0.878 -0.6432  0.1998 -0.6381
  374SOL    HW1 2021   3.862   0.118   0.882 -0.8659  0.6079 -0.6062
  374SOL    HW2 2022   3.730   0.089   0.791 -1.8919  2.1267  0.3602
  375SOL     OW 2023   5.499   3.202   3.055 -0.2758  0.4321  0.5259
  375SOL    HW1 2024   5.421   3.140   3.046  1.1623 -1.3646 -0.4086
  375SOL    HW2 2025   5.557   3.171   3.131 -0.7143  2.0912  1.5906
  376SOL     OW 2026   6.928   3.358   4.199 -0.2989  0.2213 -0.1736
  376SOL    HW1 2027   6.860   3.350   4.126 -0.6433 -0.4773  0.2139
  376SOL    HW2 2028   6.898   3.306   4.279  1.2307 -1.1004 -0.3945
  377SOL     OW 2029   5.375   0.351   4.681 -0.0812  0.3791  0.6190
  377SOL    HW1 2030   5.309   0.426   4.689  1.5052  2.1364 -1.4999
  377SOL    HW2 2031   5.370   0.311   4.590  1.4688  0.2851  0.5431
  378SOL     OW 2032   0.156   2.335   0.359 -0.4755 -0.3386  0.3257
  378SOL    HW1 2033   0.154   2.245   0.401  0.3228 -0.6140 -0.2024
  378SOL    HW2 2034   0.113   2.402   0.420  1.1359 -0.6136  1.8416
  379SOL     OW 2035   1.636   3.734   1.601  0.1738  0.6527 -0.4032
  379SOL    HW1 2036   1.648   3.639   1.571  1.6901  1.2454 -1.8330
  379SOL    HW2 2037   1.692   3.750   1.682  1.0473  0.6683 -0.9925
  380SOL     OW 2038   6.851   1.206   6.061 -0.0373  0.0777 -0.6280
  380SOL    HW1 2039   6.773   1.242   6.009  1.3785  1.4418 -1.9189
  380SOL    HW2 2040   6.888   1.278   6.119 -0.5580 -0.9677  1.0514
  381SOL     OW 2041   5.736   4.156   6.296 -0.2638 -0.3620  0.0451
  381SOL    HW1 2042   5.666   4.227   6.296  0.5913  0.5023 -0.5284
  381SOL    HW2 2043   5.713   4.086   6.228  0.0045  0.5176 -0.9776
  382SOL     OW 2044   2.526   6.456   0.074 -0.1479  0.4238 -0.1951
  382SOL    HW1 2045   2.566   6.368   0.051  0.7176  0.6214  0.5246
  382SOL    HW2 2046   2.596   6.528   0.070 -0.4958  0.8345  0.6942
  383SOL     OW 2047   6.079   2.834   0.840 -0.4047  0.1238 -0.4473
  383SOL    HW1 2048   6.109   2.927   0.821 -0.5316 -0.0312 -1.4723
  383SOL    HW2 2049   6.066   2.822   0.938 -0.7675  1.3074 -0.3405
  384SOL     OW 2050   0.665   5.643   5.232  0.1008 -0.2842  0.2400
  384SOL    HW1 2051   0.602   5.571   5.206  0.4072 -0.7338  0.7241
  384SOL    HW2 2052   0.695   5.693   5.151 -1.5477  0.5173  0.0685
  385SOL     OW 2053   4.965   2.469   0.595 -0.1429  0.1390  0.6342
  385SOL    HW1 2054   5.040   2.402   0.592 -0.9001 -0.8655  2.6721
  385SOL    HW2 2055   4.923   2.475   0.504  2.5320  0.9791 -0.6924
  386SOL     OW 2056   3.291   6.185   3.426 -0.1061  0.5264 -0.0287
  386SOL    HW1 2057   3.260   6.097   3.462  0.0612  0.7217  0.5937
  386SOL    HW2 2058   3.224   6.255   3.446 -1.1763  0.2188 -2.1794
  387SOL     OW 2059   0.412   0.036   5.997  0.2644  0.0914 -0.0292
  387SOL    HW1 2060   0.373   0.103   6.060 -0.4423  1.1280 -1.5034
  387SOL    HW2 2061   0.505   0.014   6.024  0.1876  0.9774  1.0117
  388SOL     OW 2062   1.667   2.977   5.254  0.9275 -0.1524  0.1033
  388SOL    HW1 2063   1.606   3.041   5.207  0.3527 -1.6077 -1.2430
  388SOL    HW2 2064   1.753   2.970   5.203  0.7330 -0.9110 -0.1384
  389SOL     OW 2065   6.459   2.141   1.737 -0.1141 -0.0871  0.7348
  389SOL    HW1 2066   6.447   2.199   1.818 -1.2245 -0.1475  0.6274
  389SOL    HW2 2067   6.410   2.181   1.660  0.3674 -0.3907  0.2617
  390SOL     OW 2068   4.709   2.357   6.675  0.2579 -0.2019 -0.0636
  390SOL    HW1 2069   4.727   2.383   6.771 -1.8760 -0.8050  0.5485
  390SOL    HW2 2070   4.664   2.433   6.628 -0.5731 -0.6317  0.0213
  391SOL     OW 2071   3.500   4.067   4.027  0.6306 -0.1927  0.2073
  391SOL    HW1 2072   3.522   3.973   4.002 -2.4700 -1.1986  0.7823
  391SOL    HW2 2073   3.483   4.120   3.944 -0.6363 -1.0301 -0.1080
  392SOL     OW 2074   2.559   3.354   0.440 -0.1885 -0.4909  0.4140
  392SOL    HW1 2075   2.526   3.261   0.422 -0.2397  0.0165 -2.6309
  392SOL    HW2 2076   2.494   3.420   0.402  2.3210  0.6165 -2.3350
  393SOL     OW 2077   1.354   0.123   6.966  0.2379 -0.2509  0.1582
  393SOL    HW1 2078   1.329   0.109   6.871  0.2292  2.8809 -0.4275
  393SOL    HW2 2079   1.443   0.169   6.971  0.6359 -1.1226  1.7140
  394SOL     OW 2080   0.493   3.297   0.708 -0.4364 -0.4197  0.0537
  394SOL    HW1 2081   0.547   3.368   0.754  0.6415 -2.3306  1.9046
  394SOL    HW2 2082   0.411   3.279   0.761 -0.5004 -0.8383 -0.1893
  395SOL     OW 2083   6.196   5.374   6.071 -0.0446  0.1320  0.3806
  395SOL    HW1 2084   6.216   5.278   6.090  1.5729  0.2889 -0.3901
  395SOL    HW2 2085   6.153   5.382   5.981 -2.3502 -0.0485  1.3904
  396SOL     OW 2086   0.326   2.762   0.626 -0.3743  0.6721 -0.3502
  396SOL    HW1 2087   0.344   2.835   0.560 -0.9621  2.0884  0.9761
  396SOL    HW2 2088   0.407   2.750   0.684 -0.2209  0.1422 -0.6700
  397SOL     OW 2089   4.807   2.211   3.778  0.0060 -0.3071 -0.2731
  397SOL    HW1 2090   4.778   2.271   3.853 -0.7760  2.4352 -2.5763
  397SOL    HW2 2091   4.727   2.172   3.734 -0.0645  2.4515 -2.9002
  398SOL     OW 2092   6.288   1.341   3.117 -0.0715  0.6451 -0.1575
  398SOL    HW1 2093   6.247   1.367   3.029 -0.2632  0.7981 -0.0228
  398SOL    HW2 2094   6.216   1.315   3.181 -0.1162  2.5419  0.6401
  399SOL     OW 2095   5.875   4.079   4.282 -0.4116  0.0929  0.4197
  399SOL    HW1 2096   5.895   4.049   4.376  0.5726 -1.2501 -0.1770
  399SOL    HW2 2097   5.949   4.049   4.222 -1.3943  0.2760 -0.9156
  400SOL     OW 2098   6.169   5.743   3.937  0.6784 -0.0701  0.3547
  400SOL    HW1 2099   6.106   5.817   3.915  1.2644 -0.1438 -1.8140
  400SOL    HW2 2100   6.205   5.755   4.030 -2.6475 -0.1817  1.7954
  401SOL     OW 2101   1.120   6.197   3.030 -0.0796 -0.0357  0.6681
  401SOL    HW1 2102   1.186   6.181   2.956  1.0056  1.3188  1.2930
  401SOL    HW2 2103   1.037   6.144   3.013  0.9707 -1.3984 -0.3988
  402SOL     OW 2104   0.814   1.363   5.450  0.1705  0.2998  0.0701
  402SOL    HW1 2105   0.860   1.452   5.447 -1.7223  1.3463 -0.3592
  402SOL    HW2 2106   0.812   1.323   5.358  2.1799 -0.8686  0.4930
  403SOL     OW 2107   3.547   1.653   5.894 -0.1320  0.1816 -0.0424
  403SOL    HW1 2108   3.530   1.749   5.873  2.1509  0.5399 -0.5528
  403SOL    HW2 2109   3.596   1.611   5.817 -0.8620 -1.3228  0.2902
  404SOL     OW 2110   3.945   4.888   3.529  0.7167  0.0001  0.3888
  404SOL    HW1 2111   3.887   4.872   3.449  3.5936 -0.7868 -1.7040
  404SOL    HW2 2112   3.898   4.856   3.611 -1.6027 -0.9699 -1.2136
  405SOL     OW 2113   5.480   4.561   3.802 -0.2019 -0.2240 -0.0933
  405SOL    HW1 2114   5.506   4.495   3.872  0.9474  0.2265 -0.0655
  405SOL    HW2 2115   5.558   4.620   3.782 -0.7785  0.2131 -1.1332
  406SOL     OW 2116   0.097   0.824   1.143 -0.5375 -0.3145 -0.3861
  406SOL    HW1 2117   0.083   0.916   1.106 -2.0789 -0.7166 -0.8607
  406SOL    HW2 2118   0.088   0.827   1.243 -1.6947 -0.1329 -0.4911
  407SOL     OW 2119   1.713   3.751   3.049 -0.0097 -0.0247 -0.0686
  407SOL    HW1 2120   1.692   3.823   3.116  1.7928 -0.3812  0.9445
  407SOL    HW2 2121   1.801   3.770   3.007 -0.5773 -0.4613 -1.4942
  408SOL     OW 2122   2.393   0.596   2.733 -0.0950 -0.3252  0.6858
  408SOL    HW1 2123   2.397   0.622   2.636  0.9741 -0.3411  0.7195
  408SOL    HW2 2124   2.478   0.552   2.760 -0.5286 -0.6688  1.5504
  409SOL     OW 2125   6.215   1.870   1.515  0.1991 -0.5106  0.3894
  409SOL    HW1 2126   6.201   1.775   1.485  0.9600 -0.7044  0.6285
  409SOL    HW2 2127   6.282   1.914   1.456 -2.1345  0.7749 -1.4721
  410SOL     OW 2128   1.660   2.556   0.936  0.5186  0.0816  0.1643
  410SOL    HW1 2129   1.570   2.571   0.976 -0.6768  1.8623 -2.9231
  410SOL    HW2 2130   1.658   2.577   0.838  3.5882 -2.6610 -0.6813
  411SOL     OW 2131   6.716   2.371   1.948  0.5412  0.5111 -0.5130
  411SOL    HW1 2132   6.671   2.281   1.949  0.5779  0.4774 -1.4045
  411SOL    HW2 2133   6.669   2.432   2.011 -0.5971  0.3841 -1.2093
  412SOL     OW 2134   1.647   5.587   2.829 -0.7427 -0.1303 -0.1134
  412SOL    HW1 2135   1.655   5.675   2.875  0.7153  1.4278 -3.0857
  412SOL    HW2 2136   1.569   5.589   2.765 -1.1087 -1.2778  0.2560
  413SOL     OW 2137   1.574   4.930   3.517 -0.0027  0.1578  0.2465
  413SOL    HW1 2138   1.629   4.922   3.600 -0.5150  2.5772  0.8920
  413SOL    HW2 2139   1.633   4.954   3.440  0.0028  1.8127  0.7431
  414SOL     OW 2140   2.788   6.638   2.257  0.0589 -0.0321  0.2891
  414SOL    HW1 2141   2.862   6.706   2.256 -0.2250  0.2837  0.3947
  414SOL    HW2 2142   2.755   6.623   2.164  1.0438 -1.0564  0.0825
  415SOL     OW 2143   5.863   2.482   3.353 -0.7213  0.1964 -0.5113
  415SOL    HW1 2144   5.819   2.469   3.441 -0.1250  1.4493 -0.0107
  415SOL    HW2 2145   5.919   2.402   3.331  0.1831  0.4099  0.8833
  416SOL     OW 2146   5.319   4.773   0.839  0.0841 -0.0952  0.3618
  416SOL    HW1 2147   5.408   4.809   0.814  0.0583  0.0555  0.4827
  416SOL    HW2 2148   5.297   4.694   0.782  0.3206 -0.1697  0.3733
  417SOL     OW 2149   3.217   6.785   5.091 -0.1826 -0.5440 -0.0071
  417SOL    HW1 2150   3.314   6.760   5.088 -0.6186 -2.3772 -0.5930
  417SOL    HW2 2151   3.180   6.763   5.181  0.1762  1.3069  0.6408
  418SOL     OW 2152   3.588   4.916   4.422  0.0509  0.7500  0.3365
  418SOL    HW1 2153   3.501   4.882   4.385  0.0683  1.9456 -0.8511
  418SOL    HW2 2154   3.599   5.013   4.400  1.1020  0.9495  1.5970
  419SOL     OW 2155   5.488   6.974   0.899 -0.3459  0.0208 -0.5573
  419SOL    HW1 2156   5.551   6.909   0.942 -0.9873 -0.5358 -0.4363
  419SOL    HW2 2157   5.536   7.060   0.882 -0.2009  0.5279  1.9085
  420SOL     OW 2158   2.463   6.324   6.765  0.5081 -0.6516 -0.3060
  420SOL    HW1 2159   2.511   6.298   6.849  0.1911  0.5044  0.2503
  420SOL    HW2 2160   2.364   6.316   6.781  0.4537 -0.6394 -0.6416
  421SOL     OW 2161   5.947   5.395   2.537 -0.1400 -0.2151  0.2471
  421SOL    HW1 2162   5.880   5.325   2.511 -1.0500  0.9349 -0.5947
  421SOL    HW2 2163   6.032   5.350   2.565  0.1483 -1.6819 -2.5417
  422SOL     OW 2164   4.357   1.070   1.446  0.0073  0.8184 -0.0915
  422SOL    HW1 2165   4.304   1.152   1.466 -0.2896  1.2187 -2.2818
  422SOL    HW2 2166   4.390   1.074   1.352  0.7526 -1.1639  0.0466
  423SOL     OW 2167   2.451   0.691   1.644 -0.1472 -0.2932  0.4866
  423SOL    HW1 2168   2.373   0.753   1.640 -0.6148 -0.8866  0.3160
  423SOL    HW2 2169   2.426   0.603   1.604  1.1341  0.0644 -1.2302
  424SOL     OW 2170   0.979   0.343   2.667 -0.3385  0.0894 -0.0277
  424SOL    HW1 2171   1.010   0.379   2.755  0.1193  0.4185 -0.3128
  424SOL    HW2 2172   0.885   0.311   2.674  0.1735 -1.2943  0.9810
  425SOL     OW 2173   4.366   2.393   0.371  0.1657  0.3194 -0.3216
  425SOL    HW1 2174   4.355   2.296   0.388  0.6546  0.4026  0.4927
  425SOL    HW2 2175   4.416   2.436   0.446 -0.8200  1.3698 -0.2313
  426SOL     OW 2176   3.771   2.104   4.363 -0.4747  0.3115 -0.0345
  426SOL    HW1 2177   3.695   2.047   4.396  1.9633 -1.7039  2.7138
  426SOL    HW2 2178   3.821   2.141   4.442  2.0796  0.5569 -1.6395
  427SOL     OW 2179   4.460   1.524   0.289  0.0255 -0.3831  0.5099
  427SOL    HW1 2180   4.391   1.580   0.245 -1.1803 -1.6138  0.7545
  427SOL    HW2 2181   4.470   1.438   0.239  0.2871 -0.8446  1.3298
  428SOL     OW 2182   2.664   0.845   7.010  0.1460  0.0646  0.0100
  428SOL    HW1 2183   2.674   0.943   7.029 -0.8569  0.2802 -0.5391
  428SOL    HW2 2184   2.735   0.794   7.059  0.6428  1.0602  0.3377
  429SOL     OW 2185   0.192   0.203   4.371 -0.3524  0.4984 -0.0037
  429SOL    HW1 2186   0.246   0.258   4.435  0.7372  0.7271 -1.0773
  429SOL    HW2 2187   0.122   0.153   4.421  1.7253 -0.9446  1.6770
  430SOL     OW 2188   3.407   0.867   5.838 -0.2624  0.2305  0.6316
  430SOL    HW1 2189   3.427   0.964   5.823  1.7979 -0.2203  0.2002
  430SOL    HW2 2190   3.324   0.859   5.893 -1.7380  2.1645 -1.1464
  431SOL     OW 2191   0.494   0.009   1.718 -0.2845  0.0376 -0.3893
  431SOL    HW1 2192   0.476   0.043   1.810 -0.8640 -0.5922 -0.2591
  431SOL    HW2 2193   0.507  -0.090   1.721  4.5752  0.4303 -0.2619
  432SOL     OW 2194   6.280   1.261   2.394 -0.3927 -0.1158 -0.2305
  432SOL    HW1 2195   6.220   1.243   2.316  1.3731  0.5392 -1.8186
  432SOL    HW2 2196   6.350   1.328   2.368  1.1614 -0.9877  1.4488
  433SOL     OW 2197   1.630   2.663   6.715 -0.0483  0.2803  0.4185
  433SOL    HW1 2198   1.591   2.636   6.627  1.4895  0.5236 -0.3738
  433SOL    HW2 2199   1.614   2.760   6.730 -1.1333  0.0401  0.8618
  434SOL     OW 2200   2.846   5.835   2.187 -0.4158  0.3443 -0.2913
  434SOL    HW1 2201   2.923   5.810   2.245  0.3246 -1.2680 -1.8559
  434SOL    HW2 2202   2.869   5.916   2.134  2.3151 -2.6301 -4.2026
  435SOL     OW 2203   2.281   2.125   5.537  0.0032  0.1721 -0.4838
  435SOL    HW1 2204   2.292   2.224   5.544 -0.2916  0.1361  0.8679
  435SOL    HW2 2205   2.262   2.088   5.628 -0.6576 -1.0297 -1.0918
  436SOL     OW 2206   4.129   1.922   1.290  0.0655 -0.0881 -0.1770
  436SOL    HW1 2207   4.154   2.014   1.319  0.4358 -0.4663  0.7319
  436SOL    HW2 2208   4.199   1.886   1.228  0.6292 -0.2812  0.5652
  437SOL     OW 2209   6.468   1.693   5.308 -0.4204 -1.0293 -0.7416
  437SOL    HW1 2210   6.438   1.744   5.227  0.5509  1.7417  0.5115
  437SOL    HW2 2211   6.567   1.697   5.315 -0.5922  0.8617  1.7650
  438SOL     OW 2212   6.959   3.931   2.626 -0.9681  0.2719 -0.7459
  438SOL    HW1 2213   6.937   3.997   2.697 -1.0543 -0.6020  0.0614
  438SOL    HW2 2214   7.055   3.941   2.599 -1.2049  1.2800 -1.2463
  439SOL     OW 2215   0.477   1.062   0.559 -0.6910 -0.4029 -0.1482
  439SOL    HW1 2216   0.469   1.091   0.464 -0.0613  1.4716  0.3279
  439SOL    HW2 2217   0.571   1.075   0.590 -0.9849 -0.5686  0.8507
  440SOL     OW 2218   3.985   2.831   1.206 -0.4700 -0.1735 -0.6087
  440SOL    HW1 2219   3.927   2.855   1.128 -1.0774 -0.6900 -0.3244
  440SOL    HW2 2220   4.012   2.914   1.254 -0.4695  0.1169 -1.0976
  441SOL     OW 2221   0.811   3.781   3.119 -0.0106  1.0250  0.1717
  441SOL    HW1 2222   0.828   3.825   3.030  0.9575  0.1627 -0.0849
  441SOL    HW2 2223   0.718   3.743   3.120 -0.6640  2.5522  0.1938
  442SOL     OW 2224   3.220   3.738   3.768  1.0026 -0.5861  0.5252
  442SOL    HW1 2225   3.315   3.759   3.744  0.8702 -0.1890  0.3478
  442SOL    HW2 2226   3.158   3.788   3.707  0.6771 -0.6344  0.8157
  443SOL     OW 2227   4.412   3.620   1.339 -0.5685 -0.5232  0.3761
  443SOL    HW1 2228   4.360   3.565   1.274 -1.3477  1.9801 -1.2641
  443SOL    HW2 2229   4.377   3.714   1.339  0.4148 -0.0516  3.3425
  444SOL     OW 2230   3.630   0.636   1.983  0.4652  0.0066 -0.7095
  444SOL    HW1 2231   3.552   0.677   1.936  0.6417  0.7433 -0.3710
  444SOL    HW2 2232   3.604   0.610   2.076  0.7768  0.7807 -0.4027
  445SOL     OW 2233   3.581   6.723   4.492  0.2212 -0.2592 -0.3861
  445SOL    HW1 2234   3.494   6.714   4.444  0.1723 -1.0711 -0.1581
  445SOL    HW2 2235   3.564   6.732   4.590  0.3124  1.5254 -0.4894
  446SOL     OW 2236   6.370   0.138   0.040 -0.1385  0.1970  0.0942
  446SOL    HW1 2237   6.428   0.137  -0.042  0.7440 -1.0542  0.7060
  446SOL    HW2 2238   6.426   0.121   0.121 -1.1228  0.6234  0.8894
  447SOL     OW 2239   6.283   4.846   0.213 -0.5119 -0.4041  0.2442
  447SOL    HW1 2240   6.205   4.864   0.272 -0.3121  1.0115  0.1000
  447SOL    HW2 2241   6.257   4.780   0.142 -2.2044  1.4572 -0.9945
  448SOL     OW 2242   1.551   0.086   5.230  0.1405 -0.2897 -0.4277
  448SOL    HW1 2243   1.456   0.055   5.244 -0.1852  0.8907  0.0553
  448SOL    HW2 2244   1.590   0.114   5.317  1.2536 -1.5611 -0.4794
  449SOL     OW 2245   0.946   3.533   5.574 -0.2602  0.5929 -0.3779
  449SOL    HW1 2246   0.901   3.471   5.510 -1.2321  1.5102 -0.5973
  449SOL    HW2 2247   0.895   3.536   5.660  0.4928  0.1297  0.1048
  450SOL     OW 2248   6.693   2.404   5.375 -0.1865  0.2525  0.0652
  450SOL    HW1 2249   6.774   2.361   5.336 -0.8304 -0.6906 -0.2734
  450SOL    HW2 2250   6.641   2.336   5.428 -1.6033  0.3886 -1.0821
  451SOL     OW 2251   1.656   0.822   5.810  0.3167 -0.3255 -0.1016
  451SOL    HW1 2252   1.662   0.739   5.866 -2.6518 -0.1462  0.6810
  451SOL    HW2 2253   1.730   0.885   5.834 -0.1347 -0.7668  2.8301
  452SOL     OW 2254   2.955   5.225   1.104 -0.2682 -0.8051  0.4987
  452SOL    HW1 2255   3.030   5.245   1.167  0.6030  0.3461 -0.8524
  452SOL    HW2 2256   2.987   5.160   1.034 -0.0972  0.6653 -0.8371
  453SOL     OW 2257   4.935   0.405   1.001  0.1852 -0.3775 -1.0403
  453SOL    HW1 2258   5.027   0.369   1.016  1.2179  2.1698 -0.6654
  453SOL    HW2 2259   4.923   0.489   1.053 -2.4686 -0.7361 -0.9286
  454SOL     OW 2260   1.387   2.357   1.072 -0.2751  0.2943 -0.4863
  454SOL    HW1 2261   1.392   2.450   1.108 -2.1981 -0.0484  0.8152
  454SOL    HW2 2262   1.301   2.344   1.023  0.7812 -0.2959 -2.2729
  455SOL     OW 2263   0.418   5.754   6.946  0.4980 -0.0206  0.3927
  455SOL    HW1 2264   0.423   5.848   6.912  0.5322 -0.4166 -0.7492
  455SOL    HW2 2265   0.502   5.732   6.995  0.8809  0.2546 -0.1335
  456SOL     OW 2266   2.041   7.007   2.678 -0.2112  0.4555  0.2370
  456SOL    HW1 2267   2.067   7.008   2.581 -0.1394 -0.0513  0.2483
  456SOL    HW2 2268   1.951   6.965   2.687  0.1240 -0.2147  0.4710
  457SOL     OW 2269   2.556   3.622   0.153 -0.1306  0.2337 -0.1726
  457SOL    HW1 2270   2.642   3.572   0.158  0.2723  0.8521 -0.7951
  457SOL    HW2 2271   2.481   3.562   0.182  0.5652 -0.1314  0.9288
  458SOL     OW 2272   1.691   1.862   5.045 -0.0945 -0.6039  0.2816
  458SOL    HW1 2273   1.632   1.934   5.008  0.6488  0.7048  1.5595
  458SOL    HW2 2274   1.766   1.845   4.982 -0.8985 -1.1075 -0.5722
  459SOL     OW 2275   3.966   0.940   3.812  0.2615  0.3972 -0.6382
  459SOL    HW1 2276   3.909   1.015   3.777 -0.9228 -0.7825 -1.3350
  459SOL    HW2 2277   3.922   0.899   3.892  1.7066  1.4337  0.7587
  460SOL     OW 2278   2.601   0.555   5.594  0.1678  0.2113  0.3435
  460SOL    HW1 2279   2.618   0.633   5.533 -0.3800  1.1651  1.3773
  460SOL    HW2 2280   2.649   0.570   5.680  0.5230 -0.8895  0.3510
  461SOL     OW 2281   6.101   6.899   5.809 -0.0917 -0.0388 -0.5893
  461SOL    HW1 2282   6.026   6.941   5.860  1.0352 -0.1250  1.2705
  461SOL    HW2 2283   6.163   6.971   5.776 -0.4354 -0.0192 -1.1867
  462SOL     OW 2284   3.446   2.907   4.299  0.0981 -0.2286  0.0646
  462SOL    HW1 2285   3.452   2.976   4.372  1.8884  0.3460 -0.5704
  462SOL    HW2 2286   3.352   2.875   4.292 -0.8466  2.2240  0.3434
  463SOL     OW 2287   6.021   6.602   3.056 -0.2628  0.0550  0.2654
  463SOL    HW1 2288   6.005   6.598   3.154  0.3575 -0.8595  0.3440
  463SOL    HW2 2289   5.940   6.639   3.010 -0.8435 -0.2221  1.0476
  464SOL     OW 2290   4.657   5.665   5.751  0.4817 -0.1739  0.2057
  464SOL    HW1 2291   4.594   5.628   5.683 -0.0148  1.6124 -0.3490
  464SOL    HW2 2292   4.729   5.598   5.770 -0.1905 -1.2657 -0.9914
  465SOL     OW 2293   6.850   6.417   0.537  0.0610 -0.1996 -0.7723
  465SOL    HW1 2294   6.782   6.353   0.575 -0.7712  0.0400 -1.8026
  465SOL    HW2 2295   6.886   6.380   0.452 -0.1179  0.5009 -1.1590
  466SOL     OW 2296   4.983   4.947   4.391  0.6917  0.1333  0.0750
  466SOL    HW1 2297   5.075   4.986   4.395  1.3486 -1.3752  0.2423
  466SOL    HW2 2298   4.985   4.852   4.423 -0.4786 -0.6803 -2.0165
  467SOL     OW 2299   6.586   1.390   1.637  0.1050  0.0201  0.6480
  467SOL    HW1 2300   6.673   1.437   1.625 -0.4492  1.7157  2.7723
  467SOL    HW2 2301   6.515   1.456   1.660 -1.5068 -1.4756  0.1915
  468SOL     OW 2302   1.918   1.035   4.520  0.0662  0.3533  0.1060
  468SOL    HW1 2303   1.957   0.990   4.439  1.4697  0.3014  0.7906
  468SOL    HW2 2304   1.870   1.118   4.491  1.0773  0.6721 -0.7320
  469SOL     OW 2305   5.537   5.378   5.058  0.4583  0.2658  0.1603
  469SOL    HW1 2306   5.540   5.475   5.082  0.6623  0.3068 -0.0272
  469SOL    HW2 2307   5.454   5.337   5.095 -0.2474  0.7886 -0.8031
  470SOL     OW 2308   3.688   5.075   1.076  0.3667 -0.0925  0.4582
  470SOL    HW1 2309   3.609   5.033   1.121 -0.1538  0.1648 -0.1932
  470SOL    HW2 2310   3.754   5.105   1.145  0.2114 -0.9182  0.9788
  471SOL     OW 2311   2.591   2.504   4.684  0.1575  0.2586 -0.0574
  471SOL    HW1 2312   2.635   2.585   4.722  2.1607 -0.3990 -0.8803
  471SOL    HW2 2313   2.575   2.437   4.756  0.2284  0.6120  0.2893
  472SOL     OW 2314   2.956   2.814   6.032 -0.1472  0.0513  0.2160
  472SOL    HW1 2315   2.890   2.742   6.011 -0.2717  0.0782  0.4957
  472SOL    HW2 2316   2.976   2.867   5.950 -0.3035 -0.1004  0.0806
  473SOL     OW 2317   5.958   4.279   0.298  0.2421 -0.1452 -0.0590
  473SOL    HW1 2318   5.912   4.357   0.341 -0.0248 -0.8992  1.0490
  473SOL    HW2 2319   6.055   4.301   0.287 -0.2018  1.2290 -1.8970
  474SOL     OW 2320   4.563   4.929   4.117 -0.0424 -0.5251  0.1111
  474SOL    HW1 2321   4.539   5.019   4.080  1.7502  0.1771  0.5322
  474SOL    HW2 2322   4.549   4.859   4.047 -0.7752  0.1687 -0.4612
  475SOL     OW 2323   4.563   3.288   1.334  0.7703  0.1337 -0.1225
  475SOL    HW1 2324   4.507   3.354   1.284  0.5555 -1.3160 -1.8929
  475SOL    HW2 2325   4.659   3.298   1.309  0.5026 -1.5437 -2.0750
  476SOL     OW 2326   2.031   2.960   6.945  0.1816 -0.0951 -0.5037
  476SOL    HW1 2327   1.994   3.016   7.018 -0.3289  1.1163 -1.6541
  476SOL    HW2 2328   2.078   2.881   6.984  0.2031  0.6866  1.1286
  477SOL     OW 2329   6.459   6.426   4.291 -0.4451 -0.4546 -0.0788
  477SOL    HW1 2330   6.386   6.383   4.344 -1.4864  0.6289 -0.6134
  477SOL    HW2 2331   6.426   6.510   4.249  1.1671  0.1777 -0.1719
  478SOL     OW 2332   0.445   5.580   0.792  0.2693  0.5593  0.4479
  478SOL    HW1 2333   0.390   5.663   0.782 -2.8825 -0.8768  3.7599
  478SOL    HW2 2334   0.400   5.504   0.745 -0.8321 -0.6801  3.3259
  479SOL     OW 2335   3.126   3.047   3.365  0.2341 -0.2168  0.9052
  479SOL    HW1 2336   3.055   3.106   3.325  0.2484 -0.7889  0.0093
  479SOL    HW2 2337   3.123   3.054   3.464 -1.1903 -0.3463  0.8895
  480SOL     OW 2338   5.671   2.953   1.116  0.3245 -0.0831 -0.1259
  480SOL    HW1 2339   5.600   2.937   1.048  0.7796 -1.3687 -0.3142
  480SOL    HW2 2340   5.636   2.932   1.207 -0.3930  1.9561  0.1343
  481SOL     OW 2341   6.942   6.651   1.584  0.0030 -0.5062  0.5900
  481SOL    HW1 2342   7.034   6.626   1.614 -0.0400  0.0717  1.2497
  481SOL    HW2 2343   6.941   6.746   1.554 -0.5781 -0.1848  1.5669
  482SOL     OW 2344   4.405   5.876   3.899 -0.3795 -0.0310 -0.1173
  482SOL    HW1 2345   4.484   5.916   3.947  1.3256 -1.1528 -1.8355
  482SOL    HW2 2346   4.361   5.946   3.844 -0.8636  0.6927  1.1378
  483SOL     OW 2347   6.831   1.724   5.302 -0.4508 -0.0136 -0.0207
  483SOL    HW1 2348   6.878   1.644   5.264  1.8468  0.7127  1.1167
  483SOL    HW2 2349   6.822   1.715   5.401 -0.7968  0.8163  0.0376
  484SOL     OW 2350   2.901   5.149   6.479  0.2970  0.5358 -0.1989
  484SOL    HW1 2351   2.991   5.106   6.492 -0.9503 -1.7580  1.6405
  484SOL    HW2 2352   2.854   5.104   6.403 -0.1977  0.0918  0.3662
  485SOL     OW 2353   5.481   3.240   1.238  0.7471  0.3906 -0.6066
  485SOL    HW1 2354   5.526   3.247   1.327 -0.1903 -1.2031  0.0377
  485SOL    HW2 2355   5.409   3.308   1.231  0.2349 -0.0457  0.2384
  486SOL     OW 2356   5.988   0.883   5.576 -0.1141 -0.0026  0.4066
  486SOL    HW1 2357   6.006   0.791   5.541  0.7176  0.1884  0.3155
  486SOL    HW2 2358   6.000   0.884   5.676  2.2313  0.5271  0.1615
  487SOL     OW 2359   4.798   1.696   1.967 -0.4233  0.2185  0.7612
  487SOL    HW1 2360   4.804   1.791   1.997 -2.0766  0.1926  1.2715
  487SOL    HW2 2361   4.707   1.659   1.990  0.1291 -1.4330  0.4286
  488SOL     OW 2362   1.480   1.200   4.669  0.1302  0.0197 -0.2539
  488SOL    HW1 2363   1.568   1.207   4.716 -0.2903  2.1598  0.2959
  488SOL    HW2 2364   1.420   1.138   4.721  0.5894  0.2209  0.5329
  489SOL     OW 2365   2.358   2.868   6.777 -0.2118  0.0485 -0.0679
  489SOL    HW1 2366   2.352   2.784   6.832  0.1814  1.0624  1.5927
  489SOL    HW2 2367   2.385   2.944   6.836  0.0722  1.2296 -1.6714
  490SOL     OW 2368   0.978   4.451   4.279 -1.1214 -0.7094 -0.2005
  490SOL    HW1 2369   0.951   4.391   4.354 -0.7779 -2.0452 -1.1057
  490SOL    HW2 2370   1.069   4.488   4.298 -1.1527 -0.8080  0.1624
  491SOL     OW 2371   0.778   4.424   0.873 -0.1834  0.3374 -0.1232
  491SOL    HW1 2372   0.854   4.395   0.815  0.6687  1.2857  0.4828
  491SOL    HW2 2373   0.803   4.509   0.920 -1.7497  0.8517 -0.1638
  492SOL     OW 2374   2.992   1.899   5.752 -0.2725 -0.3723 -0.3819
  492SOL    HW1 2375   2.980   1.983   5.699 -1.7326  0.3057  0.9552
  492SOL    HW2 2376   2.921   1.833   5.726 -0.7421 -0.1909  0.4225
  493SOL     OW 2377   1.982   5.824   4.305 -0.2077 -0.6289 -0.5982
  493SOL    HW1 2378   2.045   5.806   4.380 -2.0491 -1.1538  0.8786
  493SOL    HW2 2379   1.940   5.914   4.318 -1.5549 -1.2885 -0.2072
  494SOL     OW 2380   3.386   5.978   0.948  0.0922 -0.1360  0.4273
  494SOL    HW1 2381   3.484   5.982   0.968  0.8206  1.1972 -2.7536
  494SOL    HW2 2382   3.363   5.887   0.912  0.4442 -0.0839  0.0602
  495SOL     OW 2383   5.219   2.159   5.800  0.0343 -0.4241  0.6219
  495SOL    HW1 2384   5.273   2.237   5.831 -0.5395 -0.2349  1.1637
  495SOL    HW2 2385   5.187   2.106   5.879 -0.1653 -0.8113  0.2899
  496SOL     OW 2386   5.313   0.983   1.534 -0.0221 -0.0905 -0.2269
  496SOL    HW1 2387   5.339   0.915   1.465 -0.3057  0.4724 -0.9001
  496SOL    HW2 2388   5.221   1.016   1.514 -0.6065 -0.8123  1.1434
  497SOL     OW 2389   3.768   2.718   0.492 -0.0152  0.4219 -0.8060
  497SOL    HW1 2390   3.694   2.652   0.480 -1.3152  1.7657 -0.3927
  497SOL    HW2 2391   3.824   2.719   0.409 -0.1712 -0.9237 -0.9550
  498SOL     OW 2392   1.428   0.356   0.811 -0.1191  0.0967  0.3220
  498SOL    HW1 2393   1.353   0.315   0.864 -0.6344 -0.2569 -0.6421
  498SOL    HW2 2394   1.414   0.455   0.805 -0.5360  0.0317  0.1319
  499SOL     OW 2395   2.859   6.128   1.000 -0.0007 -0.1391 -0.0366
  499SOL    HW1 2396   2.925   6.182   0.948  1.1168 -2.1831 -0.8558
  499SOL    HW2 2397   2.793   6.189   1.044  2.4274  2.0114  0.8691
  500SOL     OW 2398   6.639   0.869   6.814 -0.7823 -0.1096  0.5747
  500SOL    HW1 2399   6.637   0.778   6.855  1.8875 -0.6895 -0.3851
  500SOL    HW2 2400   6.621   0.863   6.716  1.4266  0.0364  0.1040
  501SOL     OW 2401   1.740   1.379   3.887 -0.1869  0.1047  0.0576
  501SOL    HW1 2402   1.822   1.322   3.882  0.6145  0.8999  2.4910
  501SOL    HW2 2403   1.765   1.470   3.920 -2.1770 -0.1114  2.4852
  502SOL     OW 2404   2.649   2.949   0.348  0.4559 -0.3182  0.2936
  502SOL    HW1 2405   2.747   2.950   0.368  0.9491 -1.4558 -1.7907
  502SOL    HW2 2406   2.607   2.866   0.386 -0.1956  1.0809  2.9141
  503SOL     OW 2407   5.498   5.997   6.730  0.5680  0.6503 -0.4099
  503SOL    HW1 2408   5.584   6.014   6.682  1.2105  0.3344  0.6017
  503SOL    HW2 2409   5.484   5.898   6.739  1.0469  0.6922  1.0420
  504SOL     OW 2410   1.040   0.528   6.961 -0.0140 -0.6673 -0.0544
  504SOL    HW1 2411   1.047   0.575   6.873 -2.6182 -0.2586 -0.1403
  504SOL    HW2 2412   1.053   0.430   6.948  0.6132 -0.5011 -0.7245
  505SOL     OW 2413   1.067   4.969   5.597 -0.2907 -0.3891  0.1569
  505SOL    HW1 2414   1.058   4.884   5.649 -1.3264 -0.0313  0.5939
  505SOL    HW2 2415   1.162   4.983   5.571  0.0493 -1.1653  0.9567
  506SOL     OW 2416   2.317   6.930   0.618 -0.5333 -0.5264  0.3818
  506SOL    HW1 2417   2.227   6.927   0.661 -0.6036  0.4607  0.3392
  506SOL    HW2 2418   2.320   6.865   0.542 -0.8321 -1.3605  1.0662
  507SOL     OW 2419   1.080   2.502   4.842 -0.0806 -0.1261 -0.3174
  507SOL    HW1 2420   1.091   2.406   4.869 -2.1472 -0.6276 -1.0394
  507SOL    HW2 2421   0.995   2.537   4.881  0.5672  1.3819 -0.2126
  508SOL     OW 2422   0.123   6.308   4.522 -0.0288 -0.5486  0.1016
  508SOL    HW1 2423   0.142   6.263   4.610 -0.8800 -1.7982 -0.3236
  508SOL    HW2 2424   0.040   6.363   4.530 -0.2762 -0.9045  0.0060
  509SOL     OW 2425   4.935   1.078   6.920  0.0408  0.1266 -0.3217
  509SOL    HW1 2426   4.885   1.010   6.973  1.5302  0.1434  1.2222
  509SOL    HW2 2427   5.001   1.032   6.860  0.8555  0.1782  0.5186
  510SOL     OW 2428   4.941   4.782   6.707 -0.2915  0.3928  0.5239
  510SOL    HW1 2429   4.914   4.818   6.796 -0.4434 -0.0971  0.6791
  510SOL    HW2 2430   5.004   4.705   6.720  1.0812  1.4149  0.1717
  511SOL     OW 2431   1.347   1.449   0.898  0.4194 -0.4960 -0.0300
  511SOL    HW1 2432   1.261   1.500   0.895  0.7580  0.0532 -0.6419
  511SOL    HW2 2433   1.331   1.354   0.872 -0.1549 -0.6246  0.7589
  512SOL     OW 2434   2.355   2.782   4.259 -0.2040 -0.1049 -0.3212
  512SOL    HW1 2435   2.367   2.802   4.357  2.9288  0.5718 -0.7433
  512SOL    HW2 2436   2.265   2.741   4.245 -0.6435 -0.5519  2.8843
  513SOL     OW 2437   4.499   6.920   1.402  0.9863 -0.0433  0.1095
  513SOL    HW1 2438   4.530   6.832   1.438  1.5569 -0.1925 -0.7132
  513SOL    HW2 2439   4.572   6.960   1.346 -0.5913 -0.8379 -2.6789
  514SOL     OW 2440   4.594   2.261   5.211 -0.3828 -0.3727 -0.2610
  514SOL    HW1 2441   4.502   2.230   5.189 -0.3546 -0.1342 -0.7087
  514SOL    HW2 2442   4.612   2.245   5.309 -0.3791 -1.7436 -0.4687
  515SOL     OW 2443   4.254   0.243   1.258 -0.0929  0.1380  0.3129
  515SOL    HW1 2444   4.350   0.263   1.275 -0.0564  2.4815 -1.9666
  515SOL    HW2 2445   4.198   0.279   1.333  0.5520  2.9522 -0.4542
  516SOL     OW 2446   0.938   4.241   2.914  0.4365  0.5954 -0.0058
  516SOL    HW1 2447   1.016   4.179   2.907  0.6119  0.8792 -0.6364
  516SOL    HW2 2448   0.945   4.293   3.000 -0.4172 -1.1689  1.1961
  517SOL     OW 2449   4.035   5.549   6.355  0.1662 -0.4614 -0.0274
  517SOL    HW1 2450   4.013   5.475   6.292 -2.4639  0.4587 -0.3345
  517SOL    HW2 2451   3.952   5.575   6.405  1.1802  1.7831  0.5931
  518SOL     OW 2452   2.494   1.534   4.417  0.2627  0.1810 -0.2156
  518SOL    HW1 2453   2.536   1.448   4.387 -0.4238 -0.7308  1.3455
  518SOL    HW2 2454   2.530   1.559   4.507 -0.0274  1.1882 -0.3716
  519SOL     OW 2455   1.012   4.961   2.294  0.5073 -0.0140  0.3256
  519SOL    HW1 2456   0.975   5.039   2.243  1.4982 -1.1971 -2.4098
  519SOL    HW2 2457   1.111   4.965   2.295  0.5426 -0.7262  1.0223
  520SOL     OW 2458   3.266   6.427   6.482 -0.2709 -0.2099 -0.4326
  520SOL    HW1 2459   3.182   6.376   6.461 -0.2426 -0.3950 -0.1060
  520SOL    HW2 2460   3.243   6.508   6.535 -0.4999  1.0091 -2.2903
  521SOL     OW 2461   7.001   1.094   4.739 -0.1443  0.1958 -0.1148
  521SOL    HW1 2462   7.013   1.191   4.761  1.3558  0.5287 -2.0851
  521SOL    HW2 2463   7.063   1.069   4.665 -0.2943 -2.3784  0.5447
  522SOL     OW 2464   3.548   6.120   5.378  0.3239 -0.1313 -0.0902
  522SOL    HW1 2465   3.547   6.062   5.296  2.2642  0.0174 -0.2719
  522SOL    HW2 2466   3.556   6.216   5.350 -0.1397  0.0105  0.2589
  523SOL     OW 2467   1.736   6.446   5.633 -0.2965 -0.1847 -0.6910
  523SOL    HW1 2468   1.735   6.370   5.698 -0.2936 -0.4605 -1.0127
  523SOL    HW2 2469   1.685   6.523   5.672 -0.0901 -0.2629 -0.2607
  524SOL     OW 2470   2.943   1.516   0.961 -0.5195  0.6408 -0.5114
  524SOL    HW1 2471   2.874   1.559   1.019 -1.2723 -0.0884 -0.8331
  524SOL    HW2 2472   3.034   1.545   0.990 -0.9348  1.2793  0.2077
  525SOL     OW 2473   0.868   2.098   4.148  0.4264 -0.1490  0.0933
  525SOL    HW1 2474   0.904   2.008   4.121  0.2470 -0.1277 -0.2173
  525SOL    HW2 2475   0.782   2.115   4.101  0.1336 -0.0880  0.6439
  526SOL     OW 2476   4.799   5.963   4.047 -0.4832  0.2343 -0.0117
  526SOL    HW1 2477   4.864   5.936   3.977 -0.9065  0.2526 -0.4193
  526SOL    HW2 2478   4.848   5.990   4.130  0.0185  0.1700 -0.2842
  527SOL     OW 2479   1.174   2.133   0.431  0.2401  0.3847 -0.3615
  527SOL    HW1 2480   1.274   2.146   0.428  0.0136  2.2174 -1.4113
  527SOL    HW2 2481   1.151   2.074   0.509  1.8704  2.8479  2.1888
  528SOL     OW 2482   6.221   1.857   4.445 -0.0521  0.0429 -0.3281
  528SOL    HW1 2483   6.175   1.860   4.534  0.0195 -1.0596 -0.2410
  528SOL    HW2 2484   6.317   1.831   4.459  0.2488  0.9234 -0.6437
  529SOL     OW 2485   2.270   2.501   5.226 -0.4765 -0.5453 -0.2318
  529SOL    HW1 2486   2.231   2.581   5.182 -0.2224 -0.6045 -0.5757
  529SOL    HW2 2487   2.208   2.423   5.214 -0.1913 -0.6779 -0.9136
  530SOL     OW 2488   2.192   6.035   1.055  0.6652 -0.0007  0.7248
  530SOL    HW1 2489   2.143   6.025   0.968  0.7701  0.6714  0.5822
  530SOL    HW2 2490   2.129   6.016   1.131  0.9467 -2.0788  0.4899
  531SOL     OW 2491   5.876   0.510   0.037 -0.2792  0.2365 -0.0735
  531SOL    HW1 2492   5.797   0.473  -0.012 -0.0817 -0.7253  0.3011
  531SOL    HW2 2493   5.955   0.513  -0.025 -0.0816 -0.7863  0.1072
  532SOL     OW 2494   3.310   1.128   6.837  0.2971  0.2050  0.9485
  532SOL    HW1 2495   3.236   1.161   6.778  2.3505  0.2543 -1.7948
  532SOL    HW2 2496   3.355   1.206   6.881  2.0531  0.8275 -1.6980
  533SOL     OW 2497   3.459   6.397   4.874 -0.9167  0.6649 -0.1518
  533SOL    HW1 2498   3.532   6.336   4.844 -0.2073  1.3881  0.0670
  533SOL    HW2 2499   3.372   6.348   4.873 -0.3039 -0.4700  0.4394
  534SOL     OW 2500   2.551   3.673   6.382 -0.1830 -0.5501 -0.3182
  534SOL    HW1 2501   2.501   3.697   6.466  0.0473 -1.9810  0.2491
  534SOL    HW2 2502   2.642   3.714   6.386 -1.0879  1.7133 -1.1658
  535SOL     OW 2503   5.382   3.346   3.608 -0.4332 -0.2014 -0.3346
  535SOL    HW1 2504   5.368   3.370   3.704 -1.1468  0.1837 -0.5265
  535SOL    HW2 2505   5.474   3.310   3.595 -1.1329 -2.6853  0.9898
  536SOL     OW 2506   5.769   3.254   1.105 -0.5552 -0.6622  0.4583
  536SOL    HW1 2507   5.737   3.163   1.132 -1.7062  0.2640  2.4283
  536SOL    HW2 2508   5.695   3.302   1.057 -0.1881 -0.4969  0.0529
  537SOL     OW 2509   3.517   2.654   1.458 -0.1647  0.2778  0.2409
  537SOL    HW1 2510   3.471   2.735   1.422 -0.5640  1.5622  3.3524
  537SOL    HW2 2511   3.614   2.674   1.472  0.1235 -0.4219 -0.6916
  538SOL     OW 2512   6.351   0.393   6.013  0.8862 -0.4709  0.0578
  538SOL    HW1 2513   6.262   0.393   5.968 -0.4214 -0.6374  2.4770
  538SOL    HW2 2514   6.377   0.487   6.034  0.5887 -0.5015  0.5857
  539SOL     OW 2515   2.187   5.576   6.742 -0.3823 -0.0630  0.2459
  539SOL    HW1 2516   2.192   5.480   6.769 -1.5667 -0.0551  0.5334
  539SOL    HW2 2517   2.271   5.622   6.769 -1.0684 -0.2703  3.0890
  540SOL     OW 2518   0.725   1.790   4.165  0.5653  0.4904 -0.1566
  540SOL    HW1 2519   0.700   1.785   4.262 -1.2815  0.9077 -0.5717
  540SOL    HW2 2520   0.822   1.813   4.156  0.4020  2.0297  1.5961
  541SOL     OW 2521   5.877   5.030   1.470  0.4946  0.0049  0.0335
  541SOL    HW1 2522   5.851   4.934   1.480  0.9885 -0.0782  0.5534
  541SOL    HW2 2523   5.805   5.088   1.508 -1.4937  0.0242 -3.3659
  542SOL     OW 2524   3.791   5.229   5.257  0.0481 -0.6951  0.0985
  542SOL    HW1 2525   3.859   5.255   5.189 -0.0220 -0.3840  0.1472
  542SOL    HW2 2526   3.741   5.148   5.224 -0.2430 -0.3258 -0.3969
  543SOL     OW 2527   5.359   1.907   5.941  0.0267 -0.2364 -0.2966
  543SOL    HW1 2528   5.405   1.994   5.958  0.1416 -0.5659  1.2111
  543SOL    HW2 2529   5.390   1.869   5.853 -0.1153  1.2774 -1.0260
  544SOL     OW 2530   1.280   1.818   0.461 -0.6460 -0.0529  0.5693
  544SOL    HW1 2531   1.216   1.856   0.528 -1.0958  0.8716 -0.3512
  544SOL    HW2 2532   1.317   1.732   0.496  0.4666  1.2391  2.7821
  545SOL     OW 2533   6.106   5.528   1.709 -0.3629 -0.0490 -0.3113
  545SOL    HW1 2534   6.105   5.610   1.653 -1.7603  0.9502  1.0758
  545SOL    HW2 2535   6.145   5.549   1.799  0.5271 -1.2602 -0.3887
  546SOL     OW 2536   1.089   6.814   1.229  0.0724  0.0070  0.4361
  546SOL    HW1 2537   1.142   6.748   1.282  0.3265 -0.0796  0.0797
  546SOL    HW2 2538   1.108   6.801   1.132  0.3507  0.7897  0.3774
  547SOL     OW 2539   3.752   6.533   2.746  0.1889  0.3208  0.3418
  547SOL    HW1 2540   3.809   6.480   2.682  0.8519  0.0251  1.1659
  547SOL    HW2 2541   3.680   6.580   2.694 -0.1302 -0.9912 -0.4852
  548SOL     OW 2542   3.685   1.776   2.396  0.2907  0.0719  0.2343
  548SOL    HW1 2543   3.717   1.866   2.367  0.5353  0.3450  1.2965
  548SOL    HW2 2544   3.592   1.784   2.434  0.4926 -0.0321  0.7626
  549SOL     OW 2545   5.418   0.588   2.629 -0.0577  0.1027  0.0743
  549SOL    HW1 2546   5.322   0.589   2.654 -0.0287 -0.8616  0.2580
  549SOL    HW2 2547   5.428   0.608   2.531 -0.5297 -0.8817 -0.1841
  550SOL     OW 2548   6.930   6.635   4.173  0.3677  0.0270  0.1724
  550SOL    HW1 2549   6.968   6.542   4.174  0.9587  0.2636  1.5032
  550SOL    HW2 2550   6.837   6.633   4.210  0.5611  0.0377  0.6605
  551SOL     OW 2551   6.099   1.576   6.953  0.2606  0.0560 -0.3319
  551SOL    HW1 2552   6.111   1.503   6.885 -1.2727  0.7317 -1.3906
  551SOL    HW2 2553   6.079   1.662   6.906  0.0610  0.7396  0.9631
  552SOL     OW 2554   1.541   1.714   4.330  0.0141 -0.8664  0.4490
  552SOL    HW1 2555   1.540   1.737   4.428 -2.1913  0.2569  0.2065
  552SOL    HW2 2556   1.501   1.623   4.318  0.5017 -1.1072  0.5785
  553SOL     OW 2557   5.739   2.275   0.576 -0.1184  0.5140  0.1852
  553SOL    HW1 2558   5.792   2.274   0.491 -1.5873 -0.5303 -0.7672
  553SOL    HW2 2559   5.655   2.328   0.561 -0.2197  0.6277  1.1129
  554SOL     OW 2560   4.734   6.247   0.084 -0.0926 -0.0357 -0.2393
  554SOL    HW1 2561   4.774   6.338   0.072  1.1685 -0.5580 -0.1484
  554SOL    HW2 2562   4.647   6.242   0.035 -0.8668  1.6429  0.8793
  555SOL     OW 2563   3.572   3.794   5.116  0.2929 -0.1168 -0.0376
  555SOL    HW1 2564   3.536   3.823   5.028  0.7434 -1.3677 -0.6496
  555SOL    HW2 2565   3.539   3.857   5.187  0.0764  1.0166 -1.0990
  556SOL     OW 2566   5.348   5.775   2.694 -0.2180 -0.1142 -0.0146
  556SOL    HW1 2567   5.396   5.745   2.612 -1.9877 -1.9677 -0.4466
  556SOL    HW2 2568   5.264   5.822   2.669  0.5420  1.7392  0.7516
  557SOL     OW 2569   1.059   3.585   0.740  0.0228 -0.2040  0.4181
  557SOL    HW1 2570   1.104   3.664   0.783  0.1474  0.0544 -0.1717
  557SOL    HW2 2571   0.999   3.617   0.666  0.0420 -0.6573  0.2038
  558SOL     OW 2572   3.638   2.823   2.090  0.5430 -0.0258 -0.4231
  558SOL    HW1 2573   3.624   2.741   2.145  1.4922  1.2704  1.8979
  558SOL    HW2 2574   3.550   2.864   2.067  0.1342  0.0570  1.2093
  559SOL     OW 2575   5.869   2.322   0.961 -0.5169  0.3169  0.4207
  559SOL    HW1 2576   5.924   2.369   0.892  0.1677  0.8681  1.3266
  559SOL    HW2 2577   5.876   2.223   0.948  1.2024  0.3461  0.8808
  560SOL     OW 2578   1.410   2.121   1.846 -0.3090  0.1045 -0.5445
  560SOL    HW1 2579   1.344   2.197   1.846 -0.0297  0.5589  3.2640
  560SOL    HW2 2580   1.501   2.156   1.871  0.8832 -0.9096 -3.1701
  561SOL     OW 2581   6.613   4.107   3.193 -0.4953 -0.5247 -0.1019
  561SOL    HW1 2582   6.541   4.050   3.233  0.5414 -3.2292 -1.8415
  561SOL    HW2 2583   6.670   4.144   3.265 -1.3639 -1.4723  1.1124
  562SOL     OW 2584   2.766   5.554   2.204 -0.2435 -0.3467 -0.0869
  562SOL    HW1 2585   2.793   5.545   2.108 -0.5176 -0.8572 -0.1200
  562SOL    HW2 2586   2.714   5.473   2.232 -1.3860  0.4253  0.0917
  563SOL     OW 2587   1.299   0.898   2.322 -0.1463 -0.0804 -0.6327
  563SOL    HW1 2588   1.353   0.968   2.369 -1.3540 -0.0887  0.8349
  563SOL    HW2 2589   1.203   0.929   2.316 -0.7341 -1.6694  0.1901
  564SOL     OW 2590   6.143   2.689   0.018 -0.4055 -0.4885  0.0064
  564SOL    HW1 2591   6.222   2.750   0.021 -1.7176  1.2949 -0.3194
  564SOL    HW2 2592   6.169   2.604  -0.029  1.6286 -0.4972  1.0437
  565SOL     OW 2593   3.163   3.335   4.570 -0.5124  0.1581  0.4929
  565SOL    HW1 2594   3.184   3.433   4.571 -0.6314  0.1907  2.2747
  565SOL    HW2 2595   3.074   3.322   4.526  0.5080  0.5676 -1.8884
  566SOL     OW 2596   0.908   2.324   3.088 -0.3889  0.8546 -0.1319
  566SOL    HW1 2597   0.995   2.322   3.037  1.3777 -5.4654  2.1592
  566SOL    HW2 2598   0.916   2.386   3.165  2.0135  0.7747 -0.2428
  567SOL     OW 2599   1.807   3.037   3.900 -0.3639 -0.3581  0.0501
  567SOL    HW1 2600   1.830   3.097   3.977 -0.3781 -1.0241  0.5880
  567SOL    HW2 2601   1.831   2.943   3.923 -1.5250 -0.7527 -0.2727
  568SOL     OW 2602   1.624   1.663   6.190 -0.0525 -0.3212  0.2833
  568SOL    HW1 2603   1.713   1.706   6.205  1.1410 -2.5985  0.2362
  568SOL    HW2 2604   1.602   1.604   6.268 -1.2872 -0.2074  0.0443
  569SOL     OW 2605   4.641   2.691   3.616  0.1229 -0.6144 -0.4221
  569SOL    HW1 2606   4.661   2.599   3.582  0.4707 -0.8199  0.3077
  569SOL    HW2 2607   4.653   2.758   3.543  2.8196 -0.7997 -0.2300
  570SOL     OW 2608   3.260   6.918   5.740  0.2283  0.3758  0.6113
  570SOL    HW1 2609   3.271   6.978   5.819  0.5021  0.8391  0.2293
  570SOL    HW2 2610   3.201   6.841   5.764 -0.3733  0.9545  1.0304
  571SOL     OW 2611   2.253   4.001   2.786 -0.7167 -0.6714 -0.4552
  571SOL    HW1 2612   2.276   3.904   2.797 -3.0719 -1.2601 -0.1315
  571SOL    HW2 2613   2.237   4.042   2.876 -1.0828 -0.3546 -0.6619
  572SOL     OW 2614   2.959   1.009   6.159 -0.0067 -0.3271  0.3226
  572SOL    HW1 2615   2.914   0.951   6.091 -0.2264  0.8745 -0.5880
  572SOL    HW2 2616   3.057   1.011   6.142  0.0295 -0.6001  0.4920
  573SOL     OW 2617   6.399   0.573   4.325  0.6548 -0.2635  0.0728
  573SOL    HW1 2618   6.311   0.552   4.366 -2.0004  5.4419 -1.5570
  573SOL    HW2 2619   6.457   0.620   4.392  0.8964 -0.7351  0.1918
  574SOL     OW 2620   2.135   0.884   6.227  0.1093  0.3261 -0.4789
  574SOL    HW1 2621   2.112   0.956   6.161 -0.5248 -0.5708 -1.2642
  574SOL    HW2 2622   2.234   0.880   6.237  0.1575  1.3356 -0.3791
  575SOL     OW 2623   3.470   3.095   5.151  0.2368  0.5621  0.1271
  575SOL    HW1 2624   3.458   3.151   5.233  0.5677 -0.0381  0.5930
  575SOL    HW2 2625   3.380   3.071   5.114  0.0741  2.5557 -0.9018
  576SOL     OW 2626   0.579   1.230   2.776  0.4898 -0.5613  0.5047
  576SOL    HW1 2627   0.504   1.165   2.790 -0.8284  0.2986 -1.9494
  576SOL    HW2 2628   0.599   1.237   2.679  0.8182  2.3986  0.6944
  577SOL     OW 2629   6.223   6.806   0.616  0.3272 -0.3648 -0.4047
  577SOL    HW1 2630   6.217   6.815   0.516  0.0995 -1.3164 -0.4869
  577SOL    HW2 2631   6.141   6.761   0.651  1.2734 -1.9012 -0.0465
  578SOL     OW 2632   3.590   1.677   1.056  0.0043  0.4175 -0.1692
  578SOL    HW1 2633   3.683   1.669   1.092 -0.5275 -1.5520  0.9305
  578SOL    HW2 2634   3.535   1.733   1.118  0.5320  1.9695 -1.0575
  579SOL     OW 2635   0.168   3.893   3.404  0.5102 -0.1183  0.3931
  579SOL    HW1 2636   0.096   3.851   3.459  1.0847 -1.0679  0.4451
  579SOL    HW2 2637   0.197   3.830   3.332 -0.4395  1.2173 -1.2407
  580SOL     OW 2638   5.535   2.284   4.719  0.0423  0.4450 -0.3726
  580SOL    HW1 2639   5.507   2.380   4.709 -0.6954  0.2530 -0.1703
  580SOL    HW2 2640   5.617   2.268   4.663  0.5537  1.3520  0.0895
  581SOL     OW 2641   4.475   0.071   6.974 -0.0228 -0.3060 -0.6429
  581SOL    HW1 2642   4.382   0.049   7.003 -0.2959  0.5732 -0.8296
  581SOL    HW2 2643   4.540   0.039   7.043 -0.6298  1.3977  0.7859
  582SOL     OW 2644   0.247   2.956   5.031  0.0472  0.1776  0.1329
  582SOL    HW1 2645   0.188   3.003   4.965  2.4511 -0.2201 -2.5341
  582SOL    HW2 2646   0.246   2.858   5.013  1.2637  0.1333  0.1876
  583SOL     OW 2647   1.149   6.534   0.163  0.3929  0.7329  0.1039
  583SOL    HW1 2648   1.166   6.632   0.153 -0.4960  0.9222  0.3545
  583SOL    HW2 2649   1.116   6.496   0.077  0.3917  0.7271  0.1068
  584SOL     OW 2650   4.078   1.699   5.266  0.0090 -0.0123 -0.2002
  584SOL    HW1 2651   4.125   1.769   5.319 -1.0788  1.0085 -0.5424
  584SOL    HW2 2652   4.108   1.609   5.296 -0.7436  0.5066  2.3151
  585SOL     OW 2653   4.970   6.588   1.027  0.1779  0.1589  0.7830
  585SOL    HW1 2654   5.030   6.636   0.963 -1.3172  1.0441 -0.0240
  585SOL    HW2 2655   4.941   6.501   0.987 -0.7653  0.7169  0.2316
  586SOL     OW 2656   3.315   6.986   2.505 -0.5328  0.1454 -0.1171
  586SOL    HW1 2657   3.368   7.064   2.473 -1.1933  0.8943  0.5570
  586SOL    HW2 2658   3.324   6.979   2.605  0.6642 -1.5143 -0.3124
  587SOL     OW 2659   6.472   0.703   4.972 -0.1243  0.8767 -0.4583
  587SOL    HW1 2660   6.558   0.705   5.023  0.1869  1.4019 -0.9896
  587SOL    HW2 2661   6.414   0.780   5.001 -0.3677  0.5961 -0.1904
  588SOL     OW 2662   2.773   5.113   2.898 -0.7360  0.3713 -0.1650
  588SOL    HW1 2663   2.715   5.139   2.820  1.0167  4.7794 -0.2923
  588SOL    HW2 2664   2.869   5.118   2.871 -0.1169  0.9230  1.9329
  589SOL     OW 2665   3.168   4.495   6.439 -0.4832 -0.5887  0.8923
  589SOL    HW1 2666   3.190   4.415   6.384  1.4130  0.5562 -0.1199
  589SOL    HW2 2667   3.230   4.500   6.517 -0.2823  0.1221  0.6950
  590SOL     OW 2668   2.317   0.592   5.882  0.2234  0.1782  0.1252
  590SOL    HW1 2669   2.235   0.592   5.940 -0.0399  4.0803 -0.0371
  590SOL    HW2 2670   2.292   0.566   5.789 -0.6376  0.3253  0.3067
  591SOL     OW 2671   2.823   0.705   2.750 -0.2627 -0.6468 -0.3650
  591SOL    HW1 2672   2.770   0.645   2.690 -0.4225 -1.0539  0.1792
  591SOL    HW2 2673   2.889   0.651   2.802 -0.4842 -0.3699  0.2169
  592SOL     OW 2674   5.945   2.311   2.821  0.0902 -0.8029  0.0361
  592SOL    HW1 2675   6.003   2.377   2.870 -1.8277  1.1818 -0.2489
  592SOL    HW2 2676   5.855   2.308   2.864  0.1119 -3.3487  0.0616
  593SOL     OW 2677   1.993   5.315   2.083 -0.6222  0.7346  0.4655
  593SOL    HW1 2678   1.964   5.219   2.090  0.9603  0.1813 -0.2149
  593SOL    HW2 2679   1.986   5.345   1.988 -0.1229  0.9747  0.5034
  594SOL     OW 2680   2.338   1.583   5.944 -0.1949  0.0124 -0.1937
  594SOL    HW1 2681   2.421   1.552   5.899  0.3714  1.1780  0.0274
  594SOL    HW2 2682   2.362   1.635   6.026 -1.0299  2.4346 -1.4029
  595SOL     OW 2683   0.970   3.862   3.310 -0.4088  0.2105  0.0052
  595SOL    HW1 2684   1.065   3.857   3.278 -0.4564  1.6756 -0.4089
  595SOL    HW2 2685   0.908   3.836   3.235 -0.3733 -0.0408  0.0606
  596SOL     OW 2686   6.255   4.488   4.655 -0.3268  0.3247 -0.1501
  596SOL    HW1 2687   6.311   4.458   4.732 -2.0492  0.3596  1.1883
  596SOL    HW2 2688   6.287   4.576   4.622  0.3498  0.3813  0.6279
  597SOL     OW 2689   2.492   0.840   0.618  0.1346 -0.2445 -0.2816
  597SOL    HW1 2690   2.589   0.841   0.642  0.0248 -0.6353  0.1999
  597SOL    HW2 2691   2.447   0.921   0.656 -0.0063 -0.7798  0.7414
  598SOL     OW 2692   3.357   2.467   1.103 -0.2421  0.3743  0.1461
  598SOL    HW1 2693   3.297   2.419   1.039  0.1869  0.0685 -0.0323
  598SOL    HW2 2694   3.350   2.565   1.089  0.5375  0.2807 -1.0047
  599SOL     OW 2695   0.573   5.059   3.088 -0.1518 -0.3322  0.3072
  599SOL    HW1 2696   0.585   4.977   3.144 -1.7852 -3.1857 -3.1356
  599SOL    HW2 2697   0.630   5.053   3.006 -2.2490  0.6169 -1.3171
  600SOL     OW 2698   1.594   4.398   6.268 -0.2313 -0.4078 -0.8612
  600SOL    HW1 2699   1.690   4.390   6.294 -0.3032  1.5483  0.1708
  600SOL    HW2 2700   1.576   4.339   6.189  1.9490 -0.3723 -1.4472
  601SOL     OW 2701   0.968   2.117   6.258 -0.6807  0.1680 -0.1209
  601SOL    HW1 2702   0.928   2.027   6.238 -1.1070  0.5713 -1.1010
  601SOL    HW2 2703   0.985   2.123   6.357 -1.0344 -0.8278  0.0212
  602SOL     OW 2704   0.894   2.000   2.772 -0.1344 -0.0030  0.5439
  602SOL    HW1 2705   0.814   2.024   2.826 -0.7162  0.4986 -0.5153
  602SOL    HW2 2706   0.900   2.060   2.692  0.7150 -0.7099  0.0551
  603SOL     OW 2707   0.209   0.719   4.511 -0.1473 -0.2192 -0.1308
  603SOL    HW1 2708   0.130   0.666   4.541  0.6174 -1.2196  0.1606
  603SOL    HW2 2709   0.213   0.721   4.411 -0.4546 -0.2729 -0.1454
  604SOL     OW 2710   6.827   4.357   0.576  0.5897  0.0180 -0.2295
  604SOL    HW1 2711   6.825   4.258   0.564 -0.9272  0.1353 -1.2265
  604SOL    HW2 2712   6.845   4.401   0.488  0.0042  0.6527 -0.0450
  605SOL     OW 2713   6.943   6.687   2.066 -0.0599  0.3762  0.5192
  605SOL    HW1 2714   6.947   6.784   2.044 -1.4731  0.6953  1.5879
  605SOL    HW2 2715   6.903   6.637   1.989 -2.4562  1.1264  1.1978
  606SOL     OW 2716   1.910   6.645   5.454 -0.1382  0.3766 -0.3155
  606SOL    HW1 2717   1.849   6.626   5.531 -2.2939  0.5808 -1.8740
  606SOL    HW2 2718   1.888   6.735   5.416  1.2305  0.4892 -0.8717
  607SOL     OW 2719   1.271   4.953   5.109  0.6367  0.3512  0.2169
  607SOL    HW1 2720   1.237   4.883   5.171  0.6343 -0.6164 -0.8519
  607SOL    HW2 2721   1.355   4.920   5.064  1.0928  1.3546  0.2977
  608SOL     OW 2722   2.812   0.479   6.843  0.1945 -0.1369 -0.2617
  608SOL    HW1 2723   2.886   0.415   6.826  0.6512  0.1895  0.4272
  608SOL    HW2 2724   2.770   0.457   6.931  0.3494  0.4950 -0.0252
  609SOL     OW 2725   3.282   4.068   2.780 -0.6194 -0.5879 -0.6622
  609SOL    HW1 2726   3.309   3.978   2.816  1.7091 -0.0931 -0.9999
  609SOL    HW2 2727   3.238   4.121   2.852 -0.1909 -1.2775  0.1242
  610SOL     OW 2728   6.296   1.989   2.902 -0.2625  0.2106 -0.4028
  610SOL    HW1 2729   6.318   1.942   2.988 -0.3216 -0.1093 -0.5600
  610SOL    HW2 2730   6.202   1.966   2.874 -0.4232  0.7151 -0.2922
  611SOL     OW 2731   4.316   0.477   2.043 -0.0458  0.8499  0.2774
  611SOL    HW1 2732   4.260   0.420   2.104  0.4162 -0.1676 -0.2322
  611SOL    HW2 2733   4.290   0.573   2.055 -0.8223  0.5486  1.1718
  612SOL     OW 2734   5.506   5.767   4.472 -0.2762  0.2226 -0.5499
  612SOL    HW1 2735   5.497   5.740   4.377 -0.7384  0.3282 -0.5382
  612SOL    HW2 2736   5.492   5.866   4.481  0.8853  0.4046 -0.5216
  613SOL     OW 2737   5.011   6.673   6.783  0.1797 -0.5249  0.4107
  613SOL    HW1 2738   5.064   6.756   6.800 -2.5512  1.4804 -0.2386
  613SOL    HW2 2739   5.004   6.659   6.684  0.1792 -1.2502  0.5116
  614SOL     OW 2740   2.926   6.496   0.387  0.2100  0.1287 -0.0242
  614SOL    HW1 2741   2.890   6.570   0.444  1.7816  1.5206 -0.7433
  614SOL    HW2 2742   2.934   6.413   0.441 -3.3283 -0.1242  0.3700
  615SOL     OW 2743   6.023   5.505   3.994  0.4252  0.3994 -0.1710
  615SOL    HW1 2744   6.077   5.583   3.962 -1.3183  0.3912 -3.6245
  615SOL    HW2 2745   5.949   5.537   4.053  2.6152  0.6355  2.7091
  616SOL     OW 2746   5.620   3.085   3.776  0.5338  0.5065 -0.0869
  616SOL    HW1 2747   5.609   3.142   3.695  0.7812 -0.1039 -0.5639
  616SOL    HW2 2748   5.717   3.069   3.793  0.4571 -0.2325 -0.2984
  617SOL     OW 2749   4.578   0.550   4.121 -0.3563  0.3721 -0.6263
  617SOL    HW1 2750   4.607   0.620   4.186 -1.2100  0.6349 -0.5126
  617SOL    HW2 2751   4.566   0.592   4.031  0.1332  0.1547 -0.7949
  618SOL     OW 2752   2.825   6.413   3.234  0.1695  0.5481  0.1452
  618SOL    HW1 2753   2.746   6.422   3.294  0.5642  0.6736  0.6552
  618SOL    HW2 2754   2.807   6.460   3.148 -0.3909  0.3913  0.1733
  619SOL     OW 2755   2.326   2.658   1.014  0.7148 -0.0570  0.2313
  619SOL    HW1 2756   2.397   2.632   0.948  0.8751  3.9424 -1.4928
  619SOL    HW2 2757   2.236   2.646   0.973  0.7810  1.5943 -0.4811
  620SOL     OW 2758   6.100   5.061   6.811 -0.2448  0.4702  0.3501
  620SOL    HW1 2759   6.179   5.113   6.845  1.3334 -0.5020 -1.6572
  620SOL    HW2 2760   6.095   4.973   6.859  1.1420 -0.3105 -0.8554
  621SOL     OW 2761   0.097   6.512   2.405  0.4215 -0.2307 -0.3725
  621SOL    HW1 2762   0.116   6.600   2.448 -0.2994 -0.4349  0.4135
  621SOL    HW2 2763   0.166   6.492   2.336  1.2003  0.4573  0.1873
  622SOL     OW 2764   3.109   1.776   0.342 -0.3568  0.0703  0.3183
  622SOL    HW1 2765   3.042   1.834   0.294  0.6922  1.4387  0.4423
  622SOL    HW2 2766   3.133   1.819   0.429  1.3983  0.1202 -0.1625
  623SOL     OW 2767   6.344   4.203   6.230  0.2620 -0.1225  0.0354
  623SOL    HW1 2768   6.413   4.270   6.254  0.4204  0.2687 -1.4396
  623SOL    HW2 2769   6.260   4.222   6.281  0.4551  0.9010 -0.0072
  624SOL     OW 2770   0.671   0.646   0.369  0.0821  0.5669 -0.1517
  624SOL    HW1 2771   0.692   0.680   0.277  1.0098 -0.5833 -0.3895
  624SOL    HW2 2772   0.713   0.706   0.437 -0.8303  1.5771 -0.4381
  625SOL     OW 2773   1.409   6.749   2.538  0.0450  0.2107  0.1874
  625SOL    HW1 2774   1.421   6.652   2.563 -1.6231 -0.0851 -0.0441
  625SOL    HW2 2775   1.474   6.773   2.467 -1.3855 -1.6124 -1.8795
  626SOL     OW 2776   5.404   6.598   0.507 -0.5582 -0.3515  0.0415
  626SOL    HW1 2777   5.412   6.500   0.490  0.5541 -0.4835  1.1415
  626SOL    HW2 2778   5.421   6.616   0.604  2.5035  1.2046 -0.6544
  627SOL     OW 2779   3.772   6.389   4.788  0.0291  0.3704  0.2794
  627SOL    HW1 2780   3.845   6.356   4.729  1.9697  0.9343  2.2557
  627SOL    HW2 2781   3.795   6.480   4.823 -2.1165  1.0222  0.1991
  628SOL     OW 2782   5.077   2.799   3.271  0.1084 -0.0705 -0.4098
  628SOL    HW1 2783   5.044   2.887   3.306  1.2253 -0.0462  0.6120
  628SOL    HW2 2784   5.043   2.725   3.329  1.4895 -0.0752  0.4188
  629SOL     OW 2785   1.625   0.114   1.103  0.2171  0.2573  0.2981
  629SOL    HW1 2786   1.586   0.184   1.163  0.3606  0.1499  0.5181
  629SOL    HW2 2787   1.722   0.104   1.124  0.2199  0.0670  0.1909
  630SOL     OW 2788   1.580   1.651   4.656  0.0030  0.3769  0.0692
  630SOL    HW1 2789   1.510   1.722   4.663 -0.4068  0.0135 -0.2774
  630SOL    HW2 2790   1.554   1.573   4.713 -0.5794 -0.3240 -1.1201
  631SOL     OW 2791   3.389   0.957   3.262  0.4169  0.5009 -0.4374
  631SOL    HW1 2792   3.406   1.050   3.295  1.0549  0.8034 -1.5583
  631SOL    HW2 2793   3.464   0.929   3.202 -1.0791  0.3357 -2.3205
  632SOL     OW 2794   2.002   0.550   5.910  0.6981 -0.1806  0.1874
  632SOL    HW1 2795   1.975   0.453   5.907 -1.1336  0.2493  1.2200
  632SOL    HW2 2796   2.052   0.568   5.994  1.3801 -0.3041 -0.1896
  633SOL     OW 2797   4.019   0.231   4.233  0.0859  0.3458  0.1807
  633SOL    HW1 2798   4.069   0.155   4.274 -0.2192  0.5063  0.8737
  633SOL    HW2 2799   4.032   0.230   4.134 -0.6831 -1.1943  0.0498
  634SOL     OW 2800   2.701   5.826   3.603  0.2424 -0.3525 -0.3557
  634SOL    HW1 2801   2.688   5.799   3.508 -2.0958 -0.4571 -0.0484
  634SOL    HW2 2802   2.685   5.747   3.663  0.3695  0.0255  0.1889
  635SOL     OW 2803   3.259   4.851   0.775  0.1250  0.9583  0.0237
  635SOL    HW1 2804   3.321   4.917   0.733 -0.5514  1.1789 -0.6535
  635SOL    HW2 2805   3.269   4.855   0.875  2.8295 -0.6430 -0.1029
  636SOL     OW 2806   2.691   5.221   6.245  0.0247 -0.0985  1.4606
  636SOL    HW1 2807   2.777   5.244   6.200 -0.1414 -1.1708  0.5458
  636SOL    HW2 2808   2.629   5.300   6.241 -0.5458 -0.5531 -1.6153
  637SOL     OW 2809   0.029   3.560   6.353 -0.1799 -0.4067  0.0731
  637SOL    HW1 2810   0.112   3.509   6.330 -0.0900 -0.1277 -0.2209
  637SOL    HW2 2811   0.048   3.620   6.431 -0.1006 -0.3332 -0.0021
  638SOL     OW 2812   6.091   1.664   3.716  0.0532 -1.0460 -0.2028
  638SOL    HW1 2813   6.017   1.643   3.779  1.6861 -3.8899  0.9688
  638SOL    HW2 2814   6.161   1.718   3.762  0.5837 -1.8913 -0.0035
  639SOL     OW 2815   4.300   4.177   0.907  0.1402  0.0081  0.0161
  639SOL    HW1 2816   4.200   4.174   0.904  0.1403 -1.4419  0.4624
  639SOL    HW2 2817   4.335   4.091   0.945  1.6025  0.0780 -1.0708
  640SOL     OW 2818   4.062   4.051   5.377 -0.0449  0.0472 -0.1596
  640SOL    HW1 2819   3.973   4.059   5.422 -1.0681 -1.8691 -1.6859
  640SOL    HW2 2820   4.050   4.055   5.278  1.4345 -1.1768 -0.4273
  641SOL     OW 2821   0.076   6.713   4.404 -0.1301  0.3770  0.1221
  641SOL    HW1 2822   0.134   6.631   4.395 -0.2014  0.2969  0.3835
  641SOL    HW2 2823   0.018   6.722   4.324 -0.4666 -0.0974  0.3122
  642SOL     OW 2824   0.817   5.296   5.551  0.5443 -0.2702  0.5308
  642SOL    HW1 2825   0.836   5.223   5.487 -0.8686 -0.1825 -0.0324
  642SOL    HW2 2826   0.848   5.383   5.514  2.1778 -0.5390  1.1785
  643SOL     OW 2827   1.620   5.977   4.422  0.1375 -0.2803  0.0519
  643SOL    HW1 2828   1.636   5.892   4.371  0.6784  0.2541 -0.6949
  643SOL    HW2 2829   1.707   6.026   4.434 -0.2805  0.5360 -0.1926
  644SOL     OW 2830   5.143   5.573   3.047 -0.5598 -0.0564 -0.2914
  644SOL    HW1 2831   5.088   5.590   2.965  0.0719 -1.6038 -1.0911
  644SOL    HW2 2832   5.240   5.568   3.022 -0.3705 -0.7111  0.5191
  645SOL     OW 2833   1.585   2.290   3.438  0.2526 -0.0565  0.2000
  645SOL    HW1 2834   1.653   2.358   3.410  1.4975 -0.6195  1.6602
  645SOL    HW2 2835   1.501   2.335   3.467  0.3563  0.7218 -0.6862
  646SOL     OW 2836   1.576   3.771   3.473 -0.6899 -0.2974  0.4370
  646SOL    HW1 2837   1.570   3.840   3.545 -1.0062 -0.3905  0.5000
  646SOL    HW2 2838   1.656   3.789   3.416  1.2463 -1.8789  2.5225
  647SOL     OW 2839   6.209   3.435   2.145  1.0260  0.1387 -0.1406
  647SOL    HW1 2840   6.267   3.374   2.197  1.6961  0.2207 -0.7801
  647SOL    HW2 2841   6.230   3.530   2.168 -0.0985  0.1478  0.9442
  648SOL     OW 2842   4.811   1.959   6.910 -0.4125 -0.3551 -1.1234
  648SOL    HW1 2843   4.733   1.992   6.964 -2.6257 -1.5580 -3.3560
  648SOL    HW2 2844   4.879   2.032   6.903 -1.0716  0.5917  1.2983
  649SOL     OW 2845   3.216   6.459   6.162 -0.2298 -0.0644 -0.3201
  649SOL    HW1 2846   3.145   6.527   6.143 -0.3237  0.7152  2.3342
  649SOL    HW2 2847   3.212   6.433   6.259  3.0853 -0.0016 -0.0489
  650SOL     OW 2848   4.939   4.371   2.435 -0.5332 -0.2841  0.5039
  650SOL    HW1 2849   4.971   4.406   2.347 -0.5431  0.7389  0.8853
  650SOL    HW2 2850   4.887   4.287   2.421 -0.0432 -0.4487 -0.4010
  651SOL     OW 2851   2.936   5.094   5.884 -0.1543 -0.5616 -0.3870
  651SOL    HW1 2852   3.020   5.078   5.935 -1.2766 -0.0884  1.7114
  651SOL    HW2 2853   2.905   5.008   5.843  1.0653 -0.8361 -0.7707
  652SOL     OW 2854   4.923   4.004   2.165 -0.8625 -0.4398 -0.1640
  652SOL    HW1 2855   5.020   4.009   2.139 -0.1411 -0.0706  2.3086
  652SOL    HW2 2856   4.884   4.096   2.166 -0.4771 -0.2640  1.2869
  653SOL     OW 2857   3.143   4.470   1.659  0.1005  0.3744  0.0685
  653SOL    HW1 2858   3.196   4.385   1.647  1.0412  0.9104  0.3237
  653SOL    HW2 2859   3.072   4.454   1.728 -1.1776 -0.8308 -1.4573
  654SOL     OW 2860   6.607   3.758   5.218  0.4593 -0.4062  0.4650
  654SOL    HW1 2861   6.559   3.845   5.209  2.7956  0.9481  0.3927
  654SOL    HW2 2862   6.543   3.683   5.199 -0.9608  1.3482 -2.3867
  655SOL     OW 2863   1.503   1.455   1.156  0.6674  0.1320  0.1433
  655SOL    HW1 2864   1.422   1.450   1.097 -0.8003 -1.7794  2.1516
  655SOL    HW2 2865   1.553   1.369   1.152  2.9258  1.3931 -1.3255
  656SOL     OW 2866   2.885   6.139   1.683 -0.0381  0.3676  0.4512
  656SOL    HW1 2867   2.968   6.085   1.668  1.2292  2.4498 -0.6489
  656SOL    HW2 2868   2.852   6.174   1.595 -0.7543  1.3997  1.1141
  657SOL     OW 2869   5.641   0.093   5.218  0.0834 -0.2560  0.3514
  657SOL    HW1 2870   5.711   0.160   5.195  0.7617 -0.8570  0.6316
  657SOL    HW2 2871   5.652   0.065   5.314 -0.2403 -0.7177  0.2579
  658SOL     OW 2872   4.955   5.572   6.059  0.0195  0.2023 -0.1472
  658SOL    HW1 2873   4.932   5.626   5.978 -0.1779 -0.1617 -0.3379
  658SOL    HW2 2874   4.882   5.507   6.077 -1.3454  2.1746  2.0233
  659SOL     OW 2875   3.511   6.886   6.410 -0.1704  0.2087 -0.1354
  659SOL    HW1 2876   3.433   6.933   6.368 -0.4841 -0.4248 -0.2824
  659SOL    HW2 2877   3.495   6.788   6.408 -0.9934  0.1664  2.9619
  660SOL     OW 2878   1.643   6.416   3.216  0.6252  0.6442 -0.0863
  660SOL    HW1 2879   1.598   6.386   3.301  0.9074 -0.6857 -0.3849
  660SOL    HW2 2880   1.598   6.373   3.138  1.4181  0.5352 -0.4904
  661SOL     OW 2881   0.749   5.396   2.482  0.0908  0.3025 -0.4316
  661SOL    HW1 2882   0.777   5.413   2.387  0.6652  0.7195 -0.1983
  661SOL    HW2 2883   0.777   5.474   2.538 -0.4510  0.1602  0.0405
  662SOL     OW 2884   3.512   0.770   0.388  0.0386 -0.0668 -0.2837
  662SOL    HW1 2885   3.439   0.817   0.438  0.4120 -0.1965  0.3958
  662SOL    HW2 2886   3.485   0.759   0.292 -0.0554  1.5343 -0.4606
  663SOL     OW 2887   0.586   3.307   5.516 -0.4163 -1.2536 -0.1251
  663SOL    HW1 2888   0.545   3.340   5.430 -1.1127 -1.4137  0.1379
  663SOL    HW2 2889   0.547   3.218   5.540  0.1488 -1.4478  0.0995
  664SOL     OW 2890   5.958   6.604   3.351 -0.2012  0.0495  0.0430
  664SOL    HW1 2891   6.038   6.560   3.393 -0.7742 -2.3168 -1.1997
  664SOL    HW2 2892   5.899   6.641   3.424  0.8903 -0.1641  1.0746
  665SOL     OW 2893   2.759   3.901   0.687  0.4392  0.0228  0.5743
  665SOL    HW1 2894   2.674   3.868   0.727 -0.9210 -0.7243 -2.6312
  665SOL    HW2 2895   2.748   3.996   0.657  0.7707 -0.0323  0.2653
  666SOL     OW 2896   4.360   1.076   4.418 -0.4075  0.1480  0.5445
  666SOL    HW1 2897   4.429   1.060   4.347 -1.8468  0.8805 -1.0629
  666SOL    HW2 2898   4.284   1.012   4.405 -0.6668  0.2587  1.4750
  667SOL     OW 2899   4.702   1.878   2.337 -0.5517 -0.1074  0.4701
  667SOL    HW1 2900   4.680   1.914   2.427 -0.4192  0.1465  0.4009
  667SOL    HW2 2901   4.635   1.910   2.270 -2.1273 -2.2661  0.8945
  668SOL     OW 2902   5.551   3.875   5.795 -0.2357 -0.2021  0.1066
  668SOL    HW1 2903   5.644   3.910   5.780 -0.7336  0.9390 -0.4136
  668SOL    HW2 2904   5.554   3.776   5.802  1.1814 -0.1112  1.2850
  669SOL     OW 2905   5.672   2.262   5.006 -0.5410  0.4607 -0.3622
  669SOL    HW1 2906   5.632   2.290   4.918 -4.6397 -1.5748  0.6228
  669SOL    HW2 2907   5.654   2.333   5.074  1.4213  1.4079 -0.7489
  670SOL     OW 2908   4.966   1.948   0.365  0.3411 -0.1137 -0.5034
  670SOL    HW1 2909   5.035   1.990   0.306  0.9267 -1.8293 -1.1189
  670SOL    HW2 2910   4.999   1.946   0.459  1.2198 -1.0005 -0.8081
  671SOL     OW 2911   1.373   4.339   0.595  0.4234  0.1863  0.1927
  671SOL    HW1 2912   1.283   4.310   0.563  0.0304 -1.1705  2.2848
  671SOL    HW2 2913   1.362   4.412   0.663  0.7308 -0.9086  1.4701
  672SOL     OW 2914   6.127   0.693   1.841 -0.3083 -0.4930  0.7350
  672SOL    HW1 2915   6.160   0.772   1.893 -2.0430 -0.1654  1.4328
  672SOL    HW2 2916   6.074   0.725   1.762  1.7646 -0.9958 -0.9575
  673SOL     OW 2917   0.700   0.723   0.109 -0.9107  1.0408 -0.2889
  673SOL    HW1 2918   0.704   0.811   0.062  0.2451 -0.6458 -3.7190
  673SOL    HW2 2919   0.791   0.681   0.107 -1.5755 -0.5054  0.6571
  674SOL     OW 2920   3.814   6.353   3.787 -0.2569 -0.1558 -0.2424
  674SOL    HW1 2921   3.904   6.350   3.744 -0.1053  1.0834 -0.0419
  674SOL    HW2 2922   3.749   6.401   3.727  0.1649  2.3600  1.1991
  675SOL     OW 2923   2.489   4.749   2.359  0.1584 -0.0395  0.4235
  675SOL    HW1 2924   2.515   4.655   2.382 -0.0026 -0.0422  0.6028
  675SOL    HW2 2925   2.395   4.749   2.323 -0.1292  0.1481  1.1649
  676SOL     OW 2926   3.507   6.618   6.712 -0.0958 -0.5522 -0.0122
  676SOL    HW1 2927   3.484   6.602   6.616  1.1523  1.5398 -0.7412
  676SOL    HW2 2928   3.596   6.577   6.732  1.0225  1.4284 -0.6390
  677SOL     OW 2929   5.599   1.446   1.439 -0.1591  0.4972 -0.1541
  677SOL    HW1 2930   5.674   1.489   1.391  0.1467  0.2117  0.0618
  677SOL    HW2 2931   5.567   1.366   1.388  0.4746 -0.0824  0.3364
  678SOL     OW 2932   0.351   6.501   6.429  0.3418  0.1514 -0.0400
  678SOL    HW1 2933   0.436   6.491   6.377  0.1303 -1.7941 -0.0907
  678SOL    HW2 2934   0.365   6.565   6.504  1.1505  1.6619 -1.4298
  679SOL     OW 2935   4.362   0.219   5.547 -0.3598 -0.0361 -0.0448
  679SOL    HW1 2936   4.452   0.232   5.506 -0.5864 -1.5613 -1.1005
  679SOL    HW2 2937   4.314   0.307   5.550  1.6097  1.0710  1.7775
  680SOL     OW 2938   5.849   1.383   3.318  0.3837 -0.0876  0.9760
  680SOL    HW1 2939   5.892   1.323   3.251  2.1949  1.7119  0.4347
  680SOL    HW2 2940   5.773   1.433   3.276  1.7007  1.2575  0.0992
  681SOL     OW 2941   6.526   4.889   3.489 -0.2418  0.3496  0.0412
  681SOL    HW1 2942   6.514   4.943   3.572  2.4771  1.3282 -0.1005
  681SOL    HW2 2943   6.581   4.941   3.423 -0.8685 -1.0904 -1.6988
  682SOL     OW 2944   5.653   1.919   4.816  0.1363  0.0909 -0.3410
  682SOL    HW1 2945   5.706   1.992   4.858 -1.6571  0.6696  1.0989
  682SOL    HW2 2946   5.599   1.873   4.887 -3.0715  1.1018 -1.9274
  683SOL     OW 2947   3.087   5.139   5.141 -0.2565 -0.0346 -0.1047
  683SOL    HW1 2948   3.108   5.071   5.070  0.7487 -1.3281  1.3662
  683SOL    HW2 2949   3.017   5.202   5.107 -1.7849 -2.2419 -1.2812
  684SOL     OW 2950   3.849   2.123   6.381  0.1364  0.2702 -0.4475
  684SOL    HW1 2951   3.750   2.113   6.378  0.2912 -1.9896  0.0318
  684SOL    HW2 2952   3.892   2.054   6.322  1.4287  0.9215 -0.3110
  685SOL     OW 2953   3.287   0.040   3.411 -0.5685 -0.1751 -0.2262
  685SOL    HW1 2954   3.347  -0.038   3.430 -2.0500 -0.6700  3.2024
  685SOL    HW2 2955   3.317   0.118   3.467 -1.4856  0.4170 -0.5533
  686SOL     OW 2956   1.222   1.275   6.110 -0.0748  0.1461 -0.5435
  686SOL    HW1 2957   1.317   1.277   6.079  0.4762 -0.9723  0.9294
  686SOL    HW2 2958   1.162   1.254   6.033  0.4484  3.9211 -2.2028
  687SOL     OW 2959   6.036   0.258   3.417 -0.6593 -0.4161 -0.2734
  687SOL    HW1 2960   6.128   0.262   3.456  0.4527  2.1681 -2.7873
  687SOL    HW2 2961   5.969   0.267   3.490  0.7806 -5.0493  2.0163
  688SOL     OW 2962   4.210   4.229   5.571  0.3590 -0.2984 -0.1573
  688SOL    HW1 2963   4.143   4.254   5.502 -1.2411  1.6626  1.9407
  688SOL    HW2 2964   4.177   4.151   5.624  0.2338 -0.0128  0.1897
  689SOL     OW 2965   0.614   5.040   6.601  0.0356  0.1635 -0.2458
  689SOL    HW1 2966   0.636   5.106   6.673  0.7605  0.3867 -0.6643
  689SOL    HW2 2967   0.518   5.012   6.609 -0.1372  0.8842  0.2418
  690SOL     OW 2968   5.678   3.903   2.704 -0.0530  0.3496  0.2415
  690SOL    HW1 2969   5.635   3.856   2.781  0.3297  0.5799  0.6046
  690SOL    HW2 2970   5.671   4.002   2.718  0.2418  0.3905  0.1067
  691SOL     OW 2971   6.042   0.006   1.724 -0.2585  0.2061  0.0862
  691SOL    HW1 2972   6.141  -0.002   1.712 -0.4964 -0.8706 -1.5903
  691SOL    HW2 2973   6.014   0.100   1.708  0.3316  0.1921 -1.2175
  692SOL     OW 2974   0.311   0.386   5.475 -0.2459  0.2843  0.3748
  692SOL    HW1 2975   0.371   0.410   5.398 -2.2689  2.0359 -0.7728
  692SOL    HW2 2976   0.338   0.440   5.556  2.0846 -1.7899  1.1118
  693SOL     OW 2977   0.557   4.174   3.184 -0.3153  0.5135  0.2610
  693SOL    HW1 2978   0.576   4.265   3.148 -1.0602  0.6853  0.2904
  693SOL    HW2 2979   0.486   4.180   3.254  0.1967  0.0122  0.8383
  694SOL     OW 2980   5.272   4.372   4.037 -0.2742 -0.3565  0.0531
  694SOL    HW1 2981   5.199   4.440   4.033 -1.2654 -1.4490 -1.8910
  694SOL    HW2 2982   5.360   4.417   4.026 -0.7894  0.7519  0.3091
  695SOL     OW 2983   4.634   6.097   2.027  0.0866  0.4670  0.1529
  695SOL    HW1 2984   4.587   6.184   2.015 -0.7398  0.0825  0.5828
  695SOL    HW2 2985   4.631   6.069   2.123 -1.1902 -0.8803 -0.2454
  696SOL     OW 2986   6.674   4.600   3.063  0.0167 -0.4785 -0.0954
  696SOL    HW1 2987   6.753   4.645   3.106 -1.1665 -0.7267  2.5411
  696SOL    HW2 2988   6.705   4.543   2.987  2.2204  0.3377  0.1222
  697SOL     OW 2989   6.207   0.297   4.069  0.5648  0.2584  0.0894
  697SOL    HW1 2990   6.182   0.390   4.041  1.4011  0.6701  0.6693
  697SOL    HW2 2991   6.207   0.237   3.989  2.8147  1.3799 -0.8522
  698SOL     OW 2992   5.841   0.644   3.961  0.3155  0.4713 -0.3242
  698SOL    HW1 2993   5.819   0.611   3.869 -1.0240 -1.4884  0.6363
  698SOL    HW2 2994   5.800   0.734   3.975 -0.4964  0.2635 -1.2543
  699SOL     OW 2995   3.510   4.182   1.144 -0.4113 -0.3488  0.2014
  699SOL    HW1 2996   3.461   4.269   1.132  1.0203  0.3075 -1.1517
  699SOL    HW2 2997   3.576   4.191   1.218 -0.7505 -0.5265  0.5312
  700SOL     OW 2998   3.818   0.432   6.251  0.4449 -0.2542  0.6800
  700SOL    HW1 2999   3.771   0.519   6.266  0.1530  0.0400 -1.6051
  700SOL    HW2 3000   3.915   0.449   6.236  0.3393 -0.2689 -0.0613
  701SOL     OW 3001   2.960   3.787   2.702 -0.0439  0.2988 -0.1136
  701SOL    HW1 3002   2.893   3.774   2.776 -1.2955  0.3936 -1.1811
  701SOL    HW2 3003   3.043   3.736   2.723  0.1652  1.3793  1.9759
  702SOL     OW 3004   5.295   0.968   5.343  0.0190 -0.0585 -0.3011
  702SOL    HW1 3005   5.289   0.879   5.297  0.9890 -0.5282  0.4450
  702SOL    HW2 3006   5.251   1.037   5.286 -1.3110 -1.1066 -0.6189
  703SOL     OW 3007   4.565   3.410   0.016 -0.0642 -0.6753  0.1925
  703SOL    HW1 3008   4.608   3.379  -0.069 -0.8065 -1.2685  0.0200
  703SOL    HW2 3009   4.470   3.378   0.019 -0.5121  0.6163  0.5514
  704SOL     OW 3010   4.569   0.139   2.411 -0.3464  0.0045  0.3649
  704SOL    HW1 3011   4.494   0.074   2.421 -0.8336  0.5916  0.5433
  704SOL    HW2 3012   4.549   0.204   2.338 -0.6393  0.9966  1.2950
  705SOL     OW 3013   0.649   1.215   6.842  0.2262 -0.1213 -0.0597
  705SOL    HW1 3014   0.556   1.238   6.873 -1.3347 -2.5245 -2.4784
  705SOL    HW2 3015   0.672   1.122   6.871  1.7823  0.3252  0.2274
  706SOL     OW 3016   3.801   6.510   3.113 -0.8611  0.2117  0.1716
  706SOL    HW1 3017   3.881   6.486   3.059  0.3071  0.2462  1.8147
  706SOL    HW2 3018   3.719   6.471   3.070  0.0482 -0.1338 -1.3396
  707SOL     OW 3019   3.988   5.251   4.607  0.2873  0.7600 -0.2422
  707SOL    HW1 3020   3.900   5.291   4.584 -0.1655  0.9481  1.6524
  707SOL    HW2 3021   4.042   5.317   4.660  0.7417 -0.0464  0.3234
  708SOL     OW 3022   1.338   6.447   4.508 -0.4726  0.2193 -0.8894
  708SOL    HW1 3023   1.308   6.541   4.524 -1.1972 -0.1147 -0.2635
  708SOL    HW2 3024   1.286   6.384   4.566  2.4935 -0.2578  1.5185
  709SOL     OW 3025   2.186   5.691   0.330  0.7949  0.3427  0.0263
  709SOL    HW1 3026   2.246   5.771   0.330 -0.2171  1.1241 -0.1039
  709SOL    HW2 3027   2.162   5.667   0.236  0.1333  0.6457  0.1103
  710SOL     OW 3028   4.413   2.416   2.417  0.9186  0.3046 -0.4593
  710SOL    HW1 3029   4.455   2.464   2.340 -0.2433 -0.0113 -1.3182
  710SOL    HW2 3030   4.314   2.427   2.414  0.4806 -2.8910 -1.2582
  711SOL     OW 3031   6.653   3.135   0.565 -0.1871  0.5668 -0.8486
  711SOL    HW1 3032   6.586   3.064   0.544 -0.8967  1.1479 -0.6017
  711SOL    HW2 3033   6.610   3.205   0.622  0.8916  0.4892  0.0838
  712SOL     OW 3034   3.126   5.983   5.123  0.1548  0.3843  0.2087
  712SOL    HW1 3035   3.074   5.898   5.113  0.3215  0.5235 -2.4025
  712SOL    HW2 3036   3.110   6.021   5.215 -0.4581 -2.0702  1.1926
  713SOL     OW 3037   0.924   2.716   5.175 -0.4396  0.8008 -0.1064
  713SOL    HW1 3038   0.946   2.634   5.229 -1.9320  1.1995  1.1956
  713SOL    HW2 3039   0.878   2.689   5.090 -0.3889  0.2608  0.0332
  714SOL     OW 3040   2.911   6.216   3.046 -0.4665 -0.6009  0.5579
  714SOL    HW1 3041   3.009   6.207   3.027 -0.6134 -1.2007  0.0296
  714SOL    HW2 3042   2.897   6.285   3.116  0.2619  0.2621 -0.1164
  715SOL     OW 3043   6.259   3.821   6.023  0.1896  0.2356 -0.2288
  715SOL    HW1 3044   6.336   3.847   5.965 -0.1895  0.9072 -0.4424
  715SOL    HW2 3045   6.290   3.810   6.117  0.5291  0.6001 -0.2965
  716SOL     OW 3046   2.728   2.026   3.906  0.2329  0.2192 -0.1056
  716SOL    HW1 3047   2.751   1.929   3.891 -0.8102  0.1299 -1.2808
  716SOL    HW2 3048   2.812   2.080   3.905  0.6416 -0.3592 -2.1031
  717SOL     OW 3049   4.399   3.993   1.051 -0.4511 -0.7367  0.4157
  717SOL    HW1 3050   4.496   3.979   1.070 -0.1084 -0.4262 -0.9392
  717SOL    HW2 3051   4.346   3.984   1.135  0.9576  1.0556  1.5785
  718SOL     OW 3052   0.577   3.005   6.714  0.2008 -0.0455 -0.3408
  718SOL    HW1 3053   0.564   3.102   6.731 -1.3282 -0.0423 -1.2993
  718SOL    HW2 3054   0.582   2.988   6.616  0.0719 -0.9597 -0.2074
  719SOL     OW 3055   5.584   2.876   1.349  0.3778 -0.5323 -0.2985
  719SOL    HW1 3056   5.491   2.848   1.373 -0.3844  0.6726 -1.6828
  719SOL    HW2 3057   5.621   2.935   1.422 -0.3167 -0.2363 -0.1744
  720SOL     OW 3058   1.070   1.358   0.700  0.1266  0.5078  0.7784
  720SOL    HW1 3059   1.028   1.372   0.611 -2.1493  0.9973  1.8551
  720SOL    HW2 3060   1.098   1.262   0.709 -2.7141 -0.4091  0.7200
  721SOL     OW 3061   6.726   2.091   3.765 -0.2191 -0.0310 -0.0112
  721SOL    HW1 3062   6.777   2.046   3.691  0.8465  0.5608  0.3453
  721SOL    HW2 3063   6.635   2.050   3.772  0.3845 -1.4999 -0.2977
  722SOL     OW 3064   5.366   3.464   2.184 -0.1959 -0.3536  0.0403
  722SOL    HW1 3065   5.422   3.404   2.126  0.3075  0.2771 -0.1424
  722SOL    HW2 3066   5.317   3.530   2.126 -0.6805 -0.5269  0.2462
  723SOL     OW 3067   1.821   5.584   3.252 -0.0321 -0.2746 -0.5302
  723SOL    HW1 3068   1.752   5.655   3.236 -0.2889 -0.0845  1.2805
  723SOL    HW2 3069   1.825   5.524   3.172 -1.2170  0.5992 -1.2885
  724SOL     OW 3070   0.134   2.704   4.961  1.2591  0.1639  0.7439
  724SOL    HW1 3071   0.067   2.658   4.904  1.1440  1.1015  0.1058
  724SOL    HW2 3072   0.226   2.669   4.941  1.2613  0.7105 -0.2739
  725SOL     OW 3073   1.838   4.227   2.187  0.1733  0.0478  0.4929
  725SOL    HW1 3074   1.913   4.232   2.253 -0.1985 -0.6150  0.9855
  725SOL    HW2 3075   1.854   4.291   2.112  1.7509 -0.8497  0.0309
  726SOL     OW 3076   2.279   1.535   5.657 -0.2917 -0.1970 -0.1074
  726SOL    HW1 3077   2.303   1.571   5.747 -0.0197  0.7797 -0.5569
  726SOL    HW2 3078   2.188   1.566   5.632 -0.0754  0.1559 -0.4753
  727SOL     OW 3079   4.050   4.817   3.829 -0.3441 -0.1477  0.2597
  727SOL    HW1 3080   4.102   4.853   3.907  0.8514 -1.1888 -0.0168
  727SOL    HW2 3081   4.114   4.794   3.755 -1.1634 -1.9117  0.0668
  728SOL     OW 3082   5.980   2.760   3.003 -0.0209 -0.0895  0.1608
  728SOL    HW1 3083   6.015   2.807   2.922  0.3217  0.4866  0.6378
  728SOL    HW2 3084   5.897   2.806   3.034  0.7221  0.6593  1.0620
  729SOL     OW 3085   5.667   6.192   2.015 -0.2930 -0.0388 -0.1149
  729SOL    HW1 3086   5.609   6.114   2.040  0.7480 -1.3572 -1.5751
  729SOL    HW2 3087   5.756   6.182   2.060 -0.9912  1.7593  1.7994
  730SOL     OW 3088   2.580   1.586   5.790 -0.4415 -0.7919 -0.4992
  730SOL    HW1 3089   2.599   1.493   5.759  0.6893 -0.7477  0.0246
  730SOL    HW2 3090   2.666   1.635   5.805 -0.9707 -0.2674  1.0315
  731SOL     OW 3091   5.009   4.748   4.884 -0.2057  0.0046 -0.1675
  731SOL    HW1 3092   5.082   4.793   4.834  0.6748  1.4048  2.2034
  731SOL    HW2 3093   5.038   4.657   4.912  0.3541  0.2679  0.1179
  732SOL     OW 3094   3.251   0.582   4.513 -0.2754 -0.2857  0.3502
  732SOL    HW1 3095   3.344   0.607   4.487 -0.2846 -1.6407 -1.0750
  732SOL    HW2 3096   3.253   0.541   4.605  0.7993 -1.7897 -0.3016
  733SOL     OW 3097   6.699   4.768   5.688  0.4624 -0.3909  0.2294
  733SOL    HW1 3098   6.731   4.699   5.624 -0.5937  0.0966 -0.8783
  733SOL    HW2 3099   6.701   4.732   5.781  0.4676 -1.7115 -0.2697
  734SOL     OW 3100   0.270   4.297   2.135 -0.0436  0.5949  0.1902
  734SOL    HW1 3101   0.230   4.294   2.227  1.6859  1.2456  0.9974
  734SOL    HW2 3102   0.280   4.392   2.107  0.3659  0.4160 -0.2630
  735SOL     OW 3103   5.266   6.865   5.067  0.1297  0.0568  0.0520
  735SOL    HW1 3104   5.279   6.874   4.969  2.3985  0.1283  0.3034
  735SOL    HW2 3105   5.305   6.944   5.114  0.2114 -0.5649  1.0693
  736SOL     OW 3106   1.886   2.071   5.156 -0.2239 -0.2087  0.3031
  736SOL    HW1 3107   1.895   1.973   5.174  0.2310 -0.3656 -0.7162
  736SOL    HW2 3108   1.922   2.092   5.065  1.0989  1.1458  1.0851
  737SOL     OW 3109   4.052   2.730   6.174  0.1512  0.0853  0.4517
  737SOL    HW1 3110   4.108   2.664   6.223  0.2423 -0.4477 -0.3435
  737SOL    HW2 3111   4.109   2.807   6.144 -0.0728  0.8387  1.8966
  738SOL     OW 3112   1.800   3.152   4.500  0.0573  0.0690  0.0764
  738SOL    HW1 3113   1.834   3.139   4.593  1.0965 -1.8147 -0.5144
  738SOL    HW2 3114   1.872   3.191   4.443  0.8358 -2.5305 -0.8284
  739SOL     OW 3115   1.162   6.523   2.187  0.6586  0.2025  0.3359
  739SOL    HW1 3116   1.261   6.522   2.201  0.7663 -0.5299 -0.4056
  739SOL    HW2 3117   1.133   6.614   2.159  1.3923  0.0017 -1.1876
  740SOL     OW 3118   1.316   2.354   2.535 -0.4993 -0.0820  0.1776
  740SOL    HW1 3119   1.353   2.281   2.593  0.8914 -0.5715 -1.2391
  740SOL    HW2 3120   1.297   2.318   2.443 -1.7719  0.8739  0.0371
  741SOL     OW 3121   2.218   0.696   2.364 -0.1921 -0.4034 -0.1052
  741SOL    HW1 3122   2.151   0.663   2.430  0.5569 -0.9333  0.4093
  741SOL    HW2 3123   2.278   0.762   2.408  0.2896 -0.7341 -0.2520
  742SOL     OW 3124   2.591   6.939   3.187  0.1194  0.4070 -0.4109
  742SOL    HW1 3125   2.632   6.892   3.265  1.6183  1.4246 -0.5322
  742SOL    HW2 3126   2.496   6.912   3.178  1.0993 -3.3965 -1.1022
  743SOL     OW 3127   5.240   5.321   1.818  0.6718 -0.8533  0.4274
  743SOL    HW1 3128   5.146   5.322   1.785  1.1832 -0.2789 -1.0919
  743SOL    HW2 3129   5.242   5.283   1.911 -1.2022  0.3255  1.0036
  744SOL     OW 3130   6.057   6.259   1.673  0.4255 -0.1163 -0.1359
  744SOL    HW1 3131   6.056   6.183   1.738 -2.3968 -1.2308 -1.3402
  744SOL    HW2 3132   6.140   6.254   1.618  0.5865 -1.9871  0.1936
  745SOL     OW 3133   0.954   6.811   6.372 -0.5467 -0.3853  0.3079
  745SOL    HW1 3134   0.928   6.720   6.339 -1.2981 -0.8304  2.0309
  745SOL    HW2 3135   1.005   6.802   6.457  1.4804  0.7231 -0.7148
  746SOL     OW 3136   4.854   6.279   6.270  0.1178 -0.8210 -0.1367
  746SOL    HW1 3137   4.764   6.306   6.236  0.2859 -0.4693 -0.3028
  746SOL    HW2 3138   4.848   6.188   6.312  0.4163 -2.4759 -3.3874
  747SOL     OW 3139   3.971   5.140   3.080  0.1427  0.4507 -0.1232
  747SOL    HW1 3140   3.943   5.076   3.008 -0.3319  0.1392  0.3307
  747SOL    HW2 3141   4.054   5.107   3.124 -0.8522 -0.6169  1.0438
  748SOL     OW 3142   5.653   6.122   2.691 -0.0433  0.1949  1.0019
  748SOL    HW1 3143   5.683   6.213   2.661  3.5164 -0.7720  1.1316
  748SOL    HW2 3144   5.656   6.059   2.614 -3.3538  0.2323  0.7015
  749SOL     OW 3145   6.149   3.892   4.549  0.2991  0.2160  0.0584
  749SOL    HW1 3146   6.207   3.972   4.535  1.5006 -0.3873  1.4104
  749SOL    HW2 3147   6.141   3.872   4.646 -1.0978 -0.5223 -0.1759
  750SOL     OW 3148   2.333   1.693   2.861 -0.2884  0.3002  0.1517
  750SOL    HW1 3149   2.404   1.676   2.929 -0.0964 -1.6303 -0.4541
  750SOL    HW2 3150   2.246   1.656   2.894 -0.6216  1.0657  0.1453
  751SOL     OW 3151   4.989   5.665   0.497 -0.4996 -0.4637  0.4002
  751SOL    HW1 3152   4.993   5.599   0.571 -1.1353  0.5643  1.3824
  751SOL    HW2 3153   4.931   5.630   0.423  1.1794 -2.0572 -0.2376
  752SOL     OW 3154   3.087   3.928   3.581 -0.4039  0.3438  0.3546
  752SOL    HW1 3155   3.087   4.009   3.640  0.5797  1.7200 -1.4119
  752SOL    HW2 3156   3.010   3.935   3.517 -0.7062 -0.4769  0.6217
  753SOL     OW 3157   3.522   3.828   3.934 -0.4587  0.2249 -0.4907
  753SOL    HW1 3158   3.529   3.762   4.010 -0.3059  1.9864  1.1074
  753SOL    HW2 3159   3.583   3.801   3.860 -1.1707 -1.9720 -0.3389
  754SOL     OW 3160   5.178   0.515   4.772 -0.0584 -0.0591  0.1186
  754SOL    HW1 3161   5.162   0.424   4.809  0.3074  0.0660  0.5880
  754SOL    HW2 3162   5.148   0.584   4.838  0.8373  0.1674  0.3007
  755SOL     OW 3163   6.102   4.544   4.210  0.5645  0.0285 -0.2896
  755SOL    HW1 3164   6.073   4.488   4.288 -0.4997  2.2193  0.9881
  755SOL    HW2 3165   6.029   4.543   4.141 -0.1891  1.1056  0.4639
  756SOL     OW 3166   2.799   5.434   4.748 -0.1787 -0.1901 -0.4780
  756SOL    HW1 3167   2.774   5.423   4.651  0.4859 -0.2440 -0.6454
  756SOL    HW2 3168   2.779   5.349   4.796 -0.0717 -0.3231 -0.6656
  757SOL     OW 3169   0.348   6.342   1.173 -0.1893  0.2789 -0.3529
  757SOL    HW1 3170   0.278   6.406   1.206  1.8855  1.4945  2.0864
  757SOL    HW2 3171   0.413   6.390   1.115 -1.1961 -0.7979 -2.4512
  758SOL     OW 3172   5.222   1.866   0.265  0.0972 -0.6128 -0.3573
  758SOL    HW1 3173   5.216   1.948   0.321 -0.0829  0.1373 -1.4401
  758SOL    HW2 3174   5.217   1.785   0.324 -0.3085  0.1373  0.6716
  759SOL     OW 3175   0.500   2.775   1.992  0.2230  0.0170 -0.0063
  759SOL    HW1 3176   0.412   2.786   2.039  0.6176 -0.3393  0.8472
  759SOL    HW2 3177   0.537   2.684   2.013  0.0077 -0.5035 -1.7333
  760SOL     OW 3178   5.603   5.553   5.930  0.2777  0.0302  0.6117
  760SOL    HW1 3179   5.522   5.493   5.926 -0.8835  1.5976 -0.8904
  760SOL    HW2 3180   5.623   5.574   6.025 -1.2778 -0.1753  1.0213
  761SOL     OW 3181   3.671   4.985   5.161  0.4840 -0.4360  0.1794
  761SOL    HW1 3182   3.661   4.986   5.260 -0.7275 -0.8747  0.0817
  761SOL    HW2 3183   3.587   4.949   5.119  0.7161  0.3582 -1.0342
  762SOL     OW 3184   4.545   4.736   3.515  0.0173 -0.7336  0.1293
  762SOL    HW1 3185   4.475   4.789   3.562 -3.0940 -1.9318 -2.7657
  762SOL    HW2 3186   4.624   4.794   3.497 -1.3145  1.5170  1.1511
  763SOL     OW 3187   4.456   1.707   5.995  0.6384  0.2924 -0.3233
  763SOL    HW1 3188   4.452   1.615   6.033 -0.3340 -0.3589 -1.9144
  763SOL    HW2 3189   4.531   1.713   5.929 -0.4595  0.0072 -1.6638
  764SOL     OW 3190   5.026   6.290   3.759 -0.3524 -0.6129  0.0541
  764SOL    HW1 3191   4.975   6.222   3.707 -0.9507 -0.2939  0.2093
  764SOL    HW2 3192   5.031   6.375   3.706  0.6782 -0.8639 -0.2839
  765SOL     OW 3193   0.648   6.457   6.991 -0.4051  0.1725  0.2620
  765SOL    HW1 3194   0.613   6.540   6.947 -0.1287 -0.4990 -1.2515
  765SOL    HW2 3195   0.732   6.479   7.040 -0.9551  1.0173  0.8717
  766SOL     OW 3196   3.622   2.054   4.757  0.0129 -0.0494  0.4678
  766SOL    HW1 3197   3.642   2.073   4.853  1.4727  0.0313  0.1608
  766SOL    HW2 3198   3.702   2.012   4.714 -0.2869  0.7979 -0.9599
  767SOL     OW 3199   5.781   0.797   4.981  0.1246 -0.2873 -0.3894
  767SOL    HW1 3200   5.758   0.863   5.053  0.0268 -0.2323 -0.4693
  767SOL    HW2 3201   5.847   0.838   4.918 -0.4223 -0.0192 -0.8082
  768SOL     OW 3202   2.059   1.222   6.568  1.0254  0.1405  0.0188
  768SOL    HW1 3203   2.103   1.137   6.541  0.3767  0.3327 -1.7426
  768SOL    HW2 3204   2.106   1.299   6.525 -0.2705  0.4333 -0.9318
  769SOL     OW 3205   5.487   0.486   0.476  0.2443  0.0791  0.6280
  769SOL    HW1 3206   5.547   0.408   0.458 -0.1861  0.2821 -2.0195
  769SOL    HW2 3207   5.494   0.511   0.573  1.7842 -2.0528  1.1451
  770SOL     OW 3208   0.082   4.891   6.720  0.0104  0.5341  0.0701
  770SOL    HW1 3209   0.026   4.812   6.695 -0.7606  1.0685  0.0583
  770SOL    HW2 3210   0.169   4.888   6.670  0.1085 -0.4384  0.2756
  771SOL     OW 3211   2.120   4.446   2.321 -0.2170 -0.1885  0.6883
  771SOL    HW1 3212   2.172   4.519   2.277 -1.6188  0.1684 -0.4378
  771SOL    HW2 3213   2.128   4.362   2.268 -1.4815  0.1035  0.0003
  772SOL     OW 3214   0.032   0.020   0.555 -0.5305  0.5799  0.3204
  772SOL    HW1 3215   0.013   0.118   0.561 -0.0093  0.8746 -2.0614
  772SOL    HW2 3216  -0.038  -0.031   0.606 -0.4115  2.1729  2.1929
  773SOL     OW 3217   1.725   4.772   3.750 -0.5524  0.8211 -0.5790
  773SOL    HW1 3218   1.644   4.715   3.759  0.1802 -0.4037 -1.3857
  773SOL    HW2 3219   1.779   4.768   3.835 -1.1484  1.3782 -0.1631
  774SOL     OW 3220   2.262   3.003   3.738 -0.7848 -0.1776 -0.7885
  774SOL    HW1 3221   2.258   3.053   3.824 -0.9586 -1.0519 -0.2707
  774SOL    HW2 3222   2.179   3.020   3.685 -1.5797 -1.1510  0.1020
  775SOL     OW 3223   2.059   5.776   2.300  0.1595 -0.4378 -0.0690
  775SOL    HW1 3224   2.082   5.827   2.383  0.8132  1.2274 -1.2254
  775SOL    HW2 3225   1.960   5.771   2.291  0.0787 -0.5325  0.7405
  776SOL     OW 3226   1.548   6.116   1.479 -0.0857 -0.2515 -0.7955
  776SOL    HW1 3227   1.607   6.041   1.449 -0.0178 -0.9041  0.8731
  776SOL    HW2 3228   1.465   6.118   1.423 -0.2185 -1.7689 -0.6949
  777SOL     OW 3229   6.423   4.803   5.167  0.0966  0.1859 -0.1729
  777SOL    HW1 3230   6.435   4.741   5.244 -0.7487  2.2548  1.7249
  777SOL    HW2 3231   6.500   4.792   5.103  3.0070  1.0120  2.8715
  778SOL     OW 3232   3.944   6.594   0.942 -0.5651  0.0496  0.3260
  778SOL    HW1 3233   3.960   6.629   0.850 -2.3314 -1.1785 -0.5121
  778SOL    HW2 3234   3.931   6.670   1.005 -1.6614  0.9353 -0.9216
  779SOL     OW 3235   5.587   2.469   2.782 -0.4000  0.4137 -0.4784
  779SOL    HW1 3236   5.523   2.545   2.794 -0.3062  0.7755 -2.0967
  779SOL    HW2 3237   5.680   2.504   2.780 -0.3680  0.2857 -1.4168
  780SOL     OW 3238   6.615   3.651   5.894 -0.0221  0.0052 -0.0674
  780SOL    HW1 3239   6.587   3.646   5.799  0.3477 -1.7337 -0.1207
  780SOL    HW2 3240   6.715   3.643   5.900 -0.1472 -1.2904  0.5242
  781SOL     OW 3241   6.525   5.207   6.654 -0.4215  0.2042  0.3811
  781SOL    HW1 3242   6.450   5.163   6.604 -0.7793  1.6261 -0.3843
  781SOL    HW2 3243   6.599   5.141   6.668 -1.2943 -0.8797  0.0570
  782SOL     OW 3244   2.532   5.427   5.436  0.2041  0.1236  0.2168
  782SOL    HW1 3245   2.541   5.491   5.360 -0.4106  1.7187  1.4214
  782SOL    HW2 3246   2.494   5.475   5.515  0.3422 -1.6012  1.3798
  783SOL     OW 3247   3.539   4.948   3.802 -0.3378  0.0070  0.2744
  783SOL    HW1 3248   3.539   4.919   3.706 -1.0936 -0.1903  0.3287
  783SOL    HW2 3249   3.612   4.901   3.851 -0.5296 -0.5846  0.0001
  784SOL     OW 3250   0.389   6.250   0.470  0.1050  0.5394  0.1504
  784SOL    HW1 3251   0.356   6.256   0.564  0.7500  3.4535  0.2760
  784SOL    HW2 3252   0.484   6.280   0.466  0.6891 -1.3248 -1.2002
  785SOL     OW 3253   0.494   1.783   4.722 -0.2270 -0.2747  0.0601
  785SOL    HW1 3254   0.571   1.769   4.784 -0.3965 -0.5455  0.2088
  785SOL    HW2 3255   0.453   1.873   4.739  0.0645 -0.1208 -0.0325
  786SOL     OW 3256   4.879   2.119   5.310  0.0810 -0.2664 -0.2217
  786SOL    HW1 3257   4.820   2.077   5.379 -0.4293  0.2210 -0.3450
  786SOL    HW2 3258   4.929   2.195   5.352 -0.2594  0.0554 -0.3833
  787SOL     OW 3259   1.002   4.739   5.754  0.0149 -0.0258 -0.2430
  787SOL    HW1 3260   1.083   4.710   5.806 -0.2083 -0.4628 -0.1384
  787SOL    HW2 3261   0.926   4.678   5.774  0.4235 -1.4400 -2.5386
  788SOL     OW 3262   1.892   4.788   2.285  0.7153  0.0280 -0.2319
  788SOL    HW1 3263   1.832   4.864   2.310 -0.0478  0.0752 -2.0566
  788SOL    HW2 3264   1.837   4.707   2.263  1.5018 -1.0092  1.4207
  789SOL     OW 3265   3.447   6.505   0.262 -0.0255  0.1677 -0.6059
  789SOL    HW1 3266   3.496   6.578   0.216  2.7766 -1.8354 -1.0595
  789SOL    HW2 3267   3.348   6.521   0.255  0.4278  2.7303 -2.4894
  790SOL     OW 3268   0.128   2.046   2.003  0.0425  0.4508 -0.0048
  790SOL    HW1 3269   0.125   2.132   1.951  1.4831  1.6163  1.7095
  790SOL    HW2 3270   0.202   1.989   1.968 -0.0140  0.5357 -0.2630
  791SOL     OW 3271   4.271   6.071   3.744 -0.1265  0.4845  0.1123
  791SOL    HW1 3272   4.242   6.098   3.652 -0.7384  1.3309  0.5361
  791SOL    HW2 3273   4.340   6.136   3.777  0.2644  0.0482  0.1689
  792SOL     OW 3274   4.104   6.607   1.948 -0.0126 -0.3081  0.0694
  792SOL    HW1 3275   4.064   6.698   1.946  0.9824  0.1239 -0.8151
  792SOL    HW2 3276   4.096   6.565   1.858  0.2444 -0.7938  0.2678
  793SOL     OW 3277   1.724   6.519   3.503 -0.4919  0.0021  0.2713
  793SOL    HW1 3278   1.671   6.435   3.496  0.4649 -0.6512  0.5938
  793SOL    HW2 3279   1.669   6.597   3.472 -0.5927 -1.0372 -2.3919
  794SOL     OW 3280   4.800   2.193   2.502 -0.4098  0.4458 -0.2092
  794SOL    HW1 3281   4.761   2.235   2.420 -1.6023 -0.0131  0.1002
  794SOL    HW2 3282   4.787   2.094   2.497 -0.8826  0.4521  0.7235
  795SOL     OW 3283   1.679   6.535   5.905 -0.4562  0.2882 -0.2622
  795SOL    HW1 3284   1.691   6.451   5.959  0.0093 -0.3863 -1.3794
  795SOL    HW2 3285   1.713   6.613   5.957  0.0632 -0.3564  0.3913
  796SOL     OW 3286   3.012   2.574   0.060  0.5076 -0.4529 -0.8665
  796SOL    HW1 3287   2.957   2.589  -0.022 -1.5331 -0.5201  0.4103
  796SOL    HW2 3288   3.012   2.658   0.115  1.3922 -0.5761 -0.6699
  797SOL     OW 3289   2.639   5.941   6.623  0.6541 -0.1716 -0.5025
  797SOL    HW1 3290   2.546   5.969   6.599  0.8669  0.2674 -0.8275
  797SOL    HW2 3291   2.656   5.848   6.591 -1.1222 -2.0283  3.2282
  798SOL     OW 3292   6.289   3.155   2.471  0.2156 -0.2409  0.0577
  798SOL    HW1 3293   6.334   3.196   2.392 -0.8096  0.8240 -0.0009
  798SOL    HW2 3294   6.254   3.227   2.531 -1.5946 -0.9993 -0.0140
  799SOL     OW 3295   3.685   3.412   3.677  0.3260  0.6370 -0.0712
  799SOL    HW1 3296   3.726   3.417   3.586 -0.9974 -0.7965 -0.7803
  799SOL    HW2 3297   3.715   3.328   3.722  0.3034  0.9250  0.4860
  800SOL     OW 3298   5.510   1.856   3.413 -0.1911 -0.3226  0.3100
  800SOL    HW1 3299   5.574   1.870   3.488 -0.3473  0.8265  0.2479
  800SOL    HW2 3300   5.550   1.888   3.327 -0.4388 -0.5900  0.0896
  801SOL     OW 3301   0.911   2.769   2.148 -0.0112  0.0896 -0.3106
  801SOL    HW1 3302   0.848   2.830   2.101 -0.2055 -0.7753 -1.2207
  801SOL    HW2 3303   0.985   2.743   2.085 -0.5135 -1.4335 -0.3292
  802SOL     OW 3304   4.403   3.221   6.291  1.0566  0.0052 -0.6464
  802SOL    HW1 3305   4.383   3.124   6.306  0.9031  0.3511  1.9758
  802SOL    HW2 3306   4.318   3.274   6.299  1.5109  0.5782  0.8966
  803SOL     OW 3307   4.604   2.616   2.959  0.1556 -0.0484  0.1981
  803SOL    HW1 3308   4.597   2.553   3.037  1.8561  0.2454  0.6312
  803SOL    HW2 3309   4.512   2.637   2.925 -0.8271  1.1202  3.1895
  804SOL     OW 3310   4.904   0.691   2.831 -0.3638  0.5419 -0.2183
  804SOL    HW1 3311   4.831   0.685   2.764  0.1357 -0.8865 -0.6861
  804SOL    HW2 3312   4.868   0.665   2.921 -0.7051  1.0457 -0.2060
  805SOL     OW 3313   4.413   1.167   5.538 -0.1979 -0.2565  0.4235
  805SOL    HW1 3314   4.435   1.127   5.450  0.5787  1.9409 -0.4486
  805SOL    HW2 3315   4.317   1.148   5.560 -0.3772 -0.9266 -0.8495
  806SOL     OW 3316   5.382   6.790   6.972  0.8925 -0.4557 -0.1606
  806SOL    HW1 3317   5.448   6.721   7.001  0.3231 -0.5668  0.9197
  806SOL    HW2 3318   5.428   6.878   6.962  1.1456 -0.4244  1.0493
  807SOL     OW 3319   3.214   5.005   5.876  0.1326  0.0344 -0.1256
  807SOL    HW1 3320   3.280   4.948   5.828  1.3678 -0.3952  1.9607
  807SOL    HW2 3321   3.256   5.093   5.899 -1.0587  0.9913 -1.4320
  808SOL     OW 3322   5.900   1.432   5.592  0.4259 -0.3515 -0.5467
  808SOL    HW1 3323   5.944   1.397   5.674 -0.9920 -1.4311 -0.2279
  808SOL    HW2 3324   5.954   1.406   5.512  1.6909  0.5098 -0.0124
  809SOL     OW 3325   0.500   6.425   3.760  0.0981 -0.5965  0.0126
  809SOL    HW1 3326   0.417   6.477   3.781 -0.5343 -0.9101 -1.5356
  809SOL    HW2 3327   0.530   6.375   3.841 -1.3114 -0.5846  0.5739
  810SOL     OW 3328   4.574   4.569   6.376  0.7181  0.2565  0.2895
  810SOL    HW1 3329   4.479   4.598   6.384  0.4142 -0.7394  0.3995
  810SOL    HW2 3330   4.624   4.594   6.459 -0.0538 -1.3898  1.2847
  811SOL     OW 3331   4.788   6.166   5.012  0.1264 -0.2256 -0.4890
  811SOL    HW1 3332   4.713   6.182   5.077 -1.1315  0.2153 -1.9963
  811SOL    HW2 3333   4.788   6.069   4.986 -0.4273 -0.0766 -1.0676
  812SOL     OW 3334   1.639   0.201   0.816 -0.2446 -0.1390  0.2957
  812SOL    HW1 3335   1.669   0.183   0.910  0.1174  1.3604  0.4807
  812SOL    HW2 3336   1.575   0.277   0.814  0.0874  0.1343 -0.7273
  813SOL     OW 3337   3.334   2.127   4.291  0.1329 -0.2754  0.3847
  813SOL    HW1 3338   3.246   2.154   4.329  0.4539  1.6765 -0.1323
  813SOL    HW2 3339   3.347   2.171   4.202  1.5397 -0.6628  0.3668
  814SOL     OW 3340   6.616   3.660   0.669  0.1343  0.1674  0.1399
  814SOL    HW1 3341   6.556   3.628   0.742  0.2040  0.9539  0.5503
  814SOL    HW2 3342   6.594   3.755   0.646  0.9696  0.3456  0.0412
  815SOL     OW 3343   3.643   1.119   3.458  0.5471 -0.1883 -0.2086
  815SOL    HW1 3344   3.548   1.146   3.441 -0.4393 -1.8879  1.9994
  815SOL    HW2 3345   3.646   1.023   3.485  2.7940  0.0655  0.6636
  816SOL     OW 3346   6.202   5.379   4.891 -0.0331  0.2289  0.1293
  816SOL    HW1 3347   6.169   5.469   4.918  0.3112 -0.4903  3.3266
  816SOL    HW2 3348   6.302   5.379   4.893 -0.0025  0.0316 -0.9092
  817SOL     OW 3349   5.113   6.367   2.139 -0.5345  0.0410 -0.0094
  817SOL    HW1 3350   5.014   6.381   2.128 -0.9970 -1.1489  2.1154
  817SOL    HW2 3351   5.159   6.456   2.132 -1.8055  0.7114 -0.3471
  818SOL     OW 3352   5.965   1.083   4.134 -0.0284  0.6306 -0.0725
  818SOL    HW1 3353   6.033   1.085   4.206 -0.8982  0.9427  0.7612
  818SOL    HW2 3354   6.010   1.074   4.045  1.0503  0.2388  0.5031
  819SOL     OW 3355   4.797   1.404   2.377 -0.2969  0.1343  0.1231
  819SOL    HW1 3356   4.772   1.334   2.311  0.2925 -0.3494  0.4088
  819SOL    HW2 3357   4.847   1.477   2.330  0.5161 -0.4228  0.0981
  820SOL     OW 3358   4.238   1.919   5.619  0.5913  0.3151  0.4661
  820SOL    HW1 3359   4.310   1.962   5.674 -1.3910  3.1149  1.0487
  820SOL    HW2 3360   4.149   1.950   5.650 -0.7741 -0.4254 -2.3720
  821SOL     OW 3361   4.003   4.982   6.420  0.0035  0.1404 -0.0451
  821SOL    HW1 3362   3.977   5.078   6.422 -0.8646 -0.0358 -1.4407
  821SOL    HW2 3363   3.957   4.933   6.494 -0.2242  0.6340  0.1415
  822SOL     OW 3364   0.278   5.678   2.749  1.0192 -0.0641  0.1199
  822SOL    HW1 3365   0.191   5.711   2.784  0.4476 -1.0420 -0.3126
  822SOL    HW2 3366   0.351   5.702   2.812  0.3839  0.4620  0.6682
  823SOL     OW 3367   1.834   3.138   3.639  0.2218  0.2784  0.1833
  823SOL    HW1 3368   1.912   3.148   3.576 -0.3541  0.8860 -0.4539
  823SOL    HW2 3369   1.867   3.108   3.728  1.2989  1.3618  0.1824
  824SOL     OW 3370   3.328   1.371   4.391  0.1296 -0.2830 -0.4874
  824SOL    HW1 3371   3.232   1.379   4.416 -0.0393 -0.9922 -0.8749
  824SOL    HW2 3372   3.377   1.454   4.417  0.1662 -1.2537  2.9557
  825SOL     OW 3373   6.748   6.435   1.566  0.1923  0.3240 -0.2232
  825SOL    HW1 3374   6.842   6.457   1.590 -0.0763 -0.0237  1.2762
  825SOL    HW2 3375   6.724   6.345   1.603 -1.3882  1.3498  1.4542
  826SOL     OW 3376   4.016   4.133   1.380  0.6080 -0.0290 -0.7905
  826SOL    HW1 3377   4.043   4.211   1.436 -0.3796  1.0752 -1.7928
  826SOL    HW2 3378   3.976   4.062   1.438 -0.3599  1.0644 -0.0895
  827SOL     OW 3379   3.525   2.729   5.553  0.4579  0.9863 -0.0836
  827SOL    HW1 3380   3.572   2.747   5.466 -0.3537  1.4927 -0.4261
  827SOL    HW2 3381   3.503   2.632   5.560  1.2067  0.8111 -0.0938
  828SOL     OW 3382   6.461   2.354   6.998  0.1261  0.0526  0.1888
  828SOL    HW1 3383   6.455   2.259   6.968  1.7045  0.0237 -0.1412
  828SOL    HW2 3384   6.440   2.415   6.922 -0.1227 -0.0367  0.1873
  829SOL     OW 3385   2.624   1.339   1.060 -0.5453 -0.0890  0.3936
  829SOL    HW1 3386   2.665   1.345   1.152  2.5616  0.9633 -0.9201
  829SOL    HW2 3387   2.565   1.418   1.045  0.2483  0.6413  0.9553
  830SOL     OW 3388   1.250   3.993   5.848 -0.1554  0.0798 -1.0619
  830SOL    HW1 3389   1.216   3.940   5.926 -0.5919  0.4194 -1.0181
  830SOL    HW2 3390   1.242   3.939   5.765  1.6095 -0.8270 -0.6932
  831SOL     OW 3391   5.574   2.605   5.646 -0.2910  0.0631  0.4532
  831SOL    HW1 3392   5.612   2.657   5.723 -0.7343  0.0457  0.6875
  831SOL    HW2 3393   5.483   2.639   5.625 -0.6977 -0.7879  0.7855
  832SOL     OW 3394   3.125   0.514   5.561  0.2724 -0.5532  0.6013
  832SOL    HW1 3395   3.102   0.434   5.506 -3.9764  0.0402  1.2362
  832SOL    HW2 3396   3.125   0.595   5.502 -0.0418 -0.4457  0.7490
  833SOL     OW 3397   5.828   3.693   6.047  0.7008 -0.2711 -0.0698
  833SOL    HW1 3398   5.920   3.725   6.067  1.1306 -1.2692 -0.3889
  833SOL    HW2 3399   5.829   3.640   5.962 -0.1965 -0.1578 -0.1588
  834SOL     OW 3400   6.272   2.803   2.393  0.3969  0.1496  0.0537
  834SOL    HW1 3401   6.351   2.857   2.421 -0.4473  0.5877  1.7732
  834SOL    HW2 3402   6.189   2.842   2.434 -0.5238 -1.1387 -0.5161
  835SOL     OW 3403   6.739   0.057   5.558  0.4263  0.2425  0.7856
  835SOL    HW1 3404   6.823   0.054   5.504  0.8280 -0.1260  1.4207
  835SOL    HW2 3405   6.683   0.135   5.528  1.6866  1.4312  1.3723
  836SOL     OW 3406   6.691   6.856   5.214  0.1421  0.1389 -0.4441
  836SOL    HW1 3407   6.768   6.920   5.205 -0.3499  0.6501 -1.1394
  836SOL    HW2 3408   6.670   6.843   5.311 -0.3359  1.7763 -0.2976
  837SOL     OW 3409   6.526   0.263   5.450  0.2393 -0.2409 -0.0599
  837SOL    HW1 3410   6.492   0.300   5.536  0.8380 -1.3668  0.6968
  837SOL    HW2 3411   6.449   0.237   5.392 -0.2233 -1.2352  0.9499
  838SOL     OW 3412   0.812   3.939   2.317 -0.1328 -0.3104 -0.6535
  838SOL    HW1 3413   0.878   3.884   2.265  0.6215 -0.1810  0.1463
  838SOL    HW2 3414   0.760   3.880   2.378  0.1845 -0.2374 -0.3088
  839SOL     OW 3415   1.152   0.936   5.062  0.3061  0.1977 -0.0325
  839SOL    HW1 3416   1.158   0.943   4.962 -2.0315 -1.4422 -0.3801
  839SOL    HW2 3417   1.129   1.025   5.100  0.1025  0.6095 -1.0746
  840SOL     OW 3418   3.251   5.314   0.355 -0.2108 -0.2989 -0.1638
  840SOL    HW1 3419   3.159   5.290   0.326  0.1364  1.3480 -2.9783
  840SOL    HW2 3420   3.304   5.231   0.374 -2.0472 -1.2687  0.9737
  841SOL     OW 3421   3.476   5.216   6.605  0.1894 -0.2728 -0.0689
  841SOL    HW1 3422   3.396   5.160   6.625  0.2287  0.4195  2.3167
  841SOL    HW2 3423   3.449   5.313   6.603  0.7155 -0.1292 -0.8064
  842SOL     OW 3424   2.991   6.943   0.517 -0.0853  0.2725 -0.0529
  842SOL    HW1 3425   2.981   7.025   0.573 -2.0478  0.8599 -1.1554
  842SOL    HW2 3426   3.020   6.970   0.425  2.1527 -0.5869  0.3493
  843SOL     OW 3427   1.548   0.331   3.540  0.0519 -0.2443  0.0055
  843SOL    HW1 3428   1.472   0.358   3.481  0.5513 -0.6094 -0.8355
  843SOL    HW2 3429   1.591   0.249   3.503  1.7248  0.7331 -0.3614
  844SOL     OW 3430   1.333   6.711   1.310  1.0379 -0.1683  0.0471
  844SOL    HW1 3431   1.403   6.706   1.381  1.7549  1.1172 -0.5407
  844SOL    HW2 3432   1.372   6.751   1.227 -0.5194  1.1042 -0.1143
  845SOL     OW 3433   4.074   0.230   2.640 -0.1410 -0.5453  0.3595
  845SOL    HW1 3434   3.982   0.209   2.673 -1.0833 -0.3219 -1.8951
  845SOL    HW2 3435   4.085   0.192   2.548  1.5596  0.5450  0.0781
  846SOL     OW 3436   2.296   6.814   1.999  0.2062  0.2432 -0.2414
  846SOL    HW1 3437   2.202   6.783   1.987  0.5060 -1.3128  1.0954
  846SOL    HW2 3438   2.307   6.904   1.957 -1.3978 -0.3101 -1.9777
  847SOL     OW 3439   1.578   2.598   0.669  0.1098  0.3916  0.0989
  847SOL    HW1 3440   1.485   2.570   0.643  0.3948 -2.4267  1.6243
  847SOL    HW2 3441   1.643   2.559   0.604  0.4205 -1.4885  1.4352
  848SOL     OW 3442   0.741   5.913   2.218  0.2687  0.3833  0.1617
  848SOL    HW1 3443   0.801   5.914   2.299  3.1361  0.2535 -1.8010
  848SOL    HW2 3444   0.775   5.979   2.151 -2.8069  1.4357 -0.5133
  849SOL     OW 3445   6.019   2.663   0.430 -0.1012  1.1449  0.1361
  849SOL    HW1 3446   6.055   2.641   0.340  2.3043  4.1116  0.2336
  849SOL    HW2 3447   5.938   2.721   0.420  1.1842  2.9372 -0.1887
  850SOL     OW 3448   2.569   1.832   4.325  0.1377 -0.4634 -0.3022
  850SOL    HW1 3449   2.648   1.786   4.285  2.0788  1.1249  1.4700
  850SOL    HW2 3450   2.536   1.778   4.404 -2.0974 -2.2827 -2.3106
  851SOL     OW 3451   4.649   2.658   5.871 -0.5734 -0.4267  0.0821
  851SOL    HW1 3452   4.581   2.730   5.881 -0.1753 -0.0436  0.0762
  851SOL    HW2 3453   4.660   2.610   5.959 -0.0299  0.2557  0.3917
  852SOL     OW 3454   0.244   4.187   1.361  0.2438  0.1710  0.6880
  852SOL    HW1 3455   0.325   4.149   1.405 -0.0014  0.1410  1.1234
  852SOL    HW2 3456   0.269   4.267   1.307  0.7754 -0.6354 -0.2788
  853SOL     OW 3457   3.996   3.736   0.218  0.3391  0.0796  0.2062
  853SOL    HW1 3458   4.078   3.791   0.200 -1.3633  2.2210 -1.6587
  853SOL    HW2 3459   4.006   3.646   0.175  2.4658 -0.5213  1.7873
  854SOL     OW 3460   6.003   1.749   6.764  1.0369 -0.3461 -0.3048
  854SOL    HW1 3461   5.969   1.838   6.733 -1.0495  0.1925  3.0310
  854SOL    HW2 3462   5.935   1.679   6.744  1.3033 -0.6510 -0.1501
  855SOL     OW 3463   4.800   3.023   5.880 -0.1039 -0.0837 -0.1645
  855SOL    HW1 3464   4.838   2.945   5.929 -0.2370 -0.1380 -0.1476
  855SOL    HW2 3465   4.773   3.094   5.947  1.8244  0.8064 -0.2676
  856SOL     OW 3466   1.056   5.911   0.478  0.0209 -0.0135 -0.6985
  856SOL    HW1 3467   1.125   5.979   0.502  0.6758 -0.3855 -1.5252
  856SOL    HW2 3468   1.086   5.858   0.399 -1.5543  0.3450 -1.5837
  857SOL     OW 3469   6.988   6.548   6.269 -0.5465  0.3570  0.6279
  857SOL    HW1 3470   6.987   6.453   6.237 -0.7718  0.7065 -0.4560
  857SOL    HW2 3471   7.083   6.580   6.274 -0.5021  0.2912  0.2886
  858SOL     OW 3472   3.215   3.723   0.615  0.0927 -0.5640 -0.2552
  858SOL    HW1 3473   3.179   3.754   0.526  1.0961 -1.0967 -0.8659
  858SOL    HW2 3474   3.187   3.788   0.686 -1.5015 -0.6052 -0.7920
  859SOL     OW 3475   1.918   7.014   5.600  0.5648  0.0982 -0.3879
  859SOL    HW1 3476   1.965   6.942   5.651 -0.6017 -0.0799  0.4840
  859SOL    HW2 3477   1.824   7.023   5.635  1.1316  3.1310  0.6070
  860SOL     OW 3478   4.959   3.693   0.764 -0.2760  0.4485 -0.1307
  860SOL    HW1 3479   4.990   3.781   0.799 -0.1342 -0.3518  1.9055
  860SOL    HW2 3480   4.861   3.697   0.747 -0.1834  1.1416 -0.5355
  861SOL     OW 3481   1.219   6.333   2.407 -0.2298  0.5986 -0.2480
  861SOL    HW1 3482   1.298   6.275   2.384 -0.9292 -0.5746  0.1976
  861SOL    HW2 3483   1.172   6.359   2.322 -1.0568 -1.2024 -0.4094
  862SOL     OW 3484   6.924   5.413   4.769  0.3459 -0.7120 -0.6227
  862SOL    HW1 3485   6.935   5.503   4.809 -0.7739 -0.3457 -1.1117
  862SOL    HW2 3486   6.979   5.406   4.686  1.3726 -0.9079  0.0563
  863SOL     OW 3487   3.961   0.767   1.302 -0.7453 -0.0728  0.1888
  863SOL    HW1 3488   3.890   0.818   1.350 -0.7442 -1.0188  1.2535
  863SOL    HW2 3489   4.043   0.762   1.360 -0.6422 -1.0083 -0.0138
  864SOL     OW 3490   6.981   1.386   2.710 -0.5400  0.3131 -0.1861
  864SOL    HW1 3491   6.978   1.485   2.723 -1.3304  0.3013 -0.2600
  864SOL    HW2 3492   6.924   1.360   2.632  0.8060 -0.0633 -1.0778
  865SOL     OW 3493   2.601   5.753   4.530 -0.2058  0.0723  0.0866
  865SOL    HW1 3494   2.616   5.837   4.582 -0.1125  0.4845 -0.5922
  865SOL    HW2 3495   2.688   5.721   4.492 -0.2174 -0.4116  0.4462
  866SOL     OW 3496   4.566   5.907   0.514  1.3292 -1.0624 -0.8234
  866SOL    HW1 3497   4.556   5.810   0.494 -1.9080 -0.9958 -0.1984
  866SOL    HW2 3498   4.487   5.957   0.478  1.8957  1.0200  0.6075
  867SOL     OW 3499   6.465   5.336   4.860  0.4558  0.1573 -0.3887
  867SOL    HW1 3500   6.511   5.308   4.945 -0.9462 -1.7067 -0.1952
  867SOL    HW2 3501   6.446   5.256   4.804 -2.9036  0.7461 -0.2610
  868SOL     OW 3502   2.173   2.144   1.317  0.4685  0.1521  0.2869
  868SOL    HW1 3503   2.199   2.198   1.236  1.2080  1.9582  1.6525
  868SOL    HW2 3504   2.125   2.203   1.381  1.2599 -0.8477  1.8471
  869SOL     OW 3505   1.254   3.769   1.364 -0.1422  0.5823 -0.2116
  869SOL    HW1 3506   1.308   3.744   1.444 -0.6250  0.1187 -0.0283
  869SOL    HW2 3507   1.311   3.821   1.301  1.5969 -2.7043 -1.5982
  870SOL     OW 3508   4.437   4.724   0.521  0.2937  0.1058 -0.0865
  870SOL    HW1 3509   4.482   4.684   0.441 -1.4988  0.3131 -1.2320
  870SOL    HW2 3510   4.350   4.678   0.537 -1.5038  2.9262 -0.9982
  871SOL     OW 3511   4.609   1.049   3.618  0.1271 -0.5514  0.2886
  871SOL    HW1 3512   4.649   1.109   3.549  0.6532 -0.5122  0.6179
  871SOL    HW2 3513   4.589   0.960   3.578 -0.3263 -0.2696 -0.1150
  872SOL     OW 3514   2.339   1.074   5.553  0.0534 -0.4411  0.0456
  872SOL    HW1 3515   2.336   1.170   5.579  0.0049  0.5280 -3.0851
  872SOL    HW2 3516   2.425   1.054   5.507 -1.2734 -0.8545 -2.4938
  873SOL     OW 3517   2.933   0.033   4.724 -0.1245  0.0988  0.5936
  873SOL    HW1 3518   3.032   0.020   4.736 -0.5870 -3.2392  1.9697
  873SOL    HW2 3519   2.899   0.095   4.795  1.1079  2.7369 -0.9498
  874SOL     OW 3520   0.109   2.964   1.996  0.5672 -0.4322  0.3891
  874SOL    HW1 3521   0.168   2.902   2.049  0.6408 -0.1600  0.6266
  874SOL    HW2 3522   0.166   3.018   1.933  0.4044 -1.2931 -0.5238
  875SOL     OW 3523   5.575   4.872   1.860 -0.2063  0.2593 -0.4044
  875SOL    HW1 3524   5.531   4.799   1.911  1.6594  0.0472  1.0131
  875SOL    HW2 3525   5.532   4.881   1.770 -0.2776 -2.8545 -0.8025
  876SOL     OW 3526   1.488   2.558   6.932 -0.6815 -0.0794  0.0544
  876SOL    HW1 3527   1.482   2.459   6.918 -0.8963  0.1203 -1.5345
  876SOL    HW2 3528   1.551   2.597   6.865  1.0256  0.6438  1.9915
  877SOL     OW 3529   0.898   4.528   6.891 -0.7866 -0.3074  0.3664
  877SOL    HW1 3530   0.964   4.533   6.966 -0.4747  0.2679  0.0633
  877SOL    HW2 3531   0.934   4.579   6.813 -1.6885  0.2100  0.2785
  878SOL     OW 3532   4.896   5.830   4.495  0.4032  0.2520  0.1710
  878SOL    HW1 3533   4.826   5.817   4.425  0.3733 -1.9970  0.5370
  878SOL    HW2 3534   4.987   5.814   4.456  0.4030 -0.7752  0.5475
  879SOL     OW 3535   0.229   0.607   6.008 -0.4216 -0.0216  0.3147
  879SOL    HW1 3536   0.302   0.605   6.076 -0.0606 -1.1974 -0.0755
  879SOL    HW2 3537   0.218   0.515   5.969 -0.7130  0.5953 -1.1023
  880SOL     OW 3538   3.549   4.060   3.060 -0.2784  0.3056  0.5996
  880SOL    HW1 3539   3.619   4.038   3.128  1.2574  1.5141 -0.5280
  880SOL    HW2 3540   3.533   3.979   3.003  1.0623  0.3113  0.1601
  881SOL     OW 3541   5.199   3.895   6.537 -0.0488 -0.0164  0.1102
  881SOL    HW1 3542   5.288   3.914   6.496 -0.3161 -1.1985 -1.0910
  881SOL    HW2 3543   5.163   3.978   6.579  0.9214  0.8578 -0.7391
  882SOL     OW 3544   2.110   1.167   2.206  0.3994  0.4729 -0.5455
  882SOL    HW1 3545   2.170   1.165   2.286 -2.1778  0.7524  1.5307
  882SOL    HW2 3546   2.085   1.074   2.181  0.3959  0.4168 -0.3401
  883SOL     OW 3547   3.594   0.696   3.777  0.4500  0.6850  0.4035
  883SOL    HW1 3548   3.497   0.700   3.752  0.9905 -1.3768 -2.4447
  883SOL    HW2 3549   3.624   0.787   3.805 -1.6052  2.0722 -1.5239
  884SOL     OW 3550   1.015   2.918   6.190 -0.4245  0.0752  0.9903
  884SOL    HW1 3551   1.096   2.882   6.237 -1.1250 -1.2946  1.1938
  884SOL    HW2 3552   1.035   2.928   6.093 -0.2197 -0.8930  0.9275
  885SOL     OW 3553   4.167   6.064   6.081  0.2288  0.2734  0.2456
  885SOL    HW1 3554   4.226   6.006   6.137  0.7090 -1.0803 -1.5598
  885SOL    HW2 3555   4.220   6.104   6.007 -0.8120  0.2505 -0.5409
  886SOL     OW 3556   3.972   1.071   6.562 -0.3147 -0.4692 -0.3163
  886SOL    HW1 3557   3.962   1.020   6.647 -0.6486 -1.2907 -0.8338
  886SOL    HW2 3558   4.065   1.107   6.556  0.5637 -2.6606 -0.8096
  887SOL     OW 3559   1.297   6.906   1.968  0.4613 -0.0195  0.2388
  887SOL    HW1 3560   1.205   6.944   1.963 -0.5379 -2.3964 -1.0878
  887SOL    HW2 3561   1.311   6.842   1.892  3.2280  0.2727  0.4011
  888SOL     OW 3562   6.441   6.233   2.590 -0.0403 -0.3889 -0.3031
  888SOL    HW1 3563   6.464   6.244   2.687  0.4152 -1.0560 -0.3286
  888SOL    HW2 3564   6.381   6.308   2.562  0.5247  0.2914  0.2633
  889SOL     OW 3565   0.796   6.501   2.157  0.2381  0.1427  0.1501
  889SOL    HW1 3566   0.868   6.468   2.218  2.1876 -0.9197 -2.4833
  889SOL    HW2 3567   0.743   6.423   2.123 -0.6454  0.6765  0.2875
  890SOL     OW 3568   2.882   1.800   5.242  0.0860 -0.1416  0.5321
  890SOL    HW1 3569   2.908   1.823   5.149  0.4920 -0.6808  0.5055
  890SOL    HW2 3570   2.821   1.870   5.279 -0.2568 -0.0450 -0.2161
  891SOL     OW 3571   5.225   4.787   3.613  0.5273 -0.0249  0.3304
  891SOL    HW1 3572   5.237   4.788   3.514 -1.3950  0.9462  0.0619
  891SOL    HW2 3573   5.203   4.694   3.643 -2.1443  0.1917 -0.6660
  892SOL     OW 3574   3.020   2.318   0.174 -0.6547 -0.0571 -0.5681
  892SOL    HW1 3575   3.071   2.285   0.254 -1.5494 -2.4578 -0.8907
  892SOL    HW2 3576   3.038   2.415   0.160 -0.3918  0.4162  2.4737
  893SOL     OW 3577   2.248   4.647   2.214  0.2137 -0.1148 -0.1498
  893SOL    HW1 3578   2.169   4.702   2.242  0.3017 -0.1440  0.1610
  893SOL    HW2 3579   2.267   4.664   2.117 -0.1745 -0.1112 -0.2295
  894SOL     OW 3580   1.728   4.957   1.151  0.2849 -0.8035  0.0576
  894SOL    HW1 3581   1.759   5.052   1.141 -0.4932 -0.5679 -0.2609
  894SOL    HW2 3582   1.630   4.957   1.173  0.1121 -1.5436 -0.6676
  895SOL     OW 3583   6.751   0.388   5.363  0.3339  0.3405  0.2334
  895SOL    HW1 3584   6.670   0.332   5.380  1.4479 -1.0259  1.2501
  895SOL    HW2 3585   6.765   0.397   5.265 -2.0679  2.1815 -0.0471
  896SOL     OW 3586   5.549   0.938   5.444 -0.1700  0.9819  0.2156
  896SOL    HW1 3587   5.549   0.933   5.544 -1.6049 -3.2680  0.2057
  896SOL    HW2 3588   5.454   0.940   5.411  0.0371 -2.3997 -0.9519
  897SOL     OW 3589   6.527   3.641   6.300 -0.2023  0.6465 -0.0757
  897SOL    HW1 3590   6.575   3.704   6.239  1.4050 -1.2795 -0.9466
  897SOL    HW2 3591   6.444   3.684   6.334  0.2242  2.7779 -1.5094
  898SOL     OW 3592   5.091   2.276   5.122  0.2361 -0.5190 -1.0278
  898SOL    HW1 3593   5.115   2.188   5.079 -0.7659 -0.3548 -1.9665
  898SOL    HW2 3594   5.092   2.348   5.052  1.7947  0.3812 -0.1251
  899SOL     OW 3595   6.581   0.026   0.548 -0.5265  0.3630 -0.4902
  899SOL    HW1 3596   6.567  -0.058   0.600  1.1403  1.3180  1.6497
  899SOL    HW2 3597   6.492   0.062   0.518 -1.3677 -1.3453 -0.1665
  900SOL     OW 3598   3.487   6.177   4.283  0.0235 -0.5621 -0.0863
  900SOL    HW1 3599   3.532   6.170   4.194 -0.3379 -1.1487 -0.2319
  900SOL    HW2 3600   3.553   6.203   4.353 -0.2843  3.5784 -1.0702
  901SOL     OW 3601   1.160   2.356   0.907  0.4281 -0.1049  0.1994
  901SOL    HW1 3602   1.122   2.316   0.824  0.8829  0.3041 -0.2149
  901SOL    HW2 3603   1.172   2.455   0.893  0.7995 -0.0862  0.6419
  902SOL     OW 3604   1.706   4.051   2.950  0.3729  0.6756 -0.2767
  902SOL    HW1 3605   1.683   3.998   2.869  1.5602  1.5646 -1.2394
  902SOL    HW2 3606   1.691   3.995   3.032 -0.8136 -0.2477 -1.0891
  903SOL     OW 3607   4.137   6.860   0.855  0.1608  0.0333  0.4902
  903SOL    HW1 3608   4.202   6.815   0.916  0.9771  0.8456  0.2340
  903SOL    HW2 3609   4.155   6.958   0.853 -0.8318  0.2197  0.1145
  904SOL     OW 3610   3.842   6.942   2.858  0.1312 -0.0012  0.2282
  904SOL    HW1 3611   3.832   6.897   2.947  0.3024  1.1200  0.8297
  904SOL    HW2 3612   3.935   6.926   2.824 -0.5997 -2.3360 -0.8466
  905SOL     OW 3613   4.161   0.004   6.251 -0.6116  0.3948  0.0144
  905SOL    HW1 3614   4.108   0.010   6.166 -0.3623 -0.2458 -0.1918
  905SOL    HW2 3615   4.233  -0.064   6.240 -0.4464  0.4624  0.6735
  906SOL     OW 3616   5.818   2.630   2.784  0.2306 -0.0451 -0.2404
  906SOL    HW1 3617   5.823   2.705   2.850 -0.3948 -0.3033  0.1022
  906SOL    HW2 3618   5.907   2.620   2.739 -0.3814  2.8061 -2.4255
  907SOL     OW 3619   5.006   3.754   0.490 -0.5838  0.1171 -0.2168
  907SOL    HW1 3620   4.944   3.766   0.412  0.6077 -0.5670 -1.2916
  907SOL    HW2 3621   4.983   3.670   0.539 -0.6462 -0.0143 -0.4740
  908SOL     OW 3622   7.012   4.309   4.002 -0.0869  0.2706  0.3415
  908SOL    HW1 3623   7.060   4.362   3.932 -1.3662  0.4587 -0.4147
  908SOL    HW2 3624   7.008   4.213   3.974  2.3324 -0.3503  1.7631
  909SOL     OW 3625   4.849   5.064   6.293 -0.4713 -0.0696 -0.2462
  909SOL    HW1 3626   4.860   5.126   6.215 -0.5474  4.1191  2.6879
  909SOL    HW2 3627   4.939   5.043   6.331 -0.5277 -0.6257 -0.4143
  910SOL     OW 3628   4.150   5.942   0.646 -0.1378  0.6806 -0.2097
  910SOL    HW1 3629   4.189   5.851   0.629 -0.6446  0.3399  0.3854
  910SOL    HW2 3630   4.223   6.009   0.655  0.5593 -0.3403  3.3319
  911SOL     OW 3631   3.385   3.541   0.195  0.2752 -0.0690 -0.1496
  911SOL    HW1 3632   3.423   3.451   0.172 -0.1037 -0.8199  1.9729
  911SOL    HW2 3633   3.459   3.602   0.221  0.4546  0.0008 -0.7978
  912SOL     OW 3634   6.121   1.678   5.061 -0.3698 -0.3472  0.4674
  912SOL    HW1 3635   6.154   1.584   5.072 -1.2305 -0.5731  1.3073
  912SOL    HW2 3636   6.075   1.687   4.973  2.0871  0.0565 -0.8846
  913SOL     OW 3637   6.249   4.774   3.457 -0.1925 -0.1886 -0.1934
  913SOL    HW1 3638   6.246   4.674   3.457 -0.6050 -0.1962 -1.8438
  913SOL    HW2 3639   6.341   4.804   3.485  1.4774 -1.1893 -3.9211
  914SOL     OW 3640   2.816   5.706   4.001  0.0411 -0.6151  0.4426
  914SOL    HW1 3641   2.908   5.676   3.974  0.7727  0.5756  1.4643
  914SOL    HW2 3642   2.756   5.627   4.010 -0.1223 -1.2128 -3.7997
  915SOL     OW 3643   5.881   3.116   2.300 -0.4002 -0.3877  0.4170
  915SOL    HW1 3644   5.783   3.105   2.283 -0.1623 -2.4261  0.0669
  915SOL    HW2 3645   5.932   3.088   2.219  0.5451 -2.9040  1.7771
  916SOL     OW 3646   0.618   5.009   2.792 -0.1380  0.3807  1.3261
  916SOL    HW1 3647   0.655   5.066   2.718 -1.8311 -0.8315 -0.5787
  916SOL    HW2 3648   0.520   5.030   2.802 -0.6654 -1.7181  0.9639
  917SOL     OW 3649   5.069   1.786   6.720 -0.2161  0.3651  0.1778
  917SOL    HW1 3650   5.127   1.775   6.800 -0.7998 -2.6578  0.3218
  917SOL    HW2 3651   4.973   1.780   6.747 -0.5857  2.9423 -0.3506
  918SOL     OW 3652   2.961   6.151   5.753 -0.2392 -0.6359  0.3333
  918SOL    HW1 3653   2.967   6.121   5.848 -0.6043 -2.6266 -0.2378
  918SOL    HW2 3654   3.021   6.230   5.740  0.5645 -0.9192  1.9722
  919SOL     OW 3655   4.856   0.422   4.659 -0.5440 -0.1994 -0.8255
  919SOL    HW1 3656   4.819   0.512   4.639 -0.7506 -0.3744 -1.2501
  919SOL    HW2 3657   4.955   0.430   4.675 -0.6794  0.1977 -0.1489
  920SOL     OW 3658   3.241   4.201   1.664  0.5781 -0.4104  0.1388
  920SOL    HW1 3659   3.332   4.192   1.704  0.7138  2.3384  0.5942
  920SOL    HW2 3660   3.241   4.158   1.573  2.1805 -0.8315  0.3070
  921SOL     OW 3661   5.853   6.732   6.046 -0.2126  0.1471  0.5440
  921SOL    HW1 3662   5.854   6.632   6.054 -1.7915  0.0217 -0.4831
  921SOL    HW2 3663   5.931   6.770   6.096  1.0857 -1.6574 -0.0282
  922SOL     OW 3664   3.884   3.024   2.386 -0.4618 -0.1120  0.1685
  922SOL    HW1 3665   3.840   2.960   2.448  0.0593 -0.1418  0.5118
  922SOL    HW2 3666   3.967   3.061   2.429 -2.7416  3.8929  1.7689
  923SOL     OW 3667   3.850   3.748   6.954  0.8024  0.4810  0.3230
  923SOL    HW1 3668   3.908   3.822   6.919 -0.3985  1.5610  0.5545
  923SOL    HW2 3669   3.896   3.704   7.032  2.6886 -0.7768 -1.3788
  924SOL     OW 3670   0.526   3.406   1.433 -0.1992 -0.0658 -0.2821
  924SOL    HW1 3671   0.577   3.367   1.356  0.5448 -0.3922  0.3681
  924SOL    HW2 3672   0.490   3.496   1.406  1.3641  0.5229 -0.5260
  925SOL     OW 3673   1.331   0.766   0.110 -0.2041 -0.0087  0.8260
  925SOL    HW1 3674   1.302   0.671   0.128 -0.9328 -0.0458 -0.4178
  925SOL    HW2 3675   1.431   0.770   0.107 -0.1659 -1.0319 -0.4785
  926SOL     OW 3676   2.446   0.420   0.360 -0.7119  0.2558 -0.1188
  926SOL    HW1 3677   2.402   0.333   0.381 -0.1199  0.2983  1.4502
  926SOL    HW2 3678   2.442   0.480   0.440 -0.3342  1.3363 -0.8858
  927SOL     OW 3679   0.350   5.066   4.028  0.2133 -0.4652  0.1733
  927SOL    HW1 3680   0.251   5.053   4.016  0.6676 -2.8623 -1.8705
  927SOL    HW2 3681   0.372   5.163   4.022 -2.1094  0.2392  1.8839
  928SOL     OW 3682   2.299   4.097   3.948  0.1848  0.1339 -0.1428
  928SOL    HW1 3683   2.246   4.019   3.914 -0.9291  0.4683  0.7715
  928SOL    HW2 3684   2.292   4.101   4.048  2.1585  0.0508  0.0397
  929SOL     OW 3685   2.297   2.399   5.481 -0.1024 -0.1555 -0.0658
  929SOL    HW1 3686   2.380   2.423   5.533 -1.4072 -0.5096  2.3545
  929SOL    HW2 3687   2.301   2.440   5.390  1.8415  1.4706  0.6775
  930SOL     OW 3688   5.684   6.268   6.330 -0.9350 -0.5761 -0.2085
  930SOL    HW1 3689   5.639   6.258   6.419 -1.8721 -1.1830 -0.7287
  930SOL    HW2 3690   5.666   6.186   6.275  1.7573 -1.3680 -0.0490
  931SOL     OW 3691   5.344   0.201   3.141  0.6056  0.2700  0.2164
  931SOL    HW1 3692   5.437   0.177   3.169 -0.1169 -0.6022  2.0065
  931SOL    HW2 3693   5.286   0.120   3.143 -0.4820  1.0270  0.3565
  932SOL     OW 3694   3.643   6.443   3.612 -0.0750 -0.5165  0.5672
  932SOL    HW1 3695   3.565   6.460   3.672  0.4087  0.3887  0.9737
  932SOL    HW2 3696   3.616   6.383   3.537 -0.6234 -1.9114  1.8292
  933SOL     OW 3697   1.487   5.985   3.879  0.4865 -0.2249  0.3699
  933SOL    HW1 3698   1.410   6.042   3.909 -0.2470 -1.3330  0.6840
  933SOL    HW2 3699   1.484   5.975   3.780  1.2784  1.1664  0.1792
  934SOL     OW 3700   3.230   3.499   0.419  0.2042  0.0443 -0.0050
  934SOL    HW1 3701   3.227   3.591   0.458 -2.2047 -0.1516  0.3902
  934SOL    HW2 3702   3.297   3.497   0.344  0.0656  2.1946 -0.2470
  935SOL     OW 3703   4.740   3.668   0.132 -0.3527  0.3011  0.3324
  935SOL    HW1 3704   4.790   3.630   0.210 -1.9863 -1.5094  0.5613
  935SOL    HW2 3705   4.686   3.596   0.088 -0.4407  1.5461 -1.7399
  936SOL     OW 3706   2.829   2.149   0.539 -0.4376  0.3524  1.1111
  936SOL    HW1 3707   2.803   2.072   0.597 -0.0129 -0.5899  0.0717
  936SOL    HW2 3708   2.794   2.136   0.447  0.4672  0.9137  0.6663
  937SOL     OW 3709   3.733   4.001   0.436 -0.3011  0.2494 -0.1462
  937SOL    HW1 3710   3.645   4.010   0.389 -1.2175  2.0368  1.7625
  937SOL    HW2 3711   3.737   3.914   0.484 -1.7870  0.8619  1.1558
  938SOL     OW 3712   6.698   5.222   4.024 -0.1511  0.2014 -0.0742
  938SOL    HW1 3713   6.707   5.135   4.073 -0.1106 -0.1425 -0.6809
  938SOL    HW2 3714   6.724   5.297   4.084 -0.1545 -0.2100  0.4461
  939SOL     OW 3715   1.321   5.375   4.844  0.0070 -0.3036  0.3989
  939SOL    HW1 3716   1.240   5.317   4.855  0.1259 -0.2141  1.9301
  939SOL    HW2 3717   1.293   5.471   4.838  0.0387 -0.1707  2.0468
  940SOL     OW 3718   2.027   6.484   6.050  0.0381  0.3986 -0.0911
  940SOL    HW1 3719   2.058   6.538   5.971  2.9672 -0.3053  0.4570
  940SOL    HW2 3720   2.088   6.406   6.063 -0.4749  0.3788  2.7672
  941SOL     OW 3721   1.786   0.444   1.785 -0.2905  0.2462  0.2664
  941SOL    HW1 3722   1.712   0.510   1.783 -0.5716 -0.0750 -0.0739
  941SOL    HW2 3723   1.855   0.473   1.851  0.4432  1.7770 -1.1119
  942SOL     OW 3724   0.199   5.176   0.434 -0.1129  0.3059  0.6712
  942SOL    HW1 3725   0.204   5.096   0.374 -1.5515  0.8506 -0.2198
  942SOL    HW2 3726   0.251   5.251   0.394  0.0542  0.2559  0.7931
  943SOL     OW 3727   2.724   6.306   1.141  0.5881  0.2758 -0.0085
  943SOL    HW1 3728   2.738   6.405   1.151  0.5527  0.6819 -3.0182
  943SOL    HW2 3729   2.635   6.282   1.181 -0.3962  1.8949 -1.0616
  944SOL     OW 3730   6.590   4.198   4.003  0.1724  0.3033  0.0673
  944SOL    HW1 3731   6.496   4.168   4.017 -0.2003  1.4054  0.0532
  944SOL    HW2 3732   6.648   4.120   3.980 -0.8064 -0.3289 -0.2645
  945SOL     OW 3733   0.544   4.845   5.834  0.0286 -0.2906  0.4353
  945SOL    HW1 3734   0.496   4.932   5.848  0.7416  0.2007 -0.1388
  945SOL    HW2 3735   0.507   4.798   5.754  2.3954  1.4754 -1.8323
  946SOL     OW 3736   4.144   1.972   3.997  0.3408  0.3966  0.3137
  946SOL    HW1 3737   4.230   2.017   3.973  0.8311  0.4826  2.0826
  946SOL    HW2 3738   4.069   2.038   3.992  0.7855  0.9958  1.1933
  947SOL     OW 3739   3.959   3.279   2.177 -0.9671  0.7075 -0.1082
  947SOL    HW1 3740   3.881   3.341   2.181  0.1094  2.0767  0.2704
  947SOL    HW2 3741   3.999   3.269   2.268 -0.7294 -0.0341 -0.2834
  948SOL     OW 3742   3.581   1.704   4.868 -0.6821 -0.2952 -0.2257
  948SOL    HW1 3743   3.670   1.725   4.828 -1.0384  0.4255 -0.6604
  948SOL    HW2 3744   3.591   1.691   4.967 -0.4080  2.0186  0.1092
  949SOL     OW 3745   6.666   1.106   4.584 -0.2430 -0.6395 -0.0052
  949SOL    HW1 3746   6.749   1.119   4.529  0.3582 -1.2198  0.7410
  949SOL    HW2 3747   6.646   1.009   4.592 -1.0543 -0.4994 -0.2509
  950SOL     OW 3748   4.677   0.052   1.246 -0.1346  0.3944 -0.1123
  950SOL    HW1 3749   4.766   0.025   1.283  0.6310  1.7327 -0.8891
  950SOL    HW2 3750   4.630   0.113   1.310 -1.9062 -2.6423  1.6856
  951SOL     OW 3751   2.471   1.429   1.463  0.1989 -0.3095  0.2100
  951SOL    HW1 3752   2.470   1.458   1.559 -0.7301 -2.2293  0.8243
  951SOL    HW2 3753   2.382   1.393   1.438  0.3814  0.3218 -1.4587
  952SOL     OW 3754   3.277   0.059   2.774 -0.0529 -0.2144  0.4130
  952SOL    HW1 3755   3.179   0.061   2.752  0.2782 -1.2884 -1.4030
  952SOL    HW2 3756   3.306   0.151   2.801 -1.1440  0.6438 -1.1181
  953SOL     OW 3757   0.019   5.664   4.755 -0.2215 -0.0487 -0.3605
  953SOL    HW1 3758   0.008   5.678   4.657 -0.1726 -0.9567 -0.4965
  953SOL    HW2 3759   0.043   5.751   4.798  0.8395  0.1343 -1.3035
  954SOL     OW 3760   4.157   6.521   1.688  0.0457  0.2709  0.3013
  954SOL    HW1 3761   4.141   6.618   1.674  1.3873  0.8450  2.2362
  954SOL    HW2 3762   4.196   6.481   1.605  0.5223  1.6388 -0.1601
  955SOL     OW 3763   3.111   4.809   0.370  0.3991  0.2275 -0.5406
  955SOL    HW1 3764   3.153   4.747   0.304  1.3288  1.3273 -1.0116
  955SOL    HW2 3765   3.170   4.889   0.383 -0.8809  1.1418 -0.1485
  956SOL     OW 3766   4.523   6.778   0.912 -0.1374  0.1757  0.7067
  956SOL    HW1 3767   4.452   6.719   0.952 -1.2205  0.1727 -1.1299
  956SOL    HW2 3768   4.497   6.874   0.924 -2.3204  0.2055 -2.8834
  957SOL     OW 3769   1.112   0.118   2.963 -0.6628  0.0638 -0.0991
  957SOL    HW1 3770   1.190   0.108   2.902  0.2607  3.1122  0.4123
  957SOL    HW2 3771   1.027   0.109   2.911  0.0865  0.8755 -1.5158
  958SOL     OW 3772   4.067   4.928   0.439 -0.2364 -0.1582 -0.4821
  958SOL    HW1 3773   4.068   4.996   0.366  0.7399  0.1194 -0.2286
  958SOL    HW2 3774   4.006   4.853   0.414 -0.1559  0.0855 -1.4439
  959SOL     OW 3775   4.027   6.988   0.528 -0.6915 -0.7095 -0.0444
  959SOL    HW1 3776   4.097   6.918   0.513 -0.6647 -0.7321  0.1758
  959SOL    HW2 3777   4.071   7.074   0.554 -0.5791  0.0482 -2.5421
  960SOL     OW 3778   1.529   6.828   5.378 -0.1550 -0.3357  0.6801
  960SOL    HW1 3779   1.460   6.774   5.330 -0.0242 -0.0172  0.1292
  960SOL    HW2 3780   1.485   6.880   5.452 -0.6230  0.3788 -0.0882
  961SOL     OW 3781   6.286   1.238   4.193  0.3525 -0.3797  0.0125
  961SOL    HW1 3782   6.373   1.248   4.240  0.0215  4.6417  0.1256
  961SOL    HW2 3783   6.302   1.220   4.096  1.5876  0.7109 -0.0073
  962SOL     OW 3784   5.063   1.634   5.770  0.2979  0.0001 -0.0745
  962SOL    HW1 3785   5.044   1.539   5.747 -2.1620  0.0524  1.3965
  962SOL    HW2 3786   5.053   1.648   5.869 -2.2108  2.2744 -0.5118
  963SOL     OW 3787   5.248   1.138   2.597  0.1488 -0.7202  0.1295
  963SOL    HW1 3788   5.333   1.124   2.647  0.1041  0.4260  0.5704
  963SOL    HW2 3789   5.181   1.181   2.657 -0.5622 -1.1309 -0.3627
  964SOL     OW 3790   4.198   0.476   5.525  0.3642 -0.0370  0.6040
  964SOL    HW1 3791   4.230   0.445   5.435  1.2518  1.5334  0.3402
  964SOL    HW2 3792   4.123   0.541   5.514  0.5827  0.2870  0.9861
  965SOL     OW 3793   4.805   1.159   4.403  0.1043  0.4195 -0.5471
  965SOL    HW1 3794   4.900   1.177   4.428  0.1101  0.5577 -0.6677
  965SOL    HW2 3795   4.751   1.242   4.414 -0.2891  0.0214  0.8078
  966SOL     OW 3796   3.880   6.566   2.179 -0.4840  0.0555  0.1356
  966SOL    HW1 3797   3.828   6.630   2.235  0.3691  0.3018  0.6654
  966SOL    HW2 3798   3.978   6.587   2.186 -0.2392 -0.9349 -0.1458
  967SOL     OW 3799   4.248   0.803   5.704  0.1481 -0.0327 -0.3695
  967SOL    HW1 3800   4.184   0.726   5.709 -1.3505  0.9163 -2.9507
  967SOL    HW2 3801   4.332   0.774   5.658  1.0385 -0.8771  1.6403
  968SOL     OW 3802   4.881   5.244   6.083 -0.0033  0.0052  0.2645
  968SOL    HW1 3803   4.909   5.253   5.987  2.2706  0.2474  0.8958
  968SOL    HW2 3804   4.797   5.297   6.098  0.4427  1.2257 -1.2508
  969SOL     OW 3805   5.068   2.067   5.594 -0.3233  0.3642 -0.4893
  969SOL    HW1 3806   5.084   2.112   5.506 -0.1674  0.2404 -0.5248
  969SOL    HW2 3807   5.138   2.095   5.659 -0.8918  1.0788 -0.1625
  970SOL     OW 3808   3.585   0.235   4.485  0.2743  0.1967 -0.3693
  970SOL    HW1 3809   3.668   0.267   4.439 -0.1338  2.0121  0.0730
  970SOL    HW2 3810   3.536   0.171   4.426  1.1045  0.4345 -1.3396
  971SOL     OW 3811   4.530   2.173   2.361  0.1528  0.4139 -0.1144
  971SOL    HW1 3812   4.506   2.267   2.386  2.2046  0.9524  0.0353
  971SOL    HW2 3813   4.482   2.110   2.422 -2.0517  1.2674 -0.8615
  972SOL     OW 3814   1.910   2.152   0.298 -0.1505  0.0341  0.2821
  972SOL    HW1 3815   1.910   2.052   0.292 -3.0621 -0.0139 -0.7667
  972SOL    HW2 3816   1.922   2.191   0.207  0.6174  0.6498  0.6372
  973SOL     OW 3817   0.414   1.523   5.841 -0.4517  0.1501  0.1896
  973SOL    HW1 3818   0.459   1.610   5.821 -1.1253  0.4394 -0.0744
  973SOL    HW2 3819   0.425   1.502   5.938 -0.1357  0.4398  0.2186
  974SOL     OW 3820   2.373   3.351   0.670 -0.1764  0.2105 -0.5551
  974SOL    HW1 3821   2.420   3.434   0.640  0.9067 -0.3203 -0.3753
  974SOL    HW2 3822   2.396   3.275   0.608  0.7256 -0.4923  0.5959
  975SOL     OW 3823   3.667   0.163   1.960 -0.7111 -0.3318  0.5094
  975SOL    HW1 3824   3.677   0.138   1.864 -0.0068 -3.2781  1.2559
  975SOL    HW2 3825   3.710   0.252   1.976  1.5531 -0.9829 -1.4105
  976SOL     OW 3826   1.331   3.134   3.449  0.4110 -0.0143  0.0566
  976SOL    HW1 3827   1.406   3.133   3.383 -0.1240  0.5340 -0.5783
  976SOL    HW2 3828   1.245   3.115   3.401 -0.1010  1.2658  0.4235
  977SOL     OW 3829   2.078   3.562   1.782  0.2568  0.4641 -0.1229
  977SOL    HW1 3830   2.111   3.521   1.868  1.1845 -1.6966 -1.4113
  977SOL    HW2 3831   2.068   3.661   1.794 -1.7008  0.0401  3.0833
  978SOL     OW 3832   5.658   1.954   0.367 -0.1385  0.3426 -0.2670
  978SOL    HW1 3833   5.758   1.953   0.371  0.0120 -1.8537 -2.1265
  978SOL    HW2 3834   5.621   1.930   0.457  1.1260 -1.1391 -0.0997
  979SOL     OW 3835   0.498   5.909   0.328  0.2549 -0.3770  0.5656
  979SOL    HW1 3836   0.506   5.976   0.402  0.9281 -1.5905  1.6208
  979SOL    HW2 3837   0.453   5.826   0.362  0.6602 -0.9913 -0.3549
  980SOL     OW 3838   5.358   1.017   6.071  0.0486 -0.2183 -0.0226
  980SOL    HW1 3839   5.338   1.099   6.126  1.8829 -0.4906  1.1345
  980SOL    HW2 3840   5.447   0.980   6.098 -0.9542 -2.9275 -0.1399
  981SOL     OW 3841   0.682   6.246   6.064  0.6923  0.1507 -0.4446
  981SOL    HW1 3842   0.703   6.342   6.083  1.8637  0.0729 -1.2628
  981SOL    HW2 3843   0.713   6.189   6.141  1.5094  0.2796 -0.6619
  982SOL     OW 3844   0.914   2.738   5.657 -0.1636 -0.3306  0.4801
  982SOL    HW1 3845   1.013   2.745   5.647 -0.3146  1.0676 -0.2967
  982SOL    HW2 3846   0.889   2.643   5.679  1.1318 -1.3908 -2.1202
  983SOL     OW 3847   0.783   3.791   1.079 -0.3901  0.4140  0.1509
  983SOL    HW1 3848   0.860   3.817   1.020 -1.5269 -0.6174 -1.8782
  983SOL    HW2 3849   0.782   3.851   1.160  4.2326 -1.3081  1.8553
  984SOL     OW 3850   0.069   4.287   5.053 -0.3730 -0.3337  0.8537
  984SOL    HW1 3851   0.039   4.264   5.145 -0.1132 -2.0860  0.5276
  984SOL    HW2 3852   0.159   4.246   5.035 -0.9503 -1.0375 -0.5848
  985SOL     OW 3853   3.114   4.763   5.191  0.0002 -0.0951 -0.1589
  985SOL    HW1 3854   3.036   4.705   5.166  0.2636 -0.7830  0.5764
  985SOL    HW2 3855   3.099   4.802   5.282 -0.0051  0.7104 -0.4950
  986SOL     OW 3856   2.515   5.857   1.079 -0.0612  0.2884  0.5987
  986SOL    HW1 3857   2.575   5.790   1.035  1.2854  0.3012  2.3106
  986SOL    HW2 3858   2.507   5.938   1.021  0.0780 -0.4446 -0.4799
  987SOL     OW 3859   4.532   6.558   3.413 -0.1365 -0.3115  0.0952
  987SOL    HW1 3860   4.599   6.515   3.352  0.7902 -2.0935  2.2495
  987SOL    HW2 3861   4.579   6.602   3.489 -1.3327 -1.1508  1.3799
  988SOL     OW 3862   1.625   6.294   0.579 -0.7456  0.1539  0.2442
  988SOL    HW1 3863   1.539   6.336   0.608 -0.7994 -1.0197  1.9015
  988SOL    HW2 3864   1.684   6.280   0.659  0.2319 -0.7468 -0.6055
  989SOL     OW 3865   1.062   3.001   0.086 -0.4098  0.0178  0.3279
  989SOL    HW1 3866   1.125   3.017   0.161 -1.7462 -0.4149  1.5856
  989SOL    HW2 3867   1.010   2.918   0.103 -0.9181  0.0361 -0.9711
  990SOL     OW 3868   1.751   2.198   5.369 -0.0792 -0.0242  0.1834
  990SOL    HW1 3869   1.802   2.163   5.291 -1.2268  1.8752 -1.5046
  990SOL    HW2 3870   1.807   2.189   5.452  1.1073 -2.2318 -0.7730
  991SOL     OW 3871   1.241   1.165   3.827 -0.0466 -0.1559  0.3592
  991SOL    HW1 3872   1.183   1.166   3.908  0.7916 -3.1620  1.1192
  991SOL    HW2 3873   1.336   1.186   3.852 -0.0223  0.3091 -0.0966
  992SOL     OW 3874   0.230   1.860   2.943  0.0409 -0.0986  0.8081
  992SOL    HW1 3875   0.251   1.954   2.971  0.8120 -0.8528  2.9173
  992SOL    HW2 3876   0.188   1.862   2.852  0.3983  2.2434  0.6158
  993SOL     OW 3877   3.812   3.088   6.831 -0.1399 -0.1097 -0.0984
  993SOL    HW1 3878   3.871   3.099   6.910 -1.3650 -0.3864  0.8862
  993SOL    HW2 3879   3.759   3.003   6.840  0.3136 -0.6063 -1.6421
  994SOL     OW 3880   1.870   5.198   1.190  0.3457  0.1473 -0.0520
  994SOL    HW1 3881   1.905   5.263   1.122  1.8156  0.5422  1.0414
  994SOL    HW2 3882   1.844   5.247   1.273  0.3249 -0.5369  0.3504
  995SOL     OW 3883   6.152   3.439   5.248  0.1112  0.3223 -0.0061
  995SOL    HW1 3884   6.163   3.349   5.291  0.6440 -0.5986 -1.9339
  995SOL    HW2 3885   6.072   3.437   5.188 -0.2307  1.3613  0.3897
  996SOL     OW 3886   2.522   4.468   2.376  0.5769  0.1067  0.1711
  996SOL    HW1 3887   2.460   4.392   2.396  1.0681 -0.0782  1.0556
  996SOL    HW2 3888   2.587   4.441   2.305 -1.3697  0.8605 -2.0153
  997SOL     OW 3889   1.624   0.682   3.953 -0.1850  0.2200 -0.1705
  997SOL    HW1 3890   1.595   0.624   3.877 -1.3075  0.8065 -0.2181
  997SOL    HW2 3891   1.614   0.778   3.926 -0.4867  0.4302  0.6711
  998SOL     OW 3892   6.198   0.911   0.137 -0.2462  0.2834  0.3391
  998SOL    HW1 3893   6.249   0.863   0.066  1.3070  1.2625  0.7340
  998SOL    HW2 3894   6.239   0.893   0.227 -0.6670  1.0046  0.6881
  999SOL     OW 3895   6.907   1.349   2.203 -0.2118  0.0805  0.0024
  999SOL    HW1 3896   6.975   1.408   2.159 -0.4059  0.1753 -0.1714
  999SOL    HW2 3897   6.921   1.350   2.302 -0.8989  1.2949  0.1033
 1000SOL     OW 3898   5.635   1.012   3.788  0.3213  0.4136 -0.1918
 1000SOL    HW1 3899   5.727   0.982   3.816 -0.4064 -1.8210 -0.0217
 1000SOL    HW2 3900   5.597   1.071   3.860  1.8780  2.0670 -0.6312
 1001SOL     OW 3901   3.496   6.379   3.248  0.2471  0.0444 -0.0545
 1001SOL    HW1 3902   3.402   6.362   3.277  0.4568  0.1569  0.6978
 1001SOL    HW2 3903   3.501   6.468   3.203 -0.0423 -0.0555 -0.2953
 1002SOL     OW 3904   5.444   4.006   6.422 -0.2758  0.7836 -0.6950
 1002SOL    HW1 3905   5.515   4.015   6.492 -1.7895  0.4600  0.9472
 1002SOL    HW2 3906   5.480   3.952   6.346  1.2682  0.7133  0.0389
 1003SOL     OW 3907   0.013   0.513   4.551  0.4114 -0.0081 -0.5289
 1003SOL    HW1 3908   0.070   0.509   4.633  0.6253 -2.5459 -0.7288
 1003SOL    HW2 3909  -0.059   0.444   4.557 -0.3211  0.5880 -1.9623
 1004SOL     OW 3910   4.607   1.322   5.692 -0.3872  0.1954  0.3932
 1004SOL    HW1 3911   4.644   1.240   5.737 -1.3043  0.0346  0.8736
 1004SOL    HW2 3912   4.556   1.294   5.611 -2.0965  0.1037  1.4448
 1005SOL     OW 3913   0.441   0.327   3.675  0.0124 -0.1849 -0.8437
 1005SOL    HW1 3914   0.364   0.347   3.736  0.0125 -1.2108 -0.4902
 1005SOL    HW2 3915   0.415   0.347   3.581  0.3209  2.3215 -0.4706
 1006SOL     OW 3916   1.846   4.383   3.518 -0.1130 -0.3045 -0.5113
 1006SOL    HW1 3917   1.902   4.384   3.601 -2.5119 -1.4854  1.2107
 1006SOL    HW2 3918   1.815   4.476   3.498  0.0489 -0.0797  0.2390
 1007SOL     OW 3919   6.933   2.588   6.706 -0.6346 -0.5054  0.2225
 1007SOL    HW1 3920   6.885   2.557   6.624 -0.0619  0.3218 -0.4487
 1007SOL    HW2 3921   7.001   2.657   6.681 -1.2480  0.6212  1.5443
 1008SOL     OW 3922   0.352   3.816   4.102  0.0217  0.3075  0.5658
 1008SOL    HW1 3923   0.314   3.763   4.177  0.3863 -2.7954 -1.2617
 1008SOL    HW2 3924   0.442   3.779   4.077 -1.0838 -0.4536 -2.8718
 1009SOL     OW 3925   5.662   5.210   0.205 -0.0624 -0.6580  0.1122
 1009SOL    HW1 3926   5.701   5.302   0.201  0.3977 -0.8152  0.8267
 1009SOL    HW2 3927   5.606   5.194   0.124  1.2137 -0.3538 -0.8683
 1010SOL     OW 3928   3.705   2.508   0.767  0.7593 -0.1896  1.1676
 1010SOL    HW1 3929   3.644   2.584   0.787 -0.3746 -0.7199 -0.1558
 1010SOL    HW2 3930   3.763   2.530   0.688 -0.9959 -1.3938 -0.5462
 1011SOL     OW 3931   0.111   4.340   0.660 -1.0224 -0.4404 -0.0986
 1011SOL    HW1 3932   0.124   4.242   0.672 -2.6372 -0.7360 -0.5821
 1011SOL    HW2 3933   0.014   4.362   0.668 -0.5691  1.2940  1.1508
 1012SOL     OW 3934   5.966   5.863   2.734 -0.0014 -0.1947 -0.4682
 1012SOL    HW1 3935   5.901   5.817   2.794  1.3420 -0.8023  0.5558
 1012SOL    HW2 3936   6.023   5.794   2.687  0.4768  0.3470 -0.6951
 1013SOL     OW 3937   5.946   1.197   6.609 -0.2592 -0.2533  0.4585
 1013SOL    HW1 3938   5.862   1.230   6.652 -0.9249  0.9675 -1.6316
 1013SOL    HW2 3939   5.974   1.111   6.651 -2.3088 -0.4573  1.4959
 1014SOL     OW 3940   7.007   4.035   3.868  0.6873 -0.2596 -0.0528
 1014SOL    HW1 3941   7.048   3.957   3.915  0.6573 -0.6123 -0.5985
 1014SOL    HW2 3942   7.038   4.036   3.773 -0.8561 -0.7782 -0.5976
 1015SOL     OW 3943   1.403   0.557   6.646  0.3204  0.5121  0.4139
 1015SOL    HW1 3944   1.480   0.611   6.678  1.4519 -0.7502 -0.0868
 1015SOL    HW2 3945   1.325   0.617   6.629  1.0107  1.7399  1.4410
 1016SOL     OW 3946   0.280   6.441   0.312  0.5525 -0.3343 -0.6070
 1016SOL    HW1 3947   0.329   6.394   0.385 -0.4770  0.9951  1.0244
 1016SOL    HW2 3948   0.188   6.464   0.343  0.7794  2.1155 -1.5379
 1017SOL     OW 3949   0.875   6.107   0.554  0.3498  0.5238 -0.1361
 1017SOL    HW1 3950   0.883   6.109   0.654  1.5682 -0.9474 -0.1588
 1017SOL    HW2 3951   0.922   6.026   0.519 -0.9968  0.4155 -1.8303
 1018SOL     OW 3952   5.602   4.564   5.214  0.1387 -0.1169  0.3519
 1018SOL    HW1 3953   5.672   4.557   5.143  0.1375  2.6648 -0.0099
 1018SOL    HW2 3954   5.529   4.498   5.196  1.3084 -1.1334 -0.8234
 1019SOL     OW 3955   6.784   1.040   1.910  0.3024  0.3087 -0.6604
 1019SOL    HW1 3956   6.721   0.962   1.912  1.3617 -0.5615  0.2461
 1019SOL    HW2 3957   6.736   1.120   1.875 -0.8329 -0.7266 -1.5862
 1020SOL     OW 3958   3.972   1.005   2.642 -0.1358 -0.2739 -0.6360
 1020SOL    HW1 3959   3.991   1.019   2.739 -0.0159 -0.9064 -0.5610
 1020SOL    HW2 3960   3.878   1.034   2.622 -0.0967  0.0343 -0.3685
 1021SOL     OW 3961   1.163   0.071   1.222 -0.6459  0.2951 -0.0826
 1021SOL    HW1 3962   1.242   0.081   1.282 -0.2432  1.5960 -0.7905
 1021SOL    HW2 3963   1.128  -0.022   1.228  0.5375 -0.1161  0.7304
 1022SOL     OW 3964   0.955   0.425   5.710 -0.2174 -0.0568  0.3719
 1022SOL    HW1 3965   0.926   0.333   5.683 -2.3849  0.6292  0.1727
 1022SOL    HW2 3966   0.891   0.493   5.674  0.9906  1.5037  1.0223
 1023SOL     OW 3967   1.762   1.500   0.728  0.1571  0.0927  0.4048
 1023SOL    HW1 3968   1.695   1.566   0.762  0.0071  0.2668 -0.2253
 1023SOL    HW2 3969   1.854   1.534   0.748  0.0942  0.7928 -0.4583
 1024SOL     OW 3970   2.516   2.206   3.473 -0.4140  0.7189 -0.2316
 1024SOL    HW1 3971   2.469   2.150   3.540 -0.2218  0.5069 -0.2746
 1024SOL    HW2 3972   2.528   2.154   3.388 -0.1534  0.7906 -0.2401
 1025SOL     OW 3973   5.072   3.232   1.486  0.0257 -0.2320 -0.2397
 1025SOL    HW1 3974   5.115   3.315   1.521  1.6852 -0.7201 -1.0037
 1025SOL    HW2 3975   4.993   3.256   1.430  0.4127  0.8155 -0.3520
 1026SOL     OW 3976   2.984   2.819   0.157  0.8095  0.3025  0.6454
 1026SOL    HW1 3977   2.981   2.865   0.246  1.5453  1.3584  0.1576
 1026SOL    HW2 3978   2.904   2.844   0.104  0.6028  0.0482  0.8380
 1027SOL     OW 3979   5.310   7.002   0.385  0.0644  0.1711 -0.6205
 1027SOL    HW1 3980   5.306   7.031   0.481  1.4598  2.6838 -1.2513
 1027SOL    HW2 3981   5.228   7.033   0.338 -0.2074 -0.3020 -0.4772
 1028SOL     OW 3982   1.483   4.135   5.271 -0.7208  0.8431 -0.0796
 1028SOL    HW1 3983   1.436   4.149   5.184  0.0502 -0.9169 -0.8340
 1028SOL    HW2 3984   1.558   4.202   5.279  0.6390 -0.3546 -1.8831
 1029SOL     OW 3985   2.774   6.388   6.359 -0.5130 -0.4416 -0.0828
 1029SOL    HW1 3986   2.677   6.365   6.349 -0.7063  0.0471  0.6130
 1029SOL    HW2 3987   2.798   6.457   6.292 -0.4751 -1.0406 -0.7000
 1030SOL     OW 3988   4.118   3.736   1.308  0.5187 -0.2765  0.7924
 1030SOL    HW1 3989   4.116   3.680   1.225 -1.5394  0.8236  0.0164
 1030SOL    HW2 3990   4.169   3.820   1.290  0.6458 -0.3421  0.8478
 1031SOL     OW 3991   3.985   5.350   6.154 -0.1457  0.0006 -0.2063
 1031SOL    HW1 3992   3.922   5.288   6.200 -0.5357 -0.1757 -0.9682
 1031SOL    HW2 3993   4.076   5.309   6.152 -0.0700  0.1004  0.5779
 1032SOL     OW 3994   6.412   3.077   1.042  0.2063  0.0880  0.3174
 1032SOL    HW1 3995   6.372   3.098   0.953  2.2040 -1.5824 -1.0978
 1032SOL    HW2 3996   6.446   3.161   1.084 -1.2523  0.9797 -0.2301
 1033SOL     OW 3997   3.705   0.960   3.017  0.6935  0.1527  0.8473
 1033SOL    HW1 3998   3.725   0.888   3.084  2.3139 -0.6098 -0.3770
 1033SOL    HW2 3999   3.691   0.918   2.928 -0.3436  1.2330  0.4922
 1034SOL     OW 4000   2.054   6.259   3.538  0.1608  0.1514 -0.3768
 1034SOL    HW1 4001   2.035   6.348   3.497  0.8677  0.0756 -0.8829
 1034SOL    HW2 4002   1.992   6.244   3.615 -1.8944 -0.1542 -2.0199
 1035SOL     OW 4003   1.233   7.006   5.316 -0.4286 -0.2041  0.6511
 1035SOL    HW1 4004   1.155   7.062   5.287  0.4702  0.2134 -1.1378
 1035SOL    HW2 4005   1.225   6.915   5.276  0.2461  0.0070  0.0126
 1036SOL     OW 4006   6.208   0.151   2.826  0.1277  0.0467  0.0481
 1036SOL    HW1 4007   6.306   0.155   2.843  0.2518 -2.0842  0.0898
 1036SOL    HW2 4008   6.192   0.141   2.728  0.0398 -1.0175  0.1607
 1037SOL     OW 4009   1.961   4.458   2.002  0.1780  0.3808 -0.3982
 1037SOL    HW1 4010   1.955   4.375   1.947 -1.2605  1.2191 -1.5947
 1037SOL    HW2 4011   2.038   4.513   1.969  1.9475 -0.9947  1.2382
 1038SOL     OW 4012   6.950   6.639   0.057 -0.3408  0.0737 -0.1959
 1038SOL    HW1 4013   6.983   6.544   0.059 -0.4643  0.0351  0.0260
 1038SOL    HW2 4014   7.026   6.699   0.034  0.0518  0.0450  0.9232
 1039SOL     OW 4015   2.919   3.646   3.750  0.5438  0.0873 -0.0294
 1039SOL    HW1 4016   2.848   3.716   3.742  0.2596 -0.1979 -0.0298
 1039SOL    HW2 4017   2.962   3.632   3.661  1.7976  1.4959  0.3320
 1040SOL     OW 4018   4.517   1.681   2.076 -0.6241 -0.3106 -0.2502
 1040SOL    HW1 4019   4.490   1.608   2.014  1.7575  0.0235 -1.8153
 1040SOL    HW2 4020   4.515   1.647   2.171  0.0787 -2.3112 -0.8986
 1041SOL     OW 4021   0.579   6.833   5.388  0.0805  0.5822 -0.3662
 1041SOL    HW1 4022   0.606   6.737   5.391  1.0354  0.8484  0.2936
 1041SOL    HW2 4023   0.660   6.890   5.405 -0.4697  1.4981 -0.7765
 1042SOL     OW 4024   5.025   3.045   3.717 -0.0332  0.7421 -0.2456
 1042SOL    HW1 4025   5.002   2.962   3.665 -0.1492  0.3896  0.3610
 1042SOL    HW2 4026   5.117   3.036   3.755 -0.4754  0.4062  0.7641
 1043SOL     OW 4027   2.016   3.212   4.789 -0.0061 -0.4519  0.6544
 1043SOL    HW1 4028   2.041   3.120   4.819  1.6528  0.1933  1.3943
 1043SOL    HW2 4029   2.081   3.278   4.827 -0.7774  0.9611 -0.3841
 1044SOL     OW 4030   4.983   3.609   2.872  0.1926 -0.3697 -1.0127
 1044SOL    HW1 4031   4.998   3.704   2.902  1.7147 -0.2807 -1.9434
 1044SOL    HW2 4032   4.912   3.607   2.802  0.6156  0.1873 -1.4658
 1045SOL     OW 4033   0.898   0.753   2.215  0.0721  0.1765 -0.4814
 1045SOL    HW1 4034   0.845   0.814   2.156 -1.1623  2.2034  2.4756
 1045SOL    HW2 4035   0.993   0.782   2.214 -0.3236  1.6060  0.1345
 1046SOL     OW 4036   4.808   3.748   1.110 -0.0405 -0.0523 -0.1254
 1046SOL    HW1 4037   4.793   3.651   1.090  0.2854 -0.4301  1.2992
 1046SOL    HW2 4038   4.905   3.764   1.127 -0.3486  0.0428  1.7962
 1047SOL     OW 4039   3.605   0.159   5.933 -0.6544  0.1785 -0.1366
 1047SOL    HW1 4040   3.528   0.208   5.892 -0.8042 -0.5413 -0.7405
 1047SOL    HW2 4041   3.683   0.160   5.869 -1.1091 -1.5351 -0.7713
 1048SOL     OW 4042   5.782   0.032   2.173 -0.0407  0.0678  0.5360
 1048SOL    HW1 4043   5.878   0.060   2.182 -0.7853  2.8011  0.9171
 1048SOL    HW2 4044   5.751   0.050   2.079 -0.7410  1.3268  0.9840
 1049SOL     OW 4045   3.460   6.718   5.942 -0.2926 -0.1300  0.0556
 1049SOL    HW1 4046   3.501   6.791   5.996 -0.2655  0.5175 -0.8349
 1049SOL    HW2 4047   3.493   6.630   5.976  0.4557  0.3032  0.4868
 1050SOL     OW 4048   3.242   1.643   4.965 -0.1767  0.5104  0.3192
 1050SOL    HW1 4049   3.266   1.715   4.900 -0.2302  0.1726 -0.0815
 1050SOL    HW2 4050   3.325   1.607   5.008 -0.2262  1.5346  1.3189
 1051SOL     OW 4051   0.350   0.341   5.805  0.2055 -0.1426 -0.1449
 1051SOL    HW1 4052   0.352   0.251   5.761  0.1666 -0.2853  0.1431
 1051SOL    HW2 4053   0.284   0.340   5.880  0.9280 -0.1788  0.5039
 1052SOL     OW 4054   6.061   3.847   6.643 -0.0667 -0.3171  0.0645
 1052SOL    HW1 4055   6.008   3.902   6.578 -0.1897 -0.4441  0.0572
 1052SOL    HW2 4056   6.131   3.904   6.686 -1.1450  0.2299  1.1508
 1053SOL     OW 4057   3.648   1.554   6.147 -0.2123 -0.3108 -0.9164
 1053SOL    HW1 4058   3.631   1.605   6.062 -0.2147  1.7779  0.2560
 1053SOL    HW2 4059   3.563   1.508   6.175 -0.2036 -1.0519 -2.0233
 1054SOL     OW 4060   4.251   4.937   0.628  0.1212 -0.0597 -0.7626
 1054SOL    HW1 4061   4.189   4.959   0.553  1.1673  1.4325 -1.2238
 1054SOL    HW2 4062   4.332   4.890   0.593 -0.1845 -0.9550 -0.3113
 1055SOL     OW 4063   6.354   5.058   6.486  0.2832  0.2723  0.0579
 1055SOL    HW1 4064   6.380   5.057   6.390 -0.5915 -0.3024 -0.1864
 1055SOL    HW2 4065   6.281   5.125   6.500  0.2341  0.1781  0.2673
 1056SOL     OW 4066   3.331   4.336   5.353  0.6285  0.9903 -0.1156
 1056SOL    HW1 4067   3.313   4.433   5.370 -1.4942  0.9485 -1.7639
 1056SOL    HW2 4068   3.289   4.309   5.267  1.3523 -1.3728  0.2116
 1057SOL     OW 4069   1.837   4.835   0.629 -0.4590  0.2731  0.2399
 1057SOL    HW1 4070   1.882   4.915   0.589 -0.8623 -0.0252 -0.8439
 1057SOL    HW2 4071   1.900   4.789   0.692 -0.1164  1.2599  0.6359
 1058SOL     OW 4072   1.878   5.785   3.536 -0.4172 -0.3617 -0.1523
 1058SOL    HW1 4073   1.932   5.786   3.452 -2.5840  1.7571 -1.6683
 1058SOL    HW2 4074   1.786   5.752   3.516 -1.0289  0.3666  1.3438
 1059SOL     OW 4075   2.880   6.159   2.499  0.3484 -0.3973  0.7344
 1059SOL    HW1 4076   2.869   6.063   2.524 -0.2613 -0.4751  0.1993
 1059SOL    HW2 4077   2.941   6.167   2.420 -0.5460 -0.4513  0.0270
 1060SOL     OW 4078   0.772   6.789   5.615 -0.5814 -0.4148  0.2160
 1060SOL    HW1 4079   0.825   6.732   5.552 -0.2335 -0.1313  0.2446
 1060SOL    HW2 4080   0.804   6.774   5.708  0.0625  0.4097  0.1415
 1061SOL     OW 4081   6.314   3.823   6.287 -0.1025 -0.2942  0.5892
 1061SOL    HW1 4082   6.216   3.834   6.272  0.2643  0.9931 -1.0765
 1061SOL    HW2 4083   6.343   3.880   6.364 -0.3576  0.7860 -0.1000
 1062SOL     OW 4084   3.167   3.537   6.663  0.4691  0.2261  0.0766
 1062SOL    HW1 4085   3.112   3.618   6.644 -0.5404 -0.5523 -0.4740
 1062SOL    HW2 4086   3.262   3.553   6.635  0.3640  1.3309  0.3310
 1063SOL     OW 4087   3.814   0.079   5.740 -0.4398  0.1403  0.1018
 1063SOL    HW1 4088   3.889   0.014   5.729 -0.9358 -0.5665  0.7669
 1063SOL    HW2 4089   3.728   0.035   5.713 -0.7782  0.5250  0.5343
 1064SOL     OW 4090   0.268   2.346   4.855 -0.0470 -0.0606  0.1435
 1064SOL    HW1 4091   0.239   2.325   4.948  0.7977  0.3535  0.5149
 1064SOL    HW2 4092   0.313   2.435   4.854  2.0491 -1.0537 -0.1954
 1065SOL     OW 4093   5.275   1.948   6.333  0.4409  0.7223  0.1609
 1065SOL    HW1 4094   5.334   1.873   6.304  0.3078  0.2367  1.0946
 1065SOL    HW2 4095   5.320   2.036   6.315  1.0994  0.3824  0.1407
 1066SOL     OW 4096   1.968   5.788   1.439  0.5968 -0.0986  0.2090
 1066SOL    HW1 4097   1.960   5.786   1.539 -1.3319  0.2935  0.0931
 1066SOL    HW2 4098   1.966   5.695   1.404 -0.8293 -0.1762  0.4302
 1067SOL     OW 4099   4.112   2.649   1.675 -0.0215  0.5533 -0.3829
 1067SOL    HW1 4100   4.020   2.608   1.677  0.2406 -0.0880  1.9946
 1067SOL    HW2 4101   4.117   2.721   1.745  1.2728  0.5963 -0.5062
 1068SOL     OW 4102   0.214   2.630   3.065 -0.3699 -0.9615 -0.3540
 1068SOL    HW1 4103   0.165   2.584   3.139 -1.5973  2.2074  0.9503
 1068SOL    HW2 4104   0.148   2.665   2.999  0.3256  0.5798 -0.2674
 1069SOL     OW 4105   0.197   1.398   2.445  0.1476 -0.0509 -0.4212
 1069SOL    HW1 4106   0.143   1.319   2.416 -1.0121  0.7985 -0.6050
 1069SOL    HW2 4107   0.292   1.386   2.413  0.2042 -1.7578  0.2940
 1070SOL     OW 4108   1.530   6.802   1.832  0.3111 -0.2944  0.1752
 1070SOL    HW1 4109   1.556   6.822   1.926  1.5881 -1.2093  0.0372
 1070SOL    HW2 4110   1.578   6.720   1.800 -2.1671 -1.6291 -0.3883
 1071SOL     OW 4111   1.035   3.109   4.711  0.1754 -0.6087  0.0943
 1071SOL    HW1 4112   1.092   3.188   4.689 -0.3014  0.1229  1.3840
 1071SOL    HW2 4113   0.967   3.095   4.639 -0.9870  1.3759  0.7224
 1072SOL     OW 4114   0.584   0.618   2.628  0.0454  0.3102 -0.3512
 1072SOL    HW1 4115   0.520   0.690   2.653 -0.8595 -1.1692  1.9093
 1072SOL    HW2 4116   0.660   0.616   2.693 -0.2475 -1.0858 -0.0149
 1073SOL     OW 4117   5.350   1.790   1.780  0.9183 -0.2118 -0.7170
 1073SOL    HW1 4118   5.295   1.710   1.800  1.3841 -0.3839 -0.0775
 1073SOL    HW2 4119   5.441   1.762   1.750  0.7226  0.0695 -1.6159
 1074SOL     OW 4120   4.326   6.268   1.776 -0.4491  0.0956 -0.8222
 1074SOL    HW1 4121   4.289   6.361   1.775 -1.4979 -0.3033 -1.8839
 1074SOL    HW2 4122   4.391   6.257   1.701  1.0964  0.4693  0.3910
 1075SOL     OW 4123   4.463   4.723   4.568  0.6652 -0.0706  0.6252
 1075SOL    HW1 4124   4.509   4.661   4.632  0.7257  0.4219  1.0642
 1075SOL    HW2 4125   4.529   4.788   4.531  0.6028 -0.2689  0.1558
 1076SOL     OW 4126   3.222   4.895   4.938 -0.7670  0.2573  0.3272
 1076SOL    HW1 4127   3.173   4.850   5.012 -1.3533  1.2571  0.5664
 1076SOL    HW2 4128   3.157   4.944   4.880 -0.1514  0.8413  0.1152
 1077SOL     OW 4129   5.992   5.869   0.485 -0.0688 -0.4895  0.1788
 1077SOL    HW1 4130   5.990   5.800   0.412  1.6753  0.2877 -0.6720
 1077SOL    HW2 4131   5.899   5.901   0.503 -0.5499 -0.4991 -1.9403
 1078SOL     OW 4132   3.813   5.107   1.667 -0.1359  0.4216  0.0029
 1078SOL    HW1 4133   3.877   5.054   1.611 -0.1082 -0.2245  0.6350
 1078SOL    HW2 4134   3.843   5.203   1.669  0.3259  0.2913 -0.4080
 1079SOL     OW 4135   1.326   5.322   0.916 -0.0175  0.4282 -0.1693
 1079SOL    HW1 4136   1.358   5.400   0.969  1.2023  0.2637 -0.6249
 1079SOL    HW2 4137   1.322   5.241   0.974 -1.7684  0.8901  0.4324
 1080SOL     OW 4138   3.925   5.723   5.751 -0.3484 -0.5689  0.5402
 1080SOL    HW1 4139   3.896   5.691   5.661 -1.1029 -1.4591  1.0906
 1080SOL    HW2 4140   4.008   5.675   5.779 -0.4208 -0.6861  0.5535
 1081SOL     OW 4141   0.008   6.242   5.386  0.0657 -0.2889 -0.3752
 1081SOL    HW1 4142   0.023   6.144   5.375 -0.6761 -0.5267  0.6490
 1081SOL    HW2 4143   0.096   6.289   5.387  0.5895 -1.2238  1.5876
 1082SOL     OW 4144   5.043   6.226   0.035 -0.0971 -0.2836 -0.2469
 1082SOL    HW1 4145   4.991   6.236  -0.050  0.9911 -0.2408 -0.9281
 1082SOL    HW2 4146   4.993   6.167   0.098 -0.7210 -0.6786 -1.0894
 1083SOL     OW 4147   6.891   4.848   2.546 -0.1730 -0.2946 -0.3162
 1083SOL    HW1 4148   6.799   4.887   2.536  0.0970  0.8118  1.2683
 1083SOL    HW2 4149   6.932   4.880   2.631  0.4438 -3.3091  0.6658
 1084SOL     OW 4150   3.513   5.336   5.461 -0.6040 -0.1443 -0.0542
 1084SOL    HW1 4151   3.550   5.429   5.458 -2.8582  0.8084 -0.0921
 1084SOL    HW2 4152   3.455   5.320   5.382  0.3297 -1.8957 -0.4477
 1085SOL     OW 4153   0.504   4.108   4.714  0.0928  0.0090 -0.4631
 1085SOL    HW1 4154   0.600   4.110   4.685  0.2957 -1.4244  0.0454
 1085SOL    HW2 4155   0.445   4.107   4.633  0.5656 -0.8736 -0.8089
 1086SOL     OW 4156   6.866   4.418   3.225  0.0440 -0.1878 -0.1210
 1086SOL    HW1 4157   6.917   4.339   3.260  1.0876  1.0255  1.2582
 1086SOL    HW2 4158   6.770   4.409   3.248 -0.1049 -1.6828 -1.1910
 1087SOL     OW 4159   3.660   1.054   4.627 -0.3137 -0.3276  0.3000
 1087SOL    HW1 4160   3.681   0.973   4.571 -1.2165 -1.1044  1.0639
 1087SOL    HW2 4161   3.577   1.098   4.592 -1.5955 -1.5253  1.7268
 1088SOL     OW 4162   6.030   3.774   4.312  0.2229 -0.3194 -0.1091
 1088SOL    HW1 4163   6.061   3.800   4.403  0.9505  0.2826 -0.5116
 1088SOL    HW2 4164   6.071   3.836   4.245  3.1391 -3.2208 -1.2922
 1089SOL     OW 4165   5.593   4.769   4.670 -0.0362 -0.1279  0.0968
 1089SOL    HW1 4166   5.678   4.786   4.620  1.0777  0.6661  2.1282
 1089SOL    HW2 4167   5.583   4.671   4.688  1.1621 -0.1089  0.9706
 1090SOL     OW 4168   5.740   2.023   5.902  0.5294  0.7676  0.0332
 1090SOL    HW1 4169   5.731   1.980   5.992  0.1186 -0.1559 -0.4340
 1090SOL    HW2 4170   5.703   1.962   5.833  3.5970  0.0587 -1.1515
 1091SOL     OW 4171   1.735   3.732   3.800 -0.2206  0.1056 -0.2897
 1091SOL    HW1 4172   1.648   3.697   3.766 -0.4308 -0.1061  0.4615
 1091SOL    HW2 4173   1.722   3.772   3.891  0.5892 -0.5143  0.1109
 1092SOL     OW 4174   0.334   0.272   6.599 -0.0036 -0.4382  0.3695
 1092SOL    HW1 4175   0.393   0.285   6.520 -0.0363  0.4926  0.4829
 1092SOL    HW2 4176   0.243   0.243   6.568 -0.0960  0.1858  0.0441
 1093SOL     OW 4177   2.138   0.456   4.414 -0.4922  0.3867  0.0989
 1093SOL    HW1 4178   2.060   0.404   4.449 -1.1211  0.3812 -1.2567
 1093SOL    HW2 4179   2.107   0.515   4.339  0.5043  1.5819  0.5974
 1094SOL     OW 4180   0.693   6.245   1.264 -0.3779 -0.2439  0.0899
 1094SOL    HW1 4181   0.632   6.166   1.264  1.0790 -1.4059 -0.1640
 1094SOL    HW2 4182   0.650   6.319   1.316 -2.4220 -0.6430 -0.9189
 1095SOL     OW 4183   6.390   5.132   1.642  0.4409 -0.2284  0.5566
 1095SOL    HW1 4184   6.294   5.106   1.633  0.7412 -1.2467  0.1257
 1095SOL    HW2 4185   6.446   5.075   1.581  1.2915  0.5121  0.6244
 1096SOL     OW 4186   0.967   5.811   1.907 -0.4180  0.0154 -0.8434
 1096SOL    HW1 4187   1.052   5.862   1.901 -0.0080 -0.7852 -2.0076
 1096SOL    HW2 4188   0.945   5.771   1.818 -1.6170 -0.4174 -0.3740
 1097SOL     OW 4189   1.977   5.021   4.594  0.6646 -0.0659  0.2111
 1097SOL    HW1 4190   2.040   5.032   4.671 -0.2674 -0.6604  1.0785
 1097SOL    HW2 4191   1.912   4.948   4.614  0.7700 -0.6258 -1.3997
 1098SOL     OW 4192   1.877   4.231   6.573  0.2171 -0.4440 -0.2190
 1098SOL    HW1 4193   1.894   4.196   6.481 -0.1611 -2.8613  0.5654
 1098SOL    HW2 4194   1.919   4.170   6.640  0.6827  1.3984  1.2307
 1099SOL     OW 4195   6.220   0.441   6.678 -0.2467  0.0993 -0.3914
 1099SOL    HW1 4196   6.171   0.515   6.723 -1.9901 -1.2453  0.0228
 1099SOL    HW2 4197   6.162   0.359   6.674  1.4934 -1.1732 -1.0984
 1100SOL     OW 4198   5.254   0.784   3.803 -0.3232  0.2444 -0.3124
 1100SOL    HW1 4199   5.158   0.809   3.797 -0.6661 -1.2691 -1.8930
 1100SOL    HW2 4200   5.271   0.700   3.750  1.5964 -0.3239  1.0613
 1101SOL     OW 4201   4.951   2.421   6.532  0.2904 -0.6132  0.3485
 1101SOL    HW1 4202   4.854   2.435   6.552 -0.1868 -1.5793 -1.1582
 1101SOL    HW2 4203   4.961   2.351   6.462  2.0030  0.5365 -0.6288
 1102SOL     OW 4204   1.396   2.392   4.972  0.4461  0.1344  0.3303
 1102SOL    HW1 4205   1.463   2.463   4.950  0.2683  0.0069 -0.6813
 1102SOL    HW2 4206   1.428   2.340   5.051  2.5181 -1.1439 -1.2363
 1103SOL     OW 4207   3.419   5.075   4.056 -0.0345  0.6172 -0.2373
 1103SOL    HW1 4208   3.474   5.076   3.972  0.1829  0.4876 -0.0965
 1103SOL    HW2 4209   3.455   5.007   4.119 -2.1384 -1.6928 -1.3383
 1104SOL     OW 4210   5.496   0.564   4.287 -0.2184  0.7552 -0.7622
 1104SOL    HW1 4211   5.590   0.550   4.257 -0.4425 -0.2230 -1.0463
 1104SOL    HW2 4212   5.436   0.573   4.208 -0.3478  1.5450 -0.5842
 1105SOL     OW 4213   5.404   6.139   0.854 -0.6241 -0.0307 -0.4379
 1105SOL    HW1 4214   5.461   6.173   0.779 -0.0157 -0.4717 -0.1803
 1105SOL    HW2 4215   5.330   6.204   0.871 -0.8060  0.0487 -1.4586
 1106SOL     OW 4216   0.148   2.177   6.424 -0.2366  0.3344  0.5295
 1106SOL    HW1 4217   0.075   2.241   6.399  0.8938  0.9185 -1.4876
 1106SOL    HW2 4218   0.116   2.083   6.408 -0.1024  0.6385 -1.7703
 1107SOL     OW 4219   0.932   1.010   5.273 -0.1514 -0.3367 -0.4657
 1107SOL    HW1 4220   0.956   0.974   5.363 -0.6829 -1.2067 -0.6636
 1107SOL    HW2 4221   1.010   1.061   5.236 -0.4507  1.3926  1.1475
 1108SOL     OW 4222   5.512   1.567   2.958 -0.8150 -0.2220  0.4937
 1108SOL    HW1 4223   5.590   1.523   3.004  2.2278  1.5159 -2.5720
 1108SOL    HW2 4224   5.512   1.665   2.980 -0.5336  0.2494 -1.4240
 1109SOL     OW 4225   6.282   0.743   5.285  0.9383 -0.7738 -0.0048
 1109SOL    HW1 4226   6.305   0.835   5.252  2.9804 -0.9178  0.8946
 1109SOL    HW2 4227   6.338   0.720   5.364  0.0497 -2.5908  0.1617
 1110SOL     OW 4228   2.257   6.737   2.605 -0.0368  0.8913  0.0939
 1110SOL    HW1 4229   2.221   6.673   2.537  0.8676  1.4715 -0.9617
 1110SOL    HW2 4230   2.323   6.798   2.562 -0.2696  2.0190  1.2575
 1111SOL     OW 4231   0.338   2.612   5.925 -0.2866 -0.2382  0.4165
 1111SOL    HW1 4232   0.276   2.569   5.991  0.0544 -2.4589 -0.5995
 1111SOL    HW2 4233   0.285   2.661   5.856 -0.7029  0.8601  1.4708
 1112SOL     OW 4234   6.125   0.415   2.707 -0.1160 -0.2334 -0.2867
 1112SOL    HW1 4235   6.187   0.481   2.665  0.0883  0.7425  1.4526
 1112SOL    HW2 4236   6.172   0.328   2.718  0.8538  0.3738  0.6149
 1113SOL     OW 4237   0.454   1.685   2.925  0.2175  0.6480  0.1798
 1113SOL    HW1 4238   0.394   1.764   2.932 -0.0957  0.6985 -2.2316
 1113SOL    HW2 4239   0.403   1.602   2.950 -0.0007  0.9900  0.8907
 1114SOL     OW 4240   2.966   3.501   4.229  0.0198 -0.1566  0.0257
 1114SOL    HW1 4241   2.907   3.570   4.189 -0.6067 -0.5649  0.2359
 1114SOL    HW2 4242   3.022   3.460   4.157  1.3733  1.4740  0.0864
 1115SOL     OW 4243   0.696   6.098   6.632  0.6098 -0.2276  0.1033
 1115SOL    HW1 4244   0.644   6.016   6.610  1.1661 -0.4350 -0.4885
 1115SOL    HW2 4245   0.793   6.081   6.613  0.7167  0.5944 -0.0960
 1116SOL     OW 4246   4.869   0.880   6.074 -0.5457 -0.1839  0.0088
 1116SOL    HW1 4247   4.909   0.972   6.079 -1.5269  0.3229 -1.0552
 1116SOL    HW2 4248   4.935   0.817   6.035  0.0808  0.1016  0.5921
 1117SOL     OW 4249   1.504   4.280   1.659  0.2859 -0.4267  0.0778
 1117SOL    HW1 4250   1.404   4.281   1.662  0.2818 -0.4400 -0.0734
 1117SOL    HW2 4251   1.539   4.372   1.673  0.2303 -0.2700 -0.7767
 1118SOL     OW 4252   4.379   0.375   0.518 -0.0477 -0.1508  0.5321
 1118SOL    HW1 4253   4.466   0.423   0.509  0.1511  0.1381  3.0927
 1118SOL    HW2 4254   4.304   0.440   0.510  0.0839  0.0140  0.6331
 1119SOL     OW 4255   4.838   6.693   3.968  0.0374  0.1006 -0.2289
 1119SOL    HW1 4256   4.935   6.675   3.979 -0.2498 -1.1693  0.4741
 1119SOL    HW2 4257   4.819   6.790   3.984  1.1299  0.2930 -0.0583
 1120SOL     OW 4258   4.993   3.949   1.393 -0.0702 -0.2746  0.3004
 1120SOL    HW1 4259   5.070   3.935   1.455 -2.2318 -1.8879  2.8634
 1120SOL    HW2 4260   5.008   3.898   1.308  2.2462  0.6428  0.0984
 1121SOL     OW 4261   6.096   3.245   4.251 -0.9759  0.1809  0.1000
 1121SOL    HW1 4262   6.171   3.235   4.317 -0.3267 -0.3380 -0.6996
 1121SOL    HW2 4263   6.015   3.281   4.298 -0.0823  1.2431  0.8906
 1122SOL     OW 4264   5.597   0.994   2.882 -0.0374  0.3282  0.4648
 1122SOL    HW1 4265   5.617   0.959   2.790 -0.9844  0.5374  0.1596
 1122SOL    HW2 4266   5.526   0.937   2.924  1.2936 -0.5452  1.6029
 1123SOL     OW 4267   4.901   3.211   6.372  0.2910  0.6816  0.3325
 1123SOL    HW1 4268   4.824   3.151   6.394  1.7813 -1.1535  0.7943
 1123SOL    HW2 4269   4.906   3.286   6.438 -3.0160  2.8481 -1.6013
 1124SOL     OW 4270   2.811   1.530   4.400  0.1830 -0.1170 -0.0078
 1124SOL    HW1 4271   2.805   1.559   4.304 -1.0346  0.4002  0.2021
 1124SOL    HW2 4272   2.761   1.595   4.457 -1.2093 -1.7072  0.6829
 1125SOL     OW 4273   1.232   4.211   3.854 -0.3583  0.2871 -0.2675
 1125SOL    HW1 4274   1.212   4.201   3.757 -0.3833 -1.1014 -0.1442
 1125SOL    HW2 4275   1.160   4.167   3.908  1.6043 -2.5422  0.2458
 1126SOL     OW 4276   6.541   3.133   1.864 -0.1161  0.6122 -0.3588
 1126SOL    HW1 4277   6.455   3.147   1.913  0.0158 -0.9090  0.3749
 1126SOL    HW2 4278   6.576   3.041   1.883 -0.0564 -0.0975 -3.3562
 1127SOL     OW 4279   4.139   6.672   2.277 -0.1330 -0.1247 -0.0799
 1127SOL    HW1 4280   4.183   6.717   2.199  1.3527  0.4532  1.0327
 1127SOL    HW2 4281   4.175   6.580   2.287 -1.0749 -0.5692 -0.6594
 1128SOL     OW 4282   5.745   2.665   5.166  0.3101 -0.2105  0.4790
 1128SOL    HW1 4283   5.801   2.712   5.234  1.4022  0.6932 -0.9779
 1128SOL    HW2 4284   5.800   2.649   5.084 -1.8576  1.8986 -1.5433
 1129SOL     OW 4285   5.892   6.728   0.450  0.1229  0.0429  0.0934
 1129SOL    HW1 4286   5.839   6.649   0.421  1.9002 -1.3818  0.5109
 1129SOL    HW2 4287   5.930   6.774   0.370 -2.9591  2.1146 -0.3565
 1130SOL     OW 4288   3.033   6.660   6.320  0.0161  0.1539  0.2918
 1130SOL    HW1 4289   2.938   6.674   6.293 -0.4898 -1.2935  1.2010
 1130SOL    HW2 4290   3.093   6.693   6.247 -1.0715  3.0549  0.5805
 1131SOL     OW 4291   6.754   6.017   2.977  0.4440  0.2181  0.0167
 1131SOL    HW1 4292   6.714   5.986   3.063 -0.2220 -1.2387 -0.7768
 1131SOL    HW2 4293   6.794   6.108   2.989 -0.7191  0.5629  1.5354
 1132SOL     OW 4294   0.104   3.428   5.885 -0.3799 -0.3109  0.3623
 1132SOL    HW1 4295   0.132   3.523   5.873 -1.7552  0.0674 -0.1087
 1132SOL    HW2 4296   0.139   3.373   5.810 -1.1323  0.2136 -0.3969
 1133SOL     OW 4297   0.761   6.028   0.162 -0.1712  0.1306  0.6622
 1133SOL    HW1 4298   0.794   6.108   0.212 -0.1930  0.1735  0.6088
 1133SOL    HW2 4299   0.782   5.945   0.213 -0.3251  0.1845  0.8129
 1134SOL     OW 4300   3.376   6.133   0.396  0.1308 -0.1488 -0.3515
 1134SOL    HW1 4301   3.423   6.053   0.434  3.2587  2.6610  2.2963
 1134SOL    HW2 4302   3.443   6.193   0.353 -1.7041  2.2104 -0.0979
 1135SOL     OW 4303   2.197   0.578   1.796 -0.7714 -0.7795  0.1148
 1135SOL    HW1 4304   2.258   0.609   1.869 -0.3466 -1.2266 -0.0503
 1135SOL    HW2 4305   2.250   0.534   1.724 -1.2459 -0.8123 -0.2166
 1136SOL     OW 4306   1.893   3.828   4.497 -0.0815  0.1276  0.0078
 1136SOL    HW1 4307   1.991   3.828   4.476  0.1055 -2.9995  0.3878
 1136SOL    HW2 4308   1.878   3.784   4.585 -1.8444  0.4859 -0.0766
 1137SOL     OW 4309   0.851   4.824   2.944 -0.5105 -0.1805 -0.5132
 1137SOL    HW1 4310   0.786   4.874   3.001 -0.0740 -1.4244  1.1405
 1137SOL    HW2 4311   0.832   4.726   2.950  2.8208 -0.8146  1.8127
 1138SOL     OW 4312   2.258   4.559   3.458  0.2391  0.3279  0.1278
 1138SOL    HW1 4313   2.347   4.516   3.442  1.7271  2.6907  1.5178
 1138SOL    HW2 4314   2.222   4.530   3.547 -1.7143 -2.5761 -1.4486
 1139SOL     OW 4315   4.969   4.366   3.394  0.7832 -0.8381 -0.4926
 1139SOL    HW1 4316   5.011   4.299   3.332 -0.0564 -0.4835 -1.4656
 1139SOL    HW2 4317   4.997   4.346   3.488  1.4719 -1.8493 -0.8944
 1140SOL     OW 4318   1.193   2.929   0.736  0.2016  0.1163  0.2511
 1140SOL    HW1 4319   1.258   2.981   0.792  0.7445 -0.3068  0.0213
 1140SOL    HW2 4320   1.157   2.989   0.664  1.5850 -0.0556 -0.6402
 1141SOL     OW 4321   3.347   5.993   6.728  0.5351  0.1985 -0.4657
 1141SOL    HW1 4322   3.378   6.088   6.715  0.1741  0.5034  0.7720
 1141SOL    HW2 4323   3.267   5.976   6.671 -0.5240  1.2413  0.6331
 1142SOL     OW 4324   1.213   0.106   4.594  0.0898  0.7715 -0.2618
 1142SOL    HW1 4325   1.223   0.058   4.681  1.8623  0.2507 -0.7090
 1142SOL    HW2 4326   1.214   0.205   4.610  0.9759  0.6834  0.2738
 1143SOL     OW 4327   0.690   2.610   2.977 -0.1867 -0.4956  0.4710
 1143SOL    HW1 4328   0.686   2.681   2.907 -2.5435 -1.1618 -0.1468
 1143SOL    HW2 4329   0.613   2.547   2.966  0.8763 -2.1786  2.0444
 1144SOL     OW 4330   5.387   4.463   0.923  0.3441  0.7221  0.3376
 1144SOL    HW1 4331   5.486   4.449   0.926 -0.0141 -2.4238  1.2606
 1144SOL    HW2 4332   5.354   4.482   1.015  0.1356  2.8942 -0.1283
 1145SOL     OW 4333   6.087   6.899   1.390 -0.0725  0.1053 -0.7436
 1145SOL    HW1 4334   6.107   6.992   1.420  1.6402 -0.4432 -0.0576
 1145SOL    HW2 4335   6.001   6.868   1.431 -0.1910  1.0545 -0.2596
 1146SOL     OW 4336   2.450   6.993   6.733  0.3968 -0.3880 -0.2027
 1146SOL    HW1 4337   2.495   6.975   6.646 -1.1031  1.1250 -1.3439
 1146SOL    HW2 4338   2.518   7.025   6.799  0.9597  3.5299 -2.3655
 1147SOL     OW 4339   6.641   5.425   1.462  0.3001  0.3387 -0.1371
 1147SOL    HW1 4340   6.738   5.427   1.438  0.7778 -1.4564  1.3799
 1147SOL    HW2 4341   6.597   5.349   1.413  0.5191 -1.1357  1.8247
 1148SOL     OW 4342   5.090   4.436   1.111  0.0691 -0.0989  0.3913
 1148SOL    HW1 4343   5.000   4.480   1.113 -0.6804 -1.6107  0.8041
 1148SOL    HW2 4344   5.161   4.506   1.118 -1.0880  0.9892  1.9471
 1149SOL     OW 4345   0.253   1.209   2.035 -0.4961 -0.7663  0.0277
 1149SOL    HW1 4346   0.153   1.211   2.032 -0.4688 -0.3198 -0.9489
 1149SOL    HW2 4347   0.289   1.281   1.975  0.4181 -1.6821 -0.5425
 1150SOL     OW 4348   6.505   0.040   0.921 -0.0555 -0.0918  0.2929
 1150SOL    HW1 4349   6.413   0.018   0.889  0.6581 -0.4224 -1.7320
 1150SOL    HW2 4350   6.520   0.139   0.914 -0.0723 -0.1058  0.0417
 1151SOL     OW 4351   5.872   3.932   5.831  0.4961  0.0971  0.1931
 1151SOL    HW1 4352   5.890   3.836   5.853  0.1895 -0.7764 -2.8553
 1151SOL    HW2 4353   5.921   3.956   5.747 -0.4179  2.2722  0.2240
 1152SOL     OW 4354   1.319   6.581   6.303  0.1574 -0.1781 -0.7031
 1152SOL    HW1 4355   1.315   6.526   6.220  3.2634  0.1179 -1.1757
 1152SOL    HW2 4356   1.358   6.526   6.377  1.4557  0.7509 -0.6590
 1153SOL     OW 4357   4.124   5.066   1.768 -0.0984  0.2118  0.0900
 1153SOL    HW1 4358   4.064   5.124   1.823  0.5663 -0.4716  1.5828
 1153SOL    HW2 4359   4.089   5.061   1.674 -0.7318  2.1661  0.1852
 1154SOL     OW 4360   3.306   3.266   0.587  0.0179 -0.3490  0.0204
 1154SOL    HW1 4361   3.302   3.201   0.511  1.3914  0.2269 -0.5728
 1154SOL    HW2 4362   3.264   3.352   0.558 -1.9965 -0.9813  0.8752
 1155SOL     OW 4363   4.244   6.398   2.298 -0.3958 -0.4351  0.2531
 1155SOL    HW1 4364   4.270   6.340   2.375  2.2827 -0.7927 -0.8006
 1155SOL    HW2 4365   4.233   6.341   2.217  0.2609  0.2815 -0.3580
 1156SOL     OW 4366   3.682   5.858   1.689  0.0133 -0.3544 -0.1562
 1156SOL    HW1 4367   3.709   5.947   1.651  0.7191  0.6877  2.5601
 1156SOL    HW2 4368   3.761   5.797   1.689  0.9047  0.6641  2.2097
 1157SOL     OW 4369   3.050   1.491   0.591  0.0170 -0.4888 -0.7127
 1157SOL    HW1 4370   3.032   1.567   0.530  0.4633  0.0793 -0.1561
 1157SOL    HW2 4371   3.121   1.517   0.657  0.5328 -1.5515 -0.8258
 1158SOL     OW 4372   4.965   3.910   3.737 -0.1992 -0.6492  0.2828
 1158SOL    HW1 4373   5.061   3.917   3.763 -0.3857  0.1027  0.8149
 1158SOL    HW2 4374   4.958   3.881   3.642  0.5967  0.8764 -0.2816
 1159SOL     OW 4375   4.840   5.477   0.350  0.5468  0.2347 -0.3797
 1159SOL    HW1 4376   4.902   5.399   0.352  1.2927  0.7845  2.6880
 1159SOL    HW2 4377   4.762   5.456   0.292  0.7569 -2.7627  0.2759
 1160SOL     OW 4378   6.212   1.232   0.298  0.2250  0.0428 -0.4396
 1160SOL    HW1 4379   6.223   1.310   0.236  1.0562 -0.3798 -0.8437
 1160SOL    HW2 4380   6.129   1.182   0.274 -0.4112  0.8967 -0.0619
 1161SOL     OW 4381   1.217   3.980   6.632  0.8469 -0.0134 -0.1881
 1161SOL    HW1 4382   1.245   4.008   6.541  0.5961 -0.6016 -0.4556
 1161SOL    HW2 4383   1.179   3.887   6.628  2.6768 -0.8679  0.8219
 1162SOL     OW 4384   1.309   4.841   4.092 -0.0603 -0.2346  0.0434
 1162SOL    HW1 4385   1.274   4.895   4.168 -1.3515 -0.6517 -0.2294
 1162SOL    HW2 4386   1.387   4.888   4.050 -1.7172  1.9227 -0.7901
 1163SOL     OW 4387   2.850   1.381   2.319 -0.2429 -0.2054  0.1074
 1163SOL    HW1 4388   2.770   1.361   2.375 -0.6451 -0.6065 -0.5972
 1163SOL    HW2 4389   2.879   1.475   2.335 -2.3939  0.8178 -1.4833
 1164SOL     OW 4390   3.639   1.442   0.050 -0.0404  0.9555 -0.0475
 1164SOL    HW1 4391   3.705   1.389   0.102 -0.1035  1.3370  0.4324
 1164SOL    HW2 4392   3.612   1.523   0.103  1.1661  2.2811 -1.3361
 1165SOL     OW 4393   5.644   5.948   2.922 -1.2509 -0.4103 -0.5475
 1165SOL    HW1 4394   5.656   5.988   2.832  1.0523  1.4738  0.4950
 1165SOL    HW2 4395   5.633   6.020   2.990  0.0162 -1.6275  1.0414
 1166SOL     OW 4396   3.072   2.909   6.576  0.0387  0.4402  0.0515
 1166SOL    HW1 4397   3.131   2.979   6.537  0.8515  0.6188  1.5329
 1166SOL    HW2 4398   3.070   2.918   6.676 -1.9434 -0.0004  0.1021
 1167SOL     OW 4399   4.843   2.545   3.755 -0.3291 -0.1680 -0.8447
 1167SOL    HW1 4400   4.811   2.513   3.844  2.4454  0.5394  0.5135
 1167SOL    HW2 4401   4.765   2.580   3.702 -2.3712 -2.5055  0.4000
 1168SOL     OW 4402   5.980   6.040   0.043  0.0565  0.0024 -0.1372
 1168SOL    HW1 4403   5.900   5.980   0.033  0.0285  0.3635 -2.7564
 1168SOL    HW2 4404   6.049   6.015  -0.026  1.0042  1.5156  0.2253
 1169SOL     OW 4405   3.873   2.388   6.258  0.0557 -0.4415 -0.0496
 1169SOL    HW1 4406   3.913   2.345   6.177  1.1347 -1.9293  1.2208
 1169SOL    HW2 4407   3.837   2.317   6.319  0.9227  0.4968  1.6257
 1170SOL     OW 4408   5.267   3.387   3.846  0.5541  0.0924  0.0669
 1170SOL    HW1 4409   5.173   3.407   3.818 -0.7261 -0.6517  3.3954
 1170SOL    HW2 4410   5.309   3.470   3.882  0.6480  0.0790 -0.0099
 1171SOL     OW 4411   6.592   6.012   6.274 -0.3608 -0.0950 -0.2389
 1171SOL    HW1 4412   6.552   5.964   6.352  0.6694 -1.3569 -0.4377
 1171SOL    HW2 4413   6.624   6.102   6.303 -0.2925 -0.4149  0.7168
 1172SOL     OW 4414   3.025   1.556   0.201  0.1237 -0.1787 -0.1135
 1172SOL    HW1 4415   3.075   1.628   0.249  0.9611 -0.7668 -0.0963
 1172SOL    HW2 4416   3.060   1.547   0.108 -0.9460  0.3973 -0.5930
 1173SOL     OW 4417   4.487   2.411   0.632 -0.7097  0.4290 -0.6223
 1173SOL    HW1 4418   4.550   2.421   0.555 -1.8680  0.1068 -1.6378
 1173SOL    HW2 4419   4.483   2.315   0.659  1.3062  0.8171  1.2713
 1174SOL     OW 4420   3.260   6.136   5.515 -0.2864 -1.0425 -0.2117
 1174SOL    HW1 4421   3.246   6.063   5.581  0.1611 -0.1150  0.9481
 1174SOL    HW2 4422   3.356   6.138   5.487 -0.1521 -0.5189  0.2555
 1175SOL     OW 4423   3.244   4.110   4.156 -0.0413  0.1061  0.1455
 1175SOL    HW1 4424   3.248   4.092   4.254 -1.1911 -3.0572 -0.2640
 1175SOL    HW2 4425   3.337   4.114   4.119  0.4013 -1.7668  0.9414
 1176SOL     OW 4426   4.639   5.438   6.934 -0.4712 -0.4286 -0.2375
 1176SOL    HW1 4427   4.648   5.340   6.954 -3.5702 -0.1799  3.7510
 1176SOL    HW2 4428   4.543   5.465   6.945  0.2816  3.0833 -1.2040
 1177SOL     OW 4429   0.267   0.588   5.669  0.9808 -0.0982  0.0102
 1177SOL    HW1 4430   0.312   0.525   5.733  1.0561  0.7963  0.8618
 1177SOL    HW2 4431   0.237   0.669   5.719  1.0886  0.6411 -1.1081
 1178SOL     OW 4432   3.538   5.290   0.230 -0.2440 -0.1359 -0.2505
 1178SOL    HW1 4433   3.583   5.368   0.187  1.5446 -0.9893 -0.0278
 1178SOL    HW2 4434   3.440   5.308   0.238  0.2382  2.5335  0.7670
 1179SOL     OW 4435   1.360   5.227   1.614 -0.2741  0.1523 -0.6079
 1179SOL    HW1 4436   1.444   5.254   1.568  1.8693 -2.7696  1.2951
 1179SOL    HW2 4437   1.299   5.182   1.548  1.6393 -1.7332 -1.1933
 1180SOL     OW 4438   1.863   5.319   0.505  0.5881 -0.7826 -0.3479
 1180SOL    HW1 4439   1.855   5.378   0.425  0.8796 -0.5856 -0.2314
 1180SOL    HW2 4440   1.959   5.310   0.531  0.5103 -0.9796 -0.1181
 1181SOL     OW 4441   6.242   5.389   4.323  0.6028  0.0742  0.6888
 1181SOL    HW1 4442   6.161   5.390   4.383  1.0012 -3.7800  1.5202
 1181SOL    HW2 4443   6.212   5.386   4.228 -0.3285 -2.0089  1.0030
 1182SOL     OW 4444   5.977   2.178   2.579 -0.2833  0.6480 -0.1307
 1182SOL    HW1 4445   5.900   2.117   2.560 -0.4155  0.7085  0.2064
 1182SOL    HW2 4446   5.981   2.198   2.677 -0.3249  1.2840 -0.2503
 1183SOL     OW 4447   2.546   3.896   6.149 -0.1425  0.2953 -0.0211
 1183SOL    HW1 4448   2.542   3.994   6.167 -2.7606  0.2171  0.1498
 1183SOL    HW2 4449   2.458   3.864   6.114  1.3278 -1.6084 -2.3565
 1184SOL     OW 4450   0.899   3.043   4.932  0.3708  0.0663 -0.0900
 1184SOL    HW1 4451   0.931   3.038   4.837 -1.2005 -1.4018 -0.5840
 1184SOL    HW2 4452   0.978   3.044   4.994  1.4211  1.0593 -1.3874
 1185SOL     OW 4453   1.525   1.031   2.179 -0.2196  0.3070  0.8925
 1185SOL    HW1 4454   1.500   0.934   2.173  0.2949  0.2683 -1.7433
 1185SOL    HW2 4455   1.527   1.059   2.275  0.3166 -2.4611  1.7711
 1186SOL     OW 4456   5.517   5.717   4.208 -0.1280  0.4118 -0.0031
 1186SOL    HW1 4457   5.525   5.642   4.143 -0.6876  0.3175  0.0369
 1186SOL    HW2 4458   5.542   5.803   4.162 -0.4248  0.3328 -0.3182
 1187SOL     OW 4459   0.539   2.315   1.187 -0.4940  0.1418  0.0708
 1187SOL    HW1 4460   0.527   2.221   1.219 -0.3924  0.0257 -0.2219
 1187SOL    HW2 4461   0.450   2.361   1.185 -0.5054  0.1384  0.4734
 1188SOL     OW 4462   4.345   1.679   5.544  0.8340  0.1895  0.1857
 1188SOL    HW1 4463   4.325   1.774   5.569 -1.1172  1.0204 -3.7749
 1188SOL    HW2 4464   4.266   1.621   5.568  0.6453  0.2217 -0.3454
 1189SOL     OW 4465   6.644   4.276   4.323 -0.3000  0.0476 -0.1465
 1189SOL    HW1 4466   6.641   4.185   4.363 -0.0735 -0.4030 -1.1241
 1189SOL    HW2 4467   6.642   4.269   4.223  0.7282  1.0465 -0.2686
 1190SOL     OW 4468   2.070   1.985   4.599 -0.2947 -0.4094  0.2576
 1190SOL    HW1 4469   2.080   1.889   4.572 -1.0128 -0.1746 -0.8846
 1190SOL    HW2 4470   2.150   2.037   4.568 -0.2642 -0.4928  0.1963
 1191SOL     OW 4471   2.465   6.434   2.542 -0.3562  0.5308  0.5100
 1191SOL    HW1 4472   2.550   6.451   2.492 -1.0771  0.6208 -0.7394
 1191SOL    HW2 4473   2.402   6.511   2.527 -0.3498  0.8734  2.1326
 1192SOL     OW 4474   6.024   4.292   3.010 -1.0283  0.1221  0.7474
 1192SOL    HW1 4475   6.033   4.277   2.911  1.1135  4.2359  0.1096
 1192SOL    HW2 4476   6.094   4.239   3.058  0.3711  0.8867 -0.3659
 1193SOL     OW 4477   5.218   6.452   3.144  0.3268 -0.8456 -0.4249
 1193SOL    HW1 4478   5.123   6.471   3.119 -0.0473 -2.1293 -0.0571
 1193SOL    HW2 4479   5.277   6.525   3.110 -0.9745  0.7748  0.6604
 1194SOL     OW 4480   3.562   1.014   1.366  0.2812  0.2053  0.2782
 1194SOL    HW1 4481   3.481   1.072   1.364  0.1034 -0.0505 -0.1308
 1194SOL    HW2 4482   3.550   0.943   1.436 -0.1155 -0.2053 -0.1979
 1195SOL     OW 4483   5.870   2.682   2.493  0.0256 -0.4614 -0.2426
 1195SOL    HW1 4484   5.803   2.749   2.524  0.5164 -0.0688 -0.0015
 1195SOL    HW2 4485   5.896   2.702   2.399  0.4915 -0.0454 -0.0288
 1196SOL     OW 4486   5.793   6.517   5.058 -0.1483 -0.5494 -0.1702
 1196SOL    HW1 4487   5.785   6.418   5.051 -3.0065 -0.4881  0.7358
 1196SOL    HW2 4488   5.733   6.560   4.991 -1.5627  0.4514  1.6375
 1197SOL     OW 4489   6.993   0.065   5.441 -0.1514 -0.0233 -0.6207
 1197SOL    HW1 4490   7.060  -0.000   5.406  1.2674  0.5370  0.9349
 1197SOL    HW2 4491   7.039   0.131   5.500 -2.0129  0.7050  0.0731
 1198SOL     OW 4492   1.731   3.394   0.525 -0.4987 -0.2726  0.4417
 1198SOL    HW1 4493   1.644   3.355   0.496 -1.4961  1.3693  1.0851
 1198SOL    HW2 4494   1.755   3.471   0.465 -0.5116  0.5249  1.4271
 1199SOL     OW 4495   6.989   3.608   2.042  0.1162  0.1188  0.3090
 1199SOL    HW1 4496   6.952   3.524   2.001  1.5967 -0.1124 -0.6347
 1199SOL    HW2 4497   7.021   3.588   2.134 -1.3975  0.1582  0.8722
 1200SOL     OW 4498   3.833   2.995   2.679 -0.2987 -0.3896  0.5916
 1200SOL    HW1 4499   3.880   3.001   2.767  0.2830  0.8392  0.2238
 1200SOL    HW2 4500   3.794   3.084   2.657 -1.7250 -1.0563  0.2774
 1201SOL     OW 4501   0.365   2.581   4.891  0.0666  0.7720 -0.1295
 1201SOL    HW1 4502   0.392   2.638   4.814  1.1993 -0.6585 -0.8345
 1201SOL    HW2 4503   0.417   2.608   4.972 -0.3615  1.5898 -0.1211
 1202SOL     OW 4504   1.339   6.913   4.105  0.1845  0.1532  0.1190
 1202SOL    HW1 4505   1.412   6.867   4.156 -0.1457  0.1067  0.5513
 1202SOL    HW2 4506   1.284   6.967   4.167 -2.2435 -2.4405  0.4384
 1203SOL     OW 4507   5.328   5.259   5.206 -0.0289  0.4182  0.0041
 1203SOL    HW1 4508   5.404   5.217   5.255  0.2790  1.6335  0.5974
 1203SOL    HW2 4509   5.261   5.188   5.183 -0.2948 -0.1961  2.3622
 1204SOL     OW 4510   0.146   2.119   1.210  0.2807  0.0351 -0.0605
 1204SOL    HW1 4511   0.219   2.069   1.257 -0.1073 -1.3524 -0.8854
 1204SOL    HW2 4512   0.124   2.202   1.261  0.7326 -0.7870  1.5245
 1205SOL     OW 4513   5.516   2.512   3.810  0.4175  0.0044 -0.0229
 1205SOL    HW1 4514   5.528   2.449   3.887  3.2759 -0.4506 -0.7457
 1205SOL    HW2 4515   5.455   2.470   3.742 -0.4983 -0.4403  1.0280
 1206SOL     OW 4516   3.549   3.204   4.158  0.0582  0.0406 -0.0951
 1206SOL    HW1 4517   3.517   3.200   4.253 -0.3243 -0.1949 -0.2346
 1206SOL    HW2 4518   3.472   3.216   4.096  0.4008  1.4198 -0.3066
 1207SOL     OW 4519   0.271   5.240   2.546 -0.1626  0.4403 -0.2161
 1207SOL    HW1 4520   0.177   5.264   2.521 -0.4537 -0.2154  0.2356
 1207SOL    HW2 4521   0.312   5.188   2.471 -0.2868  0.4077 -0.2630
 1208SOL     OW 4522   4.421   1.421   6.080  0.3930  0.1635  0.0527
 1208SOL    HW1 4523   4.432   1.322   6.086  0.6481  0.1320 -0.7997
 1208SOL    HW2 4524   4.329   1.442   6.047  0.1215  0.2350  0.8353
 1209SOL     OW 4525   4.167   0.694   3.405  0.4078  0.6338  0.1739
 1209SOL    HW1 4526   4.134   0.601   3.417  0.8962  0.3254 -0.8119
 1209SOL    HW2 4527   4.250   0.707   3.460 -0.4772  0.9615  1.4855
 1210SOL     OW 4528   2.987   1.158   4.416 -0.0519  0.7433  0.4791
 1210SOL    HW1 4529   3.022   1.252   4.416 -0.1108  0.7725 -0.1121
 1210SOL    HW2 4530   3.061   1.095   4.393 -0.4432  0.8473 -1.2561
 1211SOL     OW 4531   1.960   3.505   0.154  0.1589  0.4410 -0.3180
 1211SOL    HW1 4532   1.993   3.600   0.152  0.7697  0.2318 -1.3612
 1211SOL    HW2 4533   2.015   3.450   0.091 -0.9967 -0.3412 -0.6743
 1212SOL     OW 4534   6.698   6.976   0.121 -0.4495 -0.7642 -0.2688
 1212SOL    HW1 4535   6.695   6.896   0.060  0.3651 -1.7839  0.9730
 1212SOL    HW2 4536   6.710   6.945   0.215 -0.1772  0.8433  0.2467
 1213SOL     OW 4537   4.478   2.060   2.820  0.0101  0.0155 -0.6847
 1213SOL    HW1 4538   4.567   2.102   2.804  0.9417 -1.6844 -0.2684
 1213SOL    HW2 4539   4.489   1.982   2.882 -1.7505 -0.3340 -0.7547
 1214SOL     OW 4540   2.182   2.078   2.851  0.0779 -0.8247  0.1160
 1214SOL    HW1 4541   2.254   2.142   2.876 -0.9221  0.9748 -1.3039
 1214SOL    HW2 4542   2.100   2.098   2.904 -0.3306 -0.6955 -0.5500
 1215SOL     OW 4543   2.634   5.348   3.603 -0.5009 -0.4124  0.1188
 1215SOL    HW1 4544   2.708   5.340   3.537 -0.5124 -0.3657  0.1001
 1215SOL    HW2 4545   2.548   5.364   3.555 -0.1249  2.5189  0.2024
 1216SOL     OW 4546   4.005   6.783   3.310  0.4594 -0.1396 -0.2112
 1216SOL    HW1 4547   3.946   6.845   3.361  1.6530  0.9818 -0.1418
 1216SOL    HW2 4548   4.095   6.781   3.352  1.7351  1.4252 -2.6147
 1217SOL     OW 4549   2.728   4.296   6.004 -0.4163  0.0073  0.2807
 1217SOL    HW1 4550   2.757   4.298   6.100 -1.5197  0.0537  0.6305
 1217SOL    HW2 4551   2.772   4.219   5.957 -1.6112 -1.4258  1.4223
 1218SOL     OW 4552   2.147   4.683   5.151 -0.2624 -0.5191 -0.4645
 1218SOL    HW1 4553   2.225   4.658   5.093 -0.0327 -1.3704  0.1976
 1218SOL    HW2 4554   2.145   4.783   5.161 -0.4530 -0.3165 -2.1120
 1219SOL     OW 4555   2.401   5.134   1.828  0.1068  1.2039 -0.3271
 1219SOL    HW1 4556   2.454   5.170   1.905 -0.6728  0.7782  0.4157
 1219SOL    HW2 4557   2.455   5.065   1.780 -0.8109 -1.5459  2.2790
 1220SOL     OW 4558   0.658   4.328   1.843  0.2826  0.2381 -0.0383
 1220SOL    HW1 4559   0.601   4.389   1.787  0.4240 -2.0984 -2.9739
 1220SOL    HW2 4560   0.599   4.276   1.905  0.0007  2.1347  1.3638
 1221SOL     OW 4561   4.424   4.500   1.112 -0.0699 -0.4241  0.6367
 1221SOL    HW1 4562   4.456   4.411   1.144 -0.6539 -0.3993  1.3002
 1221SOL    HW2 4563   4.413   4.497   1.012  1.2080 -0.6728  0.4796
 1222SOL     OW 4564   5.596   3.381   0.073  0.0180 -0.2790  0.1646
 1222SOL    HW1 4565   5.674   3.322   0.092 -0.7513 -1.7820 -1.1450
 1222SOL    HW2 4566   5.613   3.434  -0.010  0.0360  0.0994  0.4096
 1223SOL     OW 4567   2.729   6.429   0.644  0.7728  0.1391  0.1061
 1223SOL    HW1 4568   2.822   6.403   0.668  0.4754  0.1667  1.3441
 1223SOL    HW2 4569   2.676   6.347   0.623  0.8147  0.0500  0.3536
 1224SOL     OW 4570   2.763   6.583   1.143 -0.3719 -0.2148  0.0508
 1224SOL    HW1 4571   2.694   6.652   1.122 -2.5564 -1.3098  2.8335
 1224SOL    HW2 4572   2.854   6.624   1.140 -1.4440  2.3458  0.0322
 1225SOL     OW 4573   3.468   3.650   6.431  0.2131  0.1347  0.4659
 1225SOL    HW1 4574   3.436   3.555   6.437 -1.8859  0.7229 -0.4105
 1225SOL    HW2 4575   3.475   3.689   6.522  0.2942 -0.6137  0.7876
 1226SOL     OW 4576   2.425   5.700   6.754  0.1992 -0.3243 -0.1022
 1226SOL    HW1 4577   2.428   5.770   6.683  1.1796  0.6060  0.8000
 1226SOL    HW2 4578   2.453   5.612   6.716  0.8194  0.1769 -0.8536
 1227SOL     OW 4579   3.014   5.577   6.581  0.1306  0.1160  0.1591
 1227SOL    HW1 4580   2.982   5.640   6.651  0.0508 -0.7427  0.9072
 1227SOL    HW2 4581   3.045   5.629   6.501  1.6424  1.2020  1.3893
 1228SOL     OW 4582   4.597   3.842   6.005  0.2360 -0.2446 -0.6939
 1228SOL    HW1 4583   4.559   3.757   5.970 -1.9300  0.5306 -0.3877
 1228SOL    HW2 4584   4.523   3.903   6.033  1.7118  0.1667  2.9352
 1229SOL     OW 4585   1.141   2.881   5.961 -0.0200 -0.2984  0.1908
 1229SOL    HW1 4586   1.118   2.845   5.871  0.0310 -0.0354  0.0725
 1229SOL    HW2 4587   1.209   2.821   6.004  0.2031 -0.2388 -0.0810
 1230SOL     OW 4588   3.119   6.752   5.378 -0.4874  0.4840 -0.2030
 1230SOL    HW1 4589   3.078   6.841   5.357 -0.5626  0.8734  1.4148
 1230SOL    HW2 4590   3.209   6.767   5.420  1.0350 -0.3295 -2.9185
 1231SOL     OW 4591   0.368   4.509   4.183 -0.0747 -0.0514  0.4306
 1231SOL    HW1 4592   0.451   4.502   4.126  0.0435  1.6611  0.3540
 1231SOL    HW2 4593   0.334   4.603   4.182 -2.0546 -0.7187  0.4531
 1232SOL     OW 4594   2.783   1.711   1.121  0.2266  0.5634  0.0093
 1232SOL    HW1 4595   2.705   1.671   1.168  1.9844 -0.3416  2.3732
 1232SOL    HW2 4596   2.752   1.786   1.062 -2.3561  0.3528  0.9783
 1233SOL     OW 4597   0.403   2.750   4.687 -0.3323  0.0643 -0.1058
 1233SOL    HW1 4598   0.350   2.834   4.685 -0.2737  0.0971 -0.2202
 1233SOL    HW2 4599   0.484   2.759   4.630 -1.2613 -0.6997 -1.6053
 1234SOL     OW 4600   2.331   4.267   3.445  0.0166  0.4007 -0.6556
 1234SOL    HW1 4601   2.420   4.310   3.433  0.3475  0.4286  1.5277
 1234SOL    HW2 4602   2.314   4.252   3.543 -1.8704 -0.6741 -1.1022
 1235SOL     OW 4603   0.234   7.010   5.009 -0.3513 -0.2960 -0.0397
 1235SOL    HW1 4604   0.190   6.927   4.974 -0.3288  0.2027 -1.3061
 1235SOL    HW2 4605   0.329   6.990   5.032  0.1399 -0.2544 -1.9280
 1236SOL     OW 4606   4.934   1.227   4.749  0.6812  0.3838  0.3849
 1236SOL    HW1 4607   4.987   1.166   4.692  0.3507 -0.5308  1.0346
 1236SOL    HW2 4608   4.901   1.178   4.830  2.0351  1.8818  1.9358
 1237SOL     OW 4609   2.077   3.026   6.407 -0.3949 -0.3519 -0.3845
 1237SOL    HW1 4610   2.096   3.012   6.504  0.0757 -1.3202 -0.6130
 1237SOL    HW2 4611   2.067   3.124   6.389 -1.1278 -0.2015  0.7543
 1238SOL     OW 4612   0.914   1.502   1.010 -0.2930 -0.5362 -0.1619
 1238SOL    HW1 4613   0.985   1.555   0.964  0.2136 -1.0274  0.0518
 1238SOL    HW2 4614   0.918   1.519   1.108 -0.8642 -0.1053 -0.2011
 1239SOL     OW 4615   1.454   1.715   5.868 -0.6093  0.6927 -0.0889
 1239SOL    HW1 4616   1.483   1.691   5.776 -0.4109 -1.6600  0.5283
 1239SOL    HW2 4617   1.472   1.812   5.885 -1.6467  1.4578 -2.8613
 1240SOL     OW 4618   6.019   5.698   0.242 -0.1159  0.8845 -0.5587
 1240SOL    HW1 4619   6.067   5.611   0.246 -0.9612  0.4066 -0.5917
 1240SOL    HW2 4620   6.011   5.727   0.146  1.3939  1.7141 -0.4639
 1241SOL     OW 4621   0.834   2.969   4.553 -0.1367 -0.4728  0.4226
 1241SOL    HW1 4622   0.829   2.925   4.463  0.1327 -1.3977  0.8452
 1241SOL    HW2 4623   0.753   3.025   4.567  0.5086  0.8809 -0.9966
 1242SOL     OW 4624   2.140   2.689   5.705  0.2969  0.2829 -0.0597
 1242SOL    HW1 4625   2.131   2.689   5.805 -1.3952 -0.4689 -0.1876
 1242SOL    HW2 4626   2.111   2.778   5.670  1.0256  0.5973  0.1119
 1243SOL     OW 4627   5.086   6.186   5.066 -0.4255  0.2504 -0.4509
 1243SOL    HW1 4628   5.107   6.283   5.053 -0.9145  0.6482  1.5078
 1243SOL    HW2 4629   4.992   6.168   5.039 -0.9630  0.7567  1.0077
 1244SOL     OW 4630   2.731   0.818   2.323  0.2385  0.1999 -0.7223
 1244SOL    HW1 4631   2.787   0.859   2.396 -1.5997 -1.4067  1.7304
 1244SOL    HW2 4632   2.657   0.881   2.299  0.1979  0.2847 -0.3825
 1245SOL     OW 4633   3.137   3.811   5.148  0.3710 -0.4684 -0.4025
 1245SOL    HW1 4634   3.066   3.880   5.153  1.1158  0.3451 -0.8255
 1245SOL    HW2 4635   3.178   3.810   5.057 -0.3103 -2.1915 -0.7415
 1246SOL     OW 4636   1.809   6.991   2.348  0.0815  0.2186  0.1007
 1246SOL    HW1 4637   1.815   7.086   2.377  0.7395 -0.3876  2.0449
 1246SOL    HW2 4638   1.871   6.935   2.402 -0.5477 -1.3926 -0.7747
 1247SOL     OW 4639   6.746   1.002   6.207 -0.0412 -0.1062 -0.0923
 1247SOL    HW1 4640   6.685   1.034   6.280  2.4036  0.2514  1.9309
 1247SOL    HW2 4641   6.790   1.081   6.163  2.5742 -0.3379  1.8420
 1248SOL     OW 4642   2.887   6.868   5.107 -0.0250  0.4848 -0.3477
 1248SOL    HW1 4643   2.937   6.844   5.023 -0.4501  0.0209 -0.4752
 1248SOL    HW2 4644   2.951   6.905   5.174  0.4690  0.0520 -0.5699
 1249SOL     OW 4645   1.729   2.491   3.340 -1.0363  0.5474 -0.4165
 1249SOL    HW1 4646   1.764   2.569   3.392 -0.6964  0.5498 -0.6403
 1249SOL    HW2 4647   1.773   2.490   3.250 -0.3729 -0.4086 -0.0966
 1250SOL     OW 4648   5.578   3.434   4.787  0.2589 -0.2341  0.4325
 1250SOL    HW1 4649   5.493   3.453   4.738  1.4158  2.9399 -0.5501
 1250SOL    HW2 4650   5.557   3.375   4.866 -2.7778  0.1495  0.0576
 1251SOL     OW 4651   4.203   6.813   6.906  0.4545  0.3307  0.1894
 1251SOL    HW1 4652   4.257   6.733   6.882 -0.0309  0.6239 -2.1902
 1251SOL    HW2 4653   4.221   6.839   7.001  1.0176 -2.2375  0.8431
 1252SOL     OW 4654   1.396   3.808   0.964 -0.5407  0.0532  0.3759
 1252SOL    HW1 4655   1.328   3.789   0.893  1.4566 -1.4581 -1.2659
 1252SOL    HW2 4656   1.440   3.722   0.992  0.7189  0.9662  1.3390
 1253SOL     OW 4657   4.484   1.440   2.723 -0.3669 -0.5171 -0.5211
 1253SOL    HW1 4658   4.394   1.414   2.759 -1.4458  0.8061 -2.1003
 1253SOL    HW2 4659   4.532   1.496   2.791 -1.2994 -0.1498 -0.1483
 1254SOL     OW 4660   5.430   1.213   3.031 -0.1769 -0.2015 -0.1933
 1254SOL    HW1 4661   5.378   1.132   3.056 -1.5452  0.8811  0.5907
 1254SOL    HW2 4662   5.503   1.227   3.098 -0.1335 -0.6055 -0.1524
 1255SOL     OW 4663   6.997   1.357   1.260  0.1189 -0.5405 -0.5605
 1255SOL    HW1 4664   7.036   1.448   1.250  0.1493 -0.3262  1.0924
 1255SOL    HW2 4665   6.902   1.357   1.230 -0.4343  0.5258  1.0838
 1256SOL     OW 4666   6.900   3.149   3.286 -0.3387 -0.4416  0.2497
 1256SOL    HW1 4667   6.833   3.216   3.318  2.4508  1.3801  2.9040
 1256SOL    HW2 4668   6.889   3.064   3.338 -0.2968  0.0126  1.0121
 1257SOL     OW 4669   6.513   0.427   5.678  0.0234  0.5119 -0.4077
 1257SOL    HW1 4670   6.442   0.414   5.748 -0.2234 -0.5920 -0.8401
 1257SOL    HW2 4671   6.600   0.390   5.712 -0.1523 -0.2454 -0.7647
 1258SOL     OW 4672   0.168   0.483   4.754  0.4946  0.2918  0.6670
 1258SOL    HW1 4673   0.171   0.385   4.772 -0.4942  0.0571 -0.3985
 1258SOL    HW2 4674   0.131   0.530   4.834 -1.8516 -0.5273  0.1232
 1259SOL     OW 4675   5.107   5.194   3.500 -0.2318 -0.1237  0.1178
 1259SOL    HW1 4676   5.096   5.166   3.405 -2.5884 -0.5310  0.4350
 1259SOL    HW2 4677   5.181   5.142   3.542 -0.4382 -1.3529 -0.9802
 1260SOL     OW 4678   6.332   2.502   2.489  0.1140 -0.0057 -0.2765
 1260SOL    HW1 4679   6.268   2.432   2.458 -1.6432  1.8145 -0.9562
 1260SOL    HW2 4680   6.301   2.592   2.458  2.0636  1.1564  0.9228
 1261SOL     OW 4681   6.812   3.484   0.941  0.4288 -0.3338 -0.3934
 1261SOL    HW1 4682   6.810   3.394   0.986 -0.8972 -0.0622  0.1551
 1261SOL    HW2 4683   6.721   3.505   0.906  1.3226 -0.3556 -2.9275
 1262SOL     OW 4684   3.369   0.904   2.825 -0.3170  0.3478 -0.1059
 1262SOL    HW1 4685   3.363   0.994   2.867 -1.0239 -0.3118  1.2738
 1262SOL    HW2 4686   3.337   0.834   2.890 -3.5986 -0.5401 -2.4058
 1263SOL     OW 4687   0.384   1.966   2.151 -0.7013  0.1228 -0.2051
 1263SOL    HW1 4688   0.471   2.008   2.173 -2.0842  2.9931  0.2125
 1263SOL    HW2 4689   0.386   1.930   2.057  0.8118  0.3395 -0.2680
 1264SOL     OW 4690   2.825   1.692   5.710 -0.1831  0.0659 -0.8801
 1264SOL    HW1 4691   2.859   1.645   5.791 -3.1328  0.6362  0.8561
 1264SOL    HW2 4692   2.868   1.654   5.628  1.3157 -2.0518  0.7837
 1265SOL     OW 4693   1.932   2.017   6.632 -0.6758 -0.0909  0.0857
 1265SOL    HW1 4694   1.947   2.099   6.686  0.0386  1.1789 -1.9275
 1265SOL    HW2 4695   1.847   1.972   6.662 -0.2356  0.4460  2.2920
 1266SOL     OW 4696   4.333   0.884   6.602 -0.4178 -0.6513  0.0131
 1266SOL    HW1 4697   4.404   0.953   6.588 -1.5808  0.5744  0.0417
 1266SOL    HW2 4698   4.323   0.829   6.519  2.2441 -2.5217  0.7855
 1267SOL     OW 4699   2.684   6.843   2.695 -0.3332  0.2596  0.6838
 1267SOL    HW1 4700   2.667   6.800   2.784 -1.3364  0.9364  0.8379
 1267SOL    HW2 4701   2.737   6.781   2.638 -2.6228 -1.6926  0.4961
 1268SOL     OW 4702   4.430   2.950   5.347  0.4362 -0.5826  0.0607
 1268SOL    HW1 4703   4.493   2.891   5.296  0.0956 -1.2447  0.4006
 1268SOL    HW2 4704   4.457   2.953   5.443  1.2153  0.8524 -0.1736
 1269SOL     OW 4705   0.403   2.076   5.538  0.0145 -0.5487 -0.6094
 1269SOL    HW1 4706   0.319   2.110   5.581 -1.7667 -0.7560 -3.5967
 1269SOL    HW2 4707   0.458   2.154   5.508 -0.8871 -0.3181 -1.7425
 1270SOL     OW 4708   5.353   6.680   3.463 -0.4047 -0.5499 -0.1445
 1270SOL    HW1 4709   5.264   6.677   3.511  0.3789  2.5866  1.8087
 1270SOL    HW2 4710   5.358   6.763   3.408  1.8674  0.1976  1.0816
 1271SOL     OW 4711   2.621   1.103   0.094  0.0197 -0.1574 -0.2835
 1271SOL    HW1 4712   2.550   1.141   0.034  0.0779 -0.8984 -0.8383
 1271SOL    HW2 4713   2.578   1.053   0.169 -0.0725  1.5573  0.8602
 1272SOL     OW 4714   6.892   3.832   1.516 -0.0280  0.3754  0.2581
 1272SOL    HW1 4715   6.990   3.832   1.534 -0.3578  2.1242  2.4348
 1272SOL    HW2 4716   6.873   3.890   1.437  0.6346  0.4597  0.1562
 1273SOL     OW 4717   3.823   4.933   4.559 -0.2451 -0.8018 -0.6491
 1273SOL    HW1 4718   3.754   4.894   4.498 -1.3712  0.3306 -0.1449
 1273SOL    HW2 4719   3.779   4.966   4.642  0.9689 -0.3653 -0.1586
 1274SOL     OW 4720   0.297   4.506   4.748  0.1573 -0.7681 -0.1841
 1274SOL    HW1 4721   0.392   4.520   4.776  0.4261 -1.5287 -0.6852
 1274SOL    HW2 4722   0.245   4.589   4.764  0.0957 -1.3179  3.3461
 1275SOL     OW 4723   2.486   0.922   2.927 -0.6839 -0.2696 -0.3897
 1275SOL    HW1 4724   2.401   0.902   2.976 -1.5748  0.4953 -1.5822
 1275SOL    HW2 4725   2.470   0.918   2.828  0.3423  1.1477 -0.6442
 1276SOL     OW 4726   5.314   3.342   4.505 -0.1417 -0.4588 -0.2278
 1276SOL    HW1 4727   5.220   3.372   4.491 -0.3994 -0.5876  1.0669
 1276SOL    HW2 4728   5.327   3.252   4.464 -0.2686  0.0147 -1.3413
 1277SOL     OW 4729   1.075   6.092   5.671 -0.4788  0.2741 -0.7013
 1277SOL    HW1 4730   1.097   6.012   5.615  0.5326  2.6199 -3.9176
 1277SOL    HW2 4731   0.977   6.111   5.665 -0.6962 -0.5355 -0.0573
 1278SOL     OW 4732   0.854   6.032   1.331 -0.1462 -0.3042  0.2465
 1278SOL    HW1 4733   0.814   6.118   1.298  1.0174 -0.0333 -0.5038
 1278SOL    HW2 4734   0.923   6.001   1.267  1.2673 -0.4585  1.7753
 1279SOL     OW 4735   4.675   0.617   0.928 -0.1991 -0.4318 -0.3531
 1279SOL    HW1 4736   4.704   0.640   0.836  1.8196 -0.6623  0.1837
 1279SOL    HW2 4737   4.582   0.652   0.944  0.2906  1.6439 -1.6937
 1280SOL     OW 4738   3.160   2.160   3.072  0.4127  0.3960 -0.0526
 1280SOL    HW1 4739   3.066   2.194   3.068  0.3808  0.3573  0.4142
 1280SOL    HW2 4740   3.221   2.234   3.099  0.6079  0.5905 -0.9802
 1281SOL     OW 4741   5.091   6.072   5.697 -0.8829  0.0334  0.2836
 1281SOL    HW1 4742   5.174   6.029   5.734 -0.6796  1.6809  1.9234
 1281SOL    HW2 4743   5.100   6.082   5.598  0.4990 -0.6172  0.3129
 1282SOL     OW 4744   0.737   2.234   1.011 -0.1990  0.0784 -0.5018
 1282SOL    HW1 4745   0.753   2.329   0.984 -1.0015  0.1383 -0.7886
 1282SOL    HW2 4746   0.662   2.229   1.077  0.9063 -0.2073  0.7783
 1283SOL     OW 4747   6.791   6.364   5.072 -0.3641 -0.0965  0.0472
 1283SOL    HW1 4748   6.756   6.449   5.110  0.1645  0.0018  0.3151
 1283SOL    HW2 4749   6.855   6.384   4.998  2.0952 -0.1578  2.0699
 1284SOL     OW 4750   4.348   1.277   2.226  0.8048 -0.1800 -0.3638
 1284SOL    HW1 4751   4.416   1.291   2.154 -0.6188  0.7077 -1.6093
 1284SOL    HW2 4752   4.325   1.365   2.267  1.1148 -0.6023  0.7261
 1285SOL     OW 4753   1.726   1.521   5.200 -0.5095  0.1199 -0.5827
 1285SOL    HW1 4754   1.806   1.569   5.163 -0.8438  1.5555  0.4681
 1285SOL    HW2 4755   1.654   1.587   5.218 -1.0878 -0.8321  0.7053
 1286SOL     OW 4756   5.547   0.261   1.224  0.4384 -0.1770 -0.5323
 1286SOL    HW1 4757   5.538   0.303   1.313  1.0948 -0.3874 -0.3608
 1286SOL    HW2 4758   5.467   0.203   1.206  0.0483  0.2879 -0.3208
 1287SOL     OW 4759   5.362   4.755   6.800 -0.2773 -0.4391  0.3841
 1287SOL    HW1 4760   5.295   4.705   6.746  0.4810 -0.2616 -0.7451
 1287SOL    HW2 4761   5.369   4.849   6.767  3.3949 -1.4567 -2.3102
 1288SOL     OW 4762   4.077   4.985   4.314 -0.0881 -0.5909  0.3823
 1288SOL    HW1 4763   4.089   4.887   4.299 -1.5933 -0.8052  0.4229
 1288SOL    HW2 4764   4.152   5.020   4.371 -0.9425 -2.2883  2.7293
 1289SOL     OW 4765   0.841   6.161   1.576  0.5505 -0.4400  0.1996
 1289SOL    HW1 4766   0.846   6.099   1.497 -0.8127 -1.6433  1.0093
 1289SOL    HW2 4767   0.847   6.256   1.545 -0.5393 -0.8637 -1.4154
 1290SOL     OW 4768   1.610   6.105   5.198  0.0529  0.2289  0.3122
 1290SOL    HW1 4769   1.682   6.174   5.204  1.9748 -1.6798  0.2765
 1290SOL    HW2 4770   1.591   6.068   5.288 -0.4905  0.3067  0.2350
 1291SOL     OW 4771   4.136   6.402   3.245  0.0602  0.5985  0.6409
 1291SOL    HW1 4772   4.080   6.484   3.258  0.4832  0.6489  2.2603
 1291SOL    HW2 4773   4.077   6.321   3.245 -0.1732  0.7661  0.8393
 1292SOL     OW 4774   1.799   0.256   2.420 -0.0222 -0.2265 -0.1233
 1292SOL    HW1 4775   1.796   0.351   2.388 -0.7479 -0.5436 -1.0539
 1292SOL    HW2 4776   1.708   0.216   2.412  0.6854 -1.6471 -1.8259
 1293SOL     OW 4777   4.351   6.791   2.122 -0.1820 -0.1498  0.0511
 1293SOL    HW1 4778   4.358   6.723   2.049 -0.1118  0.1158 -0.1918
 1293SOL    HW2 4779   4.440   6.804   2.165 -0.5200 -1.4174  1.2093
 1294SOL     OW 4780   2.252   4.252   6.191 -0.5946  0.3562 -0.1939
 1294SOL    HW1 4781   2.235   4.208   6.279  0.6952 -0.2112 -0.1999
 1294SOL    HW2 4782   2.220   4.192   6.117  1.4377 -0.8194 -0.2163
 1295SOL     OW 4783   1.539   5.673   1.677  0.8292  0.1957 -0.0627
 1295SOL    HW1 4784   1.579   5.741   1.738  1.1117  0.4610 -0.5277
 1295SOL    HW2 4785   1.469   5.621   1.725  1.4723 -0.0226  0.6681
 1296SOL     OW 4786   2.305   0.084   5.513 -0.3038  0.2806  0.7913
 1296SOL    HW1 4787   2.309   0.172   5.560  0.9816 -0.3210  1.8706
 1296SOL    HW2 4788   2.319   0.098   5.415 -1.0200  1.3525  0.8221
 1297SOL     OW 4789   0.595   6.200   6.959 -0.2084  0.3740 -0.3300
 1297SOL    HW1 4790   0.649   6.146   7.023 -1.1414  0.1251  0.2674
 1297SOL    HW2 4791   0.618   6.297   6.970  0.1273  0.2717 -0.1062
 1298SOL     OW 4792   6.153   6.311   2.338  0.5968  0.3876 -0.2200
 1298SOL    HW1 4793   6.227   6.360   2.385  0.3707  1.1465 -0.6338
 1298SOL    HW2 4794   6.067   6.324   2.389  0.7186 -0.3847  0.1904
 1299SOL     OW 4795   0.794   6.110   5.634  0.2425 -0.8193  0.5888
 1299SOL    HW1 4796   0.716   6.135   5.691  0.3829 -0.1651  0.5085
 1299SOL    HW2 4797   0.777   6.138   5.540  1.8135  2.2548  1.0945
 1300SOL     OW 4798   1.656   3.382   1.208  0.4409  0.3450  0.5955
 1300SOL    HW1 4799   1.748   3.392   1.245  0.3640  1.2167  0.5811
 1300SOL    HW2 4800   1.612   3.301   1.248  1.6814 -0.8683 -0.4191
 1301SOL     OW 4801   0.453   2.536   0.122 -0.0131  0.0903 -0.3016
 1301SOL    HW1 4802   0.397   2.618   0.112 -0.1799 -0.0056 -0.1758
 1301SOL    HW2 4803   0.487   2.530   0.216 -1.5904 -0.9733  0.2440
 1302SOL     OW 4804   6.225   6.172   3.766  0.0821  0.4538  0.6756
 1302SOL    HW1 4805   6.300   6.201   3.707  1.5457 -2.4037  0.9902
 1302SOL    HW2 4806   6.252   6.181   3.862 -0.2269  0.0163  0.8078
 1303SOL     OW 4807   2.236   0.195   3.428  0.2996  0.3814 -0.1481
 1303SOL    HW1 4808   2.328   0.165   3.400 -0.0460 -0.9687  0.0615
 1303SOL    HW2 4809   2.185   0.226   3.348 -0.3669 -2.5783 -1.0096
 1304SOL     OW 4810   5.770   0.643   1.201 -0.0621 -0.0472  0.0049
 1304SOL    HW1 4811   5.739   0.578   1.132 -0.5237 -0.0503  0.2100
 1304SOL    HW2 4812   5.868   0.633   1.215  0.1086  0.2320 -0.9426
 1305SOL     OW 4813   3.376   0.457   6.398  0.5280  0.2821  0.0376
 1305SOL    HW1 4814   3.389   0.408   6.312  1.4803 -0.2690  0.4773
 1305SOL    HW2 4815   3.283   0.493   6.403  0.5653  0.6193 -1.3681
 1306SOL     OW 4816   2.191   6.806   5.057 -0.0042 -0.0309 -0.3964
 1306SOL    HW1 4817   2.193   6.890   5.003  0.2919  0.2682  0.0658
 1306SOL    HW2 4818   2.192   6.727   4.996  0.9410  0.2937 -0.8217
 1307SOL     OW 4819   2.329   4.775   3.302 -0.5361 -0.2738  0.2492
 1307SOL    HW1 4820   2.308   4.680   3.325  1.5060 -1.0590 -0.8819
 1307SOL    HW2 4821   2.262   4.809   3.235 -1.2045 -0.9282  0.5684
 1308SOL     OW 4822   6.755   5.206   5.919  0.2758 -0.2499 -0.1735
 1308SOL    HW1 4823   6.761   5.244   5.827  2.4696  0.2517  0.1217
 1308SOL    HW2 4824   6.841   5.220   5.967  0.4008 -3.4878  0.8040
 1309SOL     OW 4825   6.194   1.948   0.779 -0.0641 -0.1821  0.0542
 1309SOL    HW1 4826   6.162   1.857   0.755 -1.3005  0.3446 -0.3694
 1309SOL    HW2 4827   6.116   2.009   0.793  0.7444  1.0953 -0.7461
 1310SOL     OW 4828   1.142   2.573   5.269 -0.0616 -0.4815 -0.2151
 1310SOL    HW1 4829   1.201   2.542   5.344  0.6664 -0.9430 -0.9660
 1310SOL    HW2 4830   1.194   2.633   5.208 -0.8721  0.5234  0.0555
 1311SOL     OW 4831   5.662   5.106   5.927  0.4941 -0.2821  0.0117
 1311SOL    HW1 4832   5.565   5.132   5.920  0.3096 -1.1647 -1.0063
 1311SOL    HW2 4833   5.715   5.185   5.958 -0.8177 -0.3325  2.7474
 1312SOL     OW 4834   4.192   2.646   0.184 -0.2763  0.7714 -0.1816
 1312SOL    HW1 4835   4.209   2.622   0.279 -0.1465 -0.2407 -0.4523
 1312SOL    HW2 4836   4.271   2.621   0.128 -0.9582 -0.1002 -0.7904
 1313SOL     OW 4837   5.602   2.902   5.142 -0.8346  0.4423  0.3416
 1313SOL    HW1 4838   5.644   2.812   5.160  0.1184  1.0205  1.1692
 1313SOL    HW2 4839   5.576   2.944   5.229  2.1486  2.5310  0.3761
 1314SOL     OW 4840   2.693   2.430   3.530  0.1573 -0.7055  0.2036
 1314SOL    HW1 4841   2.697   2.478   3.618 -1.6805  0.5341 -0.3324
 1314SOL    HW2 4842   2.645   2.344   3.540 -2.1411  0.4964  0.0404
 1315SOL     OW 4843   5.200   0.612   2.782  0.2528 -0.7850 -0.1225
 1315SOL    HW1 4844   5.118   0.554   2.783 -0.0108 -0.4104  1.0387
 1315SOL    HW2 4845   5.177   0.702   2.817  1.4370 -1.0830  1.5106
 1316SOL     OW 4846   4.550   0.505   6.312  0.6273  0.0228 -0.3293
 1316SOL    HW1 4847   4.615   0.580   6.301  0.2912  0.1457 -1.7607
 1316SOL    HW2 4848   4.483   0.508   6.238  1.7325 -2.7655 -1.6156
 1317SOL     OW 4849   3.821   3.994   4.395 -0.3607 -0.2299  0.3300
 1317SOL    HW1 4850   3.910   4.033   4.371 -0.9145  0.5451 -0.5582
 1317SOL    HW2 4851   3.812   3.989   4.494  0.2406  0.7370  0.4482
 1318SOL     OW 4852   2.139   6.660   6.656  0.5302 -0.4272  0.1331
 1318SOL    HW1 4853   2.164   6.613   6.741  0.4259  0.0259  0.4205
 1318SOL    HW2 4854   2.191   6.622   6.580  1.1335 -0.3760  0.5151
 1319SOL     OW 4855   5.682   1.302   0.156 -0.6428  0.1106  0.2138
 1319SOL    HW1 4856   5.699   1.288   0.254  0.4938 -0.0726  0.0089
 1319SOL    HW2 4857   5.770   1.314   0.109 -1.2481  2.6816 -0.4212
 1320SOL     OW 4858   3.709   2.990   5.443  0.4620 -0.1417  0.1876
 1320SOL    HW1 4859   3.772   3.013   5.369 -0.2251 -0.4527 -0.5075
 1320SOL    HW2 4860   3.688   2.892   5.440  1.4816 -0.4321  1.6363
 1321SOL     OW 4861   6.781   3.243   1.080  0.3574  0.1382 -0.3067
 1321SOL    HW1 4862   6.798   3.280   1.172  0.4838  0.4446 -0.4507
 1321SOL    HW2 4863   6.773   3.144   1.085 -1.5802  0.2918  0.3362
 1322SOL     OW 4864   2.248   2.286   1.047  0.0469  0.3062  0.6851
 1322SOL    HW1 4865   2.281   2.317   0.958 -0.0964  0.2449  0.6098
 1322SOL    HW2 4866   2.154   2.317   1.060  0.3317  0.9918  1.1500
 1323SOL     OW 4867   5.450   3.514   1.151 -0.0079  0.7526 -0.4085
 1323SOL    HW1 4868   5.435   3.493   1.247 -1.6439  1.5751 -0.4316
 1323SOL    HW2 4869   5.542   3.549   1.138  0.4520  0.0045  0.7393
 1324SOL     OW 4870   2.880   4.851   5.784  0.5503 -0.3582  0.1183
 1324SOL    HW1 4871   2.851   4.790   5.858 -2.0612 -1.8689 -1.9634
 1324SOL    HW2 4872   2.960   4.812   5.739  0.6317 -0.7563  0.5921
 1325SOL     OW 4873   5.732   5.417   5.695 -0.1057  0.1523  0.1959
 1325SOL    HW1 4874   5.682   5.375   5.619  1.0491 -0.0876 -0.4535
 1325SOL    HW2 4875   5.667   5.452   5.762 -1.1377 -1.2729 -0.0029
 1326SOL     OW 4876   4.735   2.124   4.764  0.0839 -0.0779 -0.0384
 1326SOL    HW1 4877   4.790   2.093   4.687 -0.1586  0.5252 -0.4619
 1326SOL    HW2 4878   4.681   2.047   4.799  1.2451 -0.7013  0.4494
 1327SOL     OW 4879   4.327   4.588   2.471  0.1727 -0.3289  0.4692
 1327SOL    HW1 4880   4.253   4.587   2.539 -0.3474  0.4167 -0.0746
 1327SOL    HW2 4881   4.290   4.609   2.381  0.9988 -0.3346  0.1179
 1328SOL     OW 4882   1.562   2.710   6.018  0.5013  0.2008 -0.1653
 1328SOL    HW1 4883   1.641   2.709   6.080  1.4382  0.1417 -1.3414
 1328SOL    HW2 4884   1.581   2.770   5.940 -0.8945  0.7310 -0.1358
 1329SOL     OW 4885   1.567   1.978   5.443  0.0689  0.1704 -0.0694
 1329SOL    HW1 4886   1.619   2.053   5.402 -0.6350 -0.4413 -2.1860
 1329SOL    HW2 4887   1.510   1.934   5.374  1.9565 -3.6574  0.5316
 1330SOL     OW 4888   6.430   1.774   2.786 -0.1948 -0.4800 -0.0972
 1330SOL    HW1 4889   6.391   1.857   2.826  1.1960  0.4641 -0.6076
 1330SOL    HW2 4890   6.366   1.698   2.798 -1.1239  0.4450  1.1828
 1331SOL     OW 4891   5.343   0.727   5.226 -0.6797  0.2809 -0.6346
 1331SOL    HW1 4892   5.408   0.710   5.152 -0.4190  1.8651 -0.8085
 1331SOL    HW2 4893   5.370   0.673   5.306  0.4577  0.3842 -0.9242
 1332SOL     OW 4894   2.025   0.193   6.498  0.0106  1.2470 -0.2674
 1332SOL    HW1 4895   2.092   0.121   6.515  0.9893  2.1401 -0.1801
 1332SOL    HW2 4896   2.017   0.250   6.580 -0.5772  1.3779 -0.4111
 1333SOL     OW 4897   3.433   3.858   2.915  0.4365  0.1593 -0.0749
 1333SOL    HW1 4898   3.412   3.788   2.984  0.5333  0.7626  0.5768
 1333SOL    HW2 4899   3.493   3.819   2.845 -0.7746 -0.8685 -0.5917
 1334SOL     OW 4900   6.428   4.881   5.928 -0.0760 -0.0043  1.0906
 1334SOL    HW1 4901   6.508   4.891   5.987 -0.2372  1.5486  1.0695
 1334SOL    HW2 4902   6.381   4.795   5.951 -0.5486  0.8772  3.7299
 1335SOL     OW 4903   1.202   4.603   3.556 -0.5477  0.2161  0.2702
 1335SOL    HW1 4904   1.115   4.555   3.547 -0.0338 -0.5923 -0.6095
 1335SOL    HW2 4905   1.188   4.689   3.603 -1.4399 -0.9716  2.3136
 1336SOL     OW 4906   1.588   1.632   6.545  0.3255  0.0631 -0.4819
 1336SOL    HW1 4907   1.660   1.597   6.605  0.0171 -0.8947 -0.6615
 1336SOL    HW2 4908   1.563   1.562   6.478 -1.8057 -0.1815  0.4953
 1337SOL     OW 4909   1.719   0.457   1.047  0.7786  0.0157 -0.3376
 1337SOL    HW1 4910   1.716   0.527   0.975  1.1186  0.0397 -0.3278
 1337SOL    HW2 4911   1.627   0.445   1.084  0.8437  0.9727  0.1595
 1338SOL     OW 4912   1.044   3.089   5.627 -0.4217 -0.7400  0.1564
 1338SOL    HW1 4913   1.098   3.006   5.614  0.3696 -0.1565 -0.4339
 1338SOL    HW2 4914   0.957   3.080   5.579 -0.9163 -1.7259  1.1903
 1339SOL     OW 4915   6.370   1.328   6.726  0.2224  0.5751 -0.4093
 1339SOL    HW1 4916   6.331   1.236   6.726  1.2346  0.1147  1.0844
 1339SOL    HW2 4917   6.450   1.330   6.666  0.9761  0.1011  0.5472
 1340SOL     OW 4918   2.811   3.798   6.120  0.2760  0.4149  0.4471
 1340SOL    HW1 4919   2.717   3.815   6.149  0.2668 -0.9712  1.3401
 1340SOL    HW2 4920   2.814   3.714   6.065  0.8204  1.1276 -0.6391
 1341SOL     OW 4921   5.522   5.888   0.401 -0.2938  0.0309  0.4574
 1341SOL    HW1 4922   5.427   5.904   0.375 -0.5135 -0.3264  1.0119
 1341SOL    HW2 4923   5.526   5.856   0.496  0.4517  0.9022  0.7396
 1342SOL     OW 4924   3.130   0.030   1.610 -0.3266 -0.0978 -0.5073
 1342SOL    HW1 4925   3.049   0.088   1.614  0.1440  0.6203 -1.2279
 1342SOL    HW2 4926   3.147   0.002   1.516 -0.2950 -1.0623 -0.2294
 1343SOL     OW 4927   4.826   6.228   1.093  0.0848  0.6062  0.2185
 1343SOL    HW1 4928   4.843   6.195   1.000 -0.3644 -0.9748  0.6703
 1343SOL    HW2 4929   4.872   6.168   1.158 -3.6380 -1.4511  1.2704
 1344SOL     OW 4930   1.110   1.040   1.508  0.1788  0.2430  0.3590
 1344SOL    HW1 4931   1.154   0.953   1.533 -1.0428 -0.2778  0.7684
 1344SOL    HW2 4932   1.131   1.061   1.412  0.8311 -0.2782  0.3770
 1345SOL     OW 4933   0.583   5.597   6.093  0.3471 -0.1439  0.1307
 1345SOL    HW1 4934   0.612   5.687   6.062  0.8463 -0.2332  0.3377
 1345SOL    HW2 4935   0.487   5.582   6.066  0.6114 -0.0151 -0.9318
 1346SOL     OW 4936   5.554   4.746   2.999  0.3751 -0.4444  0.1625
 1346SOL    HW1 4937   5.599   4.697   2.924  1.6146  0.0609  0.5476
 1346SOL    HW2 4938   5.524   4.680   3.068  1.3164 -0.7352  0.3051
 1347SOL     OW 4939   1.175   1.476   5.554 -0.1827 -0.0045 -0.2482
 1347SOL    HW1 4940   1.109   1.520   5.494 -1.1087 -1.7837 -0.6048
 1347SOL    HW2 4941   1.217   1.399   5.507  0.4118 -0.3237  0.7775
 1348SOL     OW 4942   0.617   6.631   4.803  0.3507  0.6181  0.0295
 1348SOL    HW1 4943   0.520   6.653   4.794  0.2696  0.3042  0.1421
 1348SOL    HW2 4944   0.629   6.533   4.818  0.6074  0.8142  1.2221
 1349SOL     OW 4945   5.101   4.495   4.888 -0.1253 -0.8370 -0.2040
 1349SOL    HW1 4946   5.135   4.445   4.808  0.5298 -0.4864 -0.1546
 1349SOL    HW2 4947   5.001   4.492   4.889 -0.4027  1.8661 -2.8704
 1350SOL     OW 4948   5.021   6.023   6.094  0.3146 -0.0485 -0.0344
 1350SOL    HW1 4949   5.084   5.950   6.066  0.5468 -0.0054  0.3651
 1350SOL    HW2 4950   4.956   6.041   6.020  2.2829  1.6135 -1.4717
 1351SOL     OW 4951   4.950   5.248   0.637  0.0972  0.4455  0.0613
 1351SOL    HW1 4952   4.980   5.240   0.542  1.6202 -0.9146  0.6124
 1351SOL    HW2 4953   4.868   5.194   0.651 -0.0303  0.5036 -0.4240
 1352SOL     OW 4954   0.641   1.440   2.987 -0.0385 -0.2853  0.1221
 1352SOL    HW1 4955   0.737   1.455   3.010  0.0322 -1.5090  0.6707
 1352SOL    HW2 4956   0.633   1.364   2.922 -0.6250 -0.0641 -0.0787
 1353SOL     OW 4957   6.490   4.179   6.993 -0.7525 -0.1327  0.0136
 1353SOL    HW1 4958   6.457   4.123   7.069 -1.0311 -0.8554 -0.6173
 1353SOL    HW2 4959   6.543   4.121   6.931 -0.4197  0.4741 -0.2731
 1354SOL     OW 4960   5.038   5.082   2.218 -0.4177 -0.9571 -0.1242
 1354SOL    HW1 4961   4.977   5.014   2.259 -1.4054 -0.8541 -1.3365
 1354SOL    HW2 4962   4.990   5.129   2.144  0.3848  0.8044  0.4373
 1355SOL     OW 4963   3.780   3.513   4.691 -0.4578  0.2247 -0.3444
 1355SOL    HW1 4964   3.799   3.422   4.727 -0.5184  0.1522 -0.4920
 1355SOL    HW2 4965   3.712   3.506   4.618 -1.8035  0.5942  0.8448
 1356SOL     OW 4966   2.251   2.948   0.118 -0.0023  0.2939  0.3833
 1356SOL    HW1 4967   2.174   2.992   0.165  0.8195  0.6864  1.4066
 1356SOL    HW2 4968   2.282   3.006   0.042 -0.2695  0.4727  0.4088
 1357SOL     OW 4969   0.162   1.948   5.862 -0.3579 -0.0019 -0.0566
 1357SOL    HW1 4970   0.162   1.865   5.806  1.1558  0.8591 -1.4095
 1357SOL    HW2 4971   0.189   2.026   5.805 -1.3923  1.3804  1.2679
 1358SOL     OW 4972   3.359   5.815   3.370 -0.7045 -0.2108 -0.4218
 1358SOL    HW1 4973   3.356   5.724   3.410  0.4146  0.3023  0.9095
 1358SOL    HW2 4974   3.270   5.837   3.330 -1.2289 -1.5694 -0.0512
 1359SOL     OW 4975   4.049   4.748   6.665  0.0022  0.0746 -0.3218
 1359SOL    HW1 4976   4.112   4.686   6.711 -0.3416  0.6938  1.0280
 1359SOL    HW2 4977   3.958   4.705   6.660 -0.0922  0.2254  0.0774
 1360SOL     OW 4978   3.462   0.591   5.347  0.1532  0.3022 -0.0696
 1360SOL    HW1 4979   3.445   0.608   5.250  1.3155 -1.1769 -0.5750
 1360SOL    HW2 4980   3.408   0.512   5.376  1.7499 -0.8847 -0.2224
 1361SOL     OW 4981   5.811   5.417   4.627  0.2675 -0.6542  0.4725
 1361SOL    HW1 4982   5.850   5.457   4.710 -0.6202 -1.2529  1.1935
 1361SOL    HW2 4983   5.766   5.488   4.573  1.3839 -0.1488  0.1628
 1362SOL     OW 4984   3.673   2.568   6.330  0.3133 -1.1747 -0.3014
 1362SOL    HW1 4985   3.740   2.495   6.344  1.6481 -0.2447 -1.4762
 1362SOL    HW2 4986   3.668   2.590   6.232  0.5259  0.8053  0.0937
 1363SOL     OW 4987   5.488   0.831   3.065 -0.2668 -0.1758 -0.0887
 1363SOL    HW1 4988   5.452   0.738   3.056  1.3456 -0.7266 -1.3661
 1363SOL    HW2 4989   5.572   0.829   3.119  0.9888  0.1477 -1.9271
 1364SOL     OW 4990   2.516   4.685   5.776 -0.1553  0.3949 -0.1169
 1364SOL    HW1 4991   2.584   4.643   5.715 -0.5819 -2.4815  1.2264
 1364SOL    HW2 4992   2.424   4.668   5.739 -0.7216 -4.5768  2.7357
 1365SOL     OW 4993   6.540   3.876   6.622 -0.2335 -0.3799 -0.1924
 1365SOL    HW1 4994   6.544   3.777   6.608  0.3941 -0.4321  0.3468
 1365SOL    HW2 4995   6.515   3.920   6.535 -0.7882 -1.0206 -0.3733
 1366SOL     OW 4996   2.296   1.161   3.935  0.0244  0.0823  0.0208
 1366SOL    HW1 4997   2.231   1.226   3.974  0.7899  0.8382  0.0756
 1366SOL    HW2 4998   2.271   1.068   3.961 -1.3566  0.3076 -0.4339
 1367SOL     OW 4999   3.715   0.496   2.458  0.2020 -0.5172 -0.1839
 1367SOL    HW1 5000   3.792   0.560   2.463 -0.9853  0.9332  0.2329
 1367SOL    HW2 5001   3.676   0.485   2.550 -1.1644  0.1651 -0.6555
 1368SOL     OW 5002   2.508   1.808   3.851 -0.2269  0.2063  0.7931
 1368SOL    HW1 5003   2.477   1.851   3.936 -1.8354  0.8345 -0.0753
 1368SOL    HW2 5004   2.603   1.778   3.862  1.1287  4.1378  1.4250
 1369SOL     OW 5005   0.204   1.199   1.265  0.5149 -0.1076 -0.0371
 1369SOL    HW1 5006   0.237   1.198   1.171  0.6113 -0.9770 -0.0017
 1369SOL    HW2 5007   0.131   1.267   1.274 -1.2270 -1.6983 -1.3617
 1370SOL     OW 5008   0.640   0.924   2.887 -0.1260  0.5814 -0.1727
 1370SOL    HW1 5009   0.680   0.860   2.952 -2.2689 -1.1514 -0.4444
 1370SOL    HW2 5010   0.625   1.012   2.932  1.5765  0.5030  0.6227
 1371SOL     OW 5011   0.906   7.003   3.583 -0.3198 -0.5080 -0.6492
 1371SOL    HW1 5012   0.926   7.101   3.575 -1.2774  0.0642  2.6453
 1371SOL    HW2 5013   0.989   6.951   3.566  0.4539  0.9161 -1.4403
 1372SOL     OW 5014   4.066   1.306   2.576 -0.0648 -0.0898 -0.2468
 1372SOL    HW1 5015   4.072   1.310   2.676 -0.0576  0.7268 -0.2796
 1372SOL    HW2 5016   4.132   1.239   2.542  1.6710  1.3640  0.1278
 1373SOL     OW 5017   0.844   6.846   0.155  0.2176 -0.4830  0.2381
 1373SOL    HW1 5018   0.857   6.945   0.151  0.0938 -0.3950  1.7227
 1373SOL    HW2 5019   0.780   6.823   0.227  2.5554 -1.8252  2.0329
 1374SOL     OW 5020   5.683   1.968   3.241 -0.6875 -0.4269  0.0294
 1374SOL    HW1 5021   5.643   1.976   3.150 -1.8317  0.0223  0.5612
 1374SOL    HW2 5022   5.736   2.051   3.261 -0.1289 -0.6828 -0.3616
 1375SOL     OW 5023   2.128   4.089   2.549 -0.2011  0.2930  0.0697
 1375SOL    HW1 5024   2.113   4.030   2.469 -0.6241 -0.6909  0.8455
 1375SOL    HW2 5025   2.197   4.048   2.609  2.8990  2.8007 -1.4877
 1376SOL     OW 5026   5.320   6.847   2.622  0.5380 -0.2753 -0.9445
 1376SOL    HW1 5027   5.285   6.909   2.551 -2.5592 -1.4090 -0.5487
 1376SOL    HW2 5028   5.335   6.756   2.583  0.2325 -0.5369 -0.4540
 1377SOL     OW 5029   5.312   2.422   6.307 -0.8224  0.2142 -0.3781
 1377SOL    HW1 5030   5.227   2.472   6.292 -0.8523  0.3475  0.2382
 1377SOL    HW2 5031   5.325   2.405   6.404  0.2083  0.8292 -0.3908
 1378SOL     OW 5032   0.542   1.360   0.917 -0.0936  0.1181  0.0045
 1378SOL    HW1 5033   0.489   1.322   0.841  0.0221  0.2086 -0.1237
 1378SOL    HW2 5034   0.560   1.288   0.984  0.6443 -0.2105 -0.5313
 1379SOL     OW 5035   6.210   5.360   1.506  0.6091  0.3702  0.3182
 1379SOL    HW1 5036   6.201   5.261   1.511 -3.0813  0.0851 -4.7370
 1379SOL    HW2 5037   6.153   5.403   1.577 -2.4648 -1.3707 -0.9156
 1380SOL     OW 5038   5.606   3.114   2.231 -0.7141  0.1444  0.0539
 1380SOL    HW1 5039   5.567   3.149   2.316 -0.8067  1.2654 -0.4340
 1380SOL    HW2 5040   5.582   3.175   2.155 -1.1151 -1.1297 -0.8875
 1381SOL     OW 5041   4.391   6.570   1.904 -0.2463 -0.1230 -0.0097
 1381SOL    HW1 5042   4.294   6.585   1.927  0.4242  1.9967  1.7817
 1381SOL    HW2 5043   4.416   6.476   1.929 -1.8464 -0.7529 -0.6134
 1382SOL     OW 5044   6.155   5.422   0.197  0.1318 -0.0980 -0.0470
 1382SOL    HW1 5045   6.216   5.474   0.257 -0.7138 -0.4077  1.1135
 1382SOL    HW2 5046   6.136   5.333   0.238 -1.8336  0.3355  0.0935
 1383SOL     OW 5047   3.504   6.818   1.692  0.2895 -0.3206 -0.1134
 1383SOL    HW1 5048   3.435   6.756   1.654  0.4898 -0.0722 -0.9046
 1383SOL    HW2 5049   3.554   6.862   1.617 -0.3873  1.4285  0.4283
 1384SOL     OW 5050   6.428   1.815   2.125  0.5784  0.2217 -0.0640
 1384SOL    HW1 5051   6.435   1.910   2.154 -2.4126  1.1558 -1.9801
 1384SOL    HW2 5052   6.401   1.811   2.029 -0.6816 -2.5662  0.3010
 1385SOL     OW 5053   5.312   6.339   4.857 -0.5494  0.0435 -0.0919
 1385SOL    HW1 5054   5.334   6.251   4.900 -0.3564 -0.3022 -0.8682
 1385SOL    HW2 5055   5.395   6.380   4.821 -0.9165 -0.5772 -1.7575
 1386SOL     OW 5056   2.919   1.046   3.749 -0.3630  0.3789  0.3431
 1386SOL    HW1 5057   2.835   1.010   3.708  0.0082 -0.4026  0.2526
 1386SOL    HW2 5058   2.954   1.121   3.693 -0.6552  0.2821  0.0256
 1387SOL     OW 5059   5.098   2.861   5.444 -0.1679 -0.1877 -0.7175
 1387SOL    HW1 5060   5.005   2.888   5.470 -0.1661  0.2059 -1.1068
 1387SOL    HW2 5061   5.098   2.829   5.349  0.0707 -0.2990 -0.6798
 1388SOL     OW 5062   4.705   2.853   2.766  0.0467  0.2615 -0.4739
 1388SOL    HW1 5063   4.691   2.769   2.817 -0.7173  0.5858 -0.1324
 1388SOL    HW2 5064   4.640   2.857   2.690  1.2906 -0.3015 -1.6082
 1389SOL     OW 5065   5.966   1.195   3.537 -0.1344  0.1668 -0.1958
 1389SOL    HW1 5066   5.905   1.235   3.470 -0.1437  0.9299  0.2573
 1389SOL    HW2 5067   6.061   1.214   3.512 -0.1537  1.0188  0.3392
 1390SOL     OW 5068   5.518   2.395   2.419 -0.5888 -0.5772  0.2033
 1390SOL    HW1 5069   5.471   2.332   2.481 -0.5516 -0.5893  0.2198
 1390SOL    HW2 5070   5.610   2.414   2.455 -1.0444  0.4570  0.8335
 1391SOL     OW 5071   3.863   1.810   5.730 -0.6255 -0.0218 -0.4731
 1391SOL    HW1 5072   3.789   1.819   5.663 -0.4239  1.3607 -0.5507
 1391SOL    HW2 5073   3.916   1.895   5.731 -1.4416  0.5610  2.3597
 1392SOL     OW 5074   2.955   6.825   4.028 -0.3551  0.2611  0.2582
 1392SOL    HW1 5075   2.905   6.861   4.107 -1.5844  0.6625 -0.6690
 1392SOL    HW2 5076   2.953   6.725   4.031  0.7131  0.2429  1.3862
 1393SOL     OW 5077   4.096   6.782   1.275 -0.0515 -0.6096  0.3002
 1393SOL    HW1 5078   4.160   6.858   1.284 -0.7752 -0.1922  2.5852
 1393SOL    HW2 5079   4.003   6.818   1.270 -0.3802 -1.3203  1.0825
 1394SOL     OW 5080   3.453   1.423   0.907 -0.5609  0.1342 -0.1172
 1394SOL    HW1 5081   3.517   1.470   0.846 -0.5409 -2.3508 -2.1945
 1394SOL    HW2 5082   3.484   1.433   1.002  0.9281  1.8883 -0.7274
 1395SOL     OW 5083   2.334   5.005   3.921 -0.3809  0.0311  0.3511
 1395SOL    HW1 5084   2.247   5.024   3.875 -1.1506 -1.6989  1.0169
 1395SOL    HW2 5085   2.409   5.014   3.855 -1.0942  1.0533 -0.3552
 1396SOL     OW 5086   2.782   2.204   2.526 -0.5260  0.5251 -0.8009
 1396SOL    HW1 5087   2.881   2.188   2.531 -0.7287 -0.4120  1.5756
 1396SOL    HW2 5088   2.753   2.202   2.430  1.8073  1.2951 -1.5959
 1397SOL     OW 5089   2.240   5.955   5.746  0.2065 -0.5034 -0.1874
 1397SOL    HW1 5090   2.313   6.000   5.798 -0.9431  1.0207  0.1929
 1397SOL    HW2 5091   2.158   6.012   5.748 -1.6209 -2.9771  0.9811
 1398SOL     OW 5092   2.673   5.933   5.877  0.2774 -0.3279 -0.3993
 1398SOL    HW1 5093   2.755   5.937   5.820 -0.1285  1.1040 -0.9349
 1398SOL    HW2 5094   2.654   5.838   5.902  0.9278 -0.9108 -2.0004
 1399SOL     OW 5095   4.514   1.548   6.308  0.4637  0.1854  0.0965
 1399SOL    HW1 5096   4.610   1.565   6.328  0.9456  2.0175 -3.0842
 1399SOL    HW2 5097   4.507   1.492   6.225 -1.2973 -1.6427  1.3623
 1400SOL     OW 5098   0.422   0.554   6.291 -0.6680 -0.6669 -0.4143
 1400SOL    HW1 5099   0.387   0.603   6.371 -3.3374 -2.1573 -0.5472
 1400SOL    HW2 5100   0.512   0.591   6.267 -0.1374  0.4406  2.6856
 1401SOL     OW 5101   4.626   7.004   3.105 -0.0872 -0.0081 -0.0038
 1401SOL    HW1 5102   4.600   6.983   3.199  0.6775  0.1146  0.2480
 1401SOL    HW2 5103   4.571   6.950   3.042 -0.1411 -0.6029  0.5418
 1402SOL     OW 5104   4.653   2.560   2.561 -0.4966 -0.6970  0.9758
 1402SOL    HW1 5105   4.646   2.533   2.465  0.9835 -1.8013  1.1510
 1402SOL    HW2 5106   4.576   2.521   2.611 -1.6032  0.3621  0.1682
 1403SOL     OW 5107   3.789   3.964   5.261  0.1157  0.3287  0.3966
 1403SOL    HW1 5108   3.781   4.061   5.238  2.5439  0.7951  1.2694
 1403SOL    HW2 5109   3.856   3.921   5.200  0.2552 -0.4051  1.0514
 1404SOL     OW 5110   4.027   6.402   6.675  0.1636  0.5318 -0.0966
 1404SOL    HW1 5111   4.059   6.375   6.766 -1.4240  0.3625  0.4462
 1404SOL    HW2 5112   4.104   6.437   6.622  1.2814 -0.1593  1.0085
 1405SOL     OW 5113   0.265   4.548   0.606 -0.5330  0.0351 -0.6396
 1405SOL    HW1 5114   0.349   4.566   0.656  0.1740  0.6679 -1.9923
 1405SOL    HW2 5115   0.221   4.465   0.642  0.8397 -0.4990 -0.1489
 1406SOL     OW 5116   1.441   2.190   0.389 -0.2381 -0.0119 -0.6233
 1406SOL    HW1 5117   1.484   2.253   0.454 -1.2736  0.2306 -0.1575
 1406SOL    HW2 5118   1.424   2.238   0.303  0.8848 -0.2565 -0.9967
 1407SOL     OW 5119   6.701   1.514   1.907  0.6486  0.0814 -0.3852
 1407SOL    HW1 5120   6.694   1.584   1.978 -1.8729  0.0730 -0.5445
 1407SOL    HW2 5121   6.745   1.553   1.827 -0.8093  1.5831 -0.5175
 1408SOL     OW 5122   5.092   0.533   2.231  0.0491  0.1271  0.2433
 1408SOL    HW1 5123   5.094   0.434   2.248 -0.0805  0.1662  0.4932
 1408SOL    HW2 5124   5.153   0.555   2.155  0.6633 -0.0549  0.6713
 1409SOL     OW 5125   0.293   3.235   5.770 -0.6443  0.4158 -0.1198
 1409SOL    HW1 5126   0.355   3.157   5.776  0.3265  0.8457 -3.1114
 1409SOL    HW2 5127   0.345   3.320   5.767 -1.3414  0.8280 -2.0207
 1410SOL     OW 5128   2.553   0.735   6.490 -0.4819  0.2302 -0.0945
 1410SOL    HW1 5129   2.525   0.666   6.423  0.2045 -0.7056  0.5567
 1410SOL    HW2 5130   2.635   0.782   6.458 -2.2455  2.4505 -1.6522
 1411SOL     OW 5131   2.622   0.127   6.149 -0.3658 -0.4316  0.2204
 1411SOL    HW1 5132   2.531   0.090   6.131  0.4050 -1.6269 -1.4418
 1411SOL    HW2 5133   2.646   0.193   6.078 -0.4227  0.8825  1.3798
 1412SOL     OW 5134   3.047   0.703   5.388 -0.8948 -0.1655  0.1971
 1412SOL    HW1 5135   3.123   0.743   5.337 -0.5120 -0.4944  0.5083
 1412SOL    HW2 5136   3.012   0.623   5.339  0.9482 -1.8713  1.5287
 1413SOL     OW 5137   2.113   0.071   4.882  0.6301  0.3353 -0.5394
 1413SOL    HW1 5138   2.182   0.055   4.811  1.7794  0.1371  0.6034
 1413SOL    HW2 5139   2.146   0.139   4.947  0.3520 -0.7676  0.7965
 1414SOL     OW 5140   6.948   6.905   2.960 -0.2845 -0.0156  0.3631
 1414SOL    HW1 5141   6.924   6.852   2.879 -0.8154  0.7916 -0.0174
 1414SOL    HW2 5142   7.047   6.903   2.973 -0.2649 -0.7906  0.1439
 1415SOL     OW 5143   4.224   1.429   0.403 -0.4065  0.0004 -0.3007
 1415SOL    HW1 5144   4.309   1.478   0.383  0.4017 -1.5239 -0.7516
 1415SOL    HW2 5145   4.227   1.396   0.497  0.7843 -2.3960 -1.0921
 1416SOL     OW 5146   3.678   6.920   4.271  0.4989  0.4569  0.2149
 1416SOL    HW1 5147   3.629   6.838   4.239 -0.0361  1.0991 -0.6378
 1416SOL    HW2 5148   3.612   6.990   4.298  0.9289  1.2067 -0.6109
 1417SOL     OW 5149   3.812   3.257   4.749  0.1451  0.1333 -0.0846
 1417SOL    HW1 5150   3.713   3.257   4.761  0.2015 -1.0698  0.5332
 1417SOL    HW2 5151   3.840   3.170   4.708  1.0657 -0.0549  0.9153
 1418SOL     OW 5152   4.078   2.547   0.555  0.2091 -0.2483 -0.2226
 1418SOL    HW1 5153   4.146   2.605   0.510  1.1157  0.2666  1.6799
 1418SOL    HW2 5154   3.987   2.568   0.520  0.6349  1.6376 -0.3012
 1419SOL     OW 5155   1.065   0.092   1.939  0.0589 -0.6388  0.4310
 1419SOL    HW1 5156   0.998   0.160   1.969  1.2089  0.1981  1.1720
 1419SOL    HW2 5157   1.100   0.117   1.849  1.8066  0.8234  1.4471
 1420SOL     OW 5158   2.397   5.374   3.487  0.3597 -0.0594  0.0918
 1420SOL    HW1 5159   2.315   5.373   3.429  0.4774  0.9634 -0.1199
 1420SOL    HW2 5160   2.414   5.283   3.523 -0.2277 -0.5236 -0.7760
 1421SOL     OW 5161   0.307   4.279   6.141  0.5804  0.3143 -0.0955
 1421SOL    HW1 5162   0.337   4.303   6.234  1.4211 -1.2718  0.0680
 1421SOL    HW2 5163   0.306   4.362   6.085  1.9263  1.0028  0.8300
 1422SOL     OW 5164   1.428   3.707   0.641 -0.9581  0.2835 -0.4290
 1422SOL    HW1 5165   1.469   3.788   0.599  0.6994 -0.5790 -0.5333
 1422SOL    HW2 5166   1.497   3.659   0.695 -2.3971 -0.0319  1.2302
 1423SOL     OW 5167   3.913   1.312   4.853  0.1698  0.4071  0.6157
 1423SOL    HW1 5168   3.894   1.401   4.895 -0.0274 -0.0418  1.4938
 1423SOL    HW2 5169   3.845   1.246   4.883 -0.8676  0.4015 -1.5674
 1424SOL     OW 5170   6.364   4.963   1.076 -0.1773 -0.8613 -0.3990
 1424SOL    HW1 5171   6.440   4.897   1.074 -1.0194 -1.8876  0.0598
 1424SOL    HW2 5172   6.383   5.038   1.014  1.1319 -1.1934 -0.4274
 1425SOL     OW 5173   5.234   1.196   1.830  0.0490 -0.6060 -0.1246
 1425SOL    HW1 5174   5.188   1.135   1.895 -0.4455  0.4827  0.5770
 1425SOL    HW2 5175   5.182   1.199   1.745 -0.7310 -0.0375  0.3633
 1426SOL     OW 5176   5.493   0.041   6.973 -0.7315  0.4323  0.5032
 1426SOL    HW1 5177   5.551   0.085   6.905  1.4018 -1.8062  0.7377
 1426SOL    HW2 5178   5.457   0.110   7.036  1.3572  1.9932  0.0925
 1427SOL     OW 5179   2.556   6.860   3.756  0.3010  0.2194  0.3666
 1427SOL    HW1 5180   2.506   6.904   3.682  1.1493 -0.3645 -0.5812
 1427SOL    HW2 5181   2.560   6.921   3.835 -0.0907  1.0961 -0.2771
 1428SOL     OW 5182   3.985   5.154   3.562 -0.4749  0.5714  0.4131
 1428SOL    HW1 5183   3.931   5.196   3.634 -1.2468 -0.9252  0.7528
 1428SOL    HW2 5184   3.971   5.055   3.563  2.3495  0.0690  0.6005
 1429SOL     OW 5185   4.554   2.292   1.198  0.0685 -0.3491  0.6890
 1429SOL    HW1 5186   4.538   2.288   1.099 -1.0912 -1.0462  0.8883
 1429SOL    HW2 5187   4.651   2.275   1.217 -0.1021 -2.5582 -0.1871
 1430SOL     OW 5188   2.136   3.922   3.846 -0.5056  0.0285  0.2624
 1430SOL    HW1 5189   2.051   3.957   3.807  0.1710  0.4440 -0.9044
 1430SOL    HW2 5190   2.122   3.829   3.881 -1.6825  0.4761  1.0506
 1431SOL     OW 5191   3.837   1.096   1.431 -0.1027 -0.2629  0.1960
 1431SOL    HW1 5192   3.743   1.076   1.402 -0.9047  4.8419 -1.7175
 1431SOL    HW2 5193   3.891   1.125   1.352  1.8797  0.7801  1.8315
 1432SOL     OW 5194   1.571   0.623   1.791 -0.6168  0.0989  0.3643
 1432SOL    HW1 5195   1.492   0.596   1.845 -0.2926 -0.9137  0.3481
 1432SOL    HW2 5196   1.634   0.677   1.847 -0.3580 -0.8068  0.9722
 1433SOL     OW 5197   4.216   1.682   5.045  0.9327 -0.0000  0.0504
 1433SOL    HW1 5198   4.146   1.697   5.114 -0.3044 -2.0445 -0.6793
 1433SOL    HW2 5199   4.296   1.638   5.087 -0.0945 -1.8986  0.1384
 1434SOL     OW 5200   5.476   4.137   0.539 -0.0319 -0.1494  0.4119
 1434SOL    HW1 5201   5.571   4.106   0.536 -0.7336 -2.6482  1.4169
 1434SOL    HW2 5202   5.415   4.059   0.526 -1.9651  1.1878  0.9879
 1435SOL     OW 5203   0.177   5.191   3.321  0.7242 -0.1936  0.2527
 1435SOL    HW1 5204   0.264   5.224   3.283  0.5868 -0.6436 -0.4779
 1435SOL    HW2 5205   0.194   5.114   3.382  0.8746 -0.0032  0.4525
 1436SOL     OW 5206   5.944   2.370   6.146 -0.5388 -0.3460 -0.0238
 1436SOL    HW1 5207   5.887   2.392   6.225 -0.3701 -2.1200  0.6394
 1436SOL    HW2 5208   6.031   2.331   6.178  1.3356  2.6352 -0.9686
 1437SOL     OW 5209   5.156   2.471   0.319  0.2409  0.1665 -0.5050
 1437SOL    HW1 5210   5.109   2.497   0.234 -0.2155 -0.7317 -0.5399
 1437SOL    HW2 5211   5.242   2.522   0.326 -0.8390  2.0541 -0.2994
 1438SOL     OW 5212   1.411   6.095   2.586  0.0574  0.1333 -0.2813
 1438SOL    HW1 5213   1.458   6.130   2.505 -2.6159  0.7839 -1.6754
 1438SOL    HW2 5214   1.333   6.040   2.557 -1.8658  1.6054  1.7917
 1439SOL     OW 5215   6.291   3.552   4.085  0.3371 -0.5223  0.5395
 1439SOL    HW1 5216   6.252   3.473   4.038 -0.5506  0.1315  0.1615
 1439SOL    HW2 5217   6.269   3.547   4.182 -1.8466  0.4907  0.1409
 1440SOL     OW 5218   3.436   3.105   0.768  0.1500  0.1862 -0.0417
 1440SOL    HW1 5219   3.380   3.158   0.705  0.2215 -0.4261 -0.6318
 1440SOL    HW2 5220   3.511   3.162   0.802 -0.8788  1.0452  0.8469
 1441SOL     OW 5221   1.546   3.198   0.093  0.4698 -0.7536 -0.4558
 1441SOL    HW1 5222   1.635   3.223   0.056  0.5978  0.7026  0.7521
 1441SOL    HW2 5223   1.557   3.160   0.185 -0.0863 -1.5739 -0.7149
 1442SOL     OW 5224   3.655   5.523   0.121  0.6431 -0.1896  0.5254
 1442SOL    HW1 5225   3.571   5.528   0.067  0.6453 -1.5873  0.3572
 1442SOL    HW2 5226   3.667   5.608   0.172  0.9756  1.4625 -2.1279
 1443SOL     OW 5227   1.586   1.494   5.973 -0.2673  0.3883  0.3015
 1443SOL    HW1 5228   1.551   1.568   5.915  0.7965 -0.3351 -1.3525
 1443SOL    HW2 5229   1.607   1.530   6.064 -1.2043  1.7588  0.0154
 1444SOL     OW 5230   4.454   6.309   3.859 -0.1260  0.1079 -0.3860
 1444SOL    HW1 5231   4.532   6.247   3.868 -0.4713 -0.2130  0.4126
 1444SOL    HW2 5232   4.451   6.371   3.937 -1.4355 -0.7633  0.2988
 1445SOL     OW 5233   0.149   2.083   6.112 -0.5077 -0.4417  0.2871
 1445SOL    HW1 5234   0.051   2.091   6.131 -0.5681  0.3529 -0.3070
 1445SOL    HW2 5235   0.162   2.032   6.027 -0.3954 -0.6541  0.4301
 1446SOL     OW 5236   0.918   6.701   3.107  0.2516 -0.1559 -0.2513
 1446SOL    HW1 5237   0.876   6.649   3.182  1.3863 -0.0587  0.4872
 1446SOL    HW2 5238   0.972   6.639   3.050 -1.7467 -0.4975 -1.9023
 1447SOL     OW 5239   6.813   3.400   5.693  0.0476  0.0416 -0.3384
 1447SOL    HW1 5240   6.761   3.324   5.656  0.2449  0.1881 -0.9212
 1447SOL    HW2 5241   6.776   3.486   5.659 -0.6511  0.2530  0.9101
 1448SOL     OW 5242   5.668   1.822   1.670  0.3991 -0.5064  0.5972
 1448SOL    HW1 5243   5.759   1.806   1.707  0.7653  1.3270  0.5818
 1448SOL    HW2 5244   5.635   1.911   1.700 -1.1202 -0.8675  0.0646
 1449SOL     OW 5245   4.791   5.896   0.689  0.1466 -0.1912  0.3308
 1449SOL    HW1 5246   4.715   5.916   0.627  0.8525  2.1721  0.0979
 1449SOL    HW2 5247   4.877   5.921   0.644  0.7587  0.5606  1.8371
 1450SOL     OW 5248   5.606   0.240   4.045 -0.0474 -0.4956  0.0102
 1450SOL    HW1 5249   5.622   0.171   3.974  0.3498 -0.7447  0.3356
 1450SOL    HW2 5250   5.510   0.269   4.044 -0.0122 -0.4001 -0.7147
 1451SOL     OW 5251   0.710   0.414   1.498 -0.0703  0.8524 -0.2984
 1451SOL    HW1 5252   0.807   0.393   1.493 -0.0066  1.0827 -0.0193
 1451SOL    HW2 5253   0.669   0.403   1.407  0.2474  0.9091 -0.4499
 1452SOL     OW 5254   1.461   1.550   5.630  0.2462  0.6041 -0.0080
 1452SOL    HW1 5255   1.378   1.518   5.585  0.6095  0.2297 -0.4233
 1452SOL    HW2 5256   1.516   1.471   5.660  1.3204  0.8026 -1.3585
 1453SOL     OW 5257   4.876   5.089   5.265 -0.0661 -0.2023 -0.4254
 1453SOL    HW1 5258   4.974   5.072   5.272  0.0039  0.4579  0.2690
 1453SOL    HW2 5259   4.857   5.186   5.280 -0.9646 -0.5830  1.0737
 1454SOL     OW 5260   6.049   4.060   3.751 -0.4766 -0.0675  0.0259
 1454SOL    HW1 5261   5.968   4.062   3.811 -1.0620  0.6304 -0.7664
 1454SOL    HW2 5262   6.046   4.138   3.689 -0.3096 -1.2086 -1.4711
 1455SOL     OW 5263   1.876   1.080   3.522  0.5386 -0.0416  0.1696
 1455SOL    HW1 5264   1.909   0.993   3.486  2.0321 -0.0359  1.4180
 1455SOL    HW2 5265   1.881   1.150   3.451  3.7058  0.0510  0.3682
 1456SOL     OW 5266   5.307   3.955   5.557  0.5018  0.2007  0.4862
 1456SOL    HW1 5267   5.276   4.047   5.581  0.7851 -0.0469  1.8359
 1456SOL    HW2 5268   5.364   3.918   5.630  0.6841 -0.9166 -0.1961
 1457SOL     OW 5269   3.119   2.368   5.614  0.0956  0.5536  0.1119
 1457SOL    HW1 5270   3.153   2.382   5.521 -0.8442  0.2558 -0.2841
 1457SOL    HW2 5271   3.196   2.370   5.678  0.8673 -0.1517 -0.7618
 1458SOL     OW 5272   5.334   6.428   6.654 -0.3240  0.0353 -0.1044
 1458SOL    HW1 5273   5.321   6.518   6.694 -0.7035  0.1710 -0.5356
 1458SOL    HW2 5274   5.330   6.434   6.554  2.0073 -0.0608 -0.2730
 1459SOL     OW 5275   2.704   1.200   0.822 -0.1997  0.0240  0.7155
 1459SOL    HW1 5276   2.741   1.284   0.783  0.1031  0.5393  2.0466
 1459SOL    HW2 5277   2.691   1.212   0.921  2.9628 -2.4564  1.6432
 1460SOL     OW 5278   6.499   1.838   4.528  0.0923 -0.2094 -0.5771
 1460SOL    HW1 5279   6.557   1.909   4.568  1.5422 -1.6896  0.0417
 1460SOL    HW2 5280   6.555   1.761   4.498 -1.5683 -2.0443  0.7133
 1461SOL     OW 5281   4.611   2.736   1.864 -0.5207  0.0495 -0.0785
 1461SOL    HW1 5282   4.630   2.816   1.921 -0.4826 -0.4100  0.5706
 1461SOL    HW2 5283   4.551   2.762   1.788 -0.5131  0.6863  0.1272
 1462SOL     OW 5284   4.781   0.909   4.535 -0.1527  0.3072  0.3022
 1462SOL    HW1 5285   4.868   0.863   4.521 -0.3740  0.1506 -0.6814
 1462SOL    HW2 5286   4.785   1.002   4.499 -0.2246  0.4903  0.7572
 1463SOL     OW 5287   1.898   3.057   5.096 -0.0972  0.1626 -0.4612
 1463SOL    HW1 5288   1.993   3.074   5.125  0.2073  0.2407 -1.4926
 1463SOL    HW2 5289   1.891   2.966   5.056 -0.4777  0.1427 -0.3562
 1464SOL     OW 5290   0.926   6.025   6.561  0.2006 -0.6338  0.2448
 1464SOL    HW1 5291   1.011   6.065   6.594 -0.4939 -1.6286  3.6787
 1464SOL    HW2 5292   0.944   5.933   6.526  0.4783 -1.2753  1.9701
 1465SOL     OW 5293   2.401   0.646   4.844 -0.2796  0.6521  0.0452
 1465SOL    HW1 5294   2.394   0.736   4.888 -2.9236 -0.0064  1.1885
 1465SOL    HW2 5295   2.386   0.655   4.746 -1.2201  1.4024  0.2474
 1466SOL     OW 5296   6.307   0.470   4.922 -0.0531 -0.0176  0.7358
 1466SOL    HW1 5297   6.381   0.537   4.914  1.0246 -1.1008  1.3063
 1466SOL    HW2 5298   6.264   0.478   5.012 -0.3696  0.3486  0.5532
 1467SOL     OW 5299   0.431   6.066   4.599 -0.6165  0.0231  0.1941
 1467SOL    HW1 5300   0.510   6.062   4.660 -0.5901  1.1596  0.2493
 1467SOL    HW2 5301   0.461   6.092   4.507 -0.8248 -0.3704  0.0128
 1468SOL     OW 5302   4.104   6.124   2.452 -0.2989 -0.3995  0.1726
 1468SOL    HW1 5303   4.081   6.090   2.360 -0.5977 -1.5759  0.6665
 1468SOL    HW2 5304   4.201   6.148   2.454 -0.9279  2.8217 -1.3743
 1469SOL     OW 5305   6.944   5.825   0.914  0.0473  0.0436  0.5374
 1469SOL    HW1 5306   6.918   5.762   0.841  1.4064 -0.3248  0.3483
 1469SOL    HW2 5307   7.041   5.814   0.935  0.3135  2.0355  0.5488
 1470SOL     OW 5308   6.226   0.927   3.044 -0.5102 -0.0741 -0.0642
 1470SOL    HW1 5309   6.182   0.959   2.960  1.4495 -0.6266 -1.3700
 1470SOL    HW2 5310   6.325   0.933   3.034 -0.1603 -2.3418  1.3107
 1471SOL     OW 5311   4.392   5.607   1.909 -0.1740 -0.7777 -0.6554
 1471SOL    HW1 5312   4.389   5.643   2.002 -0.6703 -1.4447 -0.4105
 1471SOL    HW2 5313   4.300   5.587   1.877 -0.1405  0.7432 -1.8161
 1472SOL     OW 5314   4.336   5.945   6.665 -0.0608 -0.2701 -0.1825
 1472SOL    HW1 5315   4.321   6.015   6.735 -1.0616 -0.1780 -0.4797
 1472SOL    HW2 5316   4.434   5.924   6.660  0.0133 -0.4440  1.4001
 1473SOL     OW 5317   1.034   1.561   4.312  0.8999  0.0895 -0.4199
 1473SOL    HW1 5318   0.950   1.510   4.293  0.9801 -0.1679 -0.0911
 1473SOL    HW2 5319   1.086   1.572   4.227  0.4436  0.4152 -0.6594
 1474SOL     OW 5320   2.321   5.328   3.868 -0.7278  0.2163 -0.2533
 1474SOL    HW1 5321   2.277   5.418   3.866 -1.1898 -0.0020 -2.0995
 1474SOL    HW2 5322   2.262   5.261   3.824  0.2835 -0.6711 -0.3123
 1475SOL     OW 5323   0.725   4.997   1.493  0.8622  0.5642 -0.1781
 1475SOL    HW1 5324   0.708   4.972   1.588  0.1727  0.9172 -0.2010
 1475SOL    HW2 5325   0.704   4.920   1.433  2.5344 -0.0881  0.0442
 1476SOL     OW 5326   2.647   3.608   1.110 -0.1266 -0.2485  0.0157
 1476SOL    HW1 5327   2.598   3.658   1.181 -0.5422  0.5255 -0.7881
 1476SOL    HW2 5328   2.583   3.580   1.039  0.3688 -0.5024 -0.3362
 1477SOL     OW 5329   2.095   6.924   4.523 -0.3313  0.2318 -0.6662
 1477SOL    HW1 5330   2.063   6.995   4.460  3.4443  1.1451 -1.8094
 1477SOL    HW2 5331   2.037   6.923   4.604 -1.1963  3.8720 -1.0637
 1478SOL     OW 5332   6.686   5.178   0.718 -0.0552  0.4638 -0.0413
 1478SOL    HW1 5333   6.731   5.110   0.775 -1.4653  0.7685  1.5341
 1478SOL    HW2 5334   6.747   5.256   0.703  0.3066  0.4345  1.1952
 1479SOL     OW 5335   0.585   3.840   5.088  0.1306 -0.3115 -0.4315
 1479SOL    HW1 5336   0.510   3.844   5.021 -0.1236  0.5053 -0.1182
 1479SOL    HW2 5337   0.555   3.789   5.168  0.3636 -1.1127 -0.8445
 1480SOL     OW 5338   4.369   6.549   6.865  0.4991  0.9407  0.8382
 1480SOL    HW1 5339   4.458   6.569   6.904  1.6680  0.5983 -1.4920
 1480SOL    HW2 5340   4.377   6.540   6.766 -2.0022  0.1602  0.6323
 1481SOL     OW 5341   0.713   1.501   1.302  0.2234  0.7642  0.9652
 1481SOL    HW1 5342   0.741   1.485   1.397  0.6005 -0.2973  0.6875
 1481SOL    HW2 5343   0.792   1.488   1.241  0.5954  3.6831  0.6519
 1482SOL     OW 5344   0.435   1.745   1.082 -0.2161 -0.8531  0.3987
 1482SOL    HW1 5345   0.341   1.771   1.103 -0.2645 -0.7879  0.0987
 1482SOL    HW2 5346   0.462   1.667   1.139  0.6658  1.1847  2.9999
 1483SOL     OW 5347   0.643   2.088   1.501  0.1742  0.1813 -0.1653
 1483SOL    HW1 5348   0.594   2.168   1.535  1.5275  1.1681 -0.4637
 1483SOL    HW2 5349   0.595   2.051   1.421  0.6299  1.9561 -1.2937
 1484SOL     OW 5350   5.517   5.935   3.247  0.3306  0.1124  0.0164
 1484SOL    HW1 5351   5.457   5.861   3.276  0.1229  0.6776  1.1022
 1484SOL    HW2 5352   5.484   6.022   3.284  0.1600  0.8846 -1.8231
 1485SOL     OW 5353   5.636   3.574   5.102 -0.0765 -0.1303 -0.6664
 1485SOL    HW1 5354   5.683   3.552   5.017  0.9400 -0.9704  0.0904
 1485SOL    HW2 5355   5.657   3.504   5.171 -1.7756 -0.0866 -0.0453
 1486SOL     OW 5356   4.371   2.323   3.121 -0.0907 -0.2040 -0.2893
 1486SOL    HW1 5357   4.319   2.315   3.036 -2.3720  0.3075  0.9676
 1486SOL    HW2 5358   4.371   2.235   3.169  0.7236 -0.3510 -0.5491
 1487SOL     OW 5359   0.209   5.774   6.123 -0.0821 -0.2245 -0.1349
 1487SOL    HW1 5360   0.162   5.720   6.054 -2.1410  1.3070 -0.0339
 1487SOL    HW2 5361   0.201   5.730   6.212 -0.4781 -0.4750 -0.2949
 1488SOL     OW 5362   3.682   2.022   6.008 -0.3020  0.4742 -0.5176
 1488SOL    HW1 5363   3.654   2.030   6.104  1.2746  1.0580 -0.0826
 1488SOL    HW2 5364   3.755   1.955   6.000 -0.1303  0.7418 -1.2568
 1489SOL     OW 5365   2.152   6.454   4.161 -0.1330 -0.1522  0.1553
 1489SOL    HW1 5366   2.057   6.484   4.168 -0.6126 -1.5045 -0.1798
 1489SOL    HW2 5367   2.213   6.528   4.190 -1.3272  0.3486  1.5149
 1490SOL     OW 5368   2.010   1.483   0.466  0.0739 -0.1799 -0.4492
 1490SOL    HW1 5369   2.049   1.408   0.519  0.9492 -1.1772 -2.3717
 1490SOL    HW2 5370   1.938   1.447   0.407  0.4347  0.4757 -1.3128
 1491SOL     OW 5371   2.741   2.031   5.327 -0.7042 -0.5894  0.2651
 1491SOL    HW1 5372   2.744   2.096   5.250 -1.5882 -1.1524 -0.2633
 1491SOL    HW2 5373   2.651   2.034   5.369 -0.3328 -0.5473  1.0690
 1492SOL     OW 5374   0.692   3.241   0.981 -0.1255  0.6456  0.4134
 1492SOL    HW1 5375   0.729   3.332   0.996 -0.1008  0.5434  0.9896
 1492SOL    HW2 5376   0.635   3.215   1.059  2.2771 -1.0559  1.7288
 1493SOL     OW 5377   6.126   2.729   4.456  0.0379  0.6404 -0.0894
 1493SOL    HW1 5378   6.039   2.776   4.447 -1.1648 -1.4873 -0.1946
 1493SOL    HW2 5379   6.146   2.678   4.372  0.6442 -0.0419  0.4492
 1494SOL     OW 5380   1.659   2.246   3.904 -0.3985 -0.6036 -0.7442
 1494SOL    HW1 5381   1.593   2.319   3.884  0.8856  0.5512 -0.9319
 1494SOL    HW2 5382   1.666   2.185   3.825 -0.3991 -0.0664 -1.1654
 1495SOL     OW 5383   0.533   4.022   0.834 -0.0629  0.5736  0.1557
 1495SOL    HW1 5384   0.576   4.080   0.903  0.8140  1.6560 -1.2582
 1495SOL    HW2 5385   0.439   4.055   0.817 -0.2820  0.2997  0.8297
 1496SOL     OW 5386   0.156   0.494   2.901  0.0115  0.3303  0.3990
 1496SOL    HW1 5387   0.122   0.401   2.888 -0.0627  0.1101  1.9937
 1496SOL    HW2 5388   0.226   0.514   2.832 -0.2222 -0.7704 -0.1818
 1497SOL     OW 5389   3.934   5.733   6.836  0.4941  0.2656 -0.5481
 1497SOL    HW1 5390   3.930   5.680   6.921  1.1609 -1.3698 -1.4920
 1497SOL    HW2 5391   3.953   5.829   6.857 -0.1769  0.0567  1.1814
 1498SOL     OW 5392   3.949   6.425   5.533 -0.0683 -0.3772 -0.8062
 1498SOL    HW1 5393   4.034   6.475   5.547  0.3105 -0.7808 -1.6242
 1498SOL    HW2 5394   3.958   6.332   5.570  0.0750 -0.6265 -1.4468
 1499SOL     OW 5395   1.484   4.640   3.073  0.0511  1.0846 -0.5528
 1499SOL    HW1 5396   1.403   4.676   3.027 -0.0957  0.4867 -0.7708
 1499SOL    HW2 5397   1.481   4.664   3.170 -0.9226  0.1768 -0.3433
 1500SOL     OW 5398   3.512   5.258   4.995  0.1610  0.3483 -0.2869
 1500SOL    HW1 5399   3.596   5.262   4.941  0.2911  0.1576 -0.1029
 1500SOL    HW2 5400   3.532   5.282   5.090  0.0814 -0.0629 -0.1631
 1501SOL     OW 5401   3.388   0.802   3.964  0.0197  0.4457  0.2703
 1501SOL    HW1 5402   3.317   0.854   4.012 -1.1949  0.6482 -1.5961
 1501SOL    HW2 5403   3.472   0.856   3.960 -0.8440  1.7985 -0.5497
 1502SOL     OW 5404   6.090   0.981   6.364 -0.8405 -0.0899 -0.4147
 1502SOL    HW1 5405   6.045   1.052   6.310 -1.6344 -0.9493 -0.9036
 1502SOL    HW2 5406   6.185   0.971   6.335 -1.2087 -0.4222 -1.5457
 1503SOL     OW 5407   2.921   3.495   4.688 -0.1530  0.3214  0.1058
 1503SOL    HW1 5408   2.925   3.523   4.593 -1.1396  1.8870  0.4851
 1503SOL    HW2 5409   2.941   3.573   4.747 -0.0586 -0.4958  1.1922
 1504SOL     OW 5410   3.424   6.445   3.796  0.5107 -0.0383  0.0103
 1504SOL    HW1 5411   3.389   6.352   3.812 -0.1782  0.3482  0.8511
 1504SOL    HW2 5412   3.381   6.508   3.861  0.2915  1.0346 -1.1352
 1505SOL     OW 5413   5.199   6.701   1.965 -0.6994 -0.2934  0.2309
 1505SOL    HW1 5414   5.198   6.781   1.905  0.4656 -0.8240 -0.5198
 1505SOL    HW2 5415   5.293   6.681   1.994 -1.1710 -0.3608  1.8331
 1506SOL     OW 5416   6.391   6.678   1.980  0.5210 -0.4803 -0.5163
 1506SOL    HW1 5417   6.403   6.612   2.055 -1.1916  1.8627  1.9940
 1506SOL    HW2 5418   6.294   6.687   1.959  0.3674  3.0595  1.1038
 1507SOL     OW 5419   1.657   0.531   5.648 -0.6181 -0.3416 -0.1161
 1507SOL    HW1 5420   1.684   0.587   5.726 -0.8911  0.1675 -0.3812
 1507SOL    HW2 5421   1.719   0.548   5.572 -0.5829 -0.5511 -0.1357
 1508SOL     OW 5422   3.585   4.118   6.804  0.1595 -0.7398 -0.5831
 1508SOL    HW1 5423   3.604   4.215   6.813  0.1210 -0.7534 -0.3449
 1508SOL    HW2 5424   3.537   4.085   6.886 -0.1884 -0.8711 -0.8385
 1509SOL     OW 5425   5.222   3.063   5.561 -0.1742 -0.0876  0.1763
 1509SOL    HW1 5426   5.191   2.985   5.505 -2.4882  0.6114  0.3692
 1509SOL    HW2 5427   5.185   3.054   5.654  2.6893 -0.6471  1.3754
 1510SOL     OW 5428   4.629   1.947   1.710 -0.3069 -0.7303  0.2812
 1510SOL    HW1 5429   4.584   2.019   1.657  0.7398 -1.3428 -1.5132
 1510SOL    HW2 5430   4.577   1.931   1.794 -0.6782  1.9825  0.6854
 1511SOL     OW 5431   0.261   3.388   1.875 -0.3616  0.2110 -0.2834
 1511SOL    HW1 5432   0.351   3.360   1.844  0.5656  1.7008  0.9309
 1511SOL    HW2 5433   0.193   3.319   1.848  1.1903 -1.1669 -0.8052
 1512SOL     OW 5434   6.705   6.277   2.851 -0.0113  0.1507  0.0987
 1512SOL    HW1 5435   6.707   6.353   2.785  2.5521  1.5730  1.6460
 1512SOL    HW2 5436   6.734   6.193   2.805  2.1860  1.2023 -0.5990
 1513SOL     OW 5437   2.038   6.672   3.203 -0.3369  0.0522 -0.3507
 1513SOL    HW1 5438   2.012   6.762   3.238  2.2717  0.7370  0.0408
 1513SOL    HW2 5439   2.001   6.660   3.111 -1.1300  1.3066 -0.2233
 1514SOL     OW 5440   3.951   6.715   3.698  0.3508  0.3100  0.4119
 1514SOL    HW1 5441   4.020   6.647   3.721 -0.5350 -0.2443  1.5383
 1514SOL    HW2 5442   3.960   6.793   3.760 -0.1607  0.1296  0.7226
 1515SOL     OW 5443   5.580   4.991   6.761 -0.4500 -0.5072  0.0543
 1515SOL    HW1 5444   5.648   5.055   6.798 -1.9703  0.4373  1.3709
 1515SOL    HW2 5445   5.612   4.897   6.773  1.2175 -0.0589 -0.6351
 1516SOL     OW 5446   6.138   2.486   1.015  0.3318  0.1965  0.5607
 1516SOL    HW1 5447   6.086   2.507   0.932 -0.5052 -1.3728  0.6542
 1516SOL    HW2 5448   6.204   2.559   1.032 -0.4782  1.2598 -0.6685
 1517SOL     OW 5449   2.760   5.740   2.504 -0.1444 -0.4685 -0.1423
 1517SOL    HW1 5450   2.858   5.752   2.485  0.0950 -2.3756 -0.4011
 1517SOL    HW2 5451   2.737   5.786   2.589  1.1964 -0.7012  0.3803
 1518SOL     OW 5452   1.395   5.537   6.830 -0.5395 -0.3110  0.2953
 1518SOL    HW1 5453   1.475   5.527   6.772 -1.2012  1.0449 -0.9081
 1518SOL    HW2 5454   1.313   5.541   6.774 -1.5041 -1.8036  1.5049
 1519SOL     OW 5455   1.471   3.622   2.701 -0.5715 -0.3678 -0.3037
 1519SOL    HW1 5456   1.461   3.586   2.608 -2.1560 -0.0944 -0.2793
 1519SOL    HW2 5457   1.394   3.683   2.721 -0.6603 -0.9829  1.4291
 1520SOL     OW 5458   2.040   3.357   2.629 -0.5545  0.2825 -0.0918
 1520SOL    HW1 5459   1.945   3.384   2.645 -0.4937  0.3934  0.0786
 1520SOL    HW2 5460   2.075   3.306   2.707 -0.3284  0.6414  0.0442
 1521SOL     OW 5461   1.842   6.357   4.423 -0.2963 -0.2176  0.0724
 1521SOL    HW1 5462   1.931   6.325   4.391 -0.0050  2.2065 -1.8019
 1521SOL    HW2 5463   1.855   6.414   4.504 -0.0272  0.6873 -0.5916
 1522SOL     OW 5464   6.142   1.050   5.421 -0.4115 -0.0283  0.3012
 1522SOL    HW1 5465   6.230   1.072   5.463  1.2663 -1.4741 -2.2488
 1522SOL    HW2 5466   6.086   1.001   5.488  0.6851  0.8461  1.9593
 1523SOL     OW 5467   5.853   2.051   0.690  0.4180  0.5725 -0.1684
 1523SOL    HW1 5468   5.802   1.966   0.677  0.1564  0.6680  0.2015
 1523SOL    HW2 5469   5.806   2.126   0.644  0.5293  0.5575 -0.3067
 1524SOL     OW 5470   2.459   1.092   1.524  0.5200 -0.2223 -0.0514
 1524SOL    HW1 5471   2.520   1.158   1.568  0.6514 -1.2844  1.4453
 1524SOL    HW2 5472   2.514   1.031   1.467  0.9485 -1.3059  1.4537
 1525SOL     OW 5473   4.445   3.088   6.884 -0.3397 -0.0062  0.2103
 1525SOL    HW1 5474   4.542   3.112   6.878 -0.2423 -0.7528 -1.6070
 1525SOL    HW2 5475   4.432   3.022   6.958  0.9082 -1.4863 -0.8229
 1526SOL     OW 5476   6.365   1.556   1.582 -0.3863 -0.0649  0.0594
 1526SOL    HW1 5477   6.327   1.577   1.492  0.3032 -0.6781 -0.3808
 1526SOL    HW2 5478   6.418   1.634   1.615  0.3058 -0.2688 -0.5719
 1527SOL     OW 5479   2.242   0.759   5.458  0.2646  0.3799  0.1907
 1527SOL    HW1 5480   2.236   0.728   5.364 -1.1686 -0.4883  0.5354
 1527SOL    HW2 5481   2.276   0.853   5.460 -5.0583  2.7745 -1.7651
 1528SOL     OW 5482   4.582   0.298   3.116  0.0053 -0.1162 -0.0510
 1528SOL    HW1 5483   4.637   0.350   3.181  0.8301 -1.8724  0.7077
 1528SOL    HW2 5484   4.607   0.201   3.121 -0.8224 -0.4796 -2.0777
 1529SOL     OW 5485   0.886   6.531   5.229  0.3043  0.3348 -0.7132
 1529SOL    HW1 5486   0.912   6.524   5.133  2.8791  0.4611 -0.0884
 1529SOL    HW2 5487   0.967   6.546   5.285 -1.0993  0.0741  1.5305
 1530SOL     OW 5488   1.841   4.590   2.921  0.5485 -0.5899  0.1122
 1530SOL    HW1 5489   1.817   4.502   2.880  0.2600 -0.8269  0.7838
 1530SOL    HW2 5490   1.842   4.582   3.021  0.1250  0.2631  0.1976
 1531SOL     OW 5491   6.837   1.113   0.350  0.0019 -0.7917 -0.3558
 1531SOL    HW1 5492   6.867   1.022   0.323 -0.0053 -0.5104 -1.3472
 1531SOL    HW2 5493   6.769   1.106   0.422  0.2871 -1.5517 -0.1554
 1532SOL     OW 5494   1.977   1.934   5.710  0.0928  0.4970  0.3368
 1532SOL    HW1 5495   1.981   1.889   5.621 -0.6488  0.5810  0.2502
 1532SOL    HW2 5496   2.056   1.909   5.764 -0.0300 -0.4655  0.0817
 1533SOL     OW 5497   5.138   1.583   1.827  0.5985  0.2982  0.6238
 1533SOL    HW1 5498   5.088   1.666   1.802 -1.2209 -0.9329 -0.0192
 1533SOL    HW2 5499   5.103   1.506   1.774  1.4293 -1.1088  2.0369
 1534SOL     OW 5500   4.999   1.357   1.690 -0.2562  0.5762 -0.1480
 1534SOL    HW1 5501   5.026   1.303   1.610  0.4394  1.6134 -0.6343
 1534SOL    HW2 5502   4.941   1.433   1.661 -0.1750  0.8359  0.3564
 1535SOL     OW 5503   5.270   4.910   3.370 -0.5247 -0.1692 -0.7281
 1535SOL    HW1 5504   5.221   4.980   3.422 -0.8280 -0.6471 -0.3747
 1535SOL    HW2 5505   5.367   4.936   3.362 -0.1375 -0.8302  1.3741
 1536SOL     OW 5506   2.769   5.229   3.380  0.1012  0.4174  0.2048
 1536SOL    HW1 5507   2.745   5.150   3.437  2.5975 -1.4097 -1.0744
 1536SOL    HW2 5508   2.729   5.217   3.289 -0.9025  1.5310  0.4761
 1537SOL     OW 5509   2.841   6.577   4.472 -0.4290 -0.1160  0.1001
 1537SOL    HW1 5510   2.753   6.621   4.451  0.0169 -0.1888 -2.2192
 1537SOL    HW2 5511   2.915   6.630   4.432  0.5460 -0.4766  1.3720
 1538SOL     OW 5512   4.149   6.969   5.982 -0.5203 -0.5043  0.7064
 1538SOL    HW1 5513   4.115   6.948   5.891  1.4885 -3.7484  0.5527
 1538SOL    HW2 5514   4.231   7.027   5.975 -0.2186 -0.9613  0.4013
 1539SOL     OW 5515   2.690   0.878   1.474 -0.2937  0.1604 -0.8368
 1539SOL    HW1 5516   2.750   0.931   1.413 -0.0066 -0.9733 -1.5801
 1539SOL    HW2 5517   2.609   0.849   1.423 -0.6016  0.1501 -0.3468
 1540SOL     OW 5518   0.111   2.560   6.298 -0.0810 -0.3477 -0.2165
 1540SOL    HW1 5519   0.205   2.545   6.327  0.5975  2.7036 -0.4953
 1540SOL    HW2 5520   0.073   2.639   6.347 -0.8783  1.3336 -3.3016
 1541SOL     OW 5521   5.264   1.426   2.988 -0.2555 -0.3063  0.0604
 1541SOL    HW1 5522   5.318   1.342   3.000 -0.9085 -0.4934  1.9892
 1541SOL    HW2 5523   5.324   1.505   2.989  0.1737 -0.6318  0.2512
 1542SOL     OW 5524   6.814   6.000   6.577  0.0265  0.4247  0.2963
 1542SOL    HW1 5525   6.882   5.969   6.643 -1.9830 -2.4105  1.2419
 1542SOL    HW2 5526   6.738   6.044   6.626 -1.2339 -1.2236 -0.0728
 1543SOL     OW 5527   3.323   3.670   3.058  0.4588  0.6128  0.0871
 1543SOL    HW1 5528   3.255   3.663   3.131 -0.5418  0.9697 -0.7946
 1543SOL    HW2 5529   3.297   3.611   2.982  0.9521  1.0270 -0.4110
 1544SOL     OW 5530   3.791   3.783   1.729  0.2279  0.3476  0.2535
 1544SOL    HW1 5531   3.787   3.815   1.823 -2.0732  0.3136  0.2169
 1544SOL    HW2 5532   3.817   3.686   1.728 -0.9756 -0.0017  0.9689
 1545SOL     OW 5533   1.123   5.804   4.751 -0.3141  0.2880  0.7272
 1545SOL    HW1 5534   1.202   5.744   4.738 -0.0290  0.9852 -1.1958
 1545SOL    HW2 5535   1.132   5.855   4.837  1.6205  0.7429  0.2931
 1546SOL     OW 5536   1.777   5.599   0.760 -0.1953  0.4563 -0.0008
 1546SOL    HW1 5537   1.867   5.643   0.768 -0.6194  1.4728 -0.6951
 1546SOL    HW2 5538   1.778   5.535   0.684 -0.2098  0.8552 -0.3389
 1547SOL     OW 5539   2.844   5.145   5.491  0.3822  0.0373 -1.1499
 1547SOL    HW1 5540   2.924   5.155   5.550  1.6751  1.9189 -3.0742
 1547SOL    HW2 5541   2.821   5.233   5.451 -1.7949 -0.7581 -1.7754
 1548SOL     OW 5542   0.982   4.423   3.521 -0.8704 -0.2263  0.4159
 1548SOL    HW1 5543   0.990   4.331   3.559 -0.9972 -0.2597  0.3630
 1548SOL    HW2 5544   0.929   4.419   3.436 -0.2217 -0.2152  0.0045
 1549SOL     OW 5545   4.615   1.614   2.346  0.7745  0.2900 -0.2657
 1549SOL    HW1 5546   4.686   1.545   2.360  0.0744 -0.0055  2.4161
 1549SOL    HW2 5547   4.649   1.703   2.374  0.5493  0.3999 -0.3361
 1550SOL     OW 5548   2.910   4.768   2.116  0.0562 -0.3659  0.0260
 1550SOL    HW1 5549   2.867   4.715   2.043 -0.4577 -0.2566  0.2438
 1550SOL    HW2 5550   2.994   4.811   2.082 -0.8138  0.6834 -0.8703
 1551SOL     OW 5551   2.505   1.195   3.064 -0.6072 -0.0772  0.5554
 1551SOL    HW1 5552   2.478   1.144   2.983  1.9612  0.7824 -0.9778
 1551SOL    HW2 5553   2.583   1.254   3.042 -1.8608  2.6961  2.8371
 1552SOL     OW 5554   0.211   6.789   1.667 -0.7078  0.2361 -0.1926
 1552SOL    HW1 5555   0.206   6.866   1.604  1.2940  0.3439 -0.2929
 1552SOL    HW2 5556   0.303   6.784   1.707 -0.5098 -2.5091 -0.7663
 1553SOL     OW 5557   6.992   3.005   6.030  0.5413  0.6550 -0.0075
 1553SOL    HW1 5558   6.910   3.044   5.988  0.4159 -0.3388 -0.7312
 1553SOL    HW2 5559   6.987   3.016   6.129 -1.5387 -1.2692  0.2032
 1554SOL     OW 5560   3.656   3.307   6.413 -0.6212 -0.4621 -0.4046
 1554SOL    HW1 5561   3.583   3.338   6.474  1.7014  1.1135  1.8126
 1554SOL    HW2 5562   3.670   3.375   6.341 -0.6127 -0.2059 -0.1624
 1555SOL     OW 5563   4.281   1.168   1.031 -0.4516  0.7959  0.2329
 1555SOL    HW1 5564   4.270   1.261   0.996 -1.3000  1.5127  2.2313
 1555SOL    HW2 5565   4.196   1.137   1.073  0.4597  0.0113  1.5946
 1556SOL     OW 5566   2.819   2.088   1.973  0.4083 -0.5470  0.5886
 1556SOL    HW1 5567   2.783   2.120   1.886  0.8097  0.0149  0.6250
 1556SOL    HW2 5568   2.835   2.166   2.033  0.4646 -0.9012  1.0378
 1557SOL     OW 5569   2.482   2.317   1.225 -0.6146  0.4730  0.1512
 1557SOL    HW1 5570   2.533   2.232   1.239 -0.0474  0.5599 -1.2618
 1557SOL    HW2 5571   2.402   2.299   1.168 -0.2240  0.9505 -0.5705
 1558SOL     OW 5572   5.257   2.662   1.139  0.5267 -0.3825 -1.0056
 1558SOL    HW1 5573   5.296   2.682   1.230  1.3778  1.7049 -1.7531
 1558SOL    HW2 5574   5.159   2.647   1.148  0.3549  1.1165  0.1509
 1559SOL     OW 5575   3.499   0.043   3.024  0.4295 -0.6523  0.2502
 1559SOL    HW1 5576   3.515   0.003   2.933 -0.1858  0.3891 -0.3347
 1559SOL    HW2 5577   3.566   0.116   3.040 -1.3960  1.3373 -0.7386
 1560SOL     OW 5578   4.203   3.533   0.689 -0.5543 -0.2685 -0.6262
 1560SOL    HW1 5579   4.209   3.633   0.683 -2.1856 -0.0539  0.6344
 1560SOL    HW2 5580   4.134   3.499   0.625 -1.8590 -0.2733  0.7207
 1561SOL     OW 5581   5.988   1.137   1.330 -0.5046 -0.0013  0.3471
 1561SOL    HW1 5582   5.888   1.140   1.317 -0.5300  1.1037  0.6568
 1561SOL    HW2 5583   6.008   1.120   1.427 -0.4362  1.7557  0.6745
 1562SOL     OW 5584   1.591   6.929   2.932 -0.5834 -0.0117 -0.4599
 1562SOL    HW1 5585   1.546   6.980   3.005 -0.5861 -1.2049  0.4133
 1562SOL    HW2 5586   1.688   6.918   2.955 -0.4671  0.0595 -0.9083
 1563SOL     OW 5587   2.241   5.499   3.128  0.2961  0.3477  0.1260
 1563SOL    HW1 5588   2.192   5.546   3.201 -0.4696  1.3324 -0.9725
 1563SOL    HW2 5589   2.303   5.563   3.082 -0.4065  0.2018 -1.0903
 1564SOL     OW 5590   0.133   2.955   1.530  0.5784  0.7672 -0.6339
 1564SOL    HW1 5591   0.126   2.971   1.629 -0.2838  1.0236 -0.7280
 1564SOL    HW2 5592   0.206   2.890   1.512  0.2819  0.1726  0.2460
 1565SOL     OW 5593   6.651   2.761   5.842  0.6460 -0.5567  0.5088
 1565SOL    HW1 5594   6.580   2.823   5.809 -0.5908 -1.0533  2.0913
 1565SOL    HW2 5595   6.710   2.735   5.766  0.5897  1.7214 -0.4134
 1566SOL     OW 5596   3.293   4.897   3.520  0.1745  0.4351  0.0525
 1566SOL    HW1 5597   3.289   4.914   3.619  1.3660 -0.7027  0.3273
 1566SOL    HW2 5598   3.387   4.876   3.494  0.1568  2.1566 -1.6031
 1567SOL     OW 5599   5.029   6.977   3.766 -0.4142 -0.3736  0.1177
 1567SOL    HW1 5600   5.100   7.022   3.821 -0.6713 -1.2467  1.2210
 1567SOL    HW2 5601   4.949   7.036   3.760  0.7676  1.1574 -2.1657
 1568SOL     OW 5602   1.363   4.007   1.169 -0.5685  0.4792 -0.2195
 1568SOL    HW1 5603   1.386   3.937   1.102 -2.3040 -0.3627  0.0067
 1568SOL    HW2 5604   1.296   4.071   1.129  1.5429  2.5304 -0.6888
 1569SOL     OW 5605   2.841   1.043   1.325 -0.2435  0.0783  0.0224
 1569SOL    HW1 5606   2.833   1.140   1.346 -0.0064  0.2180 -0.5281
 1569SOL    HW2 5607   2.928   1.025   1.280  0.5344 -0.6893  1.7398
 1570SOL     OW 5608   1.842   5.821   5.659  0.1785  0.1841 -0.8720
 1570SOL    HW1 5609   1.856   5.830   5.560  1.3581  2.7771 -0.5513
 1570SOL    HW2 5610   1.744   5.831   5.680 -0.2786 -1.8477 -1.8492
 1571SOL     OW 5611   1.268   0.501   4.510 -0.4919  0.3690  0.1672
 1571SOL    HW1 5612   1.256   0.595   4.477 -0.9324  0.1835 -0.2163
 1571SOL    HW2 5613   1.352   0.495   4.564 -0.8797  1.1659  0.8910
 1572SOL     OW 5614   1.898   0.361   4.510 -0.1996 -0.3320 -0.6862
 1572SOL    HW1 5615   1.872   0.306   4.590  1.3690 -2.6568 -1.6735
 1572SOL    HW2 5616   1.826   0.356   4.442 -0.4881 -0.3736 -0.3823
 1573SOL     OW 5617   4.279   0.329   5.792  0.1015  0.7166 -0.0505
 1573SOL    HW1 5618   4.266   0.389   5.714 -2.0409 -1.2947 -1.3611
 1573SOL    HW2 5619   4.321   0.243   5.762 -0.0266  0.2085  1.1628
 1574SOL     OW 5620   0.557   4.792   5.272 -0.2992 -0.5003 -0.2984
 1574SOL    HW1 5621   0.515   4.705   5.245 -0.1305 -0.4312 -0.7888
 1574SOL    HW2 5622   0.628   4.775   5.340  1.0251 -0.9575 -1.7516
 1575SOL     OW 5623   0.176   1.698   1.220 -0.1165  0.1835  0.1465
 1575SOL    HW1 5624   0.093   1.678   1.272 -0.9419  0.2538 -1.1116
 1575SOL    HW2 5625   0.189   1.628   1.150  0.9364  0.1380  0.3764
 1576SOL     OW 5626   0.293   4.421   1.238  0.2875 -0.0984  0.1163
 1576SOL    HW1 5627   0.260   4.455   1.150 -0.2328 -1.7822 -0.3824
 1576SOL    HW2 5628   0.280   4.491   1.308 -2.5271  0.0908 -0.4654
 1577SOL     OW 5629   4.764   5.680   4.108 -0.7465 -0.0532 -0.0834
 1577SOL    HW1 5630   4.753   5.762   4.050  1.0137 -0.6391 -1.3334
 1577SOL    HW2 5631   4.852   5.638   4.088 -1.8330 -2.5718  0.1432
 1578SOL     OW 5632   5.390   0.033   1.884  0.6800  0.0208 -0.2226
 1578SOL    HW1 5633   5.292   0.017   1.894  0.9025 -2.0361 -0.8750
 1578SOL    HW2 5634   5.414   0.123   1.922 -1.1833 -0.1077  1.3868
 1579SOL     OW 5635   1.408   4.556   2.328 -0.0817 -0.9557  0.4629
 1579SOL    HW1 5636   1.311   4.580   2.335  0.1727  0.2137  0.3326
 1579SOL    HW2 5637   1.444   4.533   2.418 -0.0522  0.4746  0.8479
 1580SOL     OW 5638   4.313   3.273   5.459  0.4814  0.5796 -0.5504
 1580SOL    HW1 5639   4.324   3.218   5.376  0.1466  1.0698 -0.9225
 1580SOL    HW2 5640   4.228   3.325   5.454  0.8595  1.2429 -0.2710
 1581SOL     OW 5641   4.316   3.640   5.602  0.1890  0.2564 -0.1576
 1581SOL    HW1 5642   4.352   3.707   5.537 -2.0819  0.6509 -1.1132
 1581SOL    HW2 5643   4.224   3.613   5.574 -0.3127 -0.6381  2.1390
 1582SOL     OW 5644   4.590   6.429   4.734  0.0411  0.0260 -0.2550
 1582SOL    HW1 5645   4.490   6.434   4.733  0.0594  0.5174 -1.1585
 1582SOL    HW2 5646   4.627   6.501   4.676  0.8252 -1.7527 -2.0885
 1583SOL     OW 5647   6.810   5.489   4.136  0.4709 -0.1745  0.3266
 1583SOL    HW1 5648   6.746   5.560   4.163 -0.7701 -1.1846  0.1219
 1583SOL    HW2 5649   6.843   5.441   4.217  0.3316 -0.1961  0.3695
 1584SOL     OW 5650   0.729   4.467   1.210 -0.2788  0.2444  0.4939
 1584SOL    HW1 5651   0.676   4.526   1.271  0.0013  0.0482  0.9306
 1584SOL    HW2 5652   0.804   4.519   1.171 -0.6368  0.4523  0.0767
 1585SOL     OW 5653   2.649   5.672   4.275 -0.4729  0.0002  0.3632
 1585SOL    HW1 5654   2.574   5.738   4.265 -1.1469 -0.6396  1.1094
 1585SOL    HW2 5655   2.704   5.672   4.192 -0.0326  2.0163  0.5903
 1586SOL     OW 5656   1.257   5.644   2.427  0.4803  0.2083 -0.2031
 1586SOL    HW1 5657   1.328   5.661   2.359 -0.1822  0.1159 -0.9399
 1586SOL    HW2 5658   1.175   5.609   2.381  0.1743 -0.2983  0.6989
 1587SOL     OW 5659   3.108   0.301   0.791  0.2716 -0.4453  0.1678
 1587SOL    HW1 5660   3.060   0.309   0.704  1.6166 -2.1302 -0.7925
 1587SOL    HW2 5661   3.047   0.261   0.859 -1.3604  2.4697  0.5979
 1588SOL     OW 5662   4.524   2.150   4.157 -0.3887 -1.0118  0.4120
 1588SOL    HW1 5663   4.615   2.112   4.173  1.2436  1.8485 -1.2517
 1588SOL    HW2 5664   4.517   2.241   4.197 -1.3698  0.0823 -2.0118
 1589SOL     OW 5665   6.456   0.373   4.732 -0.2662  0.1013  0.2532
 1589SOL    HW1 5666   6.493   0.457   4.693 -0.3662 -0.9879 -2.3302
 1589SOL    HW2 5667   6.380   0.396   4.793 -0.5432  1.8555 -0.6749
 1590SOL     OW 5668   4.780   6.766   4.324 -0.0021 -0.0307  0.2267
 1590SOL    HW1 5669   4.743   6.838   4.264  2.3010  1.7666  0.8258
 1590SOL    HW2 5670   4.787   6.680   4.273 -0.1407  0.8863 -1.4054
 1591SOL     OW 5671   5.110   5.690   0.883  0.1202 -0.1149 -0.2110
 1591SOL    HW1 5672   5.052   5.719   0.959 -0.3581 -0.7337 -0.3340
 1591SOL    HW2 5673   5.053   5.650   0.811  0.7632 -1.3867 -0.0249
 1592SOL     OW 5674   6.533   2.806   4.356  0.2868  0.3801  0.1750
 1592SOL    HW1 5675   6.497   2.872   4.421  0.0230 -0.2638  0.6909
 1592SOL    HW2 5676   6.466   2.733   4.342  1.5355 -1.0989  1.5140
 1593SOL     OW 5677   2.635   6.149   6.044  0.1721  0.1827 -0.4512
 1593SOL    HW1 5678   2.654   6.061   6.000  0.4640 -0.0700  0.1667
 1593SOL    HW2 5679   2.655   6.223   5.980 -0.3159 -0.2080 -1.0595
 1594SOL     OW 5680   5.388   6.642   3.034  0.4999 -0.1646 -0.6835
 1594SOL    HW1 5681   5.408   6.608   2.942 -1.1315 -3.0682 -0.0996
 1594SOL    HW2 5682   5.473   6.644   3.088  1.0320 -1.3244 -1.4251
 1595SOL     OW 5683   0.391   2.232   6.515 -1.2264 -0.1352  0.1082
 1595SOL    HW1 5684   0.454   2.173   6.464 -1.0401 -0.1013  0.2974
 1595SOL    HW2 5685   0.297   2.207   6.493 -1.1490 -0.4696  0.1518
 1596SOL     OW 5686   6.605   3.103   3.590  0.2761  0.5465  0.4077
 1596SOL    HW1 5687   6.619   3.010   3.555  0.0606  0.2558  1.0681
 1596SOL    HW2 5688   6.525   3.103   3.650  0.4306  1.1056  0.6117
 1597SOL     OW 5689   4.502   5.283   0.332 -0.0966 -0.2300  0.4514
 1597SOL    HW1 5690   4.402   5.273   0.334 -0.0479 -1.0281 -0.5139
 1597SOL    HW2 5691   4.545   5.198   0.360  0.3197 -0.1743 -0.0026
 1598SOL     OW 5692   5.113   6.523   6.098 -0.1735 -0.3824  0.3094
 1598SOL    HW1 5693   5.039   6.587   6.115  1.1908  1.4416 -0.3215
 1598SOL    HW2 5694   5.140   6.527   6.002  2.0031  0.4937  0.8796
 1599SOL     OW 5695   3.971   5.513   4.691  0.1415  0.0335  0.0896
 1599SOL    HW1 5696   3.984   5.570   4.772  1.3256 -1.5697  1.1004
 1599SOL    HW2 5697   3.939   5.569   4.615 -0.8477  1.6157  1.6072
 1600SOL     OW 5698   6.546   6.819   1.784  0.1715  0.1589  0.5754
 1600SOL    HW1 5699   6.502   6.751   1.843 -0.6268  1.8780  2.0557
 1600SOL    HW2 5700   6.576   6.774   1.700 -0.1667 -2.0449  1.5366
 1601SOL     OW 5701   0.991   1.108   6.100  0.4788  0.3114  0.9497
 1601SOL    HW1 5702   0.900   1.066   6.105  0.7865 -0.2512  3.5055
 1601SOL    HW2 5703   1.060   1.038   6.085  0.6255  0.4994  0.7451
 1602SOL     OW 5704   4.356   5.439   4.221  0.3573 -0.0617  0.4304
 1602SOL    HW1 5705   4.427   5.376   4.253  1.0651 -0.1061 -1.1676
 1602SOL    HW2 5706   4.303   5.396   4.148 -1.2776  0.0157  1.5074
 1603SOL     OW 5707   3.195   4.839   3.211 -0.2558 -0.5995  0.0406
 1603SOL    HW1 5708   3.098   4.863   3.213 -0.2636 -0.6553  1.1501
 1603SOL    HW2 5709   3.227   4.825   3.305  0.6387 -1.3331 -0.3640
 1604SOL     OW 5710   3.876   4.917   2.932 -0.0216  0.8743  0.0772
 1604SOL    HW1 5711   3.781   4.901   2.905  0.1191  2.3978 -1.5062
 1604SOL    HW2 5712   3.887   4.894   3.029 -1.6188 -0.7292 -0.0572
 1605SOL     OW 5713   4.184   4.358   1.255  0.6096 -0.0089  0.0970
 1605SOL    HW1 5714   4.239   4.386   1.333  0.0723 -1.1092  0.9064
 1605SOL    HW2 5715   4.181   4.258   1.250  0.4542  0.0369 -1.2152
 1606SOL     OW 5716   5.041   4.898   4.144 -1.0797  0.0403 -0.0873
 1606SOL    HW1 5717   5.004   4.901   4.236 -1.4343 -2.4080 -0.0760
 1606SOL    HW2 5718   5.025   4.986   4.098  1.0167  2.1430  2.8082
 1607SOL     OW 5719   5.643   4.218   4.223 -0.0741 -0.4773 -0.1759
 1607SOL    HW1 5720   5.636   4.282   4.299  1.6641  0.4560 -0.7527
 1607SOL    HW2 5721   5.732   4.171   4.227 -0.5004 -1.3912 -0.8962
 1608SOL     OW 5722   1.465   1.885   3.860 -0.0004  0.0012 -0.2281
 1608SOL    HW1 5723   1.516   1.890   3.946 -0.5541  0.7466  0.0637
 1608SOL    HW2 5724   1.441   1.977   3.830  0.8258 -0.1895 -1.5819
 1609SOL     OW 5725   0.827   1.377   1.915  0.2545 -1.0747 -0.6771
 1609SOL    HW1 5726   0.806   1.396   2.011 -1.1640  0.3005 -1.2100
 1609SOL    HW2 5727   0.914   1.420   1.890 -0.2312  0.0970 -0.4271
 1610SOL     OW 5728   5.695   3.711   1.203 -0.1194  0.5041 -0.6535
 1610SOL    HW1 5729   5.701   3.693   1.105 -0.7040 -3.1641 -0.1790
 1610SOL    HW2 5730   5.787   3.703   1.243 -0.4038 -3.5023 -0.3382
 1611SOL     OW 5731   6.983   3.319   1.260  0.3141 -0.0080 -0.0306
 1611SOL    HW1 5732   6.991   3.375   1.342 -0.3584 -0.5244  0.3970
 1611SOL    HW2 5733   7.008   3.373   1.180  1.9557  0.2235  0.6023
 1612SOL     OW 5734   3.870   5.385   1.651 -0.0459 -0.5806 -0.2374
 1612SOL    HW1 5735   3.822   5.362   1.567  0.9082 -2.9199 -0.2095
 1612SOL    HW2 5736   3.812   5.443   1.708 -1.2582 -0.1353 -1.8626
 1613SOL     OW 5737   5.691   0.039   2.467  0.0246  0.2182  0.2761
 1613SOL    HW1 5738   5.688  -0.035   2.535 -0.7191  1.4591  1.6291
 1613SOL    HW2 5739   5.782   0.042   2.426  0.5871 -0.3676  1.4370
 1614SOL     OW 5740   6.112   3.156   6.538  0.6516 -0.5108  0.1989
 1614SOL    HW1 5741   6.171   3.107   6.474  0.9617  1.8297 -1.4321
 1614SOL    HW2 5742   6.031   3.189   6.490  0.6104  0.8170  1.1219
 1615SOL     OW 5743   5.324   1.880   6.598  0.1092 -0.5142 -0.5960
 1615SOL    HW1 5744   5.244   1.859   6.653  0.8583 -1.1328  0.2746
 1615SOL    HW2 5745   5.297   1.888   6.502 -1.0877 -0.1037 -0.2441
 1616SOL     OW 5746   2.619   0.610   4.060  0.7390 -0.5472 -0.0522
 1616SOL    HW1 5747   2.607   0.636   3.964  0.9681 -0.9097 -0.1780
 1616SOL    HW2 5748   2.640   0.692   4.114 -3.5925  0.5291  0.4566
 1617SOL     OW 5749   6.264   5.444   2.704  0.3181 -0.4753  0.0333
 1617SOL    HW1 5750   6.218   5.367   2.747  2.0989 -0.8275  1.4058
 1617SOL    HW2 5751   6.330   5.484   2.768  1.3358  0.5102 -1.5571
 1618SOL     OW 5752   2.319   5.933   1.333  0.2591 -0.4006  0.4757
 1618SOL    HW1 5753   2.369   5.959   1.251 -0.0251  1.1060  0.7593
 1618SOL    HW2 5754   2.224   5.962   1.325  0.2255 -0.2331  1.3405
 1619SOL     OW 5755   1.749   4.399   6.725 -0.0084 -0.1070  0.3134
 1619SOL    HW1 5756   1.769   4.358   6.814 -1.9927 -1.4494  0.2125
 1619SOL    HW2 5757   1.785   4.340   6.652  0.8812  0.5688  0.1835
 1620SOL     OW 5758   3.727   0.838   4.870 -0.1908 -0.0358  0.0004
 1620SOL    HW1 5759   3.700   0.806   4.961  2.4997  1.5118  1.4519
 1620SOL    HW2 5760   3.652   0.892   4.830 -1.5557 -1.0592  1.0753
 1621SOL     OW 5761   3.196   5.608   5.237 -0.2553 -0.4491 -0.3458
 1621SOL    HW1 5762   3.125   5.673   5.208  0.5733 -0.3200 -2.2416
 1621SOL    HW2 5763   3.210   5.616   5.335 -1.5092  0.8834 -0.2353
 1622SOL     OW 5764   6.469   3.610   4.536 -0.1799  0.6549 -0.4938
 1622SOL    HW1 5765   6.537   3.683   4.530 -1.0936  1.5727  0.1030
 1622SOL    HW2 5766   6.411   3.624   4.616  0.5372 -1.5359  0.5092
 1623SOL     OW 5767   6.651   0.540   3.684  0.3665  0.1393 -0.0839
 1623SOL    HW1 5768   6.557   0.510   3.701  0.6461 -0.7905 -0.1324
 1623SOL    HW2 5769   6.693   0.481   3.615  1.1263  0.2746  0.2498
 1624SOL     OW 5770   3.588   2.472   0.362 -0.1650  0.0108 -0.2590
 1624SOL    HW1 5771   3.584   2.388   0.416  2.4784 -0.8995 -1.2928
 1624SOL    HW2 5772   3.503   2.484   0.311 -1.4924 -0.7364  1.6941
 1625SOL     OW 5773   0.368   6.189   6.521 -0.2299  0.6831  0.4239
 1625SOL    HW1 5774   0.433   6.232   6.583  2.2840  0.5685 -1.9431
 1625SOL    HW2 5775   0.277   6.229   6.535  1.0400  3.4419  1.4729
 1626SOL     OW 5776   2.576   1.724   3.475  0.0670 -0.3649 -0.5312
 1626SOL    HW1 5777   2.610   1.750   3.385 -0.4232 -1.5818 -1.0942
 1626SOL    HW2 5778   2.509   1.791   3.507  2.4776  1.7764  0.3544
 1627SOL     OW 5779   5.044   1.972   0.624 -0.6578  0.2236  0.0389
 1627SOL    HW1 5780   4.981   2.050   0.617 -2.2088 -1.0297 -0.5516
 1627SOL    HW2 5781   5.126   2.001   0.674 -0.4239  2.6798 -1.5652
 1628SOL     OW 5782   4.213   0.459   1.797 -0.0790 -0.0769 -0.3186
 1628SOL    HW1 5783   4.181   0.552   1.781 -1.1340 -0.5473 -1.0811
 1628SOL    HW2 5784   4.242   0.450   1.892  1.1809  1.3435 -0.5329
 1629SOL     OW 5785   1.441   5.168   2.453  0.0364  0.2419 -0.3483
 1629SOL    HW1 5786   1.434   5.242   2.385 -0.0321 -0.5559 -1.2249
 1629SOL    HW2 5787   1.409   5.083   2.413 -0.0227 -0.2436  0.7095
 1630SOL     OW 5788   1.146   5.507   5.578 -0.7197  0.1281  0.2471
 1630SOL    HW1 5789   1.109   5.428   5.528  0.5831 -1.2298  1.3135
 1630SOL    HW2 5790   1.099   5.516   5.666 -1.3903  1.0455 -0.1903
 1631SOL     OW 5791   3.273   5.641   5.775  0.3331 -0.0257  0.6885
 1631SOL    HW1 5792   3.314   5.585   5.847 -0.1638 -0.1123  0.9038
 1631SOL    HW2 5793   3.319   5.730   5.772  1.4725 -0.6109  0.0067
 1632SOL     OW 5794   5.224   3.190   2.127 -0.3120  0.0081 -0.3054
 1632SOL    HW1 5795   5.262   3.210   2.217  1.9103  0.7589 -1.3647
 1632SOL    HW2 5796   5.266   3.107   2.090 -1.8589 -0.8142 -0.3441
 1633SOL     OW 5797   5.466   4.312   5.198  0.0720 -0.0149  0.1052
 1633SOL    HW1 5798   5.399   4.320   5.124 -1.8259  0.7741  1.8136
 1633SOL    HW2 5799   5.447   4.229   5.251  0.5431  0.1328  0.5142
 1634SOL     OW 5800   0.953   3.932   5.279 -0.5717  0.0758 -0.2366
 1634SOL    HW1 5801   0.997   3.852   5.320 -1.4036 -0.2887 -0.0433
 1634SOL    HW2 5802   0.970   3.933   5.181 -1.4860 -0.9498 -0.4191
 1635SOL     OW 5803   2.927   1.937   4.676 -0.3281  0.3207  0.8538
 1635SOL    HW1 5804   3.017   1.981   4.675  0.0716 -0.4988  0.3208
 1635SOL    HW2 5805   2.870   1.976   4.603 -0.7301  1.4613  1.7385
 1636SOL     OW 5806   6.631   6.471   0.783  0.4702  0.0161  0.2706
 1636SOL    HW1 5807   6.620   6.384   0.735  1.1077  0.5434 -0.8723
 1636SOL    HW2 5808   6.569   6.474   0.861  0.4523 -1.4670  0.3428
 1637SOL     OW 5809   1.798   6.830   0.302  1.3119 -0.0501  0.0643
 1637SOL    HW1 5810   1.881   6.846   0.355  0.9492  1.1458  0.3025
 1637SOL    HW2 5811   1.722   6.811   0.364  1.4642 -1.5024 -0.1666
 1638SOL     OW 5812   4.882   1.791   5.310  0.1437 -0.1633 -0.6113
 1638SOL    HW1 5813   4.915   1.881   5.279 -0.9832 -0.0318 -1.4735
 1638SOL    HW2 5814   4.942   1.757   5.382  2.2045  0.0345 -2.1422
 1639SOL     OW 5815   4.175   2.922   0.323 -0.1039  0.0492  0.1782
 1639SOL    HW1 5816   4.261   2.921   0.375  0.2441 -0.4362 -0.3950
 1639SOL    HW2 5817   4.195   2.908   0.226 -0.9379 -1.3781  0.1846
 1640SOL     OW 5818   0.713   2.961   6.171 -0.2352  0.1899 -0.0733
 1640SOL    HW1 5819   0.805   2.926   6.189  0.1319  1.7575  1.2625
 1640SOL    HW2 5820   0.659   2.889   6.128  0.7908 -1.7036  1.6022
 1641SOL     OW 5821   5.365   1.680   1.194 -0.5037  0.3155 -0.5206
 1641SOL    HW1 5822   5.426   1.676   1.115  2.1387  0.7037  1.3695
 1641SOL    HW2 5823   5.355   1.776   1.223  0.6616 -0.0034  1.0705
 1642SOL     OW 5824   0.528   4.566   0.956 -0.1332  0.4040  0.7069
 1642SOL    HW1 5825   0.575   4.483   0.926 -1.0075 -0.0112  0.4585
 1642SOL    HW2 5826   0.544   4.639   0.889 -1.3291 -0.2586 -0.3272
 1643SOL     OW 5827   3.254   5.010   3.767  0.2755 -0.8290  0.1920
 1643SOL    HW1 5828   3.346   4.994   3.805 -0.0544 -1.1252  0.8782
 1643SOL    HW2 5829   3.187   5.008   3.840 -0.1144  1.0172 -0.0700
 1644SOL     OW 5830   6.147   1.832   1.771 -0.2156  0.4220 -0.0017
 1644SOL    HW1 5831   6.162   1.858   1.676 -0.7979  3.2045  0.5906
 1644SOL    HW2 5832   6.055   1.793   1.780 -0.7408  1.5436 -0.3550
 1645SOL     OW 5833   1.663   1.017   4.857 -0.5748 -0.3191 -0.3890
 1645SOL    HW1 5834   1.604   1.053   4.929  0.1987 -2.9308  1.7148
 1645SOL    HW2 5835   1.756   1.051   4.869  0.3202 -3.2309  2.0321
 1646SOL     OW 5836   6.913   5.332   0.688  0.3442  0.1319  0.1012
 1646SOL    HW1 5837   6.983   5.270   0.652 -0.4126 -0.7207  0.0795
 1646SOL    HW2 5838   6.917   5.419   0.638  0.2532 -0.5187 -1.0673
 1647SOL     OW 5839   6.136   3.444   6.453  0.6463  0.2797 -0.1860
 1647SOL    HW1 5840   6.057   3.499   6.479  0.3475 -0.1796 -0.1114
 1647SOL    HW2 5841   6.126   3.351   6.490  1.5415  0.4044  0.4093
 1648SOL     OW 5842   5.679   4.013   1.923 -0.2970 -0.1395  0.6444
 1648SOL    HW1 5843   5.665   4.011   1.824 -0.2407  0.5042  0.6242
 1648SOL    HW2 5844   5.610   3.955   1.967 -0.1470 -0.6547  0.2094
 1649SOL     OW 5845   3.253   0.912   5.360  0.1902 -0.1755  0.0785
 1649SOL    HW1 5846   3.236   1.005   5.327  0.6432 -0.3950 -0.8022
 1649SOL    HW2 5847   3.317   0.866   5.298 -2.3108 -2.1055 -1.2373
 1650SOL     OW 5848   2.668   5.879   5.300  0.2111  0.1134  0.5733
 1650SOL    HW1 5849   2.706   5.941   5.369  0.6862 -0.6261  0.9875
 1650SOL    HW2 5850   2.631   5.932   5.224  0.8209  0.8898  0.8138
 1651SOL     OW 5851   0.980   1.857   4.140  0.1990  0.0035 -0.2593
 1651SOL    HW1 5852   0.982   1.820   4.047  1.5092 -2.2425  0.5728
 1651SOL    HW2 5853   1.070   1.846   4.181 -0.6008  0.1235  1.5952
 1652SOL     OW 5854   0.260   3.122   1.773  0.2657  0.4380  0.9257
 1652SOL    HW1 5855   0.251   3.176   1.690 -0.9073 -1.1219 -0.0232
 1652SOL    HW2 5856   0.349   3.076   1.775  0.6140  1.1038  0.9486
 1653SOL     OW 5857   4.935   3.608   3.183  0.3920  0.1617 -0.3040
 1653SOL    HW1 5858   5.030   3.600   3.214 -0.2557 -0.9147  1.4931
 1653SOL    HW2 5859   4.923   3.697   3.139  2.1381  0.4631 -0.2627
 1654SOL     OW 5860   0.369   3.442   2.588  0.2130 -0.4271  0.5145
 1654SOL    HW1 5861   0.376   3.540   2.569 -1.5930 -0.2730  0.5156
 1654SOL    HW2 5862   0.436   3.393   2.533  1.3819  0.8243  0.7686
 1655SOL     OW 5863   5.303   0.407   5.767  0.2729  0.3017 -0.4785
 1655SOL    HW1 5864   5.217   0.453   5.744 -1.4353 -2.2173  0.3752
 1655SOL    HW2 5865   5.375   0.438   5.705 -1.6858  1.1232 -2.5038
 1656SOL     OW 5866   1.154   2.915   3.749  0.4813  0.8487 -0.2620
 1656SOL    HW1 5867   1.147   2.971   3.832 -0.8319  0.9016 -0.3909
 1656SOL    HW2 5868   1.067   2.918   3.699  0.6311 -0.7095 -0.6693
 1657SOL     OW 5869   6.386   2.573   6.747 -0.3746  0.5610 -0.3973
 1657SOL    HW1 5870   6.395   2.524   6.660 -0.2001  1.0639 -0.6664
 1657SOL    HW2 5871   6.294   2.561   6.783 -0.4417  0.3335 -0.6408
 1658SOL     OW 5872   3.773   4.978   4.167 -0.0586 -0.4083  0.2435
 1658SOL    HW1 5873   3.819   5.060   4.132 -0.5046  0.4182  1.5198
 1658SOL    HW2 5874   3.809   4.956   4.257 -0.8204 -0.8798  0.4368
 1659SOL     OW 5875   2.013   1.198   0.886  0.2028 -0.5228  1.0590
 1659SOL    HW1 5876   2.043   1.288   0.916 -2.0578  0.2790  1.0426
 1659SOL    HW2 5877   1.960   1.153   0.958 -3.1665  0.4074 -0.6392
 1660SOL     OW 5878   1.182   1.350   2.594 -1.0730 -0.1224  0.4763
 1660SOL    HW1 5879   1.217   1.341   2.501 -1.3781 -0.3630  0.3825
 1660SOL    HW2 5880   1.096   1.299   2.603 -0.5051 -0.9847  1.1788
 1661SOL     OW 5881   5.924   5.876   3.081  0.1656 -0.5551 -0.3397
 1661SOL    HW1 5882   5.879   5.940   3.019  0.3257  0.6398  0.7219
 1661SOL    HW2 5883   5.964   5.801   3.029  0.0708  0.2637 -1.6353
 1662SOL     OW 5884   0.872   4.432   3.197  0.5750  0.2027  0.3001
 1662SOL    HW1 5885   0.811   4.436   3.118  0.2420 -1.1192  0.4571
 1662SOL    HW2 5886   0.962   4.466   3.172  0.3266  0.2719 -0.5107
 1663SOL     OW 5887   0.416   3.721   2.492 -0.3228 -0.0169  0.1028
 1663SOL    HW1 5888   0.364   3.785   2.548 -0.0393 -0.2835  0.6728
 1663SOL    HW2 5889   0.364   3.700   2.409 -1.0839 -0.2213  0.6274
 1664SOL     OW 5890   2.101   0.564   0.533  0.2422  0.6225  0.1996
 1664SOL    HW1 5891   2.143   0.651   0.559 -0.0565  0.7603  0.2193
 1664SOL    HW2 5892   2.132   0.492   0.595 -0.9033  1.0502  1.3039
 1665SOL     OW 5893   1.769   1.241   6.659  0.1865 -0.0540  0.0301
 1665SOL    HW1 5894   1.868   1.235   6.673  0.1528 -0.4665  0.1198
 1665SOL    HW2 5895   1.740   1.171   6.594 -0.2829 -1.0872  1.2986
 1666SOL     OW 5896   6.191   0.684   6.504 -0.1808 -0.7526 -0.3022
 1666SOL    HW1 5897   6.189   0.587   6.530  1.0964 -0.9187 -0.7302
 1666SOL    HW2 5898   6.118   0.703   6.439 -1.5882 -0.9952  1.1355
 1667SOL     OW 5899   5.386   6.289   0.471 -0.1833 -0.2414 -0.1364
 1667SOL    HW1 5900   5.363   6.210   0.415 -0.5164 -0.6495  0.5603
 1667SOL    HW2 5901   5.315   6.302   0.540  0.7521 -0.4074  0.8859
 1668SOL     OW 5902   1.580   2.147   1.604 -0.1231 -0.2140 -0.0337
 1668SOL    HW1 5903   1.530   2.232   1.587  0.7383  0.4673  0.7503
 1668SOL    HW2 5904   1.587   2.095   1.518  0.5364  1.1570 -0.8417
 1669SOL     OW 5905   6.575   2.802   3.564 -1.3303 -0.0701  0.7979
 1669SOL    HW1 5906   6.539   2.741   3.493  0.1975  0.8697 -0.8515
 1669SOL    HW2 5907   6.644   2.753   3.617 -0.2364  0.1151 -0.4055
 1670SOL     OW 5908   2.739   4.017   5.237  0.0229 -0.4633 -0.5159
 1670SOL    HW1 5909   2.749   4.099   5.294  1.0720 -0.7808 -0.2316
 1670SOL    HW2 5910   2.647   4.016   5.197 -0.0978  0.7183 -0.3176
 1671SOL     OW 5911   2.833   1.413   0.738  0.1581  0.3077  0.4897
 1671SOL    HW1 5912   2.866   1.434   0.830 -1.2979 -0.2002  1.1533
 1671SOL    HW2 5913   2.907   1.427   0.672  1.0820  1.1675  1.6670
 1672SOL     OW 5914   0.327   1.864   0.804 -0.2833 -0.4117  0.5407
 1672SOL    HW1 5915   0.241   1.831   0.843 -0.6413  0.4584  0.5047
 1672SOL    HW2 5916   0.401   1.800   0.827 -0.7630 -0.6813  1.3697
 1673SOL     OW 5917   1.339   1.003   4.786  0.3219  0.5307 -0.5821
 1673SOL    HW1 5918   1.272   0.945   4.740  0.3557  1.8709 -2.4571
 1673SOL    HW2 5919   1.397   0.948   4.846 -0.5843 -1.0963 -1.1561
 1674SOL     OW 5920   5.106   2.494   3.723 -0.4247 -0.0652 -0.0551
 1674SOL    HW1 5921   5.157   2.565   3.773  0.2128 -0.8926  0.5021
 1674SOL    HW2 5922   5.008   2.513   3.730 -0.2328  1.3750 -0.8722
 1675SOL     OW 5923   3.855   0.722   3.067 -0.3312  0.1221  0.5073
 1675SOL    HW1 5924   3.908   0.730   2.983  2.3712  0.7791  2.1360
 1675SOL    HW2 5925   3.883   0.795   3.130 -3.0781  0.3402  1.5983
 1676SOL     OW 5926   3.165   0.087   5.527 -0.0652 -0.2002  0.2813
 1676SOL    HW1 5927   3.077   0.124   5.554  0.2571  0.3307  0.6305
 1676SOL    HW2 5928   3.194   0.017   5.593 -0.2187 -0.3726  0.1675
 1677SOL     OW 5929   3.042   3.477   6.901  0.0222 -0.3903 -0.3463
 1677SOL    HW1 5930   3.111   3.488   6.830  1.4645 -2.1832  0.6787
 1677SOL    HW2 5931   2.955   3.451   6.859  0.5988 -0.5068 -1.5097
 1678SOL     OW 5932   6.251   6.655   0.999  0.0887 -0.0428 -0.2249
 1678SOL    HW1 5933   6.232   6.616   0.909  0.5114  1.5950 -1.0487
 1678SOL    HW2 5934   6.317   6.596   1.047 -0.3142 -1.0471 -0.8813
 1679SOL     OW 5935   0.435   2.674   5.305 -0.0659  0.4096 -0.2246
 1679SOL    HW1 5936   0.423   2.574   5.306  0.7933  0.3038  0.5692
 1679SOL    HW2 5937   0.479   2.701   5.220  0.1566  0.0546 -0.2224
 1680SOL     OW 5938   6.992   1.375   3.086 -1.1357  0.2490  0.5619
 1680SOL    HW1 5939   7.034   1.313   3.019 -1.3570 -1.6418  2.0493
 1680SOL    HW2 5940   7.023   1.468   3.069 -0.8760 -0.2106 -1.8784
 1681SOL     OW 5941   4.289   6.983   5.432 -0.2081  0.3370 -0.4680
 1681SOL    HW1 5942   4.314   7.058   5.493 -1.1102 -0.7157  1.2905
 1681SOL    HW2 5943   4.203   7.004   5.385 -1.8552 -0.5679  1.9740
 1682SOL     OW 5944   6.624   2.323   4.964  0.4962 -0.1305 -0.3713
 1682SOL    HW1 5945   6.696   2.390   4.981 -1.7323  3.1547 -2.6658
 1682SOL    HW2 5946   6.653   2.261   4.891  2.2508 -1.2238  1.1653
 1683SOL     OW 5947   0.424   4.272   3.392  0.3755  0.0331  0.3791
 1683SOL    HW1 5948   0.411   4.372   3.393 -1.7563 -0.1993 -0.2583
 1683SOL    HW2 5949   0.462   4.243   3.480  2.1228  1.5016  0.1735
 1684SOL     OW 5950   2.020   6.308   1.946 -0.5242  0.0045  0.2711
 1684SOL    HW1 5951   2.062   6.306   2.037  0.1551 -1.3626 -0.0417
 1684SOL    HW2 5952   2.078   6.358   1.883  0.2985 -1.2041  0.0273
 1685SOL     OW 5953   6.013   1.738   5.292 -0.4593  0.4639  0.2695
 1685SOL    HW1 5954   6.065   1.801   5.350 -0.2308 -1.2596  2.0333
 1685SOL    HW2 5955   6.067   1.715   5.211  0.9683 -0.2071  1.3745
 1686SOL     OW 5956   1.470   6.497   1.952  0.1966 -0.1652 -0.3784
 1686SOL    HW1 5957   1.488   6.509   2.050 -0.4060 -2.9330  0.1687
 1686SOL    HW2 5958   1.554   6.514   1.900  1.6227 -2.3498  1.0491
 1687SOL     OW 5959   4.533   4.482   6.031  0.1198  0.5551 -0.5929
 1687SOL    HW1 5960   4.618   4.486   5.978 -0.4681 -0.2688 -1.6463
 1687SOL    HW2 5961   4.466   4.546   5.992  0.2600  1.2555  0.2765
 1688SOL     OW 5962   4.227   1.513   4.812  0.6738 -0.5607  0.8740
 1688SOL    HW1 5963   4.229   1.578   4.889  0.1517 -0.2185  0.6082
 1688SOL    HW2 5964   4.213   1.421   4.848 -1.9231 -0.1557  1.1039
 1689SOL     OW 5965   3.152   1.088   2.489 -0.4599 -0.1034  0.3832
 1689SOL    HW1 5966   3.249   1.094   2.513 -0.3106  2.9063 -0.6257
 1689SOL    HW2 5967   3.127   1.165   2.431 -3.0388 -1.8907 -1.0936
 1690SOL     OW 5968   0.436   5.828   3.584  0.1721 -0.1803 -0.2374
 1690SOL    HW1 5969   0.481   5.744   3.612  1.9170  0.9166  0.4227
 1690SOL    HW2 5970   0.458   5.847   3.488 -0.0447 -0.3490 -0.3225
 1691SOL     OW 5971   5.023   0.827   0.329 -0.1266  0.0604 -0.4416
 1691SOL    HW1 5972   4.953   0.831   0.258  1.2409 -0.8100 -1.9069
 1691SOL    HW2 5973   5.068   0.916   0.337 -0.9462  0.4387  0.0543
 1692SOL     OW 5974   5.638   6.393   2.908 -0.5725  0.2625  0.1030
 1692SOL    HW1 5975   5.662   6.327   2.979 -1.0189 -1.1903 -1.0387
 1692SOL    HW2 5976   5.677   6.364   2.821 -0.7448  1.5510 -0.4367
 1693SOL     OW 5977   0.012   1.682   6.027 -0.3231  0.3939 -0.0957
 1693SOL    HW1 5978  -0.019   1.753   5.964  2.1104  0.0125 -1.8844
 1693SOL    HW2 5979   0.087   1.717   6.082  0.4821 -0.5574 -0.5539
 1694SOL     OW 5980   3.596   0.084   6.569  0.6323  0.3185  0.2371
 1694SOL    HW1 5981   3.617   0.164   6.513  1.0786 -0.1166 -0.2286
 1694SOL    HW2 5982   3.578   0.006   6.509 -0.0153  0.1211  0.6821
 1695SOL     OW 5983   6.423   1.579   5.576 -0.2401  0.1876 -0.1885
 1695SOL    HW1 5984   6.416   1.631   5.490 -0.0463 -0.0920 -0.3733
 1695SOL    HW2 5985   6.374   1.628   5.648  0.7487  1.1271 -0.1250
 1696SOL     OW 5986   5.730   6.120   1.462  0.3690 -0.1489  0.2397
 1696SOL    HW1 5987   5.632   6.099   1.458  0.7108 -2.1762  1.1897
 1696SOL    HW2 5988   5.744   6.219   1.452 -1.8718  0.3395  1.3286
 1697SOL     OW 5989   2.937   3.256   3.032  0.8634 -0.1550 -0.5912
 1697SOL    HW1 5990   2.904   3.231   3.123  0.5223  2.2558  0.0019
 1697SOL    HW2 5991   2.993   3.182   2.996  0.5915 -1.3808  1.3557
 1698SOL     OW 5992   4.737   2.482   1.455  0.0578 -0.1412 -0.1310
 1698SOL    HW1 5993   4.748   2.396   1.405  0.2861  0.7990 -1.7545
 1698SOL    HW2 5994   4.794   2.480   1.537  0.8646 -1.1240 -0.6922
 1699SOL     OW 5995   1.696   0.374   6.328 -0.1581 -0.4410 -0.9587
 1699SOL    HW1 5996   1.611   0.328   6.304 -0.2746 -0.6602 -0.1607
 1699SOL    HW2 5997   1.691   0.406   6.422  1.1819 -1.7142 -0.4079
 1700SOL     OW 5998   5.438   2.988   3.452 -0.1224 -0.2347  0.5242
 1700SOL    HW1 5999   5.451   2.958   3.357  1.9576  1.7857  0.0948
 1700SOL    HW2 6000   5.365   3.056   3.455 -1.3252 -1.4932  0.6836
 1701SOL     OW 6001   0.807   4.922   5.849  0.0268  0.1621 -0.3777
 1701SOL    HW1 6002   0.736   4.860   5.882 -0.0380  1.4428  2.2340
 1701SOL    HW2 6003   0.889   4.870   5.826 -0.8213 -1.0873 -0.6683
 1702SOL     OW 6004   1.449   1.956   0.275 -0.1843  0.4653  0.1021
 1702SOL    HW1 6005   1.453   2.049   0.311 -1.3233  0.1657  1.0909
 1702SOL    HW2 6006   1.380   1.904   0.326  0.9272 -1.1246  0.0655
 1703SOL     OW 6007   0.232   1.534   2.708  0.4606 -0.6043 -0.0518
 1703SOL    HW1 6008   0.241   1.472   2.629  0.6001  0.6200 -1.0311
 1703SOL    HW2 6009   0.153   1.594   2.694  1.4068  0.6777 -0.0194
 1704SOL     OW 6010   3.472   2.253   7.000 -0.1330 -0.1256  0.6203
 1704SOL    HW1 6011   3.388   2.308   7.010  0.1757  0.3672  0.5639
 1704SOL    HW2 6012   3.549   2.314   6.983  0.1605 -0.6129  0.1933
 1705SOL     OW 6013   5.916   3.396   0.869 -0.6808 -0.1073  0.4808
 1705SOL    HW1 6014   5.941   3.311   0.915 -0.9388  0.0059  0.8369
 1705SOL    HW2 6015   5.946   3.393   0.774 -1.2728 -0.8719  0.3069
 1706SOL     OW 6016   5.002   1.427   5.606  0.1590 -0.1060 -0.1179
 1706SOL    HW1 6017   5.071   1.415   5.534 -0.1245  1.6684 -0.7334
 1706SOL    HW2 6018   4.911   1.417   5.567 -0.0145  1.4592 -0.1637
 1707SOL     OW 6019   3.226   1.450   3.254  0.2043  0.0580 -0.0717
 1707SOL    HW1 6020   3.220   1.432   3.352 -3.6346  0.8530  0.0195
 1707SOL    HW2 6021   3.236   1.364   3.205 -0.4453 -0.6303  0.9584
 1708SOL     OW 6022   1.800   4.661   3.489  0.0018  0.0318  0.1811
 1708SOL    HW1 6023   1.861   4.721   3.437 -0.6651 -1.6153 -2.7141
 1708SOL    HW2 6024   1.762   4.712   3.566  1.2866  2.5513 -0.7183
 1709SOL     OW 6025   4.750   5.061   0.740 -0.0596  0.1371  0.2804
 1709SOL    HW1 6026   4.681   5.079   0.811  1.1535 -2.9839  2.4865
 1709SOL    HW2 6027   4.719   4.985   0.682  1.2784 -1.1293  1.1336
 1710SOL     OW 6028   4.082   1.713   3.910  0.0893  0.5729 -0.4030
 1710SOL    HW1 6029   4.000   1.742   3.859  0.4156  0.2009 -1.1585
 1710SOL    HW2 6030   4.135   1.794   3.936 -1.0588  0.8895  1.0387
 1711SOL     OW 6031   2.788   5.786   6.181  0.5277  0.1757  0.4086
 1711SOL    HW1 6032   2.701   5.780   6.132  0.6537 -1.4342  0.3246
 1711SOL    HW2 6033   2.860   5.815   6.117 -0.3425  4.4509  1.0796
 1712SOL     OW 6034   1.607   2.868   2.269  0.1316  0.2283 -0.4576
 1712SOL    HW1 6035   1.615   2.849   2.171 -0.4529 -2.4133 -0.0559
 1712SOL    HW2 6036   1.698   2.885   2.307  0.3199  1.7298 -1.4969
 1713SOL     OW 6037   2.673   1.906   2.365 -0.3148  0.5339 -0.0141
 1713SOL    HW1 6038   2.742   1.978   2.368 -0.7557  0.9356  1.5224
 1713SOL    HW2 6039   2.582   1.947   2.358 -0.5194  0.0922 -0.0066
 1714SOL     OW 6040   2.805   5.456   6.951  0.1880 -0.3335  0.5541
 1714SOL    HW1 6041   2.818   5.430   6.856 -1.7551 -0.4925  0.2806
 1714SOL    HW2 6042   2.880   5.421   7.006  0.1414 -2.3243 -0.5574
 1715SOL     OW 6043   0.228   6.559   3.831 -0.2507 -0.7495  0.6520
 1715SOL    HW1 6044   0.162   6.613   3.884 -1.5926 -0.2106 -1.4640
 1715SOL    HW2 6045   0.216   6.577   3.734  1.9901 -1.8719  0.0985
 1716SOL     OW 6046   4.505   0.846   2.143 -0.1637 -0.5838 -0.7408
 1716SOL    HW1 6047   4.466   0.916   2.202  2.0192 -0.5257  0.7582
 1716SOL    HW2 6048   4.437   0.774   2.127 -0.1531 -2.1570  4.3869
 1717SOL     OW 6049   4.060   6.429   3.964  0.1314  0.1574  0.8715
 1717SOL    HW1 6050   4.074   6.498   4.035 -0.3198  1.8374 -0.5844
 1717SOL    HW2 6051   3.964   6.403   3.961 -0.1189  1.1233  0.0130
 1718SOL     OW 6052   1.747   4.273   1.450  0.1957  1.1933 -0.3469
 1718SOL    HW1 6053   1.735   4.317   1.539 -0.9178  0.7409 -0.2548
 1718SOL    HW2 6054   1.658   4.243   1.415  0.8222 -0.2815 -0.7509
 1719SOL     OW 6055   0.930   3.162   2.913 -0.6747 -0.5742 -0.1822
 1719SOL    HW1 6056   0.940   3.259   2.931 -1.0036 -0.5285 -0.2255
 1719SOL    HW2 6057   1.020   3.120   2.900 -0.5754 -0.0659 -1.2840
 1720SOL     OW 6058   0.290   1.935   4.372  0.1916  0.8283 -0.0356
 1720SOL    HW1 6059   0.330   2.027   4.371  0.6802  0.6119 -0.6549
 1720SOL    HW2 6060   0.191   1.943   4.364  0.3035  1.2733 -1.2148
 1721SOL     OW 6061   2.386   1.303   0.551  0.0052  0.2410  0.2505
 1721SOL    HW1 6062   2.399   1.370   0.624  1.6021  0.1011  0.1296
 1721SOL    HW2 6063   2.341   1.346   0.473  0.5103  1.0426  0.3872
 1722SOL     OW 6064   4.309   1.863   0.791 -0.2456  0.1560  0.0802
 1722SOL    HW1 6065   4.368   1.826   0.863 -0.8962 -0.2527  0.4026
 1722SOL    HW2 6066   4.361   1.867   0.705 -0.3983 -2.3524 -0.1926
 1723SOL     OW 6067   6.827   4.661   2.243  0.6234 -0.1521 -1.0384
 1723SOL    HW1 6068   6.896   4.699   2.305 -0.6972 -0.4313  0.6954
 1723SOL    HW2 6069   6.865   4.583   2.194  1.4340 -0.5823  0.2178
 1724SOL     OW 6070   5.524   2.605   1.633  0.0787 -0.4164  0.0881
 1724SOL    HW1 6071   5.578   2.673   1.682 -2.2181  0.8623  1.0235
 1724SOL    HW2 6072   5.473   2.549   1.698  0.8584 -2.1427 -0.7330
 1725SOL     OW 6073   1.005   6.373   3.750  0.4937 -1.0201  0.1021
 1725SOL    HW1 6074   1.017   6.455   3.807 -1.4304  0.4790 -1.5078
 1725SOL    HW2 6075   0.936   6.314   3.791 -1.3036  0.3265 -0.8619
 1726SOL     OW 6076   5.279   0.226   2.623  0.2153 -0.1219 -0.4899
 1726SOL    HW1 6077   5.245   0.139   2.588 -0.0339  0.7622 -2.5619
 1726SOL    HW2 6078   5.358   0.255   2.568  1.5424  0.0611  1.3997
 1727SOL     OW 6079   3.228   3.707   4.278 -0.6578 -0.2943  0.0415
 1727SOL    HW1 6080   3.143   3.750   4.307 -0.9898 -1.6024  1.1280
 1727SOL    HW2 6081   3.222   3.681   4.182 -2.1872 -1.9204  0.5304
 1728SOL     OW 6082   6.143   2.888   4.965 -0.4183 -0.5007 -0.3608
 1728SOL    HW1 6083   6.059   2.942   4.977  0.0953  0.0182  1.1824
 1728SOL    HW2 6084   6.203   2.933   4.898 -0.4927  0.2385  0.0606
 1729SOL     OW 6085   2.081   4.340   3.352  0.4239 -0.2769  0.2026
 1729SOL    HW1 6086   2.039   4.371   3.437 -0.3671  0.2479 -0.3641
 1729SOL    HW2 6087   2.180   4.353   3.357  0.5696 -1.5934  1.5864
 1730SOL     OW 6088   5.623   1.772   4.351  0.2269 -0.7183  0.0634
 1730SOL    HW1 6089   5.524   1.784   4.351  0.1416 -1.0876  1.8028
 1730SOL    HW2 6090   5.647   1.694   4.409  1.5092 -0.8742 -0.6454
 1731SOL     OW 6091   5.455   6.569   2.773 -0.5017  0.0462 -0.0539
 1731SOL    HW1 6092   5.472   6.598   2.679  2.4863  1.0313  0.6804
 1731SOL    HW2 6093   5.530   6.511   2.804 -0.8594  0.6410  2.0506
 1732SOL     OW 6094   3.251   3.627   4.018 -0.3546 -0.1870  0.5678
 1732SOL    HW1 6095   3.225   3.671   3.932  3.2024 -0.1410 -0.6488
 1732SOL    HW2 6096   3.242   3.528   4.009 -0.0828 -0.1771  0.1397
 1733SOL     OW 6097   0.915   1.354   5.757 -0.3416 -0.3762  0.6862
 1733SOL    HW1 6098   0.864   1.293   5.698  2.4519 -0.7242 -1.6006
 1733SOL    HW2 6099   0.987   1.302   5.805 -0.8160  0.3908  2.3152
 1734SOL     OW 6100   6.613   4.582   2.420  0.0515 -0.0345  0.2040
 1734SOL    HW1 6101   6.685   4.585   2.351 -0.0698 -2.2368 -0.0976
 1734SOL    HW2 6102   6.651   4.608   2.509 -0.0721  4.0706 -0.7707
 1735SOL     OW 6103   3.157   6.664   6.591 -0.3495  0.2151  0.3996
 1735SOL    HW1 6104   3.205   6.746   6.622  1.8703 -0.9109  0.1138
 1735SOL    HW2 6105   3.127   6.676   6.496  0.6603  0.4304  0.0971
 1736SOL     OW 6106   5.875   0.471   6.687  0.0650 -0.3150  0.1965
 1736SOL    HW1 6107   5.824   0.430   6.612  0.2721 -0.7544  0.2926
 1736SOL    HW2 6108   5.923   0.399   6.738  0.5579  0.0611  0.2723
 1737SOL     OW 6109   1.285   5.404   4.475  0.1358 -0.1063  0.2037
 1737SOL    HW1 6110   1.196   5.433   4.511 -0.0778  0.6890 -0.9205
 1737SOL    HW2 6111   1.358   5.457   4.518  0.1869 -1.4209  1.8489
 1738SOL     OW 6112   2.061   3.606   2.842 -0.5299  0.4429  0.4380
 1738SOL    HW1 6113   2.055   3.611   2.742  1.0232  0.0962  0.3143
 1738SOL    HW2 6114   2.040   3.696   2.880 -1.9765  0.3797 -0.1321
 1739SOL     OW 6115   4.861   6.619   2.253 -0.0957  0.4461  0.0094
 1739SOL    HW1 6116   4.901   6.688   2.193 -0.6262  1.8721  1.2572
 1739SOL    HW2 6117   4.933   6.576   2.307  0.2874 -0.3046 -1.0693
 1740SOL     OW 6118   1.388   0.905   4.236  0.3396 -0.4626  0.0135
 1740SOL    HW1 6119   1.343   0.835   4.181 -0.1422  0.0994 -0.3191
 1740SOL    HW2 6120   1.365   0.995   4.200 -0.3405 -0.0644  1.3754
 1741SOL     OW 6121   0.255   2.233   3.159 -0.2458 -0.2980  0.2078
 1741SOL    HW1 6122   0.268   2.262   3.064  1.9684 -1.8169 -0.0483
 1741SOL    HW2 6123   0.199   2.150   3.161 -1.2262  0.3644  0.3391
 1742SOL     OW 6124   0.210   0.853   0.433  0.2871  0.2938 -0.2409
 1742SOL    HW1 6125   0.213   0.770   0.490  0.2972  1.6459  1.8141
 1742SOL    HW2 6126   0.302   0.875   0.402  0.2965 -0.4121 -0.7423
 1743SOL     OW 6127   6.696   2.503   2.370 -0.1458  0.3957 -0.2913
 1743SOL    HW1 6128   6.639   2.438   2.422 -0.4905  1.7626  1.1087
 1743SOL    HW2 6129   6.665   2.596   2.389  2.0024  1.1324 -0.1946
 1744SOL     OW 6130   4.155   1.373   6.048 -0.2164  0.0556  0.2248
 1744SOL    HW1 6131   4.133   1.340   5.956 -0.6686  0.0409  0.3350
 1744SOL    HW2 6132   4.076   1.422   6.086 -0.6610 -1.3995  1.2710
 1745SOL     OW 6133   2.547   0.313   3.523 -0.4364 -0.2582 -0.2647
 1745SOL    HW1 6134   2.635   0.280   3.558 -0.0300  2.2678  1.3131
 1745SOL    HW2 6135   2.481   0.318   3.598 -0.5756  2.0244 -0.4837
 1746SOL     OW 6136   4.676   4.790   2.052  0.0166  0.7918  0.8783
 1746SOL    HW1 6137   4.627   4.779   2.139  0.3451 -1.3647  0.8443
 1746SOL    HW2 6138   4.753   4.727   2.049 -0.5372  0.1443 -1.3491
 1747SOL     OW 6139   3.295   5.451   0.717 -0.2743  0.4671  0.0366
 1747SOL    HW1 6140   3.231   5.376   0.704  0.8293 -0.2657 -1.4266
 1747SOL    HW2 6141   3.313   5.496   0.630  1.5751  0.2858  0.2657
 1748SOL     OW 6142   6.192   1.070   6.776 -0.4593  0.2288  0.5445
 1748SOL    HW1 6143   6.249   1.004   6.727 -0.7448  0.2482  0.1858
 1748SOL    HW2 6144   6.102   1.029   6.793 -0.9657  0.8662 -0.5173
 1749SOL     OW 6145   6.431   4.897   6.690  0.3248 -0.2545  0.0679
 1749SOL    HW1 6146   6.404   4.963   6.619 -1.7302 -0.3845  0.6771
 1749SOL    HW2 6147   6.397   4.806   6.665  2.3634 -0.9648 -0.3156
 1750SOL     OW 6148   5.200   0.629   0.297 -0.1230 -0.4818  0.0277
 1750SOL    HW1 6149   5.122   0.688   0.315 -0.3645 -0.2986 -1.4641
 1750SOL    HW2 6150   5.236   0.593   0.383 -1.4755 -0.0986  0.7743
 1751SOL     OW 6151   6.344   6.133   5.222 -0.1670  0.5683 -0.5398
 1751SOL    HW1 6152   6.389   6.183   5.296  1.7196  0.2246 -1.3782
 1751SOL    HW2 6153   6.313   6.044   5.255  1.8123 -0.1212 -0.4161
 1752SOL     OW 6154   6.860   0.836   2.958 -0.2836  0.4761  0.2703
 1752SOL    HW1 6155   6.865   0.931   2.986  0.7553  0.3752  0.4840
 1752SOL    HW2 6156   6.779   0.822   2.901 -0.6380  1.3988  0.5292
 1753SOL     OW 6157   0.707   0.678   1.530 -0.2237  0.1435 -0.0054
 1753SOL    HW1 6158   0.616   0.719   1.528 -0.0957  0.4127 -2.2645
 1753SOL    HW2 6159   0.699   0.579   1.527 -0.4403  0.1646 -0.1488
 1754SOL     OW 6160   2.946   4.870   3.609 -0.4905 -0.1719  0.0958
 1754SOL    HW1 6161   2.922   4.845   3.703 -1.6109  1.4909  0.2983
 1754SOL    HW2 6162   3.046   4.866   3.599 -0.2195  0.9529  1.8038
 1755SOL     OW 6163   4.326   0.464   4.260 -0.0379  0.2593  0.1033
 1755SOL    HW1 6164   4.265   0.474   4.182 -0.6151 -0.3838  0.4627
 1755SOL    HW2 6165   4.413   0.510   4.241 -0.8214  1.6571 -0.1962
 1756SOL     OW 6166   2.524   5.823   2.118  0.0513  0.2778 -0.6859
 1756SOL    HW1 6167   2.510   5.750   2.051  0.4342 -0.6388  0.2037
 1756SOL    HW2 6168   2.447   5.886   2.114 -0.3057 -0.1855 -1.4569
 1757SOL     OW 6169   2.383   5.855   5.538 -0.6897 -0.4614  0.3723
 1757SOL    HW1 6170   2.318   5.877   5.611 -1.0008 -1.7147  0.5054
 1757SOL    HW2 6171   2.332   5.827   5.457 -0.3246 -0.9275  0.3003
 1758SOL     OW 6172   6.408   6.845   3.842  0.4156 -0.6895 -0.0805
 1758SOL    HW1 6173   6.413   6.871   3.745  0.1195 -1.2154 -0.2400
 1758SOL    HW2 6174   6.341   6.771   3.853 -0.6588  0.3728  0.7401
 1759SOL     OW 6175   2.152   6.975   5.291  0.0159 -0.7918  0.1595
 1759SOL    HW1 6176   2.203   6.919   5.356 -0.6129  0.0758  1.4543
 1759SOL    HW2 6177   2.111   6.917   5.221  2.4289 -1.5415 -0.7023
 1760SOL     OW 6178   6.054   1.552   4.172  0.6787 -0.7156 -0.5162
 1760SOL    HW1 6179   6.063   1.453   4.182 -1.0764 -0.7075  2.0790
 1760SOL    HW2 6180   6.075   1.596   4.260  0.6053  1.1602 -1.3974
 1761SOL     OW 6181   4.744   1.131   3.973 -0.1466  0.8245 -0.4322
 1761SOL    HW1 6182   4.809   1.192   4.018 -0.8506  1.3061 -0.0466
 1761SOL    HW2 6183   4.714   1.172   3.886  1.2318 -0.1161 -1.3890
 1762SOL     OW 6184   6.666   1.055   4.949 -0.2178 -0.2255  0.2343
 1762SOL    HW1 6185   6.659   1.146   4.910 -1.4011  0.2414  1.4747
 1762SOL    HW2 6186   6.705   1.061   5.041 -2.9962 -0.5802  1.5192
 1763SOL     OW 6187   0.714   4.191   5.372  0.6955  0.1332 -0.2357
 1763SOL    HW1 6188   0.686   4.163   5.280  0.9504 -1.6236  0.1854
 1763SOL    HW2 6189   0.672   4.130   5.440  0.5908  1.3390  0.8184
 1764SOL     OW 6190   1.301   5.057   3.264 -0.2700  0.3401  0.2576
 1764SOL    HW1 6191   1.325   5.012   3.349  2.1120  1.6568  0.3659
 1764SOL    HW2 6192   1.377   5.048   3.199 -1.3673  0.7866 -1.1363
 1765SOL     OW 6193   1.238   2.695   2.636  0.1431 -0.1589  0.5700
 1765SOL    HW1 6194   1.187   2.609   2.630  1.7477 -1.1401  0.3786
 1765SOL    HW2 6195   1.260   2.714   2.732  0.0367 -0.1165  0.5856
 1766SOL     OW 6196   6.009   3.693   3.108 -0.2560  0.2716 -0.1705
 1766SOL    HW1 6197   5.989   3.763   3.040 -0.7550 -0.0821 -0.3944
 1766SOL    HW2 6198   5.982   3.725   3.199  0.2059  0.6557 -0.1649
 1767SOL     OW 6199   1.518   4.408   3.210 -0.4313  0.2606  0.3854
 1767SOL    HW1 6200   1.428   4.363   3.220 -0.8868  0.9887 -0.3251
 1767SOL    HW2 6201   1.514   4.473   3.135  0.8213  0.0219  0.0905
 1768SOL     OW 6202   2.504   4.569   3.174  0.0254 -0.0624  0.2938
 1768SOL    HW1 6203   2.589   4.562   3.227 -1.3135 -0.6039  2.5126
 1768SOL    HW2 6204   2.463   4.659   3.190 -1.7569 -1.1694  2.5286
 1769SOL     OW 6205   5.201   0.197   6.446 -0.5956  0.2101 -0.4188
 1769SOL    HW1 6206   5.275   0.162   6.388 -0.8697 -0.0402 -0.6213
 1769SOL    HW2 6207   5.132   0.126   6.457 -0.0833 -0.0990  1.0265
 1770SOL     OW 6208   3.365   3.042   2.428  0.0726 -0.6168 -0.2143
 1770SOL    HW1 6209   3.416   3.127   2.444 -0.3590 -0.3398 -0.3038
 1770SOL    HW2 6210   3.270   3.054   2.455  0.0500 -1.1391 -0.0379
 1771SOL     OW 6211   1.634   3.951   4.819  0.1466  0.0091  0.5607
 1771SOL    HW1 6212   1.712   3.965   4.879 -0.2525  1.0219  0.8525
 1771SOL    HW2 6213   1.580   3.874   4.853  1.3699 -1.1547 -0.0371
 1772SOL     OW 6214   2.560   5.081   0.682  0.4477 -1.0967  0.0172
 1772SOL    HW1 6215   2.573   5.173   0.720  0.5152  0.5919 -3.6948
 1772SOL    HW2 6216   2.466   5.051   0.700 -0.9051  1.5080 -1.9534
 1773SOL     OW 6217   0.302   6.145   2.708 -0.1236  0.5075 -0.0512
 1773SOL    HW1 6218   0.337   6.062   2.664  1.2771 -1.6124  4.3831
 1773SOL    HW2 6219   0.203   6.149   2.699 -0.0656 -0.8173 -1.6421
 1774SOL     OW 6220   4.655   5.006   3.059  0.2172  0.6506  0.5750
 1774SOL    HW1 6221   4.705   4.924   3.030  2.3874  2.5034 -1.3322
 1774SOL    HW2 6222   4.590   5.032   2.987  0.1893  1.1118  0.7683
 1775SOL     OW 6223   0.692   5.148   2.554  0.0904 -0.3997 -0.0328
 1775SOL    HW1 6224   0.780   5.101   2.551  0.0008 -0.5785  0.1649
 1775SOL    HW2 6225   0.705   5.245   2.531  0.3080 -0.4681 -0.2013
 1776SOL     OW 6226   4.847   4.026   5.156 -0.1636 -0.0781 -0.0286
 1776SOL    HW1 6227   4.843   4.024   5.056  1.5459  1.7329 -0.1968
 1776SOL    HW2 6228   4.798   3.947   5.193 -0.9950 -0.6826 -2.2735
 1777SOL     OW 6229   4.919   6.239   6.792 -0.1238  0.0916 -0.1420
 1777SOL    HW1 6230   4.983   6.237   6.716 -1.1037 -0.3971 -0.9632
 1777SOL    HW2 6231   4.851   6.166   6.782 -1.6129  1.3974 -0.0032
 1778SOL     OW 6232   1.416   0.183   1.942  0.4427 -0.3864 -0.1805
 1778SOL    HW1 6233   1.499   0.204   1.994  0.4580 -2.4531  0.7337
 1778SOL    HW2 6234   1.365   0.111   1.990 -1.0493 -0.2989 -1.5749
 1779SOL     OW 6235   0.775   6.420   5.646  0.2618  0.4902  0.7363
 1779SOL    HW1 6236   0.830   6.358   5.590 -1.6740 -0.8487  0.1944
 1779SOL    HW2 6237   0.833   6.492   5.683  1.8162  0.9099 -2.2017
 1780SOL     OW 6238   2.665   6.605   4.145  0.3017 -0.3339 -0.1124
 1780SOL    HW1 6239   2.661   6.701   4.175  3.4335 -0.1264 -0.0209
 1780SOL    HW2 6240   2.600   6.551   4.199 -0.4583  1.4793  0.8898
 1781SOL     OW 6241   3.298   0.741   0.789  0.7582  0.2276 -0.0820
 1781SOL    HW1 6242   3.353   0.731   0.706 -0.9052 -1.4416 -1.0889
 1781SOL    HW2 6243   3.215   0.793   0.769 -0.6387 -1.8309 -0.0915
 1782SOL     OW 6244   0.332   0.148   2.624 -0.1947  0.1144  0.2079
 1782SOL    HW1 6245   0.298   0.071   2.678 -3.5625  0.5907 -0.9796
 1782SOL    HW2 6246   0.375   0.215   2.685 -0.8249 -0.8712  1.8057
 1783SOL     OW 6247   1.181   4.969   6.081 -0.0976 -0.6725  0.7564
 1783SOL    HW1 6248   1.086   5.000   6.078  0.3765  0.8716  0.6416
 1783SOL    HW2 6249   1.196   4.912   6.162 -1.3548 -1.8429  0.1993
 1784SOL     OW 6250   1.029   6.193   2.072 -0.2229  0.1434 -0.5993
 1784SOL    HW1 6251   0.985   6.227   2.155 -0.1614 -1.6523  0.2172
 1784SOL    HW2 6252   1.079   6.267   2.027 -2.4170  1.7891 -0.4877
 1785SOL     OW 6253   1.789   4.027   5.386 -0.6282  0.5762  0.3471
 1785SOL    HW1 6254   1.772   3.977   5.471 -0.2365  0.9512  0.6517
 1785SOL    HW2 6255   1.745   3.979   5.310  0.6333 -0.8610  0.4487
 1786SOL     OW 6256   0.424   4.507   2.377  0.0974  0.0576 -0.0510
 1786SOL    HW1 6257   0.435   4.545   2.469 -1.5917  0.3015  0.0912
 1786SOL    HW2 6258   0.344   4.447   2.375  1.5140 -1.8751 -0.7918
 1787SOL     OW 6259   2.262   0.116   0.081 -0.4637  0.8934  0.2116
 1787SOL    HW1 6260   2.260   0.151   0.175 -0.7107 -1.0159  0.9696
 1787SOL    HW2 6261   2.355   0.122   0.045 -0.5329  2.4356  0.2413
 1788SOL     OW 6262   3.824   5.143   1.298  0.2650  0.1577  0.2540
 1788SOL    HW1 6263   3.820   5.049   1.332 -1.6714 -0.7853 -2.2373
 1788SOL    HW2 6264   3.918   5.164   1.270  0.7376 -1.0007  0.8838
 1789SOL     OW 6265   6.771   1.995   4.557  0.3408 -0.0533  0.0860
 1789SOL    HW1 6266   6.776   1.944   4.471  0.6865  0.0468  0.0447
 1789SOL    HW2 6267   6.762   1.931   4.633  0.6896 -0.1749  0.0270
 1790SOL     OW 6268   2.285   1.570   3.739 -0.4873  0.2665  0.1608
 1790SOL    HW1 6269   2.216   1.504   3.769  0.7109 -0.3882  1.5980
 1790SOL    HW2 6270   2.291   1.644   3.805  0.7391 -0.1110  0.4924
 1791SOL     OW 6271   6.445   6.747   2.742 -0.2154 -0.2795  0.2008
 1791SOL    HW1 6272   6.411   6.782   2.830 -0.8251  0.1817 -0.2110
 1791SOL    HW2 6273   6.368   6.732   2.680  0.3199  0.8919 -0.7900
 1792SOL     OW 6274   0.643   4.162   6.601  0.1727  0.4762 -0.2237
 1792SOL    HW1 6275   0.650   4.162   6.501  1.1105  1.2341 -0.1726
 1792SOL    HW2 6276   0.606   4.249   6.632 -0.6162  0.0448  0.0706
 1793SOL     OW 6277   1.825   2.828   4.375  0.3054  0.0960  0.2425
 1793SOL    HW1 6278   1.903   2.843   4.436  0.8982 -0.9738 -0.2212
 1793SOL    HW2 6279   1.774   2.913   4.364  2.9864  1.6183 -1.6637
 1794SOL     OW 6280   0.078   2.662   0.065 -0.1970 -0.4598 -0.1617
 1794SOL    HW1 6281   0.111   2.688   0.156 -0.5557 -0.8476  0.0812
 1794SOL    HW2 6282  -0.019   2.641   0.070 -0.9197  2.2067 -1.1552
 1795SOL     OW 6283   6.082   4.262   3.575  0.0223 -0.6042 -0.1085
 1795SOL    HW1 6284   6.115   4.330   3.641 -0.3091 -0.6989  0.1564
 1795SOL    HW2 6285   6.058   4.308   3.489 -2.8730  0.0799  0.9465
 1796SOL     OW 6286   5.707   0.935   5.201 -0.2203  0.4237  0.1049
 1796SOL    HW1 6287   5.780   1.003   5.205 -2.0796  2.7004 -1.4765
 1796SOL    HW2 6288   5.646   0.946   5.280 -0.4399  0.5123 -0.0744
 1797SOL     OW 6289   2.831   5.936   3.809  0.3718 -0.2171  0.1651
 1797SOL    HW1 6290   2.777   5.926   3.725  1.5455 -2.0212 -0.4224
 1797SOL    HW2 6291   2.824   5.853   3.864  1.2820  0.1486  0.8519
 1798SOL     OW 6292   3.156   2.880   1.238 -0.1588  0.4091  0.3766
 1798SOL    HW1 6293   3.077   2.897   1.298 -0.6666  1.8171 -0.6350
 1798SOL    HW2 6294   3.205   2.966   1.223  2.8081 -0.7570  2.5721
 1799SOL     OW 6295   2.424   1.806   3.183  0.1560 -0.0694  0.0689
 1799SOL    HW1 6296   2.501   1.767   3.134  0.7217 -0.7411  1.4626
 1799SOL    HW2 6297   2.418   1.904   3.162  0.5277 -0.2809 -1.1178
 1800SOL     OW 6298   5.223   2.103   0.430 -0.3043 -0.3870 -0.4120
 1800SOL    HW1 6299   5.299   2.121   0.367 -1.3913  0.2739 -1.5718
 1800SOL    HW2 6300   5.201   2.186   0.481 -0.5965 -0.4248 -0.4750
 1801SOL     OW 6301   2.363   2.481   1.986  0.6073  0.6354 -0.1785
 1801SOL    HW1 6302   2.457   2.460   2.012  1.2583  1.9007 -1.3776
 1801SOL    HW2 6303   2.363   2.532   1.900 -1.1252  1.3290  0.1919
 1802SOL     OW 6304   6.965   3.613   4.080 -0.0218  0.0534 -0.1125
 1802SOL    HW1 6305   6.924   3.586   3.993 -1.2019 -1.0001  0.7392
 1802SOL    HW2 6306   6.991   3.532   4.131  0.5748  0.6633  0.5775
 1803SOL     OW 6307   0.342   6.814   4.145  0.4213 -0.4294 -0.1001
 1803SOL    HW1 6308   0.382   6.803   4.236  1.5495 -1.2469 -0.6774
 1803SOL    HW2 6309   0.348   6.910   4.118  0.2613 -0.2142  0.5979
 1804SOL     OW 6310   2.967   4.445   5.715 -0.0421 -0.0490 -0.8350
 1804SOL    HW1 6311   2.979   4.544   5.725 -0.8838 -0.0217  0.1449
 1804SOL    HW2 6312   2.979   4.401   5.804 -0.8417 -0.6893 -1.0305
 1805SOL     OW 6313   0.115   4.695   0.064 -0.4461 -1.1019 -0.1902
 1805SOL    HW1 6314   0.198   4.663   0.018  0.5804  0.6154  0.3898
 1805SOL    HW2 6315   0.127   4.686   0.163 -1.1217 -1.1876 -0.1136
 1806SOL     OW 6316   6.590   2.619   1.797 -0.4021  0.0745 -0.0994
 1806SOL    HW1 6317   6.490   2.608   1.795 -0.3850 -0.2807  0.6000
 1806SOL    HW2 6318   6.632   2.532   1.822  0.1175  0.0989 -0.8486
 1807SOL     OW 6319   5.831   3.416   3.230  0.2939 -0.4165  0.0760
 1807SOL    HW1 6320   5.751   3.475   3.226  0.2402 -0.4342  0.8251
 1807SOL    HW2 6321   5.819   3.339   3.167 -0.0398 -0.1337 -0.2097
 1808SOL     OW 6322   6.351   2.144   5.618  0.2693  0.5348 -0.0670
 1808SOL    HW1 6323   6.258   2.172   5.642 -0.0071  0.3875 -0.9323
 1808SOL    HW2 6324   6.410   2.225   5.614 -0.0281  0.7430 -0.3811
 1809SOL     OW 6325   4.054   1.863   6.553  0.5700  0.5370 -0.1279
 1809SOL    HW1 6326   3.955   1.876   6.560  0.6382  0.8015  0.4284
 1809SOL    HW2 6327   4.079   1.844   6.458  0.1604  1.9599 -0.5407
 1810SOL     OW 6328   0.561   1.407   5.474 -0.2698  0.0312  0.4424
 1810SOL    HW1 6329   0.659   1.391   5.477 -0.2032  0.4767  0.7106
 1810SOL    HW2 6330   0.516   1.356   5.547  0.0422  1.6949  1.8679
 1811SOL     OW 6331   1.941   5.773   1.960  0.6014 -0.2858 -0.0223
 1811SOL    HW1 6332   1.905   5.690   2.002  0.9562 -0.5571 -0.2462
 1811SOL    HW2 6333   2.036   5.786   1.988  0.2526  0.5863  0.8036
 1812SOL     OW 6334   3.332   6.570   5.750  0.1594  0.4754  0.5557
 1812SOL    HW1 6335   3.415   6.522   5.724 -0.3385 -0.5638  0.8513
 1812SOL    HW2 6336   3.346   6.616   5.838  0.0328 -0.7543  1.2396
 1813SOL     OW 6337   5.347   2.746   0.738 -0.2433  0.5801 -0.2684
 1813SOL    HW1 6338   5.362   2.657   0.780 -0.2219 -0.2578 -1.9613
 1813SOL    HW2 6339   5.249   2.764   0.730 -0.2471  0.8247  0.2776
 1814SOL     OW 6340   0.133   3.749   1.511  0.8637 -0.0694 -0.1199
 1814SOL    HW1 6341   0.203   3.722   1.445  0.5982 -1.5682  0.1713
 1814SOL    HW2 6342   0.134   3.685   1.588  0.2621  0.8605  0.6808
 1815SOL     OW 6343   1.571   6.372   1.428 -0.0183 -0.2274 -0.4187
 1815SOL    HW1 6344   1.621   6.365   1.342 -0.3742 -0.4965 -0.6047
 1815SOL    HW2 6345   1.574   6.284   1.475  1.5473  0.3293  0.6233
 1816SOL     OW 6346   2.533   6.847   4.215  0.3607 -0.1908  0.4594
 1816SOL    HW1 6347   2.502   6.910   4.287  1.1088 -1.3370  1.8326
 1816SOL    HW2 6348   2.462   6.780   4.196 -0.1862  0.6563 -0.5388
 1817SOL     OW 6349   0.426   4.551   4.493  0.5259 -0.5509 -0.2126
 1817SOL    HW1 6350   0.385   4.544   4.402 -1.4070 -2.4257  0.7294
 1817SOL    HW2 6351   0.356   4.541   4.563  2.0859  0.0018  1.5175
 1818SOL     OW 6352   3.161   0.866   5.978 -0.7688  0.6916  0.2165
 1818SOL    HW1 6353   3.103   0.796   6.019 -0.0748  0.7186  1.2884
 1818SOL    HW2 6354   3.128   0.888   5.886  0.1150 -2.4375 -0.9928
 1819SOL     OW 6355   1.192   3.067   6.861  0.0163 -0.1781  0.1392
 1819SOL    HW1 6356   1.149   3.053   6.950 -0.8862  1.2973 -0.0239
 1819SOL    HW2 6357   1.141   3.016   6.791  1.6043 -2.5723  0.6012
 1820SOL     OW 6358   3.971   5.158   4.133  0.2045  0.2525  0.0761
 1820SOL    HW1 6359   4.036   5.119   4.199 -0.2839 -1.2748 -0.3077
 1820SOL    HW2 6360   4.018   5.177   4.047  0.3038 -0.1817  0.0315
 1821SOL     OW 6361   2.631   0.741   5.331  0.1041 -0.1768  0.3798
 1821SOL    HW1 6362   2.661   0.669   5.268 -0.2301 -0.6839  0.7891
 1821SOL    HW2 6363   2.557   0.793   5.288  0.5379  0.1071 -0.0307
 1822SOL     OW 6364   1.778   6.274   5.451 -0.1946 -0.0840  0.6685
 1822SOL    HW1 6365   1.769   6.314   5.360 -1.9171 -1.2198  0.2892
 1822SOL    HW2 6366   1.755   6.343   5.520 -0.0637  0.4463  0.1870
 1823SOL     OW 6367   5.261   0.702   4.592 -0.5467  0.5273 -0.1242
 1823SOL    HW1 6368   5.224   0.623   4.642 -2.1011  2.5772  2.2210
 1823SOL    HW2 6369   5.357   0.686   4.571 -0.8587 -2.0565  0.0646
 1824SOL     OW 6370   6.252   3.333   0.355 -0.2378  0.0208 -0.1723
 1824SOL    HW1 6371   6.198   3.345   0.272  0.9763 -1.1033 -1.1675
 1824SOL    HW2 6372   6.296   3.419   0.380 -1.6467  0.6952  0.0856
 1825SOL     OW 6373   2.672   1.556   0.560  0.3378  0.3248 -0.5443
 1825SOL    HW1 6374   2.729   1.530   0.638  0.3890 -0.8995 -0.9689
 1825SOL    HW2 6375   2.711   1.518   0.476  0.3812  1.7804 -1.2017
 1826SOL     OW 6376   3.775   1.641   0.336 -0.7764 -0.4119  0.2735
 1826SOL    HW1 6377   3.765   1.739   0.351 -1.1777 -0.5655  1.0256
 1826SOL    HW2 6378   3.685   1.598   0.330 -0.6355 -1.0295  1.9940
 1827SOL     OW 6379   5.310   5.251   1.508  0.0295 -0.0300 -0.2388
 1827SOL    HW1 6380   5.296   5.325   1.573 -0.0700  0.4212 -0.7591
 1827SOL    HW2 6381   5.291   5.284   1.415 -1.4115 -1.0938 -0.3564
 1828SOL     OW 6382   1.851   6.166   6.318  0.2394 -0.0461  0.2676
 1828SOL    HW1 6383   1.861   6.220   6.402 -0.0083  0.3587  0.0374
 1828SOL    HW2 6384   1.772   6.105   6.327  0.4318 -0.2640  0.4715
 1829SOL     OW 6385   2.614   4.669   2.680 -0.2296  0.1710  0.4570
 1829SOL    HW1 6386   2.645   4.598   2.617 -1.5089 -0.2321  0.2670
 1829SOL    HW2 6387   2.521   4.649   2.710 -0.5512  1.6758  0.5343
 1830SOL     OW 6388   6.037   0.259   0.160 -0.0026 -0.3766  0.0548
 1830SOL    HW1 6389   5.982   0.315   0.222  0.1126 -0.9929  0.7272
 1830SOL    HW2 6390   5.981   0.187   0.120 -0.2049  0.3417 -0.9858
 1831SOL     OW 6391   3.021   3.321   6.614 -0.0653  0.3869  0.0357
 1831SOL    HW1 6392   3.077   3.404   6.608 -0.0089  0.3158 -0.4260
 1831SOL    HW2 6393   2.980   3.302   6.525  0.3138 -0.3574  0.0150
 1832SOL     OW 6394   2.818   1.894   6.032 -0.2902 -0.3321 -0.1569
 1832SOL    HW1 6395   2.859   1.903   5.942  2.1236  0.3950  0.9353
 1832SOL    HW2 6396   2.823   1.982   6.080 -1.9394 -0.5817  0.5587
 1833SOL     OW 6397   6.083   2.389   1.437 -0.3332 -0.1931 -1.0303
 1833SOL    HW1 6398   6.126   2.462   1.384 -1.1208  1.1588  0.1090
 1833SOL    HW2 6399   5.990   2.374   1.403 -2.8418  4.1657  2.6949
 1834SOL     OW 6400   2.283   4.572   6.243 -0.5590 -0.0852  0.3263
 1834SOL    HW1 6401   2.265   4.508   6.317 -0.0852 -1.7125 -0.9135
 1834SOL    HW2 6402   2.197   4.596   6.198 -0.5513 -1.5399 -0.5229
 1835SOL     OW 6403   6.284   2.656   0.788  0.4984  0.0096 -0.0403
 1835SOL    HW1 6404   6.195   2.697   0.807  0.3604 -0.1726 -0.2929
 1835SOL    HW2 6405   6.285   2.619   0.695  1.3138  1.2754 -0.5578
 1836SOL     OW 6406   0.198   0.617   0.599  0.0098 -0.2023  0.1353
 1836SOL    HW1 6407   0.296   0.597   0.610  0.3766  0.2589 -1.8974
 1836SOL    HW2 6408   0.151   0.601   0.685  1.7762 -1.0371  0.9924
 1837SOL     OW 6409   1.021   2.788   0.540  0.0398  0.1633 -0.3283
 1837SOL    HW1 6410   1.110   2.771   0.497  0.3006 -1.1059  0.6378
 1837SOL    HW2 6411   1.032   2.847   0.619 -0.0262  0.2578 -0.3892
 1838SOL     OW 6412   3.288   6.235   5.997  0.3266 -0.0149  0.5772
 1838SOL    HW1 6413   3.378   6.223   6.039  0.6816  1.5955  0.3443
 1838SOL    HW2 6414   3.227   6.283   6.061 -0.7085 -1.9145  1.1077
 1839SOL     OW 6415   6.565   2.140   5.216  0.4778  0.2620  0.7379
 1839SOL    HW1 6416   6.613   2.205   5.158  1.2238 -0.3234  0.6902
 1839SOL    HW2 6417   6.470   2.170   5.227  0.5028  0.7462 -0.2133
 1840SOL     OW 6418   1.318   6.830   4.884  0.7749  0.5907 -0.5398
 1840SOL    HW1 6419   1.345   6.849   4.789 -1.0656 -1.5494 -1.5994
 1840SOL    HW2 6420   1.375   6.756   4.920 -3.1472 -4.2216 -2.9190
 1841SOL     OW 6421   3.167   5.629   2.896 -0.1004 -0.7427  0.4255
 1841SOL    HW1 6422   3.194   5.588   2.809 -0.3513  2.0022 -1.0574
 1841SOL    HW2 6423   3.068   5.645   2.896  0.0199  0.0559  0.8276
 1842SOL     OW 6424   1.700   5.120   0.617  0.2503 -0.1549 -0.5205
 1842SOL    HW1 6425   1.770   5.187   0.590  1.6382 -1.7936 -1.1196
 1842SOL    HW2 6426   1.616   5.169   0.643  1.2723  1.8160 -0.7334
 1843SOL     OW 6427   4.642   6.933   0.095 -0.1436 -1.0495  0.1767
 1843SOL    HW1 6428   4.703   6.928   0.174  0.5569 -1.3020 -0.3698
 1843SOL    HW2 6429   4.674   6.869   0.025 -0.9177 -1.0243 -0.2028
 1844SOL     OW 6430   0.086   2.834   6.389  0.1890  0.5410  0.1034
 1844SOL    HW1 6431   0.039   2.915   6.353 -0.4806  0.4558  0.7531
 1844SOL    HW2 6432   0.127   2.856   6.478  1.1500  0.5310 -0.3261
 1845SOL     OW 6433   1.213   4.825   4.362  0.2817 -0.3489  0.1617
 1845SOL    HW1 6434   1.161   4.830   4.447 -0.6778 -0.3732 -0.4133
 1845SOL    HW2 6435   1.226   4.729   4.337  2.6271 -0.4581  1.4903
 1846SOL     OW 6436   3.258   0.984   2.093  0.4911 -0.1280  0.0487
 1846SOL    HW1 6437   3.232   0.888   2.078  3.2838 -0.8814 -0.5768
 1846SOL    HW2 6438   3.257   1.003   2.191 -2.5870  0.0665  0.0812
 1847SOL     OW 6439   1.934   6.552   5.204 -0.0786  0.1924  0.4197
 1847SOL    HW1 6440   1.948   6.595   5.293 -0.5982  0.9858  0.1327
 1847SOL    HW2 6441   1.897   6.620   5.140 -1.1204 -0.7353  0.0092
 1848SOL     OW 6442   1.887   5.222   4.401 -0.1045  0.0234 -0.0369
 1848SOL    HW1 6443   1.923   5.152   4.462  1.6696  0.5126 -0.4665
 1848SOL    HW2 6444   1.930   5.310   4.421  0.3104  0.2506 -1.7847
 1849SOL     OW 6445   5.398   3.690   0.809 -0.0077  0.4542 -0.5179
 1849SOL    HW1 6446   5.418   3.594   0.826 -2.5651  0.2920  2.5036
 1849SOL    HW2 6447   5.340   3.697   0.727 -1.7254 -0.9355  0.4991
 1850SOL     OW 6448   5.460   1.250   1.216  0.2350  0.2819 -0.2175
 1850SOL    HW1 6449   5.538   1.291   1.169 -0.9843  3.8787  0.5702
 1850SOL    HW2 6450   5.387   1.318   1.224 -1.6348 -1.8325  2.1633
 1851SOL     OW 6451   3.306   0.367   3.336  0.5283 -0.1823  0.1058
 1851SOL    HW1 6452   3.220   0.322   3.360  0.4847 -0.3448 -0.3430
 1851SOL    HW2 6453   3.377   0.298   3.324  0.5403 -0.1072 -0.2591
 1852SOL     OW 6454   0.225   5.824   3.790 -0.0862 -0.3801 -0.1047
 1852SOL    HW1 6455   0.316   5.865   3.796 -0.1266 -0.2274 -0.5272
 1852SOL    HW2 6456   0.211   5.784   3.699 -0.7979  0.4633 -0.3839
 1853SOL     OW 6457   0.578   2.645   6.401  0.2864 -0.0834 -0.5469
 1853SOL    HW1 6458   0.599   2.640   6.498  0.1853 -0.9319 -0.5607
 1853SOL    HW2 6459   0.630   2.575   6.352  0.3767  0.3745 -1.1076
 1854SOL     OW 6460   6.018   5.137   3.102 -0.1655  0.5365 -0.2727
 1854SOL    HW1 6461   5.975   5.149   3.192  0.7275  0.4392  0.1757
 1854SOL    HW2 6462   6.019   5.040   3.078  0.3873  0.4715  0.0113
 1855SOL     OW 6463   6.239   2.298   4.547  0.6812  0.2984 -0.5359
 1855SOL    HW1 6464   6.168   2.361   4.577 -0.3638 -1.1700  0.2456
 1855SOL    HW2 6465   6.311   2.348   4.499 -0.5991  1.9100 -0.8615
 1856SOL     OW 6466   5.057   5.027   5.618  0.9334 -0.0334 -0.4978
 1856SOL    HW1 6467   5.042   4.982   5.706 -1.2501 -1.9282 -1.7102
 1856SOL    HW2 6468   5.066   4.957   5.547  1.2920  1.4573 -1.9557
 1857SOL     OW 6469   3.518   1.833   6.833  0.3693 -0.2120  0.3825
 1857SOL    HW1 6470   3.599   1.793   6.875  2.2458  3.2789  0.4645
 1857SOL    HW2 6471   3.544   1.914   6.780 -3.0552  0.8904  0.1083
 1858SOL     OW 6472   5.293   1.575   0.559  0.5615 -0.4737 -0.2688
 1858SOL    HW1 6473   5.303   1.489   0.607  1.1663  0.1612  0.7839
 1858SOL    HW2 6474   5.197   1.601   0.554  0.3530 -1.3336 -0.8368
 1859SOL     OW 6475   5.246   6.367   0.874 -0.2422  0.2066 -0.0131
 1859SOL    HW1 6476   5.298   6.453   0.881 -0.9020  0.6064  0.0331
 1859SOL    HW2 6477   5.221   6.351   0.779  1.0629 -0.6551 -0.2372
 1860SOL     OW 6478   1.561   5.846   0.001  0.0745  0.2456  0.6939
 1860SOL    HW1 6479   1.554   5.944   0.020 -0.2200  0.7361 -1.6453
 1860SOL    HW2 6480   1.470   5.806  -0.003  0.2134 -0.4645  2.8579
 1861SOL     OW 6481   4.869   0.494   3.859  0.1087 -0.1117 -0.1475
 1861SOL    HW1 6482   4.924   0.434   3.801 -0.2336  0.0476 -0.6459
 1861SOL    HW2 6483   4.808   0.439   3.916  0.5247 -0.2742  0.1429
 1862SOL     OW 6484   5.171   5.357   4.155 -0.2812  0.2834 -0.2972
 1862SOL    HW1 6485   5.248   5.317   4.205 -0.7483  0.3171  0.4623
 1862SOL    HW2 6486   5.202   5.437   4.104 -0.1116  1.3132  1.3260
 1863SOL     OW 6487   0.978   1.065   1.921  0.3078 -0.3465 -0.2412
 1863SOL    HW1 6488   1.058   1.005   1.911 -1.7210 -3.0526 -1.5974
 1863SOL    HW2 6489   0.951   1.100   1.831  0.6803  1.6596  0.3713
 1864SOL     OW 6490   1.178   4.557   3.275 -0.2537 -0.1170  0.6155
 1864SOL    HW1 6491   1.222   4.468   3.283  2.0771  0.8687 -0.1573
 1864SOL    HW2 6492   1.194   4.611   3.358  0.0411  0.2511  0.3275
 1865SOL     OW 6493   0.163   3.576   5.057  0.2038 -0.3344 -0.3105
 1865SOL    HW1 6494   0.072   3.612   5.081  0.0204 -1.1520  0.2308
 1865SOL    HW2 6495   0.162   3.544   4.962  0.3872  1.1076 -0.8345
 1866SOL     OW 6496   5.747   5.002   6.534  0.5928 -0.2036 -0.5964
 1866SOL    HW1 6497   5.677   4.997   6.604  3.5871  0.5955  2.7787
 1866SOL    HW2 6498   5.765   5.098   6.511  1.9621 -0.2481  0.1948
 1867SOL     OW 6499   0.702   6.998   0.541  0.0630  0.0052 -0.1345
 1867SOL    HW1 6500   0.676   6.933   0.470 -0.3148 -0.2504  0.2290
 1867SOL    HW2 6501   0.652   6.977   0.625  1.5632 -0.6011  0.6480
 1868SOL     OW 6502   3.652   2.868   6.862  0.2035 -0.1581  0.0547
 1868SOL    HW1 6503   3.556   2.893   6.852 -0.5352 -1.5233  2.7985
 1868SOL    HW2 6504   3.676   2.800   6.793 -0.3919  1.0654 -1.4193
 1869SOL     OW 6505   3.665   1.701   5.143 -0.4767  0.6040 -0.7137
 1869SOL    HW1 6506   3.609   1.782   5.161  0.9084  1.9141 -1.9862
 1869SOL    HW2 6507   3.758   1.730   5.118  0.3738 -1.4357 -0.1352
 1870SOL     OW 6508   6.081   2.282   7.012  1.0302  0.1634 -0.8617
 1870SOL    HW1 6509   5.992   2.237   7.008  0.9436  0.2128  0.2118
 1870SOL    HW2 6510   6.153   2.214   7.028  1.0293  0.2760 -0.3743
 1871SOL     OW 6511   3.356   4.405   5.883  0.0675  0.5735 -0.2148
 1871SOL    HW1 6512   3.287   4.412   5.954  1.6318  0.2981  1.4057
 1871SOL    HW2 6513   3.404   4.317   5.891  0.9086  0.9372 -1.0043
 1872SOL     OW 6514   2.006   4.491   5.274 -0.1047  0.0109  0.2547
 1872SOL    HW1 6515   2.050   4.573   5.239  1.1716 -0.6005  0.3588
 1872SOL    HW2 6516   1.912   4.512   5.301 -0.2654  1.0929 -1.0491
 1873SOL     OW 6517   0.169   0.045   3.019 -0.7909  0.4945 -0.6051
 1873SOL    HW1 6518   0.108   0.086   2.951 -0.9981  1.6367  0.2327
 1873SOL    HW2 6519   0.133   0.064   3.110 -0.2478 -0.5833 -0.1569
 1874SOL     OW 6520   2.073   6.302   5.503 -0.1986  0.3016  0.0307
 1874SOL    HW1 6521   2.092   6.397   5.527  0.9393 -0.2573  1.4233
 1874SOL    HW2 6522   1.977   6.294   5.475 -0.2052  1.9230 -0.5284
 1875SOL     OW 6523   1.383   0.112   3.909 -0.0649 -0.4130  0.8820
 1875SOL    HW1 6524   1.338   0.039   3.960  0.1469 -1.6347 -0.6097
 1875SOL    HW2 6525   1.348   0.115   3.816 -0.4679  1.7853  1.0429
 1876SOL     OW 6526   1.587   4.303   4.570  0.8979  0.1494 -0.4311
 1876SOL    HW1 6527   1.619   4.214   4.538  0.3818  0.1516 -0.9726
 1876SOL    HW2 6528   1.664   4.356   4.605  1.1233 -0.7305  0.4456
 1877SOL     OW 6529   5.333   0.285   4.091 -0.3694 -0.0442 -0.7194
 1877SOL    HW1 6530   5.316   0.287   4.190  1.9067 -0.8043 -0.2566
 1877SOL    HW2 6531   5.275   0.353   4.046 -1.7078  0.0785  1.0789
 1878SOL     OW 6532   4.915   2.602   2.624  0.8814  0.1727 -0.0504
 1878SOL    HW1 6533   4.816   2.602   2.613  0.9667  0.7470 -0.9981
 1878SOL    HW2 6534   4.939   2.591   2.720 -0.0964 -0.0089  0.1785
 1879SOL     OW 6535   1.669   6.208   4.747 -0.3640  0.6172 -0.6716
 1879SOL    HW1 6536   1.742   6.184   4.811 -0.5638  1.1925 -0.2263
 1879SOL    HW2 6537   1.693   6.291   4.698 -0.3746  0.3764 -1.0916
 1880SOL     OW 6538   1.255   4.268   3.290 -0.2012  0.0373  0.1762
 1880SOL    HW1 6539   1.255   4.269   3.390  3.1197 -0.6699  0.3209
 1880SOL    HW2 6540   1.279   4.177   3.258 -0.4345  0.4601 -1.2366
 1881SOL     OW 6541   2.663   1.534   2.797 -0.1898 -0.1580  0.0945
 1881SOL    HW1 6542   2.707   1.619   2.767 -1.1078  0.5242  0.6262
 1881SOL    HW2 6543   2.584   1.516   2.740  0.7204 -1.3683 -0.8396
 1882SOL     OW 6544   3.884   0.941   5.375 -0.3420  0.1402  0.0202
 1882SOL    HW1 6545   3.826   1.006   5.326 -0.9562 -0.4415 -0.0359
 1882SOL    HW2 6546   3.857   0.939   5.472 -0.8069 -0.5416 -0.1140
 1883SOL     OW 6547   1.978   2.874   1.781 -0.1026 -0.2962  0.2027
 1883SOL    HW1 6548   2.009   2.779   1.784  0.0962 -0.2577 -0.5795
 1883SOL    HW2 6549   2.053   2.935   1.803  0.6046 -0.1695 -2.2583
 1884SOL     OW 6550   5.360   5.854   2.944 -0.2371  0.1379 -0.3531
 1884SOL    HW1 6551   5.449   5.899   2.956 -0.4277  0.3870  0.1565
 1884SOL    HW2 6552   5.354   5.815   2.852  1.1669 -1.5181  0.1880
 1885SOL     OW 6553   0.252   0.419   6.845 -0.0724  0.0741  0.0530
 1885SOL    HW1 6554   0.276   0.346   6.780  0.4631  0.5456 -0.2913
 1885SOL    HW2 6555   0.335   0.466   6.874 -0.6095  2.4306 -1.9609
 1886SOL     OW 6556   3.304   3.048   5.743  0.6836  0.0418  0.5111
 1886SOL    HW1 6557   3.221   3.087   5.783  0.6260 -0.6047  1.0531
 1886SOL    HW2 6558   3.298   3.049   5.643 -0.0116 -0.0773  0.5520
 1887SOL     OW 6559   1.889   4.673   4.945 -0.8099 -0.4194 -0.1215
 1887SOL    HW1 6560   1.857   4.592   4.995  0.3083 -0.0475  1.2641
 1887SOL    HW2 6561   1.876   4.755   5.001  3.9001 -0.3914  1.3779
 1888SOL     OW 6562   3.805   2.472   5.504  0.0638  0.3282 -0.2427
 1888SOL    HW1 6563   3.883   2.509   5.454 -0.2427  1.1847 -0.1016
 1888SOL    HW2 6564   3.727   2.463   5.442 -0.3345  1.4485  0.0708
 1889SOL     OW 6565   3.483   1.911   5.855 -0.4359  0.2583  0.2437
 1889SOL    HW1 6566   3.556   1.967   5.893 -0.8432  1.0985 -0.1928
 1889SOL    HW2 6567   3.394   1.947   5.885 -0.7563 -3.0420  4.1438
 1890SOL     OW 6568   5.813   6.425   4.488 -0.0325 -0.0743 -0.0625
 1890SOL    HW1 6569   5.851   6.440   4.578 -0.8437  0.0655  0.2655
 1890SOL    HW2 6570   5.809   6.511   4.438  1.6723 -0.3611 -0.7585
 1891SOL     OW 6571   5.007   3.509   1.259  0.1751  0.2838 -0.8053
 1891SOL    HW1 6572   5.048   3.598   1.241  1.1445 -0.1768 -0.9387
 1891SOL    HW2 6573   5.058   3.438   1.210 -1.2268 -0.2404 -1.5796
 1892SOL     OW 6574   3.066   6.141   4.386  0.1119  0.2597  0.7317
 1892SOL    HW1 6575   3.076   6.144   4.286  1.3655 -2.3062  0.7046
 1892SOL    HW2 6576   2.975   6.174   4.411  0.3188  2.4583 -1.0912
 1893SOL     OW 6577   1.793   2.335   6.394  0.2657  0.5555 -0.9561
 1893SOL    HW1 6578   1.756   2.339   6.486  2.4625  1.7710 -0.0453
 1893SOL    HW2 6579   1.718   2.336   6.327 -1.4495 -2.1118  0.7685
 1894SOL     OW 6580   5.498   3.202   2.467  0.5717 -0.3503  0.7869
 1894SOL    HW1 6581   5.513   3.251   2.553  0.3368  1.1600 -0.0077
 1894SOL    HW2 6582   5.418   3.144   2.476 -0.9691  1.6796  0.8582
 1895SOL     OW 6583   3.770   6.978   3.350 -0.2482 -0.2375 -0.0044
 1895SOL    HW1 6584   3.768   7.067   3.397 -3.5528 -0.3071  0.1792
 1895SOL    HW2 6585   3.752   6.905   3.416  1.4991 -1.0168 -0.3304
 1896SOL     OW 6586   0.228   1.782   6.272 -0.9384 -0.0551  0.3294
 1896SOL    HW1 6587   0.220   1.684   6.289 -1.7943  0.1603  1.2902
 1896SOL    HW2 6588   0.292   1.822   6.337 -0.1801 -0.0457 -0.4048
 1897SOL     OW 6589   5.597   3.589   3.207  0.4042  0.1241  1.0311
 1897SOL    HW1 6590   5.529   3.565   3.137  2.1193  0.2049 -0.7500
 1897SOL    HW2 6591   5.554   3.587   3.297 -2.3123  1.5125 -0.1122
 1898SOL     OW 6592   5.407   0.248   0.857 -0.1442 -0.3569  0.3537
 1898SOL    HW1 6593   5.365   0.211   0.939  0.0689 -0.4736  0.4101
 1898SOL    HW2 6594   5.356   0.217   0.776 -1.2199  0.9068  0.5107
 1899SOL     OW 6595   1.021   2.302   4.273  0.0817 -0.0572  0.6851
 1899SOL    HW1 6596   1.081   2.272   4.347  0.9275 -0.3298 -0.0925
 1899SOL    HW2 6597   0.972   2.223   4.237 -0.2559  0.0597  0.8829
 1900SOL     OW 6598   3.470   4.461   0.785  0.0343 -0.6938  0.0568
 1900SOL    HW1 6599   3.479   4.545   0.838  1.0303 -0.6428 -0.1794
 1900SOL    HW2 6600   3.524   4.468   0.701 -1.1598 -0.9487 -0.7559
 1901SOL     OW 6601   0.465   1.563   6.620 -0.0392  0.3623  0.0769
 1901SOL    HW1 6602   0.519   1.609   6.690  0.5273  1.9963 -1.3589
 1901SOL    HW2 6603   0.518   1.557   6.536 -0.5619 -1.9029 -0.1389
 1902SOL     OW 6604   1.340   1.419   4.679 -0.4668 -0.0280 -0.1861
 1902SOL    HW1 6605   1.306   1.431   4.586 -0.3286 -0.7012 -0.3297
 1902SOL    HW2 6606   1.368   1.324   4.692 -1.8586 -0.3147  0.9799
 1903SOL     OW 6607   2.174   6.457   1.791  0.3159  0.0078 -0.0703
 1903SOL    HW1 6608   2.253   6.413   1.748 -0.2988  0.2870 -1.5439
 1903SOL    HW2 6609   2.191   6.556   1.798 -0.1265  0.1523 -0.9352
 1904SOL     OW 6610   0.731   0.827   2.463  0.1752  0.4049 -0.0750
 1904SOL    HW1 6611   0.713   0.875   2.377  0.7465 -0.6876 -0.8378
 1904SOL    HW2 6612   0.656   0.763   2.481 -0.0719  0.8191  0.3892
 1905SOL     OW 6613   5.591   3.572   0.275 -0.5819  0.3861 -0.1181
 1905SOL    HW1 6614   5.597   3.501   0.204 -0.7097  2.2074 -2.0420
 1905SOL    HW2 6615   5.681   3.583   0.318  0.4894  1.6401 -2.4941
 1906SOL     OW 6616   0.831   6.256   5.403 -0.2314 -0.4164 -0.4642
 1906SOL    HW1 6617   0.838   6.345   5.358  1.3921  0.0086  0.5700
 1906SOL    HW2 6618   0.893   6.191   5.359 -0.5968 -0.7470 -0.5038
 1907SOL     OW 6619   3.412   0.425   3.641  0.0547 -0.2313  0.1513
 1907SOL    HW1 6620   3.379   0.507   3.688  2.1492  0.0478  1.2311
 1907SOL    HW2 6621   3.455   0.451   3.555  0.4203 -0.2257  0.3345
 1908SOL     OW 6622   6.404   4.334   2.788  0.0653  0.5333  0.1997
 1908SOL    HW1 6623   6.436   4.344   2.883  0.2574  0.7559  0.1119
 1908SOL    HW2 6624   6.328   4.269   2.786  0.7484 -0.2909  0.3591
 1909SOL     OW 6625   4.109   4.995   5.694  0.1682 -0.4829 -0.0453
 1909SOL    HW1 6626   4.206   5.015   5.681  0.0683  0.9453  1.2006
 1909SOL    HW2 6627   4.096   4.896   5.699  1.5420 -0.6932 -0.3090
 1910SOL     OW 6628   5.409   3.551   4.622 -0.3132  0.2347  0.2020
 1910SOL    HW1 6629   5.463   3.593   4.549 -1.5287  0.1262 -0.7912
 1910SOL    HW2 6630   5.364   3.468   4.588 -1.3226  0.4599  0.9155
 1911SOL     OW 6631   2.030   1.542   5.580 -0.2826 -0.5169  0.0911
 1911SOL    HW1 6632   2.002   1.625   5.531  1.0771  0.9038  1.6225
 1911SOL    HW2 6633   1.955   1.510   5.638 -1.0891 -0.8834 -1.0954
 1912SOL     OW 6634   3.900   1.202   3.357 -0.4759 -0.8482 -0.2597
 1912SOL    HW1 6635   3.972   1.260   3.396 -0.2563 -0.4495 -1.2224
 1912SOL    HW2 6636   3.851   1.155   3.431 -0.0161 -0.1957  0.4759
 1913SOL     OW 6637   3.005   2.054   0.918 -0.5190  0.2683  0.5235
 1913SOL    HW1 6638   2.973   1.960   0.924 -2.5275  0.9332  0.9459
 1913SOL    HW2 6639   3.072   2.061   0.844 -0.9143 -1.3398 -0.0338
 1914SOL     OW 6640   2.878   1.900   4.978 -0.8883 -0.7403 -0.1084
 1914SOL    HW1 6641   2.885   1.940   4.886 -0.9171 -0.2080  0.1176
 1914SOL    HW2 6642   2.914   1.965   5.045 -0.5470 -1.2673  0.2222
 1915SOL     OW 6643   1.800   4.458   0.136 -0.7785 -0.0967  0.1902
 1915SOL    HW1 6644   1.744   4.541   0.130  0.9995  1.1176 -0.8077
 1915SOL    HW2 6645   1.825   4.428   0.044  1.6721  0.5223  0.5767
 1916SOL     OW 6646   4.698   1.173   2.242 -0.3077  0.0037 -0.7023
 1916SOL    HW1 6647   4.775   1.114   2.217  1.0889  1.4144  0.0464
 1916SOL    HW2 6648   4.648   1.199   2.159 -0.3050 -1.3125 -1.1536
 1917SOL     OW 6649   4.021   3.431   3.477 -0.0079 -0.0295  0.5602
 1917SOL    HW1 6650   3.932   3.395   3.449  1.2162 -1.5126 -1.7989
 1917SOL    HW2 6651   4.060   3.370   3.547 -0.8963  0.7800  1.8097
 1918SOL     OW 6652   2.441   5.006   5.573 -0.2433  0.3833  0.0397
 1918SOL    HW1 6653   2.519   5.008   5.635  0.0049  3.3926 -0.2161
 1918SOL    HW2 6654   2.356   4.996   5.626  0.1643 -1.3686  0.4314
 1919SOL     OW 6655   3.684   1.613   3.678  0.0744 -0.7209  0.4364
 1919SOL    HW1 6656   3.663   1.517   3.661  1.9290 -1.3305  1.2712
 1919SOL    HW2 6657   3.605   1.658   3.720 -1.4297 -1.3979 -1.5564
 1920SOL     OW 6658   6.334   6.767   6.198 -0.3406 -0.2669  0.6855
 1920SOL    HW1 6659   6.385   6.703   6.255 -0.5085 -0.0958  1.0274
 1920SOL    HW2 6660   6.397   6.828   6.150  0.0587 -2.4531 -1.8465
 1921SOL     OW 6661   0.572   6.763   0.672  0.2085  0.2819 -0.0455
 1921SOL    HW1 6662   0.480   6.725   0.661 -0.1021  1.5536 -2.4102
 1921SOL    HW2 6663   0.627   6.742   0.591  1.8151  0.1414  1.0254
 1922SOL     OW 6664   2.556   5.707   0.443 -0.2861  0.0150 -0.8794
 1922SOL    HW1 6665   2.534   5.610   0.457  0.0466  0.1430  0.7033
 1922SOL    HW2 6666   2.646   5.714   0.398  1.5312 -0.4474  2.4001
 1923SOL     OW 6667   2.059   2.647   6.944  0.0538 -0.1753  0.2922
 1923SOL    HW1 6668   2.157   2.661   6.931 -0.3523  1.4857 -1.4374
 1923SOL    HW2 6669   2.044   2.555   6.981  2.2913 -0.0542  1.7255
 1924SOL     OW 6670   6.905   5.769   2.717  0.2331 -0.5053  0.3309
 1924SOL    HW1 6671   6.932   5.803   2.807  1.4210 -1.5477  0.3938
 1924SOL    HW2 6672   6.967   5.806   2.648 -1.1357  0.9178 -0.2178
 1925SOL     OW 6673   2.505   4.687   0.201 -0.9022 -0.0155 -0.5152
 1925SOL    HW1 6674   2.572   4.660   0.271 -0.7085  0.1653 -0.6280
 1925SOL    HW2 6675   2.541   4.766   0.150 -0.4180 -0.9839 -1.7338
 1926SOL     OW 6676   6.378   6.923   3.578 -0.3378 -0.5038 -0.1564
 1926SOL    HW1 6677   6.287   6.942   3.540 -0.5695 -0.7361  0.2630
 1926SOL    HW2 6678   6.434   6.878   3.510 -0.5157 -0.2924 -0.4444
 1927SOL     OW 6679   4.489   3.666   0.412 -0.2304 -0.4658  0.4444
 1927SOL    HW1 6680   4.430   3.621   0.345  0.2952 -1.3203  0.5411
 1927SOL    HW2 6681   4.539   3.597   0.464  0.0349  0.2158  1.1168
 1928SOL     OW 6682   0.129   4.285   4.557  0.3039  0.0733 -0.2158
 1928SOL    HW1 6683   0.054   4.290   4.490  1.7808  0.7244 -1.8930
 1928SOL    HW2 6684   0.102   4.334   4.640 -1.2037  0.1049 -0.6837
 1929SOL     OW 6685   0.431   5.261   3.199 -0.5148 -0.4416 -0.0253
 1929SOL    HW1 6686   0.406   5.329   3.130  1.5206  1.0254  0.5774
 1929SOL    HW2 6687   0.456   5.175   3.155 -2.5467 -0.6839 -0.8391
 1930SOL     OW 6688   6.517   5.945   1.068  0.0722 -0.2447 -0.3575
 1930SOL    HW1 6689   6.543   5.862   1.118  1.1735 -0.6348 -1.5200
 1930SOL    HW2 6690   6.589   6.014   1.078 -0.8385  0.5929  0.6014
 1931SOL     OW 6691   2.112   2.596   3.798  0.4992  0.1375 -0.2068
 1931SOL    HW1 6692   2.156   2.672   3.844  0.8167  0.3934 -0.9136
 1931SOL    HW2 6693   2.180   2.543   3.747 -0.0031  0.6337 -1.4384
 1932SOL     OW 6694   5.761   0.785   2.356  0.1634 -0.1387 -0.3314
 1932SOL    HW1 6695   5.714   0.697   2.354  0.6823 -0.5345  1.7243
 1932SOL    HW2 6696   5.856   0.770   2.384  0.8366  0.8948 -1.9532
 1933SOL     OW 6697   1.834   4.635   1.040  0.2266  1.1900  0.0077
 1933SOL    HW1 6698   1.735   4.627   1.031  0.0443  0.1740  2.2654
 1933SOL    HW2 6699   1.856   4.680   1.127  1.7283 -0.9301  0.8224
 1934SOL     OW 6700   0.164   3.810   2.087 -0.2976 -0.0777 -0.3916
 1934SOL    HW1 6701   0.088   3.865   2.120  0.7812  0.1358  1.9087
 1934SOL    HW2 6702   0.131   3.721   2.058 -1.4814  0.2020  0.0658
 1935SOL     OW 6703   6.125   6.526   1.660 -0.2049 -0.3071 -0.0558
 1935SOL    HW1 6704   6.041   6.575   1.637 -0.0077 -0.0466 -0.2146
 1935SOL    HW2 6705   6.101   6.436   1.698 -0.6543  0.6277  2.0606
 1936SOL     OW 6706   6.332   6.273   0.019  0.2607 -0.1401 -0.0433
 1936SOL    HW1 6707   6.326   6.228  -0.070  0.0043 -0.8038  0.3047
 1936SOL    HW2 6708   6.288   6.363   0.014 -2.3995 -1.3529  0.1720
 1937SOL     OW 6709   5.485   2.819   5.400 -0.5733 -0.8098 -0.5281
 1937SOL    HW1 6710   5.419   2.819   5.475  0.0981 -0.2917  0.0766
 1937SOL    HW2 6711   5.573   2.784   5.433 -0.0102  0.2795 -0.8120
 1938SOL     OW 6712   3.242   5.913   2.973  0.3740 -0.3979  0.3173
 1938SOL    HW1 6713   3.234   5.813   2.978  0.3254 -0.5151 -1.5582
 1938SOL    HW2 6714   3.327   5.942   3.017  0.6998 -1.3205  0.3198
 1939SOL     OW 6715   3.704   2.716   5.318  0.0077 -0.2880  0.1110
 1939SOL    HW1 6716   3.804   2.713   5.318  0.0811  0.6317 -1.5942
 1939SOL    HW2 6717   3.668   2.640   5.263 -0.3822 -2.0246  2.6042
 1940SOL     OW 6718   4.717   1.457   5.267  0.6475  0.4240  0.1835
 1940SOL    HW1 6719   4.707   1.535   5.205 -0.6097 -0.5899 -0.9485
 1940SOL    HW2 6720   4.705   1.372   5.216  1.6407 -0.5292  1.4557
 1941SOL     OW 6721   5.444   5.048   1.638  0.2935  0.3714 -0.0755
 1941SOL    HW1 6722   5.393   5.123   1.595 -1.8259 -0.7126  0.3875
 1941SOL    HW2 6723   5.380   4.989   1.687  2.1561 -0.6113  1.2966
 1942SOL     OW 6724   6.983   2.676   3.450  0.5073  0.4750  0.1714
 1942SOL    HW1 6725   7.070   2.720   3.432  1.5677 -1.1513  1.0847
 1942SOL    HW2 6726   6.996   2.578   3.462 -1.4200  0.2049  0.5179
 1943SOL     OW 6727   4.693   4.194   3.660  0.1487 -0.4298 -0.1585
 1943SOL    HW1 6728   4.688   4.140   3.743  0.6576 -0.2670 -0.0202
 1943SOL    HW2 6729   4.649   4.283   3.675 -1.4976 -1.1095 -0.6520
 1944SOL     OW 6730   5.849   6.513   1.791  0.2672 -0.2876  0.0315
 1944SOL    HW1 6731   5.765   6.495   1.842  0.4135 -0.8126  0.0990
 1944SOL    HW2 6732   5.926   6.467   1.836 -0.0296 -3.1782 -2.1319
 1945SOL     OW 6733   2.076   6.654   1.282  0.1089 -0.4358  0.3062
 1945SOL    HW1 6734   2.142   6.697   1.221  0.1237  1.1601  1.4143
 1945SOL    HW2 6735   2.075   6.555   1.264 -0.8177  0.0635 -3.1470
 1946SOL     OW 6736   1.485   6.329   6.918 -0.5619  0.3789  0.3503
 1946SOL    HW1 6737   1.486   6.236   6.954  0.6316  0.3986  0.4140
 1946SOL    HW2 6738   1.399   6.346   6.871 -0.6105 -0.9196 -0.0578
 1947SOL     OW 6739   4.925   2.006   3.448  0.2711  0.4696 -0.9072
 1947SOL    HW1 6740   4.994   2.047   3.508 -1.0991 -1.1691  2.0143
 1947SOL    HW2 6741   4.970   1.949   3.379  1.9032 -0.8635  1.1407
 1948SOL     OW 6742   0.370   2.458   5.655  0.3817 -0.1835 -0.0241
 1948SOL    HW1 6743   0.329   2.507   5.732  0.2632 -1.4951  0.7681
 1948SOL    HW2 6744   0.467   2.484   5.648 -0.2918  2.3205 -1.4196
 1949SOL     OW 6745   2.772   4.286   6.295 -0.3252 -0.3739 -0.3194
 1949SOL    HW1 6746   2.724   4.367   6.328  0.3167 -0.0975 -0.0357
 1949SOL    HW2 6747   2.839   4.257   6.364 -0.4415 -1.0475 -0.4881
 1950SOL     OW 6748   2.919   4.190   6.777  0.5483 -0.0551  0.1672
 1950SOL    HW1 6749   2.840   4.244   6.746  0.3720 -0.8631 -0.8137
 1950SOL    HW2 6750   2.985   4.181   6.703  0.1043 -2.0460 -0.0479
 1951SOL     OW 6751   0.781   3.269   6.365 -0.2281  0.1270 -0.2958
 1951SOL    HW1 6752   0.859   3.317   6.405 -0.8432  0.5736  0.4033
 1951SOL    HW2 6753   0.785   3.276   6.265  2.3283 -2.5408 -0.5133
 1952SOL     OW 6754   3.371   4.149   2.530  0.3834 -0.6466 -0.0557
 1952SOL    HW1 6755   3.317   4.114   2.607  0.9288  1.3597  1.3518
 1952SOL    HW2 6756   3.451   4.198   2.566  0.4514  0.6847 -1.8973
 1953SOL     OW 6757   6.852   1.347   3.598  0.1009  0.2593 -0.3422
 1953SOL    HW1 6758   6.802   1.309   3.676  0.4473  1.9715  0.7714
 1953SOL    HW2 6759   6.794   1.342   3.517 -0.8928 -0.1169  0.3602
 1954SOL     OW 6760   2.557   6.509   3.397 -0.0109 -0.3795 -0.4873
 1954SOL    HW1 6761   2.604   6.475   3.478  0.8504  0.2494 -0.7047
 1954SOL    HW2 6762   2.468   6.546   3.423  0.4641  0.2646  0.2502
 1955SOL     OW 6763   6.749   5.592   3.117  0.2993 -0.0874 -0.6037
 1955SOL    HW1 6764   6.753   5.517   3.051  0.0644 -1.3020  0.7105
 1955SOL    HW2 6765   6.654   5.610   3.141  0.4187 -0.1785 -0.0412
 1956SOL     OW 6766   5.239   4.733   2.536 -0.2386 -0.0603  0.0966
 1956SOL    HW1 6767   5.185   4.698   2.612 -0.7161 -0.2731 -0.3337
 1956SOL    HW2 6768   5.237   4.832   2.536 -1.4804 -0.0728 -0.5068
 1957SOL     OW 6769   4.593   6.321   6.179  0.1526 -0.5604 -0.1571
 1957SOL    HW1 6770   4.509   6.370   6.203 -0.0041 -1.4091  1.1477
 1957SOL    HW2 6771   4.575   6.260   6.102 -0.5097 -0.9550  0.3040
 1958SOL     OW 6772   5.155   1.617   5.305 -0.2750 -0.1611 -0.2069
 1958SOL    HW1 6773   5.167   1.527   5.346 -0.4617  0.4439  1.2379
 1958SOL    HW2 6774   5.163   1.687   5.376  1.8461  1.1171 -1.5947
 1959SOL     OW 6775   4.227   6.768   5.157 -0.2785  0.5472  0.4263
 1959SOL    HW1 6776   4.302   6.711   5.191 -1.8765 -2.2181 -0.3837
 1959SOL    HW2 6777   4.246   6.864   5.179  4.0237  0.2076 -0.7296
 1960SOL     OW 6778   4.760   5.451   2.498  0.7932  0.2221 -0.2961
 1960SOL    HW1 6779   4.783   5.428   2.592  1.0344 -1.3423 -0.7103
 1960SOL    HW2 6780   4.729   5.546   2.493  2.0875  0.7544  1.1339
 1961SOL     OW 6781   5.945   4.484   4.451 -0.5298  0.0905  0.2220
 1961SOL    HW1 6782   5.965   4.394   4.490 -0.3656 -0.4194 -0.9832
 1961SOL    HW2 6783   5.870   4.475   4.385 -1.5205  1.1160  1.1481
 1962SOL     OW 6784   6.344   5.920   3.565  0.3105 -0.0048  0.9875
 1962SOL    HW1 6785   6.326   6.016   3.584  0.4823  0.3223 -0.4025
 1962SOL    HW2 6786   6.429   5.912   3.512 -1.7010 -0.5075 -2.4852
 1963SOL     OW 6787   2.249   2.052   5.281 -0.3657 -0.0237  0.6653
 1963SOL    HW1 6788   2.252   2.076   5.378 -1.5644  1.3804  0.3847
 1963SOL    HW2 6789   2.279   2.130   5.226 -1.8732 -0.0056 -0.1734
 1964SOL     OW 6790   6.136   1.310   3.744 -0.3228  0.0044 -0.3256
 1964SOL    HW1 6791   6.036   1.306   3.734 -0.2979 -0.8953 -0.3133
 1964SOL    HW2 6792   6.162   1.395   3.790 -1.1208  0.0213  0.1081
 1965SOL     OW 6793   0.564   6.284   2.261 -0.5548  0.0047  0.3853
 1965SOL    HW1 6794   0.531   6.335   2.340 -0.4080  0.3044  0.2535
 1965SOL    HW2 6795   0.661   6.264   2.273  0.7196  3.9704 -1.7067
 1966SOL     OW 6796   0.094   0.967   1.382  0.1459 -0.6041  0.0474
 1966SOL    HW1 6797   0.008   0.962   1.433 -0.6833 -1.0959 -1.3248
 1966SOL    HW2 6798   0.110   1.062   1.354 -0.9336 -0.7636 -1.2301
 1967SOL     OW 6799   0.462   2.156   4.868 -0.1492 -0.0524 -0.0512
 1967SOL    HW1 6800   0.420   2.065   4.862  2.0169 -1.0655 -1.4291
 1967SOL    HW2 6801   0.396   2.225   4.841 -1.5190 -1.3208 -0.0980
 1968SOL     OW 6802   3.618   0.265   3.336 -0.1691  0.3358  0.1898
 1968SOL    HW1 6803   3.631   0.273   3.238  3.7628 -1.0409  0.4400
 1968SOL    HW2 6804   3.616   0.356   3.378 -0.9187  0.8960 -1.0242
 1969SOL     OW 6805   5.090   1.882   1.394  0.1950 -0.2935 -0.1729
 1969SOL    HW1 6806   5.122   1.797   1.434  0.5997  0.8053  2.0035
 1969SOL    HW2 6807   5.148   1.958   1.425 -0.2639  0.8160 -1.8821
 1970SOL     OW 6808   2.520   2.166   3.769 -0.6181 -0.6732  0.1024
 1970SOL    HW1 6809   2.423   2.149   3.752 -0.0506 -2.5942 -1.4709
 1970SOL    HW2 6810   2.559   2.089   3.819 -0.1189  0.6434  1.8568
 1971SOL     OW 6811   6.829   2.330   0.193 -0.4965  0.4357 -0.2974
 1971SOL    HW1 6812   6.838   2.426   0.166  1.1827  0.7352  1.0853
 1971SOL    HW2 6813   6.802   2.326   0.290 -0.2708 -0.4749 -0.2653
 1972SOL     OW 6814   6.524   6.411   3.969 -0.3501 -0.0467 -0.6447
 1972SOL    HW1 6815   6.450   6.345   3.977 -0.7540  0.4296 -0.3974
 1972SOL    HW2 6816   6.602   6.381   4.025 -0.9076  0.1896  0.2908
 1973SOL     OW 6817   5.062   3.319   5.479  0.1324  0.2743  0.1386
 1973SOL    HW1 6818   5.070   3.235   5.532  0.0211 -0.6729 -1.3078
 1973SOL    HW2 6819   4.993   3.307   5.408  0.9269  1.1994 -0.8133
 1974SOL     OW 6820   4.447   6.031   3.254 -0.3324 -0.3374 -0.1841
 1974SOL    HW1 6821   4.399   6.108   3.211 -1.2907 -0.2702  0.9611
 1974SOL    HW2 6822   4.387   5.986   3.320  1.0368 -0.5269  0.9911
 1975SOL     OW 6823   3.521   5.408   2.881  0.2048 -0.3972 -0.7910
 1975SOL    HW1 6824   3.452   5.433   2.949  1.5054 -2.9710  1.7071
 1975SOL    HW2 6825   3.592   5.478   2.877 -1.0184  0.8603 -1.2329
 1976SOL     OW 6826   5.737   3.796   5.576  0.1175 -0.0666  0.3952
 1976SOL    HW1 6827   5.816   3.746   5.612  0.4536 -1.5495 -2.1869
 1976SOL    HW2 6828   5.752   3.894   5.585  1.5380 -0.3505  1.3616
 1977SOL     OW 6829   4.197   0.468   6.430 -0.1118  0.2617 -0.3672
 1977SOL    HW1 6830   4.137   0.411   6.486 -1.2110  1.6317 -0.0959
 1977SOL    HW2 6831   4.288   0.473   6.473 -0.2171 -0.6602 -0.0109
 1978SOL     OW 6832   5.966   5.396   4.421 -0.7228 -0.0237 -0.3282
 1978SOL    HW1 6833   5.913   5.402   4.506  2.1898 -1.1465  1.7255
 1978SOL    HW2 6834   6.010   5.307   4.415 -1.1754 -0.1418 -3.3223
 1979SOL     OW 6835   5.404   3.923   5.049 -0.4643 -0.2057 -0.0018
 1979SOL    HW1 6836   5.376   3.839   5.095  0.0872 -0.6202 -0.4177
 1979SOL    HW2 6837   5.376   4.002   5.104 -3.2249 -0.5434 -0.7620
 1980SOL     OW 6838   3.497   6.423   1.913  0.0276 -0.1718  0.5425
 1980SOL    HW1 6839   3.529   6.517   1.919  1.0263 -0.4905  0.5373
 1980SOL    HW2 6840   3.405   6.415   1.950  0.0037  0.7696  0.6909
 1981SOL     OW 6841   5.173   3.879   3.499 -0.0170 -0.5981  0.0151
 1981SOL    HW1 6842   5.090   3.826   3.483 -0.7573  0.1646  1.2197
 1981SOL    HW2 6843   5.175   3.956   3.435  0.0582 -0.9238 -0.3858
 1982SOL     OW 6844   0.962   0.451   5.970  0.7437 -0.7118 -0.1505
 1982SOL    HW1 6845   1.051   0.458   6.015  0.4858 -1.0667  0.4308
 1982SOL    HW2 6846   0.975   0.443   5.871  1.3285 -0.1486 -0.1203
 1983SOL     OW 6847   0.730   3.799   1.482  0.1798  0.2160  0.2476
 1983SOL    HW1 6848   0.829   3.793   1.495 -0.0938 -0.2187  2.5987
 1983SOL    HW2 6849   0.689   3.847   1.560 -1.6815 -1.8738  0.6813
 1984SOL     OW 6850   2.884   0.284   4.881 -0.0039 -0.3343  0.3271
 1984SOL    HW1 6851   2.922   0.372   4.851  1.2503 -1.3482 -1.1911
 1984SOL    HW2 6852   2.785   0.285   4.871  0.0781  0.6100 -0.4778
 1985SOL     OW 6853   1.302   5.401   3.611 -0.5343  0.2862  0.0517
 1985SOL    HW1 6854   1.392   5.387   3.652 -1.2280  0.8311  1.8437
 1985SOL    HW2 6855   1.305   5.483   3.553  0.3347 -0.2122 -0.6351
 1986SOL     OW 6856   5.333   2.212   2.209  0.0163  0.5451  0.3829
 1986SOL    HW1 6857   5.359   2.290   2.266  0.7705  0.4267  0.2168
 1986SOL    HW2 6858   5.275   2.150   2.261 -0.4319  1.1216  0.5789
 1987SOL     OW 6859   3.071   1.055   0.456 -0.7514  0.0495 -0.3092
 1987SOL    HW1 6860   3.108   1.144   0.429  0.6665 -1.1783 -2.8206
 1987SOL    HW2 6861   2.985   1.068   0.506 -0.1933  2.8035  0.1147
 1988SOL     OW 6862   5.516   1.528   2.257 -0.1571  0.2412  0.6277
 1988SOL    HW1 6863   5.432   1.499   2.212  0.4244  0.0759 -0.3918
 1988SOL    HW2 6864   5.579   1.450   2.263  0.4312  0.6673  0.1746
 1989SOL     OW 6865   1.173   1.893   2.207  0.0537  0.7810 -0.5304
 1989SOL    HW1 6866   1.231   1.856   2.280 -0.7135  3.5668  1.7146
 1989SOL    HW2 6867   1.077   1.876   2.229 -0.1535 -0.1103 -2.0101
 1990SOL     OW 6868   0.913   0.652   4.420 -0.0145 -0.0827  0.4129
 1990SOL    HW1 6869   0.859   0.735   4.438 -0.1821 -0.1639  0.2862
 1990SOL    HW2 6870   1.009   0.670   4.439  0.0638  0.3874 -0.4121
 1991SOL     OW 6871   6.577   5.040   3.035 -0.6638 -0.6644 -0.0880
 1991SOL    HW1 6872   6.510   4.995   3.095 -0.7769 -0.3831 -0.0017
 1991SOL    HW2 6873   6.538   5.050   2.944 -1.5523  1.3470  0.4608
 1992SOL     OW 6874   1.146   5.278   3.863 -0.8619  0.0370 -0.1145
 1992SOL    HW1 6875   1.234   5.325   3.867 -2.1156  2.7054 -1.1445
 1992SOL    HW2 6876   1.150   5.205   3.794  0.8975 -0.8946  0.8962
 1993SOL     OW 6877   3.613   3.374   5.078  0.1559  0.2611  0.3226
 1993SOL    HW1 6878   3.611   3.280   5.112 -0.4381  0.0721 -0.2151
 1993SOL    HW2 6879   3.522   3.400   5.047 -0.1089  1.6184  2.0520
 1994SOL     OW 6880   0.608   1.324   2.488 -0.0234  1.0228  0.6112
 1994SOL    HW1 6881   0.605   1.392   2.562  0.3756  0.8203  0.8170
 1994SOL    HW2 6882   0.530   1.338   2.427  0.7594  2.5288 -0.1102
 1995SOL     OW 6883   3.315   2.097   0.393 -0.4852  0.0486  0.4919
 1995SOL    HW1 6884   3.408   2.130   0.414 -0.9982  3.0680 -1.4378
 1995SOL    HW2 6885   3.303   2.093   0.294 -2.3904 -0.4216  0.7157
 1996SOL     OW 6886   0.183   4.407   6.674  0.3986  0.3139  0.2411
 1996SOL    HW1 6887   0.179   4.333   6.740 -1.1551 -0.5086 -0.7124
 1996SOL    HW2 6888   0.188   4.369   6.581  0.8871  1.4134 -0.1994
 1997SOL     OW 6889   6.647   6.911   4.768 -0.3748 -0.0827  0.3958
 1997SOL    HW1 6890   6.607   6.998   4.739  0.1327  0.4934  1.3642
 1997SOL    HW2 6891   6.607   6.885   4.856 -0.2450 -0.6425  0.2905
 1998SOL     OW 6892   4.742   5.513   4.733  0.3323 -0.1051 -0.3026
 1998SOL    HW1 6893   4.767   5.457   4.812 -3.6664 -2.6784 -0.5649
 1998SOL    HW2 6894   4.693   5.457   4.667 -0.7086  3.0014 -2.3939
 1999SOL     OW 6895   3.373   1.205   3.397 -0.0924 -0.1851  0.5484
 1999SOL    HW1 6896   3.313   1.248   3.464 -1.3831 -0.4724 -0.3767
 1999SOL    HW2 6897   3.414   1.276   3.339  1.8885  0.1630  2.2472
 2000SOL     OW 6898   2.161   0.622   6.129 -0.3834  0.4684 -0.2238
 2000SOL    HW1 6899   2.204   0.571   6.204  1.1760 -0.0464 -1.4222
 2000SOL    HW2 6900   2.129   0.711   6.164  2.3912  1.2337  0.6125
 2001SOL     OW 6901   1.169   2.252   4.917  0.1582  0.0060 -0.1515
 2001SOL    HW1 6902   1.170   2.152   4.914  1.7648  0.0028 -2.2106
 2001SOL    HW2 6903   1.261   2.285   4.936 -0.0468  1.0879 -0.9874
 2002SOL     OW 6904   2.075   6.254   4.333 -0.0596  0.4992  0.3035
 2002SOL    HW1 6905   2.103   6.159   4.339 -0.9637  0.2714  1.4082
 2002SOL    HW2 6906   2.144   6.307   4.284  0.4172 -0.7313 -0.3766
 2003SOL     OW 6907   6.860   5.462   3.354 -0.3943 -0.0953  0.6394
 2003SOL    HW1 6908   6.822   5.501   3.270 -1.1102 -0.0507  0.9769
 2003SOL    HW2 6909   6.921   5.528   3.397 -2.3424  1.1043  1.7196
 2004SOL     OW 6910   1.864   0.623   4.631  0.0347  0.3741  0.6699
 2004SOL    HW1 6911   1.796   0.671   4.576  0.1155  0.1254  0.3480
 2004SOL    HW2 6912   1.881   0.533   4.591  1.2669  0.7996  0.1653
 2005SOL     OW 6913   2.557   0.027   4.534  0.1356 -0.2498 -0.1625
 2005SOL    HW1 6914   2.634  -0.037   4.536  0.1865 -0.1964 -0.3730
 2005SOL    HW2 6915   2.581   0.106   4.477 -1.5193 -2.0588 -3.6466
 2006SOL     OW 6916   4.732   0.418   3.361 -0.1652  0.0101  0.1741
 2006SOL    HW1 6917   4.796   0.355   3.404 -0.9466 -0.7002  0.3349
 2006SOL    HW2 6918   4.702   0.487   3.428 -1.2144 -0.9628  0.7444
 2007SOL     OW 6919   0.841   4.852   1.719  0.1834  0.8132  0.2401
 2007SOL    HW1 6920   0.844   4.913   1.798 -0.8924 -0.6255  1.4645
 2007SOL    HW2 6921   0.934   4.827   1.692  0.5692  0.3874  1.8408
 2008SOL     OW 6922   6.939   6.543   5.835 -0.7550  0.2608 -0.4023
 2008SOL    HW1 6923   6.960   6.628   5.883 -0.5719  0.7876 -1.3849
 2008SOL    HW2 6924   6.918   6.564   5.739 -0.7254 -0.8039 -0.6482
 2009SOL     OW 6925   0.155   0.196   5.582  0.2414 -0.1404 -0.2205
 2009SOL    HW1 6926   0.215   0.128   5.625 -0.6810  0.0610  1.4920
 2009SOL    HW2 6927   0.211   0.270   5.546  1.1099 -0.5615  0.2020
 2010SOL     OW 6928   3.029   1.106   1.934  0.1941  0.1045 -0.1291
 2010SOL    HW1 6929   2.991   1.033   1.879 -0.1589  1.6577 -2.0608
 2010SOL    HW2 6930   3.107   1.072   1.987 -2.8149 -2.8397  2.9100
 2011SOL     OW 6931   6.990   1.568   3.457 -0.6137  0.2219 -0.1749
 2011SOL    HW1 6932   6.916   1.550   3.523  1.4859 -0.6978  2.0991
 2011SOL    HW2 6933   7.031   1.482   3.429  0.8242  0.7847  0.1300
 2012SOL     OW 6934   6.486   2.490   2.125  0.0768 -0.6602 -0.1999
 2012SOL    HW1 6935   6.518   2.585   2.133 -2.1350  0.1396 -0.0259
 2012SOL    HW2 6936   6.516   2.437   2.204  0.8338  0.0611  0.0022
 2013SOL     OW 6937   3.339   2.747   1.938  0.6477 -0.3505  0.4227
 2013SOL    HW1 6938   3.278   2.669   1.925  0.1814 -0.1727  1.4280
 2013SOL    HW2 6939   3.329   2.781   2.031  1.6835  0.2066  0.3380
 2014SOL     OW 6940   5.363   5.189   3.043  0.0420  0.6484  0.1971
 2014SOL    HW1 6941   5.389   5.281   3.014 -3.5891  1.5478 -0.8111
 2014SOL    HW2 6942   5.313   5.195   3.130  1.2853 -0.6710  1.0489
 2015SOL     OW 6943   3.623   5.900   5.559  0.2024  0.4375 -0.2799
 2015SOL    HW1 6944   3.570   5.968   5.508  0.2262  1.4756  1.0199
 2015SOL    HW2 6945   3.576   5.880   5.646  0.7503 -0.4024 -0.1665
 2016SOL     OW 6946   6.184   6.480   6.658  0.3255  0.0903 -0.3789
 2016SOL    HW1 6947   6.087   6.501   6.672  0.4456  0.0691  0.4801
 2016SOL    HW2 6948   6.239   6.526   6.727  0.6522 -2.4863  1.1840
 2017SOL     OW 6949   0.695   3.931   0.627 -0.1972 -0.1634 -0.0873
 2017SOL    HW1 6950   0.623   3.959   0.691 -1.1723  0.2645 -1.3364
 2017SOL    HW2 6951   0.668   3.955   0.534  2.0258  0.9555 -0.5131
 2018SOL     OW 6952   2.002   4.349   4.846 -0.2749  0.7188  0.7515
 2018SOL    HW1 6953   1.950   4.292   4.909  0.9430 -0.1816  0.9856
 2018SOL    HW2 6954   2.100   4.334   4.861  0.0850 -0.4243 -2.1026
 2019SOL     OW 6955   6.428   6.013   1.737 -0.1868  0.1272 -0.6746
 2019SOL    HW1 6956   6.390   6.031   1.828  0.2553  1.1733 -0.6901
 2019SOL    HW2 6957   6.434   5.914   1.723  1.9352 -0.1318  1.3951
 2020SOL     OW 6958   1.103   5.254   2.609 -0.1782 -0.3658 -0.6585
 2020SOL    HW1 6959   1.186   5.223   2.654  0.4478  0.0822 -1.4832
 2020SOL    HW2 6960   1.126   5.293   2.519 -1.0468  1.4592 -0.1387
 2021SOL     OW 6961   0.354   6.727   0.264 -0.2663 -0.3340 -0.1566
 2021SOL    HW1 6962   0.282   6.768   0.321  1.3127  1.5330  0.6432
 2021SOL    HW2 6963   0.368   6.632   0.292  1.1078  0.7414  3.4300
 2022SOL     OW 6964   3.574   5.245   6.081 -0.2698 -0.0659 -0.0611
 2022SOL    HW1 6965   3.481   5.261   6.048  0.0737  0.2915 -0.8788
 2022SOL    HW2 6966   3.640   5.288   6.019  0.4420 -0.2473  0.5497
 2023SOL     OW 6967   0.507   4.359   6.744  0.1350  0.3822 -0.0720
 2023SOL    HW1 6968   0.417   4.327   6.773  0.2090 -0.8548 -1.1270
 2023SOL    HW2 6969   0.530   4.443   6.794 -2.5386  1.9953 -1.3255
 2024SOL     OW 6970   4.287   0.045   2.117  0.1116 -0.2590 -0.2424
 2024SOL    HW1 6971   4.302   0.093   2.203  1.4991  0.0273 -0.6196
 2024SOL    HW2 6972   4.300  -0.053   2.131 -2.3535 -0.5581  0.4440
 2025SOL     OW 6973   5.939   1.321   0.045  0.0540  0.7371  0.7452
 2025SOL    HW1 6974   6.035   1.344   0.061  0.5387 -1.8802  2.0536
 2025SOL    HW2 6975   5.922   1.314  -0.053  0.4022  3.9913  0.3397
 2026SOL     OW 6976   2.979   2.485   5.991  0.5525  0.1892  0.1007
 2026SOL    HW1 6977   2.905   2.528   6.043 -0.4993 -1.0554 -0.3353
 2026SOL    HW2 6978   2.977   2.518   5.897  0.1188 -0.3649 -0.0844
 2027SOL     OW 6979   0.251   6.639   2.167 -0.0491 -0.0543 -0.2167
 2027SOL    HW1 6980   0.284   6.716   2.223  2.2930 -1.3129  0.2450
 2027SOL    HW2 6981   0.159   6.660   2.134 -0.1037  2.2766  1.1501
 2028SOL     OW 6982   4.101   2.071   6.021 -0.2963  0.4646 -0.0355
 2028SOL    HW1 6983   4.062   2.028   6.102  1.4724 -1.8683 -0.3345
 2028SOL    HW2 6984   4.049   2.154   6.000 -3.0856 -0.7870  1.3155
 2029SOL     OW 6985   0.416   5.365   1.956 -0.5096  0.0057 -0.3832
 2029SOL    HW1 6986   0.487   5.305   1.920 -1.4401 -1.8114  0.6639
 2029SOL    HW2 6987   0.326   5.326   1.937 -1.0838 -0.3520  2.5292
 2030SOL     OW 6988   1.196   2.592   3.116 -0.3553 -0.1926 -0.4567
 2030SOL    HW1 6989   1.233   2.536   3.190 -0.2141 -0.1383 -0.4847
 2030SOL    HW2 6990   1.233   2.685   3.122  2.5353 -1.0345 -2.6165
 2031SOL     OW 6991   6.813   1.554   1.665 -0.3298  0.2280  0.2392
 2031SOL    HW1 6992   6.860   1.479   1.618 -0.7868  0.5438 -0.7439
 2031SOL    HW2 6993   6.856   1.641   1.639  0.4260  0.3058  1.6454
 2032SOL     OW 6994   3.590   4.854   2.453  0.6267 -0.2812  0.6902
 2032SOL    HW1 6995   3.524   4.896   2.516 -0.1426 -0.1420 -0.1833
 2032SOL    HW2 6996   3.669   4.820   2.504 -1.0585 -2.3715  2.0669
 2033SOL     OW 6997   0.668   5.499   0.206  0.0050  0.6332  0.2053
 2033SOL    HW1 6998   0.600   5.502   0.280 -1.9221 -0.6318 -1.4078
 2033SOL    HW2 6999   0.664   5.585   0.154 -0.9113  0.3055 -0.2979
 2034SOL     OW 7000   0.827   5.713   5.012  0.3596 -0.4846  0.3805
 2034SOL    HW1 7001   0.904   5.651   5.001  3.0527  2.6279  0.1709
 2034SOL    HW2 7002   0.797   5.746   4.922  0.9892  0.7443  0.5972
 2035SOL     OW 7003   3.027   1.353   1.316  1.0938 -0.1696 -0.8556
 2035SOL    HW1 7004   3.024   1.284   1.389  1.9968 -1.2511 -1.8179
 2035SOL    HW2 7005   2.982   1.437   1.349  1.4381 -0.6319  0.9248
 2036SOL     OW 7006   0.177   5.145   0.737  0.0239 -0.0161  0.2737
 2036SOL    HW1 7007   0.176   5.045   0.729  0.8296 -0.1832  1.7663
 2036SOL    HW2 7008   0.186   5.186   0.646  1.1493 -1.3612 -0.2632
 2037SOL     OW 7009   0.623   2.367   0.278 -0.3755  0.1448  0.1066
 2037SOL    HW1 7010   0.657   2.338   0.368  0.4022 -0.5842 -0.4049
 2037SOL    HW2 7011   0.551   2.304   0.248  0.5810 -0.6645 -0.5395
 2038SOL     OW 7012   4.522   6.867   5.475 -0.6391 -0.3030  0.0226
 2038SOL    HW1 7013   4.521   6.848   5.573  0.1912  0.5496  0.2078
 2038SOL    HW2 7014   4.439   6.916   5.449  0.5639  2.3876  0.9317
 2039SOL     OW 7015   0.956   5.601   0.379  0.0634  0.0947  0.1281
 2039SOL    HW1 7016   1.030   5.542   0.347  0.2944  0.2450  0.3770
 2039SOL    HW2 7017   0.896   5.624   0.303  0.1147 -0.2595 -0.0184
 2040SOL     OW 7018   2.984   2.574   5.432 -0.1569  0.0552 -0.0520
 2040SOL    HW1 7019   2.954   2.491   5.385 -0.7930 -0.4031  1.1228
 2040SOL    HW2 7020   3.083   2.579   5.430 -0.0488 -1.3536  0.8644
 2041SOL     OW 7021   4.240   2.900   0.769 -0.1737 -0.3145  0.0666
 2041SOL    HW1 7022   4.228   2.801   0.770 -1.3442 -0.2210  2.5992
 2041SOL    HW2 7023   4.206   2.939   0.854  1.3216  2.1762 -0.3593
 2042SOL     OW 7024   2.645   6.631   0.338  0.0854 -0.3302  0.3566
 2042SOL    HW1 7025   2.582   6.557   0.360  0.2152 -0.1467  1.3880
 2042SOL    HW2 7026   2.682   6.617   0.246  0.3406 -1.7148  0.6469
 2043SOL     OW 7027   5.081   2.729   3.005 -0.0464  0.7725  0.0920
 2043SOL    HW1 7028   5.063   2.757   3.099 -1.0488  1.3742 -0.2533
 2043SOL    HW2 7029   5.024   2.650   2.982  4.3318 -3.2653  1.7499
 2044SOL     OW 7030   4.900   2.143   1.696 -0.5587 -0.1924  0.3876
 2044SOL    HW1 7031   4.831   2.161   1.767 -0.1534 -1.2880  1.0771
 2044SOL    HW2 7032   4.970   2.215   1.698  0.8977 -1.5521  2.9279
 2045SOL     OW 7033   4.451   6.761   4.119 -0.2066  0.4990 -0.0976
 2045SOL    HW1 7034   4.422   6.847   4.076  0.3861  0.1247 -1.2933
 2045SOL    HW2 7035   4.459   6.690   4.049 -1.3716 -0.7378  0.9704
 2046SOL     OW 7036   0.609   2.242   4.567  0.8674  0.2400 -0.5388
 2046SOL    HW1 7037   0.619   2.147   4.538 -1.5895 -0.1666 -0.2729
 2046SOL    HW2 7038   0.570   2.245   4.659  1.7634  1.5260 -0.1682
 2047SOL     OW 7039   6.059   4.308   6.724  0.5433  0.5485  0.0654
 2047SOL    HW1 7040   6.114   4.284   6.803  0.3127 -2.9765 -0.6760
 2047SOL    HW2 7041   5.972   4.347   6.754  0.7341 -0.1008  1.5196
 2048SOL     OW 7042   6.122   0.016   6.495 -0.1005  0.0447 -0.1449
 2048SOL    HW1 7043   6.205   0.059   6.531 -0.1595 -0.3515  0.4843
 2048SOL    HW2 7044   6.140  -0.081   6.478  0.6239  0.6418 -3.3839
 2049SOL     OW 7045   5.115   5.341   6.964 -0.4302  0.4379  0.4221
 2049SOL    HW1 7046   5.185   5.345   7.035 -2.5458 -0.8850  2.7400
 2049SOL    HW2 7047   5.042   5.407   6.985 -1.4606 -0.5145 -0.0862
 2050SOL     OW 7048   5.212   2.712   4.755 -0.2064 -0.0757 -0.8698
 2050SOL    HW1 7049   5.233   2.681   4.662  1.2961 -1.3697 -0.1488
 2050SOL    HW2 7050   5.297   2.721   4.807 -0.9357  1.5830  0.1307
 2051SOL     OW 7051   2.365   6.605   0.890  0.8105 -0.3413  0.1035
 2051SOL    HW1 7052   2.438   6.538   0.906  1.3662  0.1747 -0.2301
 2051SOL    HW2 7053   2.404   6.687   0.849  0.0980  0.1019  0.2996
 2052SOL     OW 7054   1.242   4.090   7.008  0.1245  0.6671  0.2357
 2052SOL    HW1 7055   1.240   3.993   6.985  1.4055  0.2577  1.6304
 2052SOL    HW2 7056   1.261   4.143   6.926 -1.5463 -0.1506 -0.7304
 2053SOL     OW 7057   4.500   2.525   0.175  0.4726 -0.1786 -0.0155
 2053SOL    HW1 7058   4.565   2.454   0.148  0.0122 -0.8379  0.5764
 2053SOL    HW2 7059   4.440   2.490   0.247 -0.6033  0.3816 -0.6112
 2054SOL     OW 7060   1.518   1.637   0.828  0.0302 -1.0217 -0.6391
 2054SOL    HW1 7061   1.452   1.567   0.856 -2.0467  1.0679  0.0564
 2054SOL    HW2 7062   1.505   1.658   0.731 -0.6918 -0.3418 -0.4167
 2055SOL     OW 7063   0.372   2.309   3.640  0.4710  0.1201  0.5517
 2055SOL    HW1 7064   0.360   2.355   3.552  1.7453  0.5058  0.5549
 2055SOL    HW2 7065   0.307   2.233   3.647  1.8136 -1.3488 -1.6789
 2056SOL     OW 7066   0.344   5.055   2.738 -0.1741  0.7074 -0.3708
 2056SOL    HW1 7067   0.298   5.135   2.700  0.1077  0.7485 -0.6239
 2056SOL    HW2 7068   0.348   4.983   2.669 -0.5527  0.4230 -0.0988
 2057SOL     OW 7069   6.095   2.120   3.119  0.1338 -0.6258 -0.4710
 2057SOL    HW1 7070   6.106   2.101   3.021  0.7311  0.6136 -0.6658
 2057SOL    HW2 7071   6.141   2.206   3.141  2.5307 -2.2774  1.4625
 2058SOL     OW 7072   0.661   0.980   2.242  0.4975 -0.2489 -0.1432
 2058SOL    HW1 7073   0.699   0.955   2.153  2.4746 -0.5978  0.7320
 2058SOL    HW2 7074   0.569   1.016   2.231  1.2240  1.1010 -2.5024
 2059SOL     OW 7075   1.052   0.182   6.488 -0.6721 -0.2993  0.1266
 2059SOL    HW1 7076   1.097   0.255   6.539 -0.3650  0.5837 -1.3423
 2059SOL    HW2 7077   1.054   0.098   6.542  0.4354  0.3633  1.1732
 2060SOL     OW 7078   1.000   6.462   4.059  0.2859 -0.4394 -0.1243
 2060SOL    HW1 7079   1.066   6.511   4.115  1.8226  0.2911 -2.4134
 2060SOL    HW2 7080   1.026   6.365   4.055  0.1103 -0.5130  0.4947
 2061SOL     OW 7081   1.990   1.895   0.235 -0.1804 -0.1815  0.1102
 2061SOL    HW1 7082   1.974   1.862   0.141  0.0664 -0.8197  0.2877
 2061SOL    HW2 7083   2.063   1.842   0.277  0.2579  0.6283  0.4004
 2062SOL     OW 7084   4.934   0.295   3.098  0.2986 -0.3031 -0.2240
 2062SOL    HW1 7085   5.015   0.312   3.155  1.0435  0.0286 -1.3243
 2062SOL    HW2 7086   4.917   0.197   3.092  1.5516 -0.4929 -1.1680
 2063SOL     OW 7087   3.183   0.317   1.720 -0.1477  0.1623  0.3145
 2063SOL    HW1 7088   3.254   0.347   1.784 -0.0866 -1.5598  1.1003
 2063SOL    HW2 7089   3.185   0.218   1.711 -1.7355  0.1631 -0.5374
 2064SOL     OW 7090   1.107   3.350   6.794 -0.4011  0.2237 -0.1243
 2064SOL    HW1 7091   1.126   3.408   6.874  0.4622 -0.8709  0.4920
 2064SOL    HW2 7092   1.035   3.285   6.817  0.4513 -0.6697  0.0690
 2065SOL     OW 7093   0.753   4.612   1.641  0.2419  0.2826  0.1075
 2065SOL    HW1 7094   0.696   4.604   1.559  1.0131 -2.0976 -0.2852
 2065SOL    HW2 7095   0.775   4.708   1.657  0.7056  0.7906 -2.9340
 2066SOL     OW 7096   0.286   4.984   3.005  0.0505  0.3930  0.0269
 2066SOL    HW1 7097   0.297   4.983   2.906  0.9615 -0.8545  0.1097
 2066SOL    HW2 7098   0.201   5.030   3.029  0.5455  2.0456 -1.2297
 2067SOL     OW 7099   4.423   1.784   1.041 -0.0806  0.2763  0.0115
 2067SOL    HW1 7100   4.399   1.879   1.057  2.3220  1.3038 -1.8328
 2067SOL    HW2 7101   4.496   1.757   1.105  1.7096  0.8744 -1.6806
 2068SOL     OW 7102   2.669   2.163   5.081  0.3232  0.0852 -0.4389
 2068SOL    HW1 7103   2.648   2.066   5.090  2.1389 -0.4463 -1.3951
 2068SOL    HW2 7104   2.750   2.174   5.024 -0.1057  2.2049 -0.7208
 2069SOL     OW 7105   1.566   2.125   4.308 -0.2429  0.0435 -0.3931
 2069SOL    HW1 7106   1.581   2.114   4.406  0.8307 -0.4847 -0.6051
 2069SOL    HW2 7107   1.633   2.189   4.271 -1.8854  1.8085 -0.4570
 2070SOL     OW 7108   2.189   1.874   1.283  0.2751 -0.3200  0.0173
 2070SOL    HW1 7109   2.257   1.838   1.346  1.0330 -0.2537 -0.7487
 2070SOL    HW2 7110   2.191   1.974   1.285  3.0004 -0.1510 -2.8090
 2071SOL     OW 7111   2.705   0.198   6.433  0.1471 -0.0010  0.4500
 2071SOL    HW1 7112   2.691   0.132   6.507  1.5462  1.2436  1.9041
 2071SOL    HW2 7113   2.681   0.156   6.346  1.2251 -2.5042  1.2685
 2072SOL     OW 7114   6.046   3.393   1.622  0.7264  0.4755  0.0660
 2072SOL    HW1 7115   6.122   3.414   1.683  3.0954 -2.2500 -1.7126
 2072SOL    HW2 7116   6.058   3.441   1.535 -0.1628  0.7828  0.0960
 2073SOL     OW 7117   1.817   5.422   4.761  0.0480 -0.0672  0.0867
 2073SOL    HW1 7118   1.904   5.376   4.776  0.3161 -0.4499 -2.3651
 2073SOL    HW2 7119   1.833   5.515   4.729 -0.4969  0.4963  1.3589
 2074SOL     OW 7120   4.483   1.432   3.471 -0.2054  0.2331  0.4750
 2074SOL    HW1 7121   4.539   1.401   3.394 -0.7661  0.8796 -0.2019
 2074SOL    HW2 7122   4.535   1.419   3.556  1.1983  1.3174 -0.1775
 2075SOL     OW 7123   4.904   3.767   6.844  0.0302 -0.3744  0.2348
 2075SOL    HW1 7124   4.847   3.690   6.817  0.0942 -1.2642  2.4461
 2075SOL    HW2 7125   4.997   3.735   6.862  0.0002  0.1517  1.4066
 2076SOL     OW 7126   4.976   0.586   6.855  0.6285 -0.1125 -0.3415
 2076SOL    HW1 7127   5.048   0.533   6.810 -0.1679 -0.2731 -1.4634
 2076SOL    HW2 7128   4.887   0.558   6.820  0.0917  0.9735  0.1024
 2077SOL     OW 7129   3.956   0.861   6.337  0.3279  0.5429  0.3023
 2077SOL    HW1 7130   3.948   0.935   6.404  0.8325  1.2187 -0.3652
 2077SOL    HW2 7131   3.920   0.893   6.249  0.0787 -0.1864  0.1365
 2078SOL     OW 7132   2.780   5.520   4.476  0.2567 -0.1421 -0.0184
 2078SOL    HW1 7133   2.879   5.538   4.482  0.3037 -0.5658  0.5255
 2078SOL    HW2 7134   2.745   5.558   4.390  0.5902  1.4447  0.5044
 2079SOL     OW 7135   6.100   5.794   3.572 -0.1454 -0.4077  0.0354
 2079SOL    HW1 7136   6.132   5.712   3.619  0.7779  0.7622  1.5181
 2079SOL    HW2 7137   6.178   5.854   3.553 -0.7431 -0.0525 -1.4405
 2080SOL     OW 7138   4.057   6.806   2.747 -0.1268  0.1030  0.4265
 2080SOL    HW1 7139   4.018   6.772   2.662 -0.5480  0.4299  0.4842
 2080SOL    HW2 7140   4.067   6.730   2.812 -0.5145 -0.0143  0.3525
 2081SOL     OW 7141   0.543   5.562   4.700 -0.0405 -0.2233 -0.0047
 2081SOL    HW1 7142   0.515   5.629   4.769  1.5095 -0.0150  0.4418
 2081SOL    HW2 7143   0.462   5.534   4.647 -1.0968  0.2874  1.2769
 2082SOL     OW 7144   5.735   6.660   2.978 -0.3540 -0.2667  0.4060
 2082SOL    HW1 7145   5.701   6.566   2.980 -0.1923 -0.3181  1.1505
 2082SOL    HW2 7146   5.668   6.720   3.021 -0.0785 -0.1777  0.7202
 2083SOL     OW 7147   3.902   3.319   6.708 -0.0179  0.7546 -0.1465
 2083SOL    HW1 7148   3.809   3.352   6.695 -0.1956  0.4535  0.2992
 2083SOL    HW2 7149   3.901   3.241   6.772  0.5853  1.0194  0.1987
 2084SOL     OW 7150   6.210   2.152   2.168  0.2393 -0.0086  0.1012
 2084SOL    HW1 7151   6.162   2.065   2.153  1.0182 -0.5665  0.6900
 2084SOL    HW2 7152   6.166   2.224   2.115 -2.1891 -0.1500  1.7732
 2085SOL     OW 7153   5.942   1.160   5.898 -0.3657  0.1488  0.1168
 2085SOL    HW1 7154   5.857   1.140   5.849  0.6774  0.3913 -1.9478
 2085SOL    HW2 7155   5.922   1.208   5.983 -2.3903 -1.6386  0.7478
 2086SOL     OW 7156   4.952   6.801   5.773 -0.6570  0.7804 -0.0185
 2086SOL    HW1 7157   5.010   6.765   5.700 -0.1108  0.2502  0.6630
 2086SOL    HW2 7158   5.004   6.865   5.829 -0.3291 -0.5822  1.3086
 2087SOL     OW 7159   0.238   4.938   3.444 -0.1753  0.6618  0.3592
 2087SOL    HW1 7160   0.335   4.950   3.420 -0.1085  0.4699  0.5307
 2087SOL    HW2 7161   0.231   4.910   3.540 -0.3357 -0.4618  0.0334
 2088SOL     OW 7162   1.950   6.126   2.508  0.0551  0.3474 -0.3978
 2088SOL    HW1 7163   1.979   6.180   2.588  0.4213 -1.2770  0.6166
 2088SOL    HW2 7164   1.859   6.089   2.525  0.5518 -0.8464 -0.2856
 2089SOL     OW 7165   3.440   0.572   0.572 -0.5160  0.0128 -0.0583
 2089SOL    HW1 7166   3.478   0.643   0.513 -0.0424 -0.0311  0.1920
 2089SOL    HW2 7167   3.501   0.557   0.650 -0.5171 -0.7988 -0.2050
 2090SOL     OW 7168   3.266   3.500   3.494  0.1396 -0.6639  0.1291
 2090SOL    HW1 7169   3.304   3.540   3.411  0.4424  1.1277  1.0737
 2090SOL    HW2 7170   3.340   3.483   3.560 -0.1450 -1.6686  0.2068
 2091SOL     OW 7171   3.846   3.506   1.763  0.4012 -0.4050  0.0835
 2091SOL    HW1 7172   3.933   3.458   1.750 -0.4679 -1.9950 -0.0743
 2091SOL    HW2 7173   3.791   3.459   1.831 -1.0503 -0.4409 -1.0589
 2092SOL     OW 7174   5.101   6.990   0.636 -0.9795  0.0595  0.0592
 2092SOL    HW1 7175   5.188   6.947   0.611 -0.7675 -0.1164  1.0614
 2092SOL    HW2 7176   5.029   6.957   0.575 -0.9580 -2.2345  1.1743
 2093SOL     OW 7177   1.526   1.863   1.828 -0.3267 -0.2519  0.1083
 2093SOL    HW1 7178   1.463   1.785   1.833  0.6887 -1.0201  1.7042
 2093SOL    HW2 7179   1.474   1.947   1.814 -1.5800 -1.0201  0.0071
 2094SOL     OW 7180   5.845   1.026   0.938 -0.6434  0.5776 -0.2307
 2094SOL    HW1 7181   5.814   0.982   1.023 -2.6825  0.3611 -1.0401
 2094SOL    HW2 7182   5.929   0.982   0.908  1.0752  1.7090  2.4827
 2095SOL     OW 7183   5.274   2.666   3.879 -0.2063 -0.2350 -0.2673
 2095SOL    HW1 7184   5.359   2.623   3.852 -0.4296 -0.2980 -0.8804
 2095SOL    HW2 7185   5.282   2.766   3.868 -0.1205 -0.2186 -0.0605
 2096SOL     OW 7186   5.451   3.811   3.497 -0.1512 -0.6985 -0.2144
 2096SOL    HW1 7187   5.355   3.840   3.494 -0.1142  0.0857  3.1328
 2096SOL    HW2 7188   5.456   3.711   3.491 -0.8184 -0.6560 -3.8217
 2097SOL     OW 7189   5.451   2.900   4.893  0.1667  0.0543 -0.1194
 2097SOL    HW1 7190   5.487   2.914   4.985  1.0339 -0.8233 -0.3072
 2097SOL    HW2 7191   5.413   2.985   4.859 -0.2639  0.3694  1.0868
 2098SOL     OW 7192   4.070   5.536   3.485 -0.3505 -0.5512  0.2740
 2098SOL    HW1 7193   4.145   5.488   3.439  0.2077  0.2715  0.3116
 2098SOL    HW2 7194   3.987   5.530   3.429 -0.3233 -1.6416  0.3311
 2099SOL     OW 7195   3.687   1.418   4.249  0.3727  0.4431 -0.3653
 2099SOL    HW1 7196   3.673   1.436   4.152  1.1359 -0.8840 -0.7534
 2099SOL    HW2 7197   3.783   1.436   4.273  0.8824 -1.7630 -0.5180
 2100SOL     OW 7198   5.746   5.713   6.666  0.0198  0.0876 -0.5124
 2100SOL    HW1 7199   5.806   5.676   6.595  1.1290 -0.8062  0.8423
 2100SOL    HW2 7200   5.673   5.648   6.685  1.4936 -1.1434  1.2816
 2101SOL     OW 7201   0.215   0.581   1.895 -0.3826 -0.7355 -0.0816
 2101SOL    HW1 7202   0.309   0.557   1.870  0.1540 -0.2155  1.3402
 2101SOL    HW2 7203   0.160   0.591   1.812  1.1379  0.2846 -1.0193
 2102SOL     OW 7204   0.612   6.752   6.637 -0.4174 -0.3485  0.4643
 2102SOL    HW1 7205   0.658   6.671   6.600 -1.5713 -0.5920 -0.4958
 2102SOL    HW2 7206   0.606   6.821   6.566 -1.4232 -0.2806  0.6102
 2103SOL     OW 7207   4.773   3.628   5.814 -0.3128 -0.4359  0.3496
 2103SOL    HW1 7208   4.803   3.641   5.909  0.0754  0.5831  0.1063
 2103SOL    HW2 7209   4.809   3.542   5.779  1.5403  0.2934  0.3834
 2104SOL     OW 7210   0.041   3.683   5.650 -0.3570  0.3059  0.2413
 2104SOL    HW1 7211   0.081   3.753   5.710  0.5805  0.2408 -0.2825
 2104SOL    HW2 7212  -0.054   3.666   5.677 -0.2445  0.9567  1.0967
 2105SOL     OW 7213   5.136   6.050   1.080 -0.4900  0.0995 -0.5522
 2105SOL    HW1 7214   5.200   6.109   1.031  0.9277 -0.6119  0.3936
 2105SOL    HW2 7215   5.118   6.088   1.171  0.9653 -1.2097  0.3262
 2106SOL     OW 7216   5.779   1.604   0.544  0.1350 -0.2911 -0.1322
 2106SOL    HW1 7217   5.862   1.611   0.489  0.3829  0.0809  0.2848
 2106SOL    HW2 7218   5.702   1.576   0.485  0.6201 -0.9659 -0.4525
 2107SOL     OW 7219   3.276   6.713   1.581  0.1017 -0.2614 -0.2807
 2107SOL    HW1 7220   3.235   6.624   1.564 -1.6396  0.4245  0.1208
 2107SOL    HW2 7221   3.229   6.783   1.527  0.7297  0.5763  0.2148
 2108SOL     OW 7222   6.705   5.267   5.659  0.7427  0.0170 -0.0202
 2108SOL    HW1 7223   6.682   5.313   5.573  0.5708  1.9260  0.9795
 2108SOL    HW2 7224   6.656   5.180   5.665  0.4536  0.0345 -1.6576
 2109SOL     OW 7225   5.214   5.924   3.196 -0.1473  0.1250 -0.1194
 2109SOL    HW1 7226   5.248   6.017   3.201 -0.4975  0.2534 -0.0855
 2109SOL    HW2 7227   5.231   5.887   3.104  2.2275 -0.6543  0.5620
 2110SOL     OW 7228   2.474   6.311   6.305  0.1847  0.0955  0.1520
 2110SOL    HW1 7229   2.522   6.225   6.322  0.1598  0.0536  0.0112
 2110SOL    HW2 7230   2.376   6.299   6.326  0.3458  0.3880  1.1467
 2111SOL     OW 7231   2.155   1.775   6.823 -0.4864 -0.7798 -0.6004
 2111SOL    HW1 7232   2.226   1.722   6.869 -0.4904 -1.7129 -1.6217
 2111SOL    HW2 7233   2.066   1.757   6.865 -0.2570 -0.2832  0.1176
 2112SOL     OW 7234   5.889   5.607   6.447  0.4170  0.1684 -0.0184
 2112SOL    HW1 7235   5.894   5.638   6.352 -0.1438  1.5597  0.3776
 2112SOL    HW2 7236   5.958   5.537   6.464  1.0761  0.5129 -1.2318
 2113SOL     OW 7237   0.123   1.080   4.505  0.7945  0.4001  0.5307
 2113SOL    HW1 7238   0.131   1.081   4.405  1.0668 -0.0443  0.5493
 2113SOL    HW2 7239   0.214   1.079   4.546  0.6751 -0.1788  0.7766
 2114SOL     OW 7240   2.364   3.485   6.927 -0.0619 -0.8662 -0.5983
 2114SOL    HW1 7241   2.444   3.452   6.977 -0.0524  0.2267  0.1430
 2114SOL    HW2 7242   2.342   3.577   6.957  0.3018  0.0874 -3.0511
 2115SOL     OW 7243   4.168   4.679   1.981  0.3459  0.2601  0.0223
 2115SOL    HW1 7244   4.226   4.746   1.935 -0.3658  1.6074  1.0148
 2115SOL    HW2 7245   4.074   4.713   1.984 -0.6388 -1.9882 -1.8024
 2116SOL     OW 7246   0.867   3.943   4.226  0.1047 -0.3488  0.4979
 2116SOL    HW1 7247   0.925   3.867   4.255 -1.0410 -1.7902 -0.8174
 2116SOL    HW2 7248   0.801   3.964   4.298  0.1789 -0.8665  0.7237
 2117SOL     OW 7249   6.945   5.869   0.002 -0.2890 -0.4710 -0.1879
 2117SOL    HW1 7250   6.973   5.852   0.097 -0.4991  2.8451  0.5874
 2117SOL    HW2 7251   7.026   5.889  -0.053 -0.3812  1.2724  0.2312
 2118SOL     OW 7252   2.062   2.990   2.231  0.4233 -0.3901 -0.6102
 2118SOL    HW1 7253   2.133   2.940   2.281 -0.8969 -0.1460  1.6743
 2118SOL    HW2 7254   2.097   3.078   2.201  1.0437 -0.1585  0.7274
 2119SOL     OW 7255   2.746   1.739   6.876 -0.3175  0.0857 -0.5677
 2119SOL    HW1 7256   2.660   1.775   6.913  0.4341  1.0070  0.3235
 2119SOL    HW2 7257   2.754   1.642   6.900 -0.0692  0.5377  1.3668
 2120SOL     OW 7258   5.966   2.738   3.308 -0.5851 -0.3678 -0.3505
 2120SOL    HW1 7259   5.960   2.648   3.351 -1.4574 -0.3502 -0.4127
 2120SOL    HW2 7260   6.058   2.776   3.321 -0.5083 -0.8432  0.5265
 2121SOL     OW 7261   0.563   3.045   4.156 -0.1470  0.1126  0.9265
 2121SOL    HW1 7262   0.651   3.000   4.142 -0.7435 -0.5817 -0.8936
 2121SOL    HW2 7263   0.568   3.139   4.121  0.2176  0.5006  1.9836
 2122SOL     OW 7264   4.354   5.914   4.151  0.4646  0.7395  0.0932
 2122SOL    HW1 7265   4.377   5.841   4.216  0.3175  1.3904  0.8999
 2122SOL    HW2 7266   4.355   5.878   4.058 -1.7330 -0.8589  0.6088
 2123SOL     OW 7267   5.448   5.623   4.718  0.3062  0.5132 -0.1100
 2123SOL    HW1 7268   5.448   5.652   4.622 -1.7182  1.0647  0.0133
 2123SOL    HW2 7269   5.488   5.695   4.774  2.4097 -0.2104 -0.5987
 2124SOL     OW 7270   3.406   2.566   6.868 -0.6553  0.2824  0.7369
 2124SOL    HW1 7271   3.480   2.568   6.935 -0.4391  0.1339  0.5020
 2124SOL    HW2 7272   3.341   2.493   6.892  0.8664 -1.6768 -0.7422
 2125SOL     OW 7273   5.261   0.329   0.079  0.3055  0.5547 -0.0381
 2125SOL    HW1 7274   5.209   0.284   0.006 -0.3759 -0.6331  1.1330
 2125SOL    HW2 7275   5.203   0.396   0.125  0.6684  1.1465 -0.4243
 2126SOL     OW 7276   2.060   1.956   2.597  0.3165  0.1980  0.0651
 2126SOL    HW1 7277   2.087   1.991   2.686  0.0668  1.4176 -0.3138
 2126SOL    HW2 7278   2.049   2.032   2.533  2.7565 -0.7249 -1.6578
 2127SOL     OW 7279   5.023   2.531   4.426 -0.1898 -0.7917  0.0678
 2127SOL    HW1 7280   4.990   2.463   4.492 -0.6467 -1.1120 -0.4791
 2127SOL    HW2 7281   5.077   2.600   4.473 -2.1377  0.0832  1.1221
 2128SOL     OW 7282   1.338   3.817   3.368  0.4374  0.1325 -0.4896
 2128SOL    HW1 7283   1.423   3.797   3.416  0.4262  1.2127  0.0147
 2128SOL    HW2 7284   1.263   3.768   3.413  0.5996  0.2156 -0.1194
 2129SOL     OW 7285   3.706   3.106   6.107 -0.3037  0.2383 -0.2827
 2129SOL    HW1 7286   3.761   3.026   6.084  1.1378  0.8181  1.0173
 2129SOL    HW2 7287   3.626   3.077   6.160  0.2211 -0.3509  0.2003
 2130SOL     OW 7288   5.489   6.425   3.442  0.2526 -0.3302 -0.0716
 2130SOL    HW1 7289   5.436   6.362   3.386 -0.9129 -0.6269  1.2978
 2130SOL    HW2 7290   5.449   6.516   3.438  0.8661 -0.0770 -0.6295
 2131SOL     OW 7291   5.249   1.520   6.412  0.0421 -0.1987  0.1023
 2131SOL    HW1 7292   5.293   1.507   6.323 -0.0747 -1.4438  0.2134
 2131SOL    HW2 7293   5.217   1.432   6.447 -0.2372  0.3284  1.2180
 2132SOL     OW 7294   6.154   3.829   1.569  0.2703 -0.2560 -0.0119
 2132SOL    HW1 7295   6.126   3.763   1.498  0.6398  0.0885 -0.4856
 2132SOL    HW2 7296   6.105   3.809   1.654 -1.4656  0.3571 -0.8276
 2133SOL     OW 7297   1.885   4.043   4.003  0.1329 -0.2469 -0.7334
 2133SOL    HW1 7298   1.883   4.033   3.903  1.3774  1.4396 -0.9641
 2133SOL    HW2 7299   1.962   4.100   4.029 -0.1338 -0.7224  1.2294
 2134SOL     OW 7300   0.010   6.639   0.783 -0.6309 -0.2381 -0.1295
 2134SOL    HW1 7301  -0.055   6.626   0.858 -0.7638  1.7452  0.1421
 2134SOL    HW2 7302  -0.028   6.705   0.717  0.6595  0.1545 -0.5072
 2135SOL     OW 7303   5.274   6.446   5.252  0.3382  0.3344 -0.3495
 2135SOL    HW1 7304   5.207   6.447   5.178  0.8073  1.7858 -0.7874
 2135SOL    HW2 7305   5.229   6.423   5.338 -0.6100  0.7053 -0.7363
 2136SOL     OW 7306   1.458   5.244   0.693  0.7250  0.4657  0.3850
 2136SOL    HW1 7307   1.413   5.275   0.777  0.0150  0.1192  0.1390
 2136SOL    HW2 7308   1.465   5.321   0.630 -2.8878 -0.1925 -1.0440
 2137SOL     OW 7309   2.371   5.184   2.781  0.2414 -0.1329 -0.1395
 2137SOL    HW1 7310   2.408   5.273   2.807 -0.2742 -0.3102  1.3189
 2137SOL    HW2 7311   2.280   5.195   2.741 -0.2938 -0.0649  1.0620
 2138SOL     OW 7312   6.770   0.623   3.204  0.0589  0.4218  0.5082
 2138SOL    HW1 7313   6.863   0.606   3.171 -0.2834  1.1337 -0.8950
 2138SOL    HW2 7314   6.729   0.696   3.150 -1.4089 -0.0363  0.9794
 2139SOL     OW 7315   2.898   5.832   4.522  0.1692 -0.2020  0.3389
 2139SOL    HW1 7316   2.888   5.927   4.551 -1.6763  0.1686 -1.3180
 2139SOL    HW2 7317   2.937   5.779   4.597  0.7210  1.7272  1.4956
 2140SOL     OW 7318   1.789   2.739   4.761 -0.4416  0.5731 -0.4433
 2140SOL    HW1 7319   1.703   2.759   4.714 -2.9766 -2.0073  2.5893
 2140SOL    HW2 7320   1.829   2.655   4.724 -0.9346  0.0843  0.1065
 2141SOL     OW 7321   1.117   2.508   3.801  0.4390 -0.6423 -0.1084
 2141SOL    HW1 7322   1.122   2.431   3.864 -0.1779  0.2976  1.1428
 2141SOL    HW2 7323   1.209   2.544   3.786  0.7149 -1.5345 -0.6042
 2142SOL     OW 7324   1.527   1.198   3.897 -0.6529 -0.0468 -0.0525
 2142SOL    HW1 7325   1.587   1.123   3.868 -0.4931 -0.2175  0.7119
 2142SOL    HW2 7326   1.578   1.284   3.897 -0.2568 -0.2676  1.0737
 2143SOL     OW 7327   6.148   5.486   5.591 -0.0966  0.4095  0.0730
 2143SOL    HW1 7328   6.092   5.465   5.671 -1.1982 -1.4556 -1.1078
 2143SOL    HW2 7329   6.237   5.441   5.600  0.4547  1.6409  0.9996
 2144SOL     OW 7330   6.432   3.816   2.495 -0.1908 -0.2972  0.1657
 2144SOL    HW1 7331   6.436   3.907   2.454 -0.1824 -0.0636  0.6720
 2144SOL    HW2 7332   6.506   3.807   2.562  1.5582 -1.6622 -1.8139
 2145SOL     OW 7333   1.781   2.271   4.154 -0.1028  0.1849 -0.0693
 2145SOL    HW1 7334   1.863   2.214   4.161 -1.1867 -1.4511 -0.1915
 2145SOL    HW2 7335   1.753   2.277   4.058  1.3486  3.0006 -0.4254
 2146SOL     OW 7336   1.725   2.333   0.053 -0.0080 -0.6587 -0.3394
 2146SOL    HW1 7337   1.824   2.327   0.042  0.1495 -2.2422  1.3404
 2146SOL    HW2 7338   1.704   2.403   0.121  0.0708 -1.0686  0.1210
 2147SOL     OW 7339   6.199   0.393   3.143 -0.0335 -0.1096  0.4099
 2147SOL    HW1 7340   6.178   0.439   3.229  1.2527  2.3675 -0.5100
 2147SOL    HW2 7341   6.117   0.391   3.085 -1.5962 -3.8597  2.4090
 2148SOL     OW 7342   3.292   3.600   5.738 -0.6131 -0.2198 -0.0060
 2148SOL    HW1 7343   3.232   3.677   5.716  0.3200  0.3417 -0.6230
 2148SOL    HW2 7344   3.357   3.626   5.809 -0.7735 -0.6773  0.3170
 2149SOL     OW 7345   0.740   0.389   6.673  0.7077 -0.7712  0.5784
 2149SOL    HW1 7346   0.736   0.300   6.717  1.0326 -0.7996  0.5593
 2149SOL    HW2 7347   0.798   0.383   6.591 -0.4550 -0.8877 -0.2609
 2150SOL     OW 7348   1.780   1.525   6.707 -0.4767 -0.1366  0.3061
 2150SOL    HW1 7349   1.774   1.427   6.687  1.9975 -0.0525 -1.2620
 2150SOL    HW2 7350   1.746   1.542   6.799 -0.2898 -2.5929  0.9001
 2151SOL     OW 7351   6.986   5.413   5.823  0.4152  0.3848 -0.2529
 2151SOL    HW1 7352   6.997   5.364   5.909  1.3958 -2.0446 -1.6491
 2151SOL    HW2 7353   6.893   5.449   5.815 -0.0445 -0.4276  1.2616
 2152SOL     OW 7354   5.126   0.272   4.892  0.0627  0.6731  0.0468
 2152SOL    HW1 7355   5.114   0.270   4.991 -1.9635  0.9500 -0.1384
 2152SOL    HW2 7356   5.132   0.178   4.857 -1.5490  0.4715  0.2399
 2153SOL     OW 7357   4.680   6.139   3.880  0.5631 -0.1620  0.0512
 2153SOL    HW1 7358   4.741   6.137   3.801  2.1941  0.1836  1.2674
 2153SOL    HW2 7359   4.719   6.085   3.954  0.5782  1.9906  1.6887
 2154SOL     OW 7360   1.822   0.184   1.355 -0.0764 -0.3088 -0.6087
 2154SOL    HW1 7361   1.844   0.247   1.430  2.0999 -0.2299 -1.2267
 2154SOL    HW2 7362   1.797   0.095   1.393  0.5761 -0.1501  0.2307
 2155SOL     OW 7363   3.606   1.272   2.314 -0.2110  0.5360  0.4882
 2155SOL    HW1 7364   3.650   1.351   2.359  0.5085 -0.6856  2.0292
 2155SOL    HW2 7365   3.509   1.290   2.303  0.1517  2.1626 -0.3964
 2156SOL     OW 7366   5.458   0.977   4.189 -0.0008 -0.3459 -0.1176
 2156SOL    HW1 7367   5.443   0.885   4.153  3.0300 -0.5225 -1.2273
 2156SOL    HW2 7368   5.461   0.974   4.289 -0.9696 -1.2280 -0.0985
 2157SOL     OW 7369   3.980   6.533   2.899 -0.1975 -0.1444 -0.3014
 2157SOL    HW1 7370   4.022   6.463   2.842 -1.2100 -0.4260 -0.7295
 2157SOL    HW2 7371   3.888   6.553   2.865 -0.8379 -0.3302  1.2500
 2158SOL     OW 7372   2.958   0.045   0.988 -0.6572  1.0852  0.0077
 2158SOL    HW1 7373   2.876   0.014   0.940 -0.0882  0.4613 -0.5866
 2158SOL    HW2 7374   3.036  -0.013   0.963 -0.1951  1.1737  1.1622
 2159SOL     OW 7375   1.729   2.521   0.239  0.4934  0.1957 -0.2275
 2159SOL    HW1 7376   1.631   2.519   0.257  0.6039  0.4245  0.4237
 2159SOL    HW2 7377   1.778   2.553   0.320  1.1782 -0.6894 -0.2740
 2160SOL     OW 7378   4.499   6.241   6.959  0.7067  0.0931 -0.3370
 2160SOL    HW1 7379   4.513   6.315   6.894  0.2782 -1.4601 -2.3007
 2160SOL    HW2 7380   4.401   6.226   6.971  0.7831 -0.6970 -0.6432
 2161SOL     OW 7381   0.632   3.550   0.747 -0.0068 -0.2387 -0.4028
 2161SOL    HW1 7382   0.601   3.627   0.803 -1.1804 -1.1493  0.2829
 2161SOL    HW2 7383   0.718   3.514   0.784 -0.8978 -0.9963  1.0651
 2162SOL     OW 7384   2.836   1.813   0.325 -0.1171  0.4638  0.4466
 2162SOL    HW1 7385   2.823   1.723   0.283 -0.3452  0.6680  0.0746
 2162SOL    HW2 7386   2.750   1.843   0.366 -0.9147  1.8181 -2.0219
 2163SOL     OW 7387   2.091   2.339   4.906 -0.4416  0.2131 -0.5224
 2163SOL    HW1 7388   2.062   2.347   5.002  0.4110  0.2436 -0.2542
 2163SOL    HW2 7389   2.094   2.429   4.865  1.3399  0.4762  0.0983
 2164SOL     OW 7390   0.902   3.553   2.265 -0.0107 -0.5426 -0.2936
 2164SOL    HW1 7391   0.939   3.475   2.214  0.0755  0.5901 -2.0209
 2164SOL    HW2 7392   0.930   3.638   2.221 -0.6827  0.4707  1.1656
 2165SOL     OW 7393   0.232   1.482   6.358  0.4474 -0.9767 -0.3270
 2165SOL    HW1 7394   0.254   1.429   6.276  0.2287  0.0106 -1.0381
 2165SOL    HW2 7395   0.316   1.513   6.401  0.5616  0.3173 -1.4030
 2166SOL     OW 7396   5.120   2.121   2.364  0.1857 -0.1749 -0.3240
 2166SOL    HW1 7397   5.101   2.197   2.426  0.0921 -0.0123 -0.5486
 2166SOL    HW2 7398   5.131   2.036   2.416 -2.1454 -0.4884 -0.2208
 2167SOL     OW 7399   2.730   1.651   2.477 -0.4353  0.4346 -0.6093
 2167SOL    HW1 7400   2.806   1.677   2.536  0.5219 -0.7041 -1.2857
 2167SOL    HW2 7401   2.708   1.726   2.416  0.7276  0.5010 -0.9762
 2168SOL     OW 7402   0.571   2.844   2.822  0.2468 -0.0906 -0.4469
 2168SOL    HW1 7403   0.614   2.888   2.744  0.1834  1.0147  0.1265
 2168SOL    HW2 7404   0.472   2.862   2.820  0.1909 -0.3840 -0.3227
 2169SOL     OW 7405   6.520   1.727   0.269  0.2475  0.2588 -0.4533
 2169SOL    HW1 7406   6.466   1.738   0.186 -0.0354 -0.5431 -0.3863
 2169SOL    HW2 7407   6.471   1.669   0.334 -0.1280  1.9414  0.8381
 2170SOL     OW 7408   3.166   2.070   6.903  0.3238  0.1010 -0.1549
 2170SOL    HW1 7409   3.208   1.986   6.866  0.5135 -0.7212  1.8001
 2170SOL    HW2 7410   3.072   2.051   6.930  0.5852  0.2835  0.9630
 2171SOL     OW 7411   6.694   1.079   1.266 -0.1603  0.3667 -0.2816
 2171SOL    HW1 7412   6.604   1.067   1.224  0.0937 -0.6093 -0.5587
 2171SOL    HW2 7413   6.684   1.082   1.365 -0.3969 -0.7460 -0.2648
 2172SOL     OW 7414   1.725   1.083   6.089 -0.6095  0.8470  0.4521
 2172SOL    HW1 7415   1.749   1.069   5.993  0.9618  1.9509  0.6469
 2172SOL    HW2 7416   1.761   1.007   6.143  0.5117  1.3519  0.4405
 2173SOL     OW 7417   3.586   1.179   4.873 -0.8351 -0.1197 -0.4773
 2173SOL    HW1 7418   3.488   1.159   4.876 -0.8652 -0.0558 -0.9608
 2173SOL    HW2 7419   3.630   1.120   4.804 -0.2596 -1.2842  0.8284
 2174SOL     OW 7420   5.794   1.433   4.411  0.2390  0.2531 -0.2399
 2174SOL    HW1 7421   5.697   1.418   4.391  0.1944  3.3112 -3.0562
 2174SOL    HW2 7422   5.849   1.382   4.345  0.4925  0.3338 -0.0896
 2175SOL     OW 7423   2.735   3.195   6.500  0.4934  0.1925  0.0262
 2175SOL    HW1 7424   2.637   3.180   6.494  0.0347  2.7053  0.1391
 2175SOL    HW2 7425   2.784   3.113   6.472 -1.6144 -1.4765  1.0400
 2176SOL     OW 7426   6.599   0.782   4.183 -0.5489 -0.5966  0.0392
 2176SOL    HW1 7427   6.661   0.758   4.257  1.0615  0.7149 -0.8213
 2176SOL    HW2 7428   6.600   0.710   4.114 -0.5667 -0.9179  0.3696
 2177SOL     OW 7429   1.803   0.193   4.118  0.6007  0.2903 -0.0570
 2177SOL    HW1 7430   1.726   0.256   4.108 -0.5312 -1.3838 -2.9129
 2177SOL    HW2 7431   1.791   0.138   4.201 -1.5461 -0.2381 -0.6699
 2178SOL     OW 7432   1.564   3.540   1.950 -0.0063 -0.5089 -0.0816
 2178SOL    HW1 7433   1.480   3.587   1.923 -1.0012 -3.1265 -1.9206
 2178SOL    HW2 7434   1.542   3.468   2.016  1.0610 -0.2779  0.5645
 2179SOL     OW 7435   1.470   3.577   0.271  0.6788  0.5656  0.0818
 2179SOL    HW1 7436   1.479   3.487   0.315 -3.1595 -0.8139 -1.4911
 2179SOL    HW2 7437   1.402   3.631   0.320  1.2488  1.6981 -0.3436
 2180SOL     OW 7438   1.523   3.515   2.433  0.3033 -0.0182 -0.0576
 2180SOL    HW1 7439   1.601   3.511   2.370  1.1280 -0.8007  0.9757
 2180SOL    HW2 7440   1.468   3.431   2.422  1.0017 -0.6204  0.9312
 2181SOL     OW 7441   6.388   4.932   3.207 -0.4422 -0.3183 -0.3786
 2181SOL    HW1 7442   6.322   5.007   3.202 -1.0680 -0.9032 -1.0613
 2181SOL    HW2 7443   6.427   4.928   3.300  1.3556  2.2892 -0.9335
 2182SOL     OW 7444   0.046   0.247   6.541 -0.4306 -0.5010  0.8035
 2182SOL    HW1 7445  -0.028   0.255   6.608  0.0979 -0.9451  1.4478
 2182SOL    HW2 7446   0.065   0.337   6.502 -0.6243 -0.1999  1.3798
 2183SOL     OW 7447   3.630   2.721   1.798  0.2463  0.1829  0.3511
 2183SOL    HW1 7448   3.581   2.754   1.878  0.8204  0.0407  0.7725
 2183SOL    HW2 7449   3.579   2.646   1.755 -0.0993  0.3116  0.5389
 2184SOL     OW 7450   6.598   1.191   0.902  0.3056  0.1953 -0.5472
 2184SOL    HW1 7451   6.631   1.267   0.845  0.3301 -0.2702 -1.1585
 2184SOL    HW2 7452   6.671   1.124   0.912 -0.1806 -0.4474 -1.2271
 2185SOL     OW 7453   0.059   1.811   4.665 -0.3077  0.6082 -0.1695
 2185SOL    HW1 7454   0.077   1.718   4.634 -2.0540  0.8888 -2.3315
 2185SOL    HW2 7455   0.003   1.809   4.748 -0.9373 -0.2911 -0.6005
 2186SOL     OW 7456   0.415   6.234   4.196 -0.3556 -0.2965  0.1742
 2186SOL    HW1 7457   0.333   6.189   4.230  0.5344 -0.5638  2.1094
 2186SOL    HW2 7458   0.479   6.249   4.271  0.7176  1.3546 -0.9806
 2187SOL     OW 7459   6.621   3.289   1.645  0.5060  0.0645  0.0068
 2187SOL    HW1 7460   6.708   3.243   1.659  0.0093 -0.4940  1.5381
 2187SOL    HW2 7461   6.550   3.243   1.700 -0.7764  0.4363 -1.2679
 2188SOL     OW 7462   3.629   0.947   1.091 -0.1742  0.0084  1.0625
 2188SOL    HW1 7463   3.603   0.947   1.187 -0.5536  0.8439  0.9715
 2188SOL    HW2 7464   3.551   0.921   1.035 -0.1200  0.1072  0.9418
 2189SOL     OW 7465   1.966   1.578   2.386  0.0927 -0.1459 -0.0152
 2189SOL    HW1 7466   1.904   1.655   2.373  0.8228  0.2852 -1.0764
 2189SOL    HW2 7467   1.986   1.535   2.297  1.2198 -0.3391  0.3139
 2190SOL     OW 7468   5.929   4.951   2.673 -0.5144 -0.1109 -0.3190
 2190SOL    HW1 7469   5.987   5.033   2.668 -0.4553 -0.1516 -0.3004
 2190SOL    HW2 7470   5.946   4.904   2.759 -1.9678  0.9246  0.5764
 2191SOL     OW 7471   4.202   1.658   6.642  0.1065  0.1024 -0.6194
 2191SOL    HW1 7472   4.137   1.719   6.597  0.1047 -0.2777 -1.1425
 2191SOL    HW2 7473   4.294   1.678   6.610  0.2777  0.7256  0.2152
 2192SOL     OW 7474   4.041   1.368   1.336 -0.3648  0.3630  0.2942
 2192SOL    HW1 7475   4.054   1.466   1.325  0.0741  0.2266 -0.4672
 2192SOL    HW2 7476   3.985   1.333   1.261  0.6334 -0.1906 -0.2071
 2193SOL     OW 7477   1.184   0.335   6.669 -0.1206  0.7597 -0.3384
 2193SOL    HW1 7478   1.273   0.290   6.661 -0.8850 -1.0303  0.7327
 2193SOL    HW2 7479   1.145   0.316   6.758 -1.7386  1.2514 -0.9094
 2194SOL     OW 7480   6.536   5.073   3.721 -0.2207  0.2565 -0.0979
 2194SOL    HW1 7481   6.606   5.130   3.679 -1.4222  0.4437 -1.9930
 2194SOL    HW2 7482   6.462   5.131   3.755 -0.5987 -0.0599 -0.3693
 2195SOL     OW 7483   6.327   4.843   4.798  0.1928  0.4550 -0.0642
 2195SOL    HW1 7484   6.243   4.874   4.844 -0.9491 -0.6796 -1.2853
 2195SOL    HW2 7485   6.402   4.905   4.819 -0.8612  1.2846  1.3838
 2196SOL     OW 7486   4.795   2.639   0.412 -0.1062  0.3520  0.8120
 2196SOL    HW1 7487   4.815   2.734   0.436 -0.5844  0.7705 -0.3667
 2196SOL    HW2 7488   4.828   2.620   0.320  0.9025 -0.9471  1.4081
 2197SOL     OW 7489   3.089   5.438   5.724 -0.1991  0.1352 -0.2408
 2197SOL    HW1 7490   3.134   5.526   5.710  1.3841 -0.7820 -1.2789
 2197SOL    HW2 7491   3.003   5.452   5.773  0.5432  2.1125  0.6037
 2198SOL     OW 7492   1.242   0.455   6.022 -0.1391  0.0175  0.0611
 2198SOL    HW1 7493   1.308   0.424   5.953 -1.1508  1.1069 -1.4771
 2198SOL    HW2 7494   1.270   0.544   6.056 -0.3311  0.0737  0.0723
 2199SOL     OW 7495   3.962   6.352   2.021  0.3344  0.4651  0.0062
 2199SOL    HW1 7496   3.916   6.430   2.064  0.3688  0.5362 -0.0871
 2199SOL    HW2 7497   3.955   6.360   1.921  0.4978  0.4441 -0.0072
 2200SOL     OW 7498   2.892   1.356   5.759  0.0827 -0.3645 -0.5802
 2200SOL    HW1 7499   2.875   1.431   5.822  0.4253  0.1528 -1.0829
 2200SOL    HW2 7500   2.991   1.344   5.747  0.0330  0.1193 -1.6596
 2201SOL     OW 7501   5.610   2.104   3.780  0.2546 -0.2894 -0.4067
 2201SOL    HW1 7502   5.615   2.141   3.873  0.6195 -1.4775  0.0662
 2201SOL    HW2 7503   5.533   2.145   3.732 -0.1425  0.0960  0.5297
 2202SOL     OW 7504   4.083   0.017   3.474  0.2497 -0.3937 -0.3690
 2202SOL    HW1 7505   4.157   0.072   3.436  1.7354 -1.4556  0.8481
 2202SOL    HW2 7506   4.004   0.075   3.493  1.8428  1.4106  1.1186
 2203SOL     OW 7507   0.920   5.473   0.937  0.6995  0.0034  0.0396
 2203SOL    HW1 7508   0.855   5.536   0.894 -1.9582 -0.6817  2.7674
 2203SOL    HW2 7509   0.947   5.509   1.026 -0.7897 -2.5524  1.6141
 2204SOL     OW 7510   6.648   3.348   0.331  0.6974  0.3130 -0.4768
 2204SOL    HW1 7511   6.635   3.318   0.425 -1.3998  0.7892 -0.5771
 2204SOL    HW2 7512   6.666   3.269   0.272 -0.1763 -0.2352 -0.0200
 2205SOL     OW 7513   5.299   4.426   2.642 -0.5551 -0.5078  0.2652
 2205SOL    HW1 7514   5.242   4.489   2.590 -0.5913 -0.2705  0.5895
 2205SOL    HW2 7515   5.395   4.437   2.615 -0.5989 -0.5261  0.1062
 2206SOL     OW 7516   3.230   4.145   4.916  0.4827 -0.0053  0.5002
 2206SOL    HW1 7517   3.295   4.193   4.975 -1.0706  0.5498  1.8326
 2206SOL    HW2 7518   3.141   4.140   4.961 -0.3173 -1.1103 -1.0926
 2207SOL     OW 7519   5.359   5.873   1.848 -0.3379 -0.1885 -0.0178
 2207SOL    HW1 7520   5.325   5.956   1.891 -1.1588  0.2939 -1.5238
 2207SOL    HW2 7521   5.406   5.816   1.916  0.1715  1.4527  1.0515
 2208SOL     OW 7522   6.953   5.799   1.735 -0.2287 -0.8403 -0.2201
 2208SOL    HW1 7523   6.859   5.778   1.759  0.0371 -0.5265  1.1720
 2208SOL    HW2 7524   7.011   5.719   1.753  0.0559 -0.4340  0.7709
 2209SOL     OW 7525   1.347   0.106   4.867  0.5022 -0.7694  0.1715
 2209SOL    HW1 7526   1.436   0.138   4.900  0.9799 -1.5138 -0.3512
 2209SOL    HW2 7527   1.321   0.023   4.918 -0.4595  0.0805  1.1330
 2210SOL     OW 7528   5.909   6.834   1.867 -0.1392  0.2074 -0.3430
 2210SOL    HW1 7529   5.937   6.912   1.811 -1.1361  1.9404  1.4452
 2210SOL    HW2 7530   5.815   6.809   1.845 -0.1921  0.2405 -0.1576
 2211SOL     OW 7531   0.413   1.383   2.298  0.1181 -0.0847  0.1928
 2211SOL    HW1 7532   0.470   1.426   2.227 -1.5778 -0.1563 -1.2827
 2211SOL    HW2 7533   0.379   1.296   2.265  0.5138 -0.8579  1.7394
 2212SOL     OW 7534   3.290   6.074   0.686  0.0130  0.0526 -0.0541
 2212SOL    HW1 7535   3.312   6.104   0.593  0.0202  0.9069  0.2151
 2212SOL    HW2 7536   3.371   6.080   0.743 -0.2992  0.8222  0.3276
 2213SOL     OW 7537   4.476   2.440   4.572 -0.5629 -0.1978  0.5893
 2213SOL    HW1 7538   4.385   2.399   4.585 -0.5123 -0.8683 -0.9667
 2213SOL    HW2 7539   4.504   2.430   4.476  0.5802  1.2152  0.7389
 2214SOL     OW 7540   3.400   4.392   6.230 -0.6340  0.2024  0.3290
 2214SOL    HW1 7541   3.373   4.488   6.222 -1.3414 -0.1029 -1.4649
 2214SOL    HW2 7542   3.338   4.335   6.175  1.6166 -0.9138 -1.1974
 2215SOL     OW 7543   6.072   4.502   5.829 -0.6762 -0.8273  0.4144
 2215SOL    HW1 7544   6.022   4.445   5.763 -1.3917 -1.4846  1.4987
 2215SOL    HW2 7545   6.011   4.526   5.904  0.0977  0.0333  0.7755
 2216SOL     OW 7546   1.257   5.087   0.310 -0.2004  0.2946 -0.1281
 2216SOL    HW1 7547   1.336   5.072   0.251  0.4636 -1.0220  1.0266
 2216SOL    HW2 7548   1.278   5.055   0.403 -2.0092  0.0970  0.2566
 2217SOL     OW 7549   5.386   1.796   5.670  0.4316 -0.5265 -0.4942
 2217SOL    HW1 7550   5.390   1.889   5.633 -0.7591 -0.0856  0.4344
 2217SOL    HW2 7551   5.290   1.770   5.683  0.7872 -1.1229  1.1022
 2218SOL     OW 7552   4.471   5.414   6.415  0.1578 -0.1587 -0.0125
 2218SOL    HW1 7553   4.519   5.327   6.424 -0.2579 -0.2905  1.1125
 2218SOL    HW2 7554   4.521   5.485   6.465 -0.9716 -0.3841  1.5316
 2219SOL     OW 7555   5.260   2.109   6.983 -0.2646  0.0532  0.3491
 2219SOL    HW1 7556   5.161   2.106   6.970 -0.2493  1.9087 -0.4192
 2219SOL    HW2 7557   5.294   2.201   6.963  1.4193 -0.1196  2.1029
 2220SOL     OW 7558   2.517   1.253   4.627 -0.6448  0.3392  0.3657
 2220SOL    HW1 7559   2.570   1.321   4.678 -2.0018  1.4491  0.3324
 2220SOL    HW2 7560   2.553   1.246   4.534  1.8390 -1.6809  1.3321
 2221SOL     OW 7561   5.721   4.698   2.710  0.4822  0.5534  0.0510
 2221SOL    HW1 7562   5.817   4.722   2.724  0.4594  1.1199 -0.6748
 2221SOL    HW2 7563   5.667   4.782   2.702 -0.1840  0.2454  1.1024
 2222SOL     OW 7564   4.432   0.700   4.671 -0.3459  0.4658 -0.3115
 2222SOL    HW1 7565   4.519   0.655   4.692 -0.2454  0.8680  0.1433
 2222SOL    HW2 7566   4.377   0.640   4.614  0.4352  0.4099 -1.0336
 2223SOL     OW 7567   6.773   1.027   5.211 -0.2826 -0.0014  0.0971
 2223SOL    HW1 7568   6.792   1.108   5.267 -0.1845  0.8986 -1.1850
 2223SOL    HW2 7569   6.775   0.945   5.269  1.5012  0.6888  1.0924
 2224SOL     OW 7570   5.410   0.077   6.298  0.4952 -0.0732  0.2836
 2224SOL    HW1 7571   5.345   0.001   6.288  0.1519  0.4738 -2.1616
 2224SOL    HW2 7572   5.501   0.040   6.315 -0.3264 -0.8595  3.8064
 2225SOL     OW 7573   6.500   3.350   0.662 -0.1590 -0.3949  0.0409
 2225SOL    HW1 7574   6.400   3.345   0.668 -0.0222 -1.4297  2.7154
 2225SOL    HW2 7575   6.536   3.403   0.739  1.2812  3.1449 -2.7644
 2226SOL     OW 7576   1.810   4.802   4.717  0.3869  0.3009  0.2324
 2226SOL    HW1 7577   1.843   4.750   4.796  1.2267 -0.9549 -0.8981
 2226SOL    HW2 7578   1.713   4.785   4.704  0.1876  0.6987  1.1091
 2227SOL     OW 7579   3.157   1.820   1.858  0.1532 -0.3483 -0.2868
 2227SOL    HW1 7580   3.226   1.809   1.786  3.1587 -0.8510  2.4495
 2227SOL    HW2 7581   3.144   1.917   1.877 -0.2526 -0.2342 -1.1111
 2228SOL     OW 7582   5.939   0.960   0.077  0.0176  0.2620  0.1269
 2228SOL    HW1 7583   6.031   0.961   0.115  0.2221 -2.5634 -0.0937
 2228SOL    HW2 7584   5.873   0.978   0.150  0.5703 -2.0121  1.2881
 2229SOL     OW 7585   3.378   4.164   4.676 -0.0182 -0.1086  0.9060
 2229SOL    HW1 7586   3.472   4.140   4.699  0.2166  0.4062  0.4893
 2229SOL    HW2 7587   3.332   4.199   4.757 -0.4924 -2.2692  1.6573
 2230SOL     OW 7588   0.193   1.705   0.067  0.0216 -0.5248  0.3173
 2230SOL    HW1 7589   0.102   1.688   0.106  0.2676  0.0841  1.1759
 2230SOL    HW2 7590   0.260   1.714   0.140  0.9780 -1.9498 -0.3244
 2231SOL     OW 7591   0.583   4.335   0.691 -0.0014 -0.0310 -0.2420
 2231SOL    HW1 7592   0.653   4.372   0.751 -0.2335 -2.6474  1.8584
 2231SOL    HW2 7593   0.516   4.284   0.746 -2.0653  0.1387 -2.4437
 2232SOL     OW 7594   0.919   1.576   6.265 -0.8143  0.1795 -0.8159
 2232SOL    HW1 7595   0.968   1.585   6.179 -0.2909  0.1309 -0.5243
 2232SOL    HW2 7596   0.889   1.481   6.277 -4.2569  0.8413 -2.7545
 2233SOL     OW 7597   4.428   5.561   6.169 -0.5959  0.5416 -0.2301
 2233SOL    HW1 7598   4.493   5.629   6.137 -1.0191  0.3198 -1.6531
 2233SOL    HW2 7599   4.444   5.541   6.265  0.1185  1.9699 -0.0352
 2234SOL     OW 7600   6.490   2.446   1.308 -0.7690  0.3771  0.3476
 2234SOL    HW1 7601   6.545   2.490   1.380  0.5554 -0.6397 -0.0011
 2234SOL    HW2 7602   6.543   2.442   1.224 -0.8786 -1.7665  0.3331
 2235SOL     OW 7603   1.564   2.611   4.960 -0.5554 -0.7918  0.1794
 2235SOL    HW1 7604   1.617   2.584   4.879 -0.4820  1.6949 -0.6724
 2235SOL    HW2 7605   1.485   2.664   4.932  0.0397  1.0526  1.7613
 2236SOL     OW 7606   1.631   5.133   5.416  0.3755 -0.1323 -0.0024
 2236SOL    HW1 7607   1.571   5.140   5.495 -0.7712 -0.3914 -0.8393
 2236SOL    HW2 7608   1.706   5.198   5.426  0.0193  0.1281  1.0953
 2237SOL     OW 7609   6.505   0.088   5.736 -0.0068  0.7199 -0.2951
 2237SOL    HW1 7610   6.596   0.089   5.694  0.2485 -1.5097  0.0811
 2237SOL    HW2 7611   6.512   0.114   5.832  0.4857 -0.7412  0.0890
 2238SOL     OW 7612   4.515   3.175   0.341  0.4250  0.0107 -0.4052
 2238SOL    HW1 7613   4.434   3.234   0.350 -0.1215 -0.6187 -1.0545
 2238SOL    HW2 7614   4.587   3.226   0.293 -0.0892  0.1159 -1.0785
 2239SOL     OW 7615   3.482   5.750   1.198  0.2080  0.2215  0.0608
 2239SOL    HW1 7616   3.538   5.668   1.208  0.8356  0.6444  0.1296
 2239SOL    HW2 7617   3.414   5.736   1.127 -0.6869 -0.8887  1.0992
 2240SOL     OW 7618   3.727   5.624   3.840  0.0309 -0.7748 -0.0480
 2240SOL    HW1 7619   3.792   5.625   3.915  0.7045 -1.8629 -0.5875
 2240SOL    HW2 7620   3.693   5.717   3.824  2.7554  0.1858 -0.8475
 2241SOL     OW 7621   2.008   0.631   2.548  0.0229 -0.2525  0.0265
 2241SOL    HW1 7622   1.926   0.642   2.604  0.5665 -1.9921  1.2677
 2241SOL    HW2 7623   2.076   0.577   2.599  1.3383 -0.1747 -1.5654
 2242SOL     OW 7624   5.205   1.875   3.808 -0.6833  0.1527  0.1614
 2242SOL    HW1 7625   5.145   1.944   3.768  0.4646  2.3416  1.9489
 2242SOL    HW2 7626   5.151   1.810   3.861 -1.6700  0.5760 -0.3001
 2243SOL     OW 7627   1.069   6.815   0.932 -0.6067  0.1756 -0.5712
 2243SOL    HW1 7628   0.973   6.817   0.905 -0.4801 -0.9613 -1.1721
 2243SOL    HW2 7629   1.108   6.907   0.923 -1.4185  0.4796 -1.1362
 2244SOL     OW 7630   2.394   2.669   2.886  0.1309 -0.0548  0.6236
 2244SOL    HW1 7631   2.413   2.714   2.799  0.3717 -0.4255  0.4841
 2244SOL    HW2 7632   2.357   2.736   2.950  2.4442  0.8857  1.0966
 2245SOL     OW 7633   0.805   0.888   1.327 -0.2471 -0.0723 -0.2354
 2245SOL    HW1 7634   0.804   0.833   1.410 -2.2998  0.8674  0.4379
 2245SOL    HW2 7635   0.746   0.969   1.340 -1.2656 -0.3011 -2.8347
 2246SOL     OW 7636   5.725   2.551   6.053  0.3849 -0.0333  0.6871
 2246SOL    HW1 7637   5.637   2.516   6.086  0.0591  1.1427  1.0826
 2246SOL    HW2 7638   5.793   2.477   6.055 -0.5194 -0.8840  0.6303
 2247SOL     OW 7639   4.134   2.626   1.368  0.4754 -0.0179 -0.0360
 2247SOL    HW1 7640   4.062   2.578   1.418 -0.1530  0.7783 -0.1649
 2247SOL    HW2 7641   4.094   2.682   1.296  1.2378  0.3170 -0.2157
 2248SOL     OW 7642   6.723   3.943   3.893  0.1201 -0.1368 -0.5682
 2248SOL    HW1 7643   6.821   3.926   3.877  0.5548 -0.8615  2.2621
 2248SOL    HW2 7644   6.693   3.888   3.971 -2.7397 -0.3761 -1.7474
 2249SOL     OW 7645   5.258   6.255   2.969  0.3743 -0.4709  0.5936
 2249SOL    HW1 7646   5.238   6.320   3.043 -1.6673 -0.1178 -0.2016
 2249SOL    HW2 7647   5.316   6.299   2.901 -1.6185  0.8737 -0.3256
 2250SOL     OW 7648   2.290   1.279   4.970  0.0121 -0.0915 -0.2962
 2250SOL    HW1 7649   2.291   1.196   4.915  0.3213 -0.0595 -0.3419
 2250SOL    HW2 7650   2.291   1.359   4.910 -2.4073 -0.0103 -0.3199
 2251SOL     OW 7651   4.519   1.143   4.222  0.5303  0.1319  0.1942
 2251SOL    HW1 7652   4.538   1.235   4.188  0.2099 -0.2959 -1.2096
 2251SOL    HW2 7653   4.584   1.079   4.182 -0.0499 -0.4375  0.1479
 2252SOL     OW 7654   3.254   0.047   3.150 -0.4317  0.4862  0.2603
 2252SOL    HW1 7655   3.248   0.050   3.250 -0.7855  4.7904  0.2794
 2252SOL    HW2 7656   3.348   0.065   3.121 -0.7277  1.4367 -0.1508
 2253SOL     OW 7657   6.843   1.753   3.118 -0.4019 -0.0650  0.1394
 2253SOL    HW1 7658   6.844   1.705   3.206 -0.1091  1.4980  1.0209
 2253SOL    HW2 7659   6.780   1.830   3.123 -0.3617  0.0634 -1.0400
 2254SOL     OW 7660   4.112   3.219   2.434  0.2644  0.4975  0.2105
 2254SOL    HW1 7661   4.201   3.185   2.403  0.2794  0.8676 -0.1504
 2254SOL    HW2 7662   4.118   3.317   2.451  0.6012  0.1359  2.5751
 2255SOL     OW 7663   0.185   1.795   5.314  0.6083 -0.3023 -0.4926
 2255SOL    HW1 7664   0.132   1.768   5.394 -0.6948  1.5310 -0.6834
 2255SOL    HW2 7665   0.176   1.724   5.243 -0.1083 -0.8481  0.1314
 2256SOL     OW 7666   4.359   6.672   0.292  0.0374 -0.0176 -0.3311
 2256SOL    HW1 7667   4.429   6.634   0.231  0.2087 -1.3859  0.6674
 2256SOL    HW2 7668   4.279   6.612   0.293  0.2210 -0.2713  1.1215
 2257SOL     OW 7669   1.037   1.929   5.692  0.4303  0.8082  0.4811
 2257SOL    HW1 7670   1.137   1.919   5.689  0.4169  0.8330 -0.1098
 2257SOL    HW2 7671   1.005   1.973   5.609 -0.3301 -1.4519 -0.5084
 2258SOL     OW 7672   1.648   5.844   2.944  0.6662 -0.6479 -0.0079
 2258SOL    HW1 7673   1.743   5.875   2.957  0.2955 -0.1256  1.7724
 2258SOL    HW2 7674   1.594   5.919   2.904  0.7076 -0.4638  0.2769
 2259SOL     OW 7675   6.010   6.936   5.151 -0.6842  0.1347 -0.3875
 2259SOL    HW1 7676   6.049   6.995   5.080  1.5510 -0.7067  0.0453
 2259SOL    HW2 7677   5.916   6.913   5.127 -0.3925  0.8468 -2.4702
 2260SOL     OW 7678   1.383   4.441   1.129 -0.6864 -0.1192  0.4460
 2260SOL    HW1 7679   1.300   4.392   1.154 -1.3677  0.2416 -0.9639
 2260SOL    HW2 7680   1.457   4.376   1.111 -1.0974 -0.5331  0.2506
 2261SOL     OW 7681   3.865   4.914   6.171  0.2057 -0.0266  0.6264
 2261SOL    HW1 7682   3.896   4.934   6.078 -1.0313  0.7000  0.3468
 2261SOL    HW2 7683   3.936   4.942   6.236  0.3850  1.0915 -0.0185
 2262SOL     OW 7684   5.509   1.168   5.123  0.7599 -0.1556  0.5183
 2262SOL    HW1 7685   5.544   1.082   5.087 -1.9179 -1.2690  0.3778
 2262SOL    HW2 7686   5.523   1.171   5.222 -0.4257 -1.4512  0.7503
 2263SOL     OW 7687   3.515   4.197   0.377  0.3256  0.8218 -0.2683
 2263SOL    HW1 7688   3.551   4.234   0.463  0.8505 -0.5306  0.1115
 2263SOL    HW2 7689   3.480   4.105   0.392  0.9836  0.3316 -1.6379
 2264SOL     OW 7690   3.257   1.875   0.549 -0.4929 -0.7419 -0.1089
 2264SOL    HW1 7691   3.313   1.917   0.478 -0.8771 -0.4561 -0.2445
 2264SOL    HW2 7692   3.245   1.940   0.624  1.0356 -1.5010  0.8447
 2265SOL     OW 7693   6.422   5.858   2.288  0.6237 -0.0717 -0.0496
 2265SOL    HW1 7694   6.407   5.918   2.367 -0.9211 -0.5073  0.0367
 2265SOL    HW2 7695   6.503   5.887   2.238 -0.0011  2.0120  0.0634
 2266SOL     OW 7696   3.791   4.677   6.648 -0.4960 -0.3565  0.0373
 2266SOL    HW1 7697   3.744   4.763   6.671  0.5410  0.5347 -1.0392
 2266SOL    HW2 7698   3.728   4.617   6.598 -0.8135  0.3804 -0.4692
 2267SOL     OW 7699   5.353   2.905   4.273 -0.1806 -0.2151 -0.0348
 2267SOL    HW1 7700   5.266   2.934   4.235  0.2819  1.4079  0.0488
 2267SOL    HW2 7701   5.427   2.955   4.228  0.5272  0.1456  1.4421
 2268SOL     OW 7702   6.816   6.585   0.963 -0.0910 -0.1314  0.4111
 2268SOL    HW1 7703   6.758   6.658   0.998 -1.7367 -0.7759 -0.8685
 2268SOL    HW2 7704   6.771   6.539   0.887  2.9390  0.6550 -2.1075
 2269SOL     OW 7705   1.339   2.681   4.839  0.1387 -0.4099 -0.0279
 2269SOL    HW1 7706   1.284   2.754   4.879  1.6574 -0.0077  1.4419
 2269SOL    HW2 7707   1.279   2.612   4.798 -1.4007  0.4262  0.7398
 2270SOL     OW 7708   5.357   1.069   6.836 -0.3019  0.1674  0.9431
 2270SOL    HW1 7709   5.339   1.019   6.920 -0.9986  2.1254  2.0294
 2270SOL    HW2 7710   5.447   1.112   6.841 -0.3646  0.3292  0.7167
 2271SOL     OW 7711   3.088   6.025   3.828 -0.2075 -0.0992 -0.6645
 2271SOL    HW1 7712   2.997   6.018   3.789 -0.2215  0.4372 -0.7332
 2271SOL    HW2 7713   3.128   5.934   3.837 -1.0302 -0.4056  0.0314
 2272SOL     OW 7714   5.144   2.817   6.248  0.0750  0.2702  0.1927
 2272SOL    HW1 7715   5.205   2.810   6.169  2.4309 -1.2583  1.9927
 2272SOL    HW2 7716   5.098   2.729   6.261 -0.5526  0.6201  0.3464
 2273SOL     OW 7717   3.721   2.171   5.303  0.6891 -0.1390 -0.1364
 2273SOL    HW1 7718   3.699   2.125   5.388  0.6487  0.0822 -0.0261
 2273SOL    HW2 7719   3.814   2.206   5.307  1.5802 -2.2394 -1.1095
 2274SOL     OW 7720   6.847   0.291   6.717  0.0503 -0.1719 -0.6317
 2274SOL    HW1 7721   6.813   0.232   6.791  1.7193  0.0215  0.3306
 2274SOL    HW2 7722   6.861   0.383   6.753 -3.1144  1.0863 -2.2609
 2275SOL     OW 7723   6.506   3.154   3.138 -0.3379  0.2799 -0.4637
 2275SOL    HW1 7724   6.463   3.064   3.130 -1.1358  0.5669  0.4069
 2275SOL    HW2 7725   6.572   3.166   3.063 -2.4726  0.2167 -2.4763
 2276SOL     OW 7726   2.306   3.556   0.450 -0.0244  0.1260 -0.4981
 2276SOL    HW1 7727   2.213   3.560   0.486 -0.0591 -0.1815 -0.5446
 2276SOL    HW2 7728   2.360   3.631   0.487  0.5122 -1.2797  1.8128
 2277SOL     OW 7729   4.083   3.649   3.955 -0.0818 -0.2373 -0.8368
 2277SOL    HW1 7730   4.078   3.631   4.053 -1.2865 -0.1918 -0.8711
 2277SOL    HW2 7731   4.063   3.746   3.938 -0.2594 -0.3295 -1.1614
 2278SOL     OW 7732   6.284   4.475   3.481  0.2229  0.0568 -0.1748
 2278SOL    HW1 7733   6.304   4.488   3.384 -0.8641 -0.3247 -0.4682
 2278SOL    HW2 7734   6.300   4.380   3.507 -1.4596 -0.3599 -0.5146
 2279SOL     OW 7735   5.945   4.336   5.402 -0.5114 -0.2639 -0.1116
 2279SOL    HW1 7736   5.855   4.380   5.398 -0.4265 -0.1722 -1.4546
 2279SOL    HW2 7737   5.966   4.294   5.314  1.7097  1.6632 -0.6295
 2280SOL     OW 7738   5.620   3.525   5.483  0.5087  0.5315  0.1715
 2280SOL    HW1 7739   5.520   3.520   5.490  0.3331  2.4565 -0.4303
 2280SOL    HW2 7740   5.655   3.595   5.545  1.6282 -0.7985  1.1172
 2281SOL     OW 7741   6.005   6.065   2.575  0.4809  0.6100 -0.1198
 2281SOL    HW1 7742   5.995   5.991   2.642  1.1932  2.3550  2.0616
 2281SOL    HW2 7743   6.085   6.048   2.518  2.2230  0.8351  2.0886
 2282SOL     OW 7744   4.030   0.068   5.002 -0.2065  0.7926  0.0752
 2282SOL    HW1 7745   4.073  -0.015   4.965 -1.3786 -0.1498  0.7282
 2282SOL    HW2 7746   4.077   0.149   4.967 -1.1766 -0.0004 -3.4065
 2283SOL     OW 7747   6.959   6.278   6.170 -0.0404 -0.0281 -0.4328
 2283SOL    HW1 7748   7.003   6.194   6.139 -1.1660 -0.8024 -0.0219
 2283SOL    HW2 7749   6.918   6.263   6.260  0.7955  1.3507  0.2152
 2284SOL     OW 7750   2.749   6.340   4.863 -0.0461 -0.8308  0.0600
 2284SOL    HW1 7751   2.810   6.390   4.924  0.2170 -0.7451 -0.2669
 2284SOL    HW2 7752   2.799   6.315   4.779 -0.5649 -0.4142 -0.3802
 2285SOL     OW 7753   1.821   5.993   5.928 -0.0251  0.6973 -0.2924
 2285SOL    HW1 7754   1.903   6.039   5.894 -0.7410  1.4584 -1.0643
 2285SOL    HW2 7755   1.783   6.046   6.004 -0.9133  1.4789 -1.2549
 2286SOL     OW 7756   5.073   4.909   2.874 -0.9594  0.3900  0.2436
 2286SOL    HW1 7757   5.147   4.909   2.942 -0.0401 -0.3321 -0.7069
 2286SOL    HW2 7758   5.029   4.999   2.872  0.9790  1.3853 -0.2712
 2287SOL     OW 7759   0.893   1.651   5.472 -0.1476  0.1668  0.4677
 2287SOL    HW1 7760   0.860   1.736   5.431  2.2117  0.2368 -1.4855
 2287SOL    HW2 7761   0.922   1.669   5.566 -0.0193  1.4564  0.2012
 2288SOL     OW 7762   5.845   3.975   2.462  0.1156  0.2062  0.2130
 2288SOL    HW1 7763   5.779   3.952   2.534  0.7145 -0.1271  0.6593
 2288SOL    HW2 7764   5.924   3.915   2.468 -0.4413 -0.7893 -1.6234
 2289SOL     OW 7765   7.011   4.821   5.558 -0.0175 -0.2762 -0.1219
 2289SOL    HW1 7766   6.955   4.739   5.575 -1.9939  0.7806 -1.1280
 2289SOL    HW2 7767   6.959   4.902   5.585  0.4219  0.8555 -2.4712
 2290SOL     OW 7768   0.362   4.075   6.704  0.1004 -0.2256 -0.3849
 2290SOL    HW1 7769   0.452   4.072   6.662  0.0311  1.6286 -0.7273
 2290SOL    HW2 7770   0.298   4.121   6.643 -0.1419  2.0264  1.4410
 2291SOL     OW 7771   1.734   0.982   0.380  0.4855 -0.0796  0.0949
 2291SOL    HW1 7772   1.778   0.982   0.470 -0.8409 -0.2935  0.7570
 2291SOL    HW2 7773   1.637   0.961   0.389  0.4636 -0.8147 -1.4708
 2292SOL     OW 7774   2.889   2.183   4.847  0.0767 -0.5863  0.2081
 2292SOL    HW1 7775   2.939   2.139   4.772  0.0665  0.0767 -0.1978
 2292SOL    HW2 7776   2.954   2.226   4.910  0.0487 -0.4194  0.1224
 2293SOL     OW 7777   6.280   5.645   3.299  0.1193 -0.3310 -0.1153
 2293SOL    HW1 7778   6.221   5.629   3.219 -0.8016  0.5964  0.3435
 2293SOL    HW2 7779   6.223   5.669   3.377  1.0579 -0.5712  0.6563
 2294SOL     OW 7780   5.773   0.045   0.287  0.1016  0.0127  0.3166
 2294SOL    HW1 7781   5.851  -0.017   0.282 -0.7855 -1.0468 -2.1978
 2294SOL    HW2 7782   5.692  -0.006   0.318 -0.4969 -0.0016 -1.1877
 2295SOL     OW 7783   0.692   1.327   6.606  0.0493  0.2047 -0.0489
 2295SOL    HW1 7784   0.685   1.268   6.687 -1.9122  0.5658  0.0893
 2295SOL    HW2 7785   0.772   1.387   6.615  0.7637 -0.8407  0.8635
 2296SOL     OW 7786   3.222   5.216   6.301  0.2882 -0.4343  0.6002
 2296SOL    HW1 7787   3.254   5.127   6.334  0.4688 -0.2636  0.8904
 2296SOL    HW2 7788   3.295   5.283   6.311 -1.0427  0.6987  4.1820
 2297SOL     OW 7789   4.879   5.780   5.856  0.3856 -0.1701 -0.1924
 2297SOL    HW1 7790   4.881   5.878   5.879  1.0516 -0.2301  0.0091
 2297SOL    HW2 7791   4.786   5.755   5.829  0.0878  0.4062  0.2565
 2298SOL     OW 7792   4.437   1.811   0.523 -0.2116 -0.1120  0.2243
 2298SOL    HW1 7793   4.535   1.827   0.513 -0.2770 -0.4667 -1.3014
 2298SOL    HW2 7794   4.389   1.847   0.443 -1.0054 -2.3791 -0.4232
 2299SOL     OW 7795   5.554   5.641   1.926  0.1096  0.0859  0.2162
 2299SOL    HW1 7796   5.637   5.587   1.942 -1.1426 -1.7979  0.6205
 2299SOL    HW2 7797   5.481   5.610   1.986 -1.4536  0.4127 -1.4263
 2300SOL     OW 7798   1.194   4.984   6.707 -0.9535  0.2266  0.3515
 2300SOL    HW1 7799   1.221   5.049   6.636 -0.6907 -0.2693 -0.0095
 2300SOL    HW2 7800   1.193   5.029   6.796  2.9794 -0.1299  0.7438
 2301SOL     OW 7801   3.556   2.465   1.722  0.5938  0.0111  0.0152
 2301SOL    HW1 7802   3.577   2.421   1.634  1.5544 -0.3598  0.4118
 2301SOL    HW2 7803   3.569   2.399   1.796 -3.0533 -0.6162  0.2991
 2302SOL     OW 7804   3.848   5.865   3.156 -0.3491  0.8270 -0.1480
 2302SOL    HW1 7805   3.788   5.824   3.224  0.6854 -0.6457 -0.0833
 2302SOL    HW2 7806   3.794   5.922   3.093 -1.9837 -1.2720 -0.7441
 2303SOL     OW 7807   2.419   1.561   0.679 -0.2344 -0.0205  0.2908
 2303SOL    HW1 7808   2.386   1.655   0.676  0.7395  0.4599  2.6880
 2303SOL    HW2 7809   2.514   1.557   0.650 -0.1717 -0.2081  0.5141
 2304SOL     OW 7810   0.383   1.919   6.481  0.6232  0.3193 -0.4306
 2304SOL    HW1 7811   0.464   1.868   6.511 -0.1292 -0.0757  1.0896
 2304SOL    HW2 7812   0.309   1.903   6.547 -1.0008 -0.1255 -2.2831
 2305SOL     OW 7813   4.329   4.964   1.126 -0.2328  0.3826  0.0047
 2305SOL    HW1 7814   4.362   4.871   1.144 -0.9770  0.1800  0.4095
 2305SOL    HW2 7815   4.239   4.959   1.082  0.3439  0.9122 -1.2826
 2306SOL     OW 7816   5.879   5.131   0.732 -0.0871  0.0109  0.0335
 2306SOL    HW1 7817   5.950   5.197   0.706  1.4207 -0.7716  1.9508
 2306SOL    HW2 7818   5.806   5.178   0.783  0.3311  0.4018  0.2761
 2307SOL     OW 7819   1.090   1.407   1.478  0.2231  0.6366  0.3108
 2307SOL    HW1 7820   1.006   1.439   1.521  0.8143 -0.3538  2.2942
 2307SOL    HW2 7821   1.163   1.402   1.546  0.5913 -3.3266 -0.1318
 2308SOL     OW 7822   1.323   0.501   0.046  0.2657 -0.1234 -0.3680
 2308SOL    HW1 7823   1.406   0.491  -0.009 -0.7872  0.9844 -2.2904
 2308SOL    HW2 7824   1.243   0.501  -0.015 -1.0563  0.0318  1.3011
 2309SOL     OW 7825   1.618   4.817   5.705 -0.2665 -0.0207  0.5540
 2309SOL    HW1 7826   1.614   4.885   5.778  3.1985 -0.1012  0.9774
 2309SOL    HW2 7827   1.687   4.844   5.638 -0.1430 -2.1957 -0.2750
 2310SOL     OW 7828   5.605   2.203   2.109  0.2059  0.0003 -0.5389
 2310SOL    HW1 7829   5.596   2.275   2.040  0.1215 -0.1368 -0.6712
 2310SOL    HW2 7830   5.522   2.202   2.166  0.2915  0.1384 -0.4100
 2311SOL     OW 7831   3.046   0.281   3.415 -0.1986  0.5736  0.0704
 2311SOL    HW1 7832   3.020   0.231   3.498  2.3843 -0.2966  0.4537
 2311SOL    HW2 7833   3.003   0.239   3.335  0.5285 -1.1908  0.5677
 2312SOL     OW 7834   4.200   6.206   2.093  0.0878  0.1690  0.5691
 2312SOL    HW1 7835   4.126   6.264   2.060  0.5255  1.0576  1.1088
 2312SOL    HW2 7836   4.226   6.140   2.023 -0.2964  0.7471 -0.1198
 2313SOL     OW 7837   2.925   5.800   0.591 -0.4027  0.1631  0.8228
 2313SOL    HW1 7838   2.881   5.840   0.672 -1.6483  1.7236 -0.5695
 2313SOL    HW2 7839   3.024   5.803   0.602 -0.5381  0.6727  2.1156
 2314SOL     OW 7840   6.402   0.029   4.061  0.1226  0.1120  0.2667
 2314SOL    HW1 7841   6.356  -0.047   4.016  0.1205  0.6071 -0.5861
 2314SOL    HW2 7842   6.443   0.089   3.992  1.5347  0.0017  0.9925
 2315SOL     OW 7843   5.690   0.033   5.500 -0.2438  0.3971  0.0644
 2315SOL    HW1 7844   5.752  -0.044   5.483  0.2312  0.8383 -0.2090
 2315SOL    HW2 7845   5.723   0.084   5.580 -1.2461 -0.3897  1.0212
 2316SOL     OW 7846   2.815   2.270   6.897  0.2466  0.7851  0.1577
 2316SOL    HW1 7847   2.819   2.359   6.942 -0.6648  0.7055  0.4189
 2316SOL    HW2 7848   2.881   2.267   6.822 -1.3049  2.5381 -1.3697
 2317SOL     OW 7849   0.174   3.479   3.050  0.1967 -0.6814  0.3415
 2317SOL    HW1 7850   0.113   3.541   3.002 -1.6732 -2.8539 -0.2889
 2317SOL    HW2 7851   0.237   3.437   2.984  0.9969  0.0236  0.6479
 2318SOL     OW 7852   1.171   4.591   2.813 -0.2284  0.2192 -0.0963
 2318SOL    HW1 7853   1.198   4.678   2.853 -0.7619  0.1907  0.3433
 2318SOL    HW2 7854   1.252   4.537   2.792  0.1080  0.8578 -0.4579
 2319SOL     OW 7855   2.798   5.532   1.559  0.0970  0.3263 -0.2598
 2319SOL    HW1 7856   2.787   5.437   1.591  0.4643  0.7552  1.2367
 2319SOL    HW2 7857   2.828   5.532   1.464  4.0350 -1.2041  0.7822
 2320SOL     OW 7858   2.471   6.847   5.136 -0.2665  0.2642  0.1615
 2320SOL    HW1 7859   2.377   6.819   5.114  0.0302  0.6053 -1.7034
 2320SOL    HW2 7860   2.533   6.811   5.067  1.0975 -0.5246  1.7459
 2321SOL     OW 7861   0.407   4.359   5.629 -0.6146 -0.0145 -0.3123
 2321SOL    HW1 7862   0.392   4.294   5.555  1.4530  0.3367 -1.1107
 2321SOL    HW2 7863   0.461   4.316   5.701 -0.3009  0.4426 -0.2702
 2322SOL     OW 7864   1.740   2.989   1.732 -0.2876 -0.2359  0.3781
 2322SOL    HW1 7865   1.828   2.940   1.737  0.2232  0.4355 -1.3545
 2322SOL    HW2 7866   1.742   3.067   1.795  0.7732  0.3643 -0.3605
 2323SOL     OW 7867   2.630   4.864   6.565  0.3385 -0.5971 -0.2098
 2323SOL    HW1 7868   2.544   4.867   6.514 -0.5591 -0.7146  1.2453
 2323SOL    HW2 7869   2.665   4.957   6.577  0.0344 -0.4823 -0.1995
 2324SOL     OW 7870   6.404   5.430   2.477  0.6209  0.0327 -0.4173
 2324SOL    HW1 7871   6.330   5.451   2.541 -1.8485  0.3220 -3.1705
 2324SOL    HW2 7872   6.411   5.330   2.466  2.5671 -0.1804  1.7846
 2325SOL     OW 7873   6.449   2.244   2.890 -0.4198  0.3035 -0.1161
 2325SOL    HW1 7874   6.395   2.160   2.881  0.6966 -0.2113 -2.7784
 2325SOL    HW2 7875   6.522   2.230   2.957 -1.1484 -0.3153  0.5708
 2326SOL     OW 7876   1.327   6.950   6.392  0.0556  0.1974  0.2539
 2326SOL    HW1 7877   1.292   7.009   6.319 -1.5276 -1.6084 -0.5505
 2326SOL    HW2 7878   1.303   6.855   6.371 -0.5662 -0.3794  3.1875
 2327SOL     OW 7879   0.904   5.175   2.174  0.6345 -0.6584  0.3817
 2327SOL    HW1 7880   0.916   5.124   2.088 -0.7122  0.1053 -0.3030
 2327SOL    HW2 7881   0.807   5.175   2.199  0.1500  3.2650 -0.8092
 2328SOL     OW 7882   1.574   4.008   0.921  0.1542  0.2412  0.0040
 2328SOL    HW1 7883   1.565   4.066   0.840  0.8322 -0.5188 -0.6350
 2328SOL    HW2 7884   1.492   3.951   0.930 -0.1410  0.6872  0.1436
 2329SOL     OW 7885   0.992   5.597   1.522  0.2082 -0.3200 -0.0118
 2329SOL    HW1 7886   0.935   5.663   1.572  0.1263 -1.1445  1.0237
 2329SOL    HW2 7887   1.082   5.591   1.567 -0.0964 -1.5664  0.4729
 2330SOL     OW 7888   4.451   2.391   1.466  0.2557 -0.1585  0.0020
 2330SOL    HW1 7889   4.534   2.438   1.494  0.3194 -0.6081  0.6027
 2330SOL    HW2 7890   4.465   2.346   1.378  1.0043 -1.0952  0.5714
 2331SOL     OW 7891   0.060   5.413   1.145  0.9584 -0.1563  0.4550
 2331SOL    HW1 7892   0.133   5.401   1.213  2.5338 -1.7516 -1.4170
 2331SOL    HW2 7893   0.095   5.465   1.067  0.3482 -1.5574 -0.7997
 2332SOL     OW 7894   5.977   2.500   0.777  0.4507 -0.0831 -0.4739
 2332SOL    HW1 7895   5.938   2.591   0.784 -0.1227 -0.2998 -0.7893
 2332SOL    HW2 7896   5.976   2.470   0.681 -1.4099 -1.2915 -0.1345
 2333SOL     OW 7897   1.926   4.410   3.776  0.4312 -0.4695  0.1257
 2333SOL    HW1 7898   1.977   4.349   3.836 -0.7713  0.1378  1.8420
 2333SOL    HW2 7899   1.831   4.414   3.806  0.2304  1.3584 -0.6353
 2334SOL     OW 7900   3.949   0.597   5.487 -0.2466 -0.2172 -0.2767
 2334SOL    HW1 7901   3.920   0.516   5.539  1.4398 -1.1362 -0.7124
 2334SOL    HW2 7902   3.872   0.630   5.432 -1.7875  0.1760  1.9656
 2335SOL     OW 7903   5.928   4.900   2.991  0.3245  0.2792 -0.5242
 2335SOL    HW1 7904   5.834   4.928   3.010  0.7603  1.3487  0.1120
 2335SOL    HW2 7905   5.960   4.840   3.064  0.4258  0.6043 -0.3029
 2336SOL     OW 7906   2.022   1.540   3.242  0.0639  0.0018 -0.3708
 2336SOL    HW1 7907   1.970   1.614   3.198 -0.1070  0.4633  0.5944
 2336SOL    HW2 7908   2.113   1.572   3.265  0.3414 -0.4116 -0.8762
 2337SOL     OW 7909   3.811   1.147   3.750  0.0378  0.1609 -0.2986
 2337SOL    HW1 7910   3.862   1.197   3.820  1.0903 -1.2061 -0.0506
 2337SOL    HW2 7911   3.724   1.194   3.733  0.4772  1.4250  0.7239
 2338SOL     OW 7912   6.784   3.142   4.917  0.6594  0.1377 -0.9736
 2338SOL    HW1 7913   6.705   3.183   4.873 -1.7037 -2.5855  0.4097
 2338SOL    HW2 7914   6.819   3.067   4.860 -0.1947 -1.0932  0.0520
 2339SOL     OW 7915   2.945   3.298   2.477 -0.0008  0.0155  0.4547
 2339SOL    HW1 7916   2.932   3.397   2.485 -1.1239 -0.0900  0.0673
 2339SOL    HW2 7917   2.953   3.259   2.569  1.2324  0.5379  0.6014
 2340SOL     OW 7918   2.528   3.739   5.773 -0.1876  0.2158 -0.2899
 2340SOL    HW1 7919   2.472   3.769   5.696 -0.4548  0.5893  0.0375
 2340SOL    HW2 7920   2.615   3.789   5.772  0.4265 -0.8409 -1.1716
 2341SOL     OW 7921   4.471   4.716   3.955 -0.7332 -0.0183 -0.2062
 2341SOL    HW1 7922   4.484   4.617   3.947 -3.0227 -0.8245  3.4608
 2341SOL    HW2 7923   4.406   4.747   3.885  0.0511 -1.0369 -1.4348
 2342SOL     OW 7924   3.646   0.948   3.873  0.2542 -0.3290  0.1544
 2342SOL    HW1 7925   3.626   1.021   3.939  0.3793  0.9243 -1.1378
 2342SOL    HW2 7926   3.690   0.988   3.792  0.4469 -1.8763 -0.5366
 2343SOL     OW 7927   6.712   0.018   3.025  0.6155  0.3002 -0.0033
 2343SOL    HW1 7928   6.707  -0.004   3.123 -0.0254 -1.4916 -0.3952
 2343SOL    HW2 7929   6.795  -0.022   2.986  1.9892  2.7901  0.1643
 2344SOL     OW 7930   5.361   5.130   6.750  0.5656 -0.3088 -0.1615
 2344SOL    HW1 7931   5.297   5.079   6.692  0.3046 -1.4643  1.1020
 2344SOL    HW2 7932   5.453   5.093   6.739  0.7081  0.1482 -0.5830
 2345SOL     OW 7933   3.462   5.822   3.125  0.0532 -0.6147  0.1140
 2345SOL    HW1 7934   3.470   5.859   3.218 -1.4120  1.0392 -0.3620
 2345SOL    HW2 7935   3.430   5.728   3.130  2.1243 -1.3266  1.3163
 2346SOL     OW 7936   4.572   4.161   1.681 -0.0237 -0.6749  0.3003
 2346SOL    HW1 7937   4.541   4.252   1.710  0.6944 -0.2991 -0.0702
 2346SOL    HW2 7938   4.612   4.113   1.760 -1.7690 -1.2859  0.8520
 2347SOL     OW 7939   1.507   6.886   1.585 -0.4418 -0.0180  0.0812
 2347SOL    HW1 7940   1.507   6.905   1.683  1.1409  0.0226  0.1001
 2347SOL    HW2 7941   1.476   6.792   1.570  2.7041 -1.3297  0.9781
 2348SOL     OW 7942   6.799   5.482   3.847  0.1410  0.2749 -0.6142
 2348SOL    HW1 7943   6.769   5.568   3.805 -0.7133 -0.6405 -1.9256
 2348SOL    HW2 7944   6.792   5.490   3.947 -3.1924  0.6419 -0.7587
 2349SOL     OW 7945   1.810   4.447   5.582 -0.6692 -0.1994 -0.0399
 2349SOL    HW1 7946   1.829   4.369   5.642 -0.7187 -0.7675 -0.7489
 2349SOL    HW2 7947   1.712   4.468   5.585 -1.1834 -2.0414 -2.0447
 2350SOL     OW 7948   6.118   5.278   1.857 -0.4823 -0.0765  0.0649
 2350SOL    HW1 7949   6.204   5.308   1.899  0.7553 -0.6735 -1.8772
 2350SOL    HW2 7950   6.059   5.357   1.842  0.0238  0.4564  0.7940
 2351SOL     OW 7951   1.860   6.286   0.750  0.5022  0.2197 -0.1046
 2351SOL    HW1 7952   1.864   6.368   0.807  0.3126 -0.6633  1.2227
 2351SOL    HW2 7953   1.887   6.206   0.804 -1.1012 -0.8645 -0.8099
 2352SOL     OW 7954   4.243   1.292   4.216 -0.0094  0.7008  0.2522
 2352SOL    HW1 7955   4.157   1.251   4.247  0.1264 -0.0237 -0.3089
 2352SOL    HW2 7956   4.317   1.264   4.277 -0.2405  1.7219  1.0249
 2353SOL     OW 7957   2.315   6.693   4.170 -0.3042  0.3478 -0.1270
 2353SOL    HW1 7958   2.356   6.683   4.079 -0.4315 -0.8215 -0.0706
 2353SOL    HW2 7959   2.231   6.747   4.163 -0.6552 -0.2740 -0.8035
 2354SOL     OW 7960   1.413   2.099   2.743  0.0488 -0.5911  0.1456
 2354SOL    HW1 7961   1.452   2.084   2.834  1.0934  1.9942  0.2364
 2354SOL    HW2 7962   1.485   2.090   2.674  0.8209  3.1219  0.2155
 2355SOL     OW 7963   1.593   4.825   2.881  0.5026 -0.2283  0.1017
 2355SOL    HW1 7964   1.659   4.856   2.813 -0.8785  2.4326 -0.1684
 2355SOL    HW2 7965   1.604   4.727   2.896  2.6162 -0.3944 -1.9456
 2356SOL     OW 7966   0.481   3.534   0.004  0.4261  0.1730 -0.0650
 2356SOL    HW1 7967   0.424   3.491   0.074  1.0739 -0.0150  0.3595
 2356SOL    HW2 7968   0.432   3.535  -0.083  0.1990 -0.9945  0.0264
 2357SOL     OW 7969   1.711   0.016   5.006 -0.4311 -0.0769  0.2399
 2357SOL    HW1 7970   1.763   0.100   4.991 -1.2692  0.4765  0.3814
 2357SOL    HW2 7971   1.664   0.021   5.094  0.6786 -1.3207  0.9406
 2358SOL     OW 7972   3.830   0.317   4.420 -0.0978 -0.1143 -0.4999
 2358SOL    HW1 7973   3.914   0.307   4.366  2.0144  0.7108  2.4214
 2358SOL    HW2 7974   3.832   0.255   4.498 -1.3671  1.2059  0.6451
 2359SOL     OW 7975   0.828   5.512   4.653 -0.1996 -0.2416  0.0835
 2359SOL    HW1 7976   0.749   5.519   4.592 -0.1695  1.9458  0.1958
 2359SOL    HW2 7977   0.802   5.545   4.744  0.4194 -1.0815  0.5712
 2360SOL     OW 7978   0.964   3.775   1.862 -0.1978  0.6469 -0.7371
 2360SOL    HW1 7979   0.946   3.697   1.802  0.7737 -0.6183  0.5614
 2360SOL    HW2 7980   0.980   3.857   1.806 -2.4313  0.2493 -2.1074
 2361SOL     OW 7981   3.081   0.556   1.962 -0.6824 -0.0337  0.3320
 2361SOL    HW1 7982   3.112   0.561   1.867  0.3922 -1.9130  0.5314
 2361SOL    HW2 7983   3.044   0.465   1.980 -2.7140  0.9088  1.2206
 2362SOL     OW 7984   1.665   6.388   2.245  0.2750 -0.0774  0.3791
 2362SOL    HW1 7985   1.748   6.413   2.294  0.3629  0.5629 -0.0790
 2362SOL    HW2 7986   1.690   6.340   2.160  0.1042 -1.9944  1.3615
 2363SOL     OW 7987   4.947   2.594   4.154  0.2383  0.3722  0.2165
 2363SOL    HW1 7988   4.922   2.612   4.249  0.0387 -0.3059  0.3003
 2363SOL    HW2 7989   4.937   2.496   4.135  0.1969  0.5154 -0.5281
 2364SOL     OW 7990   0.803   1.151   2.980 -0.0861  0.3017 -0.0754
 2364SOL    HW1 7991   0.790   1.146   2.881 -0.6022 -0.3817  0.0195
 2364SOL    HW2 7992   0.901   1.152   3.000  0.1999 -3.4530 -0.4905
 2365SOL     OW 7993   5.934   4.536   6.998  0.3886 -0.3692  0.1659
 2365SOL    HW1 7994   5.909   4.440   6.980  2.3572 -1.1883  1.4779
 2365SOL    HW2 7995   5.876   4.572   7.071 -0.7736 -0.3278 -0.7479
 2366SOL     OW 7996   3.128   5.576   0.901  0.3868 -0.3504 -0.0849
 2366SOL    HW1 7997   3.175   5.510   0.842  0.2233 -0.6518  0.1187
 2366SOL    HW2 7998   3.130   5.543   0.996  1.2565  0.4653  0.2001
 2367SOL     OW 7999   2.176   2.894   5.459 -0.0821  0.7681  0.4662
 2367SOL    HW1 8000   2.102   2.961   5.450  0.4444  1.5670  1.7632
 2367SOL    HW2 8001   2.264   2.940   5.450  0.2778 -0.0696 -0.4466
 2368SOL     OW 8002   4.508   5.337   1.934  0.8382  0.9904 -0.3167
 2368SOL    HW1 8003   4.481   5.394   2.012  0.8107  1.6098 -0.7674
 2368SOL    HW2 8004   4.429   5.325   1.874  0.4248 -0.7614  0.4916
 2369SOL     OW 8005   2.524   1.203   4.095 -0.4416  0.2949  0.5881
 2369SOL    HW1 8006   2.451   1.199   4.027  1.0502  1.4815 -1.1789
 2369SOL    HW2 8007   2.604   1.247   4.055  0.4244  1.2954  3.2244
 2370SOL     OW 8008   6.264   2.210   1.098  0.5529  0.0879 -0.6535
 2370SOL    HW1 8009   6.306   2.227   1.187  0.5931 -1.0993 -0.4218
 2370SOL    HW2 8010   6.207   2.288   1.071  2.2703  1.4164 -0.6175
 2371SOL     OW 8011   0.440   6.484   1.824 -0.1652  0.0772  0.5469
 2371SOL    HW1 8012   0.352   6.475   1.777 -0.3923 -2.4356  1.2861
 2371SOL    HW2 8013   0.429   6.454   1.919  0.7534  3.0638  1.6789
 2372SOL     OW 8014   5.785   1.280   2.663 -0.0521  0.0126 -0.0297
 2372SOL    HW1 8015   5.768   1.309   2.757 -0.8537  0.1535 -0.2117
 2372SOL    HW2 8016   5.848   1.345   2.619 -2.6755  2.2660 -0.7920
 2373SOL     OW 8017   2.683   2.516   6.503  0.3982 -0.2816 -0.2602
 2373SOL    HW1 8018   2.781   2.521   6.485  0.2397 -1.0304 -1.3607
 2373SOL    HW2 8019   2.633   2.517   6.417 -0.6470  1.3269  0.3058
 2374SOL     OW 8020   4.887   2.015   5.795 -0.1903 -0.4527  0.6757
 2374SOL    HW1 8021   4.920   2.015   5.700  0.0944  0.1447  0.7717
 2374SOL    HW2 8022   4.960   1.985   5.856 -1.1781 -3.6902  0.4663
 2375SOL     OW 8023   1.131   5.874   5.490 -0.7949 -0.0448  0.2383
 2375SOL    HW1 8024   1.063   5.800   5.490 -0.7017 -0.2048  2.5817
 2375SOL    HW2 8025   1.223   5.834   5.492 -0.7514  0.0745  2.0325
 2376SOL     OW 8026   0.255   1.139   3.534 -0.6075  0.5577 -0.3405
 2376SOL    HW1 8027   0.260   1.235   3.563  0.5141  0.5830 -0.5368
 2376SOL    HW2 8028   0.289   1.131   3.440  0.1041 -0.1254 -0.0435
 2377SOL     OW 8029   3.637   3.154   4.456 -0.1484 -0.3599  0.3706
 2377SOL    HW1 8030   3.657   3.109   4.543 -0.5997 -1.3082 -0.0038
 2377SOL    HW2 8031   3.723   3.173   4.409  0.0386 -1.8476  0.0452
 2378SOL     OW 8032   4.797   2.310   6.017  0.2896  0.4040  0.5007
 2378SOL    HW1 8033   4.755   2.401   6.012 -1.5439 -0.4497 -1.0724
 2378SOL    HW2 8034   4.882   2.310   5.964 -0.5886  0.8197 -0.9904
 2379SOL     OW 8035   0.210   1.264   5.577 -0.4241  0.1202  0.4439
 2379SOL    HW1 8036   0.303   1.300   5.574 -0.2539 -0.3160  0.4367
 2379SOL    HW2 8037   0.212   1.165   5.585 -0.8267  0.2308  3.5274
 2380SOL     OW 8038   0.215   2.761   3.714 -0.1254  0.0329  0.2808
 2380SOL    HW1 8039   0.303   2.798   3.744 -0.9909  0.5384  2.4110
 2380SOL    HW2 8040   0.141   2.816   3.753 -1.4081 -0.6840 -1.0452
 2381SOL     OW 8041   1.241   4.437   1.932  0.5641  0.2018  0.1437
 2381SOL    HW1 8042   1.313   4.419   2.000  0.6931  0.2337  0.0166
 2381SOL    HW2 8043   1.222   4.535   1.929  1.6065  0.4007 -0.9085
 2382SOL     OW 8044   3.282   1.550   6.585  0.2903  0.2870  0.6533
 2382SOL    HW1 8045   3.266   1.647   6.602  0.9955  0.5544 -0.1319
 2382SOL    HW2 8046   3.209   1.514   6.527 -1.2800 -0.2594  2.8665
 2383SOL     OW 8047   5.589   4.628   1.616 -0.6609  0.0578 -0.1086
 2383SOL    HW1 8048   5.512   4.565   1.627  0.0538 -0.7119  0.5622
 2383SOL    HW2 8049   5.566   4.697   1.547 -2.2996  0.3978  0.7256
 2384SOL     OW 8050   4.988   1.008   2.921  0.7633 -0.1025  0.0859
 2384SOL    HW1 8051   5.056   0.935   2.917  1.1441  0.2909 -1.1915
 2384SOL    HW2 8052   4.897   0.969   2.937  1.1244 -0.7283  0.6640
 2385SOL     OW 8053   1.286   1.569   6.301  0.2051  0.2926  0.2593
 2385SOL    HW1 8054   1.370   1.517   6.287 -0.8397 -2.0318  1.9676
 2385SOL    HW2 8055   1.236   1.576   6.214  0.9662 -0.5258 -0.2562
 2386SOL     OW 8056   5.180   3.921   2.868  0.5764  0.2912 -0.1032
 2386SOL    HW1 8057   5.140   3.923   2.776  2.7613 -2.2197 -1.2473
 2386SOL    HW2 8058   5.230   4.005   2.885 -1.5567  1.6754 -0.2985
 2387SOL     OW 8059   1.790   1.914   2.591  0.0590 -0.7296 -0.0792
 2387SOL    HW1 8060   1.774   1.844   2.521  2.5244 -0.5098 -0.9734
 2387SOL    HW2 8061   1.889   1.925   2.605 -0.3036  1.2717  1.3817
 2388SOL     OW 8062   0.015   2.005   3.935 -0.3203 -0.7645  0.0659
 2388SOL    HW1 8063   0.039   2.101   3.923  0.3963 -0.8556  0.7075
 2388SOL    HW2 8064  -0.043   1.976   3.859  0.4947 -0.1571 -0.8215
 2389SOL     OW 8065   2.378   6.536   2.040 -0.0998  0.5734  0.3342
 2389SOL    HW1 8066   2.478   6.525   2.035 -0.1785 -0.5122  0.8714
 2389SOL    HW2 8067   2.351   6.618   1.988  1.0078  0.5778 -0.2717
 2390SOL     OW 8068   1.882   4.734   0.319  0.4467  0.7504 -0.3118
 2390SOL    HW1 8069   1.875   4.824   0.363  0.8369  0.7487 -0.2485
 2390SOL    HW2 8070   1.810   4.726   0.249 -0.4046  0.6235  0.5510
 2391SOL     OW 8071   4.544   5.215   3.982  0.1092  0.0146 -0.8110
 2391SOL    HW1 8072   4.596   5.256   4.057  1.0410 -4.1162  1.0353
 2391SOL    HW2 8073   4.601   5.213   3.900  0.5910  0.9407 -0.5142
 2392SOL     OW 8074   2.240   1.361   0.317  0.1433  0.1957 -0.1784
 2392SOL    HW1 8075   2.162   1.403   0.363  0.8498  0.5713  0.7003
 2392SOL    HW2 8076   2.209   1.280   0.267 -1.0652  1.1467 -1.0604
 2393SOL     OW 8077   3.363   0.768   5.095  0.0564  0.1044  0.2729
 2393SOL    HW1 8078   3.409   0.729   5.015  1.2107  0.1178  0.9093
 2393SOL    HW2 8079   3.275   0.805   5.068  1.0861  1.5152 -1.3003
 2394SOL     OW 8080   2.057   6.186   5.982 -0.1637  0.3902 -0.9319
 2394SOL    HW1 8081   2.022   6.183   5.889 -0.0982 -2.4557 -0.9425
 2394SOL    HW2 8082   2.152   6.156   5.984 -0.3818 -0.2826  0.1301
 2395SOL     OW 8083   4.193   0.552   0.466  0.0538  0.3019 -0.0532
 2395SOL    HW1 8084   4.093   0.546   0.464 -0.0006  0.4811  1.3406
 2395SOL    HW2 8085   4.220   0.641   0.502  0.7207  0.1786 -0.2343
 2396SOL     OW 8086   2.440   0.415   1.046 -0.7464 -0.5717  0.2110
 2396SOL    HW1 8087   2.454   0.504   1.003 -1.9382 -1.1148 -1.4074
 2396SOL    HW2 8088   2.516   0.354   1.022 -0.7404 -0.4651 -0.0440
 2397SOL     OW 8089   0.402   1.952   5.296 -0.1931 -0.1146  0.4203
 2397SOL    HW1 8090   0.338   1.877   5.309 -1.5101  0.7761 -0.5721
 2397SOL    HW2 8091   0.409   2.006   5.380 -0.2965 -0.5611  0.7157
 2398SOL     OW 8092   5.359   2.385   5.451 -0.0566  0.8532 -0.0187
 2398SOL    HW1 8093   5.451   2.346   5.445  0.2274  0.7869  2.9802
 2398SOL    HW2 8094   5.358   2.475   5.408  1.7767  1.3648  0.9098
 2399SOL     OW 8095   6.246   3.177   1.465 -0.5641  0.4543  0.3115
 2399SOL    HW1 8096   6.191   3.210   1.542  0.8226 -1.0410  2.0554
 2399SOL    HW2 8097   6.254   3.077   1.471  0.5386  0.4310 -1.1194
 2400SOL     OW 8098   0.948   4.370   0.678 -0.4187 -0.1388 -0.2299
 2400SOL    HW1 8099   0.938   4.303   0.604  1.8483  0.1238 -0.8252
 2400SOL    HW2 8100   1.034   4.419   0.668 -1.4278  2.0094  0.9256
 2401SOL     OW 8101   5.172   4.190   0.069 -0.1630 -0.6297  0.6381
 2401SOL    HW1 8102   5.137   4.234   0.152 -1.6328  0.3503 -0.4597
 2401SOL    HW2 8103   5.180   4.091   0.085  0.3073 -0.3835  2.1662
 2402SOL     OW 8104   6.213   5.199   3.760 -0.5981  0.6002 -0.1426
 2402SOL    HW1 8105   6.222   5.099   3.760 -0.1531  0.6400 -0.3421
 2402SOL    HW2 8106   6.172   5.228   3.847  1.9597  0.4761  1.2084
 2403SOL     OW 8107   0.701   2.028   4.398 -0.0960  0.3663 -0.0251
 2403SOL    HW1 8108   0.766   2.045   4.324  0.1466 -0.2281  0.0450
 2403SOL    HW2 8109   0.664   1.936   4.390  1.2293 -0.3720  1.5441
 2404SOL     OW 8110   5.840   6.052   0.785 -0.5832  0.4939 -0.3139
 2404SOL    HW1 8111   5.896   6.102   0.719  0.8124  0.6213  0.9148
 2404SOL    HW2 8112   5.822   6.111   0.864  0.4944 -0.6827  0.8467
 2405SOL     OW 8113   2.504   6.252   0.596  0.3085  0.6212 -0.8347
 2405SOL    HW1 8114   2.487   6.276   0.500  1.2730 -1.0262 -1.4804
 2405SOL    HW2 8115   2.531   6.155   0.601  0.6851  0.7903  1.0657
 2406SOL     OW 8116   4.610   1.350   1.232 -0.4177 -0.0305  0.3127
 2406SOL    HW1 8117   4.608   1.304   1.321  0.8842  1.1799  1.0266
 2406SOL    HW2 8118   4.523   1.396   1.216 -1.2033 -1.4997  0.2471
 2407SOL     OW 8119   5.192   0.472   3.671 -0.1707 -0.0770 -0.4387
 2407SOL    HW1 8120   5.278   0.422   3.658 -0.8035 -0.8297 -2.0462
 2407SOL    HW2 8121   5.119   0.406   3.689 -0.3477  0.5965  1.5056
 2408SOL     OW 8122   4.847   4.662   2.447 -0.0574  0.0313  0.5244
 2408SOL    HW1 8123   4.775   4.651   2.515 -0.7869 -0.4616 -0.2961
 2408SOL    HW2 8124   4.908   4.583   2.450 -0.7259 -0.5346 -0.0974
 2409SOL     OW 8125   1.877   5.133   0.237  0.0939 -0.9085 -0.2657
 2409SOL    HW1 8126   1.843   5.163   0.148  2.5837  1.1440 -0.6184
 2409SOL    HW2 8127   1.818   5.170   0.309 -0.3086 -0.1466 -0.9676
 2410SOL     OW 8128   3.157   3.334   4.060  0.1589 -0.3939  0.3825
 2410SOL    HW1 8129   3.247   3.308   4.026 -0.8215 -0.6154 -2.3166
 2410SOL    HW2 8130   3.109   3.253   4.093  0.2959 -0.5770  0.1327
 2411SOL     OW 8131   4.083   1.463   2.930 -0.0998  0.2221 -0.0705
 2411SOL    HW1 8132   4.104   1.369   2.901 -0.0495  0.2568 -0.1473
 2411SOL    HW2 8133   4.165   1.519   2.922 -0.4867  0.6251 -1.4404
 2412SOL     OW 8134   2.784   3.522   1.331 -0.1703 -0.7688  0.6015
 2412SOL    HW1 8135   2.751   3.554   1.242  0.9203 -0.6043  0.2377
 2412SOL    HW2 8136   2.754   3.427   1.346 -0.4425 -0.7635  0.1038
 2413SOL     OW 8137   4.197   6.560   3.720  0.1952  0.4159  0.0610
 2413SOL    HW1 8138   4.177   6.468   3.687  1.1134 -0.1012  0.8981
 2413SOL    HW2 8139   4.200   6.560   3.820 -0.3122  1.4751  0.0925
 2414SOL     OW 8140   5.317   3.031   4.520 -0.0677  0.4377 -0.3311
 2414SOL    HW1 8141   5.235   2.990   4.558  0.4451 -0.6050 -0.3379
 2414SOL    HW2 8142   5.327   3.004   4.424 -1.8735  3.7868 -1.6490
 2415SOL     OW 8143   3.458   0.117   4.225  0.1222  0.0576  0.1480
 2415SOL    HW1 8144   3.473   0.192   4.161  2.9308 -0.5685 -0.0500
 2415SOL    HW2 8145   3.439   0.033   4.174 -1.8984  0.3349  0.3429
 2416SOL     OW 8146   6.060   2.468   0.187 -0.5249  0.0698 -0.0842
 2416SOL    HW1 8147   6.099   2.550   0.146 -0.4115 -0.2070 -0.5464
 2416SOL    HW2 8148   6.051   2.397   0.117  2.0727 -1.3026  0.8153
 2417SOL     OW 8149   2.888   6.986   6.265  0.0577  1.1532  0.1209
 2417SOL    HW1 8150   2.823   7.056   6.234  0.8517  2.3658  1.1414
 2417SOL    HW2 8151   2.875   6.969   6.362  0.0464  0.0369 -0.0625
 2418SOL     OW 8152   3.720   4.095   2.847 -0.1850 -0.2783 -0.5323
 2418SOL    HW1 8153   3.668   4.103   2.932  0.5473  0.0482 -0.1114
 2418SOL    HW2 8154   3.741   4.187   2.812 -0.8242 -0.4041 -1.2870
 2419SOL     OW 8155   0.160   1.293   2.884 -0.8194 -0.1974 -0.1624
 2419SOL    HW1 8156   0.112   1.335   2.807 -1.0102  0.9689  0.5785
 2419SOL    HW2 8157   0.214   1.362   2.932 -1.6291 -0.6520  1.4556
 2420SOL     OW 8158   1.754   0.699   2.696  0.1312  0.2608  0.1078
 2420SOL    HW1 8159   1.718   0.617   2.740 -0.3274 -0.5544 -1.6808
 2420SOL    HW2 8160   1.826   0.738   2.752  0.8318 -1.7589  0.6934
 2421SOL     OW 8161   6.400   1.907   1.862 -0.1240 -0.6011 -0.3408
 2421SOL    HW1 8162   6.312   1.878   1.824 -0.1087  0.2382 -1.0441
 2421SOL    HW2 8163   6.435   1.984   1.809  0.2292  0.1652  0.9668
 2422SOL     OW 8164   3.887   1.446   0.552  0.0489 -0.1901  0.1673
 2422SOL    HW1 8165   3.860   1.537   0.520 -0.9737  0.0602  1.6554
 2422SOL    HW2 8166   3.877   1.381   0.477  1.3529  0.9927 -1.1007
 2423SOL     OW 8167   2.053   5.325   2.387 -0.2005 -0.0933  0.2775
 2423SOL    HW1 8168   2.054   5.330   2.287 -0.8111 -0.0099  0.2703
 2423SOL    HW2 8169   2.138   5.364   2.423 -1.2927  2.8972 -0.0894
 2424SOL     OW 8170   6.267   0.877   1.368  0.5658  0.8295 -0.7076
 2424SOL    HW1 8171   6.310   0.805   1.424 -1.6709  0.8062  1.1467
 2424SOL    HW2 8172   6.254   0.959   1.424 -0.2397  1.3973 -1.7064
 2425SOL     OW 8173   6.683   0.804   3.648  0.4438 -0.9252 -0.2256
 2425SOL    HW1 8174   6.602   0.824   3.593 -0.4118  0.9442  1.6059
 2425SOL    HW2 8175   6.670   0.716   3.695 -0.7584 -0.4105  0.4375
 2426SOL     OW 8176   2.155   5.010   4.829  0.1061 -0.5538  0.3412
 2426SOL    HW1 8177   2.097   5.007   4.910 -0.7934 -0.3712 -0.2742
 2426SOL    HW2 8178   2.236   4.954   4.843  0.7075  0.6389  1.9222
 2427SOL     OW 8179   5.740   2.243   6.696 -0.5238  1.5013 -0.0179
 2427SOL    HW1 8180   5.697   2.325   6.735  0.5898  1.9506  0.3070
 2427SOL    HW2 8181   5.669   2.175   6.675 -1.2657  1.6439  1.8260
 2428SOL     OW 8182   5.982   1.325   0.522 -0.5660 -0.1016 -0.2733
 2428SOL    HW1 8183   5.915   1.281   0.463 -0.1505 -0.7841 -0.2396
 2428SOL    HW2 8184   6.028   1.257   0.578 -1.9994  0.6579  1.9725
 2429SOL     OW 8185   6.811   3.952   3.082  0.2997  0.3171  0.1048
 2429SOL    HW1 8186   6.742   4.013   3.121  0.4731  0.0855  0.7805
 2429SOL    HW2 8187   6.829   3.979   2.988 -2.3926 -1.0297 -0.8969
 2430SOL     OW 8188   4.105   5.467   3.770 -0.0197  0.4831 -0.4494
 2430SOL    HW1 8189   4.059   5.467   3.682  1.0741  2.0768 -1.0747
 2430SOL    HW2 8190   4.182   5.530   3.767  2.5139 -2.3010  0.3832
 2431SOL     OW 8191   3.593   5.213   3.872  0.2004  0.3913  0.2013
 2431SOL    HW1 8192   3.587   5.122   3.832 -0.5259  1.4344 -2.2407
 2431SOL    HW2 8193   3.682   5.224   3.916  0.7043 -1.1327 -0.3764
 2432SOL     OW 8194   3.370   4.911   2.065  0.1718 -0.1702 -0.1775
 2432SOL    HW1 8195   3.384   4.949   2.157 -1.6899 -0.3159  0.2143
 2432SOL    HW2 8196   3.445   4.849   2.043  0.1661 -0.8985  1.6647
 2433SOL     OW 8197   4.232   6.233   0.992  0.2180 -0.1743  0.2796
 2433SOL    HW1 8198   4.230   6.311   1.055 -0.9419  1.1592 -1.3279
 2433SOL    HW2 8199   4.240   6.148   1.044 -0.1856  0.8976  2.1760
 2434SOL     OW 8200   2.562   3.480   5.815  0.3470 -0.7438 -0.1844
 2434SOL    HW1 8201   2.542   3.578   5.810  1.9596 -0.3253  0.8544
 2434SOL    HW2 8202   2.501   3.430   5.754 -0.8933  0.8455 -0.3047
 2435SOL     OW 8203   3.278   4.715   1.670  0.3897  0.0049 -0.1936
 2435SOL    HW1 8204   3.257   4.627   1.627  0.8742 -0.0524 -0.3142
 2435SOL    HW2 8205   3.372   4.714   1.704  0.1300  0.1801  0.5497
 2436SOL     OW 8206   1.993   5.091   5.334  0.0705 -0.4421 -0.1574
 2436SOL    HW1 8207   2.089   5.084   5.361  0.3321  0.5074 -0.7820
 2436SOL    HW2 8208   1.983   5.163   5.265 -1.1504 -0.2870  0.1628
 2437SOL     OW 8209   5.895   1.117   5.208 -1.0120 -0.1473  0.4718
 2437SOL    HW1 8210   5.874   1.213   5.189 -0.9342 -0.0971  0.6401
 2437SOL    HW2 8211   5.980   1.111   5.261 -0.7707 -0.3326  0.0694
 2438SOL     OW 8212   4.109   2.423   0.060 -0.1237 -0.1802 -0.6156
 2438SOL    HW1 8213   4.175   2.377   0.001 -0.2784 -0.9345 -0.1996
 2438SOL    HW2 8214   4.156   2.464   0.138 -0.1759 -0.9829 -0.1548
 2439SOL     OW 8215   1.078   5.293   4.951 -0.9440  0.0019 -0.0091
 2439SOL    HW1 8216   0.990   5.257   4.921 -1.0900  0.3650 -0.0137
 2439SOL    HW2 8217   1.095   5.264   5.045 -0.6001 -0.9219 -0.3455
 2440SOL     OW 8218   6.499   4.007   4.858 -0.1173 -0.1546 -0.4019
 2440SOL    HW1 8219   6.416   4.049   4.821 -0.6152 -0.5206  0.2526
 2440SOL    HW2 8220   6.523   4.052   4.944  0.7770  0.4139 -0.9418
 2441SOL     OW 8221   0.832   1.464   1.598 -0.0839  0.2581 -0.2951
 2441SOL    HW1 8222   0.733   1.471   1.597 -0.1629 -0.8088 -1.2041
 2441SOL    HW2 8223   0.860   1.375   1.632  0.5249  0.1330 -1.0725
 2442SOL     OW 8224   6.110   3.250   4.922  0.0414  0.4989 -0.0407
 2442SOL    HW1 8225   6.197   3.220   4.961  0.3071  1.0487 -0.2023
 2442SOL    HW2 8226   6.073   3.325   4.976 -0.6830 -0.1950  0.4341
 2443SOL     OW 8227   4.105   4.376   5.995 -0.2186 -0.1917 -0.8316
 2443SOL    HW1 8228   4.090   4.294   6.049  1.4774 -0.5747 -0.8781
 2443SOL    HW2 8229   4.198   4.375   5.957 -0.3978  1.4091 -1.4186
 2444SOL     OW 8230   2.936   3.295   4.441  0.2701 -0.3773  0.3987
 2444SOL    HW1 8231   2.839   3.293   4.465  0.6391 -0.1410  2.0125
 2444SOL    HW2 8232   2.950   3.362   4.368 -0.9560 -1.3835 -0.8103
 2445SOL     OW 8233   1.680   6.648   6.958 -0.0677  0.4494 -0.3473
 2445SOL    HW1 8234   1.739   6.696   7.023  1.1584  0.5947 -1.5337
 2445SOL    HW2 8235   1.617   6.713   6.916  0.5502  0.7465 -0.8238
 2446SOL     OW 8236   5.867   5.316   0.434 -0.0552 -0.3687 -0.3577
 2446SOL    HW1 8237   5.767   5.316   0.435 -0.0660  1.0489  0.3915
 2446SOL    HW2 8238   5.901   5.367   0.512  1.2775 -1.0467 -0.4748
 2447SOL     OW 8239   1.161   4.245   5.782 -0.0728  0.1383  0.5536
 2447SOL    HW1 8240   1.089   4.280   5.842  0.2870 -0.0169  1.0787
 2447SOL    HW2 8241   1.184   4.151   5.809  1.6950  0.8446  1.6525
 2448SOL     OW 8242   0.863   0.689   5.167  0.1592  0.9170  0.9834
 2448SOL    HW1 8243   0.819   0.755   5.106 -2.0399 -1.1336  0.1997
 2448SOL    HW2 8244   0.825   0.700   5.259  0.3266  1.2073  1.0186
 2449SOL     OW 8245   6.873   4.872   6.252  0.3415 -0.0174 -0.0841
 2449SOL    HW1 8246   6.851   4.924   6.334  0.9083  0.4976 -0.2465
 2449SOL    HW2 8247   6.912   4.784   6.278 -2.3731 -1.2266  0.2145
 2450SOL     OW 8248   2.052   1.893   1.568  0.2610  0.1311  0.2069
 2450SOL    HW1 8249   2.076   1.866   1.475 -1.5400  1.3905 -0.6707
 2450SOL    HW2 8250   2.046   1.993   1.574  1.2310  0.1308  1.9349
 2451SOL     OW 8251   1.761   6.243   2.886 -0.2589  0.5031 -0.0007
 2451SOL    HW1 8252   1.750   6.308   2.811 -0.8976  1.0236  0.5368
 2451SOL    HW2 8253   1.857   6.213   2.889 -0.1121  0.8675 -0.6980
 2452SOL     OW 8254   2.181   1.772   2.437 -0.5658 -0.3650 -0.4160
 2452SOL    HW1 8255   2.163   1.838   2.510  0.3477 -0.8417  0.2621
 2452SOL    HW2 8256   2.106   1.706   2.433 -0.7890 -0.1341 -0.1464
 2453SOL     OW 8257   1.167   4.534   0.363  0.3000 -0.1914 -0.2536
 2453SOL    HW1 8258   1.137   4.596   0.436 -0.3581  2.3103 -2.4877
 2453SOL    HW2 8259   1.267   4.540   0.354  0.3543 -0.2941  0.2545
 2454SOL     OW 8260   0.440   0.086   1.971 -0.0878 -0.1245 -0.0971
 2454SOL    HW1 8261   0.465   0.133   2.056 -0.7109  0.1519 -0.0547
 2454SOL    HW2 8262   0.450  -0.012   1.983  1.7749  0.0078 -0.3639
 2455SOL     OW 8263   5.238   3.528   6.625  0.1004  0.1061 -0.0886
 2455SOL    HW1 8264   5.180   3.595   6.580  0.3257  0.4940  0.1907
 2455SOL    HW2 8265   5.215   3.523   6.722 -0.1905 -0.5182 -0.1830
 2456SOL     OW 8266   2.348   0.284   6.869 -0.2750  0.2736 -0.0408
 2456SOL    HW1 8267   2.413   0.214   6.899  0.2226  0.0772 -1.5116
 2456SOL    HW2 8268   2.255   0.256   6.894  0.1093  0.2798  1.5541
 2457SOL     OW 8269   4.913   5.648   6.640  0.1706  0.0045  0.6071
 2457SOL    HW1 8270   4.928   5.557   6.602 -0.4350 -0.0492  0.4955
 2457SOL    HW2 8271   4.850   5.643   6.718  1.5215  0.0909  1.7535
 2458SOL     OW 8272   6.483   6.952   1.212  0.5816  0.2415 -0.1162
 2458SOL    HW1 8273   6.423   7.021   1.172 -1.2655 -0.5948  1.0507
 2458SOL    HW2 8274   6.473   6.866   1.162  0.4962 -0.0034  0.3143
 2459SOL     OW 8275   3.171   1.364   5.688 -0.0051 -0.6417  0.2995
 2459SOL    HW1 8276   3.231   1.394   5.762  1.9544 -1.8131 -0.7402
 2459SOL    HW2 8277   3.156   1.439   5.624 -0.0706 -0.2074  0.8126
 2460SOL     OW 8278   5.676   4.402   1.291 -0.1963 -0.6873 -0.3947
 2460SOL    HW1 8279   5.592   4.456   1.301  1.3439  1.9907 -1.0541
 2460SOL    HW2 8280   5.725   4.401   1.377  1.2914  1.7748 -1.1175
 2461SOL     OW 8281   5.305   6.093   2.003 -0.1050 -0.7717  0.0351
 2461SOL    HW1 8282   5.271   6.164   2.064 -2.1060 -1.6194 -0.0304
 2461SOL    HW2 8283   5.390   6.056   2.039 -0.2679  0.0309  1.3069
 2462SOL     OW 8284   3.486   3.679   0.516 -0.2136  0.1271 -0.3146
 2462SOL    HW1 8285   3.403   3.700   0.568  1.0416  2.0633  1.0161
 2462SOL    HW2 8286   3.507   3.581   0.526 -2.1804 -0.3667 -0.5216
 2463SOL     OW 8287   5.923   0.978   6.817  0.1435 -0.4085 -0.5588
 2463SOL    HW1 8288   5.907   0.991   6.915 -2.4257  0.2289 -0.9895
 2463SOL    HW2 8289   5.914   0.881   6.794  2.8325 -0.9085  0.0683
 2464SOL     OW 8290   6.980   5.475   6.661 -0.4500  0.4409  0.0770
 2464SOL    HW1 8291   6.968   5.560   6.611 -1.5555  0.3924  0.2464
 2464SOL    HW2 8292   7.075   5.469   6.693 -0.4462  1.7617  0.3598
 2465SOL     OW 8293   6.114   5.159   4.733  0.0786 -0.5970  0.2453
 2465SOL    HW1 8294   6.056   5.087   4.772  0.2029 -0.8945 -0.1161
 2465SOL    HW2 8295   6.108   5.241   4.790 -2.2521  0.0583 -0.8125
 2466SOL     OW 8296   3.789   1.361   3.166  0.8056  0.0012 -0.1501
 2466SOL    HW1 8297   3.729   1.297   3.118  0.7417 -1.3734  1.6276
 2466SOL    HW2 8298   3.844   1.311   3.233  1.2018  1.7477  0.8987
 2467SOL     OW 8299   2.597   1.189   5.442  0.2344 -0.7188 -0.4679
 2467SOL    HW1 8300   2.545   1.222   5.363  0.3954  1.0385  0.1190
 2467SOL    HW2 8301   2.694   1.187   5.419  0.3076  0.0385 -0.2550
 2468SOL     OW 8302   0.455   0.725   1.163 -0.2872 -0.1565 -0.3222
 2468SOL    HW1 8303   0.388   0.663   1.120 -3.3312  1.2260  2.0359
 2468SOL    HW2 8304   0.446   0.816   1.123  2.0310 -0.4485 -1.6608
 2469SOL     OW 8305   4.045   3.508   5.123 -0.2361  0.1492 -0.2073
 2469SOL    HW1 8306   4.081   3.444   5.055 -1.1463  0.0227 -0.5999
 2469SOL    HW2 8307   3.948   3.524   5.104 -0.3105  0.7168  0.6096
 2470SOL     OW 8308   3.794   3.626   1.404  0.0479 -0.1323 -0.7095
 2470SOL    HW1 8309   3.698   3.608   1.384  0.1289  0.5411 -1.7676
 2470SOL    HW2 8310   3.841   3.651   1.320  1.3575 -1.3068 -0.3696
 2471SOL     OW 8311   0.577   0.039   2.772  0.0405 -0.1284 -0.5057
 2471SOL    HW1 8312   0.487   0.001   2.794  1.1406 -2.0720  0.8928
 2471SOL    HW2 8313   0.634   0.040   2.854  1.8892 -0.6570 -1.7225
 2472SOL     OW 8314   5.255   2.598   4.130 -0.0968 -0.1783  0.5957
 2472SOL    HW1 8315   5.157   2.596   4.149 -0.2737  0.9522 -0.0971
 2472SOL    HW2 8316   5.271   2.640   4.040  0.9446 -1.5474  0.0902
 2473SOL     OW 8317   0.177   6.171   4.292 -0.5167  0.4302 -0.2376
 2473SOL    HW1 8318   0.133   6.081   4.298  0.8626 -0.1874  1.4245
 2473SOL    HW2 8319   0.152   6.225   4.372  0.2409  0.7821 -0.2353
 2474SOL     OW 8320   4.936   5.881   5.461 -0.0450 -0.8100 -0.1692
 2474SOL    HW1 8321   4.965   5.916   5.372 -0.2249 -0.7281 -0.1963
 2474SOL    HW2 8322   4.998   5.914   5.531 -1.3275  1.2554  0.0873
 2475SOL     OW 8323   4.774   2.727   6.244  0.6896  0.0538 -0.0611
 2475SOL    HW1 8324   4.729   2.762   6.327  0.3300 -1.3749  0.3767
 2475SOL    HW2 8325   4.809   2.804   6.190 -0.8742  1.1300  0.3877
 2476SOL     OW 8326   0.955   1.912   4.605  0.4242 -0.1237  0.4509
 2476SOL    HW1 8327   0.871   1.951   4.567  0.4344 -2.3901 -2.1893
 2476SOL    HW2 8328   1.014   1.986   4.637 -0.5048  1.8869 -2.1271
 2477SOL     OW 8329   5.450   2.802   2.532 -0.3498  0.1795 -0.2424
 2477SOL    HW1 8330   5.433   2.822   2.436 -0.5261  0.1820 -0.2127
 2477SOL    HW2 8331   5.408   2.713   2.555  0.3493 -0.1844 -0.3542
 2478SOL     OW 8332   1.076   0.116   1.614 -0.0707 -0.7694 -0.1474
 2478SOL    HW1 8333   1.130   0.035   1.594  0.0838 -0.4216 -1.1736
 2478SOL    HW2 8334   0.987   0.089   1.652  1.4134 -1.3404  3.3377
 2479SOL     OW 8335   0.839   2.494   0.937  0.3311 -0.4920 -0.0990
 2479SOL    HW1 8336   0.799   2.500   0.845  0.0032 -0.7224  0.0264
 2479SOL    HW2 8337   0.866   2.585   0.967  0.4268 -0.4122 -0.4177
 2480SOL     OW 8338   6.334   6.183   6.743  0.1421  0.1237  0.2041
 2480SOL    HW1 8339   6.379   6.210   6.658  1.5435  4.3578  2.0474
 2480SOL    HW2 8340   6.236   6.201   6.736  0.2842  0.6695 -0.4090
 2481SOL     OW 8341   5.661   4.972   5.146  0.3189 -0.4252  0.7049
 2481SOL    HW1 8342   5.741   4.913   5.155  0.4019 -0.6464 -1.1538
 2481SOL    HW2 8343   5.639   4.985   5.049 -1.9270 -0.4057  1.1554
 2482SOL     OW 8344   5.070   2.056   4.124  0.4735 -0.3090  0.2852
 2482SOL    HW1 8345   5.169   2.045   4.132  0.8685  2.2632 -0.2269
 2482SOL    HW2 8346   5.049   2.117   4.047 -1.6208 -1.8418 -0.4679
 2483SOL     OW 8347   2.479   4.239   6.873 -0.5540  0.0004  0.5541
 2483SOL    HW1 8348   2.489   4.166   6.940 -1.2213  0.6236  1.3619
 2483SOL    HW2 8349   2.462   4.201   6.783  0.7397 -0.8670  0.6536
 2484SOL     OW 8350   3.082   3.075   3.644  0.2051  0.1018  0.9319
 2484SOL    HW1 8351   3.129   3.037   3.724 -0.5513 -0.3568  1.1601
 2484SOL    HW2 8352   2.997   3.118   3.673 -0.2153 -0.3180  0.3387
 2485SOL     OW 8353   0.016   6.339   0.755 -0.1987  0.0913  0.2169
 2485SOL    HW1 8354   0.011   6.425   0.806  1.4338  0.5860 -0.4026
 2485SOL    HW2 8355  -0.029   6.350   0.667  0.5611  0.5208 -0.1226
 2486SOL     OW 8356   5.876   5.084   3.366 -0.0579  0.6774 -0.0114
 2486SOL    HW1 8357   5.883   5.119   3.459 -0.8622  1.9664 -0.4088
 2486SOL    HW2 8358   5.782   5.053   3.349  0.9380 -3.3923  0.8543
 2487SOL     OW 8359   2.880   1.600   1.376 -0.2798  0.9920 -0.0285
 2487SOL    HW1 8360   2.876   1.635   1.282 -0.3429  0.2689 -0.3064
 2487SOL    HW2 8361   2.951   1.649   1.427 -0.3519  1.4991 -0.4069
 2488SOL     OW 8362   3.977   6.265   6.092  0.7814  0.1014  0.3797
 2488SOL    HW1 8363   4.018   6.174   6.088  1.0201  0.2160  0.1917
 2488SOL    HW2 8364   3.924   6.274   6.176  1.3539  0.0375  0.7488
 2489SOL     OW 8365   6.472   5.823   3.795 -0.1289  0.1909 -0.5494
 2489SOL    HW1 8366   6.514   5.891   3.855 -0.1323 -0.9052  0.7368
 2489SOL    HW2 8367   6.413   5.869   3.729 -0.6475  1.3903  0.7091
 2490SOL     OW 8368   6.023   3.556   1.042  0.1266  0.0007 -0.1581
 2490SOL    HW1 8369   5.978   3.639   1.010  0.9935  0.4891 -0.1260
 2490SOL    HW2 8370   6.005   3.482   0.976 -0.1434  0.3631 -0.5006
 2491SOL     OW 8371   6.329   4.012   3.713  0.1027  0.3165  0.0261
 2491SOL    HW1 8372   6.323   3.930   3.770 -1.3570  0.5427  0.2493
 2491SOL    HW2 8373   6.239   4.055   3.708  0.7287  1.6126 -0.5328
 2492SOL     OW 8374   3.668   1.519   0.776 -0.0761  0.5033 -0.1136
 2492SOL    HW1 8375   3.713   1.469   0.703 -0.4471 -0.1763  0.1089
 2492SOL    HW2 8376   3.727   1.592   0.809  0.0274  0.9080 -1.1926
 2493SOL     OW 8377   6.395   1.297   3.935  0.1741  0.4326  0.1534
 2493SOL    HW1 8378   6.365   1.235   3.862 -2.3988  1.4692  0.2284
 2493SOL    HW2 8379   6.410   1.388   3.898  0.5340  0.5748  0.6326
 2494SOL     OW 8380   5.559   6.436   1.933  0.1723 -0.1090 -0.4201
 2494SOL    HW1 8381   5.544   6.429   1.834 -2.6554 -1.3440 -0.0049
 2494SOL    HW2 8382   5.602   6.351   1.966 -2.0067 -1.1841 -0.1900
 2495SOL     OW 8383   6.809   2.466   4.414 -0.7573 -0.2683 -0.0204
 2495SOL    HW1 8384   6.745   2.389   4.424  1.9091 -2.5384  0.8961
 2495SOL    HW2 8385   6.872   2.466   4.492  1.0821  1.1400 -1.4416
 2496SOL     OW 8386   2.236   2.955   1.896 -0.0316 -0.2491 -0.1953
 2496SOL    HW1 8387   2.185   3.038   1.917 -1.5169 -1.2800  0.4839
 2496SOL    HW2 8388   2.305   2.974   1.827 -0.7401  1.4113 -0.4793
 2497SOL     OW 8389   6.822   3.510   0.131  0.2038 -0.1303 -0.3524
 2497SOL    HW1 8390   6.839   3.605   0.154 -0.8351 -0.0782  0.2734
 2497SOL    HW2 8391   6.765   3.467   0.202  0.1319 -1.0361 -0.9281
 2498SOL     OW 8392   1.274   3.911   4.896  0.3903  0.0637  0.1637
 2498SOL    HW1 8393   1.237   3.944   4.810  0.1791 -0.1957  0.1517
 2498SOL    HW2 8394   1.220   3.947   4.972 -0.6061 -1.2178  0.0928
 2499SOL     OW 8395   4.156   0.479   0.196 -0.0034  0.2375 -0.3451
 2499SOL    HW1 8396   4.132   0.561   0.144 -1.3936  0.6751  0.9117
 2499SOL    HW2 8397   4.172   0.503   0.292  0.2942 -0.8534 -0.1030
 2500SOL     OW 8398   2.995   2.130   5.597  0.1502  0.1058  0.3182
 2500SOL    HW1 8399   3.048   2.213   5.615  1.1011 -0.2813 -0.5668
 2500SOL    HW2 8400   2.902   2.142   5.632  0.9843  0.5290  2.6075
 2501SOL     OW 8401   4.634   4.302   1.268 -0.6634  0.3734  0.0132
 2501SOL    HW1 8402   4.560   4.331   1.330  0.3103 -0.6099  1.7273
 2501SOL    HW2 8403   4.675   4.218   1.303  1.1082  0.7475 -1.0397
 2502SOL     OW 8404   6.156   6.223   0.925  0.0149 -0.1789  0.5613
 2502SOL    HW1 8405   6.073   6.228   0.980 -0.5667 -1.0720 -0.2118
 2502SOL    HW2 8406   6.134   6.187   0.834  1.0501  0.7189 -0.0675
 2503SOL     OW 8407   6.140   5.661   2.589  0.1054 -0.3043 -0.7044
 2503SOL    HW1 8408   6.232   5.701   2.581  0.1031 -0.3414 -0.9030
 2503SOL    HW2 8409   6.147   5.574   2.637  0.2763 -0.6790 -1.3942
 2504SOL     OW 8410   5.253   4.493   3.696 -0.5360 -0.4285  0.0694
 2504SOL    HW1 8411   5.342   4.507   3.740 -0.8784  2.3559  0.0933
 2504SOL    HW2 8412   5.242   4.397   3.671  2.1596 -0.9763  0.7020
 2505SOL     OW 8413   5.839   2.585   4.933  0.4889  0.3714  0.1998
 2505SOL    HW1 8414   5.788   2.650   4.878 -0.3727  0.8062  1.4594
 2505SOL    HW2 8415   5.929   2.568   4.892  0.6896  2.2686 -0.2045
 2506SOL     OW 8416   2.868   5.685   0.893 -0.1893 -0.5975  0.1730
 2506SOL    HW1 8417   2.866   5.785   0.884 -1.0241 -0.4412  1.8045
 2506SOL    HW2 8418   2.963   5.654   0.903  0.0504  0.0517 -0.0482
 2507SOL     OW 8419   6.646   4.528   1.494 -0.7812  0.1050 -0.3353
 2507SOL    HW1 8420   6.582   4.463   1.454  0.6776 -0.5365 -1.7332
 2507SOL    HW2 8421   6.723   4.542   1.432  0.6204  0.5753  1.4181
 2508SOL     OW 8422   1.667   2.275   1.233  0.4368  0.1251 -0.3411
 2508SOL    HW1 8423   1.622   2.255   1.146 -2.2660  0.0515  0.9839
 2508SOL    HW2 8424   1.736   2.205   1.252  0.2238 -0.5303 -1.8313
 2509SOL     OW 8425   6.450   0.948   3.944  0.0314  0.1972  0.3440
 2509SOL    HW1 8426   6.385   0.915   4.013  0.4518 -0.0533  0.6232
 2509SOL    HW2 8427   6.526   0.995   3.990 -0.5473  1.5549 -0.0436
 2510SOL     OW 8428   5.346   6.323   1.299 -0.3620  0.0891 -0.8794
 2510SOL    HW1 8429   5.275   6.371   1.351 -0.4233 -0.8950 -0.0315
 2510SOL    HW2 8430   5.393   6.389   1.240 -0.7374  1.1132 -0.0828
 2511SOL     OW 8431   0.734   4.604   4.228 -0.0157 -0.3905  0.2454
 2511SOL    HW1 8432   0.816   4.555   4.200 -0.7100 -1.2616 -0.3224
 2511SOL    HW2 8433   0.700   4.566   4.314 -0.2447 -0.5328  0.0919
 2512SOL     OW 8434   6.533   2.617   4.663 -0.0062  0.0190 -0.6893
 2512SOL    HW1 8435   6.622   2.661   4.655 -0.8652  1.8645 -0.4643
 2512SOL    HW2 8436   6.500   2.626   4.757 -0.7505 -0.0281 -0.9402
 2513SOL     OW 8437   0.710   3.300   1.259 -0.1417 -0.5297  0.0306
 2513SOL    HW1 8438   0.742   3.205   1.256 -1.8001 -1.1036 -1.2237
 2513SOL    HW2 8439   0.789   3.361   1.265  1.1730 -1.8958 -1.9697
 2514SOL     OW 8440   0.190   2.293   4.175  0.2283  0.2299 -0.0080
 2514SOL    HW1 8441   0.258   2.261   4.241 -0.8569 -0.4049  0.8460
 2514SOL    HW2 8442   0.099   2.260   4.203 -0.4836  1.3789 -0.8892
 2515SOL     OW 8443   6.395   5.193   5.383 -0.2152  0.4042 -0.0792
 2515SOL    HW1 8444   6.328   5.245   5.329  0.0155  0.8551  0.0597
 2515SOL    HW2 8445   6.455   5.142   5.322  1.0123  2.0790 -0.3698
 2516SOL     OW 8446   5.765   0.093   5.764  0.3089  0.9040 -0.1994
 2516SOL    HW1 8447   5.692   0.157   5.787 -0.9422 -0.4654 -0.2582
 2516SOL    HW2 8448   5.816   0.069   5.846 -0.9244 -0.0567  0.3134
 2517SOL     OW 8449   3.402   0.410   6.115  0.1428 -0.4553  0.1166
 2517SOL    HW1 8450   3.404   0.498   6.068 -1.2123 -0.4803 -0.0458
 2517SOL    HW2 8451   3.322   0.358   6.085  0.5176 -1.4373  0.7548
 2518SOL     OW 8452   2.035   1.794   5.472 -0.4629 -0.2165  0.2046
 2518SOL    HW1 8453   1.950   1.800   5.419  0.0526  0.1524 -0.6002
 2518SOL    HW2 8454   2.113   1.806   5.411  0.1776 -0.6961  0.9185
 2519SOL     OW 8455   0.448   2.429   2.926 -0.2127 -0.0530  0.0954
 2519SOL    HW1 8456   0.450   2.418   2.827 -0.5474  2.5820 -0.2711
 2519SOL    HW2 8457   0.357   2.461   2.954  0.4710  1.2501  0.9465
 2520SOL     OW 8458   3.562   4.334   1.722 -0.5186 -0.0594 -0.4476
 2520SOL    HW1 8459   3.538   4.346   1.625 -1.0864  0.3078 -0.2666
 2520SOL    HW2 8460   3.569   4.424   1.766 -1.1227 -0.2478  0.0519
 2521SOL     OW 8461   4.565   0.031   4.639  0.8065  0.5875  0.4912
 2521SOL    HW1 8462   4.646   0.077   4.675  0.5487 -0.7289  2.9681
 2521SOL    HW2 8463   4.576  -0.068   4.647 -1.0184  0.3790  0.8203
 2522SOL     OW 8464   2.823   6.489   5.403  0.7163 -0.1872 -0.2708
 2522SOL    HW1 8465   2.905   6.504   5.459  1.6629 -1.4757 -1.2553
 2522SOL    HW2 8466   2.806   6.571   5.348  0.6957  0.4930  0.7121
 2523SOL     OW 8467   2.291   1.384   5.430 -0.0895  0.3732  0.6478
 2523SOL    HW1 8468   2.217   1.443   5.463  1.6562  2.3497  1.2474
 2523SOL    HW2 8469   2.347   1.353   5.506  1.3296  1.2577  0.0183
 2524SOL     OW 8470   2.181   6.578   5.510  0.8978  0.4064  0.0596
 2524SOL    HW1 8471   2.245   6.652   5.491  1.0741  0.3794  0.5507
 2524SOL    HW2 8472   2.091   6.602   5.473  1.4424 -0.0599 -1.6889
 2525SOL     OW 8473   2.126   4.685   2.619  0.0046 -0.0804  0.1588
 2525SOL    HW1 8474   2.223   4.673   2.602 -0.0774 -1.5027  0.5952
 2525SOL    HW2 8475   2.074   4.610   2.578 -0.7416 -0.2625  1.3656
 2526SOL     OW 8476   1.530   3.090   4.544 -0.2870 -0.0374 -1.0403
 2526SOL    HW1 8477   1.621   3.129   4.525 -0.0000 -0.7978 -1.2524
 2526SOL    HW2 8478   1.467   3.117   4.472 -0.2837  0.6488 -0.7975
 2527SOL     OW 8479   0.471   6.087   3.688 -0.0523  0.4344  0.0190
 2527SOL    HW1 8480   0.456   6.105   3.785  1.0303 -0.3578  0.3562
 2527SOL    HW2 8481   0.434   5.997   3.664  2.0380 -0.5738  0.3618
 2528SOL     OW 8482   5.741   3.376   1.879 -0.2435  0.0614 -0.2228
 2528SOL    HW1 8483   5.791   3.462   1.887  0.2898 -0.3164  0.6615
 2528SOL    HW2 8484   5.782   3.319   1.808  0.5169 -0.1874  0.4011
 2529SOL     OW 8485   6.597   5.011   5.692 -0.1981 -0.2390  0.2728
 2529SOL    HW1 8486   6.621   4.914   5.683 -0.9818 -0.5916  1.6591
 2529SOL    HW2 8487   6.512   5.019   5.744  0.3267  1.2330  0.9486
 2530SOL     OW 8488   1.102   0.539   2.935  0.2406  0.0523  0.0133
 2530SOL    HW1 8489   1.122   0.636   2.941  1.1707 -0.1989  2.5336
 2530SOL    HW2 8490   1.181   0.491   2.896  0.8018  0.0827  1.0685
 2531SOL     OW 8491   4.648   2.322   5.508 -0.3114  0.5412 -0.1562
 2531SOL    HW1 8492   4.586   2.381   5.560 -0.9616  0.0977 -0.4171
 2531SOL    HW2 8493   4.731   2.372   5.486 -0.4146  1.0246  0.5255
 2532SOL     OW 8494   0.436   5.322   0.641 -0.4503  0.0571 -0.2650
 2532SOL    HW1 8495   0.465   5.381   0.566  0.4126 -0.1882 -0.1330
 2532SOL    HW2 8496   0.497   5.244   0.648  0.5390  0.9183  1.7320
 2533SOL     OW 8497   5.482   6.370   3.853 -0.1651  0.2549 -0.4225
 2533SOL    HW1 8498   5.556   6.376   3.786 -1.3542 -1.2809 -1.9551
 2533SOL    HW2 8499   5.521   6.374   3.945  2.0520 -2.1721 -1.1198
 2534SOL     OW 8500   0.728   6.639   0.481 -0.2934  0.6930 -0.1649
 2534SOL    HW1 8501   0.701   6.552   0.522 -1.9530  1.8511  1.3261
 2534SOL    HW2 8502   0.827   6.646   0.481 -0.0969 -1.3677 -0.7314
 2535SOL     OW 8503   2.592   0.248   1.249  0.2032 -0.4429  0.8145
 2535SOL    HW1 8504   2.501   0.273   1.216  0.3514 -0.5773  0.2836
 2535SOL    HW2 8505   2.652   0.232   1.170  1.1300  1.2296  1.1567
 2536SOL     OW 8506   1.665   0.189   1.744  0.2083 -0.0870 -0.7549
 2536SOL    HW1 8507   1.675   0.288   1.752  0.1681 -0.1844  0.8010
 2536SOL    HW2 8508   1.572   0.162   1.770 -0.4849 -0.3664 -3.2600
 2537SOL     OW 8509   3.341   6.120   1.391  0.5026  0.6239 -0.0968
 2537SOL    HW1 8510   3.407   6.050   1.416  2.1662  1.1979 -2.5014
 2537SOL    HW2 8511   3.297   6.096   1.304 -1.3044  1.0512  0.6493
 2538SOL     OW 8512   1.872   5.150   4.131  0.1243 -0.7589  0.5285
 2538SOL    HW1 8513   1.787   5.106   4.160 -0.0139 -0.4157  0.6434
 2538SOL    HW2 8514   1.920   5.187   4.210 -0.3985  0.4367  0.3120
 2539SOL     OW 8515   1.685   0.232   5.423  0.1981  0.1768 -0.6255
 2539SOL    HW1 8516   1.776   0.194   5.407 -0.3887 -0.8496 -1.7135
 2539SOL    HW2 8517   1.693   0.319   5.472  1.6504 -0.8282  1.0548
 2540SOL     OW 8518   5.853   0.956   2.684  0.1298  0.0953 -0.0961
 2540SOL    HW1 8519   5.913   0.995   2.753 -0.5162  1.2902 -0.1792
 2540SOL    HW2 8520   5.868   1.002   2.597  0.6443 -1.1182 -0.6747
 2541SOL     OW 8521   0.667   1.896   6.426 -0.5274 -1.0076  0.3422
 2541SOL    HW1 8522   0.656   1.993   6.445 -1.7145 -1.2280  0.8713
 2541SOL    HW2 8523   0.703   1.884   6.334  2.1080 -0.0128  1.1436
 2542SOL     OW 8524   1.666   2.979   4.150 -0.0684 -0.0416 -1.0781
 2542SOL    HW1 8525   1.682   2.881   4.154 -0.3509 -0.0563 -0.1264
 2542SOL    HW2 8526   1.571   2.996   4.122  0.0411 -0.0316 -1.4507
 2543SOL     OW 8527   5.368   6.111   5.028 -0.2272 -0.2054  0.2549
 2543SOL    HW1 8528   5.276   6.100   5.065 -0.7990  2.6207 -0.1375
 2543SOL    HW2 8529   5.415   6.186   5.075  0.1518  1.4553 -2.5194
 2544SOL     OW 8530   6.783   2.119   0.609 -0.5542  0.1962 -0.0387
 2544SOL    HW1 8531   6.882   2.106   0.602 -0.4879  1.0577 -0.8830
 2544SOL    HW2 8532   6.738   2.030   0.610  0.3640 -0.3717  3.4226
 2545SOL     OW 8533   0.165   1.106   0.980 -0.0054  0.6512  0.2136
 2545SOL    HW1 8534   0.176   1.079   0.885  1.3440  1.9042 -0.0172
 2545SOL    HW2 8535   0.105   1.186   0.985 -1.5878 -0.5024  0.6257
 2546SOL     OW 8536   6.087   1.938   2.069 -0.1541 -0.1421  0.1181
 2546SOL    HW1 8537   6.035   1.863   2.112  1.4263 -1.6130 -0.4165
 2546SOL    HW2 8538   6.081   1.929   1.969  0.6132  0.0248  0.0514
 2547SOL     OW 8539   5.075   4.534   6.414 -0.2496  0.0949  0.3677
 2547SOL    HW1 8540   5.135   4.608   6.383 -0.7298 -0.2157 -1.3857
 2547SOL    HW2 8541   5.005   4.517   6.345 -0.8526 -1.2301  1.2720
 2548SOL     OW 8542   3.464   6.423   4.115  0.5417  0.2483 -0.2299
 2548SOL    HW1 8543   3.367   6.404   4.128  0.2533  1.7398 -0.0375
 2548SOL    HW2 8544   3.507   6.347   4.067 -0.9914  0.1446 -1.5067
 2549SOL     OW 8545   2.463   3.249   6.265 -0.2775 -0.0734  0.4181
 2549SOL    HW1 8546   2.494   3.339   6.235  0.7643 -0.7707 -0.6799
 2549SOL    HW2 8547   2.430   3.197   6.187 -0.3846 -0.8443  0.9665
 2550SOL     OW 8548   4.274   2.250   2.861  0.5240  0.1859 -0.1342
 2550SOL    HW1 8549   4.342   2.179   2.873 -0.3317 -0.5236  0.6862
 2550SOL    HW2 8550   4.187   2.209   2.831  0.3591  1.0312 -0.8734
 2551SOL     OW 8551   1.093   4.797   0.487  0.1496 -0.3119  0.0945
 2551SOL    HW1 8552   1.058   4.847   0.408 -0.2714  2.7877  2.0592
 2551SOL    HW2 8553   1.019   4.746   0.530 -0.1981  0.0146 -0.1053
 2552SOL     OW 8554   2.334   4.921   6.469 -0.3753  0.6293  0.1965
 2552SOL    HW1 8555   2.374   4.965   6.389  0.9531 -1.4544 -0.3656
 2552SOL    HW2 8556   2.245   4.883   6.445  0.8458 -1.6987 -0.9646
 2553SOL     OW 8557   4.241   2.308   3.824 -0.0657  0.1795  0.5012
 2553SOL    HW1 8558   4.221   2.295   3.727  0.8961  1.4325  0.1184
 2553SOL    HW2 8559   4.291   2.228   3.859  0.1635  0.0174 -0.1969
 2554SOL     OW 8560   2.198   4.752   1.221 -0.6922 -0.1242 -0.0846
 2554SOL    HW1 8561   2.289   4.712   1.217 -1.0746 -0.9237 -1.9081
 2554SOL    HW2 8562   2.199   4.842   1.178 -0.6754  0.0834  0.3428
 2555SOL     OW 8563   6.843   6.134   4.645 -1.2762  0.7653  0.1905
 2555SOL    HW1 8564   6.942   6.146   4.650 -0.7269 -2.5991 -0.0558
 2555SOL    HW2 8565   6.804   6.136   4.736 -0.7333  0.5886  0.4316
 2556SOL     OW 8566   5.264   1.446   1.260  0.1297  0.0957 -0.4476
 2556SOL    HW1 8567   5.195   1.462   1.330  1.2179 -0.7017  0.8526
 2556SOL    HW2 8568   5.300   1.533   1.228  1.5444  0.4976  1.9997
 2557SOL     OW 8569   3.858   0.846   0.968 -0.0461 -0.2793 -0.1995
 2557SOL    HW1 8570   3.778   0.848   1.029  0.3244 -4.8060  0.7588
 2557SOL    HW2 8571   3.940   0.867   1.021  0.2547 -4.0162  1.0790
 2558SOL     OW 8572   0.288   1.562   3.311  0.0828 -0.5649  0.0522
 2558SOL    HW1 8573   0.194   1.542   3.339  0.2704 -0.1882  0.9895
 2558SOL    HW2 8574   0.351   1.537   3.385  0.4938  1.5402  0.4825
 2559SOL     OW 8575   0.017   0.554   3.122  0.7012  0.6647 -0.7016
 2559SOL    HW1 8576   0.063   0.620   3.182  2.2131  0.7475 -1.8890
 2559SOL    HW2 8577   0.077   0.532   3.045  0.4800 -2.4927 -0.1169
 2560SOL     OW 8578   2.885   3.386   3.576 -0.6122  0.2891 -0.2563
 2560SOL    HW1 8579   2.914   3.473   3.536  0.3089 -0.3824 -1.0765
 2560SOL    HW2 8580   2.896   3.390   3.675  0.7909  0.6168 -0.4075
 2561SOL     OW 8581   4.116   7.010   4.364 -0.3600 -0.2199 -0.1731
 2561SOL    HW1 8582   4.215   7.025   4.371  0.4078 -4.0144 -0.4144
 2561SOL    HW2 8583   4.081   6.983   4.454 -0.6801 -0.9563 -0.5062
 2562SOL     OW 8584   0.751   6.588   3.319  0.2658  0.1667 -0.0030
 2562SOL    HW1 8585   0.779   6.493   3.309 -1.7055 -0.4826  0.1665
 2562SOL    HW2 8586   0.719   6.604   3.412 -3.3250 -0.2301 -1.0089
 2563SOL     OW 8587   4.728   1.056   1.061 -0.0474  0.2302 -0.1926
 2563SOL    HW1 8588   4.816   1.104   1.070  0.1479  0.2174 -1.7558
 2563SOL    HW2 8589   4.680   1.089   0.980 -0.6065 -1.1468 -0.4560
 2564SOL     OW 8590   1.949   1.654   1.641 -0.5433  0.1353  0.3050
 2564SOL    HW1 8591   1.876   1.669   1.708 -1.6032  1.2411 -1.0649
 2564SOL    HW2 8592   1.998   1.739   1.625  0.6602 -0.4563  0.7313
 2565SOL     OW 8593   5.047   2.069   6.628  0.2330 -0.2849  0.1024
 2565SOL    HW1 8594   5.058   1.982   6.675  0.2939 -1.2576 -1.6395
 2565SOL    HW2 8595   4.952   2.079   6.598 -0.1363  0.9502  1.5307
 2566SOL     OW 8596   2.368   1.311   1.902 -0.3780 -0.2880 -0.0180
 2566SOL    HW1 8597   2.354   1.380   1.831 -0.9027  1.4516  1.6749
 2566SOL    HW2 8598   2.423   1.350   1.975 -2.2437 -1.0068  1.8622
 2567SOL     OW 8599   1.811   6.517   3.889  0.1346  0.6651  0.2037
 2567SOL    HW1 8600   1.771   6.451   3.953  1.5691 -0.4207  0.0133
 2567SOL    HW2 8601   1.742   6.586   3.867 -0.8680  0.2295  1.7484
 2568SOL     OW 8602   3.653   6.040   0.148 -0.0687 -0.3651 -0.4270
 2568SOL    HW1 8603   3.605   6.058   0.062  0.5636  1.9778 -0.3433
 2568SOL    HW2 8604   3.642   6.118   0.210 -0.4798 -1.9818  1.6432
 2569SOL     OW 8605   4.363   6.817   6.281  0.1275 -0.5122 -0.0241
 2569SOL    HW1 8606   4.355   6.809   6.381  2.0492  0.3728  0.2544
 2569SOL    HW2 8607   4.425   6.746   6.248  2.4467  1.3962 -0.0333
 2570SOL     OW 8608   0.759   6.289   3.241 -0.7360  0.0580  0.1303
 2570SOL    HW1 8609   0.772   6.190   3.252 -0.5738  0.0278 -0.3195
 2570SOL    HW2 8610   0.702   6.306   3.161 -0.2607  0.3561 -0.1499
 2571SOL     OW 8611   3.443   3.106   2.111 -0.0781  0.3382  0.2783
 2571SOL    HW1 8612   3.524   3.148   2.071 -0.6750  1.0430 -0.2099
 2571SOL    HW2 8613   3.369   3.173   2.114 -0.3206  0.0469  1.7549
 2572SOL     OW 8614   3.148   5.361   1.481 -0.0290 -0.4988 -0.2946
 2572SOL    HW1 8615   3.186   5.381   1.571  0.5794 -1.6492 -0.2770
 2572SOL    HW2 8616   3.149   5.444   1.425 -0.1714  0.1606  0.6672
 2573SOL     OW 8617   6.088   5.026   2.144  0.2308  0.1203 -0.4179
 2573SOL    HW1 8618   6.082   4.945   2.202  0.8888  0.4478  0.1307
 2573SOL    HW2 8619   6.048   5.104   2.193 -2.2026 -0.2375 -1.7027
 2574SOL     OW 8620   1.355   4.805   2.761  0.0648 -0.2042  0.6787
 2574SOL    HW1 8621   1.434   4.824   2.819 -0.4870  1.5289  0.9040
 2574SOL    HW2 8622   1.285   4.876   2.774  0.1285  0.5762 -2.4947
 2575SOL     OW 8623   5.487   3.383   6.813 -0.1365  0.3184  0.3094
 2575SOL    HW1 8624   5.583   3.393   6.785  0.3869  1.1451  2.2231
 2575SOL    HW2 8625   5.444   3.311   6.758  1.2300  0.7048 -1.3806
 2576SOL     OW 8626   1.336   6.423   1.299  0.5919 -0.4705  0.6741
 2576SOL    HW1 8627   1.309   6.519   1.305  0.3318 -0.3839 -1.2901
 2576SOL    HW2 8628   1.428   6.412   1.336  0.9433  0.6875  0.1833
 2577SOL     OW 8629   2.988   4.247   0.043 -0.0396 -0.6580  0.2096
 2577SOL    HW1 8630   3.017   4.175   0.106 -1.7140 -1.9227 -0.3709
 2577SOL    HW2 8631   2.960   4.206  -0.044 -2.0564  0.5388  0.2239
 2578SOL     OW 8632   4.629   2.896   6.784 -0.3929 -0.1740 -0.2133
 2578SOL    HW1 8633   4.565   2.933   6.717 -0.8524  1.6647  1.1718
 2578SOL    HW2 8634   4.580   2.837   6.848  0.0601 -1.9946 -1.4517
 2579SOL     OW 8635   6.099   2.173   6.690  0.1217  0.1013  0.2937
 2579SOL    HW1 8636   6.036   2.242   6.726  1.4471  0.6991  1.5715
 2579SOL    HW2 8637   6.054   2.084   6.691 -0.8937  0.5970  0.6596
 2580SOL     OW 8638   1.768   2.512   6.051  0.0943  0.5185  0.6761
 2580SOL    HW1 8639   1.850   2.508   6.108 -0.4744 -0.7737  1.4453
 2580SOL    HW2 8640   1.783   2.577   5.976  1.4354  1.0610  1.3770
 2581SOL     OW 8641   5.643   0.447   4.700 -0.3649 -0.1085  0.0179
 2581SOL    HW1 8642   5.709   0.379   4.730  1.2248  1.7497  0.9613
 2581SOL    HW2 8643   5.552   0.405   4.694  0.4564 -2.1556  1.0172
 2582SOL     OW 8644   0.627   4.970   3.705  0.2417  0.3019  0.3886
 2582SOL    HW1 8645   0.669   4.935   3.622 -1.0791  0.6335 -0.4444
 2582SOL    HW2 8646   0.688   5.036   3.749  0.1862  1.5641 -1.3473
 2583SOL     OW 8647   1.240   6.496   0.454  0.3278 -0.4403  0.2386
 2583SOL    HW1 8648   1.301   6.459   0.385  0.3657 -3.2447  1.6574
 2583SOL    HW2 8649   1.163   6.434   0.469 -0.5436  0.8722  1.6115
 2584SOL     OW 8650   3.989   2.300   5.283  0.5047  0.3728  0.1208
 2584SOL    HW1 8651   4.027   2.387   5.249  2.1237  0.2243  1.4107
 2584SOL    HW2 8652   4.054   2.226   5.265 -0.8655 -0.6236 -0.9808
 2585SOL     OW 8653   4.399   0.018   4.015  0.0466 -0.2948  0.0615
 2585SOL    HW1 8654   4.374   0.088   4.082  0.3247 -1.3552  1.3022
 2585SOL    HW2 8655   4.446   0.061   3.938 -0.7817  1.0213  0.2537
 2586SOL     OW 8656   0.663   3.310   4.074  0.3897  0.1410  0.5135
 2586SOL    HW1 8657   0.684   3.258   4.157  0.2117 -1.4794 -0.4195
 2586SOL    HW2 8658   0.729   3.384   4.064  0.3456  0.4496  2.1539
 2587SOL     OW 8659   5.584   4.357   3.972 -0.7217 -0.0110  0.4061
 2587SOL    HW1 8660   5.609   4.325   4.063 -0.2728  0.5230  0.4750
 2587SOL    HW2 8661   5.567   4.278   3.912  0.0190 -0.3763  0.6671
 2588SOL     OW 8662   2.801   6.394   2.658  0.0853  0.4816 -0.2765
 2588SOL    HW1 8663   2.801   6.309   2.606 -1.2118  1.0047 -1.1619
 2588SOL    HW2 8664   2.742   6.384   2.738 -0.2257  0.6173 -0.4900
 2589SOL     OW 8665   3.524   5.922   0.526  0.4642  0.7752 -0.1351
 2589SOL    HW1 8666   3.580   5.841   0.543  0.4175  0.8141  0.2072
 2589SOL    HW2 8667   3.542   5.990   0.597 -0.1834  0.7037  0.1023
 2590SOL     OW 8668   4.682   4.476   3.665  0.1932  0.1740 -0.5046
 2590SOL    HW1 8669   4.772   4.509   3.696 -0.3024  0.1462  1.0755
 2590SOL    HW2 8670   4.643   4.542   3.601  0.9715  0.6098 -0.5507
 2591SOL     OW 8671   5.811   5.796   0.888  0.1316  0.6444 -0.1810
 2591SOL    HW1 8672   5.833   5.876   0.833 -0.4589  1.0502  0.1561
 2591SOL    HW2 8673   5.716   5.803   0.920 -0.4323 -0.9127 -1.3977
 2592SOL     OW 8674   1.926   6.739   1.726 -0.0884 -0.1112 -0.0873
 2592SOL    HW1 8675   2.017   6.742   1.684  0.2732  0.1149  0.7093
 2592SOL    HW2 8676   1.892   6.832   1.738  0.1368 -0.1405  0.8185
 2593SOL     OW 8677   3.316   0.667   3.747  0.1555  0.5667  0.2759
 2593SOL    HW1 8678   3.233   0.617   3.771  1.3173 -0.7983  1.6166
 2593SOL    HW2 8679   3.349   0.717   3.827 -0.4272  2.7869 -0.7734
 2594SOL     OW 8680   1.026   5.285   6.275 -0.4355  0.2051 -0.3852
 2594SOL    HW1 8681   1.009   5.209   6.212 -1.1710  0.8614 -1.0001
 2594SOL    HW2 8682   1.025   5.371   6.225 -0.2314  0.6792  0.4012
 2595SOL     OW 8683   6.469   2.043   5.839 -0.3942 -0.0278 -0.3240
 2595SOL    HW1 8684   6.411   2.056   5.758  1.0243 -0.4512 -1.4570
 2595SOL    HW2 8685   6.466   2.125   5.895 -1.7390  0.1181 -0.5609
 2596SOL     OW 8686   5.203   3.962   0.253  0.3869 -0.7821  0.8478
 2596SOL    HW1 8687   5.150   4.039   0.288  1.2535  1.3780 -2.2169
 2596SOL    HW2 8688   5.140   3.893   0.217 -0.5320  1.0207 -1.2827
 2597SOL     OW 8689   4.054   1.991   0.035  0.5506 -0.3136 -0.2148
 2597SOL    HW1 8690   4.028   1.996   0.131  0.5535  0.3294 -0.2453
 2597SOL    HW2 8691   4.152   2.005   0.025  0.5069 -0.0839 -0.3354
 2598SOL     OW 8692   0.803   0.593   2.904 -0.2311 -0.0941 -0.4778
 2598SOL    HW1 8693   0.885   0.558   2.949  0.6191  0.4366 -1.5833
 2598SOL    HW2 8694   0.829   0.651   2.827 -1.6480  0.2106 -0.7530
 2599SOL     OW 8695   4.866   6.377   4.526 -0.6225  0.1576 -0.8183
 2599SOL    HW1 8696   4.811   6.447   4.571 -0.2259  1.6015 -2.4760
 2599SOL    HW2 8697   4.935   6.342   4.589 -0.4755  1.6567 -0.1162
 2600SOL     OW 8698   1.466   4.393   6.722  0.1772  0.0660 -0.2073
 2600SOL    HW1 8699   1.428   4.483   6.744 -0.8113 -0.4292  0.1540
 2600SOL    HW2 8700   1.563   4.403   6.699 -0.2198  1.4045 -1.4606
 2601SOL     OW 8701   3.270   4.170   3.040 -0.1160  0.1822 -0.6515
 2601SOL    HW1 8702   3.274   4.263   3.075  1.0028 -0.0445 -0.1487
 2601SOL    HW2 8703   3.362   4.132   3.033 -0.4983 -0.6410 -1.5319
 2602SOL     OW 8704   6.534   0.064   1.492  0.6560 -0.2355  0.2035
 2602SOL    HW1 8705   6.633   0.071   1.476  0.4157 -0.6447 -1.7067
 2602SOL    HW2 8706   6.497  -0.010   1.436 -0.7408 -0.1103  0.9271
 2603SOL     OW 8707   4.232   1.897   6.819  0.1334  0.6222  0.6309
 2603SOL    HW1 8708   4.240   1.807   6.863  0.0033  0.5416  0.4898
 2603SOL    HW2 8709   4.190   1.886   6.729 -1.6080  1.0289  1.3453
 2604SOL     OW 8710   5.608   2.848   0.639  0.4923  0.2385  0.1191
 2604SOL    HW1 8711   5.688   2.840   0.699 -0.2925 -0.6080  1.0823
 2604SOL    HW2 8712   5.530   2.801   0.680 -0.5942  1.2722 -0.6641
 2605SOL     OW 8713   6.669   6.765   5.825  0.1646  0.2439 -0.4508
 2605SOL    HW1 8714   6.654   6.666   5.816 -1.3907  0.3228  0.9245
 2605SOL    HW2 8715   6.598   6.815   5.776  0.1881  0.6665 -0.0690
 2606SOL     OW 8716   6.875   6.456   6.494  0.3546 -0.4251  0.2060
 2606SOL    HW1 8717   6.916   6.494   6.411 -0.5666  0.3632  0.0988
 2606SOL    HW2 8718   6.848   6.531   6.555 -0.4307 -0.9390  0.5063
 2607SOL     OW 8719   6.840   1.124   4.349 -0.0560  0.4254  0.3209
 2607SOL    HW1 8720   6.904   1.056   4.382 -0.2871 -0.8701 -1.7478
 2607SOL    HW2 8721   6.788   1.087   4.272 -4.7924  0.6081  3.0438
 2608SOL     OW 8722   5.178   1.625   1.443 -0.7301  0.1759 -0.2938
 2608SOL    HW1 8723   5.274   1.637   1.468 -0.2212 -0.8184 -1.6402
 2608SOL    HW2 8724   5.127   1.590   1.521  0.4144 -1.1015 -0.0795
 2609SOL     OW 8725   0.871   4.791   4.599 -0.8056  0.2284  0.2294
 2609SOL    HW1 8726   0.783   4.815   4.639 -0.8044 -0.5629  0.7294
 2609SOL    HW2 8727   0.895   4.697   4.624 -0.6603 -0.1932 -1.3832
 2610SOL     OW 8728   4.762   3.871   5.685 -0.2691  0.5067  0.0313
 2610SOL    HW1 8729   4.768   3.779   5.724  0.2095  0.1034 -0.9545
 2610SOL    HW2 8730   4.843   3.888   5.628  0.1886  1.9563  1.0536
 2611SOL     OW 8731   1.283   6.609   1.777 -0.4341 -0.0047 -0.0562
 2611SOL    HW1 8732   1.196   6.634   1.818 -0.8484 -0.9848 -0.3331
 2611SOL    HW2 8733   1.349   6.588   1.849 -0.7874 -0.4632  0.1375
 2612SOL     OW 8734   5.922   7.003   3.919 -0.0454  0.3350 -0.0331
 2612SOL    HW1 8735   5.924   7.029   4.016  1.7335  0.6300 -0.1081
 2612SOL    HW2 8736   5.956   6.909   3.909 -0.6882  0.1263 -0.3416
 2613SOL     OW 8737   4.170   1.821   6.312  0.0440 -0.4217 -0.0905
 2613SOL    HW1 8738   4.205   1.728   6.312 -1.0280 -0.8616 -1.8104
 2613SOL    HW2 8739   4.232   1.880   6.258  0.5575 -0.1819  0.7411
 2614SOL     OW 8740   6.706   0.250   6.466  0.0676  0.1993 -0.3295
 2614SOL    HW1 8741   6.715   0.150   6.463 -0.6142  0.1259 -0.1405
 2614SOL    HW2 8742   6.759   0.286   6.543 -0.8192 -0.1721  0.4885
 2615SOL     OW 8743   2.086   6.030   6.274 -0.0969 -0.6534 -0.0511
 2615SOL    HW1 8744   2.010   6.089   6.247  0.4788 -0.0458 -0.3876
 2615SOL    HW2 8745   2.057   5.935   6.271 -1.2727 -0.3586  1.2623
 2616SOL     OW 8746   4.246   4.691   1.210  0.1357 -0.2704  0.6988
 2616SOL    HW1 8747   4.149   4.672   1.227 -0.0528 -1.1162 -1.1141
 2616SOL    HW2 8748   4.290   4.609   1.173  0.6342  1.1284 -2.0787
 2617SOL     OW 8749   3.879   5.913   0.722  0.3651 -0.0715  0.1999
 2617SOL    HW1 8750   3.973   5.902   0.688  0.4441  1.1025 -0.0007
 2617SOL    HW2 8751   3.869   5.863   0.808  1.4236  0.4551  0.6475
 2618SOL     OW 8752   0.618   5.997   0.983 -0.0044 -0.4614  0.1649
 2618SOL    HW1 8753   0.547   6.032   0.922 -0.3434 -0.0266  0.8040
 2618SOL    HW2 8754   0.623   6.054   1.065 -1.4151 -2.6153  1.8297
 2619SOL     OW 8755   6.930   0.450   1.358 -0.1405 -0.3546 -0.3694
 2619SOL    HW1 8756   6.852   0.447   1.295 -0.6255 -0.6306  0.2349
 2619SOL    HW2 8757   6.941   0.542   1.394 -2.2348 -0.9331  2.0340
 2620SOL     OW 8758   0.000   6.825   4.642 -0.0414 -0.1298 -0.1770
 2620SOL    HW1 8759  -0.089   6.783   4.658 -0.3348  0.2838 -0.6677
 2620SOL    HW2 8760   0.041   6.786   4.559  0.3674 -0.5218  0.2027
 2621SOL     OW 8761   2.344   6.563   4.401 -0.0381  0.4722  0.0132
 2621SOL    HW1 8762   2.259   6.601   4.438  0.5253  0.6566  1.1782
 2621SOL    HW2 8763   2.364   6.605   4.313 -1.9247 -0.6648 -1.0448
 2622SOL     OW 8764   2.287   2.796   3.353 -0.1028 -0.2074  0.0429
 2622SOL    HW1 8765   2.191   2.800   3.324 -0.3917 -2.7264  0.4780
 2622SOL    HW2 8766   2.346   2.812   3.274 -0.8760 -0.7807 -0.6703
 2623SOL     OW 8767   2.648   6.245   4.114  0.0204  0.6855 -0.5978
 2623SOL    HW1 8768   2.665   6.328   4.167 -0.1374  1.7289 -2.0977
 2623SOL    HW2 8769   2.613   6.270   4.024 -1.0297 -1.0747 -0.7221
 2624SOL     OW 8770   5.257   3.314   5.155  0.3428 -0.0284  0.5543
 2624SOL    HW1 8771   5.164   3.281   5.137  0.4325  0.0744 -0.1342
 2624SOL    HW2 8772   5.284   3.291   5.249 -0.8312  1.0041  1.1710
 2625SOL     OW 8773   2.424   6.165   4.287  0.3437 -0.3975 -0.8299
 2625SOL    HW1 8774   2.485   6.234   4.248 -0.2260  1.3043  1.1087
 2625SOL    HW2 8775   2.402   6.097   4.218  0.8422  1.4104 -2.8791
 2626SOL     OW 8776   2.676   0.823   4.211  0.6112  0.4427 -0.0488
 2626SOL    HW1 8777   2.683   0.836   4.310  1.1723  0.3795 -0.0752
 2626SOL    HW2 8778   2.600   0.877   4.176  0.9211  1.1239  0.2981
 2627SOL     OW 8779   0.734   0.014   4.118 -0.2895  0.0863 -0.4404
 2627SOL    HW1 8780   0.828   0.038   4.093 -0.4067  0.8017 -0.2006
 2627SOL    HW2 8781   0.734  -0.076   4.163  0.6195  1.0997  1.7408
 2628SOL     OW 8782   4.162   5.580   5.760  0.5041 -0.3422  0.3264
 2628SOL    HW1 8783   4.194   5.607   5.851  1.8098 -1.1015  0.1182
 2628SOL    HW2 8784   4.128   5.486   5.764  0.2640 -0.2675  0.0786
 2629SOL     OW 8785   2.996   4.150   1.777 -0.6498 -0.1145  0.0076
 2629SOL    HW1 8786   3.085   4.171   1.738 -0.6698 -0.6047 -0.2997
 2629SOL    HW2 8787   2.949   4.236   1.799  0.0108  0.1477  0.4473
 2630SOL     OW 8788   3.085   0.207   2.941 -0.8311 -0.1565 -0.2780
 2630SOL    HW1 8789   3.113   0.302   2.951 -0.7661 -0.3311  1.3993
 2630SOL    HW2 8790   3.155   0.147   2.981  0.0825 -1.0677 -2.9832
 2631SOL     OW 8791   2.558   0.013   4.001  0.2332 -0.4914 -0.5992
 2631SOL    HW1 8792   2.549   0.112   4.016  2.1723 -0.1973 -1.0696
 2631SOL    HW2 8793   2.535  -0.036   4.084 -0.8139  0.3422 -0.3772
 2632SOL     OW 8794   3.238   1.260   2.741 -0.7806  0.1322  0.7812
 2632SOL    HW1 8795   3.271   1.314   2.663 -1.1697  0.4749  0.8462
 2632SOL    HW2 8796   3.141   1.281   2.756 -0.7340 -0.0144  1.2919
 2633SOL     OW 8797   0.720   2.514   0.688  0.6261  0.0016 -0.4968
 2633SOL    HW1 8798   0.658   2.585   0.718  2.1648  1.2380 -0.0944
 2633SOL    HW2 8799   0.770   2.544   0.607  1.3519 -0.5653 -0.2824
 2634SOL     OW 8800   2.825   3.307   6.787 -0.7056  0.0883  0.0421
 2634SOL    HW1 8801   2.769   3.225   6.797 -0.8774  0.3430  1.4216
 2634SOL    HW2 8802   2.890   3.295   6.713 -0.7471 -1.2783  0.2107
 2635SOL     OW 8803   5.543   3.923   4.630  0.2641  0.3285  0.0660
 2635SOL    HW1 8804   5.447   3.909   4.656 -0.0891  1.1611 -0.7515
 2635SOL    HW2 8805   5.548   3.983   4.551  1.4560  0.0111 -0.1247
 2636SOL     OW 8806   3.943   5.595   0.086 -0.1253 -0.4540 -0.1590
 2636SOL    HW1 8807   3.855   5.560   0.118 -0.8632 -0.4726 -2.0301
 2636SOL    HW2 8808   3.987   5.526   0.028  0.6701 -0.0829 -0.0126
 2637SOL     OW 8809   5.325   2.977   3.861 -0.0101  0.4548  0.8052
 2637SOL    HW1 8810   5.416   2.968   3.820  0.4544 -0.5575  1.9799
 2637SOL    HW2 8811   5.333   3.020   3.951 -0.7033  0.3363  0.9323
 2638SOL     OW 8812   5.266   5.318   0.198  0.8577  0.4650  0.1455
 2638SOL    HW1 8813   5.261   5.326   0.297  0.3214  0.0266  0.1560
 2638SOL    HW2 8814   5.352   5.275   0.173  1.5340  1.6467  0.3475
 2639SOL     OW 8815   6.323   5.820   0.230 -0.2041 -0.4773  0.0504
 2639SOL    HW1 8816   6.403   5.862   0.188 -0.5971  1.0037  0.7360
 2639SOL    HW2 8817   6.250   5.888   0.240 -0.3889 -0.9386  2.4642
 2640SOL     OW 8818   0.012   6.443   1.120 -0.2236 -0.0805 -0.3778
 2640SOL    HW1 8819   0.032   6.508   1.193  0.4971  0.0139 -0.6472
 2640SOL    HW2 8820  -0.046   6.487   1.051 -0.4456  0.0051 -0.1351
 2641SOL     OW 8821   0.526   5.532   0.445  0.3424 -0.1762  0.2586
 2641SOL    HW1 8822   0.602   5.539   0.510  0.6837 -1.4089  0.0132
 2641SOL    HW2 8823   0.453   5.595   0.472  0.9201  0.0946  1.2266
 2642SOL     OW 8824   5.766   1.041   4.711 -0.4985  0.1095  0.5362
 2642SOL    HW1 8825   5.709   1.121   4.728 -0.6613  0.2211 -0.4777
 2642SOL    HW2 8826   5.863   1.067   4.717 -0.5466  0.4760 -0.1602
 2643SOL     OW 8827   2.359   6.974   1.486 -0.0965 -0.1838 -0.0841
 2643SOL    HW1 8828   2.285   7.035   1.461  0.0660 -0.3251 -0.9280
 2643SOL    HW2 8829   2.444   7.027   1.496  0.0730 -0.2835 -0.9493
 2644SOL     OW 8830   5.209   0.054   5.365  0.0907 -0.3452 -0.2455
 2644SOL    HW1 8831   5.291   0.042   5.421  0.0060  2.2743  0.5729
 2644SOL    HW2 8832   5.236   0.065   5.269  0.8226  1.3568  0.1214
 2645SOL     OW 8833   5.521   0.530   5.309 -0.2281  0.1472  0.0232
 2645SOL    HW1 8834   5.603   0.481   5.340  0.6731  1.6176  0.0516
 2645SOL    HW2 8835   5.455   0.464   5.273 -0.0269 -1.3210  2.1493
 2646SOL     OW 8836   6.272   5.403   1.032 -0.1956  0.0313 -0.6888
 2646SOL    HW1 8837   6.353   5.346   1.018 -2.0105 -2.5661 -1.3224
 2646SOL    HW2 8838   6.208   5.390   0.956 -1.0113  2.4812 -0.5226
 2647SOL     OW 8839   3.540   3.272   1.391  0.0688  0.1312  0.0247
 2647SOL    HW1 8840   3.559   3.304   1.484 -0.2542  2.7750 -0.7262
 2647SOL    HW2 8841   3.624   3.236   1.351  0.3714 -0.3902  1.0874
 2648SOL     OW 8842   4.752   1.355   3.589  0.2079  0.4259  0.0903
 2648SOL    HW1 8843   4.761   1.280   3.523 -1.9262  0.2745 -0.0915
 2648SOL    HW2 8844   4.828   1.419   3.577  0.8044 -0.5000 -1.3316
 2649SOL     OW 8845   4.334   3.956   6.093  0.5625  0.0079  0.1001
 2649SOL    HW1 8846   4.260   3.911   6.142  0.0693 -1.7765 -2.1442
 2649SOL    HW2 8847   4.360   4.040   6.142 -1.9615 -0.0276  1.6656
 2650SOL     OW 8848   0.871   6.641   2.616  0.0345 -0.1966  0.1731
 2650SOL    HW1 8849   0.907   6.724   2.660  0.0050 -0.4977  0.7812
 2650SOL    HW2 8850   0.894   6.561   2.672  1.2832 -0.7758 -1.1155
 2651SOL     OW 8851   0.918   0.461   4.235  0.0076 -0.2854  0.0837
 2651SOL    HW1 8852   0.905   0.537   4.300 -1.8581 -0.9785  0.5815
 2651SOL    HW2 8853   0.829   0.419   4.215  0.7572 -1.0869 -1.7383
 2652SOL     OW 8854   2.083   1.431   1.613  0.6801  0.1275  0.3601
 2652SOL    HW1 8855   2.037   1.345   1.635 -0.3753  0.5922  0.0729
 2652SOL    HW2 8856   2.017   1.507   1.623  1.5903  0.9029  0.6205
 2653SOL     OW 8857   3.579   6.757   0.356  0.0208  0.1987  0.4548
 2653SOL    HW1 8858   3.633   6.673   0.356 -0.8578 -0.4706 -2.4860
 2653SOL    HW2 8859   3.632   6.830   0.313 -0.2872  0.3759  0.3758
 2654SOL     OW 8860   6.439   3.083   4.216  0.0125 -0.1185  0.0226
 2654SOL    HW1 8861   6.402   3.030   4.140  0.4895 -0.6617  0.1589
 2654SOL    HW2 8862   6.474   3.020   4.286 -0.9551  0.3546  0.9673
 2655SOL     OW 8863   0.432   4.868   3.872 -0.6112 -0.0258  0.6832
 2655SOL    HW1 8864   0.411   4.935   3.942  1.0666 -0.9012  2.0969
 2655SOL    HW2 8865   0.508   4.900   3.815 -0.3850 -0.3331  0.8053
 2656SOL     OW 8866   4.504   3.630   5.825 -0.0263  0.0532  0.1813
 2656SOL    HW1 8867   4.459   3.624   5.736  2.0759 -2.9707 -0.8169
 2656SOL    HW2 8868   4.603   3.626   5.813  0.3459  0.5415  2.6254
 2657SOL     OW 8869   4.927   1.150   5.142 -0.0216 -0.2169  0.0769
 2657SOL    HW1 8870   4.867   1.225   5.169  1.0922  0.6897  0.0622
 2657SOL    HW2 8871   4.889   1.105   5.061 -0.0941  1.0890 -0.6345
 2658SOL     OW 8872   4.933   4.440   4.443 -0.3275  0.0963  0.9348
 2658SOL    HW1 8873   4.886   4.451   4.356 -1.0350  1.8980  1.5103
 2658SOL    HW2 8874   4.866   4.423   4.516 -0.3358  3.5932  1.9235
 2659SOL     OW 8875   5.802   0.600   3.687  0.3806 -0.3173  0.1172
 2659SOL    HW1 8876   5.714   0.646   3.679  0.9333  0.6723 -0.5235
 2659SOL    HW2 8877   5.872   0.652   3.637  1.4656 -0.7160  1.1689
 2660SOL     OW 8878   1.471   0.779   5.201 -0.1043 -0.3041  0.1668
 2660SOL    HW1 8879   1.448   0.684   5.224 -1.5313  0.3740  1.6879
 2660SOL    HW2 8880   1.467   0.836   5.283  1.1196  1.0333 -0.6490
 2661SOL     OW 8881   4.619   6.496   2.826  0.1095  0.0322 -0.3280
 2661SOL    HW1 8882   4.584   6.567   2.888 -2.1858 -1.2096 -0.0624
 2661SOL    HW2 8883   4.617   6.530   2.732  0.9441  0.9713 -0.0275
 2662SOL     OW 8884   4.724   1.782   4.498 -0.6337 -0.6901  0.4835
 2662SOL    HW1 8885   4.712   1.746   4.590  0.0553 -3.4013 -0.3764
 2662SOL    HW2 8886   4.679   1.871   4.490 -1.7688 -0.9540  3.0464
 2663SOL     OW 8887   0.307   4.535   3.420  0.2751  0.0034 -0.2932
 2663SOL    HW1 8888   0.241   4.606   3.396  0.7426  0.4817 -0.1798
 2663SOL    HW2 8889   0.381   4.575   3.474 -0.2819 -0.8727  1.1974
 2664SOL     OW 8890   4.422   4.925   2.034  0.3088  0.2856 -0.2636
 2664SOL    HW1 8891   4.394   4.907   1.939 -0.0133  1.2964 -0.3697
 2664SOL    HW2 8892   4.514   4.889   2.048 -0.0700 -0.8987 -0.6198
 2665SOL     OW 8893   2.836   0.781   5.031  0.0401 -0.3894  0.2368
 2665SOL    HW1 8894   2.805   0.708   5.092 -0.2558  0.1389  0.7237
 2665SOL    HW2 8895   2.787   0.775   4.944  0.5779 -1.2440 -0.0315
 2666SOL     OW 8896   5.676   5.163   1.596  0.5846  0.4030  0.1559
 2666SOL    HW1 8897   5.597   5.103   1.588 -0.0813  1.1125  1.1621
 2666SOL    HW2 8898   5.703   5.171   1.692  1.3564  0.8337 -0.0820
 2667SOL     OW 8899   0.922   5.050   2.823  0.8365 -0.0658  0.1768
 2667SOL    HW1 8900   0.918   5.036   2.724 -0.5697 -1.0060  0.3358
 2667SOL    HW2 8901   0.900   4.965   2.869  3.0340 -0.0784  1.3573
 2668SOL     OW 8902   1.290   1.950   4.500 -0.1090  0.0314 -0.4748
 2668SOL    HW1 8903   1.223   1.881   4.526 -1.4903 -0.1747 -3.9419
 2668SOL    HW2 8904   1.366   1.950   4.565 -1.6853 -2.3407  1.5313
 2669SOL     OW 8905   4.874   3.326   4.184  0.3616  0.3069 -0.1123
 2669SOL    HW1 8906   4.903   3.283   4.099 -1.0315  0.3418 -0.6399
 2669SOL    HW2 8907   4.869   3.257   4.256  0.1951 -0.0076 -0.4211
 2670SOL     OW 8908   0.964   7.011   4.765  0.8301 -0.0406  0.0885
 2670SOL    HW1 8909   0.912   7.018   4.850  0.6746 -1.9857  0.2036
 2670SOL    HW2 8910   0.916   7.061   4.693 -0.5253 -0.6971  0.5032
 2671SOL     OW 8911   5.031   1.660   0.033 -0.5848 -0.5099 -0.1240
 2671SOL    HW1 8912   4.953   1.720   0.049 -0.7088 -0.5724 -0.5023
 2671SOL    HW2 8913   5.066   1.628   0.121 -0.2572  0.4434  0.1131
 2672SOL     OW 8914   0.319   5.441   6.082 -0.5706 -0.3945  0.4166
 2672SOL    HW1 8915   0.341   5.462   5.987 -1.2400  0.0009  0.3415
 2672SOL    HW2 8916   0.292   5.345   6.089 -1.1243 -0.2684  0.0896
 2673SOL     OW 8917   3.872   2.087   3.232  0.6341 -0.3604  0.0788
 2673SOL    HW1 8918   3.916   2.117   3.148 -0.1422 -1.2620 -0.6734
 2673SOL    HW2 8919   3.830   1.997   3.217 -0.4853 -0.0268  1.0952
 2674SOL     OW 8920   5.280   6.125   0.270 -0.4225  0.2291 -0.3226
 2674SOL    HW1 8921   5.255   6.195   0.203  0.6701  1.1321  0.1823
 2674SOL    HW2 8922   5.265   6.034   0.230 -2.9414  0.6867 -0.5937
 2675SOL     OW 8923   1.509   6.262   3.007 -0.1323 -0.0723 -0.1378
 2675SOL    HW1 8924   1.487   6.176   3.052  2.3606  0.1965  1.7833
 2675SOL    HW2 8925   1.595   6.254   2.958  0.9259  1.6441  1.2952
 2676SOL     OW 8926   3.404   6.448   2.471  0.5984 -0.6047 -0.5685
 2676SOL    HW1 8927   3.308   6.430   2.490  0.4203 -0.2741 -1.1210
 2676SOL    HW2 8928   3.413   6.488   2.380  0.7831  3.2704  0.9429
 2677SOL     OW 8929   3.032   4.450   1.025  0.4204 -0.4742 -0.2600
 2677SOL    HW1 8930   3.086   4.449   0.940  0.4531 -1.9439 -0.2435
 2677SOL    HW2 8931   3.019   4.545   1.054  1.4628  0.0045 -1.2359
 2678SOL     OW 8932   1.868   6.178   1.155 -0.0889 -0.0699 -0.5251
 2678SOL    HW1 8933   1.821   6.091   1.166 -1.6379  0.6387 -1.2027
 2678SOL    HW2 8934   1.803   6.253   1.169  1.1927  0.9829 -0.0146
 2679SOL     OW 8935   2.347   6.034   6.938  0.2737 -0.0514 -0.3833
 2679SOL    HW1 8936   2.273   5.969   6.957 -0.7902  1.2160 -0.0450
 2679SOL    HW2 8937   2.432   5.984   6.924 -0.4233 -1.4852  0.2837
 2680SOL     OW 8938   5.997   3.167   1.015  0.6095 -0.1028  0.4532
 2680SOL    HW1 8939   5.906   3.180   1.053  0.3610 -2.0024  0.6002
 2680SOL    HW2 8940   6.037   3.083   1.052  1.4494 -0.5708 -1.3971
 2681SOL     OW 8941   2.707   1.182   2.628  0.0300 -0.1552  0.1946
 2681SOL    HW1 8942   2.687   1.276   2.600  1.1538 -0.8563 -3.4369
 2681SOL    HW2 8943   2.770   1.184   2.706  0.0529  2.1018  0.1868
 2682SOL     OW 8944   6.995   0.791   1.852  0.5106 -0.1136  0.1643
 2682SOL    HW1 8945   7.014   0.886   1.830 -0.4169 -0.1203 -0.7115
 2682SOL    HW2 8946   6.962   0.784   1.946  0.8218  0.3874  0.3129
 2683SOL     OW 8947   1.031   0.324   0.184  0.2846 -0.8280 -0.1047
 2683SOL    HW1 8948   1.112   0.347   0.238  0.0534 -2.0359  0.8000
 2683SOL    HW2 8949   1.006   0.402   0.126  1.3778 -0.0127  0.4867
 2684SOL     OW 8950   4.950   4.567   3.742 -0.0022  0.5852 -0.6041
 2684SOL    HW1 8951   4.923   4.640   3.805  0.5242  0.4117 -0.1755
 2684SOL    HW2 8952   5.026   4.515   3.781  0.1204  0.2771 -1.2408
 2685SOL     OW 8953   5.634   5.924   6.147  0.6489  0.4215  0.2709
 2685SOL    HW1 8954   5.690   5.845   6.124  1.6776  1.4283 -0.8247
 2685SOL    HW2 8955   5.612   5.922   6.245  2.3912 -0.1301  0.6802
 2686SOL     OW 8956   1.046   5.371   4.584  0.2244  0.8563  0.3397
 2686SOL    HW1 8957   0.986   5.441   4.623  0.5069  0.6837  1.1093
 2686SOL    HW2 8958   1.012   5.281   4.610  0.0979  0.7168 -0.2982
 2687SOL     OW 8959   5.895   4.519   3.972 -0.3302 -0.0126  1.0405
 2687SOL    HW1 8960   5.808   4.521   3.923  0.1341  1.4271  0.2264
 2687SOL    HW2 8961   5.971   4.512   3.907  0.2662  1.2855  1.5432
 2688SOL     OW 8962   4.674   5.924   7.008  0.2870 -0.3124  0.3076
 2688SOL    HW1 8963   4.699   5.871   7.089 -0.0856 -1.1667 -0.1148
 2688SOL    HW2 8964   4.594   5.980   7.029 -0.2426 -1.0578  0.3497
 2689SOL     OW 8965   6.238   1.796   5.415  0.0023 -0.4653 -0.5533
 2689SOL    HW1 8966   6.297   1.732   5.367  1.2330 -0.8749  1.3665
 2689SOL    HW2 8967   6.288   1.881   5.434 -0.3790 -0.3837  0.1363
 2690SOL     OW 8968   3.855   2.989   2.087  1.0356 -0.8409  0.2573
 2690SOL    HW1 8969   3.877   3.010   2.182 -2.0877 -0.3478  0.9877
 2690SOL    HW2 8970   3.773   2.931   2.083 -0.3962  1.1296 -2.0871
 2691SOL     OW 8971   1.660   5.458   3.530  0.2566 -0.4790 -0.2300
 2691SOL    HW1 8972   1.706   5.373   3.504  0.4542 -0.5676  0.4076
 2691SOL    HW2 8973   1.644   5.459   3.628  1.0035  0.5848 -0.1010
 2692SOL     OW 8974   6.474   3.323   4.625  0.3625  0.4354 -0.1632
 2692SOL    HW1 8975   6.477   3.389   4.550 -0.1493  0.9641  0.2713
 2692SOL    HW2 8976   6.517   3.362   4.706 -0.0792  0.3016  0.1426
 2693SOL     OW 8977   1.213   4.753   3.055  0.9712 -0.0999  0.1870
 2693SOL    HW1 8978   1.206   4.697   3.138 -1.3391 -1.8828 -1.0757
 2693SOL    HW2 8979   1.149   4.829   3.060 -0.2935 -1.0609 -0.4633
 2694SOL     OW 8980   1.637   1.381   4.970  0.4007  0.0555  0.7992
 2694SOL    HW1 8981   1.654   1.434   5.054 -1.9906 -0.2071  1.5312
 2694SOL    HW2 8982   1.599   1.292   4.994 -1.7425  0.5242 -0.5347
 2695SOL     OW 8983   3.584   2.788   1.089  0.2766  0.8217  0.1243
 2695SOL    HW1 8984   3.617   2.868   1.139 -1.5273  1.5019  0.3197
 2695SOL    HW2 8985   3.651   2.714   1.095  1.9234  2.2546  0.0664
 2696SOL     OW 8986   3.308   2.070   0.106 -0.6430  0.0007 -0.0790
 2696SOL    HW1 8987   3.253   2.063   0.023 -1.8334  0.3319  0.6610
 2696SOL    HW2 8988   3.395   2.115   0.085 -1.3463  0.9890 -0.9554
 2697SOL     OW 8989   1.472   0.735   5.632  0.0483  0.0986 -0.4474
 2697SOL    HW1 8990   1.542   0.796   5.669  0.1608  0.1749 -0.7874
 2697SOL    HW2 8991   1.513   0.645   5.614 -0.2604 -0.2731  0.6408
 2698SOL     OW 8992   2.886   1.758   6.645  0.0803 -0.5385 -0.3096
 2698SOL    HW1 8993   2.828   1.754   6.726 -1.1263 -0.5611 -1.1447
 2698SOL    HW2 8994   2.979   1.786   6.671 -0.9195  2.1071  0.7627
 2699SOL     OW 8995   1.887   2.846   2.054 -0.7712  0.1240 -0.4894
 2699SOL    HW1 8996   1.933   2.917   2.106  1.3699 -0.6810 -1.1720
 2699SOL    HW2 8997   1.886   2.870   1.957 -1.2380 -0.1588 -0.5598
 2700SOL     OW 8998   2.251   5.440   2.536 -0.1038  0.0864  0.8010
 2700SOL    HW1 8999   2.196   5.517   2.567 -1.4233 -0.3430 -0.3356
 2700SOL    HW2 9000   2.333   5.433   2.591 -0.3839  1.7643  1.4915
 2701SOL     OW 9001   6.206   0.458   4.485  0.0704  0.1505  0.0111
 2701SOL    HW1 9002   6.110   0.459   4.513  0.1502 -0.5090  0.3344
 2701SOL    HW2 9003   6.236   0.363   4.474  0.7857  0.3375  0.2882
 2702SOL     OW 9004   0.069   5.883   2.913 -0.1966  0.2327  0.6111
 2702SOL    HW1 9005   0.108   5.972   2.936  2.9949 -1.0202  0.4699
 2702SOL    HW2 9006   0.017   5.848   2.991  0.7706  1.0697  1.6625
 2703SOL     OW 9007   1.877   3.381   1.705 -0.4034 -0.4757 -0.0999
 2703SOL    HW1 9008   1.960   3.424   1.740 -0.5776 -2.0168  2.4520
 2703SOL    HW2 9009   1.818   3.450   1.663  0.9160  1.1091  0.5867
 2704SOL     OW 9010   5.437   6.656   2.072  0.4980 -0.3192  0.0537
 2704SOL    HW1 9011   5.465   6.588   2.004 -0.2391  0.0330 -0.6115
 2704SOL    HW2 9012   5.518   6.705   2.106  0.6941  1.0464 -2.2229
 2705SOL     OW 9013   6.795   2.309   3.908 -0.1864 -0.7467 -0.0360
 2705SOL    HW1 9014   6.870   2.277   3.966 -1.1807 -0.7469  1.3177
 2705SOL    HW2 9015   6.755   2.232   3.859 -1.5557 -1.4176  2.0017
 2706SOL     OW 9016   6.394   2.749   2.901  0.3051  0.4505 -0.3914
 2706SOL    HW1 9017   6.386   2.674   2.836 -0.3436  0.7976 -0.7187
 2706SOL    HW2 9018   6.447   2.823   2.860  1.1379  0.0925  0.0130
 2707SOL     OW 9019   4.731   6.483   0.291 -0.3177 -0.3551 -0.1033
 2707SOL    HW1 9020   4.645   6.441   0.263 -1.1456  1.8026 -1.0775
 2707SOL    HW2 9021   4.768   6.536   0.215  1.5632 -0.7365  0.5100
 2708SOL     OW 9022   2.089   5.563   6.471 -0.6603 -0.2457 -0.3910
 2708SOL    HW1 9023   2.007   5.505   6.464 -0.3431 -0.7066 -0.3321
 2708SOL    HW2 9024   2.117   5.569   6.567 -1.8843  1.6986 -0.0998
 2709SOL     OW 9025   4.312   5.134   3.774  0.3809  0.4147 -0.3954
 2709SOL    HW1 9026   4.318   5.224   3.731  2.8947  1.2592  1.4503
 2709SOL    HW2 9027   4.395   5.118   3.829 -1.8099 -1.1889  2.7754
 2710SOL     OW 9028   6.147   3.174   2.860  0.0953  0.0841 -0.2897
 2710SOL    HW1 9029   6.231   3.221   2.886 -0.1122  0.6247 -0.5934
 2710SOL    HW2 9030   6.091   3.159   2.941  0.4672 -0.2565 -0.0892
 2711SOL     OW 9031   2.725   1.331   1.332 -0.4608 -0.2570  0.1022
 2711SOL    HW1 9032   2.772   1.419   1.321 -1.7852  0.2955 -1.4664
 2711SOL    HW2 9033   2.667   1.335   1.414  0.1648 -0.0066  0.5448
 2712SOL     OW 9034   4.828   3.726   2.603  0.5255 -0.4122 -0.0981
 2712SOL    HW1 9035   4.843   3.795   2.532  1.4508 -0.5106 -0.0098
 2712SOL    HW2 9036   4.868   3.639   2.575 -0.5989 -0.9224 -0.1893
 2713SOL     OW 9037   2.089   2.629   4.911 -0.4339 -0.1563  0.2053
 2713SOL    HW1 9038   2.028   2.691   4.959 -0.9516 -0.1449 -0.4616
 2713SOL    HW2 9039   2.043   2.591   4.831  0.5091  0.0386 -0.4501
 2714SOL     OW 9040   2.726   0.535   3.416  0.2696  0.1780 -0.4104
 2714SOL    HW1 9041   2.811   0.586   3.405 -0.9027  1.8920 -2.0693
 2714SOL    HW2 9042   2.748   0.438   3.428  2.4502  0.5946 -0.5133
 2715SOL     OW 9043   6.436   0.682   5.571  0.1100  0.6770 -0.0710
 2715SOL    HW1 9044   6.474   0.596   5.604 -2.3335  0.4362  2.4666
 2715SOL    HW2 9045   6.504   0.730   5.516  2.4626 -1.6156  0.6676
 2716SOL     OW 9046   4.522   5.934   1.818  0.7390 -0.5549  0.0341
 2716SOL    HW1 9047   4.567   5.965   1.902 -1.6196 -0.8179  1.4879
 2716SOL    HW2 9048   4.426   5.963   1.819  0.9134  0.6336 -3.2609
 2717SOL     OW 9049   1.702   6.650   2.831 -0.2717  0.3602  0.7439
 2717SOL    HW1 9050   1.615   6.683   2.869 -1.0434 -0.0079 -0.6399
 2717SOL    HW2 9051   1.684   6.581   2.761  0.9885  2.1160 -1.4419
 2718SOL     OW 9052   0.575   4.536   3.982 -0.0509 -0.3526 -0.1768
 2718SOL    HW1 9053   0.665   4.546   4.026 -0.1630 -0.9335  0.1899
 2718SOL    HW2 9054   0.516   4.611   4.010  0.1190 -0.3096  0.0707
 2719SOL     OW 9055   5.032   3.204   3.990  0.2655 -0.4233 -0.4989
 2719SOL    HW1 9056   5.086   3.138   4.041  0.9952 -0.2612 -1.0348
 2719SOL    HW2 9057   5.026   3.175   3.894  1.9043  1.0063 -1.1042
 2720SOL     OW 9058   0.204   5.588   3.293  0.0751 -0.1906 -0.6417
 2720SOL    HW1 9059   0.146   5.579   3.211 -0.5672 -1.0889 -0.1132
 2720SOL    HW2 9060   0.252   5.502   3.308 -1.5214 -0.8183  1.1633
 2721SOL     OW 9061   5.042   5.591   3.480  0.6095 -0.2523 -0.3217
 2721SOL    HW1 9062   4.960   5.586   3.422 -0.4476 -0.0346  1.0849
 2721SOL    HW2 9063   5.092   5.675   3.459  1.8432 -1.5197 -2.8682
 2722SOL     OW 9064   6.812   4.761   1.611 -0.5380  0.3372 -0.8380
 2722SOL    HW1 9065   6.768   4.672   1.615 -0.5546  0.3668 -0.3111
 2722SOL    HW2 9066   6.842   4.788   1.702 -1.2344  1.2176 -0.8420
 2723SOL     OW 9067   3.725   0.685   5.349 -0.5360 -0.2320 -0.4237
 2723SOL    HW1 9068   3.692   0.762   5.294 -1.7404 -0.3918  0.0508
 2723SOL    HW2 9069   3.656   0.613   5.350 -0.2104 -0.5463  0.6708
 2724SOL     OW 9070   5.390   0.751   6.463 -0.1775 -0.1478  0.1882
 2724SOL    HW1 9071   5.303   0.758   6.413 -0.4920 -0.2775  0.7127
 2724SOL    HW2 9072   5.452   0.823   6.431 -0.3163 -0.3218 -0.4972
 2725SOL     OW 9073   0.490   6.779   2.419  0.1125  0.0660  0.1073
 2725SOL    HW1 9074   0.561   6.744   2.358 -0.2456 -0.4109 -0.0419
 2725SOL    HW2 9075   0.464   6.707   2.484 -0.4465  0.1365 -0.0348
 2726SOL     OW 9076   3.899   5.318   2.761 -0.2873 -0.2783  0.5283
 2726SOL    HW1 9077   3.982   5.265   2.777  0.2519  1.0542  2.4508
 2726SOL    HW2 9078   3.863   5.351   2.848 -1.1978  1.6205 -0.5103
 2727SOL     OW 9079   1.431   6.040   3.167 -0.0509  0.4938  0.3454
 2727SOL    HW1 9080   1.334   6.031   3.190  0.3550 -1.0185  1.6492
 2727SOL    HW2 9081   1.486   6.026   3.249  1.2612  2.5369 -0.1255
 2728SOL     OW 9082   2.491   1.136   5.914  0.9014 -0.2959  0.0123
 2728SOL    HW1 9083   2.428   1.194   5.861  1.1355  0.3850  0.4572
 2728SOL    HW2 9084   2.579   1.132   5.868  0.2055 -2.2185 -1.2267
 2729SOL     OW 9085   6.959   4.424   2.119 -0.5152  0.1291  0.3318
 2729SOL    HW1 9086   6.931   4.363   2.192  1.1860 -0.3113  0.6552
 2729SOL    HW2 9087   6.975   4.371   2.035  0.0907  0.2366  0.3715
 2730SOL     OW 9088   2.211   2.380   3.090  0.2733  0.2823 -0.6693
 2730SOL    HW1 9089   2.243   2.343   3.177  1.5984  1.8065 -0.4756
 2730SOL    HW2 9090   2.275   2.355   3.018  0.5032  1.1126 -0.7593
 2731SOL     OW 9091   6.671   3.828   4.137  0.1954 -0.3664 -0.4263
 2731SOL    HW1 9092   6.662   3.736   4.175 -0.6585  0.6746  2.1036
 2731SOL    HW2 9093   6.731   3.882   4.195 -0.4540  1.0978 -1.0658
 2732SOL     OW 9094   5.324   2.601   5.315 -0.0179  0.3210  0.3161
 2732SOL    HW1 9095   5.383   2.681   5.315  0.1126  0.2829 -1.7165
 2732SOL    HW2 9096   5.298   2.579   5.221 -2.4631 -0.2652  1.0447
 2733SOL     OW 9097   2.507   3.187   0.884  0.1023  0.2108  0.1065
 2733SOL    HW1 9098   2.449   3.238   0.821  1.7437  1.7777 -0.2116
 2733SOL    HW2 9099   2.569   3.127   0.831  0.4209  0.3620  0.3047
 2734SOL     OW 9100   3.752   5.890   2.479  0.4776  0.3842  0.2106
 2734SOL    HW1 9101   3.674   5.947   2.455  0.0192 -0.0618  0.6108
 2734SOL    HW2 9102   3.818   5.888   2.404 -0.3728 -0.0433 -0.5345
 2735SOL     OW 9103   2.359   5.240   2.197 -0.4244  0.1027  0.2702
 2735SOL    HW1 9104   2.271   5.193   2.185  0.1574 -0.4405 -2.9705
 2735SOL    HW2 9105   2.343   5.339   2.195 -0.9941  0.0137  0.0065
 2736SOL     OW 9106   4.008   1.536   0.229  0.3834 -0.0380  0.5938
 2736SOL    HW1 9107   3.923   1.560   0.277 -0.6867 -2.3136 -0.0077
 2736SOL    HW2 9108   4.067   1.484   0.291  0.2600 -0.5321  0.3008
 2737SOL     OW 9109   6.322   2.892   6.633  0.2761  0.2627  0.4089
 2737SOL    HW1 9110   6.354   2.946   6.710  0.6487 -1.9622  1.9198
 2737SOL    HW2 9111   6.231   2.854   6.654  0.0562  0.2166 -0.5653
 2738SOL     OW 9112   0.938   3.839   5.002 -0.5557  0.2120 -0.8910
 2738SOL    HW1 9113   0.890   3.751   5.003 -0.4789  0.1556  1.2884
 2738SOL    HW2 9114   0.881   3.907   4.957 -1.7466 -0.3570 -0.2973
 2739SOL     OW 9115   3.599   4.732   5.616  0.0879  0.0932 -0.4787
 2739SOL    HW1 9116   3.524   4.667   5.608  1.0919 -1.0539 -0.8013
 2739SOL    HW2 9117   3.685   4.687   5.593  0.9204  1.3070  0.1543
 2740SOL     OW 9118   6.034   3.798   3.494 -0.1993 -0.1842  0.0905
 2740SOL    HW1 9119   6.031   3.703   3.466  0.4945  0.0861 -0.9528
 2740SOL    HW2 9120   5.941   3.833   3.503 -0.4513 -0.8368  0.0787
 2741SOL     OW 9121   3.185   3.426   5.993  0.1422  0.0918  0.1292
 2741SOL    HW1 9122   3.255   3.496   5.977 -0.3230  0.2315 -1.5489
 2741SOL    HW2 9123   3.095   3.469   5.993  0.0025 -0.0452  2.5376
 2742SOL     OW 9124   0.989   6.672   5.488 -0.5200  0.0537  0.2415
 2742SOL    HW1 9125   1.005   6.742   5.419  0.2185  0.1663  0.5152
 2742SOL    HW2 9126   1.061   6.677   5.558  0.3389 -1.8063 -0.4240
 2743SOL     OW 9127   5.685   2.810   6.650  0.0232  0.1692  0.8532
 2743SOL    HW1 9128   5.691   2.890   6.709 -0.1279  1.3425 -0.6446
 2743SOL    HW2 9129   5.771   2.759   6.654  1.0594  1.7551  0.0390
 2744SOL     OW 9130   3.964   5.919   1.218 -1.0108  0.2306 -0.3675
 2744SOL    HW1 9131   4.009   6.005   1.243  1.9547 -2.0791  3.2078
 2744SOL    HW2 9132   3.887   5.903   1.281 -2.1875  0.6038 -1.6497
 2745SOL     OW 9133   2.449   5.598   2.387  0.0927  0.3127 -0.7529
 2745SOL    HW1 9134   2.441   5.623   2.484 -0.0115 -3.2604  0.2940
 2745SOL    HW2 9135   2.358   5.573   2.352  0.5968 -1.5674 -0.7723
 2746SOL     OW 9136   0.628   1.827   0.367 -0.1616 -0.0036 -0.3382
 2746SOL    HW1 9137   0.530   1.810   0.380 -0.6139  1.7312 -1.1498
 2746SOL    HW2 9138   0.646   1.925   0.375  1.1549 -0.0357 -2.3051
 2747SOL     OW 9139   6.116   6.517   4.081 -0.0006  1.0581 -0.4979
 2747SOL    HW1 9140   6.139   6.591   4.145 -1.4363  0.7488  0.4183
 2747SOL    HW2 9141   6.089   6.436   4.133  0.4698  0.2431 -1.5067
 2748SOL     OW 9142   6.350   6.924   4.540  0.3409  0.1500  0.6475
 2748SOL    HW1 9143   6.356   6.861   4.618  1.0216  0.6101  0.9753
 2748SOL    HW2 9144   6.308   7.010   4.570 -3.1472 -1.0215 -0.3759
 2749SOL     OW 9145   6.280   5.721   4.176 -0.0743 -0.0260 -0.1168
 2749SOL    HW1 9146   6.366   5.688   4.137 -0.0701 -0.0172 -0.1150
 2749SOL    HW2 9147   6.252   5.660   4.250  0.6104  0.7002  0.7645
 2750SOL     OW 9148   0.973   1.740   0.172 -1.2117 -0.1630  0.0608
 2750SOL    HW1 9149   1.056   1.711   0.220 -0.7700 -1.2849 -1.2949
 2750SOL    HW2 9150   0.999   1.792   0.090 -1.9101  0.6262  0.3213
 2751SOL     OW 9151   0.718   0.778   5.785  0.1625  0.0271  0.0338
 2751SOL    HW1 9152   0.719   0.738   5.876  1.7004  0.5199  0.2515
 2751SOL    HW2 9153   0.695   0.708   5.718 -2.1776 -0.1007  0.8646
 2752SOL     OW 9154   5.549   5.551   6.495 -0.5499  0.1860 -1.1957
 2752SOL    HW1 9155   5.471   5.490   6.481 -1.5478  0.1942  3.0253
 2752SOL    HW2 9156   5.517   5.638   6.532  1.3783 -0.1333  1.5145
 2753SOL     OW 9157   3.945   5.621   4.402 -0.2969  0.0054 -0.2395
 2753SOL    HW1 9158   3.931   5.698   4.340  1.4399 -0.3676 -1.1420
 2753SOL    HW2 9159   3.904   5.539   4.364  1.5171 -0.4189 -1.3883
 2754SOL     OW 9160   0.837   5.142   4.378  0.1989  0.2260  0.4250
 2754SOL    HW1 9161   0.781   5.118   4.298  2.9550  0.0816 -1.6208
 2754SOL    HW2 9162   0.900   5.067   4.397  0.3743  0.7604  2.0525
 2755SOL     OW 9163   3.423   6.615   3.098  0.0459 -0.0511 -0.4381
 2755SOL    HW1 9164   3.472   6.696   3.131 -0.2150 -0.1761  0.2711
 2755SOL    HW2 9165   3.486   6.557   3.046  1.4391 -1.5664  2.7107
 2756SOL     OW 9166   6.496   2.609   5.598 -0.7671  0.8083  0.1566
 2756SOL    HW1 9167   6.594   2.622   5.614 -0.8147  0.0123  1.1795
 2756SOL    HW2 9168   6.463   2.680   5.536  0.5517  0.7998 -0.5970
 2757SOL     OW 9169   4.893   3.422   5.265 -0.0382 -0.1115 -0.7088
 2757SOL    HW1 9170   4.827   3.478   5.214  0.2715  0.4438 -0.5050
 2757SOL    HW2 9171   4.843   3.356   5.321 -0.5234  1.4852  0.8264
 2758SOL     OW 9172   6.619   0.291   0.894 -0.1515  0.5818 -0.5048
 2758SOL    HW1 9173   6.670   0.286   0.808 -1.2222 -3.0750 -1.0977
 2758SOL    HW2 9174   6.679   0.264   0.969 -0.0042  0.9089 -0.5007
 2759SOL     OW 9175   3.521   3.268   4.714 -0.3043 -0.5408  0.0643
 2759SOL    HW1 9176   3.500   3.170   4.721  0.0059 -0.6378 -0.3275
 2759SOL    HW2 9177   3.471   3.317   4.785 -0.5043 -0.9769  0.2345
 2760SOL     OW 9178   5.714   3.733   4.554 -0.4360  0.3086  0.0797
 2760SOL    HW1 9179   5.643   3.799   4.580  0.3454  2.0897 -1.9186
 2760SOL    HW2 9180   5.682   3.680   4.476  0.5470  1.5210 -1.2068
 2761SOL     OW 9181   2.498   2.481   5.055 -0.1132 -0.1838 -0.3740
 2761SOL    HW1 9182   2.586   2.468   5.101  1.0850  3.1047 -1.4378
 2761SOL    HW2 9183   2.429   2.506   5.123  0.9644  1.8464  0.0575
 2762SOL     OW 9184   3.977   1.037   2.912 -0.0152  0.0444  0.2546
 2762SOL    HW1 9185   4.036   0.967   2.951 -0.7159  0.5016  2.2326
 2762SOL    HW2 9186   3.895   1.047   2.969 -0.0320  2.3218 -0.0997
 2763SOL     OW 9187   6.007   6.795   2.188  0.8032 -0.2110  0.1443
 2763SOL    HW1 9188   5.988   6.886   2.150  0.4632 -0.5692 -0.5597
 2763SOL    HW2 9189   6.086   6.755   2.142  2.6114  0.7560  2.2109
 2764SOL     OW 9190   6.807   0.594   1.720  0.3726  0.3205 -0.1029
 2764SOL    HW1 9191   6.721   0.605   1.771 -0.0910  2.3690 -1.2344
 2764SOL    HW2 9192   6.875   0.657   1.757  0.7230  0.2307 -0.5982
 2765SOL     OW 9193   5.393   0.698   1.385  0.2125  0.2466  0.3323
 2765SOL    HW1 9194   5.371   0.648   1.468 -0.2317 -0.6409 -0.2968
 2765SOL    HW2 9195   5.474   0.657   1.342  0.4238  0.6784  0.3178
 2766SOL     OW 9196   4.332   0.383   1.005  0.0595 -0.2510 -0.1398
 2766SOL    HW1 9197   4.319   0.342   0.914 -2.9893  0.3112 -0.0671
 2766SOL    HW2 9198   4.294   0.322   1.075 -0.8629  0.8498  0.3640
 2767SOL     OW 9199   6.724   5.541   6.883 -0.5539 -0.6718  0.2890
 2767SOL    HW1 9200   6.823   5.543   6.892 -0.4985 -0.0677 -0.3916
 2767SOL    HW2 9201   6.682   5.535   6.973  0.0871 -0.4951  0.6036
 2768SOL     OW 9202   3.314   6.383   1.440  0.3922  0.3274 -0.1946
 2768SOL    HW1 9203   3.248   6.403   1.512  2.1982  0.6018  1.4440
 2768SOL    HW2 9204   3.330   6.285   1.435  1.5215  0.4348  0.9724
 2769SOL     OW 9205   6.431   5.681   5.056  0.1166 -0.0241 -0.1294
 2769SOL    HW1 9206   6.525   5.647   5.049  0.4872  0.1007  3.0135
 2769SOL    HW2 9207   6.424   5.769   5.008  1.8543  0.3739  0.2792
 2770SOL     OW 9208   6.842   4.565   6.789 -0.1257  0.0534 -0.2680
 2770SOL    HW1 9209   6.864   4.494   6.855  0.2503 -0.2498 -0.7207
 2770SOL    HW2 9210   6.778   4.630   6.831  2.3971  1.5792  1.4701
 2771SOL     OW 9211   2.070   6.302   4.743 -0.4539  0.3178  0.2272
 2771SOL    HW1 9212   2.046   6.221   4.691  0.2089  0.6158 -0.5792
 2771SOL    HW2 9213   2.029   6.383   4.701  0.7609  0.6620 -0.3512
 2772SOL     OW 9214   6.734   1.062   2.488  0.1862 -0.0954  0.2436
 2772SOL    HW1 9215   6.765   1.093   2.578  1.1324  1.2323 -0.5118
 2772SOL    HW2 9216   6.780   0.976   2.465  1.4740  0.5855  0.1931
 2773SOL     OW 9217   5.465   0.500   0.762  0.0027 -0.3389 -0.3751
 2773SOL    HW1 9218   5.441   0.405   0.784 -0.8621  0.2660  1.4245
 2773SOL    HW2 9219   5.436   0.560   0.836  1.5365  1.2213 -0.9828
 2774SOL     OW 9220   5.268   5.042   2.562 -0.1639  0.3977  0.5090
 2774SOL    HW1 9221   5.260   5.105   2.485 -0.5314 -0.6126 -0.3104
 2774SOL    HW2 9222   5.208   5.073   2.636  1.3208  2.2146  1.0240
 2775SOL     OW 9223   6.232   1.644   5.772  0.1168  0.4579  0.1814
 2775SOL    HW1 9224   6.233   1.544   5.763  2.1771  0.3678  0.8614
 2775SOL    HW2 9225   6.137   1.676   5.773 -0.5778 -1.3431 -1.2772
 2776SOL     OW 9226   5.489   4.401   6.301  0.2957  0.2443 -0.3451
 2776SOL    HW1 9227   5.451   4.409   6.209  0.0415  2.0222 -0.1266
 2776SOL    HW2 9228   5.416   4.377   6.365  0.1050  0.7391 -0.3666
 2777SOL     OW 9229   2.229   2.497   1.491  0.0732 -0.9830 -0.1294
 2777SOL    HW1 9230   2.292   2.424   1.513 -0.6596 -1.6321 -0.1381
 2777SOL    HW2 9231   2.244   2.574   1.554 -1.3959 -2.4690  2.2401
 2778SOL     OW 9232   3.178   5.923   4.506  0.0403  0.7074  0.2501
 2778SOL    HW1 9233   3.097   5.866   4.524  1.4845 -2.4351 -2.1449
 2778SOL    HW2 9234   3.154   5.994   4.440 -1.2173  1.1962  1.1954
 2779SOL     OW 9235   6.840   2.930   2.835  0.0020 -0.7473  0.2431
 2779SOL    HW1 9236   6.852   3.002   2.903 -2.7184 -0.6885  0.7763
 2779SOL    HW2 9237   6.903   2.946   2.758 -1.7060  3.3691 -0.5933
 2780SOL     OW 9238   6.739   1.015   4.112 -0.2196 -0.0600  0.0786
 2780SOL    HW1 9239   6.779   1.001   4.021 -1.1673  1.8655 -0.6733
 2780SOL    HW2 9240   6.700   0.929   4.144  0.8440 -0.9726 -0.9679
 2781SOL     OW 9241   6.999   4.325   2.586 -0.0749  1.0578 -0.0547
 2781SOL    HW1 9242   7.064   4.283   2.649  0.0819  0.8087 -0.3863
 2781SOL    HW2 9243   6.985   4.421   2.612  0.3309  1.0789  0.0841
 2782SOL     OW 9244   4.860   0.481   6.363  0.5553 -0.1922  0.0375
 2782SOL    HW1 9245   4.953   0.492   6.398  0.7082 -0.1118 -0.3912
 2782SOL    HW2 9246   4.808   0.419   6.423  0.8529 -0.1612  0.3285
 2783SOL     OW 9247   1.419   2.064   7.005  0.3257  0.2122 -0.6268
 2783SOL    HW1 9248   1.396   1.997   7.076  1.9200  0.4750  0.1818
 2783SOL    HW2 9249   1.376   2.037   6.919 -1.1531 -0.4404  0.2748
 2784SOL     OW 9250   2.347   2.401   4.588  0.5099  0.5658 -0.1745
 2784SOL    HW1 9251   2.420   2.465   4.612  0.3932  0.2146  1.2646
 2784SOL    HW2 9252   2.345   2.327   4.657 -0.2329 -0.2353 -1.0334
 2785SOL     OW 9253   5.494   3.548   3.447  0.1921  0.4442  0.2473
 2785SOL    HW1 9254   5.588   3.528   3.472  0.5274  2.7077  1.0786
 2785SOL    HW2 9255   5.434   3.475   3.479  1.7089 -1.4432 -1.0305
 2786SOL     OW 9256   6.731   4.432   1.780 -0.0164  0.5091 -0.3257
 2786SOL    HW1 9257   6.823   4.415   1.816 -0.1647  2.3536  1.1259
 2786SOL    HW2 9258   6.731   4.417   1.681  1.1548 -1.9923 -0.0334
 2787SOL     OW 9259   6.012   6.132   6.500  1.0157 -0.7902  0.3207
 2787SOL    HW1 9260   5.987   6.036   6.494 -0.7454 -0.4535  1.3347
 2787SOL    HW2 9261   5.972   6.182   6.423  0.7661 -0.6630  0.5305
 2788SOL     OW 9262   3.103   6.213   0.866  0.6383 -0.5490 -0.0556
 2788SOL    HW1 9263   3.159   6.159   0.803  1.0941 -0.7518  0.5141
 2788SOL    HW2 9264   3.163   6.264   0.928  0.2263 -1.9505  1.5785
 2789SOL     OW 9265   2.706   2.347   3.260 -0.7213  0.3586 -0.2640
 2789SOL    HW1 9266   2.655   2.403   3.194  0.0224  1.2413 -0.1099
 2789SOL    HW2 9267   2.732   2.403   3.338 -1.9765 -0.7884  1.0203
 2790SOL     OW 9268   0.381   5.055   6.862 -0.5681 -0.1096 -0.2268
 2790SOL    HW1 9269   0.331   5.000   6.794 -3.5902  1.7086  0.3607
 2790SOL    HW2 9270   0.323   5.072   6.941  1.9002  0.1755  1.6381
 2791SOL     OW 9271   1.104   4.604   6.658 -0.4061 -0.7096  0.1670
 2791SOL    HW1 9272   1.101   4.696   6.620  0.5675  0.0635  1.8419
 2791SOL    HW2 9273   1.170   4.601   6.733  0.0395 -2.9407 -0.2364
 2792SOL     OW 9274   4.158   2.487   6.253 -0.0790  0.4186 -0.6865
 2792SOL    HW1 9275   4.086   2.436   6.299  0.6014  1.2245  1.3938
 2792SOL    HW2 9276   4.247   2.455   6.286  0.4694  0.6504 -1.8987
 2793SOL     OW 9277   4.830   4.118   0.982 -0.6216 -0.4052 -0.1409
 2793SOL    HW1 9278   4.912   4.112   1.038 -0.7932  1.3418  0.3634
 2793SOL    HW2 9279   4.752   4.080   1.033 -0.6697  0.6565  0.5888
 2794SOL     OW 9280   1.299   1.770   1.967 -0.3414 -0.2808 -0.4410
 2794SOL    HW1 9281   1.249   1.799   2.049  1.4725  1.2556  0.1870
 2794SOL    HW2 9282   1.234   1.758   1.891 -1.7471  0.8122  0.5310
 2795SOL     OW 9283   1.465   6.548   0.113 -0.0712  0.5656 -0.0712
 2795SOL    HW1 9284   1.391   6.509   0.057 -0.3616  0.5355  0.3315
 2795SOL    HW2 9285   1.541   6.573   0.054  1.0391 -2.6023 -0.2073
 2796SOL     OW 9286   2.063   6.054   6.563 -0.3394  0.4616  0.3676
 2796SOL    HW1 9287   2.060   5.958   6.590  0.3545  0.5129  0.6361
 2796SOL    HW2 9288   2.081   6.060   6.465  2.2193  0.3206  0.7562
 2797SOL     OW 9289   4.266   4.769   4.846 -0.3889  0.0513  0.6689
 2797SOL    HW1 9290   4.353   4.779   4.798  0.0042  2.3092  1.7153
 2797SOL    HW2 9291   4.269   4.689   4.905  0.2926 -0.9126 -0.6126
 2798SOL     OW 9292   5.980   0.448   2.955  0.0331  0.3511  0.6857
 2798SOL    HW1 9293   6.010   0.433   2.861  1.4494 -0.0630  1.1852
 2798SOL    HW2 9294   5.999   0.543   2.982 -1.2946  0.7675  0.2545
 2799SOL     OW 9295   2.520   6.126   3.387 -0.3120 -0.5795  0.0204
 2799SOL    HW1 9296   2.472   6.171   3.463 -1.5525  0.2191 -1.2013
 2799SOL    HW2 9297   2.512   6.026   3.398  3.0605 -0.7059  3.1338
 2800SOL     OW 9298   5.478   2.137   0.301  0.0686 -1.3981  0.1614
 2800SOL    HW1 9299   5.500   2.141   0.203  0.2980  0.0146  0.2511
 2800SOL    HW2 9300   5.546   2.079   0.347 -0.0631 -2.1124 -0.5088
 2801SOL     OW 9301   5.278   4.573   2.984 -0.3739 -0.0689  0.7429
 2801SOL    HW1 9302   5.319   4.542   2.898 -0.3137  0.5742  0.5333
 2801SOL    HW2 9303   5.253   4.669   2.975 -2.6400 -0.6207  0.5999
 2802SOL     OW 9304   1.019   3.960   4.511 -0.3215 -0.3321 -0.3622
 2802SOL    HW1 9305   1.118   3.975   4.507 -0.3327 -0.2032 -0.1807
 2802SOL    HW2 9306   0.996   3.878   4.459  0.2531 -2.2433  2.1943
 2803SOL     OW 9307   3.615   1.752   3.042  0.0055 -0.0371 -0.2479
 2803SOL    HW1 9308   3.520   1.756   3.073  0.4327  1.4699  0.9853
 2803SOL    HW2 9309   3.619   1.774   2.944 -1.0979 -2.2739 -0.8674
 2804SOL     OW 9310   5.514   1.419   4.435  0.1716 -0.1409  0.0376
 2804SOL    HW1 9311   5.486   1.323   4.433 -1.3936  0.2723 -2.0476
 2804SOL    HW2 9312   5.475   1.463   4.515 -0.9133 -0.7857 -0.1050
 2805SOL     OW 9313   2.356   6.035   6.656 -0.3951  0.1973  0.5565
 2805SOL    HW1 9314   2.369   6.068   6.750  0.4354  1.1610  0.1176
 2805SOL    HW2 9315   2.279   6.083   6.615 -0.4305  0.1507  0.5673
 2806SOL     OW 9316   0.532   3.298   3.834  0.0208  0.1873  0.0235
 2806SOL    HW1 9317   0.440   3.260   3.839  0.3279 -0.7122 -0.8450
 2806SOL    HW2 9318   0.573   3.298   3.926 -1.1861  1.5311  0.5915
 2807SOL     OW 9319   6.113   6.604   3.646  0.7065  0.7715 -0.0143
 2807SOL    HW1 9320   6.172   6.581   3.723  2.0833  2.4887 -0.4844
 2807SOL    HW2 9321   6.094   6.702   3.646  1.5643  1.0107 -2.3666
 2808SOL     OW 9322   1.088   6.392   5.998  0.0840  0.2154 -0.0968
 2808SOL    HW1 9323   1.062   6.449   5.920  2.0138  2.0379  0.4945
 2808SOL    HW2 9324   1.110   6.300   5.965 -1.9904  0.0773 -1.2492
 2809SOL     OW 9325   0.434   5.669   1.931 -0.1451 -0.1490  0.1959
 2809SOL    HW1 9326   0.501   5.650   1.859  0.1543 -0.8866  0.6545
 2809SOL    HW2 9327   0.480   5.713   2.008 -0.0551 -1.2048  0.7599
 2810SOL     OW 9328   6.792   6.506   3.001  0.4457 -0.6502 -0.1086
 2810SOL    HW1 9329   6.774   6.482   3.097  1.2306  1.3229  0.5703
 2810SOL    HW2 9330   6.789   6.422   2.946  1.1715 -2.0266  1.8051
 2811SOL     OW 9331   6.199   6.593   2.318  0.1410 -0.2183  0.1178
 2811SOL    HW1 9332   6.123   6.528   2.326  0.5909 -0.7707 -0.0982
 2811SOL    HW2 9333   6.277   6.548   2.276  0.6931  0.2724  0.6065
 2812SOL     OW 9334   1.832   6.611   6.739 -0.0648  0.5950 -0.0023
 2812SOL    HW1 9335   1.796   6.604   6.832 -0.7028 -0.9060 -0.3310
 2812SOL    HW2 9336   1.926   6.576   6.737 -0.8266 -1.5796 -0.3060
 2813SOL     OW 9337   4.204   1.899   2.804  0.0977 -0.3577  1.0737
 2813SOL    HW1 9338   4.175   1.995   2.811  0.8968 -0.1712  2.1907
 2813SOL    HW2 9339   4.170   1.849   2.884 -0.0837 -0.9497  0.6285
 2814SOL     OW 9340   3.294   4.356   6.740  0.3097 -0.2035 -0.2573
 2814SOL    HW1 9341   3.229   4.384   6.811  1.0772  2.6575 -0.5367
 2814SOL    HW2 9342   3.256   4.279   6.688 -1.8117 -0.1022  1.0208
 2815SOL     OW 9343   0.173   0.872   6.795 -0.0305  0.0952 -0.0876
 2815SOL    HW1 9344   0.182   0.800   6.727 -0.7877 -0.2742  0.1976
 2815SOL    HW2 9345   0.115   0.945   6.758 -0.9713 -0.3968  0.3798
 2816SOL     OW 9346   1.308   5.838   5.170  0.0013 -0.2552  0.2786
 2816SOL    HW1 9347   1.367   5.781   5.114  1.0751 -1.3121  2.3808
 2816SOL    HW2 9348   1.314   5.810   5.265 -2.3088  0.9954  0.8825
 2817SOL     OW 9349   2.971   0.426   4.140 -0.2449  0.4973  0.6032
 2817SOL    HW1 9350   3.023   0.463   4.063  0.6010 -0.6877  0.5786
 2817SOL    HW2 9351   3.031   0.370   4.197 -1.3176 -0.3001  0.9848
 2818SOL     OW 9352   0.505   1.527   0.367  0.1008 -0.0700  0.0269
 2818SOL    HW1 9353   0.418   1.524   0.416  1.6313 -0.1653  3.0426
 2818SOL    HW2 9354   0.548   1.617   0.382  1.6730 -0.9271  0.9492
 2819SOL     OW 9355   4.891   1.886   6.108 -0.0925 -0.7420  0.2052
 2819SOL    HW1 9356   4.891   1.931   6.197 -1.2020 -0.4877  0.0954
 2819SOL    HW2 9357   4.798   1.857   6.085 -0.5246  2.1716 -2.3615
 2820SOL     OW 9358   0.242   2.130   0.546  0.4208 -0.2409  0.2490
 2820SOL    HW1 9359   0.335   2.113   0.580  0.1770  0.2005  1.1505
 2820SOL    HW2 9360   0.187   2.047   0.558  0.2731 -0.0188  1.1610
 2821SOL     OW 9361   3.795   3.337   0.157  0.0731  0.2384 -0.0437
 2821SOL    HW1 9362   3.870   3.402   0.162  0.4824  0.0441 -2.5759
 2821SOL    HW2 9363   3.783   3.293   0.246  1.0918  2.2684  1.1711
 2822SOL     OW 9364   3.781   3.669   2.035  0.5277  0.8042  0.1694
 2822SOL    HW1 9365   3.723   3.743   1.999 -1.8067 -1.2776 -0.6677
 2822SOL    HW2 9366   3.738   3.581   2.015  1.7330 -0.7283  3.6463
 2823SOL     OW 9367   5.648   2.320   3.258  0.2076  0.3627  0.4217
 2823SOL    HW1 9368   5.658   2.415   3.229 -0.4171  0.1962 -0.3591
 2823SOL    HW2 9369   5.726   2.294   3.316  0.3951  1.3313  0.6080
 2824SOL     OW 9370   0.866   4.867   6.727 -1.0570 -0.0752  0.2129
 2824SOL    HW1 9371   0.871   4.913   6.638 -0.4385  2.0597  1.2673
 2824SOL    HW2 9372   0.776   4.825   6.737 -2.6609  2.9675  0.0136
 2825SOL     OW 9373   3.616   1.865   5.591 -0.0600  0.0161 -0.4314
 2825SOL    HW1 9374   3.584   1.876   5.685  0.9046 -0.4558 -0.0390
 2825SOL    HW2 9375   3.566   1.928   5.531  0.7614  1.8347  0.7156
 2826SOL     OW 9376   3.059   3.025   6.152 -0.1711 -0.4893  0.2207
 2826SOL    HW1 9377   3.075   3.090   6.078 -2.7991  0.7903  0.6510
 2826SOL    HW2 9378   3.021   2.940   6.114 -1.5013  0.1586  0.0396
 2827SOL     OW 9379   0.437   2.575   6.864  0.2883  0.6134  0.0543
 2827SOL    HW1 9380   0.419   2.617   6.953  0.6052 -1.0026  0.9277
 2827SOL    HW2 9381   0.424   2.476   6.871  0.0491  0.4781 -1.7840
 2828SOL     OW 9382   1.228   3.073   0.282 -0.2856 -0.2055  0.6689
 2828SOL    HW1 9383   1.316   3.093   0.237 -0.4625  0.8797  0.7744
 2828SOL    HW2 9384   1.238   3.086   0.380 -0.6413  0.2467  0.6482
 2829SOL     OW 9385   3.130   4.811   2.526 -0.2357  0.4347  0.1290
 2829SOL    HW1 9386   3.129   4.711   2.527  1.5924  0.3790  0.4129
 2829SOL    HW2 9387   3.045   4.845   2.487 -0.7859 -1.2293 -0.2045
 2830SOL     OW 9388   2.541   5.628   5.254  0.8073 -0.2181  0.2712
 2830SOL    HW1 9389   2.560   5.601   5.160  0.8747  0.4297  0.0966
 2830SOL    HW2 9390   2.572   5.722   5.270  1.3389 -0.5200  1.1096
 2831SOL     OW 9391   4.332   2.032   1.059 -0.2459  0.7953 -0.0148
 2831SOL    HW1 9392   4.314   2.078   1.146  0.0309  1.4901 -0.3237
 2831SOL    HW2 9393   4.345   2.099   0.987 -0.9810  0.2207 -0.7119
 2832SOL     OW 9394   1.349   3.682   1.852 -0.0273  0.2980  0.9213
 2832SOL    HW1 9395   1.289   3.622   1.799 -1.3487  2.0195  0.3473
 2832SOL    HW2 9396   1.374   3.762   1.796  0.9928  0.7170  1.9192
 2833SOL     OW 9397   0.774   2.107   3.790  0.0222 -0.3566  0.0567
 2833SOL    HW1 9398   0.737   2.051   3.864 -1.3275 -0.3612 -0.6060
 2833SOL    HW2 9399   0.787   2.201   3.822 -1.7285 -0.0632 -0.0376
 2834SOL     OW 9400   3.722   2.089   3.799 -0.0215 -0.4519  0.3254
 2834SOL    HW1 9401   3.734   2.126   3.891 -0.0059  0.8865 -0.2003
 2834SOL    HW2 9402   3.795   2.122   3.739 -0.5493 -0.5506 -0.3924
 2835SOL     OW 9403   6.003   1.946   1.144 -0.0403 -0.0733  0.2745
 2835SOL    HW1 9404   5.940   1.909   1.212 -0.3578  2.6947  1.6509
 2835SOL    HW2 9405   5.951   1.979   1.065 -0.5549  2.6666  1.6227
 2836SOL     OW 9406   2.288   6.297   1.034  0.6210  0.1012 -0.4375
 2836SOL    HW1 9407   2.244   6.207   1.038 -1.5169  1.1414  1.3983
 2836SOL    HW2 9408   2.387   6.285   1.029  0.4486 -2.3582  0.4571
 2837SOL     OW 9409   6.249   4.167   3.119  0.5661  0.2805 -0.3289
 2837SOL    HW1 9410   6.340   4.202   3.094 -0.2352  0.9638 -2.5848
 2837SOL    HW2 9411   6.255   4.070   3.139  1.8181  0.3315 -0.3507
 2838SOL     OW 9412   7.015   6.553   5.334 -0.4035 -0.1681 -0.2742
 2838SOL    HW1 9413   6.991   6.593   5.422  0.8729 -1.1900  0.5605
 2838SOL    HW2 9414   7.013   6.453   5.340 -3.0743 -0.3527 -2.1948
 2839SOL     OW 9415   5.063   1.939   1.040  0.2630 -0.1174  0.1670
 2839SOL    HW1 9416   5.135   1.951   1.108 -0.9447  0.3933  1.4127
 2839SOL    HW2 9417   4.976   1.969   1.079 -0.4374  0.3676 -1.6846
 2840SOL     OW 9418   5.174   6.278   6.172  0.7030 -0.1431  0.1052
 2840SOL    HW1 9419   5.114   6.207   6.135 -1.2385  0.3338  2.0785
 2840SOL    HW2 9420   5.146   6.367   6.137 -0.0172  0.1191  1.2991
 2841SOL     OW 9421   3.909   1.666   2.827 -0.0576 -0.1687 -0.2187
 2841SOL    HW1 9422   3.829   1.614   2.855 -0.5464  0.2719 -0.7650
 2841SOL    HW2 9423   3.985   1.604   2.808 -0.7208 -0.7105 -1.1508
 2842SOL     OW 9424   0.148   0.733   4.242 -0.0269 -0.8236  0.0948
 2842SOL    HW1 9425   0.203   0.749   4.159 -1.3319  0.0618 -0.6226
 2842SOL    HW2 9426   0.077   0.666   4.222  1.4228 -2.8570  1.3418
 2843SOL     OW 9427   1.309   2.914   4.257 -0.1300  0.4890 -0.1643
 2843SOL    HW1 9428   1.219   2.885   4.225 -0.7172  1.8114  0.2124
 2843SOL    HW2 9429   1.337   2.858   4.335 -0.5510 -0.0391 -0.3913
 2844SOL     OW 9430   4.690   4.296   2.721 -0.0473  0.5061  0.0023
 2844SOL    HW1 9431   4.673   4.261   2.813 -0.7993  0.6531 -0.0770
 2844SOL    HW2 9432   4.777   4.346   2.720  0.9941 -1.2114  0.1576
 2845SOL     OW 9433   3.033   2.587   1.746 -0.1678 -0.0298 -0.2921
 2845SOL    HW1 9434   2.967   2.539   1.804 -1.8145  2.2901 -0.1042
 2845SOL    HW2 9435   3.120   2.538   1.748 -1.5669 -2.7230  0.1809
 2846SOL     OW 9436   5.571   2.207   5.414  0.1358  0.1957 -0.0924
 2846SOL    HW1 9437   5.502   2.162   5.358 -0.3148  1.8506 -0.9401
 2846SOL    HW2 9438   5.660   2.202   5.367  0.4800 -1.2707  0.6438
 2847SOL     OW 9439   6.307   4.328   2.417  0.5028  0.0875  0.2525
 2847SOL    HW1 9440   6.323   4.318   2.319  2.4968 -1.2465  0.6381
 2847SOL    HW2 9441   6.226   4.276   2.443 -2.1773  3.2738 -1.1415
 2848SOL     OW 9442   6.364   4.045   0.809 -0.1075 -0.4649 -0.3208
 2848SOL    HW1 9443   6.282   3.989   0.823 -0.0592 -0.7491 -1.1324
 2848SOL    HW2 9444   6.336   4.137   0.779 -0.1242 -0.6577 -0.9076
 2849SOL     OW 9445   5.074   2.439   0.963 -0.2668  0.0007 -0.0246
 2849SOL    HW1 9446   5.045   2.497   0.887  1.3018  2.6548  1.2370
 2849SOL    HW2 9447   5.174   2.435   0.966 -0.2784 -0.0985  1.8008
 2850SOL     OW 9448   0.573   1.151   1.088  0.0648  0.2198  0.1299
 2850SOL    HW1 9449   0.502   1.084   1.070  0.5418 -0.1432 -0.4105
 2850SOL    HW2 9450   0.591   1.155   1.187  1.0414 -1.4974  0.0603
 2851SOL     OW 9451   3.271   2.898   2.788 -0.0974  0.1247 -0.5304
 2851SOL    HW1 9452   3.353   2.905   2.731  0.2352 -1.2837 -0.2677
 2851SOL    HW2 9453   3.209   2.830   2.748 -0.3404 -0.0938  0.1974
 2852SOL     OW 9454   1.933   4.648   4.371  0.1071  0.1625 -0.5615
 2852SOL    HW1 9455   1.854   4.613   4.422 -0.6176 -0.4479 -2.0505
 2852SOL    HW2 9456   2.015   4.641   4.428 -0.5242 -1.2454  0.2276
 2853SOL     OW 9457   0.042   6.282   6.846 -0.0401  0.2909  0.2988
 2853SOL    HW1 9458   0.050   6.184   6.866 -0.5988  0.4793  1.5197
 2853SOL    HW2 9459   0.116   6.309   6.785  3.0698  0.0665  3.6421
 2854SOL     OW 9460   3.343   0.788   6.774  0.3757 -0.5677 -0.3928
 2854SOL    HW1 9461   3.366   0.884   6.791  0.3645 -0.2533 -2.0394
 2854SOL    HW2 9462   3.264   0.763   6.830 -1.5423  1.2861 -2.1059
 2855SOL     OW 9463   2.796   2.132   3.509 -0.2589 -0.6933 -0.1224
 2855SOL    HW1 9464   2.748   2.211   3.471 -0.2327 -2.1717 -3.5775
 2855SOL    HW2 9465   2.733   2.055   3.516  0.5200 -1.3565 -0.2692
 2856SOL     OW 9466   1.642   4.875   5.307 -0.4140  0.0730  0.2989
 2856SOL    HW1 9467   1.651   4.961   5.358  1.8609  2.0973 -3.1396
 2856SOL    HW2 9468   1.570   4.884   5.239  0.1942 -0.5485 -0.4396
 2857SOL     OW 9469   0.345   5.391   0.280  0.2778  0.2813 -0.3059
 2857SOL    HW1 9470   0.414   5.438   0.335  1.4092  0.0595 -1.5040
 2857SOL    HW2 9471   0.290   5.458   0.231 -1.4432  0.5453  1.8246
 2858SOL     OW 9472   5.402   5.459   3.005 -0.8085  0.7372  0.6328
 2858SOL    HW1 9473   5.400   5.515   3.088  1.2446  1.5201  0.2258
 2858SOL    HW2 9474   5.460   5.504   2.937  0.1956 -1.4692 -0.0300
 2859SOL     OW 9475   1.415   3.975   2.973 -0.0884 -0.3199  0.5218
 2859SOL    HW1 9476   1.406   4.067   2.934 -0.1406 -1.2266 -1.7993
 2859SOL    HW2 9477   1.439   3.911   2.900 -2.2151 -2.5308  1.6238
 2860SOL     OW 9478   1.181   0.440   3.612 -0.2894 -0.6798  0.2438
 2860SOL    HW1 9479   1.212   0.535   3.607  3.2949 -1.7364 -1.2390
 2860SOL    HW2 9480   1.220   0.396   3.693  3.5274 -2.3264 -2.2053
 2861SOL     OW 9481   5.208   3.512   5.752 -0.2680 -0.0413 -0.2206
 2861SOL    HW1 9482   5.120   3.548   5.720  0.4072  1.2841 -0.6573
 2861SOL    HW2 9483   5.194   3.421   5.790 -1.6220 -0.3990 -1.4496
 2862SOL     OW 9484   4.301   2.615   1.047 -0.0460 -0.0295 -0.1326
 2862SOL    HW1 9485   4.264   2.528   1.081  0.8301  0.0581  1.1352
 2862SOL    HW2 9486   4.236   2.689   1.068 -0.0576 -0.1556  0.2939
 2863SOL     OW 9487   5.725   1.757   0.064 -0.0128 -0.0048  0.1168
 2863SOL    HW1 9488   5.633   1.750   0.103 -0.2530  4.1187  0.7704
 2863SOL    HW2 9489   5.722   1.816  -0.016  1.8876 -1.1323 -0.8487
 2864SOL     OW 9490   3.298   4.868   1.049 -0.5627  0.6139 -0.0491
 2864SOL    HW1 9491   3.378   4.853   1.108 -0.8231 -0.8344 -0.0219
 2864SOL    HW2 9492   3.222   4.900   1.105 -0.6542 -0.2486  0.3447
 2865SOL     OW 9493   5.161   5.200   0.847 -0.1339 -0.1659 -0.4761
 2865SOL    HW1 9494   5.098   5.225   0.773  0.9201 -0.2387 -1.4175
 2865SOL    HW2 9495   5.212   5.281   0.876  0.8052 -0.5007 -1.1468
 2866SOL     OW 9496   5.540   5.991   2.150 -0.2511 -1.0533  0.2784
 2866SOL    HW1 9497   5.474   5.995   2.225  2.0907 -1.0512  2.4719
 2866SOL    HW2 9498   5.588   5.903   2.153  0.7837 -0.5236 -0.4378
 2867SOL     OW 9499   6.048   6.912   4.667  0.1025  0.0154 -0.3162
 2867SOL    HW1 9500   6.085   6.850   4.597 -1.2080 -0.4828 -0.5893
 2867SOL    HW2 9501   6.102   6.996   4.668  0.8079 -0.4056 -1.1791
 2868SOL     OW 9502   0.896   5.796   4.246 -0.0867 -0.0018 -0.1385
 2868SOL    HW1 9503   0.973   5.739   4.218 -0.8052 -0.7785 -0.5931
 2868SOL    HW2 9504   0.919   5.893   4.232  1.0098 -0.1860  0.2895
 2869SOL     OW 9505   4.842   3.062   4.277  0.2292  0.5028  0.1853
 2869SOL    HW1 9506   4.807   3.013   4.197  0.6388  0.6568 -0.0973
 2869SOL    HW2 9507   4.830   3.007   4.359  0.4194  0.0547 -0.0863
 2870SOL     OW 9508   1.320   3.146   6.263  0.2273 -0.0432 -0.5111
 2870SOL    HW1 9509   1.292   3.054   6.293 -1.6687  0.7277  0.2636
 2870SOL    HW2 9510   1.406   3.170   6.307 -0.2758 -0.6868  0.8973
 2871SOL     OW 9511   4.401   1.839   4.515 -0.0854  0.6002  0.1393
 2871SOL    HW1 9512   4.340   1.860   4.592  0.0253  1.0719  0.1045
 2871SOL    HW2 9513   4.435   1.745   4.524  1.9234  1.4040  2.0747
 2872SOL     OW 9514   3.478   6.838   3.436 -0.2582 -0.3913  0.3362
 2872SOL    HW1 9515   3.506   6.836   3.340 -2.1103 -1.3904 -0.2379
 2872SOL    HW2 9516   3.555   6.812   3.494  1.0647  0.8191 -0.7951
 2873SOL     OW 9517   1.887   0.516   3.260 -0.1944  0.0548  0.4065
 2873SOL    HW1 9518   1.920   0.535   3.352 -1.2000  1.7572  0.4713
 2873SOL    HW2 9519   1.800   0.563   3.246 -0.3348 -0.6278 -1.2353
 2874SOL     OW 9520   0.739   0.540   2.060 -0.0092 -0.2007 -0.0866
 2874SOL    HW1 9521   0.745   0.568   1.964 -0.0931  0.6192  0.1400
 2874SOL    HW2 9522   0.798   0.599   2.115  2.3701 -2.4618  0.0164
 2875SOL     OW 9523   1.415   5.558   2.631  0.1373 -0.2293  0.0513
 2875SOL    HW1 9524   1.359   5.591   2.555  1.9154  0.9182 -0.8174
 2875SOL    HW2 9525   1.366   5.572   2.717 -0.2902  2.2324 -0.5289
 2876SOL     OW 9526   0.062   0.542   5.492  0.1647 -0.2100 -0.2676
 2876SOL    HW1 9527   0.137   0.549   5.559 -1.2075 -0.1745  1.3320
 2876SOL    HW2 9528  -0.022   0.517   5.539 -0.4806 -2.1653 -2.2715
 2877SOL     OW 9529   1.181   2.840   5.674  0.3172  0.0727  0.4625
 2877SOL    HW1 9530   1.267   2.885   5.650  0.5543 -1.2102 -1.2595
 2877SOL    HW2 9531   1.197   2.742   5.686 -0.8529 -0.1465  0.3361
 2878SOL     OW 9532   2.335   3.707   5.970 -0.1892  0.8297 -0.1526
 2878SOL    HW1 9533   2.412   3.709   5.906 -0.3984  3.2351 -0.4263
 2878SOL    HW2 9534   2.255   3.748   5.927 -0.8853  0.7035  0.9897
 2879SOL     OW 9535   0.134   5.601   0.967  0.3344  0.7437  0.9154
 2879SOL    HW1 9536   0.153   5.596   0.869  2.5298 -1.1216  1.3624
 2879SOL    HW2 9537   0.196   5.667   1.010 -0.0932  0.9832  1.1719
 2880SOL     OW 9538   1.277   2.412   2.944 -0.5413  0.0649  0.4525
 2880SOL    HW1 9539   1.268   2.487   3.009 -0.1243  0.7579 -0.2702
 2880SOL    HW2 9540   1.367   2.417   2.900 -0.6904 -0.5813  0.0646
 2881SOL     OW 9541   3.677   5.032   0.804 -0.4102  0.2682 -0.3646
 2881SOL    HW1 9542   3.694   5.068   0.896 -3.5633  2.5633 -0.5195
 2881SOL    HW2 9543   3.758   5.048   0.748  1.5162 -0.9911  1.8688
 2882SOL     OW 9544   4.295   1.162   0.011  0.2091 -0.0468  0.0856
 2882SOL    HW1 9545   4.257   1.244  -0.033  2.7277  1.4844  0.5802
 2882SOL    HW2 9546   4.220   1.103   0.041 -1.7101  1.9661 -0.4468
 2883SOL     OW 9547   5.863   4.791   1.975  0.2932 -0.2531  0.3528
 2883SOL    HW1 9548   5.797   4.747   1.914 -0.4526 -0.6894  1.4487
 2883SOL    HW2 9549   5.873   4.887   1.949  0.9704 -0.7127 -1.2557
 2884SOL     OW 9550   5.133   3.813   4.401 -0.1788  0.1549  0.0148
 2884SOL    HW1 9551   5.080   3.895   4.379  1.6549  1.7775  1.3145
 2884SOL    HW2 9552   5.091   3.733   4.357 -1.3137  1.9338 -2.3500
 2885SOL     OW 9553   5.642   5.364   3.553  0.1744  0.1208  0.4833
 2885SOL    HW1 9554   5.673   5.407   3.468 -0.1333 -1.6445 -0.5781
 2885SOL    HW2 9555   5.714   5.373   3.623  0.6056  1.2183 -0.0729
 2886SOL     OW 9556   6.600   3.173   3.925  0.0645 -0.2578 -0.7070
 2886SOL    HW1 9557   6.520   3.221   3.887 -1.1298 -2.5047 -1.2355
 2886SOL    HW2 9558   6.572   3.123   4.007  1.1564 -0.3579 -0.3864
 2887SOL     OW 9559   0.597   3.554   3.226 -0.2924  0.6643  0.7145
 2887SOL    HW1 9560   0.678   3.579   3.278  1.0159 -1.9010  0.0442
 2887SOL    HW2 9561   0.542   3.489   3.279 -1.0953  1.1622  0.5092
 2888SOL     OW 9562   3.331   6.710   4.673  0.2350  0.1359 -0.3771
 2888SOL    HW1 9563   3.284   6.622   4.677  0.7459 -0.2521 -2.1639
 2888SOL    HW2 9564   3.402   6.713   4.744  0.3659 -0.9761 -0.4389
 2889SOL     OW 9565   4.532   5.196   3.392 -0.1997  0.0005  0.6568
 2889SOL    HW1 9566   4.450   5.191   3.448 -0.8882 -2.3284 -0.4367
 2889SOL    HW2 9567   4.511   5.243   3.306  0.1214  1.0243  1.1199
 2890SOL     OW 9568   1.893   1.368   0.156 -0.6766 -0.3384 -0.4190
 2890SOL    HW1 9569   1.920   1.284   0.203 -1.1952  0.1228  0.7442
 2890SOL    HW2 9570   1.828   1.418   0.212  1.0341  1.7791 -0.1879
 2891SOL     OW 9571   2.791   1.928   0.722 -0.0143  0.0914 -0.3853
 2891SOL    HW1 9572   2.762   1.923   0.818 -0.3417 -0.0739 -0.4915
 2891SOL    HW2 9573   2.839   1.844   0.697 -1.3873 -0.5856 -0.8332
 2892SOL     OW 9574   5.449   5.249   1.185  0.0632  0.7131 -0.2804
 2892SOL    HW1 9575   5.355   5.279   1.199 -0.2584  0.0055 -0.8739
 2892SOL    HW2 9576   5.501   5.260   1.270 -0.3855  1.6845 -0.1180
 2893SOL     OW 9577   0.016   6.161   2.631  0.0018  0.7755 -0.1250
 2893SOL    HW1 9578   0.042   6.234   2.694 -0.0512  0.1021  0.6814
 2893SOL    HW2 9579  -0.071   6.120   2.659  0.1644  0.2138 -0.4110
 2894SOL     OW 9580   1.208   5.010   2.822  0.3672 -0.2827  0.4701
 2894SOL    HW1 9581   1.259   5.083   2.777  0.5487  0.3345  1.6302
 2894SOL    HW2 9582   1.121   5.046   2.856 -0.4534 -1.1091 -0.6947
 2895SOL     OW 9583   5.889   1.969   6.654 -0.1949  0.1910 -0.4440
 2895SOL    HW1 9584   5.816   1.966   6.722  1.1156 -1.6001  0.9660
 2895SOL    HW2 9585   5.854   2.010   6.570 -2.2680  1.1270  0.7895
 2896SOL     OW 9586   6.379   6.553   6.822 -0.5367 -0.1798 -0.1700
 2896SOL    HW1 9587   6.460   6.504   6.788 -1.6356 -1.7975 -0.5805
 2896SOL    HW2 9588   6.355   6.517   6.913 -0.6800  0.4370  0.0359
 2897SOL     OW 9589   1.023   5.492   2.722 -0.1297  0.0537  0.2504
 2897SOL    HW1 9590   1.022   5.393   2.708 -0.5180  0.2722 -1.4904
 2897SOL    HW2 9591   0.929   5.527   2.724 -0.0244  0.3447  1.4666
 2898SOL     OW 9592   5.301   3.046   2.978  0.1461 -0.3518  0.3108
 2898SOL    HW1 9593   5.207   3.078   2.966  0.0249 -1.0640 -0.8035
 2898SOL    HW2 9594   5.305   2.981   3.054 -0.2904 -0.4422  0.2591
 2899SOL     OW 9595   5.345   3.311   1.847 -0.5777 -0.2451  0.3706
 2899SOL    HW1 9596   5.389   3.390   1.804 -1.0147 -0.8641 -1.2966
 2899SOL    HW2 9597   5.246   3.327   1.853 -0.6649 -0.6378  0.0507
 2900SOL     OW 9598   3.036   3.889   4.390  0.3819  0.1858 -0.1846
 2900SOL    HW1 9599   3.007   3.963   4.329 -1.1065 -0.3819 -0.2232
 2900SOL    HW2 9600   3.078   3.928   4.472  1.6525  0.9807 -1.1808
 2901SOL     OW 9601   1.512   4.131   1.362  0.3628 -0.5686 -0.0373
 2901SOL    HW1 9602   1.463   4.045   1.345  0.3725 -0.4918 -0.4745
 2901SOL    HW2 9603   1.497   4.193   1.285  0.6455 -0.3119  0.1136
 2902SOL     OW 9604   4.874   0.056   2.783 -0.5975 -0.0450 -0.2419
 2902SOL    HW1 9605   4.931   0.070   2.864 -0.6357 -1.3561  0.0403
 2902SOL    HW2 9606   4.863   0.143   2.734  3.9334 -0.1191 -1.8834
 2903SOL     OW 9607   0.004   5.349   2.527 -0.0960  0.2730 -0.0501
 2903SOL    HW1 9608   0.011   5.364   2.625 -1.4541  1.7153 -0.1390
 2903SOL    HW2 9609  -0.087   5.376   2.495  0.1346 -0.7012 -1.6182
 2904SOL     OW 9610   2.568   5.431   5.985  0.0229 -0.3343  0.2905
 2904SOL    HW1 9611   2.500   5.358   5.985 -0.4642  0.1021  1.2802
 2904SOL    HW2 9612   2.653   5.398   5.946 -0.1805 -1.4405  0.7625
 2905SOL     OW 9613   1.512   1.564   1.748 -0.1987 -0.0928  0.1901
 2905SOL    HW1 9614   1.548   1.605   1.832  1.1308  1.7286 -1.1769
 2905SOL    HW2 9615   1.549   1.471   1.738  0.5231  0.0845  1.0723
 2906SOL     OW 9616   4.588   0.560   0.455  0.0262  0.2849  0.1577
 2906SOL    HW1 9617   4.584   0.573   0.356 -1.0003 -0.6472  0.0639
 2906SOL    HW2 9618   4.679   0.586   0.488  0.3684  0.6401 -1.0209
 2907SOL     OW 9619   6.804   2.001   4.093  0.0266 -0.1653  0.1561
 2907SOL    HW1 9620   6.726   1.956   4.050  0.7676 -0.2156 -1.1849
 2907SOL    HW2 9621   6.880   2.006   4.028  0.9707  0.3548  1.2565
 2908SOL     OW 9622   3.046   5.162   2.139  0.0701 -0.2043  0.2982
 2908SOL    HW1 9623   3.115   5.233   2.148 -0.4396  0.1323  1.8325
 2908SOL    HW2 9624   3.087   5.081   2.097  0.5327  1.1070 -1.9574
 2909SOL     OW 9625   0.026   0.579   0.153 -0.4016  0.6535  0.7313
 2909SOL    HW1 9626   0.041   0.490   0.108  0.0114  0.4328  1.3068
 2909SOL    HW2 9627   0.034   0.652   0.085 -0.8409  0.2512  0.2317
 2910SOL     OW 9628   2.295   0.665   4.600 -0.0296  0.5476  0.1012
 2910SOL    HW1 9629   2.286   0.604   4.521 -0.6483  0.2801  0.3661
 2910SOL    HW2 9630   2.219   0.648   4.664 -0.4861  1.9271 -0.0450
 2911SOL     OW 9631   0.219   4.140   3.190 -0.8297  0.3105  0.3910
 2911SOL    HW1 9632   0.229   4.222   3.134 -0.4397 -0.1875 -0.2831
 2911SOL    HW2 9633   0.124   4.131   3.220 -1.2449  0.1195 -0.9141
 2912SOL     OW 9634   0.353   0.005   2.395 -0.2456 -0.2608  0.4170
 2912SOL    HW1 9635   0.398  -0.081   2.421 -0.1608 -0.2088  0.4410
 2912SOL    HW2 9636   0.352   0.067   2.474  3.4502  1.4267 -0.6362
 2913SOL     OW 9637   0.306   0.836   4.753 -0.1260 -0.3671  0.5561
 2913SOL    HW1 9638   0.379   0.897   4.719 -1.1180  0.9339  0.6769
 2913SOL    HW2 9639   0.261   0.792   4.676  1.6062 -2.2251  0.5286
 2914SOL     OW 9640   3.237   4.660   0.162  0.3504 -0.0947 -0.2916
 2914SOL    HW1 9641   3.245   4.561   0.157  0.7019 -0.0448 -0.9160
 2914SOL    HW2 9642   3.259   4.700   0.072  2.1832  0.6615  0.4405
 2915SOL     OW 9643   3.127   6.454   4.940 -0.1776 -0.0655  0.5053
 2915SOL    HW1 9644   3.058   6.527   4.934  0.9244  0.9649 -0.1456
 2915SOL    HW2 9645   3.108   6.397   5.020 -0.7553  1.2766  1.3694
 2916SOL     OW 9646   6.200   0.465   5.187 -0.0742 -0.3452  0.0108
 2916SOL    HW1 9647   6.105   0.481   5.160 -0.5511  1.4098  2.3876
 2916SOL    HW2 9648   6.238   0.549   5.225  2.0146 -1.3728  0.3083
 2917SOL     OW 9649   4.426   0.974   4.659 -0.0431 -0.6611  0.2586
 2917SOL    HW1 9650   4.390   0.881   4.664 -0.8487 -0.4595 -1.3021
 2917SOL    HW2 9651   4.401   1.015   4.572  2.4050  0.1621 -0.1331
 2918SOL     OW 9652   6.016   1.614   2.875 -0.5052 -0.3511 -0.2217
 2918SOL    HW1 9653   5.932   1.606   2.821 -1.2514  0.6078  0.7502
 2918SOL    HW2 9654   5.995   1.651   2.965  0.9494 -0.2064  0.0948
 2919SOL     OW 9655   2.752   4.709   6.240  0.0707 -0.0245 -0.1150
 2919SOL    HW1 9656   2.673   4.757   6.200 -0.3200  0.5746  1.3063
 2919SOL    HW2 9657   2.719   4.634   6.297  0.5399 -0.0844  0.0764
 2920SOL     OW 9658   3.261   2.122   2.646 -0.1920 -0.1127 -0.6676
 2920SOL    HW1 9659   3.252   2.029   2.609 -0.4288  0.3204 -1.7379
 2920SOL    HW2 9660   3.357   2.140   2.669 -0.3310 -1.0485  0.7405
 2921SOL     OW 9661   5.943   5.916   4.391  0.2708 -0.2403  0.4316
 2921SOL    HW1 9662   5.858   5.940   4.439  1.0503  1.5757  0.9609
 2921SOL    HW2 9663   5.929   5.925   4.293  0.4133  2.1928  0.5819
 2922SOL     OW 9664   4.861   4.875   3.528 -0.3674  0.1713 -0.2748
 2922SOL    HW1 9665   4.914   4.798   3.492  2.1176  1.7881 -0.2544
 2922SOL    HW2 9666   4.805   4.914   3.455 -0.9002 -1.0012 -0.5216
 2923SOL     OW 9667   1.869   5.401   3.063 -0.5743 -0.3551 -0.0619
 2923SOL    HW1 9668   1.931   5.437   2.994 -1.2139 -1.9471 -1.5526
 2923SOL    HW2 9669   1.906   5.315   3.099 -1.2135 -0.5633  0.1052
 2924SOL     OW 9670   5.376   2.199   0.990 -0.2856  0.3822 -0.0739
 2924SOL    HW1 9671   5.434   2.243   0.921  0.4367  0.1257  0.3585
 2924SOL    HW2 9672   5.386   2.246   1.077  0.6465 -0.7218  0.4440
 2925SOL     OW 9673   5.719   6.441   6.078 -0.0064 -0.4183  0.4075
 2925SOL    HW1 9674   5.658   6.365   6.057 -1.4352  1.1856 -1.6584
 2925SOL    HW2 9675   5.797   6.439   6.016 -0.6806  0.4314 -0.5074
 2926SOL     OW 9676   6.833   2.585   6.267  0.1136 -0.0494 -0.6022
 2926SOL    HW1 9677   6.764   2.647   6.230 -0.6114 -0.4967 -0.0288
 2926SOL    HW2 9678   6.924   2.624   6.254 -0.4191  2.2772  1.7920
 2927SOL     OW 9679   0.890   1.443   3.098 -0.1330 -0.3560 -0.1290
 2927SOL    HW1 9680   0.950   1.521   3.077 -0.1132 -0.3019  0.1251
 2927SOL    HW2 9681   0.941   1.358   3.084  0.5337 -0.2906  1.6267
 2928SOL     OW 9682   6.988   5.540   0.509 -0.2152  0.2794 -0.5774
 2928SOL    HW1 9683   6.972   5.522   0.412  0.4201  0.4294 -0.7110
 2928SOL    HW2 9684   6.922   5.608   0.541 -2.0886 -1.5507 -0.2830
 2929SOL     OW 9685   0.838   1.600   4.573 -0.3597  0.6779  0.2697
 2929SOL    HW1 9686   0.853   1.513   4.526 -3.1787 -0.0959  0.5974
 2929SOL    HW2 9687   0.925   1.635   4.609  0.7254 -2.5345  1.0609
 2930SOL     OW 9688   0.635   1.782   3.152  0.0269  0.7279 -0.3284
 2930SOL    HW1 9689   0.587   1.723   3.087 -1.2227  0.7560  0.5410
 2930SOL    HW2 9690   0.600   1.875   3.145  0.6679  0.9680 -0.3815
 2931SOL     OW 9691   4.403   5.343   5.749 -0.4514  0.0368  0.0256
 2931SOL    HW1 9692   4.393   5.439   5.723  1.4039  1.0206  2.5323
 2931SOL    HW2 9693   4.393   5.334   5.848  3.9011 -1.4909  0.5563
 2932SOL     OW 9694   5.418   6.633   0.785  0.4102 -0.4775 -0.4597
 2932SOL    HW1 9695   5.366   6.684   0.854  1.8664  1.5916 -0.7955
 2932SOL    HW2 9696   5.514   6.626   0.814  0.7630 -0.7789 -1.6549
 2933SOL     OW 9697   0.011   1.441   6.540 -0.0117  0.1308  0.0250
 2933SOL    HW1 9698   0.085   1.468   6.479 -0.6104  2.0981  0.0770
 2933SOL    HW2 9699  -0.038   1.523   6.570 -1.5690 -1.0355  0.8020
 2934SOL     OW 9700   4.092   4.965   4.795 -0.3866  0.0459  0.0402
 2934SOL    HW1 9701   4.014   4.943   4.855  0.0312 -0.2697  0.4781
 2934SOL    HW2 9702   4.158   4.890   4.799 -0.2994  0.0764 -0.7389
 2935SOL     OW 9703   0.507   4.742   6.449 -0.1889 -0.0523 -0.0033
 2935SOL    HW1 9704   0.428   4.714   6.395  0.0488 -0.4745 -0.1302
 2935SOL    HW2 9705   0.591   4.703   6.410  0.1443  0.7978 -0.1624
 2936SOL     OW 9706   5.458   6.663   2.454 -0.0510  0.2539  0.0715
 2936SOL    HW1 9707   5.520   6.590   2.427 -0.8370 -0.3907 -0.0593
 2936SOL    HW2 9708   5.477   6.745   2.401  1.5868  0.5142  1.0223
 2937SOL     OW 9709   0.398   2.511   3.854 -0.8246 -0.5728  0.2393
 2937SOL    HW1 9710   0.315   2.493   3.802 -0.4877 -1.7347  0.0879
 2937SOL    HW2 9711   0.476   2.469   3.808 -0.2517 -0.0730  0.7351
 2938SOL     OW 9712   2.073   5.624   0.825 -0.2807  0.1314 -0.4010
 2938SOL    HW1 9713   2.077   5.587   0.732  1.0755  0.1242 -0.3613
 2938SOL    HW2 9714   2.166   5.643   0.857 -0.7494  0.3714  0.8650
 2939SOL     OW 9715   0.945   5.296   1.571 -0.3260  0.0273  0.1792
 2939SOL    HW1 9716   0.938   5.395   1.580 -1.0726 -0.0518  0.5317
 2939SOL    HW2 9717   0.908   5.252   1.652  0.4619 -0.5379  0.2442
 2940SOL     OW 9718   5.199   4.285   2.012  0.3496  0.1593 -0.3373
 2940SOL    HW1 9719   5.284   4.248   2.048  0.2167  0.4003  0.2443
 2940SOL    HW2 9720   5.153   4.215   1.956 -0.3357 -0.9121  1.4594
 2941SOL     OW 9721   4.220   5.288   2.358 -0.3155  0.6925 -0.6204
 2941SOL    HW1 9722   4.207   5.277   2.260  1.3477 -2.2950 -0.6195
 2941SOL    HW2 9723   4.312   5.322   2.376 -0.3213  0.4180 -0.0509
 2942SOL     OW 9724   5.054   0.122   0.321 -0.3026  0.3160  0.4125
 2942SOL    HW1 9725   4.959   0.149   0.302 -0.8473 -0.9428  1.1885
 2942SOL    HW2 9726   5.101   0.196   0.367 -0.8710  1.0016 -0.0774
 2943SOL     OW 9727   0.725   5.928   3.742 -0.2284  0.5417  0.1209
 2943SOL    HW1 9728   0.663   5.993   3.698  0.3172  0.0666 -1.3888
 2943SOL    HW2 9729   0.671   5.858   3.790 -0.8362  0.9459  0.0392
 2944SOL     OW 9730   1.309   6.042   4.423  0.6195 -0.4574  0.0271
 2944SOL    HW1 9731   1.334   5.998   4.337  2.3452  0.9342 -0.2471
 2944SOL    HW2 9732   1.391   6.057   4.478 -0.1454  0.7900  0.8789
 2945SOL     OW 9733   5.211   4.745   6.315  0.1397  0.6554  0.1017
 2945SOL    HW1 9734   5.251   4.812   6.378  0.9483 -0.0959  0.4112
 2945SOL    HW2 9735   5.193   4.788   6.227 -1.2291  1.7941  0.8907
 2946SOL     OW 9736   4.915   3.358   4.825 -0.5505  0.1335  0.7458
 2946SOL    HW1 9737   4.965   3.329   4.907  2.8486 -0.0753 -1.2144
 2946SOL    HW2 9738   4.877   3.449   4.839 -0.1781  0.0459  2.5613
 2947SOL     OW 9739   6.431   1.315   1.423  0.0613 -0.8935 -0.1733
 2947SOL    HW1 9740   6.455   1.219   1.412  2.8960 -0.2047 -0.7681
 2947SOL    HW2 9741   6.466   1.348   1.510  0.2269 -0.0981 -0.5350
 2948SOL     OW 9742   4.137   4.805   0.049 -0.4716  0.6184 -0.6475
 2948SOL    HW1 9743   4.160   4.832  -0.045  1.3416 -1.0304 -0.7436
 2948SOL    HW2 9744   4.059   4.742   0.046 -2.2968  2.7541 -0.7276
 2949SOL     OW 9745   1.756   4.907   2.678 -0.0647 -0.3192 -0.3458
 2949SOL    HW1 9746   1.852   4.915   2.652  0.5257 -0.1794  1.7022
 2949SOL    HW2 9747   1.722   4.996   2.708 -0.4776 -0.5998  0.0319
 2950SOL     OW 9748   6.602   4.041   3.678  0.0506  0.6865 -0.0907
 2950SOL    HW1 9749   6.503   4.031   3.689  0.0585  1.3470  0.6568
 2950SOL    HW2 9750   6.649   4.004   3.759  0.2583  2.8630  0.8727
 2951SOL     OW 9751   1.584   3.519   6.046  0.2599  0.1573  0.6930
 2951SOL    HW1 9752   1.502   3.525   5.989 -0.2978 -0.7718  1.3895
 2951SOL    HW2 9753   1.665   3.520   5.987 -0.3343 -2.2378 -0.2677
 2952SOL     OW 9754   1.687   6.923   4.757 -0.3604 -0.5253  0.0516
 2952SOL    HW1 9755   1.779   6.887   4.740 -0.1594 -0.2092  0.4544
 2952SOL    HW2 9756   1.681   6.956   4.851 -0.0491  1.9363 -0.7381
 2953SOL     OW 9757   0.303   5.628   3.974 -1.0128 -0.1292 -0.0135
 2953SOL    HW1 9758   0.225   5.631   4.037 -1.5410 -0.6024 -0.6412
 2953SOL    HW2 9759   0.270   5.628   3.880 -0.2172  0.8901 -0.3133
 2954SOL     OW 9760   1.997   6.113   5.738  0.0542  0.2203 -0.6785
 2954SOL    HW1 9761   2.023   6.178   5.667  1.1262  0.0725 -0.4511
 2954SOL    HW2 9762   1.972   6.026   5.696  1.1302 -0.0116 -0.8779
 2955SOL     OW 9763   1.544   5.018   6.424  0.0770 -0.2933 -0.2480
 2955SOL    HW1 9764   1.593   4.988   6.506  0.7275 -0.2992 -0.6280
 2955SOL    HW2 9765   1.564   4.955   6.349 -0.3206 -0.1509 -0.4735
 2956SOL     OW 9766   6.336   4.038   3.994 -0.3749  0.1378 -0.1364
 2956SOL    HW1 9767   6.325   4.069   3.900  3.4562 -0.2611 -0.9133
 2956SOL    HW2 9768   6.342   3.938   3.995 -3.6186 -0.1541  1.0957
 2957SOL     OW 9769   1.474   3.625   3.000  0.4132  0.3199  0.0977
 2957SOL    HW1 9770   1.489   3.622   2.901 -0.8872 -1.6424 -0.1008
 2957SOL    HW2 9771   1.560   3.648   3.046  0.5875  3.4069 -1.5160
 2958SOL     OW 9772   2.353   1.863   1.654  0.4592  0.2393  0.3869
 2958SOL    HW1 9773   2.259   1.896   1.658 -0.5015 -2.2644  0.5171
 2958SOL    HW2 9774   2.391   1.858   1.746  0.0444 -0.4030  0.5361
 2959SOL     OW 9775   1.267   4.139   3.536  0.1633 -0.0717  0.1424
 2959SOL    HW1 9776   1.347   4.087   3.564  0.1993 -0.1011 -0.0182
 2959SOL    HW2 9777   1.184   4.085   3.552  0.3030 -0.8423 -1.5764
 2960SOL     OW 9778   6.046   0.279   2.001 -0.2525  0.6264  0.0099
 2960SOL    HW1 9779   5.953   0.305   1.976 -0.7100 -0.4957  0.4703
 2960SOL    HW2 9780   6.106   0.290   1.921 -1.1728 -0.4537 -0.8760
 2961SOL     OW 9781   0.756   1.980   7.007  0.0449  0.3221  0.6567
 2961SOL    HW1 9782   0.744   2.073   7.042  1.2068  0.3150  1.1335
 2961SOL    HW2 9783   0.733   1.914   7.078 -0.5960  0.2467  0.3805
 2962SOL     OW 9784   5.841   2.448   4.477  0.4381  0.1831  0.0029
 2962SOL    HW1 9785   5.930   2.473   4.515  0.5832 -0.2957 -0.0108
 2962SOL    HW2 9786   5.775   2.521   4.494  0.0286 -0.7257  2.7186
 2963SOL     OW 9787   2.232   0.999   4.471 -0.1992 -0.2889 -0.0028
 2963SOL    HW1 9788   2.315   0.945   4.455 -0.0451 -0.1054  0.1713
 2963SOL    HW2 9789   2.152   0.943   4.451 -0.0264 -0.3471 -0.5391
 2964SOL     OW 9790   0.494   1.299   0.164  0.1916 -0.6512  0.5254
 2964SOL    HW1 9791   0.465   1.359   0.089  2.3701 -1.1767 -0.8331
 2964SOL    HW2 9792   0.505   1.353   0.248 -3.0369 -0.1877  0.7663
 2965SOL     OW 9793   6.474   0.425   6.806 -0.2072  0.3528 -0.0106
 2965SOL    HW1 9794   6.504   0.330   6.815  0.0881  0.3518 -0.9243
 2965SOL    HW2 9795   6.377   0.427   6.780 -0.9073  0.3509  2.3333
 2966SOL     OW 9796   4.957   6.021   3.635  0.0054 -0.2577 -0.1023
 2966SOL    HW1 9797   4.866   5.980   3.628  0.4900 -1.1638 -2.1032
 2966SOL    HW2 9798   4.990   6.043   3.543  1.2417  1.3887  0.6928
 2967SOL     OW 9799   5.131   6.552   4.330  0.2384  0.0355  0.2861
 2967SOL    HW1 9800   5.163   6.637   4.374 -0.1829  0.9527 -1.1076
 2967SOL    HW2 9801   5.124   6.480   4.399 -0.3542  1.3952  1.7239
 2968SOL     OW 9802   2.942   3.539   1.572  0.2944  0.2799  0.4495
 2968SOL    HW1 9803   2.971   3.445   1.552  0.8321  0.4873  0.2281
 2968SOL    HW2 9804   2.882   3.572   1.500  0.5362  0.2891  0.2500
 2969SOL     OW 9805   4.858   2.387   5.218 -0.2626 -0.4758  0.3716
 2969SOL    HW1 9806   4.791   2.315   5.198 -1.4720  0.6632  0.1168
 2969SOL    HW2 9807   4.940   2.372   5.163 -0.9960 -0.9584 -0.6389
 2970SOL     OW 9808   1.431   1.846   6.497  0.1563 -0.1158 -0.1387
 2970SOL    HW1 9809   1.340   1.820   6.464  0.5210 -2.8832  0.7755
 2970SOL    HW2 9810   1.494   1.770   6.483  1.5705  0.5623  2.0760
 2971SOL     OW 9811   3.964   3.353   5.749  0.0829  0.7333 -0.2935
 2971SOL    HW1 9812   4.047   3.390   5.791  0.7652  1.4384 -2.1516
 2971SOL    HW2 9813   3.984   3.262   5.711 -0.1520  0.6683 -0.2634
 2972SOL     OW 9814   6.735   0.303   5.798  0.6533  0.5439  0.0866
 2972SOL    HW1 9815   6.720   0.361   5.879  1.3430  2.0860 -0.8379
 2972SOL    HW2 9816   6.817   0.248   5.812 -0.0736 -0.3399  1.0294
 2973SOL     OW 9817   5.534   0.994   5.712  0.3636  0.3505 -0.2966
 2973SOL    HW1 9818   5.501   1.088   5.722  0.7961  0.5816 -0.9432
 2973SOL    HW2 9819   5.478   0.933   5.767 -0.3163  0.9013 -0.3641
 2974SOL     OW 9820   5.739   3.745   2.927  0.4304  0.1618  0.0132
 2974SOL    HW1 9821   5.798   3.681   2.877  0.7712 -0.0501  0.6734
 2974SOL    HW2 9822   5.702   3.700   3.008 -0.9773  0.1612 -0.5957
 2975SOL     OW 9823   0.642   5.011   4.857 -0.5549 -0.1281 -0.3374
 2975SOL    HW1 9824   0.719   4.970   4.905  0.0195 -0.0932 -1.1982
 2975SOL    HW2 9825   0.675   5.055   4.773 -1.4746  0.1229 -0.5767
 2976SOL     OW 9826   2.723   5.471   2.565  0.7312  0.3282  0.3829
 2976SOL    HW1 9827   2.688   5.424   2.483  2.1123  0.8170 -0.5238
 2976SOL    HW2 9828   2.730   5.569   2.546 -1.9271  0.9644  2.1867
 2977SOL     OW 9829   1.526   3.254   2.696  0.1286 -0.4275 -0.0323
 2977SOL    HW1 9830   1.482   3.305   2.622 -0.5955  0.1052  0.7520
 2977SOL    HW2 9831   1.569   3.172   2.659 -1.3497 -0.8527 -0.8617
 2978SOL     OW 9832   2.346   6.588   0.263  0.1692  0.4104  0.3684
 2978SOL    HW1 9833   2.393   6.565   0.178  1.3654  0.4234  0.9948
 2978SOL    HW2 9834   2.351   6.687   0.278 -1.7978  0.6766 -0.5257
 2979SOL     OW 9835   3.826   1.545   5.468 -0.6183 -1.0883  0.2056
 2979SOL    HW1 9836   3.873   1.594   5.394 -4.8027 -0.4018 -2.3419
 2979SOL    HW2 9837   3.860   1.452   5.473  3.5980  0.2846  1.3239
 2980SOL     OW 9838   3.895   2.985   4.441  0.0119  0.2748  0.7648
 2980SOL    HW1 9839   3.863   2.944   4.356 -0.8014  1.4349  0.4835
 2980SOL    HW2 9840   3.992   3.007   4.432  0.2430 -0.7368  0.6078
 2981SOL     OW 9841   2.837   0.310   1.755 -0.4165  0.2659  0.7624
 2981SOL    HW1 9842   2.785   0.395   1.749  2.1307  1.8291 -0.4627
 2981SOL    HW2 9843   2.860   0.278   1.663  1.6159  0.2220  1.2413
 2982SOL     OW 9844   0.368   6.796   1.134  0.1491 -0.0387  0.0775
 2982SOL    HW1 9845   0.363   6.853   1.216  0.3828 -0.2577  0.2495
 2982SOL    HW2 9846   0.417   6.844   1.062  0.7778 -0.2119  0.3863
 2983SOL     OW 9847   5.088   2.379   6.773 -0.0356  0.3580  0.2084
 2983SOL    HW1 9848   5.137   2.464   6.756  0.2960  0.3002  0.8578
 2983SOL    HW2 9849   5.020   2.365   6.701  2.1265 -0.5077 -1.8210
 2984SOL     OW 9850   0.499   6.903   0.911  0.0179  0.8001 -0.8209
 2984SOL    HW1 9851   0.501   6.852   0.825  4.4513 -0.9722  0.0653
 2984SOL    HW2 9852   0.496   7.001   0.892  0.4282  0.4518 -2.9504
 2985SOL     OW 9853   0.682   0.554   5.636 -0.4098  0.3363 -0.2821
 2985SOL    HW1 9854   0.650   0.554   5.541  1.7982 -3.8040 -1.2745
 2985SOL    HW2 9855   0.632   0.484   5.687  0.7135  0.1813  0.6349
 2986SOL     OW 9856   3.497   3.206   2.784  0.1811 -0.0396 -0.4966
 2986SOL    HW1 9857   3.430   3.277   2.805 -0.7734 -0.6931 -1.2378
 2986SOL    HW2 9858   3.493   3.184   2.686 -0.2436 -1.7722 -0.1343
 2987SOL     OW 9859   3.305   1.512   5.911 -0.1021  0.5876  0.3320
 2987SOL    HW1 9860   3.233   1.578   5.889  0.2144  0.7728 -0.1621
 2987SOL    HW2 9861   3.394   1.548   5.882  0.6238  1.6302  3.5176
 2988SOL     OW 9862   6.679   6.708   6.970  0.1015  0.2539 -0.4156
 2988SOL    HW1 9863   6.589   6.666   6.959  0.3555 -0.2187 -0.7302
 2988SOL    HW2 9864   6.739   6.645   7.018  0.2747  0.5552 -0.2386
 2989SOL     OW 9865   5.489   1.836   0.175 -0.3894 -0.1559  0.6522
 2989SOL    HW1 9866   5.401   1.838   0.222 -1.2938  0.0396 -0.9776
 2989SOL    HW2 9867   5.558   1.882   0.232 -0.8593 -1.9058  2.7750
 2990SOL     OW 9868   3.924   1.482   6.154  0.3907 -0.1875 -0.1087
 2990SOL    HW1 9869   3.928   1.548   6.230  0.5365  0.2474 -0.4924
 2990SOL    HW2 9870   3.830   1.476   6.120  0.5667  0.6338 -0.7768
 2991SOL     OW 9871   6.569   1.893   1.455  0.0452  0.1131 -0.2487
 2991SOL    HW1 9872   6.500   1.914   1.386  0.5479 -0.4543 -0.9511
 2991SOL    HW2 9873   6.657   1.932   1.427  0.3648 -0.5479 -0.1874
 2992SOL     OW 9874   1.780   3.432   3.596  0.6882 -0.0779 -0.3518
 2992SOL    HW1 9875   1.702   3.492   3.613  1.7139  1.0713  0.4884
 2992SOL    HW2 9876   1.768   3.347   3.647 -0.4818 -0.3425 -1.0432
 2993SOL     OW 9877   3.176   4.419   0.801 -0.0949  0.0142 -0.2872
 2993SOL    HW1 9878   3.148   4.456   0.713 -0.2798  0.2899 -0.1142
 2993SOL    HW2 9879   3.274   4.433   0.814 -0.3550  1.4698  0.2654
 2994SOL     OW 9880   3.135   4.794   6.056  0.1300  0.2377 -0.5647
 2994SOL    HW1 9881   3.054   4.741   6.029  0.4038 -0.3052 -0.3503
 2994SOL    HW2 9882   3.163   4.854   5.981 -0.1542  0.0345 -0.8360
 2995SOL     OW 9883   6.418   6.450   2.791 -0.1715 -0.3519  0.0006
 2995SOL    HW1 9884   6.469   6.535   2.792  0.7689 -0.8828  1.9347
 2995SOL    HW2 9885   6.370   6.440   2.704 -0.6470  2.3280 -0.0996
 2996SOL     OW 9886   6.441   0.363   6.460 -0.7513  0.2212  0.3501
 2996SOL    HW1 9887   6.540   0.366   6.446 -0.9072  1.0029 -0.7414
 2996SOL    HW2 9888   6.420   0.379   6.556  0.1868 -0.1281  0.6224
 2997SOL     OW 9889   5.215   6.360   4.523 -0.1574  0.4195  0.1514
 2997SOL    HW1 9890   5.217   6.261   4.537 -0.0146  0.4363  0.2517
 2997SOL    HW2 9891   5.178   6.404   4.606 -0.5400  0.4265 -0.0208
 2998SOL     OW 9892   1.759   6.842   1.076 -0.1946  0.6321  0.0119
 2998SOL    HW1 9893   1.758   6.845   0.976 -0.2059  0.8777  0.0178
 2998SOL    HW2 9894   1.846   6.881   1.109  0.1399 -0.1562  0.0769
 2999SOL     OW 9895   2.703   5.096   6.689  0.0708  0.0961 -0.0640
 2999SOL    HW1 9896   2.762   5.127   6.614  1.6842 -0.4089  0.9466
 2999SOL    HW2 9897   2.750   5.110   6.776 -0.4480 -2.1855  0.6449
 3000SOL     OW 9898   4.181   4.586   0.539 -0.3701 -0.2957 -0.0761
 3000SOL    HW1 9899   4.122   4.580   0.619  1.6777 -2.3246  1.4095
 3000SOL    HW2 9900   4.129   4.559   0.458 -2.3229  1.2276  0.5929
 3001SOL     OW 9901   1.546   6.165   4.223 -0.1740 -0.2490 -0.1542
 3001SOL    HW1 9902   1.468   6.145   4.164 -0.8205 -1.2443  0.9973
 3001SOL    HW2 9903   1.577   6.081   4.266  0.2315  0.4705  0.9896
 3002SOL     OW 9904   2.589   0.607   2.195 -0.3745  0.2035 -0.9951
 3002SOL    HW1 9905   2.657   0.536   2.208 -0.3099  0.4633  0.2089
 3002SOL    HW2 9906   2.633   0.697   2.196 -0.5508  0.3073 -1.7322
 3003SOL     OW 9907   1.088   5.554   2.026 -0.1733  0.1456 -0.6426
 3003SOL    HW1 9908   1.079   5.626   2.095  1.0794  1.9063 -2.2329
 3003SOL    HW2 9909   1.159   5.578   1.961  1.4533 -3.2911 -0.3965
 3004SOL     OW 9910   4.178   1.269   4.904 -0.1162  0.0859 -0.0374
 3004SOL    HW1 9911   4.209   1.175   4.923  1.9771  0.6595 -0.3842
 3004SOL    HW2 9912   4.078   1.271   4.902 -0.2207 -2.5179 -1.9358
 3005SOL     OW 9913   1.890   0.984   0.625 -0.9241  0.2814 -0.0670
 3005SOL    HW1 9914   1.807   0.952   0.671 -1.2385  0.6006 -0.4138
 3005SOL    HW2 9915   1.967   0.926   0.653 -1.3084 -0.1825  0.0535
 3006SOL     OW 9916   5.774   0.887   4.080  0.0459 -0.1187  0.3302
 3006SOL    HW1 9917   5.845   0.954   4.100 -0.4012 -0.3732  3.0590
 3006SOL    HW2 9918   5.686   0.920   4.115 -0.8689 -0.6457 -1.3460
 3007SOL     OW 9919   5.288   5.408   5.665  0.4857 -0.0346  0.7046
 3007SOL    HW1 9920   5.293   5.506   5.646  2.2404  0.0336  1.4107
 3007SOL    HW2 9921   5.208   5.370   5.617  0.0780  1.6177 -0.0203
 3008SOL     OW 9922   0.327   3.023   6.065 -0.8770 -0.1526 -0.1730
 3008SOL    HW1 9923   0.347   2.945   6.123  1.2621 -0.3767 -1.0892
 3008SOL    HW2 9924   0.260   2.997   5.995  0.8663 -1.6871 -1.3705
 3009SOL     OW 9925   5.584   3.624   2.508  0.5105  0.2044  0.1162
 3009SOL    HW1 9926   5.582   3.525   2.523 -0.0313  0.1290 -0.4594
 3009SOL    HW2 9927   5.493   3.662   2.523  0.4874  0.4678 -0.6633
 3010SOL     OW 9928   3.156   3.611   2.788 -0.8182  0.1728 -0.4160
 3010SOL    HW1 9929   3.240   3.565   2.757 -1.0073 -0.1435 -0.4657
 3010SOL    HW2 9930   3.085   3.543   2.805 -1.1373  0.4575 -0.5944
 3011SOL     OW 9931   2.582   5.958   0.614 -0.1815  0.1686 -0.0758
 3011SOL    HW1 9932   2.603   5.871   0.569  0.7640  0.2947  0.0842
 3011SOL    HW2 9933   2.483   5.968   0.624 -0.3324 -0.5655 -0.7231
 3012SOL     OW 9934   1.695   2.652   5.208  0.8647 -0.6025  0.4421
 3012SOL    HW1 9935   1.645   2.677   5.291  0.1340  1.6030 -0.5750
 3012SOL    HW2 9936   1.632   2.614   5.141  1.2777 -1.4696  0.5366
 3013SOL     OW 9937   2.260   5.091   5.363  0.1570 -0.4182  0.5137
 3013SOL    HW1 9938   2.327   5.046   5.422  1.5507  1.5683  0.5540
 3013SOL    HW2 9939   2.294   5.182   5.338 -1.5014 -0.2621 -1.3912
 3014SOL     OW 9940   2.161   6.151   0.706  0.1277 -0.0564 -0.6385
 3014SOL    HW1 9941   2.067   6.167   0.737 -0.3167 -2.3517 -0.5983
 3014SOL    HW2 9942   2.215   6.233   0.719 -0.9550  0.2506  2.8268
 3015SOL     OW 9943   1.788   0.644   6.215  0.4617 -0.2717 -0.1005
 3015SOL    HW1 9944   1.756   0.635   6.120 -1.2534  0.6484  0.3450
 3015SOL    HW2 9945   1.793   0.553   6.257 -0.0442 -0.5778 -0.6813
 3016SOL     OW 9946   3.068   1.249   6.771  0.2614 -0.5708  0.7396
 3016SOL    HW1 9947   3.030   1.265   6.680  0.0230  0.9222  1.0751
 3016SOL    HW2 9948   3.023   1.169   6.813 -1.8817  0.5717  0.7551
 3017SOL     OW 9949   1.039   5.553   6.168  0.2501  0.3395  0.2149
 3017SOL    HW1 9950   1.108   5.535   6.098  0.8289 -0.0169  0.8677
 3017SOL    HW2 9951   0.948   5.555   6.126  0.5361 -0.4270 -0.4549
 3018SOL     OW 9952   1.365   3.276   2.404 -0.3657  0.7221  0.6829
 3018SOL    HW1 9953   1.266   3.283   2.415 -0.7711 -0.2673 -1.6976
 3018SOL    HW2 9954   1.389   3.185   2.370  1.2556  1.2473  0.3253
 3019SOL     OW 9955   2.089   0.099   4.312  0.4246  0.0707 -0.1399
 3019SOL    HW1 9956   2.135   0.187   4.300  0.6722 -0.0809 -0.3190
 3019SOL    HW2 9957   1.995   0.106   4.280  0.4551  0.2599 -0.1911
 3020SOL     OW 9958   5.134   4.809   6.055 -1.0468  0.6264  0.2079
 3020SOL    HW1 9959   5.166   4.773   5.968 -0.0341  0.5968  0.5841
 3020SOL    HW2 9960   5.051   4.761   6.083 -0.1749 -0.8740  0.3050
 3021SOL     OW 9961   3.794   5.481   2.974  0.1380  0.1596  0.2638
 3021SOL    HW1 9962   3.813   5.500   3.070  3.0254 -1.6191  0.1889
 3021SOL    HW2 9963   3.830   5.555   2.917  0.0472  0.3653  0.4752
 3022SOL     OW 9964   3.404   6.338   6.919 -0.4036 -0.3534 -0.7835
 3022SOL    HW1 9965   3.387   6.437   6.928  2.6197  0.1114  1.5783
 3022SOL    HW2 9966   3.352   6.289   6.989  1.2099  0.0986  0.7958
 3023SOL     OW 9967   5.957   4.100   4.882  0.2119  0.0809  0.3017
 3023SOL    HW1 9968   5.902   4.020   4.858  1.5784 -1.1957  1.2236
 3023SOL    HW2 9969   5.986   4.147   4.799 -0.9338 -0.1344 -0.2410
 3024SOL     OW 9970   6.920   6.519   4.879 -0.2593  0.2835 -0.0579
 3024SOL    HW1 9971   6.900   6.577   4.958  0.9610  0.5218  0.0932
 3024SOL    HW2 9972   6.877   6.558   4.797  0.8212  1.6416 -0.0263
 3025SOL     OW 9973   4.248   5.890   0.330  0.0632  0.2491  0.1775
 3025SOL    HW1 9974   4.253   5.945   0.246 -0.7502 -1.2940 -0.9318
 3025SOL    HW2 9975   4.163   5.910   0.378 -0.6457 -0.6153 -0.6771
 3026SOL     OW 9976   6.215   4.127   2.729  0.1958  0.5853  0.0977
 3026SOL    HW1 9977   6.280   4.065   2.772  0.7584  0.7035 -0.5690
 3026SOL    HW2 9978   6.216   4.114   2.630 -0.0722  1.2801 -0.0026
 3027SOL     OW 9979   2.562   0.064   2.380  0.0725 -0.1530 -0.1485
 3027SOL    HW1 9980   2.518   0.151   2.403  0.5343 -0.1560  0.7831
 3027SOL    HW2 9981   2.556   0.049   2.281 -4.3081 -1.3725  0.0887
 3028SOL     OW 9982   3.912   2.992   3.999 -0.7558  0.5299  0.6162
 3028SOL    HW1 9983   3.989   3.051   4.022 -0.5749  1.7416 -2.6410
 3028SOL    HW2 9984   3.864   2.967   4.083  1.6157  1.8457  2.5118
 3029SOL     OW 9985   1.031   3.255   4.143  0.3765  0.0312  0.2251
 3029SOL    HW1 9986   1.105   3.322   4.147 -0.4111  0.9250  0.2651
 3029SOL    HW2 9987   0.971   3.267   4.222 -0.4275  0.0578 -0.3776
 3030SOL     OW 9988   6.821   5.138   5.216  0.1618  0.3119  0.5642
 3030SOL    HW1 9989   6.805   5.135   5.315 -1.4947 -0.2001  0.3118
 3030SOL    HW2 9990   6.913   5.174   5.198  1.0395 -0.9092  2.3127
 3031SOL     OW 9991   0.170   4.492   5.576  0.0074 -0.4245  0.2528
 3031SOL    HW1 9992   0.249   4.452   5.622 -0.3730 -0.3396  1.0019
 3031SOL    HW2 9993   0.197   4.525   5.485  1.1154  0.6907  0.9542
 3032SOL     OW 9994   3.587   6.960   2.120  0.1990  0.2415  0.3070
 3032SOL    HW1 9995   3.504   6.968   2.175 -0.2383  2.2788 -0.5952
 3032SOL    HW2 9996   3.635   7.048   2.118  1.2380 -0.3235 -0.9804
 3033SOL     OW 9997   6.778   1.761   5.877 -0.2211  0.0622  0.0671
 3033SOL    HW1 9998   6.774   1.667   5.844  0.0437 -0.0993  0.4952
 3033SOL    HW2 9999   6.753   1.823   5.802 -2.6528 -0.4450  0.3850
 3034SOL     OW10000   6.250   3.614   4.737 -0.1955 -0.1775 -0.1314
 3034SOL    HW110001   6.184   3.688   4.746 -1.1433 -0.8821 -0.9882
 3034SOL    HW210002   6.202   3.530   4.708  0.9080 -1.0031  0.3508
 3035SOL     OW10003   3.637   4.515   0.119  0.4574  0.7971 -0.1446
 3035SOL    HW110004   3.591   4.569   0.189  1.2680  1.5322 -0.1527
 3035SOL    HW210005   3.700   4.451   0.162 -0.8621 -0.5262 -0.1132
 3036SOL     OW10006   1.977   2.168   6.166 -0.6665  0.2853 -0.6300
 3036SOL    HW110007   1.948   2.120   6.250 -1.1077 -0.2782 -1.0944
 3036SOL    HW210008   2.076   2.171   6.162 -0.6249  1.2914  0.4590
 3037SOL     OW10009   5.417   6.404   6.037 -0.5276  0.1196  0.5560
 3037SOL    HW110010   5.373   6.359   6.115 -1.0617  0.8496  0.6925
 3037SOL    HW210011   5.451   6.493   6.065 -2.0589  1.0385 -0.3785
 3038SOL     OW10012   6.320   5.647   0.023 -0.4966 -0.1161  0.6904
 3038SOL    HW110013   6.376   5.567   0.042  0.1194 -0.0193 -0.6040
 3038SOL    HW210014   6.329   5.713   0.097 -0.1606 -0.7770  1.2473
 3039SOL     OW10015   5.852   1.673   5.867 -0.0941 -0.1365 -0.2212
 3039SOL    HW110016   5.821   1.705   5.778 -1.3787  0.1532  0.3158
 3039SOL    HW210017   5.852   1.573   5.869 -0.3513 -0.1414 -0.4537
 3040SOL     OW10018   3.037   6.768   5.794  0.0080  0.2596 -0.1025
 3040SOL    HW110019   3.029   6.695   5.725 -1.4023 -0.6975  1.0322
 3040SOL    HW210020   2.951   6.776   5.844  0.4955  2.0213  0.5055
 3041SOL     OW10021   2.188   5.157   6.160  0.3613  0.3761 -0.2628
 3041SOL    HW110022   2.154   5.071   6.122 -0.4158  0.6289 -0.1574
 3041SOL    HW210023   2.153   5.167   6.253 -0.6294  1.4229 -0.7345
 3042SOL     OW10024   6.724   6.155   4.922 -0.4675 -0.3792  0.1025
 3042SOL    HW110025   6.637   6.118   4.952 -0.5296 -0.3783 -0.0798
 3042SOL    HW210026   6.759   6.219   4.991  0.6269 -2.2922  1.4192
 3043SOL     OW10027   1.952   2.226   1.834  0.1133  0.3214  0.5287
 3043SOL    HW110028   1.915   2.317   1.856 -1.3177 -0.0475 -0.2046
 3043SOL    HW210029   2.033   2.208   1.890  0.5989  2.1582  0.4793
 3044SOL     OW10030   2.964   4.001   4.866  0.0830 -0.0402  0.0969
 3044SOL    HW110031   2.871   4.006   4.830 -0.9286 -3.6145  1.7431
 3044SOL    HW210032   2.962   4.011   4.965  1.4094 -0.4521  0.1819
 3045SOL     OW10033   5.364   6.861   4.786 -0.3370 -0.2048 -0.4111
 3045SOL    HW110034   5.387   6.783   4.728  1.4207 -0.1235  0.1291
 3045SOL    HW210035   5.447   6.911   4.810 -1.0446 -0.0692  1.9587
 3046SOL     OW10036   5.847   5.831   1.351  0.0040 -0.3746 -0.3647
 3046SOL    HW110037   5.811   5.906   1.295 -0.6161  0.3189  0.9128
 3046SOL    HW210038   5.919   5.784   1.301  1.1695  1.7405 -0.8237
 3047SOL     OW10039   5.102   1.224   4.488  0.0305 -0.0791  0.0326
 3047SOL    HW110040   5.078   1.305   4.542  0.3570  0.9980 -1.3874
 3047SOL    HW210041   5.159   1.251   4.411  0.8954 -1.8096  0.0234
 3048SOL     OW10042   5.059   4.284   1.346  0.2125 -0.6416  0.3078
 3048SOL    HW110043   5.103   4.332   1.270 -0.2652 -0.0168  0.4142
 3048SOL    HW210044   4.995   4.216   1.310  0.1887 -0.5382  0.1545
 3049SOL     OW10045   0.066   1.153   0.483  0.3776  0.1675  0.0304
 3049SOL    HW110046   0.146   1.160   0.423 -0.0167  1.2485 -0.3970
 3049SOL    HW210047  -0.017   1.141   0.427 -0.1545  2.4555  0.2242
 3050SOL     OW10048   4.876   3.004   5.172 -0.1631  0.3167  0.3271
 3050SOL    HW110049   4.795   2.984   5.116 -0.0372  2.2723 -0.6664
 3050SOL    HW210050   4.935   2.924   5.175 -0.4266 -0.0422 -1.9684
 3051SOL     OW10051   1.661   3.140   5.913  0.2320  0.2254 -0.3912
 3051SOL    HW110052   1.620   3.161   6.001 -0.5380 -1.7066 -0.2348
 3051SOL    HW210053   1.593   3.155   5.840  0.3740  0.3577 -0.4972
 3052SOL     OW10054   5.177   0.119   3.428  0.1461  0.0945  0.1402
 3052SOL    HW110055   5.216   0.127   3.520 -0.9212 -0.0789  0.6229
 3052SOL    HW210056   5.121   0.199   3.409 -2.0554 -1.1849  0.8502
 3053SOL     OW10057   6.000   6.499   6.090 -0.5283 -0.4903  0.1824
 3053SOL    HW110058   6.079   6.560   6.083 -1.6580  0.9560 -0.4196
 3053SOL    HW210059   6.006   6.428   6.020  1.1194 -1.5373  1.2894
 3054SOL     OW10060   6.017   0.315   2.421  0.2928  0.0690 -0.8320
 3054SOL    HW110061   6.109   0.354   2.416  0.3127  0.2146  0.3883
 3054SOL    HW210062   5.953   0.387   2.447 -0.3625  0.2194 -2.7290
 3055SOL     OW10063   6.875   6.377   2.458 -0.0292 -0.1948 -0.1397
 3055SOL    HW110064   6.948   6.441   2.435 -1.0643  0.3168 -2.2219
 3055SOL    HW210065   6.914   6.287   2.479  1.1792 -0.0009 -1.4396
 3056SOL     OW10066   3.474   1.863   2.806 -0.3499 -0.0772  0.0107
 3056SOL    HW110067   3.399   1.905   2.856 -0.0960 -0.9108  1.1106
 3056SOL    HW210068   3.448   1.772   2.775 -0.5769  0.5008 -1.5868
 3057SOL     OW10069   0.034   1.499   3.752  0.1239 -0.3724 -0.2584
 3057SOL    HW110070  -0.024   1.437   3.699 -0.9303  0.0361  0.3849
 3057SOL    HW210071  -0.017   1.583   3.773  0.9524 -0.0035  0.3197
 3058SOL     OW10072   4.727   4.900   4.530 -0.0909  0.8891  0.2493
 3058SOL    HW110073   4.743   4.875   4.626  0.0896 -2.1799 -0.4771
 3058SOL    HW210074   4.815   4.910   4.483  0.3472 -5.5981 -1.2743
 3059SOL     OW10075   1.891   4.094   3.392  0.5094  0.9487  0.1074
 3059SOL    HW110076   1.955   4.033   3.438 -1.3892 -0.3101  1.1718
 3059SOL    HW210077   1.922   4.189   3.405  1.3105  0.4875  1.9621
 3060SOL     OW10078   1.122   4.957   4.857  0.2088 -0.3436 -0.0369
 3060SOL    HW110079   1.159   4.890   4.793  0.1645 -0.5788  0.1850
 3060SOL    HW210080   1.185   4.968   4.934  0.1732 -0.1973 -0.0276
 3061SOL     OW10081   6.478   5.330   2.973 -0.2619  0.5557  0.0761
 3061SOL    HW110082   6.510   5.285   3.057 -0.0714 -0.6372 -0.6123
 3061SOL    HW210083   6.443   5.421   2.995 -1.4782 -0.2415  1.6583
 3062SOL     OW10084   4.589   5.269   5.573 -0.1606 -0.2563 -0.3411
 3062SOL    HW110085   4.655   5.196   5.590  1.2187  1.3069  1.4501
 3062SOL    HW210086   4.518   5.268   5.644 -2.1045 -1.8216 -2.1602
 3063SOL     OW10087   0.075   6.577   0.431  0.2508 -0.1990 -0.0840
 3063SOL    HW110088   0.075   6.674   0.408  1.9142 -0.1910 -0.1902
 3063SOL    HW210089  -0.002   6.557   0.492  0.1420  1.2792  0.3086
 3064SOL     OW10090   5.754   0.348   6.490 -0.8362 -0.7384 -0.0337
 3064SOL    HW110091   5.661   0.333   6.456 -1.5258 -1.3013  1.9455
 3064SOL    HW210092   5.813   0.274   6.458 -1.0528 -0.3687 -1.3191
 3065SOL     OW10093   5.035   0.765   1.021  0.0740  0.2977 -0.5218
 3065SOL    HW110094   4.944   0.790   1.053  0.2808  0.1028  0.2299
 3065SOL    HW210095   5.103   0.789   1.091  0.1287 -4.0877  1.2185
 3066SOL     OW10096   3.783   6.516   6.702 -0.7972 -0.1784  1.0406
 3066SOL    HW110097   3.796   6.614   6.687 -2.1865 -0.0106  0.7108
 3066SOL    HW210098   3.869   6.467   6.687 -0.4236  0.8332 -0.2709
 3067SOL     OW10099   1.117   1.737   6.452  0.1296 -0.8940  0.2765
 3067SOL    HW110100   1.061   1.786   6.385 -0.4617 -0.5426  1.0242
 3067SOL    HW210101   1.154   1.654   6.409  0.8241 -0.0291 -0.8852
 3068SOL     OW10102   5.510   0.880   0.217 -0.3310  0.2290  0.1738
 3068SOL    HW110103   5.598   0.868   0.264  0.0358  0.1932 -0.5112
 3068SOL    HW210104   5.462   0.793   0.216 -1.4039  0.7132  2.5203
 3069SOL     OW10105   3.648   5.566   4.915  0.3763  0.0141 -0.3912
 3069SOL    HW110106   3.727   5.606   4.962  0.2502 -1.5914  1.3195
 3069SOL    HW210107   3.676   5.483   4.867 -0.3748 -1.1420  1.0653
 3070SOL     OW10108   1.664   1.244   1.044  0.2733 -0.2084  0.6507
 3070SOL    HW110109   1.747   1.205   1.085 -0.1748  0.0944  1.8955
 3070SOL    HW210110   1.686   1.279   0.953  1.5459 -0.0440  0.9909
 3071SOL     OW10111   5.062   5.599   4.781 -0.2203  0.3884  0.0066
 3071SOL    HW110112   5.092   5.694   4.777  1.1298 -0.0656 -2.4035
 3071SOL    HW210113   4.982   5.586   4.721 -0.0531 -0.0937 -0.1202
 3072SOL     OW10114   1.349   1.038   5.736  0.9325 -0.2140 -0.6324
 3072SOL    HW110115   1.417   0.981   5.783  0.7896  0.2949  0.2192
 3072SOL    HW210116   1.378   1.053   5.642  0.7597 -2.0300 -1.0158
 3073SOL     OW10117   0.937   5.275   2.984  0.2141  0.4557  0.2037
 3073SOL    HW110118   0.931   5.208   2.910 -0.7274  0.8272 -0.0824
 3073SOL    HW210119   0.978   5.233   3.064  0.4575 -0.2034 -0.2555
 3074SOL     OW10120   2.757   3.463   1.853  0.4366 -0.3633  0.3545
 3074SOL    HW110121   2.755   3.499   1.759 -0.0839 -1.0782  0.0849
 3074SOL    HW210122   2.664   3.438   1.881  0.6058 -0.2552  1.0260
 3075SOL     OW10123   3.338   4.029   0.595 -0.7527  0.3552  0.7910
 3075SOL    HW110124   3.327   3.996   0.689 -0.8820 -0.6302  0.4394
 3075SOL    HW210125   3.382   4.119   0.597 -0.2315  0.1032  1.7692
 3076SOL     OW10126   4.949   1.723   3.857 -0.7988 -0.2449 -0.0654
 3076SOL    HW110127   4.983   1.695   3.947  1.1018  0.2255 -0.5847
 3076SOL    HW210128   4.857   1.761   3.866 -1.4719 -2.0685  1.3523
 3077SOL     OW10129   1.759   3.543   2.585  0.1571 -0.1443  0.2359
 3077SOL    HW110130   1.746   3.547   2.486  0.4342  0.9353  0.2217
 3077SOL    HW210131   1.671   3.528   2.629  0.1923 -1.8153 -0.2085
 3078SOL     OW10132   6.831   5.803   1.297  0.2629  0.5180  0.5198
 3078SOL    HW110133   6.895   5.742   1.343  0.1781  0.7994  1.0260
 3078SOL    HW210134   6.752   5.750   1.266  0.8241  0.1371 -0.2901
 3079SOL     OW10135   6.945   4.133   3.270  0.0404  0.1725 -0.1237
 3079SOL    HW110136   6.934   4.078   3.353  0.5063  0.8558  0.4067
 3079SOL    HW210137   6.898   4.088   3.194  1.7812 -1.8395 -0.1106
 3080SOL     OW10138   3.036   4.192   0.679 -0.5726 -0.0952  0.3022
 3080SOL    HW110139   3.068   4.263   0.741  0.3804 -0.3715  0.1336
 3080SOL    HW210140   3.057   4.102   0.718  0.7197 -0.2761 -0.7590
 3081SOL     OW10141   4.639   1.598   6.964  0.4425 -0.0431  0.4308
 3081SOL    HW110142   4.635   1.499   6.950  1.3530 -0.1598  0.9214
 3081SOL    HW210143   4.694   1.640   6.892 -0.6913  0.2288 -0.2938
 3082SOL     OW10144   6.737   4.033   4.732  0.4057  0.6322 -0.4659
 3082SOL    HW110145   6.651   4.017   4.781 -0.0006  1.9554 -0.7136
 3082SOL    HW210146   6.784   4.112   4.772  0.8693  0.7196 -1.1704
 3083SOL     OW10147   2.461   5.462   0.589  0.2892  0.1707  0.6665
 3083SOL    HW110148   2.462   5.394   0.515 -0.8746  0.6890  0.1425
 3083SOL    HW210149   2.444   5.417   0.676 -0.8057 -0.2041  0.2799
 3084SOL     OW10150   6.753   5.086   4.392  0.0716 -0.1064 -0.3184
 3084SOL    HW110151   6.813   5.008   4.410 -1.4336 -1.4266 -0.6994
 3084SOL    HW210152   6.686   5.060   4.322 -1.6915  0.8828  0.9197
 3085SOL     OW10153   0.841   5.850   5.723  0.6646 -0.4359 -0.0257
 3085SOL    HW110154   0.812   5.783   5.655 -1.5805  0.2648  0.1561
 3085SOL    HW210155   0.809   5.941   5.696  1.0419  0.0947  1.2154
 3086SOL     OW10156   4.666   5.913   5.621  0.2651 -0.2603  0.1338
 3086SOL    HW110157   4.725   5.891   5.544 -0.4032 -0.3637 -0.3543
 3086SOL    HW210158   4.640   5.829   5.669  0.1107 -0.2632  0.0467
 3087SOL     OW10159   2.949   6.009   1.242 -0.4182 -0.4003  0.9954
 3087SOL    HW110160   3.048   6.001   1.232 -0.4348  0.2210  0.2569
 3087SOL    HW210161   2.910   6.051   1.160 -1.2223 -0.0620  1.5341
 3088SOL     OW10162   2.882   2.076   6.222 -0.2688 -0.0478 -0.6746
 3088SOL    HW110163   2.865   2.171   6.246 -0.6255 -0.4916  1.0126
 3088SOL    HW210164   2.907   2.025   6.305 -0.4630 -1.4938 -1.4740
 3089SOL     OW10165   4.044   5.974   1.618  0.3894 -0.9196 -0.3094
 3089SOL    HW110166   3.995   6.012   1.696  1.7642 -0.6384  0.4422
 3089SOL    HW210167   3.984   5.976   1.537 -0.1241  1.4205  0.0479
 3090SOL     OW10168   1.754   3.418   4.188 -0.2401 -0.3769 -0.6626
 3090SOL    HW110169   1.794   3.335   4.151  0.5726 -0.3249  0.0717
 3090SOL    HW210170   1.709   3.398   4.275 -0.3280 -0.1120 -0.6453
 3091SOL     OW10171   2.616   0.260   4.930  0.2950 -0.3242 -0.4002
 3091SOL    HW110172   2.646   0.189   4.993  2.1721 -0.4155 -1.3183
 3091SOL    HW210173   2.547   0.222   4.868  1.2717 -1.4082 -0.8786
 3092SOL     OW10174   4.833   2.051   5.042  1.0000  0.4138  0.5482
 3092SOL    HW110175   4.857   2.143   5.010 -3.2302  2.4682  2.4013
 3092SOL    HW210176   4.847   2.045   5.140  2.2473 -1.4335  0.3101
 3093SOL     OW10177   6.428   5.856   6.857 -0.0676  0.3279  0.2151
 3093SOL    HW110178   6.411   5.797   6.936  0.3640 -0.7240 -0.4541
 3093SOL    HW210179   6.493   5.812   6.796 -0.7961  0.8773 -0.9944
 3094SOL     OW10180   1.801   2.800   0.011 -0.7388 -0.8145  0.1067
 3094SOL    HW110181   1.896   2.806  -0.019  0.4850  1.9939  3.8387
 3094SOL    HW210182   1.741   2.840  -0.059  1.2417  0.4959 -0.9310
 3095SOL     OW10183   1.419   2.975   5.560 -0.8060 -0.0036  0.0383
 3095SOL    HW110184   1.420   3.040   5.636  0.8322  0.2706 -0.1752
 3095SOL    HW210185   1.410   3.025   5.474  5.4403  0.7954 -0.6460
 3096SOL     OW10186   6.672   1.624   4.371  0.1216  0.0127 -0.0397
 3096SOL    HW110187   6.736   1.549   4.362  2.0169  1.6016 -0.4645
 3096SOL    HW210188   6.579   1.590   4.357  1.0613 -1.8716 -2.5228
 3097SOL     OW10189   0.260   2.782   2.137  0.1200 -0.3038  0.3417
 3097SOL    HW110190   0.322   2.740   2.204  0.6277  1.2927  0.9236
 3097SOL    HW210191   0.167   2.779   2.173 -0.0128 -1.7504 -0.0559
 3098SOL     OW10192   2.682   5.843   2.758  0.9011  0.1345 -0.0292
 3098SOL    HW110193   2.647   5.916   2.816  1.9677  0.5473  0.1105
 3098SOL    HW210194   2.605   5.796   2.714  0.0893  0.0183  1.4392
 3099SOL     OW10195   0.597   1.558   6.122 -0.2420  0.1516 -0.3945
 3099SOL    HW110196   0.610   1.554   6.222  0.0236  0.2222 -0.4249
 3099SOL    HW210197   0.579   1.652   6.094  0.0747  0.1964 -0.4574
 3100SOL     OW10198   5.823   4.074   3.204 -0.1027 -0.0049  0.0076
 3100SOL    HW110199   5.806   4.095   3.108 -1.2733 -1.6160 -0.1830
 3100SOL    HW210200   5.778   4.141   3.262 -0.5672  0.1853 -0.5664
 3101SOL     OW10201   4.367   2.332   4.843 -0.3494 -0.4717 -0.0690
 3101SOL    HW110202   4.442   2.394   4.817 -1.1739  0.1790 -0.9928
 3101SOL    HW210203   4.327   2.362   4.929  0.6370 -0.9979  0.5816
 3102SOL     OW10204   0.766   2.978   2.523  0.3410 -0.2173  0.2053
 3102SOL    HW110205   0.792   3.053   2.463  0.3234 -0.6371 -0.3346
 3102SOL    HW210206   0.832   2.971   2.599  0.8163 -0.1848 -0.2004
 3103SOL     OW10207   1.221   1.615   4.078 -1.1191 -0.3937 -0.5212
 3103SOL    HW110208   1.170   1.610   3.992 -1.4110  0.7799 -0.4405
 3103SOL    HW210209   1.305   1.562   4.070 -1.2937 -0.5591 -1.4173
 3104SOL     OW10210   5.718   1.285   0.421  0.0771  0.2225  0.3834
 3104SOL    HW110211   5.681   1.227   0.494 -1.2093  1.3490  0.6770
 3104SOL    HW210212   5.667   1.372   0.419  0.7155  0.5909 -1.2519
 3105SOL     OW10213   4.227   4.746   0.859 -0.6875 -0.1041 -0.0254
 3105SOL    HW110214   4.222   4.648   0.840 -2.8347  0.0780 -0.7338
 3105SOL    HW210215   4.244   4.795   0.774  0.7306  0.1563  0.3821
 3106SOL     OW10216   5.486   2.635   4.878  0.1323  0.3724 -0.0054
 3106SOL    HW110217   5.489   2.735   4.888  0.1609  0.6677 -2.3363
 3106SOL    HW210218   5.580   2.600   4.872  0.1205  0.4937 -1.1877
 3107SOL     OW10219   6.012   2.562   5.330  0.0294 -0.0099  0.4655
 3107SOL    HW110220   6.069   2.540   5.410  0.2423 -1.7337 -0.1370
 3107SOL    HW210221   6.001   2.481   5.273 -2.9684  0.2717  0.5009
 3108SOL     OW10222   3.423   5.044   4.632 -0.1481 -0.4229 -0.0757
 3108SOL    HW110223   3.463   4.976   4.571  0.2821 -0.4806  0.2614
 3108SOL    HW210224   3.446   5.021   4.727  0.4745  0.4857  0.0083
 3109SOL     OW10225   0.719   5.142   3.901 -0.4453 -0.3047 -0.0245
 3109SOL    HW110226   0.687   5.132   3.995 -0.4470  1.3760  0.1748
 3109SOL    HW210227   0.813   5.108   3.894 -1.2160 -2.6169  0.0181
 3110SOL     OW10228   2.045   4.310   2.890  0.0807 -0.4202 -0.3204
 3110SOL    HW110229   1.974   4.304   2.960 -1.1109  0.2020 -1.4196
 3110SOL    HW210230   2.121   4.250   2.913  0.2639  0.6238  2.0827
 3111SOL     OW10231   0.410   5.897   4.328 -0.0041  0.4724 -0.3834
 3111SOL    HW110232   0.323   5.890   4.377  0.0557  0.9984 -0.1866
 3111SOL    HW210233   0.445   5.806   4.308  0.1472  0.2328  0.8855
 3112SOL     OW10234   3.806   6.933   2.292  0.4700  0.1047  0.1040
 3112SOL    HW110235   3.740   6.922   2.218  0.2564  1.2013  0.1201
 3112SOL    HW210236   3.759   6.925   2.380  1.1727 -4.4738  0.3080
 3113SOL     OW10237   1.005   0.335   3.098 -0.2589  0.1581 -0.2170
 3113SOL    HW110238   1.044   0.250   3.063 -0.0757  0.4093 -0.6329
 3113SOL    HW210239   1.048   0.413   3.052  0.6415  0.5378  1.2118
 3114SOL     OW10240   4.815   6.261   5.407  0.4118  1.1307 -0.3333
 3114SOL    HW110241   4.879   6.185   5.414 -0.6255  0.1829 -1.0038
 3114SOL    HW210242   4.813   6.310   5.495  1.4892  0.7445 -0.0717
 3115SOL     OW10243   5.303   6.256   4.238  0.2357 -0.4801 -0.1723
 3115SOL    HW110244   5.275   6.315   4.313 -0.6153 -0.3741 -0.5693
 3115SOL    HW210245   5.280   6.299   4.150  0.6229 -0.8946 -0.4847
 3116SOL     OW10246   0.670   2.885   6.937 -0.0433 -0.0756 -0.5557
 3116SOL    HW110247   0.638   2.916   6.847  2.5053  1.3220 -1.0724
 3116SOL    HW210248   0.672   2.963   7.000 -0.2123 -0.6935  0.2175
 3117SOL     OW10249   6.005   0.830   1.616 -0.2176  0.4934 -0.3880
 3117SOL    HW110250   5.915   0.867   1.638  0.2107  0.8736  0.8218
 3117SOL    HW210251   6.010   0.809   1.519 -1.5089  0.7405 -0.5228
 3118SOL     OW10252   0.779   0.898   1.998  0.4009  0.0329  0.1559
 3118SOL    HW110253   0.845   0.970   1.974 -0.2090  0.7931  0.6875
 3118SOL    HW210254   0.727   0.873   1.917 -1.9020  2.8464  0.6162
 3119SOL     OW10255   5.736   6.005   4.907  0.5987 -0.0352 -0.2912
 3119SOL    HW110256   5.651   5.953   4.913 -0.5348  1.8237  1.0409
 3119SOL    HW210257   5.795   5.981   4.984  2.4604 -3.0836 -2.4734
 3120SOL     OW10258   4.627   6.108   5.250 -0.1174 -0.6279  0.0080
 3120SOL    HW110259   4.683   6.163   5.314 -1.0560 -0.3748  0.6326
 3120SOL    HW210260   4.530   6.119   5.273 -0.5470  0.0596 -1.9349
 3121SOL     OW10261   2.728   1.031   4.798  0.0053 -0.0247  0.0703
 3121SOL    HW110262   2.656   1.095   4.826  0.0476  0.8288 -1.6128
 3121SOL    HW210263   2.801   1.031   4.866 -1.3097 -0.5234  1.5616
 3122SOL     OW10264   3.891   4.139   6.487 -0.1595  0.1176 -0.2676
 3122SOL    HW110265   3.862   4.200   6.560 -0.8899  0.2287 -0.6476
 3122SOL    HW210266   3.887   4.187   6.399  1.7345  0.3301 -0.2836
 3123SOL     OW10267   3.013   2.111   3.339 -0.2291  0.1906 -0.1066
 3123SOL    HW110268   2.936   2.122   3.401 -0.7277  0.6975 -0.7994
 3123SOL    HW210269   2.984   2.131   3.245  0.0810 -2.1322 -0.7701
 3124SOL     OW10270   4.263   6.722   5.793 -0.1600 -0.1879  0.3229
 3124SOL    HW110271   4.330   6.775   5.741  2.1049 -1.0477  2.1581
 3124SOL    HW210272   4.228   6.647   5.737 -1.4574  1.6589 -1.4436
 3125SOL     OW10273   3.265   0.453   5.169  0.0397 -0.0360  0.2177
 3125SOL    HW110274   3.293   0.400   5.248 -0.0550 -2.1499 -1.0972
 3125SOL    HW210275   3.169   0.481   5.179 -0.1186 -0.7203  0.6311
 3126SOL     OW10276   5.008   3.382   4.568 -0.4923 -0.0357  0.5655
 3126SOL    HW110277   4.981   3.289   4.542 -0.4389 -0.1537  0.9307
 3126SOL    HW210278   4.995   3.395   4.666 -0.4590  0.3312  0.5240
 3127SOL     OW10279   5.970   3.664   5.645 -0.0349  0.2176  0.0226
 3127SOL    HW110280   6.054   3.636   5.691 -0.7188 -1.7726  0.1718
 3127SOL    HW210281   5.982   3.656   5.546 -0.5761 -1.8880  0.0842
 3128SOL     OW10282   4.414   3.156   0.808 -0.3611  0.1525 -0.0951
 3128SOL    HW110283   4.367   3.072   0.780 -1.4825  0.5105  0.6503
 3128SOL    HW210284   4.465   3.138   0.892 -1.0430  0.3400  0.3679
 3129SOL     OW10285   3.277   5.891   6.291 -0.2548  0.4070  0.4674
 3129SOL    HW110286   3.338   5.963   6.324 -1.8754  1.4142  1.3958
 3129SOL    HW210287   3.182   5.916   6.310 -0.8833 -2.0930  1.0533
 3130SOL     OW10288   5.732   6.688   2.698  0.2683 -0.6780 -0.1989
 3130SOL    HW110289   5.796   6.747   2.648 -0.3423  1.7012  1.6466
 3130SOL    HW210290   5.760   6.683   2.794 -1.3905 -0.9729  0.2940
 3131SOL     OW10291   1.055   1.497   3.880  0.2806  0.6879  0.1457
 3131SOL    HW110292   1.013   1.586   3.860 -1.1664 -0.4305 -2.2706
 3131SOL    HW210293   1.147   1.494   3.841  0.3169  1.1145  0.1956
 3132SOL     OW10294   4.191   5.360   6.481  0.4371 -0.0982 -0.2416
 3132SOL    HW110295   4.290   5.375   6.481  0.6752 -1.3178 -2.0041
 3132SOL    HW210296   4.147   5.434   6.430  0.6976 -0.7151 -1.3920
 3133SOL     OW10297   5.378   0.083   5.139 -0.4584  0.0388 -0.0369
 3133SOL    HW110298   5.366   0.144   5.061 -0.5440 -1.2489 -1.0561
 3133SOL    HW210299   5.473   0.087   5.170 -0.5081  0.8228  0.0368
 3134SOL     OW10300   4.273   5.191   3.490  0.0417  0.0082 -0.5576
 3134SOL    HW110301   4.187   5.159   3.531  1.4783 -0.2189  2.6241
 3134SOL    HW210302   4.271   5.290   3.480 -0.1054  0.1703  0.8981
 3135SOL     OW10303   2.918   0.130   5.587 -0.1589  0.9514 -0.3271
 3135SOL    HW110304   2.848   0.201   5.586 -0.7206  0.4254  0.5244
 3135SOL    HW210305   2.875   0.041   5.604  0.7270  0.6355  0.3349
 3136SOL     OW10306   5.570   3.746   1.956 -0.3552  0.5634  0.0570
 3136SOL    HW110307   5.546   3.678   1.887 -0.0279  0.1888  0.3082
 3136SOL    HW210308   5.550   3.710   2.047  0.5293  0.4883  0.2371
 3137SOL     OW10309   6.305   5.573   0.359 -0.1825  0.4226 -0.3786
 3137SOL    HW110310   6.396   5.555   0.395 -0.3921 -0.9564 -0.4786
 3137SOL    HW210311   6.299   5.669   0.331  0.5655  1.0631  1.4969
 3138SOL     OW10312   6.084   6.678   4.502 -0.1798  0.6470 -0.8928
 3138SOL    HW110313   5.989   6.687   4.532  0.0936  1.0865 -0.1449
 3138SOL    HW210314   6.117   6.586   4.523 -0.1773  0.7620 -0.3762
 3139SOL     OW10315   1.783   5.252   2.428  0.0305 -0.3378 -0.8274
 3139SOL    HW110316   1.722   5.324   2.395 -0.1537 -0.1510 -0.0943
 3139SOL    HW210317   1.877   5.287   2.430 -0.0321 -0.1726 -0.6586
 3140SOL     OW10318   3.853   5.621   5.504 -0.0197  0.1805  0.7207
 3140SOL    HW110319   3.758   5.597   5.484 -0.3952  1.6654  0.5547
 3140SOL    HW210320   3.887   5.682   5.432  0.9395 -0.0624  0.9648
 3141SOL     OW10321   5.927   1.954   1.455 -0.1034  0.4551 -0.0438
 3141SOL    HW110322   6.022   1.950   1.489  0.1081 -0.2833 -0.6962
 3141SOL    HW210323   5.895   1.861   1.435  0.1710  0.8895 -2.9168
 3142SOL     OW10324   4.639   1.696   4.781  0.2418 -0.5351  0.5084
 3142SOL    HW110325   4.685   1.609   4.765  0.0200 -0.1287 -3.1473
 3142SOL    HW210326   4.543   1.688   4.753  0.2003  0.8286  0.2022
 3143SOL     OW10327   5.919   4.247   0.019 -0.3272  0.1757  0.6761
 3143SOL    HW110328   5.938   4.259   0.117 -0.6026 -3.0117  1.2397
 3143SOL    HW210329   5.837   4.191   0.008 -2.6866  3.6455 -1.5442
 3144SOL     OW10330   4.181   3.153   5.901  0.2567  0.0914  0.5602
 3144SOL    HW110331   4.158   3.247   5.877  1.5982  0.0708 -0.9745
 3144SOL    HW210332   4.278   3.146   5.924  0.4410 -1.0913 -0.4370
 3145SOL     OW10333   0.336   4.937   6.567  0.0116  0.3618  0.1825
 3145SOL    HW110334   0.403   4.875   6.525 -1.1225 -1.4650  0.9797
 3145SOL    HW210335   0.274   4.972   6.496 -0.7403 -1.2349  0.0113
 3146SOL     OW10336   6.198   1.271   5.250 -0.0624 -0.0393  0.1654
 3146SOL    HW110337   6.151   1.350   5.289 -1.2386 -0.4173 -0.4549
 3146SOL    HW210338   6.189   1.193   5.312 -1.1050 -0.3742 -0.3834
 3147SOL     OW10339   3.186   0.122   6.676  0.0371 -0.1624  0.3850
 3147SOL    HW110340   3.170   0.120   6.577  0.7819  0.4766  0.2369
 3147SOL    HW210341   3.215   0.032   6.707  0.3124 -0.2370 -0.0783
 3148SOL     OW10342   5.974   4.483   6.479  0.0373 -0.0473 -0.0714
 3148SOL    HW110343   5.910   4.544   6.526  1.8734  0.3882  2.0845
 3148SOL    HW210344   6.007   4.414   6.544  4.0972  1.6896  0.0462
 3149SOL     OW10345   5.511   4.103   1.488  0.7488  0.3387 -0.3906
 3149SOL    HW110346   5.519   4.032   1.419  1.9014 -0.2796  0.3521
 3149SOL    HW210347   5.422   4.148   1.479 -0.1442 -1.4011 -0.6625
 3150SOL     OW10348   6.426   1.666   4.736  0.1536  0.2126 -0.4911
 3150SOL    HW110349   6.519   1.670   4.699 -0.0844 -3.9688 -2.0709
 3150SOL    HW210350   6.367   1.728   4.683  1.5602  1.1733 -1.0039
 3151SOL     OW10351   0.631   1.520   6.401  0.6099  0.2094 -0.3345
 3151SOL    HW110352   0.635   1.443   6.466  1.8360  2.0152  1.8890
 3151SOL    HW210353   0.724   1.549   6.377  0.2241  1.8527  0.0067
 3152SOL     OW10354   3.973   1.312   5.467 -0.1895 -0.1248  0.2792
 3152SOL    HW110355   4.030   1.275   5.393 -1.7131  0.2529 -1.1522
 3152SOL    HW210356   3.929   1.237   5.517 -0.7886 -0.3542 -0.5699
 3153SOL     OW10357   4.695   5.466   1.790 -0.1321  0.0922  0.6512
 3153SOL    HW110358   4.699   5.554   1.838  1.0499 -0.7012  2.0927
 3153SOL    HW210359   4.641   5.401   1.844 -2.0314  0.2186 -0.9777
 3154SOL     OW10360   3.935   1.829   2.252 -0.0866 -0.2571 -0.7629
 3154SOL    HW110361   3.867   1.770   2.295 -1.0039  0.3908 -1.2988
 3154SOL    HW210362   3.988   1.876   2.323 -0.5638 -0.3533 -0.3385
 3155SOL     OW10363   4.678   6.455   6.544 -0.1934  0.1995  0.1926
 3155SOL    HW110364   4.727   6.513   6.480  0.1339 -1.0223 -0.7061
 3155SOL    HW210365   4.693   6.359   6.520 -2.3683 -0.2352  0.3742
 3156SOL     OW10366   2.708   2.834   0.028 -0.8535 -0.4642 -0.2355
 3156SOL    HW110367   2.670   2.756   0.076 -0.8857 -0.1094  0.3164
 3156SOL    HW210368   2.709   2.815  -0.071 -1.5947 -0.8396 -0.1744
 3157SOL     OW10369   1.936   0.852   3.721  0.8304 -0.3823 -0.4828
 3157SOL    HW110370   1.903   0.876   3.630 -0.8607  0.4887  0.3161
 3157SOL    HW210371   1.896   0.765   3.750 -0.7216  0.5976  0.4259
 3158SOL     OW10372   2.372   6.811   4.835 -0.2245 -0.4306 -0.1019
 3158SOL    HW110373   2.404   6.883   4.773 -0.7868  0.0827  0.1966
 3158SOL    HW210374   2.367   6.724   4.785  0.3167 -0.2413 -0.5018
 3159SOL     OW10375   3.481   6.596   6.384  0.1372  0.4919 -0.3200
 3159SOL    HW110376   3.411   6.529   6.355  0.4873  0.6665 -1.6419
 3159SOL    HW210377   3.559   6.590   6.322  0.2536  2.0039 -0.3353
 3160SOL     OW10378   2.316   2.715   6.987  0.1270 -0.0082  0.9304
 3160SOL    HW110379   2.400   2.667   7.012 -1.4052 -2.4484  1.7100
 3160SOL    HW210380   2.300   2.790   7.051  1.4780  0.2187  1.0149
 3161SOL     OW10381   2.881   3.623   2.175  0.1472  0.1964 -0.0730
 3161SOL    HW110382   2.918   3.551   2.116 -0.3368  1.9516 -2.7195
 3161SOL    HW210383   2.819   3.681   2.121  0.5802  2.6307  1.8681
 3162SOL     OW10384   0.080   4.876   2.281 -0.5306  0.0972  0.6350
 3162SOL    HW110385  -0.008   4.919   2.263  1.6319  4.2996 -1.0897
 3162SOL    HW210386   0.110   4.825   2.201  0.3953  2.3279 -0.5230
 3163SOL     OW10387   4.813   5.027   1.838 -0.4851  0.7382 -0.3807
 3163SOL    HW110388   4.867   4.942   1.842  2.2557  2.4061  1.5210
 3163SOL    HW210389   4.731   5.011   1.784 -1.1958 -3.7073  1.4998
 3164SOL     OW10390   0.860   0.720   2.679 -0.6966  0.0080 -0.1997
 3164SOL    HW110391   0.958   0.737   2.682 -0.1681 -2.4559 -1.3710
 3164SOL    HW210392   0.820   0.769   2.601  0.2003 -1.3600 -1.5773
 3165SOL     OW10393   6.129   5.987   0.271  0.0924 -0.0335  0.2060
 3165SOL    HW110394   6.062   6.019   0.205  0.2062 -2.5492 -1.2507
 3165SOL    HW210395   6.082   5.946   0.349 -0.0712 -0.1889  0.0275
 3166SOL     OW10396   3.159   1.446   5.396  0.0720 -0.5141  0.0803
 3166SOL    HW110397   3.069   1.490   5.392  0.1456 -0.0447  2.2885
 3166SOL    HW210398   3.225   1.498   5.343 -0.6917 -0.1587 -0.5275
 3167SOL     OW10399   0.794   2.094   3.228  0.1586  0.3402 -0.3634
 3167SOL    HW110400   0.816   2.178   3.178 -1.5313  0.1192 -1.5786
 3167SOL    HW210401   0.849   2.019   3.191  0.8540  0.6907 -0.0521
 3168SOL     OW10402   0.439   0.716   1.477 -0.0216 -0.1618  0.0962
 3168SOL    HW110403   0.379   0.644   1.513  2.5587 -3.3622 -1.4464
 3168SOL    HW210404   0.419   0.730   1.380  1.6010 -1.3582 -0.4723
 3169SOL     OW10405   1.942   2.024   2.133 -0.4804  0.2017 -0.0312
 3169SOL    HW110406   2.031   2.041   2.175 -0.3363  1.5966 -0.8329
 3169SOL    HW210407   1.949   1.947   2.069  0.1074  0.1750  0.0648
 3170SOL     OW10408   1.695   4.473   1.758  0.2103  0.1787 -0.2700
 3170SOL    HW110409   1.786   4.509   1.743  0.4310  0.3147  1.2403
 3170SOL    HW210410   1.700   4.393   1.819 -0.6177 -0.1887 -0.6599
 3171SOL     OW10411   0.080   1.332   3.349 -0.0933 -0.2964  0.0377
 3171SOL    HW110412   0.038   1.333   3.258  0.4676  0.0388 -0.2224
 3171SOL    HW210413   0.029   1.269   3.408 -1.2594  0.4469 -0.1294
 3172SOL     OW10414   5.818   4.937   1.023 -0.4529  0.0691 -0.4424
 3172SOL    HW110415   5.861   5.008   1.079  0.2931 -0.3061 -0.5179
 3172SOL    HW210416   5.802   4.972   0.931 -1.3991  0.5895 -0.0874
 3173SOL     OW10417   5.438   5.148   7.002  0.0992  0.0127  0.1243
 3173SOL    HW110418   5.475   5.058   7.025 -0.0115 -0.3967 -1.2194
 3173SOL    HW210419   5.399   5.146   6.910 -1.9830  0.8332  0.9290
 3174SOL     OW10420   2.224   2.743   5.125 -0.3285  0.8409  0.2044
 3174SOL    HW110421   2.256   2.834   5.097 -1.2552  0.9999 -0.3779
 3174SOL    HW210422   2.177   2.700   5.048  0.5730 -0.3716  0.2953
 3175SOL     OW10423   6.656   5.840   5.210 -0.3428  0.1641  0.2413
 3175SOL    HW110424   6.755   5.829   5.210 -0.3446 -0.3858  2.2830
 3175SOL    HW210425   6.624   5.863   5.119  1.5809 -0.3789 -0.6114
 3176SOL     OW10426   6.905   4.260   4.426  0.3926 -0.1298 -0.2091
 3176SOL    HW110427   6.834   4.320   4.387  2.1157  0.4050 -2.7682
 3176SOL    HW210428   6.903   4.172   4.379 -0.1035 -1.0161  1.4073
 3177SOL     OW10429   6.243   0.910   2.296 -0.2656  0.1858  0.3361
 3177SOL    HW110430   6.325   0.949   2.339 -0.4348 -0.4901  1.3005
 3177SOL    HW210431   6.262   0.893   2.199  0.4558  0.8184  0.3547
 3178SOL     OW10432   1.268   2.698   1.424 -0.7350  0.3017  0.2544
 3178SOL    HW110433   1.313   2.613   1.396 -3.3290 -1.0417 -0.1562
 3178SOL    HW210434   1.309   2.775   1.375  0.1447 -1.0058 -1.1608
 3179SOL     OW10435   0.543   4.470   3.074  0.6343  0.5499 -0.3270
 3179SOL    HW110436   0.558   4.484   2.976  0.0958  1.9823 -0.2372
 3179SOL    HW210437   0.499   4.551   3.113  2.4362  0.7571  1.4577
 3180SOL     OW10438   6.756   1.562   6.358  0.0872 -0.2283  0.3459
 3180SOL    HW110439   6.656   1.565   6.354 -0.0408 -2.7725 -0.0472
 3180SOL    HW210440   6.786   1.555   6.453 -0.2915 -2.0768  0.3605
 3181SOL     OW10441   5.263   0.691   5.597  0.1145 -0.6144  0.3012
 3181SOL    HW110442   5.294   0.747   5.674  0.6447  1.0404 -1.0553
 3181SOL    HW210443   5.170   0.718   5.572  0.1678 -0.7351 -0.0228
 3182SOL     OW10444   1.019   0.680   0.163  0.2481 -0.0416 -0.4217
 3182SOL    HW110445   1.042   0.762   0.111 -0.4867  0.3962 -0.0654
 3182SOL    HW210446   1.010   0.602   0.100  0.4332  0.2531 -0.8166
 3183SOL     OW10447   4.131   4.809   5.112  0.6709  0.5766  0.5483
 3183SOL    HW110448   4.188   4.786   5.033 -0.4251 -1.2445  0.2457
 3183SOL    HW210449   4.179   4.783   5.196  0.8158  0.2262  0.3601
 3184SOL     OW10450   6.224   5.913   5.357  0.0876 -0.3131  0.2048
 3184SOL    HW110451   6.207   5.938   5.452  2.1023 -1.2892  0.8891
 3184SOL    HW210452   6.145   5.865   5.320  0.0487 -1.9019  2.1437
 3185SOL     OW10453   6.132   0.741   3.967 -0.1211 -0.2247 -0.2492
 3185SOL    HW110454   6.150   0.675   3.894  0.6237  0.4831 -0.7247
 3185SOL    HW210455   6.095   0.826   3.927 -0.3792 -0.0873  0.2740
 3186SOL     OW10456   0.592   2.278   5.446  0.0930 -0.4128  0.3173
 3186SOL    HW110457   0.630   2.365   5.478  0.5408  0.2141 -1.7460
 3186SOL    HW210458   0.666   2.218   5.417 -0.3166 -0.5412 -0.4875
 3187SOL     OW10459   6.532   6.264   3.269 -0.9535  0.0014  0.0911
 3187SOL    HW110460   6.563   6.347   3.315  1.1312 -2.3318  3.3281
 3187SOL    HW210461   6.526   6.280   3.171  1.4656  3.3538  0.3423
 3188SOL     OW10462   2.344   5.937   0.731  0.0628 -0.2935 -0.0994
 3188SOL    HW110463   2.271   6.004   0.721  0.7256  0.6968  1.3326
 3188SOL    HW210464   2.306   5.845   0.725 -0.9383  0.1825 -1.6157
 3189SOL     OW10465   3.633   2.515   1.049  0.1606 -0.1131  0.0379
 3189SOL    HW110466   3.543   2.482   1.076  0.7148 -2.0373 -0.2889
 3189SOL    HW210467   3.650   2.491   0.954  0.2578  2.0338 -0.5447
 3190SOL     OW10468   4.354   6.903   2.739 -0.0330 -0.7709  0.8378
 3190SOL    HW110469   4.389   6.992   2.770  1.7691 -0.7378 -1.0567
 3190SOL    HW210470   4.254   6.905   2.741 -0.0422  1.2151  1.0884
 3191SOL     OW10471   5.245   0.540   0.962  0.4201 -1.0018 -0.4496
 3191SOL    HW110472   5.151   0.545   0.928 -0.1308 -0.8321  1.0498
 3191SOL    HW210473   5.245   0.516   1.059  1.8538  0.2081 -0.1065
 3192SOL     OW10474   5.372   6.579   3.721  0.6772 -0.0643 -0.2495
 3192SOL    HW110475   5.384   6.555   3.624 -0.3131  2.1058 -0.9627
 3192SOL    HW210476   5.398   6.500   3.778  1.7579 -1.2261 -2.2305
 3193SOL     OW10477   6.545   4.837   6.324  0.0496  0.7472 -0.3316
 3193SOL    HW110478   6.508   4.915   6.273  0.5269 -0.0258 -1.9374
 3193SOL    HW210479   6.625   4.867   6.377  0.9692  1.1562 -1.8750
 3194SOL     OW10480   1.566   6.743   4.610 -0.3136 -0.6012 -0.3948
 3194SOL    HW110481   1.597   6.824   4.660 -1.9366  0.6195 -1.2932
 3194SOL    HW210482   1.467   6.748   4.597 -0.4064 -2.6353 -0.6880
 3195SOL     OW10483   5.781   0.175   0.036  0.4384  0.1667  0.0836
 3195SOL    HW110484   5.756   0.115   0.112 -0.3641  1.0701  0.5446
 3195SOL    HW210485   5.711   0.245   0.024  1.5268  1.2303 -0.2148
 3196SOL     OW10486   0.095   1.074   2.693  0.3985 -0.4483 -0.0895
 3196SOL    HW110487   0.146   0.999   2.734  1.6498  0.1907 -0.4324
 3196SOL    HW210488   0.117   1.159   2.740 -0.3051 -0.1432 -0.2924
 3197SOL     OW10489   3.691   2.673   6.704 -0.3082  0.1787  0.1639
 3197SOL    HW110490   3.642   2.590   6.730  0.1085 -1.0978 -2.7871
 3197SOL    HW210491   3.765   2.650   6.641 -0.3133  2.7950 -0.9299
 3198SOL     OW10492   5.909   5.602   5.557  0.1705 -0.2539 -0.4952
 3198SOL    HW110493   5.833   5.540   5.575 -0.1813  0.1587 -0.5140
 3198SOL    HW210494   5.995   5.551   5.553  0.0741 -0.5423  0.8733
 3199SOL     OW10495   4.672   5.819   4.320  0.6326 -0.4408  0.0053
 3199SOL    HW110496   4.575   5.803   4.339  1.2079 -2.1605  1.7646
 3199SOL    HW210497   4.705   5.753   4.254  1.1977 -1.6253  1.4295
 3200SOL     OW10498   6.350   2.492   3.755  0.1735 -0.4355  0.6826
 3200SOL    HW110499   6.438   2.484   3.709 -0.0650  1.8174 -0.2941
 3200SOL    HW210500   6.361   2.542   3.840 -0.1103 -0.5047  0.7624
 3201SOL     OW10501   4.568   0.875   2.471  0.0478 -0.0773 -0.0595
 3201SOL    HW110502   4.578   0.975   2.479  1.3552 -0.2629  1.2306
 3201SOL    HW210503   4.545   0.851   2.377 -0.0253  1.4281 -0.4575
 3202SOL     OW10504   4.768   2.469   6.929  0.2919  0.1807  0.3311
 3202SOL    HW110505   4.679   2.514   6.920  0.8376  2.3247  3.7929
 3202SOL    HW210506   4.841   2.533   6.907  1.0344 -0.6525  0.2990
 3203SOL     OW10507   2.648   6.229   2.090 -0.0621  0.6840  0.2524
 3203SOL    HW110508   2.661   6.237   1.991 -0.9466  2.6448  0.2279
 3203SOL    HW210509   2.731   6.195   2.133  1.6271  3.1222 -0.8448
 3204SOL     OW10510   6.482   5.844   2.993  0.4697 -0.4785 -0.1339
 3204SOL    HW110511   6.452   5.938   2.978  0.1049 -0.7244 -1.0145
 3204SOL    HW210512   6.570   5.830   2.949  0.2253 -0.7190 -0.5516
 3205SOL     OW10513   5.866   2.517   1.160 -0.5056 -0.2581 -0.3337
 3205SOL    HW110514   5.842   2.430   1.117 -0.4031 -1.0023  1.0613
 3205SOL    HW210515   5.962   2.538   1.144 -0.1227 -1.2031  0.6109
 3206SOL     OW10516   3.794   6.176   0.824  0.1594 -0.0207  0.8632
 3206SOL    HW110517   3.836   6.090   0.794  0.9514  0.9444 -0.9415
 3206SOL    HW210518   3.864   6.248   0.828  0.0129  0.1049  4.6251
 3207SOL     OW10519   1.714   5.495   6.412 -0.0550 -0.3240 -0.0876
 3207SOL    HW110520   1.743   5.576   6.360 -0.5348  0.8250  1.3723
 3207SOL    HW210521   1.743   5.413   6.364  1.4646  0.7239 -1.0413
 3208SOL     OW10522   5.147   3.552   0.974 -0.4835 -0.6506 -0.1377
 3208SOL    HW110523   5.099   3.599   0.900 -0.8016 -0.1008  0.4115
 3208SOL    HW210524   5.242   3.535   0.947  0.2406  2.1086  0.4012
 3209SOL     OW10525   4.658   6.616   4.521 -0.2015 -0.3973  0.1170
 3209SOL    HW110526   4.584   6.555   4.491 -0.6744  0.9904 -1.7433
 3209SOL    HW210527   4.687   6.673   4.444  2.7004 -0.7337  0.8580
 3210SOL     OW10528   5.048   5.094   3.931 -0.6905  0.4892 -0.0523
 3210SOL    HW110529   5.026   5.026   3.861 -0.5946  1.3125 -0.9005
 3210SOL    HW210530   5.009   5.182   3.906 -0.7711  0.7724  1.0094
 3211SOL     OW10531   3.462   2.287   0.737  0.0321 -0.1934  0.0264
 3211SOL    HW110532   3.418   2.211   0.689  0.8153  0.4074 -1.7103
 3211SOL    HW210533   3.557   2.264   0.756  0.1527  0.1921 -0.1103
 3212SOL     OW10534   3.976   6.960   3.842  0.4450 -0.4590 -0.0456
 3212SOL    HW110535   4.072   6.959   3.869  0.6558 -2.0130 -0.7282
 3212SOL    HW210536   3.920   6.995   3.917  1.5841  1.0185  0.1570
 3213SOL     OW10537   1.173   6.435   5.405  0.0376 -0.4392  0.2857
 3213SOL    HW110538   1.129   6.481   5.483  1.8010  1.7258  0.1210
 3213SOL    HW210539   1.272   6.450   5.410  0.3710 -1.7940 -1.4346
 3214SOL     OW10540   1.887   1.283   4.307  0.1236 -0.4366 -0.5213
 3214SOL    HW110541   1.819   1.288   4.380 -0.0408  1.8280 -0.7460
 3214SOL    HW210542   1.978   1.283   4.347  0.0379  0.9687 -0.2598
 3215SOL     OW10543   1.194   3.446   3.022 -0.9695  0.0097  0.6089
 3215SOL    HW110544   1.100   3.443   2.987  0.0320  0.7905 -2.3987
 3215SOL    HW210545   1.209   3.534   3.068 -0.7897  1.3799 -1.9349
 3216SOL     OW10546   6.624   4.497   1.068 -0.0481 -0.1387  0.0386
 3216SOL    HW110547   6.566   4.419   1.043 -0.8917  1.6068 -4.5017
 3216SOL    HW210548   6.709   4.493   1.016  0.1005  1.6719  0.0710
 3217SOL     OW10549   7.005   6.370   4.228 -0.2041  0.2266  0.6854
 3217SOL    HW110550   6.936   6.303   4.199  1.2141 -1.3107  0.6985
 3217SOL    HW210551   7.096   6.330   4.219  0.6158  1.6395  2.1445
 3218SOL     OW10552   6.338   6.849   2.254  0.3745 -0.0892 -0.8064
 3218SOL    HW110553   6.278   6.769   2.259  1.6419 -1.0837 -1.0150
 3218SOL    HW210554   6.334   6.889   2.162  0.0125 -0.1154 -0.8047
 3219SOL     OW10555   4.829   2.867   5.512  1.0702 -0.8230  0.5688
 3219SOL    HW110556   4.783   2.832   5.431  2.3435 -0.7111 -0.2235
 3219SOL    HW210557   4.764   2.920   5.567  0.4576  0.0565 -0.9461
 3220SOL     OW10558   1.942   5.042   6.581 -0.7938  0.4245  0.6031
 3220SOL    HW110559   1.982   4.996   6.661  1.0162 -0.0247 -0.5101
 3220SOL    HW210560   1.895   5.125   6.611  1.6979  1.4645  1.9924
 3221SOL     OW10561   4.820   1.862   3.056  0.1740 -0.1118 -0.4159
 3221SOL    HW110562   4.853   1.848   3.149 -1.7140  0.6319  0.4233
 3221SOL    HW210563   4.835   1.779   3.002 -0.1982 -1.1419  1.0111
 3222SOL     OW10564   3.390   1.508   3.912  0.3729 -0.5052 -0.0420
 3222SOL    HW110565   3.405   1.431   3.849  0.1120  0.2223 -1.0209
 3222SOL    HW210566   3.317   1.485   3.976  1.2791 -1.6245  0.6262
 3223SOL     OW10567   4.422   4.009   6.813  0.2844 -0.0862  0.2894
 3223SOL    HW110568   4.511   4.045   6.842  0.3433 -0.1759  0.2251
 3223SOL    HW210569   4.369   4.081   6.770  0.7985 -0.3014 -0.7465
 3224SOL     OW10570   4.363   0.944   4.090  0.6276 -0.3254 -0.1867
 3224SOL    HW110571   4.377   1.042   4.105  2.6061 -0.5180 -0.4816
 3224SOL    HW210572   4.267   0.921   4.105 -0.3429  2.0255 -2.1434
 3225SOL     OW10573   5.663   1.835   5.718 -0.1726  0.1745 -0.2543
 3225SOL    HW110574   5.699   1.801   5.631 -1.2997 -1.2183 -0.2100
 3225SOL    HW210575   5.568   1.805   5.729 -0.6203  1.7837  0.6868
 3226SOL     OW10576   5.715   1.942   6.157 -0.3617 -0.2920  0.2277
 3226SOL    HW110577   5.802   1.916   6.198  0.4333  0.4335 -0.9599
 3226SOL    HW210578   5.659   1.990   6.225 -0.8970 -2.8881  1.7526
 3227SOL     OW10579   4.928   1.152   6.100 -1.0119 -0.0062 -0.4358
 3227SOL    HW110580   4.945   1.197   6.013  1.0829 -1.5010 -0.8822
 3227SOL    HW210581   5.012   1.151   6.155 -1.5978 -1.3158  0.5019
 3228SOL     OW10582   6.230   4.490   1.030 -0.8393 -0.3090  0.2363
 3228SOL    HW110583   6.244   4.394   1.056 -3.9535 -0.9537 -0.0367
 3228SOL    HW210584   6.173   4.535   1.099 -1.7165  0.5302 -0.9795
 3229SOL     OW10585   0.967   1.261   6.341 -0.1979  0.4961  0.4232
 3229SOL    HW110586   0.896   1.210   6.390 -0.1925 -0.0325 -0.0978
 3229SOL    HW210587   0.982   1.219   6.251  0.5176  0.8168  0.3811
 3230SOL     OW10588   2.944   6.266   3.719 -0.9365 -0.8985 -0.2782
 3230SOL    HW110589   2.962   6.255   3.816 -0.3591 -0.2549 -0.3045
 3230SOL    HW210590   2.910   6.180   3.681 -1.1824 -1.1496  0.4903
 3231SOL     OW10591   4.379   1.064   3.261 -0.1854 -0.0872 -0.4728
 3231SOL    HW110592   4.339   1.140   3.211  0.5403  0.7181  0.1431
 3231SOL    HW210593   4.384   1.087   3.358 -0.7916 -1.2859 -0.1382
 3232SOL     OW10594   1.703   5.929   2.572  0.1860 -0.1892 -0.0040
 3232SOL    HW110595   1.684   5.966   2.663  1.8044  1.4674 -0.2820
 3232SOL    HW210596   1.712   5.829   2.578  0.4795 -0.0939  1.6785
 3233SOL     OW10597   1.865   1.150   5.034 -0.2029 -0.2959  0.0874
 3233SOL    HW110598   1.956   1.109   5.034 -1.1464 -2.9166 -3.8095
 3233SOL    HW210599   1.866   1.234   4.981  0.1306  0.4600  1.2433
 3234SOL     OW10600   4.665   3.923   0.178  0.6705 -0.0828  0.1854
 3234SOL    HW110601   4.574   3.910   0.217 -0.0098 -0.5022 -1.4464
 3234SOL    HW210602   4.689   3.844   0.121  0.9031  1.1413 -1.5188
 3235SOL     OW10603   6.776   0.972   3.312  0.0709 -0.3557  0.5771
 3235SOL    HW110604   6.844   0.922   3.367 -0.6971 -0.6787  1.2706
 3235SOL    HW210605   6.815   0.995   3.223  0.7662 -1.3734  0.5974
 3236SOL     OW10606   5.957   0.910   0.523 -0.6640  0.2038  0.6104
 3236SOL    HW110607   6.016   0.830   0.528 -1.9060 -0.7157  1.1565
 3236SOL    HW210608   6.007   0.991   0.554  1.0259 -0.0834 -1.2288
 3237SOL     OW10609   6.683   3.150   5.741 -0.4987 -0.1735  0.0561
 3237SOL    HW110610   6.679   3.050   5.749  1.7979 -0.3256 -0.2503
 3237SOL    HW210611   6.653   3.191   5.828  1.0540 -1.2186  1.1302
 3238SOL     OW10612   2.206   2.763   0.340  0.1369  0.9962 -0.1670
 3238SOL    HW110613   2.183   2.834   0.273 -0.1277  0.1041 -1.0502
 3238SOL    HW210614   2.123   2.718   0.372  0.3890 -0.3245 -1.2335
 3239SOL     OW10615   0.892   1.814   3.214  0.0612 -0.1208  0.1517
 3239SOL    HW110616   0.797   1.799   3.186 -0.1259  1.8412 -0.4434
 3239SOL    HW210617   0.951   1.812   3.133  0.1523  1.1188  0.1717
 3240SOL     OW10618   0.808   0.272   6.392  0.1628 -0.7396  0.6266
 3240SOL    HW110619   0.893   0.246   6.436  1.5321  0.6945 -1.0057
 3240SOL    HW210620   0.826   0.344   6.325 -2.5153  0.4345  1.0220
 3241SOL     OW10621   6.589   1.184   5.944  0.0794  0.2704 -0.3992
 3241SOL    HW110622   6.549   1.253   6.004  0.0773  0.8777 -1.0831
 3241SOL    HW210623   6.530   1.171   5.864  0.3226 -0.1765 -0.5096
 3242SOL     OW10624   4.883   0.065   6.208  0.2956  0.6475  0.3542
 3242SOL    HW110625   4.869   0.157   6.171  0.2980  0.2455 -0.6893
 3242SOL    HW210626   4.807   0.006   6.182  0.0093  0.4943  1.5111
 3243SOL     OW10627   6.244   5.337   4.008 -0.2606 -0.1684  0.0623
 3243SOL    HW110628   6.180   5.413   4.017 -0.9078 -0.6375 -0.4418
 3243SOL    HW210629   6.322   5.365   3.953 -0.0304  0.4084  0.6754
 3244SOL     OW10630   3.218   6.821   1.827 -0.5468  0.2846 -0.2972
 3244SOL    HW110631   3.193   6.918   1.822 -0.0247  0.4861  0.7269
 3244SOL    HW210632   3.260   6.793   1.741  3.0704  2.0628  0.7044
 3245SOL     OW10633   2.537   4.970   5.180  0.0617  0.4150  0.0117
 3245SOL    HW110634   2.465   5.033   5.151  1.3020  1.9970  0.2230
 3245SOL    HW210635   2.572   4.998   5.269  2.8439  1.4646 -1.2932
 3246SOL     OW10636   6.646   0.699   0.938 -0.1456 -0.6255  0.0702
 3246SOL    HW110637   6.714   0.656   0.997 -1.7985 -0.5348  2.1581
 3246SOL    HW210638   6.595   0.768   0.989 -2.5544 -1.4650 -1.0324
 3247SOL     OW10639   0.757   3.297   2.605  0.0509  0.3763 -0.1858
 3247SOL    HW110640   0.791   3.247   2.684  0.1259 -1.0948 -1.1060
 3247SOL    HW210641   0.819   3.373   2.584 -0.3190  1.1880  1.5210
 3248SOL     OW10642   0.819   2.332   3.935 -0.3069 -0.6626  0.0571
 3248SOL    HW110643   0.772   2.351   4.021  0.7660 -2.4953  1.1362
 3248SOL    HW210644   0.918   2.347   3.946  0.1130 -2.8149 -0.1470
 3249SOL     OW10645   3.520   4.084   3.463 -0.1480  0.7009 -0.0616
 3249SOL    HW110646   3.424   4.057   3.454 -0.2013  0.6949  0.4693
 3249SOL    HW210647   3.569   4.063   3.378 -1.2815  3.6318 -1.5819
 3250SOL     OW10648   5.209   4.448   4.458  0.1808  0.8294 -0.3258
 3250SOL    HW110649   5.244   4.399   4.538  0.0013 -1.5327 -1.6000
 3250SOL    HW210650   5.112   4.428   4.446  0.6760 -0.7765 -2.3485
 3251SOL     OW10651   1.989   0.041   3.552 -0.2667 -0.9307  0.4556
 3251SOL    HW110652   2.069   0.076   3.504  0.3760 -1.2522  1.2666
 3251SOL    HW210653   2.018  -0.005   3.636 -1.3824 -0.0097  1.3836
 3252SOL     OW10654   1.943   1.635   3.773  0.4170  0.1164  0.6876
 3252SOL    HW110655   1.969   1.692   3.851 -1.5238 -0.9855  2.2252
 3252SOL    HW210656   2.004   1.556   3.767 -0.8288 -1.1007  2.6960
 3253SOL     OW10657   6.502   3.897   0.624 -0.1872 -0.3276  0.9276
 3253SOL    HW110658   6.481   3.935   0.714  0.7237  0.6917  0.7188
 3253SOL    HW210659   6.459   3.952   0.553  0.6815  0.0096  0.6507
 3254SOL     OW10660   6.279   0.113   1.149  0.1838  0.3696 -0.2260
 3254SOL    HW110661   6.193   0.074   1.115  2.0055 -2.5764 -1.9151
 3254SOL    HW210662   6.277   0.115   1.249 -1.6195 -0.2133 -0.2116
 3255SOL     OW10663   4.702   5.145   2.050  0.2455  0.5231 -0.1173
 3255SOL    HW110664   4.631   5.205   2.014 -0.4582 -0.6676 -0.7866
 3255SOL    HW210665   4.749   5.099   1.974  0.6682  0.1105  0.3827
 3256SOL     OW10666   4.782   1.992   1.458 -0.0911 -0.4765 -0.1480
 3256SOL    HW110667   4.775   2.016   1.555  1.1049  0.9979 -0.3926
 3256SOL    HW210668   4.851   1.921   1.445  0.9040  0.4492 -0.0618
 3257SOL     OW10669   3.371   1.410   2.563  0.0157  1.1811 -0.1658
 3257SOL    HW110670   3.387   1.505   2.589  0.3394  0.9197  0.6250
 3257SOL    HW210671   3.361   1.404   2.464  1.1174  1.8893 -0.3433
 3258SOL     OW10672   0.081   2.959   3.833 -0.1675 -0.0019 -0.3586
 3258SOL    HW110673   0.101   3.041   3.780 -0.5341  0.4526  0.1987
 3258SOL    HW210674   0.004   2.977   3.895  0.2735 -0.5143  0.3510
 3259SOL     OW10675   5.593   5.946   3.566  0.0824 -0.5674  0.2093
 3259SOL    HW110676   5.548   6.020   3.617  0.3975 -1.8277  2.4325
 3259SOL    HW210677   5.691   5.965   3.560 -0.0885  0.0701 -0.8705
 3260SOL     OW10678   1.792   5.650   2.595 -0.3462  0.0926 -0.0882
 3260SOL    HW110679   1.747   5.594   2.526  1.8465 -2.5462  0.4692
 3260SOL    HW210680   1.756   5.627   2.685 -2.1200  2.4422 -0.0989
 3261SOL     OW10681   6.883   6.806   3.687 -0.0085 -0.0915 -0.0905
 3261SOL    HW110682   6.801   6.761   3.724  0.0580 -0.6656 -0.6231
 3261SOL    HW210683   6.943   6.737   3.647  1.3637  0.1427  1.4336
 3262SOL     OW10684   3.182   1.175   3.177 -0.0977  0.2556 -0.0452
 3262SOL    HW110685   3.187   1.122   3.262  0.8450 -0.1949 -0.3688
 3262SOL    HW210686   3.099   1.150   3.127 -0.6621  0.5274  0.7378
 3263SOL     OW10687   4.322   0.995   2.267  0.2129 -0.2891 -0.1462
 3263SOL    HW110688   4.254   0.963   2.332 -2.2603  0.9595 -1.9666
 3263SOL    HW210689   4.305   1.091   2.244  0.2499 -0.9432 -3.4074
 3264SOL     OW10690   1.281   5.494   6.037 -0.4953 -0.1470 -0.3376
 3264SOL    HW110691   1.277   5.396   6.019 -0.4949 -0.1778 -0.1713
 3264SOL    HW210692   1.375   5.525   6.026 -0.5799 -0.0708 -0.8815
 3265SOL     OW10693   0.042   0.197   5.035 -0.1228 -0.6579 -0.0506
 3265SOL    HW110694   0.040   0.247   5.122 -1.0719 -0.2852 -0.2756
 3265SOL    HW210695   0.115   0.128   5.039  1.0333  0.5373  0.3601
 3266SOL     OW10696   4.833   5.816   6.292  0.0734 -0.3645  0.1994
 3266SOL    HW110697   4.911   5.760   6.264 -0.5727 -0.5129 -1.3849
 3266SOL    HW210698   4.865   5.908   6.315  0.6991 -0.3509 -0.6638
 3267SOL     OW10699   3.390   1.407   5.052 -0.3932 -0.2195  0.1364
 3267SOL    HW110700   3.359   1.323   5.007 -1.1646  0.8802 -1.4918
 3267SOL    HW210701   3.485   1.425   5.028 -0.1218 -0.7925  0.7643
 3268SOL     OW10702   5.789   1.699   3.232  0.0946 -0.0272  0.1590
 3268SOL    HW110703   5.748   1.790   3.243  1.0805  0.4580 -0.0479
 3268SOL    HW210704   5.884   1.709   3.204  0.9151 -1.0959  2.3518
 3269SOL     OW10705   2.184   6.995   6.204  0.3299  0.3798 -0.5244
 3269SOL    HW110706   2.220   6.927   6.268 -0.7976  0.5910  0.3642
 3269SOL    HW210707   2.085   6.991   6.203  0.2846 -0.7374 -3.5201
 3270SOL     OW10708   1.177   4.749   4.645 -0.0445 -0.0040  0.6079
 3270SOL    HW110709   1.078   4.738   4.635  0.0580  0.1110 -0.7418
 3270SOL    HW210710   1.221   4.662   4.627  0.2749  0.6436 -2.0662
 3271SOL     OW10711   1.999   5.393   1.803  0.2763  0.8889 -0.1591
 3271SOL    HW110712   1.944   5.335   1.743 -0.4796  2.6421 -1.2224
 3271SOL    HW210713   2.094   5.394   1.770  0.2837  0.3622 -0.1747
 3272SOL     OW10714   2.976   1.856   2.299  0.6022 -0.3608 -0.4654
 3272SOL    HW110715   2.909   1.811   2.240  0.8600 -2.1088  0.4846
 3272SOL    HW210716   3.068   1.838   2.265  0.6593  2.3759 -2.0010
 3273SOL     OW10717   5.093   5.436   6.580 -0.6478  0.5012 -0.1389
 3273SOL    HW110718   5.181   5.403   6.614 -0.3870 -0.1628 -1.4096
 3273SOL    HW210719   5.045   5.363   6.532 -2.3317  0.5928  1.3201
 3274SOL     OW10720   6.129   1.368   1.235  0.5074  0.2525  0.0019
 3274SOL    HW110721   6.084   1.282   1.257 -1.3210  1.2980  0.6558
 3274SOL    HW210722   6.201   1.353   1.168 -1.0329 -1.5140 -1.3771
 3275SOL     OW10723   4.230   1.607   1.070 -0.2497  0.4471  0.1568
 3275SOL    HW110724   4.311   1.659   1.044  0.7310 -0.7658  0.6852
 3275SOL    HW210725   4.214   1.534   1.003  0.7457 -1.0347  1.4468
 3276SOL     OW10726   4.769   4.507   1.190 -0.1095 -0.3895  0.1178
 3276SOL    HW110727   4.714   4.425   1.199 -0.2805 -0.1178  2.0935
 3276SOL    HW210728   4.711   4.588   1.202  0.7300 -0.1110  3.0064
 3277SOL     OW10729   5.081   0.340   1.863  0.6557 -0.3606 -1.0004
 3277SOL    HW110730   4.983   0.359   1.859 -0.0449 -3.5472 -1.1122
 3277SOL    HW210731   5.129   0.421   1.897 -2.0516  1.0539 -0.2773
 3278SOL     OW10732   5.679   0.284   0.412  0.4746  0.1801  0.0742
 3278SOL    HW110733   5.698   0.203   0.356 -0.5361  1.1474 -1.7808
 3278SOL    HW210734   5.719   0.272   0.503  1.8142 -1.6563 -0.6938
 3279SOL     OW10735   3.252   6.924   2.254 -0.7159  0.5895 -0.0496
 3279SOL    HW110736   3.285   6.992   2.188 -1.3324  1.1700  0.2191
 3279SOL    HW210737   3.271   6.956   2.347  1.5257 -0.9186  0.1007
 3280SOL     OW10738   0.240   1.854   3.324  0.2036 -0.1738 -0.0090
 3280SOL    HW110739   0.186   1.842   3.407  0.2696  1.0393  0.2185
 3280SOL    HW210740   0.262   1.764   3.286 -0.5292 -0.7216  0.8219
 3281SOL     OW10741   6.612   1.627   3.424 -0.2811  0.0428  0.3051
 3281SOL    HW110742   6.530   1.673   3.390 -0.9700  0.3186  2.2309
 3281SOL    HW210743   6.630   1.546   3.368 -0.0152  1.6496 -2.0874
 3282SOL     OW10744   5.822   3.870   4.791  0.3461 -0.3087 -0.1642
 3282SOL    HW110745   5.741   3.854   4.848  0.0776  1.5623  0.0528
 3282SOL    HW210746   5.798   3.861   4.695 -0.5181  1.5486 -0.1734
 3283SOL     OW10747   4.203   0.761   1.508 -0.5653  0.4517 -0.2530
 3283SOL    HW110748   4.169   0.847   1.546  0.6936  1.3389 -1.0479
 3283SOL    HW210749   4.164   0.684   1.559 -0.4762  1.5361  1.5280
 3284SOL     OW10750   2.164   6.973   5.712 -0.2961 -0.0241 -0.8542
 3284SOL    HW110751   2.241   6.969   5.648 -1.5697 -0.1108 -2.4652
 3284SOL    HW210752   2.130   7.067   5.717 -1.6030 -0.3694 -2.1498
 3285SOL     OW10753   4.959   0.460   0.428 -0.1339 -0.0325 -0.2301
 3285SOL    HW110754   4.935   0.452   0.332  0.6682 -1.3699 -0.3459
 3285SOL    HW210755   5.057   0.443   0.440 -0.4839 -1.5275  0.9646
 3286SOL     OW10756   0.457   5.122   3.486  0.2078 -0.4673  0.5023
 3286SOL    HW110757   0.440   5.217   3.513  1.9592 -0.1837  0.7115
 3286SOL    HW210758   0.486   5.069   3.565  1.3464 -0.6338 -0.0036
 3287SOL     OW10759   3.073   2.291   1.694  0.1968  0.3815 -0.2243
 3287SOL    HW110760   3.026   2.249   1.616  2.3198 -0.8707 -0.8837
 3287SOL    HW210761   3.004   2.329   1.757 -1.6140  0.1706 -1.9713
 3288SOL     OW10762   2.945   5.795   6.742  0.5247 -0.9182 -0.0590
 3288SOL    HW110763   2.866   5.853   6.719 -0.7776 -2.6172 -0.0854
 3288SOL    HW210764   2.945   5.776   6.840  0.9994 -0.8144 -0.0359
 3289SOL     OW10765   4.663   0.156   0.996 -0.1842  0.7873  0.0945
 3289SOL    HW110766   4.700   0.248   0.993  0.6882  0.4321 -2.2771
 3289SOL    HW210767   4.675   0.118   1.088  0.5719  2.5575  0.7704
 3290SOL     OW10768   0.066   5.845   0.269  0.2073  0.3187 -0.3282
 3290SOL    HW110769   0.022   5.916   0.325 -0.7132  0.3173 -1.0299
 3290SOL    HW210770   0.163   5.866   0.260 -0.0655  1.5854 -0.6228
 3291SOL     OW10771   5.867   5.948   3.564 -0.6763 -0.1946  0.1837
 3291SOL    HW110772   5.963   5.919   3.573 -0.6249  0.5359  2.8502
 3291SOL    HW210773   5.864   6.048   3.551 -1.0501  0.2736  3.2236
 3292SOL     OW10774   1.980   3.538   1.029 -0.6895  0.6926  0.1594
 3292SOL    HW110775   2.009   3.444   1.010  2.4257  1.6004 -0.2179
 3292SOL    HW210776   1.943   3.580   0.946  1.9146  1.0210 -0.9397
 3293SOL     OW10777   1.015   5.681   2.252  0.4011  0.5185 -0.2088
 3293SOL    HW110778   0.962   5.597   2.262 -1.2596  1.6581  1.1444
 3293SOL    HW210779   0.954   5.760   2.259  1.9689  1.8654 -1.0293
 3294SOL     OW10780   4.534   3.331   5.599  0.0876 -0.4634 -0.2839
 3294SOL    HW110781   4.462   3.273   5.562  0.7428 -1.9442  0.6628
 3294SOL    HW210782   4.568   3.392   5.527  0.1963 -2.0977 -1.6794
 3295SOL     OW10783   2.255   3.914   2.053  0.0892 -0.0927  0.0922
 3295SOL    HW110784   2.210   3.825   2.051  1.9592 -1.0713 -0.2878
 3295SOL    HW210785   2.288   3.936   1.961  1.0444  0.2282  0.5023
 3296SOL     OW10786   2.910   1.111   6.429 -0.0899  0.1493  0.2394
 3296SOL    HW110787   2.900   1.058   6.345 -0.1725 -0.0680  0.3864
 3296SOL    HW210788   2.925   1.208   6.406  1.5824 -0.1445 -0.0738
 3297SOL     OW10789   2.658   6.391   5.225 -0.0695 -0.3315 -0.0607
 3297SOL    HW110790   2.590   6.324   5.255  2.2123 -2.6274  0.4071
 3297SOL    HW210791   2.727   6.402   5.296  0.6151  1.1206 -0.9096
 3298SOL     OW10792   3.259   5.074   5.494 -0.6873  0.6334  0.3839
 3298SOL    HW110793   3.306   5.150   5.449 -1.6637 -0.2465 -2.2708
 3298SOL    HW210794   3.178   5.109   5.542 -1.2286  1.2772 -0.9564
 3299SOL     OW10795   2.767   6.191   3.515  0.3286 -0.1974 -0.2008
 3299SOL    HW110796   2.722   6.258   3.574  0.4942 -1.3547  1.3192
 3299SOL    HW210797   2.698   6.138   3.465  0.1627  0.4480 -0.6574
 3300SOL     OW10798   2.813   3.071   1.744  0.1744  0.3308  0.2987
 3300SOL    HW110799   2.815   3.075   1.844  0.3184 -3.1869  0.5684
 3300SOL    HW210800   2.907   3.059   1.710  0.2123  2.2244 -0.3887
 3301SOL     OW10801   1.891   1.501   1.267 -0.2637  0.0365  0.1848
 3301SOL    HW110802   1.977   1.549   1.288 -0.4949  0.9498 -0.8896
 3301SOL    HW210803   1.835   1.497   1.350 -0.3339  1.8412  0.2670
 3302SOL     OW10804   2.238   5.802   3.324 -0.2430  0.0905  0.3529
 3302SOL    HW110805   2.196   5.717   3.355 -0.4730  0.5894  1.4668
 3302SOL    HW210806   2.169   5.874   3.322  0.0557  0.3691 -0.0931
 3303SOL     OW10807   2.492   4.744   6.133 -0.3990  0.7926 -0.6596
 3303SOL    HW110808   2.419   4.705   6.191 -0.8368  0.1281 -1.6345
 3303SOL    HW210809   2.494   4.696   6.046  0.7184  1.3261 -0.9412
 3304SOL     OW10810   3.165   3.945   0.825 -0.1026  0.2590  0.1007
 3304SOL    HW110811   3.077   3.943   0.874 -0.4813 -0.8523 -0.5739
 3304SOL    HW210812   3.235   3.984   0.884 -0.6290 -0.6890  1.4027
 3305SOL     OW10813   5.524   3.065   5.603 -0.2360 -0.0280 -0.2236
 3305SOL    HW110814   5.548   3.038   5.696 -1.7149 -0.4008  0.0850
 3305SOL    HW210815   5.429   3.097   5.601 -0.4171 -0.5633 -1.6879
 3306SOL     OW10816   2.987   0.227   1.496  0.5101 -0.3631  0.1903
 3306SOL    HW110817   3.049   0.293   1.539  1.2479 -0.6192 -0.4722
 3306SOL    HW210818   2.986   0.241   1.397 -0.3717 -0.4717  0.1737
 3307SOL     OW10819   0.609   0.998   5.423 -0.6683 -0.0511  0.1229
 3307SOL    HW110820   0.588   1.031   5.330 -1.6313  1.2558  0.7728
 3307SOL    HW210821   0.525   0.990   5.475 -0.0566 -0.0656  1.1279
 3308SOL     OW10822   5.167   3.395   2.358  0.0202  0.9200  0.0168
 3308SOL    HW110823   5.264   3.406   2.339  0.0655 -0.8714 -0.9845
 3308SOL    HW210824   5.113   3.442   2.289  0.1933  0.5439 -0.3795
 3309SOL     OW10825   5.705   2.407   3.560  0.4726 -0.1148 -0.2654
 3309SOL    HW110826   5.635   2.346   3.522  0.5798  1.4667 -3.3067
 3309SOL    HW210827   5.665   2.462   3.633 -0.6450 -1.2058 -0.0229
 3310SOL     OW10828   5.576   5.466   6.816  0.3669 -0.3709 -0.8289
 3310SOL    HW110829   5.662   5.436   6.859 -1.0386 -0.3311  2.2440
 3310SOL    HW210830   5.554   5.558   6.848 -1.4984 -0.9209 -0.4493
 3311SOL     OW10831   2.293   4.717   0.789  0.4068  0.5141  0.0336
 3311SOL    HW110832   2.253   4.625   0.784  0.7558  0.3001  0.8744
 3311SOL    HW210833   2.392   4.709   0.803  0.4252  1.0149  0.2034
 3312SOL     OW10834   4.357   4.377   0.579 -1.0444  0.5915  0.4533
 3312SOL    HW110835   4.310   4.463   0.559  0.4882  0.8439 -2.6165
 3312SOL    HW210836   4.449   4.396   0.614 -0.2430  0.3238 -1.3681
 3313SOL     OW10837   6.943   5.860   3.540 -0.1986  0.1076  0.2985
 3313SOL    HW110838   6.852   5.854   3.499 -0.5048 -0.9387  1.1036
 3313SOL    HW210839   6.970   5.957   3.547 -1.9561  0.5545  1.5566
 3314SOL     OW10840   4.730   4.105   2.959  0.3248  0.1706  0.6565
 3314SOL    HW110841   4.710   4.040   2.885  1.8545 -2.7129  2.5503
 3314SOL    HW210842   4.829   4.112   2.971  0.3534  4.2830 -0.4602
 3315SOL     OW10843   6.504   6.536   4.614  0.2758  0.5030  0.3051
 3315SOL    HW110844   6.433   6.565   4.551 -0.2394  0.4532  0.8508
 3315SOL    HW210845   6.509   6.436   4.616 -1.2026  0.3981  1.9091
 3316SOL     OW10846   5.054   0.694   1.360  0.0494  0.1668 -0.5852
 3316SOL    HW110847   5.007   0.769   1.407  0.2042  0.0425 -0.2245
 3316SOL    HW210848   5.153   0.713   1.358 -0.0194  0.4863 -1.4449
 3317SOL     OW10849   6.860   3.168   1.717 -0.5825  0.3731  0.1633
 3317SOL    HW110850   6.890   3.100   1.784 -1.8950 -0.6716 -0.2520
 3317SOL    HW210851   6.907   3.152   1.630  0.3028  1.0362  0.5044
 3318SOL     OW10852   5.331   3.906   0.509 -0.0461  0.0388  0.7479
 3318SOL    HW110853   5.283   3.899   0.422  0.4334  0.5547  0.4344
 3318SOL    HW210854   5.268   3.937   0.580 -1.0072 -2.4579  1.1040
 3319SOL     OW10855   5.137   6.277   2.578  0.7348  0.4335 -0.6795
 3319SOL    HW110856   5.234   6.258   2.595  0.1306 -1.0754  1.5513
 3319SOL    HW210857   5.107   6.354   2.633  0.4486  0.2829 -0.6187
 3320SOL     OW10858   6.982   0.368   3.537 -0.0084  0.6594  0.0695
 3320SOL    HW110859   7.076   0.391   3.511 -0.2762 -0.2254 -1.8644
 3320SOL    HW210860   6.980   0.338   3.632  1.7773  0.1595 -0.0138
 3321SOL     OW10861   5.069   0.952   6.498 -0.5864  0.4268  0.3119
 3321SOL    HW110862   5.115   0.869   6.468 -0.1400  1.2362 -1.3888
 3321SOL    HW210863   5.066   0.955   6.598  2.1632 -0.1408  0.4785
 3322SOL     OW10864   0.721   4.216   2.136 -0.1086 -0.6788  0.0722
 3322SOL    HW110865   0.715   4.297   2.077  0.8118 -0.6292  0.0312
 3322SOL    HW210866   0.817   4.200   2.161  0.0914 -3.0315 -1.7376
 3323SOL     OW10867   6.824   0.361   1.898 -0.2577  0.0200  0.6646
 3323SOL    HW110868   6.787   0.416   1.823  0.2817  1.8031  1.6559
 3323SOL    HW210869   6.908   0.404   1.933 -0.2444 -1.0252  1.9963
 3324SOL     OW10870   5.916   5.260   6.343 -0.1048  0.0745 -0.2598
 3324SOL    HW110871   6.011   5.246   6.373 -0.0950  1.7038  0.5768
 3324SOL    HW210872   5.859   5.279   6.423 -1.0759 -0.4747 -0.8075
 3325SOL     OW10873   2.907   4.262   5.515  0.0245  0.2224 -0.3662
 3325SOL    HW110874   2.902   4.326   5.592  2.3666 -0.5948  0.5610
 3325SOL    HW210875   2.904   4.168   5.550  0.1547 -0.1664 -1.3607
 3326SOL     OW10876   4.174   6.111   2.928  0.0888 -0.5368  0.4050
 3326SOL    HW110877   4.250   6.121   2.863  0.0225 -3.2850 -0.2058
 3326SOL    HW210878   4.090   6.145   2.886  0.3670 -0.6320 -0.2402
 3327SOL     OW10879   0.270   6.151   6.014 -0.1128  0.2571  0.1168
 3327SOL    HW110880   0.186   6.101   6.035  0.0950 -0.2708 -0.3097
 3327SOL    HW210881   0.324   6.162   6.098  0.5520 -1.5567 -0.0276
 3328SOL     OW10882   4.588   3.463   6.295  0.0804 -0.5496  0.0036
 3328SOL    HW110883   4.685   3.471   6.272  0.0765 -1.8228 -0.5199
 3328SOL    HW210884   4.549   3.384   6.248 -0.9976 -0.6063  0.9607
 3329SOL     OW10885   1.258   5.215   5.940 -0.1913 -0.0141  0.3129
 3329SOL    HW110886   1.285   5.137   5.997  0.0328 -1.2588 -1.4259
 3329SOL    HW210887   1.167   5.199   5.903  0.0341  0.3412 -0.4020
 3330SOL     OW10888   6.938   3.612   3.732 -0.3227 -0.2793  0.1465
 3330SOL    HW110889   6.980   3.536   3.783  1.2176  0.4132 -0.0464
 3330SOL    HW210890   6.840   3.616   3.754 -0.1919 -1.5445  1.1072
 3331SOL     OW10891   2.123   3.210   1.908 -0.1643  0.2588 -0.4063
 3331SOL    HW110892   2.163   3.300   1.926  1.3574 -0.2625 -1.0248
 3331SOL    HW210893   2.090   3.207   1.813 -3.6976  1.3751  0.6543
 3332SOL     OW10894   1.395   3.031   2.311  0.1935  0.4955  0.5615
 3332SOL    HW110895   1.478   2.976   2.304 -0.3419 -0.5603  1.9600
 3332SOL    HW210896   1.316   2.975   2.287 -0.1065  1.7275 -1.6237
 3333SOL     OW10897   3.564   0.033   4.919 -0.1208 -0.3552  0.4142
 3333SOL    HW110898   3.519   0.017   4.831  0.1312 -0.2282  0.2623
 3333SOL    HW210899   3.640   0.096   4.906 -0.3758  0.0365  0.8053
 3334SOL     OW10900   1.419   1.732   1.243 -0.2702  0.0582  0.7140
 3334SOL    HW110901   1.449   1.758   1.152  0.5726  2.3699  1.5696
 3334SOL    HW210902   1.471   1.652   1.274  0.5441  0.2091 -0.2241
 3335SOL     OW10903   5.237   3.648   6.178 -0.1128 -0.7331 -0.5137
 3335SOL    HW110904   5.155   3.706   6.177  0.6073  0.3243 -0.9423
 3335SOL    HW210905   5.220   3.567   6.234 -1.2053 -0.1759  0.0033
 3336SOL     OW10906   2.739   5.273   5.173 -0.8530  0.5954 -0.7550
 3336SOL    HW110907   2.786   5.315   5.096 -1.5505  1.8059 -0.5457
 3336SOL    HW210908   2.766   5.318   5.258 -2.7894  1.7560 -0.6868
 3337SOL     OW10909   2.994   6.829   2.281  0.0979 -0.1052  0.4856
 3337SOL    HW110910   2.967   6.824   2.377  1.1687 -0.6918  0.7806
 3337SOL    HW210911   3.092   6.850   2.275 -0.0449  0.3267 -0.4847
 3338SOL     OW10912   6.562   6.748   0.983  0.4747  0.6119  0.3058
 3338SOL    HW110913   6.526   6.654   0.985  0.7441  0.5126  0.6200
 3338SOL    HW210914   6.567   6.779   0.888 -1.3969  1.0066  0.2881
 3339SOL     OW10915   1.527   3.890   0.123  0.6574  0.1020  0.1188
 3339SOL    HW110916   1.535   3.971   0.066  0.4946  0.8577  1.1320
 3339SOL    HW210917   1.441   3.843   0.103  0.6502  0.3055 -0.3230
 3340SOL     OW10918   4.378   6.568   2.530 -0.4133  0.3417 -0.4554
 3340SOL    HW110919   4.365   6.619   2.445 -0.3858  0.7432 -0.2227
 3340SOL    HW210920   4.476   6.559   2.549 -0.4163  0.1175 -0.5475
 3341SOL     OW10921   0.785   0.059   5.560 -0.1277 -0.2728 -0.4202
 3341SOL    HW110922   0.786   0.055   5.460  0.4895 -0.3413 -0.4101
 3341SOL    HW210923   0.762  -0.031   5.597  1.0338 -0.5985 -0.4731
 3342SOL     OW10924   1.136   6.112   3.498 -0.1193 -0.0746 -0.3777
 3342SOL    HW110925   1.057   6.174   3.490  0.0555  0.1116 -0.6624
 3342SOL    HW210926   1.211   6.160   3.544 -0.7624 -0.8055  1.5402
 3343SOL     OW10927   1.813   3.184   1.509 -0.2041  0.2038 -0.1674
 3343SOL    HW110928   1.809   3.100   1.562  0.7344 -0.9719 -1.8379
 3343SOL    HW210929   1.859   3.255   1.562  0.8873 -0.9857  0.5370
 3344SOL     OW10930   0.159   2.868   0.259  0.4351  0.0362  0.1174
 3344SOL    HW110931   0.133   2.943   0.198 -0.1408 -0.3799 -0.1601
 3344SOL    HW210932   0.237   2.896   0.315  1.6016  0.1142 -1.4647
 3345SOL     OW10933   3.433   2.416   6.106 -0.5284  0.5011  0.2961
 3345SOL    HW110934   3.352   2.411   6.164 -1.0755 -0.1300 -0.5070
 3345SOL    HW210935   3.409   2.456   6.018 -0.4645 -1.6427 -0.7540
 3346SOL     OW10936   4.234   5.636   3.239  0.4076  0.1326 -0.0756
 3346SOL    HW110937   4.289   5.622   3.156  0.6055 -0.3608  0.1338
 3346SOL    HW210938   4.185   5.723   3.233 -0.6730 -0.5141 -1.3376
 3347SOL     OW10939   5.345   2.885   3.189  0.2277  0.3353  0.6021
 3347SOL    HW110940   5.405   2.809   3.166 -2.4239 -1.2204 -1.8388
 3347SOL    HW210941   5.262   2.850   3.233 -1.2559  1.6758 -0.9624
 3348SOL     OW10942   3.333   2.849   2.174 -0.4053 -0.4145 -0.2645
 3348SOL    HW110943   3.366   2.940   2.197 -1.0645 -0.8149  2.6315
 3348SOL    HW210944   3.248   2.831   2.223 -2.8425 -0.9784 -4.2738
 3349SOL     OW10945   5.698   3.506   0.971 -0.1050 -0.2476 -0.2409
 3349SOL    HW110946   5.635   3.487   0.896  0.6394 -0.3748 -0.8512
 3349SOL    HW210947   5.792   3.485   0.942  0.1674 -0.6062  0.8265
 3350SOL     OW10948   0.802   1.662   2.167  0.2692 -0.3632  0.0794
 3350SOL    HW110949   0.777   1.742   2.221 -0.5856 -1.9530  2.2071
 3350SOL    HW210950   0.879   1.685   2.107  0.7911  1.7286  1.4227
 3351SOL     OW10951   4.095   3.025   1.364 -0.1332  0.8123  0.0390
 3351SOL    HW110952   4.182   2.980   1.383  0.3712  2.3606  1.6505
 3351SOL    HW210953   4.110   3.096   1.294 -0.0820  1.0994  0.3390
 3352SOL     OW10954   2.294   4.939   0.954 -0.0274  0.3446 -0.0379
 3352SOL    HW110955   2.278   4.860   0.894  1.1948  0.6921 -0.8768
 3352SOL    HW210956   2.207   4.980   0.981 -0.6216 -0.1848 -1.0985
 3353SOL     OW10957   6.974   5.211   6.476 -0.0870 -0.1358 -0.0322
 3353SOL    HW110958   6.990   5.309   6.471  0.0681  0.1665  3.9131
 3353SOL    HW210959   6.886   5.192   6.519 -0.1114 -1.7677 -0.6959
 3354SOL     OW10960   1.322   3.859   2.413  0.0916  0.3714  0.0166
 3354SOL    HW110961   1.298   3.952   2.388 -1.5698 -0.4174 -1.5878
 3354SOL    HW210962   1.297   3.842   2.508 -2.4718  0.6964 -0.5453
 3355SOL     OW10963   6.060   2.509   4.632 -0.5066 -0.3322 -0.1895
 3355SOL    HW110964   6.102   2.572   4.567 -0.2706 -1.3052 -1.0021
 3355SOL    HW210965   6.109   2.513   4.719 -1.4580  1.7407  0.3077
 3356SOL     OW10966   2.128   4.607   1.449  0.2005 -0.1809 -0.1821
 3356SOL    HW110967   2.167   4.619   1.358  0.2036  1.1334 -0.0270
 3356SOL    HW210968   2.194   4.637   1.518 -0.2775  0.0417  0.1868
 3357SOL     OW10969   0.165   6.228   2.014 -0.3182 -0.0874  0.5788
 3357SOL    HW110970   0.226   6.206   1.938 -0.5342  1.1326  0.0133
 3357SOL    HW210971   0.076   6.185   2.000 -0.1605 -0.3675  0.4470
 3358SOL     OW10972   6.569   5.020   4.191  0.3013  0.0096 -0.2465
 3358SOL    HW110973   6.485   5.047   4.143  0.4203 -1.3375 -1.2732
 3358SOL    HW210974   6.584   4.922   4.177  1.6665  0.0978  0.5349
 3359SOL     OW10975   6.999   6.327   1.782 -0.4704 -0.1095 -0.1690
 3359SOL    HW110976   6.981   6.235   1.819 -0.5133  0.5284  1.4664
 3359SOL    HW210977   7.082   6.364   1.824 -0.1166  0.3851 -1.2685
 3360SOL     OW10978   1.911   6.983   6.326  0.3137  0.3522  0.1193
 3360SOL    HW110979   1.922   6.887   6.350  2.0377  0.6589  0.6523
 3360SOL    HW210980   1.922   7.040   6.407  0.5513  1.0639 -0.3995
 3361SOL     OW10981   3.060   6.741   2.723 -0.1836 -0.0722 -0.0324
 3361SOL    HW110982   3.072   6.830   2.765  1.1936 -0.2559  0.0053
 3361SOL    HW210983   2.996   6.748   2.646 -0.8979  0.7191  0.6197
 3362SOL     OW10984   4.543   2.052   3.694  0.0473 -0.1533  0.0946
 3362SOL    HW110985   4.619   1.987   3.691  0.1269 -0.0470 -0.4068
 3362SOL    HW210986   4.513   2.071   3.600  2.3149  3.2024 -0.0988
 3363SOL     OW10987   5.796   0.977   0.301 -0.7299 -0.2215  0.0336
 3363SOL    HW110988   5.779   1.066   0.343 -0.7618  0.9148 -2.2549
 3363SOL    HW210989   5.855   0.923   0.360 -2.5535  0.3704  2.5776
 3364SOL     OW10990   1.419   5.009   4.406  0.0634  0.3120  0.2245
 3364SOL    HW110991   1.341   4.961   4.366  0.5710 -0.6219  0.3382
 3364SOL    HW210992   1.394   5.041   4.498 -0.7444  1.5313 -0.3888
 3365SOL     OW10993   6.625   3.102   4.532  0.0894  0.3173  0.0720
 3365SOL    HW110994   6.563   3.181   4.535 -0.2372  0.0992 -0.7285
 3365SOL    HW210995   6.669   3.091   4.621 -0.7072  0.7240  0.5289
 3366SOL     OW10996   5.800   0.958   1.737  0.1950 -0.1730  0.1266
 3366SOL    HW110997   5.805   0.892   1.812  2.0942  0.6466  0.7707
 3366SOL    HW210998   5.704   0.978   1.717 -0.3986  0.4899  3.1438
 3367SOL     OW10999   3.152   4.139   6.624  0.3073  0.4778 -0.0048
 3367SOL    HW111000   3.185   4.159   6.532  0.5272 -0.5206 -0.1571
 3367SOL    HW211001   3.203   4.061   6.661 -0.4812  0.2272  0.5682
 3368SOL     OW11002   0.565   1.550   2.087  0.3167  0.6745 -0.0475
 3368SOL    HW111003   0.661   1.551   2.116  0.4977  1.1947 -0.6448
 3368SOL    HW211004   0.520   1.633   2.119  0.0522  0.4243  0.2453
 3369SOL     OW11005   4.550   4.708   1.217 -0.0373  0.0231  0.1683
 3369SOL    HW111006   4.501   4.721   1.303 -1.1971  0.3479 -0.5187
 3369SOL    HW211007   4.519   4.623   1.174  1.4252 -0.7777  0.6358
 3370SOL     OW11008   5.471   2.376   0.455  0.1503 -0.1015 -0.1948
 3370SOL    HW111009   5.455   2.463   0.409  2.7107  0.2452 -0.5727
 3370SOL    HW211010   5.491   2.305   0.388  2.3297  0.0486  0.2087
 3371SOL     OW11011   0.581   4.639   2.013 -0.6569  0.2781  0.3300
 3371SOL    HW111012   0.538   4.668   1.928 -0.6944 -1.2925 -0.2274
 3371SOL    HW211013   0.675   4.609   1.995 -0.8787 -0.6928  0.6856
 3372SOL     OW11014   1.448   4.084   2.579 -0.0287 -0.1155 -0.7168
 3372SOL    HW111015   1.371   4.136   2.541 -0.4664 -1.8673 -2.3819
 3372SOL    HW211016   1.518   4.148   2.611 -0.9120  1.5072 -1.8411
 3373SOL     OW11017   0.777   3.267   4.796  0.1341 -0.2823  0.0575
 3373SOL    HW111018   0.830   3.192   4.836 -1.3148 -0.7066  1.3053
 3373SOL    HW211019   0.786   3.348   4.854  0.3437  0.0060 -0.3712
 3374SOL     OW11020   3.670   0.068   5.274 -0.3348  0.3565  0.4733
 3374SOL    HW111021   3.680   0.002   5.348  0.5836 -0.4175 -0.3221
 3374SOL    HW211022   3.658   0.020   5.187 -0.6732  1.2464  0.0138
 3375SOL     OW11023   3.060   3.748   4.781  0.1881  0.5618 -0.3095
 3375SOL    HW111024   3.157   3.760   4.801  0.3338 -1.2794  0.2827
 3375SOL    HW211025   3.010   3.827   4.814  1.6654  2.4997 -2.4334
 3376SOL     OW11026   4.442   2.644   1.603 -0.1054  0.0435 -0.0576
 3376SOL    HW111027   4.435   2.733   1.648  0.8049 -0.7175  1.7371
 3376SOL    HW211028   4.539   2.623   1.585 -0.0525 -1.4981  1.6538
 3377SOL     OW11029   2.789   4.069   6.502 -0.0825  0.3103 -0.3481
 3377SOL    HW111030   2.754   4.148   6.553 -1.8189  0.8273 -2.2292
 3377SOL    HW211031   2.718   3.999   6.498  0.9906 -0.8443  0.1782
 3378SOL     OW11032   6.589   1.267   6.559 -0.3018 -0.8980 -0.1752
 3378SOL    HW111033   6.668   1.282   6.500 -0.1185  2.2574  0.6932
 3378SOL    HW211034   6.619   1.262   6.654 -1.1134  0.8453  0.2147
 3379SOL     OW11035   5.749   5.789   3.273  0.2361  0.0457 -0.6035
 3379SOL    HW111036   5.817   5.799   3.200  0.7106  0.3760 -0.1225
 3379SOL    HW211037   5.679   5.861   3.262  1.4833  1.5008  0.5098
 3380SOL     OW11038   1.064   5.964   4.544  0.1094  0.0693 -0.0679
 3380SOL    HW111039   1.094   5.903   4.618  0.0619 -1.0997 -0.9775
 3380SOL    HW211040   1.143   6.015   4.509  0.0823  0.8499  0.9615
 3381SOL     OW11041   2.823   1.137   0.555 -0.6758  0.4927 -0.2043
 3381SOL    HW111042   2.732   1.125   0.514 -0.1874  1.8239 -1.7718
 3381SOL    HW211043   2.813   1.169   0.649 -1.8192 -1.9282  0.5877
 3382SOL     OW11044   6.828   6.592   1.300 -0.4818 -0.1894  0.0843
 3382SOL    HW111045   6.826   6.578   1.399 -0.7873 -0.8355 -0.0098
 3382SOL    HW211046   6.799   6.509   1.253 -1.0128  0.3348 -0.5405
 3383SOL     OW11047   1.343   4.676   1.289  0.7479  0.1614  0.2067
 3383SOL    HW111048   1.330   4.592   1.236  0.4821  1.2216 -1.4890
 3383SOL    HW211049   1.383   4.653   1.378  1.5945 -1.6505 -0.5851
 3384SOL     OW11050   3.518   3.844   4.356  0.2835 -0.0969 -0.0089
 3384SOL    HW111051   3.471   3.771   4.307 -1.6540 -0.3254  2.0014
 3384SOL    HW211052   3.488   3.933   4.320  1.6781 -0.2242 -1.6027
 3385SOL     OW11053   0.952   2.807   2.740 -0.0568  0.0125  0.5753
 3385SOL    HW111054   1.026   2.863   2.703 -0.4623 -1.1159 -2.2058
 3385SOL    HW211055   0.978   2.774   2.831  1.6627  1.7924  0.8126
 3386SOL     OW11056   5.668   4.478   2.300  0.1998  0.3483 -0.1020
 3386SOL    HW111057   5.730   4.400   2.310 -1.4858 -0.9474  0.5877
 3386SOL    HW211058   5.609   4.464   2.220  1.3601  2.0388 -1.3507
 3387SOL     OW11059   2.533   1.349   2.168  0.0199 -0.0977  0.1286
 3387SOL    HW111060   2.526   1.377   2.263 -0.3079 -2.8116  0.9698
 3387SOL    HW211061   2.589   1.267   2.161 -0.4048 -0.2712 -1.9750
 3388SOL     OW11062   3.363   1.615   2.776  0.4426  0.6023  0.2412
 3388SOL    HW111063   3.264   1.624   2.785  0.6226  0.8317  2.6049
 3388SOL    HW211064   3.396   1.541   2.834  1.7052  0.6572 -0.3551
 3389SOL     OW11065   3.769   4.189   1.579 -0.1013  0.1482 -0.7420
 3389SOL    HW111066   3.732   4.166   1.489  0.8430  1.2342 -1.4299
 3389SOL    HW211067   3.694   4.217   1.639 -1.1724 -3.3224 -0.2069
 3390SOL     OW11068   3.696   2.847   6.473 -0.2442  0.3884  0.1361
 3390SOL    HW111069   3.663   2.823   6.564 -0.7022 -1.0484 -0.3715
 3390SOL    HW211070   3.730   2.764   6.428  1.6991  1.3721 -0.3269
 3391SOL     OW11071   2.695   1.433   4.699  0.1194  0.6115 -0.5648
 3391SOL    HW111072   2.676   1.508   4.763 -1.0636 -0.4968  0.4374
 3391SOL    HW211073   2.794   1.429   4.682  0.2080  2.3986 -0.6728
 3392SOL     OW11074   6.148   6.762   6.447 -0.4524  0.0750 -0.0370
 3392SOL    HW111075   6.056   6.737   6.416 -0.1046  0.8696 -1.8860
 3392SOL    HW211076   6.211   6.760   6.369  1.1339 -0.5334  1.2099
 3393SOL     OW11077   6.584   1.751   0.889 -0.2602 -0.1824 -0.2416
 3393SOL    HW111078   6.658   1.724   0.950 -0.3724 -0.6901 -0.3305
 3393SOL    HW211079   6.515   1.801   0.940 -0.2564 -0.4317  0.0075
 3394SOL     OW11080   6.136   6.669   1.948  0.1023  0.2840 -0.1820
 3394SOL    HW111081   6.169   6.639   1.858  1.2604  2.0084 -0.3673
 3394SOL    HW211082   6.051   6.721   1.936 -0.0647  0.0122 -0.2007
 3395SOL     OW11083   0.601   3.562   4.914 -0.2363 -0.3232  0.4836
 3395SOL    HW111084   0.697   3.535   4.906 -0.6417 -2.0332  0.9142
 3395SOL    HW211085   0.582   3.588   5.009  0.1996  1.8328  0.0316
 3396SOL     OW11086   5.824   4.535   4.770  0.1392  0.7579  0.5911
 3396SOL    HW111087   5.833   4.623   4.723 -1.5212  0.9956  0.6768
 3396SOL    HW211088   5.744   4.486   4.735  0.9592 -0.6772  0.6465
 3397SOL     OW11089   1.650   0.269   3.815  0.3092 -0.5081 -0.2287
 3397SOL    HW111090   1.589   0.209   3.867 -1.8047  2.6216  1.1418
 3397SOL    HW211091   1.603   0.354   3.792  3.7657  1.6169 -0.1904
 3398SOL     OW11092   1.029   2.049   3.795 -0.0236  0.1372 -0.1523
 3398SOL    HW111093   1.046   2.031   3.698 -0.2167 -0.9380 -0.0050
 3398SOL    HW211094   0.943   2.098   3.806  0.0292  0.3183 -0.5270
 3399SOL     OW11095   4.880   3.884   3.116 -0.5069  0.1335 -0.0392
 3399SOL    HW111096   4.837   3.876   3.026 -2.1945 -0.2341  0.7636
 3399SOL    HW211097   4.833   3.953   3.170  1.8703  1.9724 -0.1443
 3400SOL     OW11098   5.083   2.445   1.481 -0.0362 -0.1626 -0.0171
 3400SOL    HW111099   5.079   2.540   1.449 -0.5918 -0.2433 -0.2096
 3400SOL    HW211100   5.036   2.437   1.569  0.3752 -0.1825  0.2026
 3401SOL     OW11101   5.797   5.138   6.858  0.1176  0.6439 -0.0985
 3401SOL    HW111102   5.897   5.133   6.857  0.0773 -0.2112 -0.6348
 3401SOL    HW211103   5.767   5.181   6.943  0.8775 -0.9028  0.9894
 3402SOL     OW11104   4.004   4.982   2.252  0.1837  0.1471  0.4445
 3402SOL    HW111105   3.929   5.049   2.252 -0.3918 -0.4620  1.4688
 3402SOL    HW211106   4.002   4.931   2.166 -1.5316 -0.8329  0.9929
 3403SOL     OW11107   4.405   2.022   5.784 -0.1786 -0.1878 -0.0823
 3403SOL    HW111108   4.465   1.955   5.827  0.1589 -0.0352 -0.3062
 3403SOL    HW211109   4.461   2.094   5.742 -0.4074 -1.0769 -2.0325
 3404SOL     OW11110   3.172   5.617   2.375 -0.2760  0.4930 -0.0993
 3404SOL    HW111111   3.122   5.535   2.404  0.7449 -0.2730 -0.4713
 3404SOL    HW211112   3.249   5.633   2.437 -1.3923  2.1434  0.9647
 3405SOL     OW11113   5.888   4.344   0.801 -0.1662  0.2136  0.4146
 3405SOL    HW111114   5.885   4.371   0.897 -1.0128  2.8413 -0.2756
 3405SOL    HW211115   5.830   4.404   0.747 -0.3484 -1.6952 -1.6812
 3406SOL     OW11116   1.752   3.463   3.315 -0.4486  0.3200 -0.2432
 3406SOL    HW111117   1.771   3.370   3.281 -1.2093 -0.1099  0.4654
 3406SOL    HW211118   1.760   3.464   3.414  0.2850  1.2063 -0.3057
 3407SOL     OW11119   0.692   3.793   2.523  0.4044 -0.2124  0.5873
 3407SOL    HW111120   0.716   3.859   2.593  1.4615  2.2889 -1.9625
 3407SOL    HW211121   0.594   3.773   2.528 -0.1848  2.4271  0.8088
 3408SOL     OW11122   6.045   2.337   2.068  0.1980  0.2004 -0.3188
 3408SOL    HW111123   5.969   2.360   2.128 -0.5668 -1.9290 -0.3951
 3408SOL    HW211124   6.033   2.383   1.979 -1.2396 -0.4344 -0.4709
 3409SOL     OW11125   4.265   0.720   6.369  0.0673  0.0704 -0.0289
 3409SOL    HW111126   4.175   0.762   6.355 -0.2630  0.1382  2.0271
 3409SOL    HW211127   4.253   0.625   6.396  0.4199  0.6909  2.6237
 3410SOL     OW11128   2.277   2.486   6.575 -0.7095  0.3232 -0.1992
 3410SOL    HW111129   2.218   2.565   6.556 -0.5550  0.3404 -0.6198
 3410SOL    HW211130   2.222   2.403   6.579 -1.2721  0.7432  2.7954
 3411SOL     OW11131   5.417   0.579   3.025 -0.0157  0.1990 -0.4634
 3411SOL    HW111132   5.497   0.592   2.966  2.5539 -1.2167  2.4612
 3411SOL    HW211133   5.356   0.512   2.983  1.4306 -0.3534 -1.7873
 3412SOL     OW11134   2.960   5.759   5.159  0.7919 -0.2677 -0.5155
 3412SOL    HW111135   2.913   5.727   5.077  0.0153 -0.0367 -0.1631
 3412SOL    HW211136   2.919   5.716   5.240  1.1273  0.0036 -0.1992
 3413SOL     OW11137   4.513   1.256   3.798  0.2212  0.5643 -0.2159
 3413SOL    HW111138   4.426   1.223   3.835  1.0009  0.5114  1.6857
 3413SOL    HW211139   4.548   1.190   3.732 -0.0669 -0.5828  0.7363
 3414SOL     OW11140   3.130   0.339   4.343  0.7340 -0.1339  0.1436
 3414SOL    HW111141   3.141   0.253   4.392 -0.6101  0.3551  1.4026
 3414SOL    HW211142   3.188   0.409   4.385 -0.4799  0.3062  1.1836
 3415SOL     OW11143   2.185   4.907   5.672 -0.2131 -0.7279  0.4193
 3415SOL    HW111144   2.136   4.932   5.588  0.9127  0.4811  0.0800
 3415SOL    HW211145   2.220   4.814   5.663 -0.9926 -0.9930 -0.0123
 3416SOL     OW11146   1.831   5.312   5.443 -0.1760 -0.5733  0.4932
 3416SOL    HW111147   1.889   5.275   5.515  0.3484 -1.2593 -0.2673
 3416SOL    HW211148   1.888   5.343   5.367 -0.7895 -1.1032 -0.1938
 3417SOL     OW11149   5.553   2.596   2.161 -0.2293 -0.1685 -0.8275
 3417SOL    HW111150   5.537   2.548   2.247 -0.8766  1.7456  0.1933
 3417SOL    HW211151   5.597   2.684   2.180 -0.1085  0.1689 -2.4974
 3418SOL     OW11152   1.921   3.789   4.062  0.0265  0.1650 -0.1352
 3418SOL    HW111153   1.902   3.886   4.051 -2.4407 -0.2725 -0.4848
 3418SOL    HW211154   1.835   3.741   4.080  0.9804 -2.1391 -1.3515
 3419SOL     OW11155   3.415   3.591   5.982  0.0654  0.2538 -0.0495
 3419SOL    HW111156   3.388   3.645   6.062  2.0048  1.5579 -0.2073
 3419SOL    HW211157   3.457   3.506   6.011 -1.4317 -0.4203  0.2358
 3420SOL     OW11158   1.898   0.220   4.748  0.0110 -0.1847  0.0157
 3420SOL    HW111159   1.978   0.182   4.795  0.9290  0.0050 -1.3269
 3420SOL    HW211160   1.852   0.286   4.807  0.8372 -0.3039  0.8097
 3421SOL     OW11161   0.889   1.222   1.075  0.3610 -0.6012 -0.1852
 3421SOL    HW111162   0.906   1.314   1.039  0.7450 -0.1584  1.0730
 3421SOL    HW211163   0.791   1.202   1.070 -0.2237  1.1112  2.2240
 3422SOL     OW11164   2.266   0.748   3.728  0.3506  0.6460 -0.5272
 3422SOL    HW111165   2.251   0.665   3.783  4.7469 -1.3389 -1.8083
 3422SOL    HW211166   2.319   0.814   3.781  0.7316  0.6686 -0.9312
 3423SOL     OW11167   2.598   0.095   1.501  0.3604  0.1970  0.4273
 3423SOL    HW111168   2.611   0.156   1.424  0.8619  0.7480  0.9387
 3423SOL    HW211169   2.657   0.014   1.491 -0.6620 -0.4554 -0.4902
 3424SOL     OW11170   4.464   2.947   0.444  0.9688  0.2746  0.9236
 3424SOL    HW111171   4.506   2.927   0.533  1.5258  0.7690  0.7752
 3424SOL    HW211172   4.495   3.037   0.412 -2.0290  1.8248  1.9483
 3425SOL     OW11173   3.915   3.873   3.500 -0.0495 -0.2655 -0.0830
 3425SOL    HW111174   3.887   3.960   3.541 -1.9332 -0.4390 -0.9244
 3425SOL    HW211175   4.006   3.848   3.534  0.5893  2.0782  0.0823
 3426SOL     OW11176   6.654   2.856   1.897  0.4417 -0.3632 -0.6675
 3426SOL    HW111177   6.729   2.893   1.842  0.5324 -1.3782 -1.2508
 3426SOL    HW211178   6.629   2.765   1.863 -0.5078 -0.3855  0.0365
 3427SOL     OW11179   2.383   4.200   1.651 -0.0496  0.2561  0.7884
 3427SOL    HW111180   2.468   4.237   1.612  0.3709  0.0112  1.4377
 3427SOL    HW211181   2.304   4.245   1.609  0.3907  0.2425 -0.0750
 3428SOL     OW11182   4.552   5.496   2.203  0.6502 -0.2863 -0.1195
 3428SOL    HW111183   4.502   5.582   2.216 -0.2965 -0.9558  0.7172
 3428SOL    HW211184   4.524   5.429   2.271 -0.2459 -2.0039 -2.0651
 3429SOL     OW11185   4.759   4.081   1.402  0.0075 -0.1707 -0.6063
 3429SOL    HW111186   4.841   4.025   1.411 -0.2831 -0.4079  0.9145
 3429SOL    HW211187   4.735   4.118   1.492  0.8366  3.3432 -1.6840
 3430SOL     OW11188   1.427   3.178   5.766  0.2909 -0.6344 -0.0574
 3430SOL    HW111189   1.382   3.161   5.854  1.9368  0.1199  0.9805
 3430SOL    HW211190   1.414   3.274   5.740 -0.8892 -1.0439 -1.0897
 3431SOL     OW11191   0.296   6.684   0.690 -0.2258 -0.0729 -0.6074
 3431SOL    HW111192   0.287   6.780   0.663  1.1782  0.5374  0.8975
 3431SOL    HW211193   0.208   6.638   0.680 -1.8725  2.2332  1.7232
 3432SOL     OW11194   4.133   0.793   6.820 -0.0923  0.5612 -0.7592
 3432SOL    HW111195   4.199   0.819   6.750  0.5865 -3.1482 -1.6862
 3432SOL    HW211196   4.046   0.770   6.777 -0.2062 -0.0918 -0.1968
 3433SOL     OW11197   3.627   1.431   4.963 -0.0266  0.2808  0.0347
 3433SOL    HW111198   3.622   1.498   4.889  0.2834  1.0664  0.7043
 3433SOL    HW211199   3.640   1.339   4.924 -0.6438  0.5762 -0.9020
 3434SOL     OW11200   3.262   0.189   3.671 -0.0559 -0.2695  0.1312
 3434SOL    HW111201   3.171   0.198   3.711  0.4573  1.1804  1.0496
 3434SOL    HW211202   3.301   0.280   3.654  1.7832 -0.8197  1.0892
 3435SOL     OW11203   6.702   1.888   6.573 -0.4944 -0.2564  0.0761
 3435SOL    HW111204   6.682   1.965   6.635  0.8534 -0.1892  0.4666
 3435SOL    HW211205   6.732   1.924   6.485  2.5838 -0.1967  1.0246
 3436SOL     OW11206   3.450   5.956   1.637 -0.0209 -0.8167  0.4326
 3436SOL    HW111207   3.533   5.906   1.660 -0.2557 -1.3560  0.1114
 3436SOL    HW211208   3.461   6.052   1.664  0.8681 -0.7818 -0.0050
 3437SOL     OW11209   4.325   5.856   2.075 -0.3161 -0.1498 -0.4855
 3437SOL    HW111210   4.301   5.918   2.001 -0.6194 -0.8753 -1.0048
 3437SOL    HW211211   4.242   5.817   2.114 -0.2226  0.9802  0.9131
 3438SOL     OW11212   0.199   5.514   0.689 -0.1814  0.1219 -0.1446
 3438SOL    HW111213   0.230   5.428   0.648  1.0194  0.2779  0.3786
 3438SOL    HW211214   0.112   5.541   0.649 -0.6348 -1.3971 -0.2282
 3439SOL     OW11215   3.119   1.424   6.974 -0.1385 -0.5358 -0.0685
 3439SOL    HW111216   3.203   1.477   6.966 -1.1447  1.2157  0.5436
 3439SOL    HW211217   3.098   1.381   6.886  0.4379  0.4740 -0.7135
 3440SOL     OW11218   4.404   2.289   2.021  0.3864  0.0686 -0.0526
 3440SOL    HW111219   4.464   2.369   2.033  1.2502 -0.6870  0.9358
 3440SOL    HW211220   4.460   2.209   1.999 -0.3556 -0.4722  0.0067
 3441SOL     OW11221   4.260   6.120   4.294 -0.5795 -0.0425 -0.4220
 3441SOL    HW111222   4.239   6.188   4.224  1.9382  2.3436  0.9016
 3441SOL    HW211223   4.303   6.040   4.252  1.1300  1.4457 -1.6530
 3442SOL     OW11224   6.446   5.852   4.416 -0.4339  0.0836 -0.1258
 3442SOL    HW111225   6.347   5.863   4.404 -0.6101 -0.9617  0.2432
 3442SOL    HW211226   6.463   5.777   4.480  0.5735  1.4811  1.3121
 3443SOL     OW11227   5.430   0.345   3.672  0.2072  0.6839  0.1828
 3443SOL    HW111228   5.479   0.394   3.744  0.0065  1.4777 -0.2092
 3443SOL    HW211229   5.496   0.308   3.606  0.4464 -0.7817  1.2095
 3444SOL     OW11230   2.709   5.432   1.841 -0.4318  0.3507  0.0460
 3444SOL    HW111231   2.724   5.371   1.763  2.5666  1.4230 -0.3438
 3444SOL    HW211232   2.732   5.384   1.926 -1.4472 -0.0964  0.0794
 3445SOL     OW11233   6.962   5.519   6.258 -0.2874 -0.8330  0.1659
 3445SOL    HW111234   6.885   5.530   6.196 -0.9712 -0.2194  1.1028
 3445SOL    HW211235   6.946   5.571   6.341  1.3310 -0.3436  0.2135
 3446SOL     OW11236   2.630   6.358   2.884  0.5508  0.3769 -0.2807
 3446SOL    HW111237   2.699   6.398   2.945  1.0251 -2.4911  1.2960
 3446SOL    HW211238   2.539   6.387   2.913  0.9485  2.0957 -0.6900
 3447SOL     OW11239   4.681   3.821   5.262  0.2662 -0.4415 -0.3184
 3447SOL    HW111240   4.611   3.792   5.327 -0.6999 -0.1643 -1.1934
 3447SOL    HW211241   4.714   3.742   5.210  1.3121 -0.7251  0.7261
 3448SOL     OW11242   2.064   1.585   5.189  0.0750  0.9899  0.4375
 3448SOL    HW111243   2.061   1.485   5.181  0.8761  0.8950  1.1832
 3448SOL    HW211244   2.147   1.612   5.239 -0.5755  1.9740  1.0198
 3449SOL     OW11245   5.449   3.945   3.956  0.2048  0.0628  0.1369
 3449SOL    HW111246   5.361   3.965   3.911 -0.0573 -0.6562  0.3092
 3449SOL    HW211247   5.438   3.952   4.055 -0.5766 -3.1723  0.4029
 3450SOL     OW11248   0.859   2.041   6.760  0.8457  0.0428 -0.0451
 3450SOL    HW111249   0.926   2.095   6.810  0.6325  0.1682  0.1067
 3450SOL    HW211250   0.799   1.993   6.824  1.4992 -0.9718 -0.1702
 3451SOL     OW11251   6.779   6.411   6.014  0.3954 -0.2716  0.1795
 3451SOL    HW111252   6.843   6.465   5.958  1.2068 -3.0227 -1.7607
 3451SOL    HW211253   6.829   6.341   6.064 -0.8644 -0.9974  0.4618
 3452SOL     OW11254   0.229   2.878   1.097 -0.3617  0.4285 -0.2928
 3452SOL    HW111255   0.260   2.915   1.009  0.2018  2.6667  0.7675
 3452SOL    HW211256   0.165   2.943   1.139 -1.5094 -1.1328  0.4682
 3453SOL     OW11257   6.550   5.615   5.323 -0.1519  0.3779 -0.1876
 3453SOL    HW111258   6.603   5.694   5.292 -0.6863  2.2335  3.1917
 3453SOL    HW211259   6.454   5.629   5.299 -0.1708  0.5170 -0.0347
 3454SOL     OW11260   5.835   1.920   5.107 -0.1795 -0.5263 -0.2760
 3454SOL    HW111261   5.873   1.928   5.015  0.2646 -0.8442 -0.1224
 3454SOL    HW211262   5.860   1.832   5.146 -1.8690 -1.1576 -0.5207
 3455SOL     OW11263   1.440   4.381   2.114 -0.6062 -0.5640  0.1084
 3455SOL    HW111264   1.484   4.309   2.167 -0.9163  0.3287  1.6566
 3455SOL    HW211265   1.427   4.462   2.172 -1.7520  0.1696 -1.0991
 3456SOL     OW11266   4.836   2.601   0.817 -0.2901  0.5658 -0.0061
 3456SOL    HW111267   4.749   2.563   0.848  0.8081 -0.9127  1.4793
 3456SOL    HW211268   4.883   2.535   0.759  1.4227 -0.3207  2.2015
 3457SOL     OW11269   2.882   1.425   4.024 -0.3405 -0.2040 -0.1814
 3457SOL    HW111270   2.920   1.468   3.943 -1.2010  2.9860  0.9687
 3457SOL    HW211271   2.847   1.334   4.000 -1.7457  1.0859 -3.7054
 3458SOL     OW11272   3.754   3.759   0.560  0.0879  0.2324  0.3961
 3458SOL    HW111273   3.766   3.788   0.655 -0.8007  0.2470  0.5186
 3458SOL    HW211274   3.656   3.745   0.542  0.3888 -1.6011  0.0205
 3459SOL     OW11275   1.098   0.082   2.536  0.3067 -0.4691 -0.4634
 3459SOL    HW111276   1.028   0.152   2.533  0.3444 -0.3881  0.3606
 3459SOL    HW211277   1.062  -0.004   2.499 -0.2910 -0.4832  0.1459
 3460SOL     OW11278   5.420   3.426   0.890 -0.0384 -0.0845 -0.1771
 3460SOL    HW111279   5.393   3.337   0.854  1.9792 -0.6385 -0.4900
 3460SOL    HW211280   5.431   3.420   0.989 -0.6409  0.0297 -0.1025
 3461SOL     OW11281   6.902   6.753   3.210 -0.1250 -0.1167 -0.2342
 3461SOL    HW111282   6.902   6.795   3.119  0.7829  0.3942 -0.0054
 3461SOL    HW211283   6.921   6.822   3.279 -3.5771  0.0788  0.6706
 3462SOL     OW11284   6.170   1.037   4.319 -0.1581 -0.3025 -0.0570
 3462SOL    HW111285   6.194   1.132   4.297 -1.5516  0.1915  0.3838
 3462SOL    HW211286   6.223   0.975   4.262 -0.5164  0.8012 -1.6964
 3463SOL     OW11287   1.570   3.090   0.659 -0.2669  0.5504  0.3060
 3463SOL    HW111288   1.511   3.025   0.706  0.9355 -0.5141  0.4089
 3463SOL    HW211289   1.585   3.170   0.717  1.5706 -0.9341  2.0529
 3464SOL     OW11290   6.007   1.552   1.005  0.0611 -0.2778 -0.1350
 3464SOL    HW111291   6.045   1.476   1.057 -0.9348 -0.0424  0.9647
 3464SOL    HW211292   5.922   1.525   0.962  0.2353 -0.0891 -0.6103
 3465SOL     OW11293   1.633   6.073   6.672 -0.6061 -0.8623  0.0962
 3465SOL    HW111294   1.550   6.065   6.726 -0.3524 -2.0983  0.3439
 3465SOL    HW211295   1.711   6.088   6.733 -0.6176  0.2015 -0.1279
 3466SOL     OW11296   6.946   4.620   6.316 -0.6004  0.3536  0.0761
 3466SOL    HW111297   6.956   4.598   6.413 -2.2285  0.1058  0.2186
 3466SOL    HW211298   6.917   4.539   6.266 -0.3111  0.6170 -0.5366
 3467SOL     OW11299   3.888   4.303   0.768 -0.4330 -0.3160 -0.6236
 3467SOL    HW111300   3.954   4.290   0.842  2.0274  2.9069 -2.0091
 3467SOL    HW211301   3.797   4.274   0.799  0.4928  0.6400  3.5933
 3468SOL     OW11302   1.374   6.944   2.231  0.0499  0.1395 -0.2432
 3468SOL    HW111303   1.305   7.003   2.275  0.8209  1.1312 -0.3265
 3468SOL    HW211304   1.355   6.938   2.133  1.0224  1.7983 -0.5618
 3469SOL     OW11305   1.956   5.964   3.759  0.2433 -0.3369 -0.4620
 3469SOL    HW111306   1.945   5.922   3.670  0.9208 -0.6230 -0.4225
 3469SOL    HW211307   2.046   5.939   3.797 -0.1013 -0.3610  0.3700
 3470SOL     OW11308   0.640   2.983   6.439 -0.7503  0.0101  0.1321
 3470SOL    HW111309   0.722   3.012   6.489 -0.4062  1.7531 -1.3467
 3470SOL    HW211310   0.662   2.974   6.342 -2.6589  2.2389 -0.6056
 3471SOL     OW11311   6.451   3.517   5.202 -0.4305 -0.0204  0.5475
 3471SOL    HW111312   6.504   3.439   5.168  1.1079  0.3273  2.0403
 3471SOL    HW211313   6.354   3.494   5.202 -0.0861 -1.5916  0.0994
 3472SOL     OW11314   4.312   1.415   1.251  0.4082  0.5706  0.3826
 3472SOL    HW111315   4.240   1.373   1.306 -0.5670 -2.3034 -2.7300
 3472SOL    HW211316   4.276   1.438   1.161  3.3524 -1.5573 -1.5328
 3473SOL     OW11317   6.841   5.118   1.724  0.0618  0.3727 -0.0654
 3473SOL    HW111318   6.839   5.147   1.628 -1.9244  0.8182  0.0557
 3473SOL    HW211319   6.756   5.068   1.745  1.3422 -1.4900  0.9646
 3474SOL     OW11320   5.770   2.536   3.089  0.7138 -0.0617 -0.4856
 3474SOL    HW111321   5.843   2.548   3.022  2.0559 -0.2064  0.8942
 3474SOL    HW211322   5.810   2.531   3.181 -0.9379 -1.2905  0.2089
 3475SOL     OW11323   6.456   3.968   5.173  0.0690  0.5368  0.6611
 3475SOL    HW111324   6.447   4.033   5.248 -0.5154  2.3040 -0.8663
 3475SOL    HW211325   6.370   3.966   5.121  0.8894  0.3888 -0.7428
 3476SOL     OW11326   1.663   2.876   3.607  0.3893 -0.0480  0.6107
 3476SOL    HW111327   1.682   2.970   3.580  1.0027 -0.2554  0.2917
 3476SOL    HW211328   1.567   2.855   3.587  0.9187 -0.3611 -2.0581
 3477SOL     OW11329   2.155   3.422   3.380 -0.3396 -0.3130  0.0892
 3477SOL    HW111330   2.219   3.384   3.313  1.9941  0.7780  1.5756
 3477SOL    HW211331   2.080   3.467   3.332  0.8923 -0.1443 -1.8015
 3478SOL     OW11332   3.655   0.528   1.053  0.6980 -0.1847  0.5184
 3478SOL    HW111333   3.631   0.437   1.018 -2.1037  0.9474 -0.8294
 3478SOL    HW211334   3.640   0.531   1.152 -1.0261 -0.7231  0.3088
 3479SOL     OW11335   1.302   4.435   6.102 -0.1173 -0.6088 -0.1155
 3479SOL    HW111336   1.270   4.349   6.062  1.4684 -1.3858  0.2218
 3479SOL    HW211337   1.285   4.434   6.201  2.0206 -1.5971  0.2952
 3480SOL     OW11338   2.091   3.283   6.437  0.0842 -0.0374  0.1272
 3480SOL    HW111339   2.150   3.285   6.517 -1.6063  1.0060  1.4053
 3480SOL    HW211340   1.997   3.267   6.465 -0.5541  0.3631 -1.6549
 3481SOL     OW11341   6.046   6.199   4.140  0.2658  0.0173  0.8086
 3481SOL    HW111342   6.004   6.231   4.056 -0.5975  0.3334  1.3440
 3481SOL    HW211343   6.088   6.110   4.125 -0.3303 -0.1679  0.1762
 3482SOL     OW11344   0.843   1.890   0.635 -0.5768  0.0516  0.0351
 3482SOL    HW111345   0.835   1.938   0.547  2.7597  1.4127  0.3345
 3482SOL    HW211346   0.773   1.924   0.698  0.2934  3.1031 -0.4645
 3483SOL     OW11347   4.634   0.820   3.506 -0.1645 -0.7603 -0.1634
 3483SOL    HW111348   4.685   0.816   3.420 -0.2533  0.8971 -0.3210
 3483SOL    HW211349   4.618   0.727   3.540  2.7786 -1.3648 -0.2010
 3484SOL     OW11350   2.992   1.595   5.896  0.3771 -0.2931 -1.0529
 3484SOL    HW111351   2.928   1.589   5.972  1.4848 -1.8131 -0.1749
 3484SOL    HW211352   3.073   1.648   5.923  0.6509 -0.5985 -1.2581
 3485SOL     OW11353   6.858   3.993   4.305  0.1248  0.0790  0.0031
 3485SOL    HW111354   6.949   3.989   4.264 -0.4934 -2.5213 -1.3732
 3485SOL    HW211355   6.860   3.955   4.397  0.3079 -0.8291 -0.3652
 3486SOL     OW11356   2.075   6.854   4.185  0.1699 -0.4589 -0.3093
 3486SOL    HW111357   2.012   6.824   4.113  0.8505  2.0364 -2.0639
 3486SOL    HW211358   2.041   6.939   4.226  2.0332  0.5943 -0.8569
 3487SOL     OW11359   4.794   1.571   0.518 -0.0906  0.8099 -0.2260
 3487SOL    HW111360   4.774   1.656   0.469  1.6053  1.1587 -0.3796
 3487SOL    HW211361   4.715   1.510   0.512  0.1967  0.5585 -4.0245
 3488SOL     OW11362   0.138   5.701   6.789 -0.0045  0.1601  0.7843
 3488SOL    HW111363   0.231   5.739   6.796  0.0336 -0.2005  3.5033
 3488SOL    HW211364   0.140   5.604   6.813 -1.0781  0.1666  0.9254
 3489SOL     OW11365   2.957   5.202   0.543 -0.0495  0.0476 -0.6707
 3489SOL    HW111366   2.987   5.281   0.489 -1.4006  1.7881  0.9835
 3489SOL    HW211367   2.860   5.184   0.525  0.0283 -0.7021 -0.3841
 3490SOL     OW11368   4.754   1.124   1.888 -0.1441 -0.3732  0.3991
 3490SOL    HW111369   4.662   1.122   1.928 -0.6165 -0.2338 -0.6430
 3490SOL    HW211370   4.769   1.212   1.843  0.7797 -0.1241  1.1590
 3491SOL     OW11371   4.441   2.360   6.266 -0.6100  0.7377  0.7770
 3491SOL    HW111372   4.380   2.324   6.195 -0.3121  0.7533  0.5131
 3491SOL    HW211373   4.518   2.298   6.278  0.5959  1.8833 -0.5873
 3492SOL     OW11374   2.052   3.454   3.646  0.0925  0.1390 -0.3788
 3492SOL    HW111375   1.956   3.457   3.619 -0.3280  0.4154  1.0219
 3492SOL    HW211376   2.110   3.455   3.565 -1.0138  2.4228 -1.2288
 3493SOL     OW11377   1.130   4.755   1.690  0.3463  0.2138  0.5432
 3493SOL    HW111378   1.128   4.664   1.649 -2.1063  1.0394 -1.4629
 3493SOL    HW211379   1.167   4.750   1.783  0.8572 -2.6884  0.2597
 3494SOL     OW11380   2.890   0.497   1.232  0.3090 -0.0729 -0.0919
 3494SOL    HW111381   2.915   0.401   1.218 -1.1359 -0.3537 -1.0784
 3494SOL    HW211382   2.805   0.502   1.284  1.1016  0.7475  1.1724
 3495SOL     OW11383   0.221   3.926   2.605 -0.0948  0.3561 -0.1339
 3495SOL    HW111384   0.243   3.938   2.702  0.3386 -1.6183  0.0647
 3495SOL    HW211385   0.273   3.992   2.550  1.7306 -0.2308  0.8016
 3496SOL     OW11386   0.190   5.900   2.094  0.2969 -0.2088  0.4519
 3496SOL    HW111387   0.107   5.912   2.040 -0.1903 -0.2103  1.1882
 3496SOL    HW211388   0.211   5.803   2.102  1.2629 -0.1464 -1.0515
 3497SOL     OW11389   2.842   0.254   2.824 -0.3929  0.0428  0.1050
 3497SOL    HW111390   2.801   0.185   2.765 -1.5331  0.1047  0.7862
 3497SOL    HW211391   2.929   0.220   2.860 -0.6321 -0.7684 -0.0641
 3498SOL     OW11392   3.217   0.468   2.945  0.1767  0.7652  0.0895
 3498SOL    HW111393   3.200   0.487   3.042 -0.8148 -0.4479  0.1781
 3498SOL    HW211394   3.183   0.543   2.890  2.2683  2.2881  0.7244
 3499SOL     OW11395   6.238   0.011   4.952  0.1381  1.2430  0.0397
 3499SOL    HW111396   6.315   0.065   4.986  0.0223  1.6252 -0.2835
 3499SOL    HW211397   6.249  -0.085   4.977 -0.4342  1.6521  2.0319
 3500SOL     OW11398   1.969   2.166   3.824  0.1479 -0.0758 -0.4848
 3500SOL    HW111399   1.923   2.092   3.872 -0.9680  0.8133 -0.1304
 3500SOL    HW211400   1.911   2.200   3.750  0.6561  0.4123 -0.6688
 3501SOL     OW11401   6.869   0.682   5.797 -0.0185  0.0455  0.1779
 3501SOL    HW111402   6.855   0.605   5.735  0.7108  0.7929 -0.9758
 3501SOL    HW211403   6.893   0.648   5.888  2.7833 -1.1553 -0.8841
 3502SOL     OW11404   4.673   2.257   2.738 -0.0113 -0.5115  0.0575
 3502SOL    HW111405   4.600   2.325   2.736 -0.2510 -0.7804 -1.0583
 3502SOL    HW211406   4.727   2.264   2.654  1.0987 -0.4904  0.7545
 3503SOL     OW11407   0.206   6.080   6.980 -0.0006 -0.0804  0.0122
 3503SOL    HW111408   0.239   6.073   7.074 -0.4847  0.8341  0.2626
 3503SOL    HW211409   0.283   6.075   6.917  0.5060  0.7897  0.5345
 3504SOL     OW11410   3.010   0.749   1.300 -0.1033  0.0614 -0.1282
 3504SOL    HW111411   2.975   0.824   1.244 -0.7738  0.7089  1.0991
 3504SOL    HW211412   2.957   0.666   1.282 -1.8727  0.8320  1.1363
 3505SOL     OW11413   5.088   2.800   5.159  0.0319  0.0499 -0.0109
 3505SOL    HW111414   5.004   2.759   5.123 -1.6202  1.3272  2.1368
 3505SOL    HW211415   5.167   2.757   5.116 -1.6861 -1.5071 -1.8134
 3506SOL     OW11416   4.194   4.766   3.504  0.3077  0.1603 -0.1759
 3506SOL    HW111417   4.108   4.817   3.501 -0.7370 -1.5400 -0.6490
 3506SOL    HW211418   4.230   4.755   3.412 -0.2985 -1.2198 -0.2781
 3507SOL     OW11419   1.293   6.815   3.283  0.3460  0.3202 -0.2760
 3507SOL    HW111420   1.304   6.718   3.304 -2.1873  0.1541  0.6108
 3507SOL    HW211421   1.224   6.826   3.211  1.7002  1.4348 -1.4770
 3508SOL     OW11422   4.502   0.964   0.105  0.0941 -0.1028 -0.0703
 3508SOL    HW111423   4.472   1.042   0.050  1.0242 -0.9211 -1.8101
 3508SOL    HW211424   4.563   0.996   0.178  1.0873  0.7343 -1.2382
 3509SOL     OW11425   4.088   5.810   6.601  0.0595 -0.5844 -0.6672
 3509SOL    HW111426   4.162   5.872   6.627 -0.9446  1.4312 -2.3930
 3509SOL    HW211427   4.055   5.761   6.683  1.8068  0.0840  0.4838
 3510SOL     OW11428   2.605   1.266   1.692 -0.8884  0.1833 -1.2920
 3510SOL    HW111429   2.671   1.340   1.675 -0.4911  0.0514 -0.4043
 3510SOL    HW211430   2.566   1.277   1.783  0.0902 -1.3600 -0.6273
 3511SOL     OW11431   2.113   4.859   3.631 -0.2151 -0.6286  0.2785
 3511SOL    HW111432   2.075   4.768   3.647  1.2402 -1.2820  0.1651
 3511SOL    HW211433   2.212   4.853   3.625 -0.0246  1.1184  1.2126
 3512SOL     OW11434   6.577   5.471   6.671  0.2799 -0.2429 -0.2308
 3512SOL    HW111435   6.615   5.494   6.760 -1.8597  1.9088  0.2458
 3512SOL    HW211436   6.526   5.385   6.677 -1.6297  0.9160  1.2712
 3513SOL     OW11437   4.791   1.602   0.209  0.6399  0.0553 -0.1534
 3513SOL    HW111438   4.869   1.542   0.221  0.3169 -0.5253 -0.8612
 3513SOL    HW211439   4.725   1.559   0.147 -0.0211  0.7374  0.0592
 3514SOL     OW11440   3.459   1.964   3.162  0.6293 -0.5176 -0.6614
 3514SOL    HW111441   3.365   1.936   3.182 -0.3375  3.0380  0.4412
 3514SOL    HW211442   3.510   1.973   3.247  0.9104  0.8246 -0.9524
 3515SOL     OW11443   0.362   4.183   4.165  0.2552 -0.1610  0.2995
 3515SOL    HW111444   0.383   4.210   4.259 -0.8556  2.1851 -0.0440
 3515SOL    HW211445   0.268   4.212   4.142  0.8678  0.3366 -1.8543
 3516SOL     OW11446   3.068   6.224   2.277 -0.2091  0.0648  0.3730
 3516SOL    HW111447   3.151   6.170   2.285  0.2243  0.7033  0.2413
 3516SOL    HW211448   3.089   6.320   2.292 -0.8115  0.3155 -0.3284
 3517SOL     OW11449   5.809   2.405   2.505 -0.2294 -0.4775 -0.0685
 3517SOL    HW111450   5.809   2.505   2.504  0.2739 -0.4368  1.2581
 3517SOL    HW211451   5.886   2.373   2.561 -2.0858 -1.5317  2.0625
 3518SOL     OW11452   5.142   2.616   6.599 -0.3816  0.2931  0.3654
 3518SOL    HW111453   5.111   2.711   6.598 -0.9115  0.1681  2.1053
 3518SOL    HW211454   5.070   2.556   6.564 -0.2298  0.4684 -0.2622
 3519SOL     OW11455   2.000   6.087   1.704  0.3400 -0.4290  0.8561
 3519SOL    HW111456   2.017   6.146   1.783  0.4325 -0.8487  1.1507
 3519SOL    HW211457   2.084   6.037   1.681  0.5997  0.4127 -0.1178
 3520SOL     OW11458   1.002   0.284   4.420 -0.5550  0.4989 -0.1147
 3520SOL    HW111459   1.005   0.319   4.514  0.5043 -0.0475  0.0770
 3520SOL    HW211460   0.994   0.360   4.356 -0.0606  0.9721  0.3737
 3521SOL     OW11461   2.132   3.241   5.405 -0.1859  0.3082  0.4269
 3521SOL    HW111462   2.064   3.178   5.443  0.3244 -0.3555  0.2613
 3521SOL    HW211463   2.116   3.333   5.441 -1.1396  0.1537  0.4219
 3522SOL     OW11464   6.649   6.166   1.615  0.1538 -0.2936 -0.4346
 3522SOL    HW111465   6.576   6.143   1.679 -0.5054  0.0545 -1.0521
 3522SOL    HW211466   6.720   6.096   1.620 -1.3007 -1.9413 -1.5001
 3523SOL     OW11467   3.765   0.122   1.657 -0.1969  0.2378  0.0586
 3523SOL    HW111468   3.818   0.158   1.580 -0.1928  1.6847  0.7139
 3523SOL    HW211469   3.816   0.047   1.700 -0.3693 -0.8617 -1.5441
 3524SOL     OW11470   5.283   1.612   4.906 -0.5586 -0.8049 -0.2990
 3524SOL    HW111471   5.218   1.660   4.965 -0.3375 -0.5180 -0.2884
 3524SOL    HW211472   5.358   1.575   4.962  0.2186  0.3862 -0.5113
 3525SOL     OW11473   1.628   4.055   4.151  0.1164  0.1204  0.0207
 3525SOL    HW111474   1.561   4.107   4.098  0.9987  0.6964 -0.5582
 3525SOL    HW211475   1.686   4.003   4.088  1.8976  1.6755  0.2930
 3526SOL     OW11476   2.873   0.940   1.783 -0.5118 -0.1384  0.2520
 3526SOL    HW111477   2.896   0.880   1.706  0.6190 -0.2278  0.6390
 3526SOL    HW211478   2.774   0.944   1.794 -0.6309 -2.0319  0.2735
 3527SOL     OW11479   6.173   3.656   0.031  0.1280  0.4628  0.7786
 3527SOL    HW111480   6.096   3.688  -0.024  0.8381  1.6765  0.4450
 3527SOL    HW211481   6.259   3.673  -0.018  0.6164 -1.0396  1.0620
 3528SOL     OW11482   2.836   6.005   5.557  0.4790 -0.1045 -0.3621
 3528SOL    HW111483   2.746   6.041   5.534  1.2797  0.7752 -2.2901
 3528SOL    HW211484   2.878   6.064   5.626 -0.4858 -0.6651  0.7411
 3529SOL     OW11485   5.740   3.680   0.669 -0.5620 -0.2098  0.9495
 3529SOL    HW111486   5.717   3.698   0.764 -2.4836  0.1844  0.4472
 3529SOL    HW211487   5.678   3.731   0.609  2.3667  1.9047 -0.5681
 3530SOL     OW11488   0.395   6.283   1.463 -0.5765 -0.3779  0.1120
 3530SOL    HW111489   0.437   6.261   1.551 -0.1398 -1.2141 -0.2883
 3530SOL    HW211490   0.347   6.202   1.428  1.3027 -0.8863 -1.5339
 3531SOL     OW11491   0.497   3.206   6.226 -0.1540 -0.0256 -0.1369
 3531SOL    HW111492   0.441   3.164   6.156 -0.4001  0.9915 -0.5619
 3531SOL    HW211493   0.594   3.195   6.203 -0.0825 -2.2900  0.8850
 3532SOL     OW11494   2.142   5.924   2.547  0.1639 -0.1033  0.1039
 3532SOL    HW111495   2.072   5.992   2.526 -1.3364 -1.6513 -0.0699
 3532SOL    HW211496   2.182   5.945   2.637 -0.6725  0.6935  0.3078
 3533SOL     OW11497   1.334   3.452   3.431 -0.0035 -0.3066 -0.0189
 3533SOL    HW111498   1.382   3.482   3.349 -0.2606 -1.4928 -0.6324
 3533SOL    HW211499   1.347   3.354   3.443 -1.1453 -0.4125  0.5510
 3534SOL     OW11500   6.507   0.469   0.642 -0.2564  0.8735  0.5400
 3534SOL    HW111501   6.472   0.439   0.731 -0.3364  0.9427  0.5319
 3534SOL    HW211502   6.588   0.416   0.619 -2.0746 -1.4801 -0.8630
 3535SOL     OW11503   5.935   6.868   2.588 -0.3568 -0.3500 -0.4738
 3535SOL    HW111504   5.972   6.926   2.516 -1.1348  1.0800  0.2414
 3535SOL    HW211505   5.984   6.885   2.674 -1.0604 -0.2056 -0.0908
 3536SOL     OW11506   5.513   2.171   3.498 -0.0311 -0.1435 -0.1519
 3536SOL    HW111507   5.556   2.092   3.542  0.2705  0.0593 -0.0733
 3536SOL    HW211508   5.501   2.152   3.401  0.0539 -0.2837 -0.1355
 3537SOL     OW11509   0.431   3.635   2.206  0.8675  0.3553  0.1102
 3537SOL    HW111510   0.503   3.582   2.251  1.8174  1.2776 -0.2835
 3537SOL    HW211511   0.468   3.723   2.176  0.1302  0.0218 -1.9564
 3538SOL     OW11512   2.430   5.782   2.612 -0.1219 -0.4050  0.4780
 3538SOL    HW111513   2.390   5.832   2.690 -0.9137 -0.8566  0.3763
 3538SOL    HW211514   2.413   5.833   2.528  1.1368  0.3143  0.6348
 3539SOL     OW11515   3.793   3.284   4.009  0.2443 -0.7705  0.4702
 3539SOL    HW111516   3.809   3.241   3.920 -1.4065 -0.1675 -0.1572
 3539SOL    HW211517   3.709   3.245   4.049  0.3400 -0.2045  1.2216
 3540SOL     OW11518   2.189   0.202   2.764  0.2071  0.1145  0.3034
 3540SOL    HW111519   2.272   0.207   2.710 -0.4421  0.3648 -0.6900
 3540SOL    HW211520   2.137   0.121   2.738 -1.1472  1.3502 -1.0072
 3541SOL     OW11521   4.093   3.682   3.604  0.3971  0.0584  0.4223
 3541SOL    HW111522   4.055   3.598   3.565  2.0547 -1.5939  2.2112
 3541SOL    HW211523   4.070   3.687   3.701 -1.2719  2.6945 -0.0004
 3542SOL     OW11524   0.389   6.961   1.380  0.1787 -0.0950 -0.2044
 3542SOL    HW111525   0.293   6.964   1.408  0.3079 -0.9465  0.3667
 3542SOL    HW211526   0.441   7.026   1.435 -0.3253  1.6282 -1.6693
 3543SOL     OW11527   5.637   1.135   6.953 -0.1870  0.0794  0.2070
 3543SOL    HW111528   5.660   1.174   7.042  2.5035  0.8027 -0.7101
 3543SOL    HW211529   5.625   1.037   6.961 -1.6323  0.3399  1.6124
 3544SOL     OW11530   4.769   0.918   3.811  0.7334 -0.1388 -0.4228
 3544SOL    HW111531   4.737   0.983   3.881  0.8023  0.1043 -0.6165
 3544SOL    HW211532   4.725   0.940   3.724  0.5547 -0.5180 -0.4279
 3545SOL     OW11533   3.517   5.478   0.868 -0.3360  0.0677  0.3442
 3545SOL    HW111534   3.536   5.408   0.937 -2.3683 -1.5315 -0.6174
 3545SOL    HW211535   3.443   5.448   0.809  1.7542  1.0416 -3.0446
 3546SOL     OW11536   2.065   5.041   1.083  0.0383 -0.1822 -0.5134
 3546SOL    HW111537   2.003   5.067   1.157  0.1373  1.5164 -0.9986
 3546SOL    HW211538   2.016   5.048   0.996  0.4874 -0.2761 -0.7739
 3547SOL     OW11539   6.250   3.211   4.510 -0.2395 -0.3807  0.7262
 3547SOL    HW111540   6.327   3.236   4.569 -0.0900 -0.9321  0.7713
 3547SOL    HW211541   6.165   3.248   4.548 -0.0658 -0.2337  0.9731
 3548SOL     OW11542   1.413   2.704   5.383 -0.1243  0.6812 -0.3471
 3548SOL    HW111543   1.405   2.686   5.285 -0.5677  0.4361 -0.2680
 3548SOL    HW211544   1.410   2.803   5.399  0.4055  0.7440 -0.6185
 3549SOL     OW11545   0.818   2.195   2.256 -0.5540  0.0552  0.5300
 3549SOL    HW111546   0.839   2.289   2.228  0.6151 -0.5379 -0.6782
 3549SOL    HW211547   0.843   2.183   2.352  1.1895  0.4460  0.1591
 3550SOL     OW11548   4.645   1.236   5.132  0.4284  0.5353  0.0714
 3550SOL    HW111549   4.642   1.222   5.033 -1.1975 -2.2221  0.4181
 3550SOL    HW211550   4.590   1.166   5.177 -0.3279  2.7481  2.8584
 3551SOL     OW11551   6.712   6.857   3.903  0.5814 -0.0549 -0.1080
 3551SOL    HW111552   6.716   6.956   3.892  0.0301  0.1219  1.1392
 3551SOL    HW211553   6.617   6.826   3.894  0.5106 -0.2477  1.1420
 3552SOL     OW11554   0.144   4.543   2.889  0.0439  0.1442  0.5150
 3552SOL    HW111555   0.114   4.547   2.984 -2.5484  0.2813 -0.2024
 3552SOL    HW211556   0.228   4.489   2.881 -0.4654 -1.0650  2.6995
 3553SOL     OW11557   6.092   1.032   3.892 -0.2612  0.1312  0.1656
 3553SOL    HW111558   6.126   1.126   3.881 -0.5528  0.1682 -0.5186
 3553SOL    HW211559   6.076   0.993   3.801  0.7473 -0.9145  0.4191
 3554SOL     OW11560   4.714   1.047   0.278  0.0557  0.5849  0.3345
 3554SOL    HW111561   4.713   1.005   0.369 -0.8715  1.1695  0.6069
 3554SOL    HW211562   4.752   1.139   0.286 -0.5443  0.8445  0.2328
 3555SOL     OW11563   0.673   3.811   3.490 -0.0565  0.5975  0.0386
 3555SOL    HW111564   0.738   3.756   3.437 -1.4059 -0.2690 -0.7491
 3555SOL    HW211565   0.609   3.856   3.428 -0.3756  1.2612  0.8275
 3556SOL     OW11566   5.526   1.799   6.281  0.1274 -0.6179  0.4424
 3556SOL    HW111567   5.555   1.732   6.349  2.3309  0.8912  1.0898
 3556SOL    HW211568   5.604   1.826   6.225 -0.5383  1.8361  0.5972
 3557SOL     OW11569   2.425   1.945   3.605  0.3818 -0.1533 -0.2200
 3557SOL    HW111570   2.362   2.019   3.629 -0.2259 -0.4724 -0.8010
 3557SOL    HW211571   2.452   1.895   3.688 -0.1838 -0.0594  0.0227
 3558SOL     OW11572   0.494   0.833   0.712 -0.0635 -0.1252 -0.3643
 3558SOL    HW111573   0.491   0.911   0.650 -0.8123 -0.2156 -0.4553
 3558SOL    HW211574   0.475   0.749   0.661 -0.8266 -0.1850  0.0059
 3559SOL     OW11575   1.349   0.734   6.067 -0.1253  0.7624  0.5129
 3559SOL    HW111576   1.425   0.792   6.096  0.4211  1.1436 -1.5395
 3559SOL    HW211577   1.318   0.762   5.976 -0.4852 -1.5242 -0.1437
 3560SOL     OW11578   1.030   5.602   1.233  0.3666  0.1908  0.2197
 3560SOL    HW111579   1.119   5.572   1.199 -0.2339 -1.2958 -0.1260
 3560SOL    HW211580   1.017   5.567   1.326 -0.4877 -1.0100 -0.3169
 3561SOL     OW11581   4.705   4.268   3.397 -0.0526 -0.4143 -0.0142
 3561SOL    HW111582   4.783   4.328   3.381 -0.5198 -0.2033 -1.6624
 3561SOL    HW211583   4.701   4.245   3.494  1.6662  0.0876  0.2185
 3562SOL     OW11584   5.538   2.675   3.088  0.2243 -0.1137  0.0563
 3562SOL    HW111585   5.491   2.627   3.014  0.6259 -0.5237  0.0612
 3562SOL    HW211586   5.633   2.644   3.092  2.1118  4.2174 -3.2316
 3563SOL     OW11587   4.152   5.491   2.062  0.4478  0.2580 -0.0632
 3563SOL    HW111588   4.190   5.400   2.075 -0.5088 -0.1033  0.3226
 3563SOL    HW211589   4.137   5.508   1.965 -0.3517 -0.4307 -0.0759
 3564SOL     OW11590   6.284   4.752   2.774 -0.3477 -0.1358 -0.0369
 3564SOL    HW111591   6.312   4.687   2.703 -0.7338 -0.0961 -0.2297
 3564SOL    HW211592   6.310   4.716   2.864 -0.5684 -0.5649 -0.1423
 3565SOL     OW11593   6.164   6.291   5.095 -0.5563  0.5293  0.6888
 3565SOL    HW111594   6.246   6.251   5.135 -0.1749  1.7577  1.1571
 3565SOL    HW211595   6.083   6.245   5.132 -0.1040 -0.5737  0.3525
 3566SOL     OW11596   3.154   4.015   6.259  0.6649 -0.1316  0.4906
 3566SOL    HW111597   3.237   3.988   6.307 -0.4733 -1.0346  2.0629
 3566SOL    HW211598   3.098   3.934   6.241  0.4573  0.3585 -1.2584
 3567SOL     OW11599   6.935   2.746   0.529  0.0140 -0.4740  0.3067
 3567SOL    HW111600   7.024   2.710   0.503  1.0363  0.9494  1.6257
 3567SOL    HW211601   6.928   2.842   0.499 -0.5660 -0.1959  1.2911
 3568SOL     OW11602   5.817   3.602   2.669  0.7624 -0.0714 -0.1844
 3568SOL    HW111603   5.870   3.682   2.697  0.2908  0.2326 -0.1373
 3568SOL    HW211604   5.748   3.630   2.602 -0.5019 -0.1187  1.0624
 3569SOL     OW11605   3.793   3.565   3.927  0.1486 -0.0081  0.2115
 3569SOL    HW111606   3.814   3.467   3.932  1.4678  0.2547  0.1100
 3569SOL    HW211607   3.877   3.616   3.909 -0.9789  0.9043 -3.1381
 3570SOL     OW11608   0.993   4.838   0.002  0.1484 -0.0018 -0.1668
 3570SOL    HW111609   0.926   4.832  -0.072  1.9801 -1.5809 -1.7924
 3570SOL    HW211610   1.047   4.921  -0.009  1.4225 -0.9718 -1.5725
 3571SOL     OW11611   2.917   6.241   3.999 -0.6177  0.6767 -0.1595
 3571SOL    HW111612   2.824   6.221   4.029 -0.5662 -0.3538 -0.6721
 3571SOL    HW211613   2.981   6.176   4.040 -0.3095  0.4389 -1.0033
 3572SOL     OW11614   4.889   4.460   3.070 -0.3554  0.1979 -0.1812
 3572SOL    HW111615   4.797   4.421   3.076 -0.1937 -0.5658 -2.1836
 3572SOL    HW211616   4.882   4.559   3.058 -0.8471  0.3702  1.3192
 3573SOL     OW11617   6.281   3.307   3.221  0.2157  0.2594 -0.1646
 3573SOL    HW111618   6.362   3.252   3.199  1.8559  1.8613  1.4924
 3573SOL    HW211619   6.282   3.391   3.167  0.7949  1.2052  1.2599
 3574SOL     OW11620   3.709   2.242   0.248 -0.0474 -0.0871 -0.0543
 3574SOL    HW111621   3.727   2.200   0.159  1.2879 -1.7439  0.9201
 3574SOL    HW211622   3.777   2.313   0.265 -0.5988  0.5687 -0.5364
 3575SOL     OW11623   5.582   0.274   5.812 -0.6153 -0.4568 -0.0500
 3575SOL    HW111624   5.651   0.339   5.845 -0.1544  0.2460 -2.2402
 3575SOL    HW211625   5.491   0.311   5.831 -0.4322 -0.8275  1.7732
 3576SOL     OW11626   0.864   3.709   0.532 -0.4844 -0.7277  0.1759
 3576SOL    HW111627   0.800   3.677   0.462  0.8162  2.7397 -2.9382
 3576SOL    HW211628   0.825   3.790   0.577  1.6501  1.8964 -2.2797
 3577SOL     OW11629   0.646   5.431   6.336 -0.9087 -0.6032  0.1322
 3577SOL    HW111630   0.580   5.472   6.399 -0.3625  0.8741 -0.2055
 3577SOL    HW211631   0.628   5.464   6.243 -1.3010 -2.2481 -0.3997
 3578SOL     OW11632   5.872   3.590   0.287 -0.7742 -0.9580 -0.0140
 3578SOL    HW111633   5.911   3.546   0.368  0.9876  0.2299 -0.1374
 3578SOL    HW211634   5.946   3.631   0.233 -2.1123  0.3291 -0.9647
 3579SOL     OW11635   6.207   4.041   2.478  0.2069 -0.9886  0.0506
 3579SOL    HW111636   6.247   4.045   2.386 -0.4538 -0.1640 -0.2170
 3579SOL    HW211637   6.161   3.953   2.490 -1.0663 -0.5104 -1.0185
 3580SOL     OW11638   1.508   3.301   2.117 -0.2793  0.0390 -0.1623
 3580SOL    HW111639   1.601   3.275   2.091 -0.8258 -0.5237 -1.6485
 3580SOL    HW211640   1.486   3.262   2.206  0.1959 -1.6255 -0.7326
 3581SOL     OW11641   0.365   0.998   1.476  0.1908  1.1330 -0.0360
 3581SOL    HW111642   0.276   0.985   1.433  0.8957  2.0991 -1.8678
 3581SOL    HW211643   0.406   0.909   1.496 -0.6098  0.6727 -0.3913
 3582SOL     OW11644   2.797   5.332   5.909 -0.0183  0.3491  0.2252
 3582SOL    HW111645   2.864   5.377   5.968 -1.5629  0.3869  2.0229
 3582SOL    HW211646   2.826   5.237   5.894  1.5326  0.9463 -0.8627
 3583SOL     OW11647   2.267   6.815   6.386 -0.2779  0.2547 -0.1789
 3583SOL    HW111648   2.252   6.719   6.407  1.2744 -0.2619 -1.2888
 3583SOL    HW211649   2.231   6.871   6.461 -2.2529 -1.0919 -0.0311
 3584SOL     OW11650   4.182   4.319   6.362 -0.1032  0.7725  0.0792
 3584SOL    HW111651   4.250   4.282   6.299 -0.8173 -2.0919  0.8346
 3584SOL    HW211652   4.090   4.302   6.326 -0.5053 -0.2926  1.5023
 3585SOL     OW11653   3.665   0.860   3.542 -0.1368  0.0511 -0.2572
 3585SOL    HW111654   3.615   0.782   3.579  0.6281 -0.5343 -0.4292
 3585SOL    HW211655   3.763   0.840   3.542  0.1092  1.1915  0.1204
 3586SOL     OW11656   0.270   4.124   5.763 -0.2745 -0.0919 -0.2308
 3586SOL    HW111657   0.206   4.157   5.694  0.2641 -1.1306 -1.2601
 3586SOL    HW211658   0.324   4.201   5.798 -0.7866  0.4974 -0.7192
 3587SOL     OW11659   3.148   6.701   6.043  0.1229  0.2732 -0.0682
 3587SOL    HW111660   3.246   6.682   6.035  0.4592  1.7730  0.1024
 3587SOL    HW211661   3.120   6.762   5.968 -0.0604  2.0156  1.3352
 3588SOL     OW11662   5.587   3.028   4.603  0.0934 -0.4185 -0.8917
 3588SOL    HW111663   5.617   3.082   4.524 -0.5370  2.9868  1.0019
 3588SOL    HW211664   5.489   3.011   4.596 -0.0162  0.1318 -0.7122
 3589SOL     OW11665   1.289   4.140   6.075  0.6688  0.7066 -0.4252
 3589SOL    HW111666   1.305   4.093   5.988  0.8735  0.9150 -0.4997
 3589SOL    HW211667   1.190   4.144   6.093  0.5756  1.3878 -1.0531
 3590SOL     OW11668   0.394   4.376   6.387  0.4257 -0.5466  0.0154
 3590SOL    HW111669   0.489   4.393   6.414  0.7714  0.9314 -1.9343
 3590SOL    HW211670   0.345   4.463   6.381 -0.3582 -1.0685 -1.3939
 3591SOL     OW11671   5.935   0.247   6.794 -0.4307 -0.3221  0.7257
 3591SOL    HW111672   5.982   0.161   6.771 -2.1743 -1.2297  0.3317
 3591SOL    HW211673   5.888   0.236   6.881 -2.2064 -0.4610 -0.2115
 3592SOL     OW11674   0.138   6.136   1.405 -0.4749  0.1838  0.1848
 3592SOL    HW111675   0.097   6.054   1.366  0.2477 -0.1447  0.1030
 3592SOL    HW211676   0.169   6.196   1.331 -0.4754  0.2579  0.2444
 3593SOL     OW11677   3.956   1.932   6.208 -0.9850  0.2040 -0.1323
 3593SOL    HW111678   3.914   1.891   6.127  0.5325  2.9691 -2.5356
 3593SOL    HW211679   4.025   1.869   6.245 -1.1235 -0.8113 -1.5252
 3594SOL     OW11680   5.335   4.823   5.859 -0.2211  0.8485 -0.1438
 3594SOL    HW111681   5.414   4.764   5.839  0.1929  1.8711 -1.7641
 3594SOL    HW211682   5.303   4.865   5.774 -1.4935  1.7374  0.7431
 3595SOL     OW11683   3.296   1.574   4.610 -0.0998 -0.3805  0.0968
 3595SOL    HW111684   3.376   1.536   4.564 -0.1686 -0.9526  0.4522
 3595SOL    HW211685   3.322   1.658   4.659  0.1563 -0.2521 -0.2560
 3596SOL     OW11686   3.837   1.832   3.757 -0.1046  0.0170  0.4023
 3596SOL    HW111687   3.769   1.759   3.749  1.3711 -1.3974  0.1685
 3596SOL    HW211688   3.792   1.921   3.749 -1.6671 -0.8926 -1.6717
 3597SOL     OW11689   4.049   3.140   6.365 -0.1589  0.1054 -0.2055
 3597SOL    HW111690   3.973   3.196   6.331 -1.7325 -2.5333 -1.2852
 3597SOL    HW211691   4.013   3.066   6.421  1.6491 -1.2090 -0.7135
 3598SOL     OW11692   5.822   5.629   4.131 -0.1504 -0.3758 -0.4418
 3598SOL    HW111693   5.811   5.726   4.111  1.0570 -0.0454  0.3891
 3598SOL    HW211694   5.807   5.613   4.229 -1.5799 -1.2535 -0.7555
 3599SOL     OW11695   4.262   1.653   0.167  0.2219 -0.3538 -0.0501
 3599SOL    HW111696   4.173   1.615   0.191 -1.4968  2.7189 -0.9235
 3599SOL    HW211697   4.286   1.626   0.074 -0.1453 -0.6146 -0.0713
 3600SOL     OW11698   2.445   4.434   0.117  0.0312  0.6734 -0.0337
 3600SOL    HW111699   2.501   4.441   0.035  1.4680 -0.1396  0.8195
 3600SOL    HW211700   2.467   4.509   0.179  0.9445 -0.1752  0.7155
 3601SOL     OW11701   4.050   1.237   4.401 -0.4591  0.2971  0.3291
 3601SOL    HW111702   4.088   1.323   4.436 -0.2268  0.9186 -1.3541
 3601SOL    HW211703   4.020   1.181   4.478 -0.1514  1.6565  1.4999
 3602SOL     OW11704   1.017   3.397   1.558  0.1220 -0.3183 -0.4507
 3602SOL    HW111705   1.000   3.299   1.557  0.6326 -0.4170 -0.1749
 3602SOL    HW211706   0.978   3.439   1.476  0.9422 -0.9376 -1.1872
 3603SOL     OW11707   1.388   6.349   0.286 -0.0405 -0.1099 -0.1188
 3603SOL    HW111708   1.432   6.429   0.244 -0.4701 -0.6158 -1.6118
 3603SOL    HW211709   1.456   6.296   0.336  0.4918  0.5595 -0.1183
 3604SOL     OW11710   6.540   1.300   3.658 -0.4723  0.4051  0.1875
 3604SOL    HW111711   6.584   1.313   3.569  0.4484  2.8381  0.9058
 3604SOL    HW211712   6.606   1.263   3.723 -0.1584  1.7108  0.6411
 3605SOL     OW11713   0.446   1.088   4.655 -0.8404  0.1160 -0.2482
 3605SOL    HW111714   0.455   1.170   4.598  0.5076 -0.4305 -0.8700
 3605SOL    HW211715   0.469   1.110   4.749  4.3495 -0.3705 -1.1015
 3606SOL     OW11716   1.360   1.751   3.653  0.6525 -0.4518 -0.5394
 3606SOL    HW111717   1.284   1.808   3.622 -0.7689 -0.2772  2.7881
 3606SOL    HW211718   1.397   1.789   3.738  0.4416 -3.7822  1.1674
 3607SOL     OW11719   5.290   1.246   4.742  0.1218 -1.0065  0.0699
 3607SOL    HW111720   5.309   1.152   4.770  0.4394 -1.2411 -0.8969
 3607SOL    HW211721   5.208   1.279   4.788  0.7065 -1.3126  1.3772
 3608SOL     OW11722   3.250   2.613   0.308 -0.2595 -0.2435 -0.0039
 3608SOL    HW111723   3.180   2.584   0.373 -1.7349 -1.0665 -1.8650
 3608SOL    HW211724   3.206   2.656   0.229  1.3133 -1.0106 -1.3489
 3609SOL     OW11725   4.844   6.418   5.996  0.4549  0.2424 -0.1956
 3609SOL    HW111726   4.866   6.372   6.082 -1.6518  0.7802  0.6969
 3609SOL    HW211727   4.904   6.384   5.924  1.2606 -1.3418  1.1474
 3610SOL     OW11728   6.207   0.118   5.738 -0.0783  0.7741 -0.1014
 3610SOL    HW111729   6.300   0.125   5.702 -0.1639  1.6677 -0.1843
 3610SOL    HW211730   6.181   0.206   5.779 -0.7282  0.3966  0.3119
 3611SOL     OW11731   5.335   2.051   2.764  0.4109  0.6830  0.6032
 3611SOL    HW111732   5.384   2.105   2.696  2.2249 -0.2826  1.0821
 3611SOL    HW211733   5.336   2.098   2.852 -0.5430  1.1788  0.3690
 3612SOL     OW11734   6.538   3.591   0.163 -0.1020  0.4430  0.1651
 3612SOL    HW111735   6.522   3.563   0.258  1.1259 -0.6403  0.0833
 3612SOL    HW211736   6.489   3.529   0.101 -0.0889  0.5300  0.0668
 3613SOL     OW11737   4.487   0.342   2.838 -0.2795  0.1151  0.3771
 3613SOL    HW111738   4.513   0.325   2.933  0.5857  0.0809  0.1442
 3613SOL    HW211739   4.552   0.296   2.777  0.4315  1.8604 -0.2463
 3614SOL     OW11740   2.594   6.046   6.286  0.0299 -0.5414  0.7674
 3614SOL    HW111741   2.608   6.086   6.196  0.5393  0.2594  1.1876
 3614SOL    HW211742   2.683   6.027   6.328 -0.2035 -0.9002  1.1135
 3615SOL     OW11743   4.892   4.673   6.049  0.6000 -0.1570  1.1426
 3615SOL    HW111744   4.824   4.690   6.121 -2.0196 -1.1940 -0.9544
 3615SOL    HW211745   4.885   4.579   6.018  1.8616  0.1996 -0.3331
 3616SOL     OW11746   1.659   2.295   6.616  0.4533  0.0279  0.2716
 3616SOL    HW111747   1.591   2.324   6.683  0.0175  0.4560 -0.3413
 3616SOL    HW211748   1.656   2.196   6.606  0.2705 -0.0024  0.6154
 3617SOL     OW11749   2.644   4.649   4.284  0.4382 -0.1520 -0.1578
 3617SOL    HW111750   2.738   4.681   4.274  0.6782 -0.6832  0.3433
 3617SOL    HW211751   2.638   4.589   4.364  0.0366 -1.5101 -1.1735
 3618SOL     OW11752   0.132   4.455   3.780 -0.2389  0.1680 -0.2717
 3618SOL    HW111753   0.223   4.415   3.791  0.3246  0.6985 -2.4937
 3618SOL    HW211754   0.140   4.553   3.761 -1.3337  0.3974  0.3234
 3619SOL     OW11755   0.615   2.069   1.858  0.1621 -0.5708 -0.5978
 3619SOL    HW111756   0.555   2.003   1.811  0.8432 -0.1655 -2.1138
 3619SOL    HW211757   0.710   2.049   1.836  0.4627  0.0599  0.0865
 3620SOL     OW11758   5.268   1.814   6.974  0.1495  0.2457  0.0671
 3620SOL    HW111759   5.185   1.759   6.986  0.8804 -1.3769 -1.6843
 3620SOL    HW211760   5.284   1.869   7.056 -2.9729  1.1309  0.2242
 3621SOL     OW11761   3.791   3.428   2.907  0.1479 -0.3639 -0.2336
 3621SOL    HW111762   3.804   3.369   2.987 -1.4444 -0.0153  0.3111
 3621SOL    HW211763   3.881   3.456   2.873  1.0812 -4.1586 -1.3859
 3622SOL     OW11764   1.783   6.369   6.094 -0.0178  0.0697  0.2629
 3622SOL    HW111765   1.775   6.281   6.141 -0.8610 -0.8203 -1.4358
 3622SOL    HW211766   1.879   6.393   6.085  0.2708 -1.0440  0.1610
 3623SOL     OW11767   1.821   4.545   5.930 -0.1511 -0.2978  0.0442
 3623SOL    HW111768   1.746   4.480   5.927 -0.7442  0.3616  0.2086
 3623SOL    HW211769   1.795   4.623   5.986 -0.1689  0.9424 -1.6031
 3624SOL     OW11770   4.225   1.028   3.763 -0.5683  0.7448  0.0580
 3624SOL    HW111771   4.130   0.996   3.763  0.2592 -2.0250  1.0526
 3624SOL    HW211772   4.244   1.078   3.847 -1.1117  1.2690 -0.1229
 3625SOL     OW11773   5.809   2.833   0.822 -0.3959  0.0363 -0.0379
 3625SOL    HW111774   5.909   2.826   0.822 -0.3543  0.3669 -1.2807
 3625SOL    HW211775   5.782   2.924   0.854 -0.2382  0.3797 -0.8530
 3626SOL     OW11776   6.950   3.888   5.462 -0.2025  0.1798 -0.0931
 3626SOL    HW111777   6.907   3.797   5.462  0.6709 -0.2452  0.2521
 3626SOL    HW211778   6.905   3.946   5.530 -1.4345  0.3425 -1.0180
 3627SOL     OW11779   4.365   1.693   3.949  0.6091 -0.3872  0.2929
 3627SOL    HW111780   4.399   1.775   3.995 -1.6675  1.6643 -1.4532
 3627SOL    HW211781   4.271   1.676   3.977  0.4919 -1.4172 -0.6773
 3628SOL     OW11782   5.476   1.332   6.485 -0.2332 -0.3042 -0.5152
 3628SOL    HW111783   5.385   1.291   6.489 -0.7173  0.8014  1.0776
 3628SOL    HW211784   5.529   1.289   6.413 -1.9467 -1.1121 -1.3596
 3629SOL     OW11785   6.056   0.032   3.217  0.3019  0.4831  0.3810
 3629SOL    HW111786   6.004   0.045   3.133  2.0914  1.6056 -0.6123
 3629SOL    HW211787   6.075   0.121   3.259  0.7430  0.0435  1.1536
 3630SOL     OW11788   6.620   2.480   1.027 -0.0105 -0.2148 -0.5487
 3630SOL    HW111789   6.593   2.384   1.014 -0.2465  0.1188 -2.8960
 3630SOL    HW211790   6.714   2.493   0.995  0.5813  0.0728  1.1743
 3631SOL     OW11791   1.817   5.921   2.122 -0.0805 -0.0491  0.1068
 3631SOL    HW111792   1.872   5.869   2.057 -0.4920 -1.2487  0.6962
 3631SOL    HW211793   1.853   6.014   2.128  0.1703 -0.0030 -1.5709
 3632SOL     OW11794   4.379   1.774   1.595 -0.2616  0.0107 -0.4373
 3632SOL    HW111795   4.327   1.859   1.585 -0.8413 -0.3341 -0.3964
 3632SOL    HW211796   4.357   1.731   1.682  0.6015  0.1945 -0.1207
 3633SOL     OW11797   4.020   6.756   6.505 -0.0644 -0.2792 -0.0164
 3633SOL    HW111798   3.967   6.791   6.428  1.0712 -1.2268 -1.2973
 3633SOL    HW211799   3.970   6.770   6.590 -0.6109  2.3746 -0.6961
 3634SOL     OW11800   3.582   4.424   0.524  0.3337 -0.0709 -0.1925
 3634SOL    HW111801   3.543   4.476   0.448 -0.8863 -1.2298 -0.4109
 3634SOL    HW211802   3.677   4.451   0.537  0.3764  0.6503 -1.6877
 3635SOL     OW11803   1.068   0.926   2.614  0.1015 -0.8052  0.2218
 3635SOL    HW111804   0.998   0.985   2.654 -3.1778 -2.3649 -2.6985
 3635SOL    HW211805   1.096   0.961   2.525  0.8831 -1.7145  0.0893
 3636SOL     OW11806   6.612   5.727   5.661 -0.2707  0.0292 -0.2659
 3636SOL    HW111807   6.526   5.690   5.627 -0.0510 -0.9722  0.2412
 3636SOL    HW211808   6.639   5.806   5.605 -1.3433  0.1551 -0.6250
 3637SOL     OW11809   4.819   6.820   0.291  0.0196  0.6487  0.0878
 3637SOL    HW111810   4.805   6.732   0.336 -0.7428  0.4851 -0.4373
 3637SOL    HW211811   4.912   6.825   0.255 -0.3117 -0.4960 -1.0103
 3638SOL     OW11812   1.510   2.369   5.640  0.2107 -0.6231  0.7470
 3638SOL    HW111813   1.602   2.401   5.619 -0.7165  2.1870  0.5079
 3638SOL    HW211814   1.476   2.417   5.722 -1.5615 -0.4222 -0.0627
 3639SOL     OW11815   2.112   3.511   5.444 -0.0782 -0.4474  0.0327
 3639SOL    HW111816   2.212   3.509   5.445 -0.0715 -0.1826 -0.0664
 3639SOL    HW211817   2.080   3.569   5.369 -0.3118 -0.9371 -0.2478
 3640SOL     OW11818   5.352   1.124   3.424 -0.0186 -0.6373  0.0931
 3640SOL    HW111819   5.338   1.063   3.503 -2.5925  0.0678  0.2787
 3640SOL    HW211820   5.320   1.216   3.447  0.2606 -0.1370 -1.4120
 3641SOL     OW11821   0.169   2.397   1.662 -0.1992 -0.0404 -0.3231
 3641SOL    HW111822   0.263   2.418   1.634 -0.3052 -0.2200 -0.8161
 3641SOL    HW211823   0.124   2.482   1.692 -0.1764  0.2122 -0.9809
 3642SOL     OW11824   2.887   3.695   1.031 -0.2059 -0.0170 -0.1890
 3642SOL    HW111825   2.914   3.667   0.938 -0.6719 -0.0918 -0.3024
 3642SOL    HW211826   2.790   3.677   1.044 -0.1541  0.0621  0.2935
 3643SOL     OW11827   4.374   4.445   5.493 -0.3087  0.3941 -0.3852
 3643SOL    HW111828   4.300   4.378   5.493  0.1380 -0.1113  0.3855
 3643SOL    HW211829   4.353   4.519   5.557  0.1089 -0.0556  0.2864
 3644SOL     OW11830   3.320   1.477   2.033  0.0871 -0.3776  0.5596
 3644SOL    HW111831   3.373   1.551   1.993  0.9274 -0.8449  0.7751
 3644SOL    HW211832   3.230   1.471   1.989  1.1669 -1.2223 -1.6444
 3645SOL     OW11833   1.257   3.812   3.940  0.0279 -0.2926  0.3043
 3645SOL    HW111834   1.196   3.818   3.862  0.5046 -0.2365 -0.0689
 3645SOL    HW211835   1.204   3.790   4.022 -0.6794  1.1158  0.2499
 3646SOL     OW11836   2.046   4.281   3.980  0.4042  0.3230  0.2382
 3646SOL    HW111837   2.126   4.259   4.036  0.2679  1.0970  0.7564
 3646SOL    HW211838   1.997   4.358   4.021 -1.4657 -1.0742  0.7753
 3647SOL     OW11839   2.152   6.290   2.660  0.1487 -0.3855 -0.3315
 3647SOL    HW111840   2.212   6.269   2.582  0.9591  0.0529  0.1664
 3647SOL    HW211841   2.175   6.380   2.696 -0.6583 -0.3140  0.0244
 3648SOL     OW11842   4.786   6.272   2.493  0.1875  0.1505  0.1834
 3648SOL    HW111843   4.816   6.177   2.478 -1.7285 -0.5196  0.2501
 3648SOL    HW211844   4.861   6.334   2.474  0.6671 -1.2041 -2.9420
 3649SOL     OW11845   4.723   4.340   6.631 -0.8536 -0.0769 -0.3156
 3649SOL    HW111846   4.810   4.301   6.600  0.1499 -0.7986  3.0247
 3649SOL    HW211847   4.684   4.281   6.702 -3.3751  0.9965 -0.7199
 3650SOL     OW11848   5.822   6.434   0.672 -0.3504 -0.1935 -0.2123
 3650SOL    HW111849   5.740   6.376   0.672 -0.4266 -0.0866  0.4239
 3650SOL    HW211850   5.893   6.390   0.617 -0.7542 -0.3961 -0.5807
 3651SOL     OW11851   0.582   3.275   6.807  0.8404  0.0468  0.1081
 3651SOL    HW111852   0.681   3.262   6.817  0.8422  0.6835  1.0150
 3651SOL    HW211853   0.565   3.354   6.748  0.8297 -2.0343 -2.9163
 3652SOL     OW11854   6.373   3.758   6.865  0.6442  0.1398 -0.3234
 3652SOL    HW111855   6.470   3.737   6.878  1.3458  3.1994  0.2036
 3652SOL    HW211856   6.350   3.753   6.768  1.2851 -0.6445 -0.4475
 3653SOL     OW11857   1.054   3.437   0.958  0.1280  0.2475 -0.8503
 3653SOL    HW111858   1.033   3.483   0.872 -0.0517  0.5188 -0.6631
 3653SOL    HW211859   1.147   3.459   0.986 -0.2209  1.1420 -0.3584
 3654SOL     OW11860   4.112   5.544   1.788  0.4837  0.1314 -0.3608
 3654SOL    HW111861   4.135   5.603   1.710  0.7156 -0.4712 -0.7569
 3654SOL    HW211862   4.014   5.551   1.807  0.0994 -0.9324 -1.7609
 3655SOL     OW11863   0.102   1.131   5.171  0.6329 -0.0366  0.8400
 3655SOL    HW111864   0.008   1.133   5.138  0.2087  1.0705  2.0130
 3655SOL    HW211865   0.159   1.079   5.107 -0.9273 -1.4909  0.5742
 3656SOL     OW11866   0.542   0.202   6.416 -0.3897  0.0020  0.0764
 3656SOL    HW111867   0.631   0.247   6.413 -0.5523  0.2884 -1.8005
 3656SOL    HW211868   0.554   0.105   6.439  0.1707  0.4667  1.9175
 3657SOL     OW11869   0.698   2.887   5.754  0.2669  0.8799 -0.3756
 3657SOL    HW111870   0.632   2.821   5.718  0.5386  0.7115 -0.5693
 3657SOL    HW211871   0.789   2.846   5.755  0.8305  1.9352 -2.5010
 3658SOL     OW11872   3.075   4.832   6.565 -0.0846  0.5447  0.0320
 3658SOL    HW111873   3.037   4.835   6.473  1.1659 -1.2063 -0.6032
 3658SOL    HW211874   3.149   4.898   6.573 -1.7594  2.4346  0.5980
 3659SOL     OW11875   0.601   2.336   6.635 -0.5339 -0.0941  0.4861
 3659SOL    HW111876   0.518   2.285   6.615 -0.9371 -0.1318  2.1441
 3659SOL    HW211877   0.632   2.316   6.728  0.9458  0.4520  0.1444
 3660SOL     OW11878   5.807   4.211   2.051 -0.0448 -0.0365  0.1284
 3660SOL    HW111879   5.837   4.289   1.996 -2.9875  0.7158 -0.5757
 3660SOL    HW211880   5.785   4.134   1.990  1.3323 -0.9341  0.7080
 3661SOL     OW11881   1.282   3.126   5.985  0.2865  0.0525 -0.3477
 3661SOL    HW111882   1.320   3.132   6.077 -0.2823  0.3721 -0.1265
 3661SOL    HW211883   1.218   3.049   5.980  0.1750  0.1493 -0.4205
 3662SOL     OW11884   3.290   3.839   4.914  0.2233 -0.4393 -0.3995
 3662SOL    HW111885   3.367   3.819   4.854 -0.7305  0.1299 -1.8698
 3662SOL    HW211886   3.269   3.936   4.911  0.0821 -0.4121  0.7960
 3663SOL     OW11887   1.514   2.301   6.880 -0.6295  0.4342  0.1021
 3663SOL    HW111888   1.591   2.318   6.942  1.9082 -0.6336 -2.4796
 3663SOL    HW211889   1.466   2.218   6.910 -0.1103  0.5010  1.1989
 3664SOL     OW11890   2.071   0.428   0.301  0.1117 -0.1699 -0.0038
 3664SOL    HW111891   2.072   0.478   0.388  1.7045 -1.3586  0.7212
 3664SOL    HW211892   2.127   0.476   0.234 -0.0829  0.1003  0.0275
 3665SOL     OW11893   6.088   6.788   5.552 -0.2665 -0.0668  0.2735
 3665SOL    HW111894   6.129   6.855   5.490 -1.7068  0.4025 -0.2159
 3665SOL    HW211895   6.070   6.831   5.641 -0.0914 -0.1454  0.3469
 3666SOL     OW11896   1.546   2.745   2.664  0.4721 -0.2343  0.2202
 3666SOL    HW111897   1.468   2.732   2.726 -0.4275  1.2979 -0.5367
 3666SOL    HW211898   1.563   2.660   2.614  0.5517 -1.1771  1.7968
 3667SOL     OW11899   0.485   6.636   3.104 -0.2439 -0.1002  0.0671
 3667SOL    HW111900   0.517   6.546   3.077 -0.8556  0.1666 -1.6527
 3667SOL    HW211901   0.386   6.633   3.120  0.0165 -0.1376  1.9326
 3668SOL     OW11902   3.967   2.108   2.100 -0.1345 -0.1073 -0.5456
 3668SOL    HW111903   3.881   2.153   2.077 -0.2284  0.5859  1.0598
 3668SOL    HW211904   3.949   2.015   2.132 -0.3068  0.0809 -0.0894
 3669SOL     OW11905   4.156   0.533   4.049  0.4978 -0.3894  0.0977
 3669SOL    HW111906   4.235   0.579   4.006 -0.2570  0.2844 -0.5995
 3669SOL    HW211907   4.074   0.588   4.035  0.2770  0.1424  2.9076
 3670SOL     OW11908   2.038   5.177   1.562  0.0032 -0.2404  0.2108
 3670SOL    HW111909   1.997   5.093   1.526  0.1919  0.0239 -0.6431
 3670SOL    HW211910   2.036   5.248   1.491  1.3161 -0.0176  0.3706
 3671SOL     OW11911   0.468   1.170   6.551  0.0850 -0.5587  0.1472
 3671SOL    HW111912   0.548   1.220   6.583  0.3589 -1.0857  0.3019
 3671SOL    HW211913   0.422   1.127   6.629 -1.5630  1.4444  0.3482
 3672SOL     OW11914   2.230   0.424   3.907  0.0193 -0.4851  0.1653
 3672SOL    HW111915   2.148   0.367   3.909  0.0774 -0.5608  0.4302
 3672SOL    HW211916   2.265   0.428   3.813 -0.8440  0.3595 -0.1273
 3673SOL     OW11917   4.967   1.010   2.272 -0.1859 -0.8484  0.9014
 3673SOL    HW111918   5.067   1.002   2.277 -0.3002 -3.4508  0.4826
 3673SOL    HW211919   4.929   0.924   2.238 -2.6304 -0.1028  1.5890
 3674SOL     OW11920   5.968   6.724   4.836 -0.7974 -0.7929 -0.5174
 3674SOL    HW111921   5.959   6.753   4.932  0.6018 -1.6262 -0.1057
 3674SOL    HW211922   5.989   6.804   4.779 -1.2626 -0.3485 -0.0846
 3675SOL     OW11923   5.066   1.772   5.540  0.0159  0.0029  0.4165
 3675SOL    HW111924   5.056   1.864   5.579 -0.1857 -0.2926  1.0810
 3675SOL    HW211925   5.043   1.704   5.610  1.5780 -0.5989  0.3787
 3676SOL     OW11926   2.480   6.492   5.043  0.4900 -0.9131 -0.4267
 3676SOL    HW111927   2.390   6.485   5.085  0.6391  0.5545  0.1804
 3676SOL    HW211928   2.549   6.456   5.105  0.6607  0.8630  0.4703
 3677SOL     OW11929   6.952   4.421   5.881 -0.2596 -0.4339 -0.0742
 3677SOL    HW111930   6.914   4.443   5.971  0.5256 -0.2920  0.2248
 3677SOL    HW211931   7.014   4.494   5.852  1.9758 -1.9239  0.6949
 3678SOL     OW11932   2.135   6.936   3.079 -0.2745 -0.5158 -0.3201
 3678SOL    HW111933   2.142   7.021   3.027 -0.9684 -0.2546 -0.0035
 3678SOL    HW211934   2.063   6.946   3.149  0.7296 -0.8055  0.7806
 3679SOL     OW11935   3.025   0.285   1.977  0.1716 -0.1637 -0.1459
 3679SOL    HW111936   2.994   0.209   2.034 -0.8769 -0.5307 -1.1529
 3679SOL    HW211937   2.965   0.293   1.897  1.0177  0.9378 -0.7009
 3680SOL     OW11938   4.022   6.942   4.617 -0.5049 -0.0996  0.0658
 3680SOL    HW111939   4.086   6.943   4.695  0.6006 -0.3527 -0.8078
 3680SOL    HW211940   4.000   6.848   4.594  0.6895 -0.1138 -1.1099
 3681SOL     OW11941   0.717   5.883   2.616 -0.3460  0.2605 -0.8641
 3681SOL    HW111942   0.637   5.881   2.556  1.3334  2.0538 -3.3876
 3681SOL    HW211943   0.716   5.969   2.668 -0.7084 -0.3188  0.0960
 3682SOL     OW11944   4.592   1.306   3.192  0.0912  0.2472  0.0534
 3682SOL    HW111945   4.495   1.285   3.190  0.4811 -1.6795 -0.5307
 3682SOL    HW211946   4.624   1.330   3.100 -0.0234  2.0557  0.4393
 3683SOL     OW11947   4.887   2.789   1.771 -0.4541 -0.8678  0.3340
 3683SOL    HW111948   4.808   2.829   1.725  0.1841  1.2487  0.9656
 3683SOL    HW211949   4.872   2.791   1.870 -0.5530 -2.6247  0.3878
 3684SOL     OW11950   6.634   5.378   5.412 -0.3803  0.6744 -0.2050
 3684SOL    HW111951   6.581   5.302   5.374 -0.7360  1.0078 -0.3807
 3684SOL    HW211952   6.600   5.464   5.376  0.2302  0.9022 -0.2544
 3685SOL     OW11953   0.129   0.103   3.425 -0.0241  0.8848  0.6245
 3685SOL    HW111954   0.123   0.181   3.362 -1.6636  2.0286  2.0862
 3685SOL    HW211955   0.225   0.090   3.453  0.4526  1.5392 -0.6125
 3686SOL     OW11956   6.276   5.146   0.495 -0.1733 -0.5863 -0.0400
 3686SOL    HW111957   6.186   5.142   0.450 -2.5419 -0.1994  4.1811
 3686SOL    HW211958   6.308   5.053   0.514 -0.4075 -0.7017 -0.2073
 3687SOL     OW11959   0.625   5.672   4.184 -0.3959  0.7792  0.3577
 3687SOL    HW111960   0.650   5.598   4.122  0.1665 -0.2217  1.7391
 3687SOL    HW211961   0.708   5.720   4.213 -0.7099  1.6345 -0.0963
 3688SOL     OW11962   0.518   2.024   1.255 -0.1245 -0.2705 -0.5352
 3688SOL    HW111963   0.571   1.953   1.209 -0.6213 -0.2773 -1.1208
 3688SOL    HW211964   0.426   1.990   1.274  0.5066 -0.7996  1.8691
 3689SOL     OW11965   3.829   4.236   5.232 -0.4443 -0.2886 -0.0530
 3689SOL    HW111966   3.787   4.318   5.272 -1.5758 -0.9216  0.0866
 3689SOL    HW211967   3.799   4.226   5.137  0.0088 -0.3361 -0.1962
 3690SOL     OW11968   6.892   5.604   0.257 -0.6244  0.4765 -0.0685
 3690SOL    HW111969   6.913   5.557   0.171  0.2564 -0.9973  0.8960
 3690SOL    HW211970   6.966   5.668   0.278 -1.2030  1.3916 -0.7527
 3691SOL     OW11971   4.697   2.180   1.892 -0.3578  0.7341 -0.7282
 3691SOL    HW111972   4.734   2.232   1.969  0.6893  1.0344 -1.4146
 3691SOL    HW211973   4.703   2.082   1.913  2.9351  0.6214 -1.6450
 3692SOL     OW11974   2.353   1.758   0.281 -0.2838  0.3760  0.4378
 3692SOL    HW111975   2.271   1.737   0.335 -0.3640  0.2548  0.2691
 3692SOL    HW211976   2.382   1.677   0.231 -0.8423  0.7583 -0.5407
 3693SOL     OW11977   1.140   0.828   2.933 -0.6656  0.0748 -0.3431
 3693SOL    HW111978   1.121   0.906   2.872 -2.4359 -0.5476 -0.6343
 3693SOL    HW211979   1.232   0.838   2.971  1.3310 -0.3257 -4.4184
 3694SOL     OW11980   5.735   5.775   2.269 -0.0218 -0.0403  0.0706
 3694SOL    HW111981   5.666   5.703   2.257 -0.1769  0.1644 -0.3114
 3694SOL    HW211982   5.809   5.741   2.327  0.2285 -0.7379 -0.6308
 3695SOL     OW11983   5.330   3.509   5.502  0.7138  0.0705  0.6348
 3695SOL    HW111984   5.316   3.513   5.601 -0.0722 -1.1469  0.6014
 3695SOL    HW211985   5.245   3.532   5.455  0.1504 -2.3357  0.3334
 3696SOL     OW11986   3.060   0.330   5.832 -0.4965  0.1603  0.3210
 3696SOL    HW111987   2.987   0.286   5.885 -0.0467 -1.4148 -0.2966
 3696SOL    HW211988   3.062   0.290   5.740 -0.5600  2.0714 -0.5682
 3697SOL     OW11989   6.644   5.682   4.227  0.7339  0.0075 -0.2583
 3697SOL    HW111990   6.591   5.672   4.142  0.0514 -0.1769  0.1810
 3697SOL    HW211991   6.625   5.772   4.267  1.3453  0.2434 -0.4926
 3698SOL     OW11992   0.022   0.705   3.848  0.2005 -0.1707  0.0043
 3698SOL    HW111993   0.022   0.783   3.786  1.0701 -0.0841  0.1022
 3698SOL    HW211994   0.100   0.711   3.910  0.5434 -1.3512 -0.2826
 3699SOL     OW11995   4.662   0.619   3.010 -0.0196 -0.2516 -0.0607
 3699SOL    HW111996   4.649   0.552   3.083 -1.0698 -1.0168 -0.9178
 3699SOL    HW211997   4.613   0.703   3.033 -1.0068 -0.7661 -0.2223
 3700SOL     OW11998   0.751   4.758   3.524 -0.4207 -0.2515 -0.2628
 3700SOL    HW111999   0.825   4.750   3.457 -1.4317  0.3889 -1.5235
 3700SOL    HW212000   0.753   4.680   3.586 -0.3087 -1.6900 -1.9754
 3701SOL     OW12001   6.294   6.814   0.327  0.0708 -0.1088  0.0995
 3701SOL    HW112002   6.322   6.904   0.361 -0.0831  0.5080 -1.3286
 3701SOL    HW212003   6.375   6.763   0.297  0.3085 -1.0047  2.0855
 3702SOL     OW12004   6.520   4.297   1.928  0.4251 -0.7628  0.0936
 3702SOL    HW112005   6.601   4.325   1.877  0.2297 -0.3222  0.0204
 3702SOL    HW212006   6.439   4.340   1.888  0.3673  0.3939  1.3736
 3703SOL     OW12007   0.617   2.267   3.362 -0.6159  0.0341 -0.3075
 3703SOL    HW112008   0.634   2.186   3.306  0.0075 -0.0682  0.0162
 3703SOL    HW212009   0.533   2.312   3.332 -2.6071 -2.3306  1.3411
 3704SOL     OW12010   4.900   6.808   1.626 -0.1251  0.4759  0.3525
 3704SOL    HW112011   4.953   6.737   1.671 -0.6128  0.4121  0.8312
 3704SOL    HW212012   4.826   6.838   1.686  0.1632  1.4916  0.2204
 3705SOL     OW12013   1.164   4.695   5.206  0.2921 -0.0067  0.3751
 3705SOL    HW112014   1.106   4.615   5.191  1.7774 -1.1596  0.5817
 3705SOL    HW212015   1.156   4.724   5.301 -1.6489  1.2872 -0.1076
 3706SOL     OW12016   0.731   1.713   6.651 -0.6039  0.1285 -0.4471
 3706SOL    HW112017   0.715   1.773   6.573  1.6641  1.6317  0.1301
 3706SOL    HW212018   0.800   1.644   6.627  0.3169  0.7760  0.2741
 3707SOL     OW12019   1.418   3.545   5.158  0.9715 -0.0605  0.4243
 3707SOL    HW112020   1.467   3.515   5.240  0.7569 -2.7079 -0.3452
 3707SOL    HW212021   1.326   3.505   5.157  1.0281 -0.1983 -1.1960
 3708SOL     OW12022   0.861   6.482   0.147 -0.6526 -0.0701  0.0102
 3708SOL    HW112023   0.955   6.493   0.179 -0.1684  1.2639 -1.7524
 3708SOL    HW212024   0.800   6.537   0.204 -0.2949 -0.3690  0.7040
 3709SOL     OW12025   2.119   0.900   2.677 -0.5451 -0.0172 -0.0997
 3709SOL    HW112026   2.065   0.954   2.612 -3.0017 -1.6252  0.4830
 3709SOL    HW212027   2.060   0.835   2.724  2.1115 -2.6566 -0.1294
 3710SOL     OW12028   1.710   3.493   5.141  1.1195  0.3811 -0.1176
 3710SOL    HW112029   1.662   3.487   5.053 -0.7460 -0.3654  0.9043
 3710SOL    HW212030   1.727   3.588   5.163 -2.3124  0.9566  0.6539
 3711SOL     OW12031   2.991   2.572   5.746  0.1552 -0.1515  0.2160
 3711SOL    HW112032   3.012   2.489   5.695  1.5051  0.9826 -1.1783
 3711SOL    HW212033   3.005   2.652   5.687 -1.7506  1.0730  1.2905
 3712SOL     OW12034   3.788   4.877   1.801  0.2144 -0.1746 -0.1704
 3712SOL    HW112035   3.700   4.851   1.842  0.2925 -0.3057 -0.0844
 3712SOL    HW212036   3.780   4.968   1.761 -0.4733 -0.9020 -1.7554
 3713SOL     OW12037   3.560   3.531   1.311 -0.0868 -0.1780  0.4005
 3713SOL    HW112038   3.467   3.548   1.278  0.4492 -0.3917 -1.2924
 3713SOL    HW212039   3.572   3.432   1.325  0.9029 -0.6004 -2.7738
 3714SOL     OW12040   6.136   6.425   0.380  0.0500  0.1617 -0.5663
 3714SOL    HW112041   6.148   6.348   0.318  2.5270  1.0087 -1.2811
 3714SOL    HW212042   6.084   6.497   0.335 -0.4078 -0.2393 -0.6816
 3715SOL     OW12043   6.384   3.985   2.854  0.4721  0.0358  0.7559
 3715SOL    HW112044   6.341   3.923   2.920 -0.0033  0.0860  0.4891
 3715SOL    HW212045   6.474   3.949   2.830  0.4495 -0.2370  1.0623
 3716SOL     OW12046   6.460   4.440   4.844  0.8819  0.3054 -0.0530
 3716SOL    HW112047   6.550   4.421   4.805  1.1629  0.2515  0.6047
 3716SOL    HW212048   6.454   4.400   4.935  0.0599 -0.0058 -0.2294
 3717SOL     OW12049   2.580   5.126   2.103  0.7111  0.0053 -0.3500
 3717SOL    HW112050   2.611   5.037   2.138  0.0894  0.0671  0.3873
 3717SOL    HW212051   2.484   5.140   2.127  0.3436  0.2080 -1.8317
 3718SOL     OW12052   4.730   5.970   1.638  0.4145  0.4968  0.3366
 3718SOL    HW112053   4.787   6.029   1.695  0.1538 -0.0284  1.1637
 3718SOL    HW212054   4.646   5.946   1.688 -0.3635  0.9582 -0.7231
 3719SOL     OW12055   3.711   4.934   6.673 -0.1603  0.1484 -0.8048
 3719SOL    HW112056   3.717   4.968   6.579  1.1036 -0.0610 -0.8060
 3719SOL    HW212057   3.692   5.011   6.734 -3.0120  0.0409 -1.3929
 3720SOL     OW12058   2.488   1.895   6.591 -0.3082 -0.2847  0.1357
 3720SOL    HW112059   2.419   1.835   6.550  0.3372 -2.0522  1.4630
 3720SOL    HW212060   2.445   1.954   6.659 -0.7457 -0.3423 -0.0924
 3721SOL     OW12061   5.095   6.769   3.578  0.2599  0.6184 -0.1924
 3721SOL    HW112062   5.096   6.687   3.635  0.1325 -1.5906 -3.0916
 3721SOL    HW212063   5.060   6.846   3.630 -0.3397 -1.3196  2.4787
 3722SOL     OW12064   4.012   6.533   1.354 -0.2719  0.3480  0.0724
 3722SOL    HW112065   4.050   6.625   1.350 -0.9168  0.5933 -0.6633
 3722SOL    HW212066   3.956   6.524   1.436 -1.3198  1.0637 -0.5455
 3723SOL     OW12067   3.131   3.810   0.370 -0.1937 -0.3495 -0.5133
 3723SOL    HW112068   3.093   3.758   0.293  0.0161 -0.0481 -0.8236
 3723SOL    HW212069   3.167   3.897   0.337 -0.5104 -0.0186  0.0017
 3724SOL     OW12070   5.366   3.640   3.890 -0.2028 -0.3522  0.0813
 3724SOL    HW112071   5.347   3.707   3.962  0.4890 -2.0043  1.8787
 3724SOL    HW212072   5.463   3.642   3.867  0.9761 -3.8186  3.6376
 3725SOL     OW12073   0.653   4.998   1.153  0.0821 -0.9268 -0.3105
 3725SOL    HW112074   0.573   5.013   1.095 -0.6192  2.7542  1.3341
 3725SOL    HW212075   0.719   5.071   1.138  0.7573 -0.9758  2.0200
 3726SOL     OW12076   5.598   3.654   6.409  0.3613  0.7016 -0.2292
 3726SOL    HW112077   5.604   3.738   6.354  0.1892  0.3855 -0.7476
 3726SOL    HW212078   5.636   3.578   6.357 -0.5711  0.2387 -0.2529
 3727SOL     OW12079   6.590   0.719   2.994 -0.3198 -0.3053  0.4933
 3727SOL    HW112080   6.549   0.807   2.973  1.5918  0.4918 -0.1678
 3727SOL    HW212081   6.519   0.653   3.018 -1.7615  1.4970  1.3694
 3728SOL     OW12082   0.275   5.624   0.125 -0.8864 -0.3382 -0.2757
 3728SOL    HW112083   0.202   5.688   0.105 -1.6005 -1.3549 -1.0743
 3728SOL    HW212084   0.341   5.625   0.049  0.0734  0.7476  0.5506
 3729SOL     OW12085   5.993   6.660   6.843  0.3342  0.0086 -0.0480
 3729SOL    HW112086   6.083   6.702   6.858  0.4735 -0.1861 -0.3337
 3729SOL    HW212087   5.922   6.730   6.854  0.5725  0.3657 -0.6505
 3730SOL     OW12088   6.778   0.191   6.102  0.2455  0.5358 -0.1548
 3730SOL    HW112089   6.823   0.106   6.128  0.8956  0.4984 -1.3333
 3730SOL    HW212090   6.812   0.266   6.158 -1.3579 -0.1740  1.8750
 3731SOL     OW12091   4.839   1.098   2.518  0.5745  0.3405 -0.7556
 3731SOL    HW112092   4.897   1.112   2.437 -0.5152  1.1835 -1.4257
 3731SOL    HW212093   4.767   1.167   2.519  1.3761  1.2538  1.7204
 3732SOL     OW12094   4.819   3.319   1.258  0.1112 -0.1422 -0.2918
 3732SOL    HW112095   4.804   3.300   1.161 -2.3165  1.1903 -0.2398
 3732SOL    HW212096   4.868   3.406   1.267  0.5875 -0.4051 -0.3147
 3733SOL     OW12097   2.283   0.883   3.976 -0.6760  0.0863  0.4613
 3733SOL    HW112098   2.336   0.893   4.061  0.6150 -0.5317 -0.2499
 3733SOL    HW212099   2.189   0.854   3.999 -0.5244  0.4984  1.7019
 3734SOL     OW12100   3.529   0.844   1.574  0.4618  0.3011 -0.0718
 3734SOL    HW112101   3.498   0.911   1.642 -0.1748  1.0191 -1.0340
 3734SOL    HW212102   3.463   0.770   1.567  0.2013  0.5510 -0.3353
 3735SOL     OW12103   2.398   1.854   1.945  0.0053 -0.2559 -0.0368
 3735SOL    HW112104   2.461   1.777   1.951 -1.5495 -1.5679 -0.0323
 3735SOL    HW212105   2.356   1.871   2.034  0.6416  0.8908  0.0668
 3736SOL     OW12106   1.873   0.349   0.156  0.6694  0.0406  0.3003
 3736SOL    HW112107   1.782   0.359   0.197  1.1639  2.8281  0.9913
 3736SOL    HW212108   1.942   0.387   0.219  1.9665  0.4980 -1.3149
 3737SOL     OW12109   5.611   1.267   4.754  0.3694 -0.2486  0.5599
 3737SOL    HW112110   5.550   1.309   4.820  0.4050  1.9682 -0.7298
 3737SOL    HW212111   5.564   1.255   4.667  0.7726 -1.7379  0.5069
 3738SOL     OW12112   2.326   1.278   5.764  0.6633 -0.5345  1.1035
 3738SOL    HW112113   2.227   1.287   5.768  0.5226 -1.0078 -0.6076
 3738SOL    HW212114   2.367   1.369   5.754  0.0315 -0.4874 -3.0746
 3739SOL     OW12115   4.007   0.260   1.094 -0.5836 -0.1770  0.3120
 3739SOL    HW112116   3.980   0.356   1.089  2.0524  0.5938 -0.9890
 3739SOL    HW212117   4.096   0.253   1.139  0.2404 -1.7634 -1.4561
 3740SOL     OW12118   5.465   1.381   4.975  0.8776 -0.5856  0.5057
 3740SOL    HW112119   5.499   1.452   5.035 -2.8611  0.2262  1.9372
 3740SOL    HW212120   5.470   1.292   5.021  0.0399 -0.2956  1.1704
 3741SOL     OW12121   6.430   5.712   1.615 -0.0682  0.2747  0.7007
 3741SOL    HW112122   6.441   5.616   1.637 -0.5473 -0.3873 -1.6227
 3741SOL    HW212123   6.515   5.749   1.578 -0.5593  0.0196 -0.7466
 3742SOL     OW12124   4.378   4.579   0.119 -0.1940 -0.5051  0.2051
 3742SOL    HW112125   4.309   4.535   0.062 -1.2551  0.1947  0.9166
 3742SOL    HW212126   4.346   4.670   0.146  0.7679 -0.3837  1.0030
 3743SOL     OW12127   2.786   4.440   0.085 -0.2836 -0.4378  0.6271
 3743SOL    HW112128   2.852   4.368   0.064  1.3299  0.7208  1.5457
 3743SOL    HW212129   2.719   4.446   0.010  0.3768 -1.9153 -0.1365
 3744SOL     OW12130   5.830   4.650   1.059 -0.1257  0.5428 -0.7675
 3744SOL    HW112131   5.865   4.610   1.144 -0.2319  0.8385 -0.5856
 3744SOL    HW212132   5.781   4.735   1.079 -2.3418 -0.6403 -0.8204
 3745SOL     OW12133   4.640   0.957   1.605 -0.5505  0.0598  0.5823
 3745SOL    HW112134   4.647   0.981   1.702 -3.0939 -1.0002  1.1019
 3745SOL    HW212135   4.637   1.040   1.550 -1.2306  0.7489  1.6235
 3746SOL     OW12136   5.041   7.001   4.135  0.1418 -0.1616 -0.2586
 3746SOL    HW112137   5.084   7.086   4.164 -2.1119  0.4833  1.4513
 3746SOL    HW212138   5.108   6.945   4.087  1.7891  2.3877 -1.1314
 3747SOL     OW12139   1.243   4.199   4.274 -0.2784  0.0719  0.5247
 3747SOL    HW112140   1.204   4.141   4.203  2.8332  0.6302 -1.8376
 3747SOL    HW212141   1.256   4.144   4.357 -2.1153 -1.1374  0.1006
 3748SOL     OW12142   4.514   1.253   2.553  0.3860 -0.0225  0.5723
 3748SOL    HW112143   4.484   1.276   2.460  1.3376 -0.5947  0.0980
 3748SOL    HW212144   4.510   1.334   2.610  0.5029  0.5254 -0.1758
 3749SOL     OW12145   0.032   5.065   1.292 -0.0349  0.2546 -0.2498
 3749SOL    HW112146   0.064   4.971   1.293  4.0661  1.4600 -0.1516
 3749SOL    HW212147   0.020   5.095   1.198 -0.4483 -0.0822 -0.3070
 3750SOL     OW12148   0.415   3.380   2.857 -0.2290  0.6747 -0.4801
 3750SOL    HW112149   0.434   3.282   2.867 -0.5455  0.8343  2.8393
 3750SOL    HW212150   0.401   3.401   2.760  0.3708 -2.4278 -1.3711
 3751SOL     OW12151   1.910   5.764   0.427 -0.4808 -0.1334 -0.0582
 3751SOL    HW112152   1.979   5.692   0.419  0.5419  0.9325 -1.2638
 3751SOL    HW212153   1.889   5.800   0.336 -2.1732  0.0168  0.3625
 3752SOL     OW12154   1.393   6.340   5.697  0.2351 -0.1709  0.0755
 3752SOL    HW112155   1.491   6.318   5.699  0.3595  0.4272  0.8199
 3752SOL    HW212156   1.373   6.409   5.766 -0.7583 -0.4554  0.0832
 3753SOL     OW12157   1.395   2.680   6.521 -0.0270  0.3450 -0.4745
 3753SOL    HW112158   1.337   2.674   6.602 -0.3332 -1.6279 -0.7775
 3753SOL    HW212159   1.406   2.589   6.482  1.9073  0.9327 -1.4133
 3754SOL     OW12160   6.782   0.339   2.358 -0.1800  0.0223 -0.4793
 3754SOL    HW112161   6.711   0.406   2.339  0.6268  0.9584 -0.2670
 3754SOL    HW212162   6.745   0.247   2.347 -1.0636  0.4941 -1.6675
 3755SOL     OW12163   3.919   1.528   4.345 -0.0933  0.0729  0.3981
 3755SOL    HW112164   3.930   1.627   4.349 -0.2091  0.0769  0.6023
 3755SOL    HW212165   3.996   1.484   4.392  3.0233 -0.0879 -4.2244
 3756SOL     OW12166   4.050   0.995   0.788  0.1691  0.1485  0.1339
 3756SOL    HW112167   4.107   1.003   0.706 -1.3604 -1.0413 -1.0833
 3756SOL    HW212168   4.056   0.902   0.824 -0.3613  0.2435  0.4727
 3757SOL     OW12169   4.010   4.620   6.089 -0.9239 -0.0969 -0.3426
 3757SOL    HW112170   3.910   4.617   6.079 -1.0387 -0.5028  0.8538
 3757SOL    HW212171   4.047   4.529   6.071 -0.4745  0.5751 -3.3501
 3758SOL     OW12172   1.147   1.588   6.741 -0.4394 -0.3526 -0.5817
 3758SOL    HW112173   1.126   1.685   6.729  0.7177 -0.0593 -0.3827
 3758SOL    HW212174   1.144   1.543   6.652  0.7647  0.2523 -0.9476
 3759SOL     OW12175   5.686   2.684   1.895  0.3156  0.2079  0.2238
 3759SOL    HW112176   5.671   2.776   1.930 -0.3862 -0.1137  0.7818
 3759SOL    HW212177   5.705   2.622   1.971  0.2215 -0.2159 -0.0940
 3760SOL     OW12178   3.050   0.989   1.113  0.5264 -0.3998  0.6074
 3760SOL    HW112179   3.127   0.927   1.105  1.9785  1.4529 -0.4681
 3760SOL    HW212180   3.081   1.083   1.101 -1.5776  0.5874  2.2512
 3761SOL     OW12181   6.501   0.930   5.727  0.3984 -0.0377  0.0941
 3761SOL    HW112182   6.466   1.011   5.679  1.9723  0.4825 -0.2386
 3761SOL    HW212183   6.486   0.849   5.670  0.1153  0.2306 -0.2188
 3762SOL     OW12184   0.774   4.508   0.321  0.0197 -0.0559  0.0682
 3762SOL    HW112185   0.754   4.604   0.340  1.7275 -0.0060  1.8730
 3762SOL    HW212186   0.796   4.461   0.406  0.0131 -1.8770 -0.8912
 3763SOL     OW12187   2.412   0.319   5.299 -0.1651 -0.2299 -0.0768
 3763SOL    HW112188   2.428   0.344   5.395  2.5299  0.4533 -0.6410
 3763SOL    HW212189   2.463   0.380   5.239 -0.4533 -1.6801 -1.8994
 3764SOL     OW12190   1.321   1.305   5.399  0.2361  0.3454  0.0178
 3764SOL    HW112191   1.352   1.310   5.304  0.1396 -0.2235 -0.0427
 3764SOL    HW212192   1.363   1.227   5.445 -0.7181 -0.1531  0.0744
 3765SOL     OW12193   6.808   1.713   2.838 -0.2712  0.2149  0.6985
 3765SOL    HW112194   6.800   1.778   2.913 -0.1467 -0.6740  1.4907
 3765SOL    HW212195   6.737   1.734   2.770 -0.8814  0.5551  1.4179
 3766SOL     OW12196   2.547   1.625   5.483  0.4602  0.4357 -0.4386
 3766SOL    HW112197   2.619   1.612   5.551  1.2043  1.4506 -1.0162
 3766SOL    HW212198   2.461   1.588   5.519  0.5405  1.9960  1.5855
 3767SOL     OW12199   4.956   5.244   6.476  0.1310  0.0958 -0.0714
 3767SOL    HW112200   4.865   5.203   6.471 -0.5917  1.6790 -0.4831
 3767SOL    HW212201   5.005   5.226   6.391  0.1634 -0.6483  0.0975
 3768SOL     OW12202   3.664   6.254   6.873  0.6277  0.6131  0.3507
 3768SOL    HW112203   3.570   6.246   6.907  0.7838 -1.9175  0.3963
 3768SOL    HW212204   3.692   6.167   6.833  2.7241  1.5447 -0.3455
 3769SOL     OW12205   3.280   5.251   3.612  0.1147  0.1695 -0.0422
 3769SOL    HW112206   3.268   5.224   3.516  2.5989 -0.3273 -0.2877
 3769SOL    HW212207   3.272   5.171   3.671 -0.1529  0.2538  0.0367
 3770SOL     OW12208   2.047   2.562   0.603 -0.3686 -0.0728 -0.3606
 3770SOL    HW112209   2.023   2.492   0.669 -0.8232 -0.7840 -1.2569
 3770SOL    HW212210   2.059   2.650   0.650  2.4136 -1.1238  1.1167
 3771SOL     OW12211   6.665   3.129   0.145  0.1732 -0.2356  0.5328
 3771SOL    HW112212   6.585   3.106   0.201 -0.6831  0.8870 -0.1767
 3771SOL    HW212213   6.643   3.117   0.049  0.3401  1.4826  0.2481
 3772SOL     OW12214   4.773   0.832   3.251  0.1768 -0.0657  0.0892
 3772SOL    HW112215   4.849   0.891   3.278 -0.0999  0.8634 -1.0346
 3772SOL    HW212216   4.809   0.747   3.212  0.6677  0.4886 -0.7083
 3773SOL     OW12217   1.173   2.846   2.305 -0.6470  0.3262 -0.2788
 3773SOL    HW112218   1.086   2.800   2.286  0.7591 -1.8175 -2.1285
 3773SOL    HW212219   1.243   2.778   2.326  1.0259  1.8143 -0.7681
 3774SOL     OW12220   2.704   1.929   0.981  0.4599 -0.0902  0.9277
 3774SOL    HW112221   2.604   1.925   0.988  0.3347 -1.7626 -0.7311
 3774SOL    HW212222   2.738   2.011   1.026 -1.8007  1.3385  0.2022
 3775SOL     OW12223   4.718   1.707   0.759 -0.1423 -0.1019 -0.2896
 3775SOL    HW112224   4.790   1.663   0.812  1.2412 -0.4995 -2.3746
 3775SOL    HW212225   4.682   1.643   0.691 -0.3616  0.9929 -1.2443
 3776SOL     OW12226   2.027   0.254   6.986 -0.2183 -0.2875 -0.5268
 3776SOL    HW112227   1.973   0.298   7.058 -0.5361 -0.4273 -0.6811
 3776SOL    HW212228   2.109   0.213   7.027 -0.8230 -1.0991 -0.1085
 3777SOL     OW12229   0.166   3.419   4.308  0.8522  0.6072 -0.3106
 3777SOL    HW112230   0.245   3.406   4.249  0.2951 -0.4713 -0.8432
 3777SOL    HW212231   0.083   3.394   4.259  0.1922  1.4813  0.3244
 3778SOL     OW12232   2.569   6.434   0.923 -0.1136  0.1143  0.0774
 3778SOL    HW112233   2.629   6.425   1.003  0.1269  0.7921 -0.0197
 3778SOL    HW212234   2.624   6.436   0.840 -0.4387 -2.0402 -0.2478
 3779SOL     OW12235   3.109   1.254   1.007 -0.0091  0.0875  0.3807
 3779SOL    HW112236   3.157   1.268   1.094  0.1748  0.5357  0.2094
 3779SOL    HW212237   3.086   1.343   0.967 -1.6239 -0.1000  0.8101
 3780SOL     OW12238   0.643   1.763   4.418  0.2801  0.5040  0.3633
 3780SOL    HW112239   0.716   1.704   4.454 -0.4594 -1.7128 -1.4896
 3780SOL    HW212240   0.556   1.740   4.463 -0.0717 -0.0988 -0.5952
 3781SOL     OW12241   1.957   6.582   2.968  0.0217  0.3997 -0.4042
 3781SOL    HW112242   1.936   6.509   3.033 -0.1274  1.1590  0.4190
 3781SOL    HW212243   1.875   6.604   2.916  0.3079 -0.6753 -1.3564
 3782SOL     OW12244   4.594   6.282   3.002  0.3223 -0.5760 -0.2562
 3782SOL    HW112245   4.496   6.266   3.013  0.2740  0.8853  1.8980
 3782SOL    HW212246   4.608   6.354   2.934 -0.2248  0.3378  0.5654
 3783SOL     OW12247   4.742   3.946   6.690 -0.5641 -0.2269 -0.0779
 3783SOL    HW112248   4.726   4.022   6.753  1.3005  0.6086 -0.5477
 3783SOL    HW212249   4.795   3.875   6.737 -0.6901 -0.4034 -0.2009
 3784SOL     OW12250   6.407   2.194   3.495 -0.2783 -0.4272  0.3975
 3784SOL    HW112251   6.391   2.201   3.593 -1.8633  0.0485  0.1213
 3784SOL    HW212252   6.411   2.285   3.455 -0.3179 -0.6342 -0.0834
 3785SOL     OW12253   6.324   6.124   1.291 -0.8327  0.1088 -0.7268
 3785SOL    HW112254   6.412   6.170   1.299 -1.0104  0.3005  0.2940
 3785SOL    HW212255   6.311   6.063   1.369 -1.4232 -0.2412 -1.0892
 3786SOL     OW12256   1.873   5.726   5.977 -0.0806 -0.5994  0.0423
 3786SOL    HW112257   1.785   5.678   5.985 -0.7033  0.6651  1.4941
 3786SOL    HW212258   1.856   5.820   5.946  0.5936 -0.0044  1.3611
 3787SOL     OW12259   4.980   0.357   4.168  0.3246  0.0510  0.2231
 3787SOL    HW112260   5.024   0.387   4.083  0.8787 -2.3589 -0.4177
 3787SOL    HW212261   4.884   0.338   4.151  0.4317 -0.4148  0.1210
 3788SOL     OW12262   0.000   2.412   3.518  0.1832 -0.2593  0.1105
 3788SOL    HW112263   0.034   2.448   3.605  0.5037 -0.1725 -0.0498
 3788SOL    HW212264   0.051   2.329   3.494 -1.3729 -1.5616  1.0949
 3789SOL     OW12265   1.765   5.262   6.620  0.6416 -1.0087 -0.3458
 3789SOL    HW112266   1.769   5.296   6.526 -0.2300 -0.5321 -0.2163
 3789SOL    HW212267   1.792   5.334   6.683  0.3975 -1.0646 -0.1760
 3790SOL     OW12268   6.855   4.107   2.847 -0.6187 -0.4147 -0.7001
 3790SOL    HW112269   6.770   4.136   2.803 -0.2342 -1.0131 -1.8620
 3790SOL    HW212270   6.929   4.170   2.821 -0.8865  0.7603  1.1758
 3791SOL     OW12271   0.022   0.332   2.258  0.4820  0.0229  0.0915
 3791SOL    HW112272   0.049   0.237   2.247  2.8497  0.7382 -1.1138
 3791SOL    HW212273  -0.068   0.337   2.301 -0.3771 -2.7659 -1.1372
 3792SOL     OW12274   0.556   4.734   4.643  0.3294 -0.1552 -0.4986
 3792SOL    HW112275   0.525   4.820   4.601 -2.9477  0.0761  1.9868
 3792SOL    HW212276   0.517   4.657   4.593  0.4043 -0.0879 -0.6645
 3793SOL     OW12277   0.222   4.856   1.881 -0.3060  0.0003  0.0702
 3793SOL    HW112278   0.163   4.797   1.936  0.3508 -0.1582  0.6266
 3793SOL    HW212279   0.176   4.880   1.796 -1.7030  0.9763  1.0716
 3794SOL     OW12280   3.775   1.459   4.557  0.0430 -0.6162 -0.2346
 3794SOL    HW112281   3.835   1.484   4.481  0.5069 -0.8567  0.0541
 3794SOL    HW212282   3.723   1.377   4.532  0.1870 -0.6897 -0.2936
 3795SOL     OW12283   2.697   6.416   1.564  0.1949  1.1407  0.1619
 3795SOL    HW112284   2.783   6.455   1.598 -0.2210  2.4688 -0.2707
 3795SOL    HW212285   2.717   6.342   1.500  1.1484  3.4855 -2.4305
 3796SOL     OW12286   0.540   2.674   1.389  0.4525 -0.2534  0.5013
 3796SOL    HW112287   0.609   2.607   1.360  2.3701  1.4502  0.8940
 3796SOL    HW212288   0.572   2.721   1.471 -0.3302  1.8826 -0.3710
 3797SOL     OW12289   4.731   5.870   0.977  0.2753  0.4015 -0.6194
 3797SOL    HW112290   4.675   5.794   1.009  2.0407 -1.0787 -0.8991
 3797SOL    HW212291   4.749   5.860   0.880  3.0417 -0.5856 -0.0899
 3798SOL     OW12292   3.109   3.240   5.790  0.4498 -0.1770 -0.0350
 3798SOL    HW112293   3.135   3.309   5.857 -1.2071  0.0708  0.4042
 3798SOL    HW212294   3.107   3.280   5.699 -0.7792  0.4844  0.2506
 3799SOL     OW12295   2.426   0.368   6.119 -0.1209  0.4087  0.4534
 3799SOL    HW112296   2.359   0.356   6.192  1.9223  0.8817  2.5310
 3799SOL    HW212297   2.452   0.465   6.113 -1.2310  0.6243 -1.8834
 3800SOL     OW12298   5.056   3.553   4.354  0.3150 -0.3137 -0.1282
 3800SOL    HW112299   5.015   3.506   4.432  0.0548  0.1152 -0.0005
 3800SOL    HW212300   4.984   3.577   4.289  0.6284 -1.3787 -0.8937
 3801SOL     OW12301   5.765   1.365   5.249  0.4374  0.2920 -0.4977
 3801SOL    HW112302   5.723   1.445   5.207  1.9846  2.5426  1.9461
 3801SOL    HW212303   5.695   1.312   5.298 -0.5813  0.1079 -2.0605
 3802SOL     OW12304   0.934   1.812   4.865 -0.3713  0.3795  0.0317
 3802SOL    HW112305   0.929   1.844   4.771 -1.5158  0.5059  0.1245
 3802SOL    HW212306   0.842   1.803   4.903 -0.0174 -1.3852  0.5744
 3803SOL     OW12307   3.710   6.817   0.605 -0.0196 -0.2762 -0.3243
 3803SOL    HW112308   3.665   6.791   0.519  0.9070  0.6913 -1.1403
 3803SOL    HW212309   3.678   6.907   0.634 -1.1576 -1.0670  0.9821
 3804SOL     OW12310   4.879   3.377   5.789  0.2015  0.2047  0.1060
 3804SOL    HW112311   4.930   3.403   5.706 -0.3968  1.3589  0.0889
 3804SOL    HW212312   4.940   3.327   5.851  0.9709  0.3349 -0.5265
 3805SOL     OW12313   1.711   2.307   0.400 -0.2815  0.2455  0.2480
 3805SOL    HW112314   1.696   2.375   0.328  1.1440 -0.1862 -0.4937
 3805SOL    HW212315   1.777   2.238   0.368 -0.0568 -0.2804  1.7651
 3806SOL     OW12316   4.177   0.285   3.913  0.8266 -0.0243 -0.7584
 3806SOL    HW112317   4.089   0.288   3.865 -0.8053 -1.9415  1.7907
 3806SOL    HW212318   4.183   0.362   3.976  0.5741 -0.3198 -0.3654
 3807SOL     OW12319   0.835   0.820   3.818 -0.0875 -0.3421 -0.0207
 3807SOL    HW112320   0.837   0.722   3.799 -1.1923 -0.7189  1.5630
 3807SOL    HW212321   0.879   0.838   3.906  1.6401  0.8430 -1.0547
 3808SOL     OW12322   3.255   0.252   1.317  0.2102 -0.1713 -0.2413
 3808SOL    HW112323   3.326   0.210   1.373  0.6659 -0.5449 -1.0875
 3808SOL    HW212324   3.296   0.298   1.239 -0.3832  0.8140  0.0016
 3809SOL     OW12325   3.804   5.383   1.388  0.1133 -0.2413  0.1485
 3809SOL    HW112326   3.729   5.420   1.334  0.9811 -1.1358 -1.7689
 3809SOL    HW212327   3.807   5.284   1.377  0.7316 -0.3735  1.3384
 3810SOL     OW12328   1.055   4.624   6.315 -1.3032 -0.5398  0.4807
 3810SOL    HW112329   1.131   4.685   6.337 -1.6161 -0.0358  0.1752
 3810SOL    HW212330   1.085   4.529   6.324  0.2514 -0.4252 -2.5185
 3811SOL     OW12331   6.187   0.124   4.683  0.0536  0.2822 -0.6428
 3811SOL    HW112332   6.200   0.082   4.773 -0.2646 -0.6005 -1.0011
 3811SOL    HW212333   6.162   0.221   4.695  1.3524  0.5456  0.1761
 3812SOL     OW12334   3.474   6.459   6.006  0.1791 -0.0762 -0.2893
 3812SOL    HW112335   3.379   6.430   6.016  0.2271  0.3343  1.9993
 3812SOL    HW212336   3.533   6.396   6.057  0.9366  0.6114 -0.2917
 3813SOL     OW12337   3.405   4.240   0.126 -0.4383  0.2348 -0.1432
 3813SOL    HW112338   3.332   4.299   0.160 -1.3333 -0.0858 -1.4537
 3813SOL    HW212339   3.476   4.232   0.196 -0.8175  1.9445  0.4960
 3814SOL     OW12340   1.500   6.922   6.073 -0.3793 -0.3813  0.0445
 3814SOL    HW112341   1.530   6.977   6.152 -1.3392 -0.5542  0.5435
 3814SOL    HW212342   1.416   6.873   6.097 -0.1029 -1.2634 -0.7443
 3815SOL     OW12343   4.346   2.092   2.590  0.1477 -0.1614 -0.0664
 3815SOL    HW112344   4.342   1.994   2.573  2.0558 -0.3662  0.4442
 3815SOL    HW212345   4.398   2.109   2.674  2.5832  1.3798 -1.7471
 3816SOL     OW12346   6.816   5.963   1.564 -0.1776 -0.6569  0.2879
 3816SOL    HW112347   6.900   5.939   1.612  0.2503 -0.7128 -0.4722
 3816SOL    HW212348   6.806   5.906   1.482 -0.7818 -0.4220  0.1895
 3817SOL     OW12349   6.221   2.132   6.031  0.2240 -0.2703 -0.4305
 3817SOL    HW112350   6.218   2.036   6.058 -1.8531 -0.0561  0.2158
 3817SOL    HW212351   6.137   2.155   5.981  0.5387  1.3077 -0.2634
 3818SOL     OW12352   2.216   0.610   2.977 -0.6000  0.2273  0.0366
 3818SOL    HW112353   2.237   0.533   3.037 -0.7461  1.4372  1.7104
 3818SOL    HW212354   2.287   0.618   2.907 -0.0865 -0.8351  0.4084
 3819SOL     OW12355   5.291   4.361   6.464 -0.1523 -0.3249  0.7163
 3819SOL    HW112356   5.271   4.271   6.426  0.8058  0.2586 -1.2956
 3819SOL    HW212357   5.215   4.423   6.443  0.3537 -0.0151 -0.2236
 3820SOL     OW12358   3.866   6.397   2.553 -0.6497  0.2009  0.6294
 3820SOL    HW112359   3.946   6.360   2.505  0.0352 -2.0159  3.2262
 3820SOL    HW212360   3.783   6.359   2.513 -0.2424 -0.0408 -0.0209
 3821SOL     OW12361   1.871   3.832   2.367 -0.0133 -0.1003 -0.3372
 3821SOL    HW112362   1.773   3.853   2.368 -0.2355 -1.1009  0.0563
 3821SOL    HW212363   1.897   3.793   2.455  0.2752 -1.8331 -1.1509
 3822SOL     OW12364   1.517   4.861   0.233 -0.0408 -0.3327  0.3294
 3822SOL    HW112365   1.464   4.823   0.309 -0.3649  1.3772  0.9942
 3822SOL    HW212366   1.542   4.956   0.253 -0.5043  0.3125 -1.8786
 3823SOL     OW12367   0.749   3.742   5.371  0.1089 -0.8444  0.1704
 3823SOL    HW112368   0.727   3.774   5.463 -0.2477  0.6530 -0.4046
 3823SOL    HW212369   0.811   3.807   5.327  1.3157 -2.2083 -0.1997
 3824SOL     OW12370   6.936   3.064   0.786 -0.1950  0.3431 -0.3842
 3824SOL    HW112371   6.939   3.021   0.696 -0.3623 -1.2346  0.3253
 3824SOL    HW212372   6.913   3.161   0.777 -2.7951 -0.3355 -1.8654
 3825SOL     OW12373   6.851   0.465   5.625 -0.3262  0.3275  0.6415
 3825SOL    HW112374   6.824   0.392   5.688  0.6130  0.5014  1.2613
 3825SOL    HW212375   6.792   0.461   5.543 -1.6261  0.1659  1.5467
 3826SOL     OW12376   5.607   2.598   1.255 -0.5667 -0.6779 -0.4413
 3826SOL    HW112377   5.685   2.578   1.195 -1.3384 -1.6533 -1.1510
 3826SOL    HW212378   5.590   2.697   1.255  0.6391 -0.4493 -0.2940
 3827SOL     OW12379   3.436   1.699   1.944 -0.0463  0.4381  0.3439
 3827SOL    HW112380   3.436   1.785   1.894  2.6066  0.0224 -0.5532
 3827SOL    HW212381   3.497   1.706   2.023  3.2175 -1.5053 -1.7466
 3828SOL     OW12382   4.478   2.155   0.650 -0.0966  0.5556  0.1238
 3828SOL    HW112383   4.557   2.093   0.651  0.1155  0.7769 -1.2907
 3828SOL    HW212384   4.418   2.132   0.574  1.0578  3.3161 -1.8302
 3829SOL     OW12385   1.059   6.177   4.918  0.0949 -0.2580 -0.3598
 3829SOL    HW112386   1.089   6.226   5.000 -0.5014 -0.4544 -0.0166
 3829SOL    HW212387   1.072   6.079   4.931 -4.2487 -0.8352  1.4748
 3830SOL     OW12388   1.230   5.719   5.901  0.4014  0.5269  0.4722
 3830SOL    HW112389   1.292   5.687   5.830  0.4114  0.2226  0.6161
 3830SOL    HW212390   1.210   5.645   5.965 -2.7822 -0.4652 -1.4268
 3831SOL     OW12391   3.868   2.113   3.501  0.6241 -0.2637 -0.0582
 3831SOL    HW112392   3.910   2.202   3.516  1.5926 -0.7834  0.3886
 3831SOL    HW212393   3.866   2.093   3.403  2.2221 -0.5955 -0.0418
 3832SOL     OW12394   5.887   5.727   1.729 -0.6064  0.0800  0.3364
 3832SOL    HW112395   5.848   5.635   1.731 -0.4212 -0.0146 -0.1736
 3832SOL    HW212396   5.972   5.728   1.782 -0.8431  0.0704  0.7180
 3833SOL     OW12397   0.085   0.970   6.212  0.7321  0.3226  0.0839
 3833SOL    HW112398   0.162   1.015   6.258 -0.3862  0.1227  2.2888
 3833SOL    HW212399   0.090   0.987   6.114  2.2940  2.2386  0.4412
 3834SOL     OW12400   3.450   7.011   1.862 -0.1232  0.1804 -0.4485
 3834SOL    HW112401   3.465   6.942   1.791 -2.6050  1.1938 -2.1099
 3834SOL    HW212402   3.528   7.012   1.925  1.8001 -1.3909 -2.6284
 3835SOL     OW12403   4.801   5.467   2.784 -0.1546  0.2438  0.3383
 3835SOL    HW112404   4.844   5.543   2.832  0.6973 -0.0838  0.1096
 3835SOL    HW212405   4.754   5.408   2.850 -0.4538  0.7337  0.5650
 3836SOL     OW12406   2.636   2.674   5.938  0.1705 -0.2837 -0.0677
 3836SOL    HW112407   2.571   2.600   5.923  0.6209 -0.2363 -2.8076
 3836SOL    HW212408   2.681   2.663   6.027 -1.9947 -1.4959  0.9410
 3837SOL     OW12409   2.806   5.797   0.351  0.2324  0.3296 -0.2958
 3837SOL    HW112410   2.861   5.786   0.433 -1.8525  0.8043  1.2680
 3837SOL    HW212411   2.848   5.865   0.291  0.1831  2.5956  2.0061
 3838SOL     OW12412   0.334   4.431   5.123  0.3101 -0.1380 -0.2003
 3838SOL    HW112413   0.311   4.479   5.038 -0.2823  1.1553  0.6516
 3838SOL    HW212414   0.317   4.334   5.112 -0.0399  0.0474 -1.4629
 3839SOL     OW12415   6.790   0.579   6.734 -0.1219 -0.0665 -0.0389
 3839SOL    HW112416   6.721   0.507   6.736 -3.2038  2.6656  1.8666
 3839SOL    HW212417   6.849   0.572   6.814  0.7728 -1.4297 -0.7878
 3840SOL     OW12418   3.113   0.867   3.874  0.0127 -0.1949 -0.4488
 3840SOL    HW112419   3.044   0.828   3.935  0.6028 -0.9799 -0.2637
 3840SOL    HW212420   3.071   0.935   3.815 -0.7472 -0.0629  0.2335
 3841SOL     OW12421   2.187   2.195   1.954  0.1518 -0.4773 -0.5010
 3841SOL    HW112422   2.237   2.277   1.982  0.9337 -0.9492 -0.4948
 3841SOL    HW212423   2.174   2.135   2.033  2.0993 -1.6702 -1.0169
 3842SOL     OW12424   2.726   2.543   6.904 -0.2881  0.2443 -0.0732
 3842SOL    HW112425   2.780   2.626   6.889  1.2674 -0.8610 -0.8825
 3842SOL    HW212426   2.642   2.548   6.851 -0.7887  1.7914  0.8154
 3843SOL     OW12427   6.015   5.658   1.248 -0.0862 -0.6009 -0.0881
 3843SOL    HW112428   6.036   5.696   1.157 -0.0927 -1.1844 -0.3350
 3843SOL    HW212429   6.036   5.561   1.249 -0.7588 -0.7468  0.3253
 3844SOL     OW12430   2.318   3.304   6.706 -0.3564 -0.1275 -0.1421
 3844SOL    HW112431   2.344   3.352   6.790 -1.1152 -0.2277  0.1567
 3844SOL    HW212432   2.398   3.258   6.667  0.0449  0.1011  0.4034
 3845SOL     OW12433   3.616   4.036   4.745  0.3068 -0.2462  0.5216
 3845SOL    HW112434   3.710   4.004   4.733 -0.2962 -1.8881 -0.1970
 3845SOL    HW212435   3.553   3.966   4.712 -1.1795  0.8737  0.8730
 3846SOL     OW12436   0.999   4.373   5.111  0.3178  0.1184 -0.6105
 3846SOL    HW112437   0.932   4.443   5.138  0.0828 -0.1623 -0.4647
 3846SOL    HW212438   1.030   4.324   5.193  1.8994  1.3009 -0.4541
 3847SOL     OW12439   0.131   6.030   2.425  0.5234 -0.0593 -0.2084
 3847SOL    HW112440   0.226   6.056   2.406  1.5550  0.0326  3.9869
 3847SOL    HW212441   0.085   6.106   2.472 -1.2513 -0.6012 -0.9837
 3848SOL     OW12442   3.068   7.000   3.618  0.0427 -0.0186  0.1218
 3848SOL    HW112443   3.160   7.034   3.604  0.2641 -0.4745  0.4387
 3848SOL    HW212444   3.062   6.956   3.708  0.3986 -2.7905 -1.1001
 3849SOL     OW12445   2.456   0.964   4.167 -0.3900  0.5624 -0.5355
 3849SOL    HW112446   2.473   1.061   4.153  0.2519  0.3912 -0.9523
 3849SOL    HW212447   2.413   0.951   4.257  1.1516  1.0682  0.3198
 3850SOL     OW12448   1.781   2.364   2.624  0.2371 -0.1359 -0.3657
 3850SOL    HW112449   1.726   2.281   2.614  0.1307 -0.0684 -0.3440
 3850SOL    HW212450   1.742   2.436   2.568  0.5720 -0.2197 -0.7094
 3851SOL     OW12451   2.085   2.634   0.921 -0.0533  0.2011  0.3335
 3851SOL    HW112452   2.076   2.546   0.875  0.0841  0.6545 -0.5829
 3851SOL    HW212453   2.020   2.638   0.997  0.4700 -0.9815  0.8762
 3852SOL     OW12454   5.048   1.659   6.097  0.1495  0.3943  0.3019
 3852SOL    HW112455   5.011   1.585   6.155 -0.1389 -0.3467 -0.7962
 3852SOL    HW212456   4.996   1.743   6.113  1.5829  0.9025  2.8695
 3853SOL     OW12457   1.122   2.432   2.699  0.7854 -0.0039  0.6972
 3853SOL    HW112458   1.195   2.419   2.632  0.9199  1.9328  0.3902
 3853SOL    HW212459   1.157   2.415   2.791  0.4145 -3.3983  0.3348
 3854SOL     OW12460   2.165   3.155   3.043 -0.1410 -0.5832  0.2623
 3854SOL    HW112461   2.133   3.249   3.035 -2.0211 -1.0575  1.5271
 3854SOL    HW212462   2.147   3.106   2.957  2.2594  0.5312 -0.9762
 3855SOL     OW12463   0.513   2.784   6.056 -0.0857  0.4240  0.5679
 3855SOL    HW112464   0.469   2.790   6.146 -2.0166  1.1248 -0.3693
 3855SOL    HW212465   0.468   2.713   6.002  1.7091 -0.6788  0.4514
 3856SOL     OW12466   1.017   0.179   0.534  0.4540  0.0732  0.5463
 3856SOL    HW112467   1.077   0.256   0.513  0.1426  0.1742  0.0161
 3856SOL    HW212468   0.947   0.171   0.463  0.0823 -0.2880  0.9503
 3857SOL     OW12469   6.947   1.626   4.957  0.6941  0.1437  0.0582
 3857SOL    HW112470   6.978   1.621   5.052  0.0817  3.0557  0.5206
 3857SOL    HW212471   6.941   1.722   4.930  0.6192 -0.6063 -2.8826
 3858SOL     OW12472   2.834   5.699   4.915  0.2673 -0.2605 -0.3301
 3858SOL    HW112473   2.844   5.653   4.827 -0.3375 -0.0523 -0.5171
 3858SOL    HW212474   2.808   5.795   4.900 -0.7929 -0.4662  0.0734
 3859SOL     OW12475   6.778   2.205   2.787 -0.0050 -0.4671  0.6919
 3859SOL    HW112476   6.834   2.147   2.847  0.8518 -0.9429 -0.5329
 3859SOL    HW212477   6.823   2.294   2.775  0.3653 -0.7525 -0.0766
 3860SOL     OW12478   1.607   5.277   4.407 -0.0640  0.0615  0.5549
 3860SOL    HW112479   1.707   5.276   4.403 -0.0190  1.4419  0.8764
 3860SOL    HW212480   1.575   5.192   4.450  0.9115 -0.7481 -0.2626
 3861SOL     OW12481   1.882   5.649   4.531  0.3538  0.0341 -0.1797
 3861SOL    HW112482   1.914   5.560   4.498 -0.9011  0.3245 -2.3698
 3861SOL    HW212483   1.782   5.651   4.531  0.3349  1.0206  1.1617
 3862SOL     OW12484   6.208   6.930   5.339 -0.1669  0.2030 -0.1061
 3862SOL    HW112485   6.139   6.946   5.268  0.2109  1.6526 -0.1784
 3862SOL    HW212486   6.273   7.006   5.340  0.0999 -0.0067  1.4968
 3863SOL     OW12487   2.373   3.426   0.242 -0.2026  0.4050  0.2720
 3863SOL    HW112488   2.320   3.442   0.325 -1.2517  0.2858 -0.3484
 3863SOL    HW212489   2.315   3.381   0.174  0.8542 -0.1858 -0.2630
 3864SOL     OW12490   3.910   0.392   3.689  0.4859  1.0830  0.1296
 3864SOL    HW112491   3.978   0.460   3.664  1.0226  1.2958  2.0300
 3864SOL    HW212492   3.871   0.414   3.778 -0.2905 -0.3860  0.1923
 3865SOL     OW12493   5.243   3.186   3.438  0.6307 -0.1626 -0.2981
 3865SOL    HW112494   5.279   3.252   3.504  2.9592 -2.7463  1.2388
 3865SOL    HW212495   5.262   3.217   3.345  3.9690  0.1986  0.4062
 3866SOL     OW12496   5.516   0.337   6.368 -0.9047  0.2738  0.3237
 3866SOL    HW112497   5.527   0.397   6.289 -1.4118  0.9860  0.7830
 3866SOL    HW212498   5.469   0.253   6.339 -0.7920  0.3862 -0.1948
 3867SOL     OW12499   1.403   5.374   3.324  0.1213  0.3555  0.5777
 3867SOL    HW112500   1.487   5.380   3.379 -0.2410 -0.2886  1.2274
 3867SOL    HW212501   1.354   5.290   3.349 -1.3594  1.3477  1.1243
 3868SOL     OW12502   3.169   5.682   2.113 -0.1804 -0.0960  0.1762
 3868SOL    HW112503   3.113   5.611   2.070 -1.4511  0.1741  1.3249
 3868SOL    HW212504   3.171   5.668   2.212  2.8500 -0.8153  0.1308
 3869SOL     OW12505   2.347   2.524   4.012  1.2458 -0.2077 -0.2841
 3869SOL    HW112506   2.300   2.443   3.977 -1.0161  0.8860  0.0166
 3869SOL    HW212507   2.334   2.600   3.948  1.0351  0.5990  0.6849
 3870SOL     OW12508   3.233   0.553   0.148 -0.3025 -0.1038  0.8569
 3870SOL    HW112509   3.284   0.475   0.111 -0.5055 -0.0683  0.4974
 3870SOL    HW212510   3.201   0.531   0.240  0.7994  0.0675  1.2946
 3871SOL     OW12511   1.975   0.838   4.745  0.2642 -0.3282 -0.7098
 3871SOL    HW112512   1.948   0.903   4.673  0.5641 -0.4811 -0.9647
 3871SOL    HW212513   1.941   0.747   4.722  1.1933 -0.5732 -1.1629
 3872SOL     OW12514   3.313   5.669   5.496 -0.0447 -0.4881  0.0736
 3872SOL    HW112515   3.301   5.629   5.587 -1.0606 -1.7491 -0.5723
 3872SOL    HW212516   3.298   5.768   5.500  1.8147 -0.2156  1.5931
 3873SOL     OW12517   5.620   5.351   1.398  0.3023  0.2195  0.2788
 3873SOL    HW112518   5.643   5.294   1.477 -0.2242 -0.7067 -0.2270
 3873SOL    HW212519   5.569   5.431   1.429  0.0188 -0.1842  0.8716
 3874SOL     OW12520   5.011   6.667   6.488 -0.4539  0.2506  0.1988
 3874SOL    HW112521   5.079   6.701   6.423  0.0720 -0.8724  0.1237
 3874SOL    HW212522   5.012   6.567   6.487 -1.5006  0.2228  0.8455
 3875SOL     OW12523   3.654   3.918   5.729 -0.3876 -0.3925 -0.9234
 3875SOL    HW112524   3.612   3.971   5.802 -0.2121 -1.4369 -0.0437
 3875SOL    HW212525   3.699   3.837   5.767  1.7155  0.2290 -1.9207
 3876SOL     OW12526   5.166   3.413   2.941  0.0389 -0.6825 -0.7096
 3876SOL    HW112527   5.139   3.343   2.875 -2.2209 -1.2327  0.6957
 3876SOL    HW212528   5.105   3.492   2.934  0.3415 -0.3580  0.1196
 3877SOL     OW12529   3.251   1.637   3.697 -0.2515  0.2386  0.4038
 3877SOL    HW112530   3.324   1.601   3.754  0.9880  0.3696 -1.0544
 3877SOL    HW212531   3.243   1.736   3.712  1.3869  0.6266 -1.0111
 3878SOL     OW12532   5.742   4.859   5.897  0.1559 -0.0902 -0.6697
 3878SOL    HW112533   5.715   4.824   5.986 -0.5570 -2.1645 -1.6508
 3878SOL    HW212534   5.710   4.953   5.887 -0.8051 -0.2376  0.7913
 3879SOL     OW12535   1.763   6.375   0.086  0.4599  0.0801 -0.1714
 3879SOL    HW112536   1.802   6.451   0.138 -0.2355  1.4460 -1.5517
 3879SOL    HW212537   1.678   6.405   0.042 -0.9509 -2.1296  0.8911
 3880SOL     OW12538   4.099   0.877   4.188  0.4532 -0.2592  0.2773
 3880SOL    HW112539   4.038   0.807   4.152 -0.4736 -0.1872  1.6621
 3880SOL    HW212540   4.126   0.854   4.281  0.0550  1.2555  0.8012
 3881SOL     OW12541   1.952   0.300   6.239  0.0076  0.2274 -0.0492
 3881SOL    HW112542   1.991   0.250   6.316  1.5746 -0.1763 -1.0773
 3881SOL    HW212543   1.863   0.339   6.266  0.0842 -0.7045  1.6371
 3882SOL     OW12544   0.316   6.091   0.212  0.0819  0.3853  0.1261
 3882SOL    HW112545   0.392   6.030   0.236  0.2935  1.0232  1.1479
 3882SOL    HW212546   0.300   6.155   0.288 -0.1094  1.6337 -0.9360
 3883SOL     OW12547   4.001   2.011   0.302 -0.0725 -0.2791 -0.1392
 3883SOL    HW112548   4.016   2.103   0.340 -1.8534 -0.6993  1.7786
 3883SOL    HW212549   3.947   1.957   0.366 -1.2656 -1.8617 -2.3405
 3884SOL     OW12550   0.340   0.131   0.019 -0.4833 -0.1118 -0.1900
 3884SOL    HW112551   0.341   0.229   0.000  0.8770 -0.1002 -0.1290
 3884SOL    HW212552   0.280   0.112   0.097 -0.5743  0.6842 -0.0641
 3885SOL     OW12553   0.355   2.142   2.565  0.0113  0.8323  0.2478
 3885SOL    HW112554   0.318   2.225   2.524 -0.4368  0.6148  0.2061
 3885SOL    HW212555   0.302   2.063   2.534 -0.4414  0.6783  1.3392
 3886SOL     OW12556   1.456   4.277   5.694 -0.2354  0.3769  0.0244
 3886SOL    HW112557   1.496   4.367   5.677 -0.8296  0.0857 -3.8168
 3886SOL    HW212558   1.360   4.287   5.720 -0.1128  0.8492  0.3023
 3887SOL     OW12559   6.490   2.556   5.943 -0.4730 -0.0172  0.3082
 3887SOL    HW112560   6.472   2.594   6.033 -0.7380 -0.6585  0.5336
 3887SOL    HW212561   6.541   2.622   5.888 -0.2576  0.3532  0.9455
 3888SOL     OW12562   4.791   6.102   2.944 -0.4545  0.8035 -0.0560
 3888SOL    HW112563   4.876   6.155   2.936 -0.8099  1.1406 -1.9586
 3888SOL    HW212564   4.714   6.164   2.959 -0.4766  0.5442  0.9952
 3889SOL     OW12565   6.421   4.620   6.158  0.2940  0.0097  0.6106
 3889SOL    HW112566   6.343   4.667   6.117  0.5688  0.4311  0.5690
 3889SOL    HW212567   6.476   4.685   6.210 -0.1242 -0.5358  1.7765
 3890SOL     OW12568   6.181   3.132   3.670  0.4944 -0.2608  0.1406
 3890SOL    HW112569   6.100   3.077   3.648  1.0536 -0.8417 -0.4834
 3890SOL    HW212570   6.257   3.072   3.693  1.6000  0.1420 -2.1622
 3891SOL     OW12571   4.431   6.541   6.599  0.4755 -0.0258 -0.2917
 3891SOL    HW112572   4.449   6.639   6.596  1.8069 -0.2157  0.7384
 3891SOL    HW212573   4.509   6.491   6.562  0.2982 -0.7390  0.2755
 3892SOL     OW12574   3.628   5.429   4.195  0.5315  0.3936 -0.0422
 3892SOL    HW112575   3.722   5.396   4.191  0.3176 -0.1362 -0.7097
 3892SOL    HW212576   3.621   5.499   4.266  1.7557  1.4836 -0.9524
 3893SOL     OW12577   2.274   1.715   4.411  0.7043 -0.9162  0.1636
 3893SOL    HW112578   2.329   1.633   4.396  0.2235 -1.3083  0.5060
 3893SOL    HW212579   2.246   1.719   4.507 -1.3735 -1.7032 -0.3493
 3894SOL     OW12580   6.806   6.392   6.926 -0.5010 -0.4591  0.3361
 3894SOL    HW112581   6.754   6.417   6.844 -0.6918 -1.6498  0.0614
 3894SOL    HW212582   6.894   6.354   6.897 -0.4375 -0.5812  0.6936
 3895SOL     OW12583   2.243   2.777   4.597 -0.2802 -0.2100  0.0678
 3895SOL    HW112584   2.305   2.752   4.671  1.8718  0.8769 -1.2578
 3895SOL    HW212585   2.215   2.694   4.548 -1.2469 -0.8730  1.6710
 3896SOL     OW12586   0.718   2.969   1.957  0.0338 -0.4238 -0.4440
 3896SOL    HW112587   0.722   3.069   1.958  0.5715 -0.4186  1.2246
 3896SOL    HW212588   0.634   2.939   2.002  0.8611 -0.6922  1.0071
 3897SOL     OW12589   2.110   5.184   2.677 -0.2590 -0.0925 -0.1107
 3897SOL    HW112590   2.083   5.275   2.646  0.2650  0.3337  0.6215
 3897SOL    HW212591   2.119   5.123   2.599 -0.9752  0.3869 -0.5787
 3898SOL     OW12592   3.389   4.086   1.426  0.2648  0.0744  0.3846
 3898SOL    HW112593   3.422   4.015   1.488 -0.6220 -0.5121  0.2003
 3898SOL    HW212594   3.396   4.052   1.332 -2.6532 -0.8798  0.4220
 3899SOL     OW12595   4.029   1.336   7.004  0.1276  0.2954 -0.2660
 3899SOL    HW112596   4.043   1.406   7.073  0.4233 -0.8877  0.9281
 3899SOL    HW212597   4.026   1.378   6.913  0.7162  1.7787  0.3683
 3900SOL     OW12598   0.654   1.941   5.157  0.3725 -0.3844 -0.2579
 3900SOL    HW112599   0.570   1.971   5.203  0.3335 -0.9877  0.0764
 3900SOL    HW212600   0.714   2.019   5.144 -0.7042  0.2678 -1.5008
 3901SOL     OW12601   3.514   6.813   5.087  0.1545 -0.3147 -0.0636
 3901SOL    HW112602   3.537   6.877   5.014 -0.7008 -0.1797 -0.2253
 3901SOL    HW212603   3.594   6.799   5.146  0.3116  1.0135  0.0563
 3902SOL     OW12604   2.392   4.829   3.602 -0.6181 -0.3896 -0.1233
 3902SOL    HW112605   2.367   4.793   3.512 -2.8386 -3.2217  1.4620
 3902SOL    HW212606   2.463   4.773   3.642 -2.4125 -1.6925  1.4023
 3903SOL     OW12607   2.976   6.165   6.789 -0.0861 -0.5296 -0.1052
 3903SOL    HW112608   2.900   6.227   6.771 -1.2591 -2.0908 -0.6820
 3903SOL    HW212609   3.032   6.156   6.707  1.5415  1.5859  0.6589
 3904SOL     OW12610   3.615   6.279   0.311  0.3531 -0.3538  0.4305
 3904SOL    HW112611   3.607   6.267   0.409 -0.4325 -2.2370  0.1815
 3904SOL    HW212612   3.576   6.367   0.284 -1.2963 -0.6847  1.5999
 3905SOL     OW12613   4.735   0.194   5.010  0.1749 -0.3950  0.0396
 3905SOL    HW112614   4.801   0.158   4.944 -0.9104 -2.7707  0.1438
 3905SOL    HW212615   4.705   0.120   5.070 -0.8074  1.1572  1.5352
 3906SOL     OW12616   6.065   4.888   4.004 -0.0908  0.4248  0.2891
 3906SOL    HW112617   6.072   4.917   3.908  1.5413  1.3498  0.6411
 3906SOL    HW212618   6.143   4.829   4.026 -0.3533  0.3651  1.0966
 3907SOL     OW12619   1.084   1.193   4.046 -0.4105 -0.4162 -0.1899
 3907SOL    HW112620   1.073   1.290   4.069 -2.2214 -0.4580 -0.7295
 3907SOL    HW212621   1.013   1.140   4.092  0.0385 -1.3817 -0.5910
 3908SOL     OW12622   3.222   0.845   4.649  0.1552  0.2057  0.0403
 3908SOL    HW112623   3.318   0.839   4.677  0.0802 -1.7443  0.0556
 3908SOL    HW212624   3.198   0.763   4.597 -1.1011  1.3881 -1.3148
 3909SOL     OW12625   1.325   1.843   2.442 -0.4594  0.6039 -0.0486
 3909SOL    HW112626   1.264   1.865   2.518  1.2898  1.2009  1.2611
 3909SOL    HW212627   1.375   1.925   2.414  1.3953 -0.2904  0.4832
 3910SOL     OW12628   2.147   2.178   0.638  0.1749  0.9043  0.0699
 3910SOL    HW112629   2.231   2.192   0.586  0.7994  0.0910  0.8267
 3910SOL    HW212630   2.071   2.163   0.575  1.1777 -1.6220 -0.6885
 3911SOL     OW12631   5.126   1.855   2.430  0.3723 -0.3620 -0.6207
 3911SOL    HW112632   5.100   1.776   2.486 -1.4971  0.8228  0.2957
 3911SOL    HW212633   5.134   1.827   2.334  0.0447 -1.6972 -0.2827
 3912SOL     OW12634   4.275   4.976   2.290  0.4051 -0.3709  0.1686
 3912SOL    HW112635   4.281   4.898   2.227  2.1033  0.0040 -0.1924
 3912SOL    HW212636   4.186   5.019   2.282 -0.3048 -1.8377 -0.1608
 3913SOL     OW12637   2.158   6.377   1.255 -0.0864  0.4999 -0.1721
 3913SOL    HW112638   2.238   6.378   1.195  0.1761  0.5433  0.1754
 3913SOL    HW212639   2.119   6.285   1.258 -1.7649  1.0473 -2.5805
 3914SOL     OW12640   1.290   0.819   5.441  0.5804 -0.4496 -0.1404
 3914SOL    HW112641   1.364   0.782   5.498  1.6057  0.3211 -0.9274
 3914SOL    HW212642   1.251   0.746   5.385 -1.0981 -1.4430  2.1561
 3915SOL     OW12643   5.381   1.502   4.679 -0.1216  0.5780 -0.4457
 3915SOL    HW112644   5.355   1.410   4.710 -0.6830  0.7040 -0.5250
 3915SOL    HW212645   5.369   1.567   4.755 -0.6228  0.7353 -0.6538
 3916SOL     OW12646   2.001   2.365   1.120 -0.6327 -0.1797  0.2989
 3916SOL    HW112647   1.982   2.308   1.200 -1.5577  0.1284  0.3122
 3916SOL    HW212648   1.947   2.449   1.125 -0.3403  0.0648 -0.4180
 3917SOL     OW12649   1.659   5.198   2.666  0.3955  0.3193 -0.2938
 3917SOL    HW112650   1.721   5.236   2.598 -0.1747  2.3533  0.2566
 3917SOL    HW212651   1.569   5.183   2.625  0.4206  0.2713 -0.3311
 3918SOL     OW12652   4.700   5.728   0.185  0.2288 -0.5773  0.3316
 3918SOL    HW112653   4.747   5.776   0.259  1.1169 -1.3895  0.3071
 3918SOL    HW212654   4.633   5.664   0.224  0.6422 -0.9501  0.4318
 3919SOL     OW12655   5.386   5.538   3.267  0.0642  1.1063 -0.2279
 3919SOL    HW112656   5.403   5.578   3.357  0.0750  1.0206 -0.1922
 3919SOL    HW212657   5.419   5.444   3.265 -1.6697  0.4469  0.2967
 3920SOL     OW12658   3.904   1.979   4.704 -0.0863 -0.0044  0.0395
 3920SOL    HW112659   3.921   2.057   4.644 -2.7144  0.7406  0.1273
 3920SOL    HW212660   3.969   1.906   4.682  2.8314  2.3139  0.3476
 3921SOL     OW12661   1.206   4.654   5.927  0.3021  0.1209 -0.0114
 3921SOL    HW112662   1.262   4.572   5.938  0.4236  0.2034 -0.0096
 3921SOL    HW212663   1.122   4.644   5.980 -1.3854 -1.5016 -2.7094
 3922SOL     OW12664   6.840   1.132   2.732  0.3962  0.3454 -0.0648
 3922SOL    HW112665   6.852   1.216   2.785 -0.2636 -0.3960  1.3030
 3922SOL    HW212666   6.930   1.093   2.711  0.6877 -0.3034  2.1195
 3923SOL     OW12667   4.645   1.441   1.613  0.4439  0.8627  0.5632
 3923SOL    HW112668   4.563   1.475   1.567  0.9213  2.6397  0.9721
 3923SOL    HW212669   4.719   1.506   1.602  0.6626  1.2574  3.5960
 3924SOL     OW12670   5.401   2.176   4.448  0.1735 -0.0077 -0.0747
 3924SOL    HW112671   5.470   2.111   4.479 -0.0791 -0.2236  0.0428
 3924SOL    HW212672   5.439   2.235   4.377  0.3387 -0.4399 -0.3457
 3925SOL     OW12673   3.730   3.250   2.422  0.0658 -0.5682  0.0885
 3925SOL    HW112674   3.704   3.287   2.333  1.8902  2.0108  0.5210
 3925SOL    HW212675   3.759   3.155   2.412 -1.1571 -0.7930 -1.7675
 3926SOL     OW12676   0.216   5.939   6.492 -0.2271  0.3754  0.3749
 3926SOL    HW112677   0.241   6.036   6.488 -0.5535  0.4216 -0.8867
 3926SOL    HW212678   0.283   5.885   6.441  0.3765 -0.1766  1.7006
 3927SOL     OW12679   6.484   6.217   6.475  0.4240  0.2854  0.1561
 3927SOL    HW112680   6.568   6.260   6.442  0.9082 -0.6242  0.1590
 3927SOL    HW212681   6.405   6.259   6.430  0.9162  0.7808 -0.2621
 3928SOL     OW12682   2.973   5.763   6.998 -0.0948 -0.1540 -0.2211
 3928SOL    HW112683   3.020   5.684   7.037 -1.4860 -1.3833 -0.9289
 3928SOL    HW212684   2.961   5.833   7.068  2.2299 -0.0149  0.1131
 3929SOL     OW12685   1.233   1.062   4.449 -0.3595 -0.6851  0.0939
 3929SOL    HW112686   1.158   1.042   4.386 -0.2920 -1.4721  0.2522
 3929SOL    HW212687   1.304   0.992   4.441  0.5614  0.2767 -0.3470
 3930SOL     OW12688   1.471   5.046   4.795  0.4044 -0.1206 -0.2284
 3930SOL    HW112689   1.539   5.117   4.809 -1.6955  1.7647  0.9685
 3930SOL    HW212690   1.407   5.075   4.723 -0.7748 -0.5456  0.6257
 3931SOL     OW12691   0.665   4.116   6.284 -0.3557  0.0565  0.3007
 3931SOL    HW112692   0.631   4.032   6.242  0.2473 -0.5899  1.0946
 3931SOL    HW212693   0.636   4.194   6.228 -0.9029 -0.6668 -0.4576
 3932SOL     OW12694   0.626   5.128   4.160 -0.2062  0.3094  0.3805
 3932SOL    HW112695   0.650   5.031   4.156  1.1057  0.6322  0.0374
 3932SOL    HW212696   0.533   5.138   4.196  0.0684 -0.9997  1.5071
 3933SOL     OW12697   1.336   5.082   1.054  0.0528 -0.3254  0.6827
 3933SOL    HW112698   1.244   5.084   1.093 -0.0754 -1.5521  0.4644
 3933SOL    HW212699   1.396   5.025   1.111 -0.0316 -1.8040 -0.6303
 3934SOL     OW12700   2.300   6.791   2.877  0.2280  0.9410 -0.1673
 3934SOL    HW112701   2.264   6.804   2.784 -0.5365  0.0981 -0.0050
 3934SOL    HW212702   2.232   6.822   2.944  0.0903  0.0275  0.1297
 3935SOL     OW12703   6.458   1.994   3.802 -0.2935 -0.4223 -0.4535
 3935SOL    HW112704   6.415   2.083   3.815 -0.1782 -0.3743 -0.4075
 3935SOL    HW212705   6.387   1.924   3.796 -0.4061 -0.2744 -0.9041
 3936SOL     OW12706   6.296   4.145   4.504  0.0544 -0.0571  0.4912
 3936SOL    HW112707   6.331   4.236   4.525 -0.3957  0.3351 -0.4042
 3936SOL    HW212708   6.370   4.088   4.467 -0.3279  0.9867 -2.0765
 3937SOL     OW12709   1.340   5.715   5.451 -0.7675 -0.7134  0.6419
 3937SOL    HW112710   1.247   5.681   5.463 -0.8802 -0.6008  0.1207
 3937SOL    HW212711   1.401   5.639   5.430 -0.7096 -0.8106  1.1658
 3938SOL     OW12712   6.641   4.353   6.715  0.0486 -0.1323  0.6237
 3938SOL    HW112713   6.648   4.289   6.792 -1.3541  0.6715  1.4633
 3938SOL    HW212714   6.719   4.415   6.716 -0.3687  0.4060  1.9217
 3939SOL     OW12715   2.312   5.983   2.764  0.0237  0.0157  0.5314
 3939SOL    HW112716   2.360   6.060   2.721 -0.4365  0.7525  1.3003
 3939SOL    HW212717   2.328   5.985   2.862  0.0813 -0.9342  0.5419
 3940SOL     OW12718   1.200   6.617   5.660  0.6118 -0.4798 -0.1392
 3940SOL    HW112719   1.248   6.598   5.745 -0.3770  0.3248  0.6221
 3940SOL    HW212720   1.242   6.695   5.614 -0.3326  0.6741  0.8775
 3941SOL     OW12721   5.219   4.967   2.005 -0.2233 -0.6931 -0.0226
 3941SOL    HW112722   5.318   4.977   1.992 -0.3675  0.2911 -0.4234
 3941SOL    HW212723   5.185   5.044   2.060 -0.7750 -0.9981  0.0680
 3942SOL     OW12724   6.007   6.658   0.705 -0.1263  0.5018  0.2372
 3942SOL    HW112725   5.951   6.662   0.622  2.3475 -0.5229 -1.6352
 3942SOL    HW212726   5.972   6.587   0.766 -0.2305 -0.9747 -1.4520
 3943SOL     OW12727   2.152   5.295   0.384  0.8096  0.5684  0.1312
 3943SOL    HW112728   2.154   5.276   0.286 -2.5780  2.9924 -0.5885
 3943SOL    HW212729   2.142   5.393   0.399  1.2833  0.2760  2.9587
 3944SOL     OW12730   0.479   3.088   1.114  0.1324  0.1550  0.3063
 3944SOL    HW112731   0.423   3.082   1.197  0.4183  0.7216  0.5506
 3944SOL    HW212732   0.433   3.041   1.039 -0.1888 -0.2600  0.7561
 3945SOL     OW12733   1.852   0.225   5.095  0.4849 -0.3316  0.4012
 3945SOL    HW112734   1.874   0.133   5.126  0.4832 -0.2909  0.5268
 3945SOL    HW212735   1.910   0.291   5.144  0.7682 -0.2973  0.0171
 3946SOL     OW12736   4.588   0.541   2.297  0.3372  0.3314 -0.2870
 3946SOL    HW112737   4.514   0.544   2.365  0.5890  1.6312 -0.0427
 3946SOL    HW212738   4.662   0.602   2.325  1.2060 -0.4298 -0.8778
 3947SOL     OW12739   5.644   1.379   1.751  0.1167 -0.5002 -0.0314
 3947SOL    HW112740   5.621   1.432   1.669  1.3070  0.9301  0.5059
 3947SOL    HW212741   5.570   1.315   1.771 -1.0158  0.3782 -1.2148
 3948SOL     OW12742   2.665   2.055   2.722  0.2589  0.7326 -0.1094
 3948SOL    HW112743   2.567   2.037   2.737  0.1418  1.2471 -0.2672
 3948SOL    HW212744   2.677   2.104   2.636  0.6691  0.5852 -0.1372
 3949SOL     OW12745   5.776   0.397   3.127  0.2065 -0.3223  0.2416
 3949SOL    HW112746   5.837   0.436   3.058 -1.4779  0.6193 -0.7970
 3949SOL    HW212747   5.798   0.300   3.140  1.4671 -0.1734 -0.5699
 3950SOL     OW12748   1.946   4.936   1.466  0.3759  0.5998 -0.0963
 3950SOL    HW112749   2.003   4.874   1.520 -0.5257  2.5219  3.3934
 3950SOL    HW212750   1.850   4.907   1.471  0.2923  0.7443 -0.7752
 3951SOL     OW12751   1.299   4.934   3.506 -0.0914 -0.1926 -0.2559
 3951SOL    HW112752   1.247   4.883   3.574 -1.9575 -0.8186 -2.0517
 3951SOL    HW212753   1.395   4.907   3.510 -0.1021 -0.0203  2.2464
 3952SOL     OW12754   4.875   6.682   6.090  0.2843 -0.0887  0.0724
 3952SOL    HW112755   4.845   6.611   6.026  0.1270 -0.4347  0.5303
 3952SOL    HW212756   4.818   6.764   6.078  1.7746  0.7341 -1.9119
 3953SOL     OW12757   4.071   3.322   4.657 -0.1453 -0.2122 -0.1664
 3953SOL    HW112758   4.079   3.318   4.557 -0.4120  0.1324 -0.2002
 3953SOL    HW212759   3.974   3.325   4.683 -0.0615  1.6928  0.0297
 3954SOL     OW12760   6.200   4.224   6.505 -0.4452 -0.4042 -0.1706
 3954SOL    HW112761   6.172   4.255   6.596  0.8816  0.0779  0.0987
 3954SOL    HW212762   6.119   4.201   6.451 -1.2327 -1.2864  1.3333
 3955SOL     OW12763   5.314   3.591   0.304 -0.2746 -0.6141 -0.6347
 3955SOL    HW112764   5.414   3.600   0.295 -0.2600 -0.3342 -0.2381
 3955SOL    HW212765   5.274   3.572   0.214  0.1942 -1.3532 -0.6984
 3956SOL     OW12766   6.917   4.884   4.450 -0.0520  0.4940  0.6355
 3956SOL    HW112767   6.923   4.852   4.544  1.9630  2.1629  1.1523
 3956SOL    HW212768   6.907   4.805   4.388  1.3635 -0.8709  2.0553
 3957SOL     OW12769   1.059   1.198   2.140 -0.1610 -0.8516 -0.5148
 3957SOL    HW112770   1.054   1.148   2.054  2.1858  0.7346 -1.6761
 3957SOL    HW212771   1.000   1.279   2.134  1.3265  0.2112 -1.3835
 3958SOL     OW12772   3.966   5.787   5.217  0.3918  0.0707 -0.1734
 3958SOL    HW112773   3.930   5.703   5.177  1.5462  0.1640 -1.4855
 3958SOL    HW212774   3.957   5.862   5.152  1.8590  0.3403 -0.1038
 3959SOL     OW12775   6.454   4.578   5.710 -0.3742 -0.7473  0.2319
 3959SOL    HW112776   6.519   4.650   5.687 -0.1228 -1.2293 -0.6141
 3959SOL    HW212777   6.397   4.608   5.786 -0.6117  0.5453 -0.4269
 3960SOL     OW12778   5.218   2.897   2.008  0.4838 -0.1408 -0.0431
 3960SOL    HW112779   5.145   2.927   2.068  0.2061  0.4306 -0.6552
 3960SOL    HW212780   5.196   2.921   1.913  0.5653 -1.6803 -0.4783
 3961SOL     OW12781   1.747   3.713   1.854 -0.4377  0.1067 -0.1774
 3961SOL    HW112782   1.809   3.726   1.931 -0.8877 -1.8270  0.5662
 3961SOL    HW212783   1.670   3.656   1.882 -1.6189  0.9300 -1.5774
 3962SOL     OW12784   6.863   6.906   4.162  0.0490 -0.2943  0.4941
 3962SOL    HW112785   6.826   6.888   4.072 -1.2132 -1.3465  1.1950
 3962SOL    HW212786   6.893   6.821   4.204  4.0675  0.5289 -0.2918
 3963SOL     OW12787   6.756   3.400   3.985  0.0377 -0.1795  0.5594
 3963SOL    HW112788   6.737   3.305   3.961 -0.5733 -0.0595  0.5533
 3963SOL    HW212789   6.710   3.461   3.921 -2.0435  0.1491  2.2380
 3964SOL     OW12790   5.737   3.929   6.141  0.1190 -0.3995 -0.2247
 3964SOL    HW112791   5.773   3.977   6.061  3.4031  1.1354  1.9453
 3964SOL    HW212792   5.749   3.831   6.129 -0.4280 -0.2833 -1.9991
 3965SOL     OW12793   2.380   4.802   2.983 -0.4218 -0.2663 -0.3480
 3965SOL    HW112794   2.321   4.723   3.000  0.7327 -1.0242  0.2087
 3965SOL    HW212795   2.371   4.830   2.887 -1.6951 -0.3330 -0.2685
 3966SOL     OW12796   6.415   5.191   0.161  0.1661 -0.1445 -0.5805
 3966SOL    HW112797   6.391   5.095   0.172  2.6009 -0.8243 -0.5887
 3966SOL    HW212798   6.393   5.240   0.246  0.3419 -1.0556  0.0121
 3967SOL     OW12799   3.581   2.155   1.363 -0.2383 -0.0039 -0.2104
 3967SOL    HW112800   3.632   2.151   1.277  1.8572  1.6869  0.8394
 3967SOL    HW212801   3.550   2.249   1.379 -1.5158 -0.5074  0.4130
 3968SOL     OW12802   5.588   4.302   0.251 -0.6228  0.4691  0.2807
 3968SOL    HW112803   5.608   4.204   0.246  2.5944  1.0594 -1.2608
 3968SOL    HW212804   5.603   4.335   0.344 -0.7062 -0.3133  0.5739
 3969SOL     OW12805   3.205   6.188   1.741  0.0088 -0.6291  0.3605
 3969SOL    HW112806   3.195   6.107   1.683 -0.2482  0.6404 -1.4515
 3969SOL    HW212807   3.302   6.209   1.752  0.0468 -0.1477 -0.7286
 3970SOL     OW12808   6.512   3.568   2.952  0.3637  0.7267 -0.5944
 3970SOL    HW112809   6.606   3.569   2.987  0.9509 -2.3379 -1.7894
 3970SOL    HW212810   6.449   3.569   3.029  1.5050 -1.1034  0.4341
 3971SOL     OW12811   5.805   4.691   3.218 -0.3687  0.1085  0.1805
 3971SOL    HW112812   5.776   4.647   3.133 -2.8327 -0.4013  1.2062
 3971SOL    HW212813   5.896   4.659   3.243 -0.1108 -0.6588 -1.6001
 3972SOL     OW12814   0.484   3.310   6.507 -0.1497 -0.0841  0.3469
 3972SOL    HW112815   0.498   3.394   6.560 -0.0244 -0.5573  1.0767
 3972SOL    HW212816   0.560   3.297   6.444  0.0062  0.1620  0.4857
 3973SOL     OW12817   3.955   3.880   1.532  0.4959 -0.7905  0.2471
 3973SOL    HW112818   4.005   3.809   1.482 -0.3393 -0.5297 -0.9778
 3973SOL    HW212819   3.884   3.838   1.588  0.0790 -0.9281 -0.3855
 3974SOL     OW12820   5.768   6.979   6.677  0.2584  0.0603 -0.2753
 3974SOL    HW112821   5.851   7.020   6.637  1.6430 -1.0542  1.3098
 3974SOL    HW212822   5.767   6.881   6.657 -0.6655  0.0549 -0.2319
 3975SOL     OW12823   0.470   5.887   3.283 -0.4724  0.2742  0.3337
 3975SOL    HW112824   0.374   5.881   3.255  0.2115  0.0617 -2.1840
 3975SOL    HW212825   0.519   5.804   3.255  0.7017  0.8851  0.5113
 3976SOL     OW12826   1.405   2.398   6.426  0.2929 -0.9610  0.2362
 3976SOL    HW112827   1.485   2.412   6.368 -0.5715 -1.5049 -1.1240
 3976SOL    HW212828   1.402   2.303   6.457 -1.5318 -1.9094 -2.4747
 3977SOL     OW12829   6.225   5.101   6.035 -0.2678  0.1022 -0.3642
 3977SOL    HW112830   6.302   5.121   5.975  0.2378  0.3394  0.3464
 3977SOL    HW212831   6.172   5.024   5.998  0.1695  0.0946 -0.9806
 3978SOL     OW12832   3.908   2.706   0.275 -0.4593 -0.2919 -0.1220
 3978SOL    HW112833   3.866   2.777   0.219 -0.2878  0.9774  1.2929
 3978SOL    HW212834   4.006   2.726   0.285 -0.4946 -0.4638  0.6407
 3979SOL     OW12835   1.550   0.284   2.982 -0.3849 -0.3516 -0.3993
 3979SOL    HW112836   1.551   0.207   2.918  1.3122  1.0498 -2.1499
 3979SOL    HW212837   1.623   0.272   3.049 -0.3197 -0.3962 -0.4790
 3980SOL     OW12838   5.914   3.627   4.015 -0.5323  0.4238  0.1806
 3980SOL    HW112839   5.913   3.678   3.929  0.0761  1.4486  0.7597
 3980SOL    HW212840   5.968   3.677   4.083  0.3777 -1.1707  0.6816
 3981SOL     OW12841   6.200   3.227   0.597 -0.2824 -0.2340  0.8106
 3981SOL    HW112842   6.198   3.291   0.519 -2.1121 -0.2222  0.8256
 3981SOL    HW212843   6.196   3.133   0.563 -0.3045 -0.2539  0.8682
 3982SOL     OW12844   4.556   1.456   6.688 -0.0654  0.2565 -0.3115
 3982SOL    HW112845   4.579   1.414   6.776 -0.3475  1.5375  0.3984
 3982SOL    HW212846   4.599   1.404   6.614 -0.6546 -1.4273  0.5005
 3983SOL     OW12847   2.597   6.789   2.932 -0.1244  0.3903 -0.2021
 3983SOL    HW112848   2.499   6.786   2.913 -0.1020  2.6162 -1.0326
 3983SOL    HW212849   2.611   6.821   3.026 -0.1570 -2.8686  1.0147
 3984SOL     OW12850   1.242   5.556   2.832 -0.2413  0.0147  0.4805
 3984SOL    HW112851   1.166   5.526   2.775  0.9740 -1.6809 -0.3131
 3984SOL    HW212852   1.261   5.487   2.902 -0.0263  0.8671  1.2916
 3985SOL     OW12853   1.416   2.936   2.016 -0.2920 -0.2912 -0.1016
 3985SOL    HW112854   1.403   3.002   2.090  1.1082 -0.1749  0.0792
 3985SOL    HW212855   1.339   2.941   1.953 -0.8905  0.5152  0.6640
 3986SOL     OW12856   6.681   0.804   1.314  0.1407  0.2386  0.3408
 3986SOL    HW112857   6.743   0.742   1.267 -1.0529  1.2866 -2.9144
 3986SOL    HW212858   6.689   0.896   1.275 -0.6439  1.3434  2.5941
 3987SOL     OW12859   1.144   3.476   4.843  0.0210  0.0168 -0.0531
 3987SOL    HW112860   1.121   3.454   4.748  1.9137  0.6937 -0.7066
 3987SOL    HW212861   1.191   3.564   4.846 -0.3518  0.1840  1.5775
 3988SOL     OW12862   6.202   3.370   1.278  0.5794 -0.1541  0.2160
 3988SOL    HW112863   6.133   3.331   1.217 -0.2858  0.2283  0.9414
 3988SOL    HW212864   6.240   3.297   1.336  2.5558 -0.8554 -1.7877
 3989SOL     OW12865   5.942   0.380   1.447  0.7620  0.3418  0.0086
 3989SOL    HW112866   5.967   0.412   1.356  1.5292  1.4467  0.5749
 3989SOL    HW212867   5.895   0.453   1.496  1.0861  0.0475  0.7811
 3990SOL     OW12868   4.486   5.322   5.316 -0.0329  0.2186 -0.1247
 3990SOL    HW112869   4.388   5.302   5.310  0.2573 -1.6559  0.6646
 3990SOL    HW212870   4.518   5.304   5.409  1.2219 -0.0119 -0.5790
 3991SOL     OW12871   0.325   2.214   4.392 -0.0451  0.8446 -0.3463
 3991SOL    HW112872   0.272   2.223   4.477  0.1613  0.7172 -0.2029
 3991SOL    HW212873   0.422   2.227   4.412  0.0996 -0.0536 -0.4065
 3992SOL     OW12874   0.261   4.168   5.435  0.7728 -0.3937 -0.1138
 3992SOL    HW112875   0.272   4.069   5.437 -2.1261 -0.7868 -0.5411
 3992SOL    HW212876   0.177   4.194   5.482  1.5526  1.9230  0.1737
 3993SOL     OW12877   1.299   0.142   2.742 -0.0136 -0.1719 -0.2795
 3993SOL    HW112878   1.240   0.131   2.662  0.9757  0.5169 -1.1446
 3993SOL    HW212879   1.348   0.057   2.759 -1.4556 -0.8439  0.6349
 3994SOL     OW12880   2.264   1.253   3.436 -0.2040 -0.8725  0.4248
 3994SOL    HW112881   2.233   1.200   3.516 -0.6941  0.1298  0.9201
 3994SOL    HW212882   2.289   1.345   3.466 -0.9707 -0.2897 -0.6736
 3995SOL     OW12883   1.386   5.018   0.580 -0.3372  0.1920  0.2897
 3995SOL    HW112884   1.438   5.097   0.614  0.3818  0.2415 -0.8589
 3995SOL    HW212885   1.444   4.937   0.581 -0.5388  0.0402 -0.1252
 3996SOL     OW12886   5.466   5.727   3.473  0.5445  0.1680 -0.3057
 3996SOL    HW112887   5.454   5.669   3.553  0.0727 -0.7396 -1.0056
 3996SOL    HW212888   5.529   5.801   3.494 -0.6506  0.7746  1.3149
 3997SOL     OW12889   5.999   3.016   4.464  0.1730  0.1773 -0.1512
 3997SOL    HW112890   6.008   3.036   4.561  1.1116 -1.9181  0.2379
 3997SOL    HW212891   6.086   3.033   4.418 -0.0763  0.4994 -0.5146
 3998SOL     OW12892   4.872   2.247   2.924 -0.3425 -0.5170  0.4726
 3998SOL    HW112893   4.790   2.270   2.871  0.0728  0.3550  0.1902
 3998SOL    HW212894   4.937   2.198   2.865  0.0286  0.2635  0.2136
 3999SOL     OW12895   4.160   3.608   1.062 -0.0907 -0.3501 -0.6957
 3999SOL    HW112896   4.171   3.684   0.998  1.5681 -1.0142 -1.2666
 3999SOL    HW212897   4.212   3.529   1.028  1.1741 -0.6049  1.6344
 4000SOL     OW12898   2.395   4.545   2.832  0.1331  0.0887 -0.1477
 4000SOL    HW112899   2.358   4.461   2.792  1.4695 -0.0314 -1.1798
 4000SOL    HW212900   2.319   4.606   2.855 -0.7837 -0.7347 -0.8872
 4001SOL     OW12901   0.712   4.888   4.248  0.2734 -0.0777 -0.0604
 4001SOL    HW112902   0.804   4.876   4.285  1.2634  0.3655 -2.2107
 4001SOL    HW212903   0.675   4.799   4.222  0.9553 -0.0875 -1.0563
 4002SOL     OW12904   3.965   3.806   3.244 -0.4340  0.4040 -0.0604
 4002SOL    HW112905   3.963   3.847   3.335 -0.5805  0.6129 -0.1574
 4002SOL    HW212906   4.009   3.716   3.249  0.1971  0.7202  0.0852
 4003SOL     OW12907   5.547   1.683   3.875  0.3939  0.0811 -0.1588
 4003SOL    HW112908   5.456   1.664   3.838  0.6233 -0.6417 -0.3640
 4003SOL    HW212909   5.604   1.601   3.867  0.8062  0.2710  0.7381
 4004SOL     OW12910   0.275   5.526   5.227 -0.8457 -0.4403  0.1734
 4004SOL    HW112911   0.295   5.428   5.236  0.5079 -0.0926  1.3771
 4004SOL    HW212912   0.225   5.558   5.308  0.0394  0.1496  0.5013
 4005SOL     OW12913   6.338   1.537   2.098 -0.1950 -0.2764 -0.2959
 4005SOL    HW112914   6.385   1.507   2.181 -2.7970 -0.8232  1.0909
 4005SOL    HW212915   6.333   1.637   2.097  0.4115 -0.2412 -0.1298
 4006SOL     OW12916   6.580   6.250   0.367  0.1582 -0.0717  0.0226
 4006SOL    HW112917   6.626   6.319   0.312 -0.3494 -0.8148 -1.3706
 4006SOL    HW212918   6.481   6.258   0.354  0.0508 -0.5084  0.5303
 4007SOL     OW12919   6.943   0.104   1.893 -0.0188  0.2708  0.8549
 4007SOL    HW112920   6.878   0.028   1.902 -0.9274  0.9990  0.6758
 4007SOL    HW212921   6.897   0.190   1.920  0.4012  1.0144 -0.6797
 4008SOL     OW12922   2.285   5.455   1.505  0.0298 -0.5250  0.2167
 4008SOL    HW112923   2.362   5.392   1.496 -0.0811 -0.7776  0.9794
 4008SOL    HW212924   2.314   5.546   1.476  1.4372 -0.0212  2.8277
 4009SOL     OW12925   3.050   2.121   2.186  0.0381  0.1209  0.3255
 4009SOL    HW112926   2.998   2.189   2.135 -1.1398 -0.2521  1.0068
 4009SOL    HW212927   2.991   2.045   2.212  0.8531 -0.1906  1.3591
 4010SOL     OW12928   0.980   4.486   1.573 -0.3190  0.1468 -0.4378
 4010SOL    HW112929   0.883   4.508   1.585 -1.0405 -2.0192 -1.6667
 4010SOL    HW212930   1.012   4.524   1.487 -0.6570 -0.7369 -0.9735
 4011SOL     OW12931   4.357   0.150   5.989 -0.3046  0.0917 -0.3429
 4011SOL    HW112932   4.331   0.237   5.946 -0.2660 -0.0473 -0.6501
 4011SOL    HW212933   4.425   0.168   6.060 -0.6331  0.3642 -0.0938
 4012SOL     OW12934   0.573   5.091   1.841 -0.0122  0.1199 -0.8461
 4012SOL    HW112935   0.535   5.047   1.922 -0.0073  0.4926 -0.6370
 4012SOL    HW212936   0.539   5.045   1.759 -1.6263  0.9750 -0.6984
 4013SOL     OW12937   6.988   3.486   6.773 -0.3916  0.1538 -0.0912
 4013SOL    HW112938   6.921   3.425   6.816 -1.6905  0.1157 -2.0521
 4013SOL    HW212939   7.017   3.448   6.686  0.4187  1.3105 -0.3472
 4014SOL     OW12940   3.072   5.158   2.864 -0.1742 -0.1232 -0.0228
 4014SOL    HW112941   3.090   5.174   2.961 -3.9320  0.3400  0.7634
 4014SOL    HW212942   3.040   5.243   2.822  2.4425 -0.0088 -2.0888
 4015SOL     OW12943   3.023   6.101   4.871 -0.1452 -0.2033  0.2410
 4015SOL    HW112944   3.034   6.069   4.965 -0.1690 -1.1932 -0.0817
 4015SOL    HW212945   3.108   6.146   4.841 -0.7379  1.7338  1.3094
 4016SOL     OW12946   4.251   4.933   4.007  0.0919  0.1280 -0.5420
 4016SOL    HW112947   4.192   4.938   4.088  1.0618 -2.0830  0.3734
 4016SOL    HW212948   4.315   4.857   4.017  2.1546  1.5514 -2.1552
 4017SOL     OW12949   0.088   4.940   6.138  0.1041  0.1423  0.5066
 4017SOL    HW112950   0.099   4.896   6.049  1.0175 -0.1371  0.7449
 4017SOL    HW212951  -0.006   4.926   6.171  0.3817 -1.7457  0.6245
 4018SOL     OW12952   4.261   5.703   6.403 -0.0446  0.0784 -0.3780
 4018SOL    HW112953   4.235   5.612   6.371  0.8441 -0.6718  0.9556
 4018SOL    HW212954   4.203   5.729   6.480  1.2339 -0.4132  0.7954
 4019SOL     OW12955   1.099   1.284   3.478 -0.0234 -0.3509  0.5817
 4019SOL    HW112956   1.035   1.334   3.420 -0.3977 -3.2011 -1.6447
 4019SOL    HW212957   1.185   1.336   3.486 -0.5842  0.8976 -1.0982
 4020SOL     OW12958   5.160   0.009   3.133  0.0741  0.0680  0.1666
 4020SOL    HW112959   5.061   0.026   3.133  0.3583  1.8914 -0.1290
 4020SOL    HW212960   5.179  -0.074   3.080 -1.1775  0.4933 -1.0073
 4021SOL     OW12961   4.803   5.776   4.759 -0.2266 -0.1754  0.0318
 4021SOL    HW112962   4.839   5.804   4.670 -1.9361 -2.0455 -1.3275
 4021SOL    HW212963   4.762   5.685   4.752  1.0731 -1.1357  3.1689
 4022SOL     OW12964   3.808   2.721   1.454 -0.5993  0.2918 -0.4307
 4022SOL    HW112965   3.826   2.664   1.534 -2.8502  0.5686  0.3415
 4022SOL    HW212966   3.831   2.816   1.475  0.0327  0.1823 -0.5905
 4023SOL     OW12967   1.724   1.226   4.523  0.1385 -0.0192 -0.4550
 4023SOL    HW112968   1.736   1.296   4.594  0.0349  0.2432 -0.6914
 4023SOL    HW212969   1.627   1.201   4.517  0.1014  0.1789 -0.7062
 4024SOL     OW12970   0.542   6.698   6.891  0.3410  0.1800  0.4648
 4024SOL    HW112971   0.584   6.730   6.806 -0.4940 -1.6046 -0.6865
 4024SOL    HW212972   0.486   6.772   6.930  1.2410  1.2328 -0.1662
 4025SOL     OW12973   0.947   5.439   3.387 -0.1025  0.1319  0.1685
 4025SOL    HW112974   0.988   5.451   3.478 -2.0955 -1.5161  1.3874
 4025SOL    HW212975   0.904   5.525   3.359 -0.0262  0.4973  1.1145
 4026SOL     OW12976   0.885   0.577   3.500  0.3784  0.1857 -0.1790
 4026SOL    HW112977   0.862   0.658   3.447 -0.0402 -0.7649 -1.4864
 4026SOL    HW212978   0.898   0.500   3.439 -0.0553 -0.9376  1.1040
 4027SOL     OW12979   3.584   5.606   5.528  0.6786 -0.5463 -0.3808
 4027SOL    HW112980   3.492   5.586   5.495  0.6831 -1.0968 -0.0603
 4027SOL    HW212981   3.597   5.705   5.531 -0.5734 -0.3945  1.4042
 4028SOL     OW12982   3.600   0.634   6.315 -0.0897  0.2570 -0.5835
 4028SOL    HW112983   3.517   0.599   6.359 -0.0243 -0.4749 -1.0328
 4028SOL    HW212984   3.578   0.665   6.222  0.1141  0.1998 -0.6513
 4029SOL     OW12985   6.573   0.214   1.873  0.6249 -0.0214  0.1241
 4029SOL    HW112986   6.592   0.215   1.775  2.0922  1.1373  0.3951
 4029SOL    HW212987   6.654   0.185   1.923 -0.4263 -1.6566  0.9736
 4030SOL     OW12988   0.697   3.151   1.705  0.4285 -0.5558  0.5272
 4030SOL    HW112989   0.701   3.078   1.772 -0.1201 -2.2629 -1.1984
 4030SOL    HW212990   0.650   3.119   1.623 -0.2090  1.8857 -0.1584
 4031SOL     OW12991   6.729   1.277   0.067 -0.0813  0.0057 -0.1010
 4031SOL    HW112992   6.798   1.288   0.139 -0.6812 -2.0315  0.8598
 4031SOL    HW212993   6.648   1.331   0.091  0.5413  1.1044 -0.4075
 4032SOL     OW12994   3.898   2.324   1.790  0.0139  0.6919 -0.4794
 4032SOL    HW112995   3.806   2.305   1.823  0.2484 -1.5790 -1.0117
 4032SOL    HW212996   3.962   2.259   1.830  1.2298  1.5510 -0.9611
 4033SOL     OW12997   2.412   4.351   4.328 -0.0588 -0.3018  0.1539
 4033SOL    HW112998   2.357   4.424   4.286 -0.5818 -1.3060 -0.9803
 4033SOL    HW212999   2.490   4.391   4.375 -0.8156  1.0466  0.3141
 4034SOL     OW13000   2.104   3.305   3.872 -0.0373  0.2600  0.1515
 4034SOL    HW113001   2.134   3.360   3.794  0.0914 -0.6956 -0.4869
 4034SOL    HW213002   2.005   3.311   3.880 -0.5705 -2.5463 -2.4385
 4035SOL     OW13003   2.400   2.386   0.815  0.1291  0.0635 -0.3855
 4035SOL    HW113004   2.381   2.442   0.735 -0.7087  1.0520  0.4675
 4035SOL    HW213005   2.494   2.402   0.846  0.3042  0.0300 -0.8965
 4036SOL     OW13006   3.384   1.271   4.145 -0.3904  0.1280  0.1324
 4036SOL    HW113007   3.392   1.313   4.235  2.1627 -0.3784  0.2153
 4036SOL    HW213008   3.298   1.300   4.102 -1.1598  1.2191  2.2643
 4037SOL     OW13009   3.386   1.542   5.592  0.4232  0.0317 -0.1717
 4037SOL    HW113010   3.365   1.505   5.501  0.4747  0.0302 -0.1825
 4037SOL    HW213011   3.464   1.493   5.631  0.7975  0.4542 -0.3872
 4038SOL     OW13012   1.936   6.513   4.616  0.3889 -0.1843 -0.0630
 4038SOL    HW113013   1.983   6.590   4.573 -1.5326  0.3007 -1.4525
 4038SOL    HW213014   1.873   6.548   4.686  0.0137 -0.5418 -0.2170
 4039SOL     OW13015   0.507   4.773   4.134 -0.5212  0.7065 -0.9389
 4039SOL    HW113016   0.434   4.841   4.136  0.4225  1.7376  0.3992
 4039SOL    HW213017   0.565   4.789   4.054  0.9203  2.9071  0.4249
 4040SOL     OW13018   6.795   1.280   6.374  0.7185  0.0394 -0.3684
 4040SOL    HW113019   6.863   1.214   6.405  0.3721 -0.4032 -0.5476
 4040SOL    HW213020   6.837   1.341   6.306  1.3475  0.7303  0.6236
 4041SOL     OW13021   0.950   6.490   2.370 -0.0605  0.0881 -0.3966
 4041SOL    HW113022   0.932   6.539   2.455 -1.5231 -0.7461 -0.1922
 4041SOL    HW213023   1.039   6.518   2.333  0.4101  0.7612  1.1778
 4042SOL     OW13024   2.696   2.466   4.446 -0.1471  0.4083  0.2353
 4042SOL    HW113025   2.637   2.497   4.372 -1.7877 -1.9960  0.4212
 4042SOL    HW213026   2.645   2.465   4.532  0.3241 -1.0419  0.5403
 4043SOL     OW13027   3.872   3.128   5.275 -0.6004  0.0416  0.0259
 4043SOL    HW113028   3.969   3.105   5.279 -1.4055 -3.9757  1.7793
 4043SOL    HW213029   3.839   3.117   5.181  0.2281 -0.7841 -0.1852
 4044SOL     OW13030   5.548   4.946   3.636 -0.1262 -0.5608  0.2662
 4044SOL    HW113031   5.449   4.932   3.638 -0.6186  2.1450 -0.5883
 4044SOL    HW213032   5.592   4.867   3.591 -1.6911 -2.3952  1.7862
 4045SOL     OW13033   3.957   2.269   5.644  0.5905 -0.1626  0.0663
 4045SOL    HW113034   3.913   2.333   5.580  2.7585  1.1244 -0.2488
 4045SOL    HW213035   4.047   2.244   5.608  1.9395  0.6955  2.6431
 4046SOL     OW13036   6.282   0.216   5.309 -0.5888 -0.2005  0.0222
 4046SOL    HW113037   6.330   0.179   5.228  2.4287  0.2778  1.4492
 4046SOL    HW213038   6.251   0.308   5.289  1.2381  0.3986 -0.2861
 4047SOL     OW13039   4.070   1.405   6.711 -0.3611 -0.8645 -0.2003
 4047SOL    HW113040   4.090   1.501   6.697 -0.1746 -0.5759  1.7983
 4047SOL    HW213041   4.138   1.349   6.664  0.4037 -0.0064 -0.1333
 4048SOL     OW13042   3.947   2.149   2.950 -0.2199 -0.2236  0.1138
 4048SOL    HW113043   3.851   2.121   2.946  0.0370 -1.0360 -0.7281
 4048SOL    HW213044   3.980   2.167   2.858 -0.1396  2.1838  0.5508
 4049SOL     OW13045   2.935   3.275   3.306  0.2640 -0.1534  0.2117
 4049SOL    HW113046   2.945   3.361   3.257 -1.5762 -0.5463 -1.0025
 4049SOL    HW213047   2.934   3.291   3.404  1.3695  1.0130  0.0446
 4050SOL     OW13048   5.118   4.830   5.425  0.1003  0.3305  0.1724
 4050SOL    HW113049   5.217   4.816   5.425  0.0415 -0.1069  0.0959
 4050SOL    HW213050   5.073   4.745   5.397 -0.2983  0.5087  0.2732
 4051SOL     OW13051   5.118   1.280   2.220  0.4028 -0.8468 -0.2170
 4051SOL    HW113052   5.061   1.362   2.232  1.6642  0.6723 -3.4754
 4051SOL    HW213053   5.197   1.286   2.282  0.3621  0.2860 -0.2508
 4052SOL     OW13054   3.243   0.835   1.039  0.4835  0.5887  0.1210
 4052SOL    HW113055   3.282   0.806   0.952  1.8474 -0.5168  1.0433
 4052SOL    HW213056   3.297   0.796   1.114 -1.5113  0.2788  1.4831
 4053SOL     OW13057   0.030   4.782   1.272  0.0137  0.2126 -0.1418
 4053SOL    HW113058   0.043   4.753   1.367  1.8310  3.3171  0.6724
 4053SOL    HW213059  -0.002   4.704   1.218  1.4926 -2.3621  2.4332
 4054SOL     OW13060   4.825   3.978   0.407 -0.2598 -0.3404  0.2480
 4054SOL    HW113061   4.767   3.967   0.327 -0.3265  3.5823 -0.4589
 4054SOL    HW213062   4.772   3.960   0.490 -1.8407  0.8439 -0.4555
 4055SOL     OW13063   6.858   3.918   6.968  0.3346 -0.1395  0.2775
 4055SOL    HW113064   6.876   3.885   6.876  1.7953 -0.4885  0.6655
 4055SOL    HW213065   6.767   3.887   6.997 -0.4690  0.6261 -1.3021
 4056SOL     OW13066   5.066   5.948   6.643  0.0238 -0.7259 -0.0812
 4056SOL    HW113067   5.065   5.848   6.648  0.2316 -0.6657  3.0735
 4056SOL    HW213068   4.985   5.985   6.688  0.5353  0.5419 -0.1482
 4057SOL     OW13069   6.759   4.072   0.563 -0.2013  0.4311  0.3344
 4057SOL    HW113070   6.660   4.072   0.556 -0.1564  0.3391 -0.2998
 4057SOL    HW213071   6.798   4.007   0.497  0.2787  0.4684  0.5731
 4058SOL     OW13072   1.446   0.901   3.315 -0.7041 -0.1812 -0.1618
 4058SOL    HW113073   1.493   0.865   3.396  0.3378 -2.1351 -1.5491
 4058SOL    HW213074   1.445   1.001   3.319  3.9809  0.0939 -0.1354
 4059SOL     OW13075   0.260   1.576   5.155 -0.0123  0.6391 -0.0346
 4059SOL    HW113076   0.332   1.590   5.222  0.3783 -0.5200 -0.1885
 4059SOL    HW213077   0.300   1.563   5.065 -0.4554  0.7101 -0.2468
 4060SOL     OW13078   5.750   6.419   3.321  0.4754  0.1227 -0.4640
 4060SOL    HW113079   5.816   6.493   3.321 -0.0258  0.6002  0.6171
 4060SOL    HW213080   5.664   6.451   3.362  0.0907 -0.9076 -0.4322
 4061SOL     OW13081   2.056   3.298   2.202  0.6110 -0.1273 -0.4019
 4061SOL    HW113082   2.111   3.315   2.121  1.0652  0.9923  0.1185
 4061SOL    HW213083   2.074   3.369   2.270 -0.4426 -0.5327  0.3266
 4062SOL     OW13084   3.118   3.093   0.201 -0.0616 -0.5576  0.1677
 4062SOL    HW113085   3.083   3.152   0.129  1.6010  0.7844  0.3792
 4062SOL    HW213086   3.045   3.035   0.237 -1.5998  0.9017 -0.5131
 4063SOL     OW13087   2.380   6.330   0.371  0.3580  0.6961  0.0610
 4063SOL    HW113088   2.332   6.416   0.354  1.7732  1.4334 -0.3005
 4063SOL    HW213089   2.337   6.258   0.317 -0.5661  1.2507  0.0256
 4064SOL     OW13090   2.080   6.818   3.667 -0.8135 -0.3142 -0.5374
 4064SOL    HW113091   2.021   6.738   3.684  0.0650 -0.8766 -0.0290
 4064SOL    HW213092   2.144   6.797   3.593  0.9953 -0.9978  1.1293
 4065SOL     OW13093   2.342   0.930   2.434 -0.0147  0.2193 -0.1073
 4065SOL    HW113094   2.288   1.014   2.441 -0.7981 -0.2361 -0.5417
 4065SOL    HW213095   2.392   0.930   2.348 -1.0205 -0.3276 -0.7073
 4066SOL     OW13096   5.586   5.165   4.660  0.6809  0.0267 -0.0963
 4066SOL    HW113097   5.564   5.100   4.733 -0.0348  1.9900  1.5023
 4066SOL    HW213098   5.679   5.200   4.673 -0.5559  2.8898  1.9739
 4067SOL     OW13099   5.699   4.029   1.659 -0.6608  0.1669  0.0049
 4067SOL    HW113100   5.772   4.097   1.654 -0.2353 -0.2879 -0.0078
 4067SOL    HW213101   5.627   4.053   1.594  0.1414 -0.1628 -1.0304
 4068SOL     OW13102   4.192   2.973   6.155  0.6905 -0.5311 -0.4677
 4068SOL    HW113103   4.167   3.009   6.065  0.3887 -1.7395 -0.8880
 4068SOL    HW213104   4.135   3.015   6.225  0.6507  0.1219 -0.8828
 4069SOL     OW13105   4.036   7.003   6.807 -0.4079  0.6942 -0.1391
 4069SOL    HW113106   4.041   7.039   6.714  0.1771 -0.2498 -0.4931
 4069SOL    HW213107   4.105   6.932   6.819 -0.8897  0.3652  0.8314
 4070SOL     OW13108   1.400   4.188   5.002  1.1008 -0.1653  0.6035
 4070SOL    HW113109   1.389   4.279   4.962 -0.5864 -0.1636  1.0028
 4070SOL    HW213110   1.417   4.121   4.929 -0.6112  0.0399 -0.0311
 4071SOL     OW13111   0.376   0.079   5.734  0.3420 -0.5651 -0.1429
 4071SOL    HW113112   0.386  -0.006   5.681  2.8052 -0.6913  0.3557
 4071SOL    HW213113   0.380   0.057   5.832  4.1685  0.2251  0.0431
 4072SOL     OW13114   2.947   5.651   1.768  0.3653 -0.1129  0.1215
 4072SOL    HW113115   3.001   5.720   1.719 -3.0420  2.7280  0.0038
 4072SOL    HW213116   2.890   5.601   1.703  0.4090 -0.7886  0.5885
 4073SOL     OW13117   6.073   4.673   1.790 -0.3092 -0.0037 -0.4973
 4073SOL    HW113118   6.053   4.713   1.879  0.1600  0.5278 -0.6259
 4073SOL    HW213119   6.164   4.702   1.761 -1.2092  1.4150 -2.0379
 4074SOL     OW13120   2.014   4.891   6.825  0.1873  0.4371  0.3577
 4074SOL    HW113121   2.037   4.899   6.922  0.1784  2.3360  0.2429
 4074SOL    HW213122   1.948   4.818   6.813  2.4996 -1.9931  1.3250
 4075SOL     OW13123   6.035   5.982   1.511  0.1960  0.4764 -0.2847
 4075SOL    HW113124   6.095   5.902   1.505 -0.3823  0.1155 -1.4022
 4075SOL    HW213125   6.081   6.054   1.564  1.2688 -0.0910 -0.4159
 4076SOL     OW13126   3.104   6.848   3.104  0.1156  0.4133 -0.1663
 4076SOL    HW113127   3.006   6.868   3.094 -0.1056 -0.3788  0.2902
 4076SOL    HW213128   3.156   6.934   3.106 -0.7101  0.9052  0.9898
 4077SOL     OW13129   3.272   3.355   1.389 -0.4030 -0.0178  0.2041
 4077SOL    HW113130   3.359   3.308   1.377  0.6275  1.5578  1.1180
 4077SOL    HW213131   3.276   3.445   1.346 -0.9249  0.7953  1.7723
 4078SOL     OW13132   5.504   4.062   2.462  0.5057  0.3911 -0.4867
 4078SOL    HW113133   5.554   4.032   2.381 -0.4811 -2.3435 -0.1821
 4078SOL    HW213134   5.568   4.106   2.526  2.3789 -1.9639 -0.5878
 4079SOL     OW13135   0.113   3.190   3.673 -0.9652 -0.0528 -0.9631
 4079SOL    HW113136   0.144   3.146   3.589  0.3285  0.1011 -0.5769
 4079SOL    HW213137   0.013   3.202   3.669 -1.1246 -1.4390 -1.8042
 4080SOL     OW13138   5.854   2.101   4.869  0.0255  0.1345  0.3001
 4080SOL    HW113139   5.847   2.139   4.777  0.0236 -0.7334 -0.0685
 4080SOL    HW213140   5.797   2.153   4.932  1.5411  1.9846  0.2402
 4081SOL     OW13141   0.582   3.106   3.279 -0.6004  0.6180  0.5375
 4081SOL    HW113142   0.570   3.058   3.366 -0.1053  1.3540  1.0265
 4081SOL    HW213143   0.522   3.185   3.277 -2.1052 -0.5127 -0.6596
 4082SOL     OW13144   6.143   2.313   2.413  0.1580 -0.0600 -0.0440
 4082SOL    HW113145   6.090   2.285   2.333 -0.6784  0.1987  0.4127
 4082SOL    HW213146   6.111   2.262   2.493  1.4564 -0.8321  0.0075
 4083SOL     OW13147   0.186   5.081   4.733  0.2419  0.4719  0.1792
 4083SOL    HW113148   0.268   5.024   4.737 -0.8188 -1.2945 -1.4800
 4083SOL    HW213149   0.170   5.123   4.822  2.0840 -0.3477  0.9454
 4084SOL     OW13150   5.866   5.879   5.622 -0.4745 -1.0588  0.2541
 4084SOL    HW113151   5.899   5.819   5.550  0.3728 -1.3573  0.8817
 4084SOL    HW213152   5.941   5.937   5.654 -1.0295 -0.3872  0.3736
 4085SOL     OW13153   4.944   3.379   6.955  0.1472  0.1206 -0.5187
 4085SOL    HW113154   4.967   3.475   6.940 -2.9767  1.0824  0.1859
 4085SOL    HW213155   4.982   3.349   7.043  0.0479  1.1089 -0.1288
 4086SOL     OW13156   1.268   2.942   1.298 -0.2723 -0.0761  0.1962
 4086SOL    HW113157   1.257   3.028   1.348 -0.2240  0.0062  0.0669
 4086SOL    HW213158   1.351   2.947   1.241 -0.6210  0.0320 -0.3047
 4087SOL     OW13159   1.577   2.795   1.282 -0.0234 -0.5140  0.1232
 4087SOL    HW113160   1.577   2.878   1.227  2.1162 -0.1938  0.5060
 4087SOL    HW213161   1.650   2.801   1.351  0.2439 -2.7216  0.1019
 4088SOL     OW13162   6.451   4.078   6.443  0.1220 -0.0630 -0.2393
 4088SOL    HW113163   6.444   4.106   6.347 -0.7998 -1.8740 -0.7354
 4088SOL    HW213164   6.368   4.104   6.492  0.2290  0.0842 -0.1324
 4089SOL     OW13165   6.516   2.350   5.634 -0.2817  0.3675  0.0902
 4089SOL    HW113166   6.517   2.448   5.613  1.2565  0.5893  1.0787
 4089SOL    HW213167   6.548   2.335   5.728 -2.9556 -0.9112  0.8944
 4090SOL     OW13168   2.547   5.814   6.982  0.3248 -0.7199 -0.2982
 4090SOL    HW113169   2.624   5.759   7.015 -0.0637 -1.1905 -0.1651
 4090SOL    HW213170   2.493   5.760   6.917  0.3462 -0.2465 -0.7163
 4091SOL     OW13171   3.163   4.953   1.601  0.1988 -0.0654  0.1276
 4091SOL    HW113172   3.090   4.950   1.669 -0.3291  0.1681 -0.4208
 4091SOL    HW213173   3.206   4.863   1.593 -0.1391 -0.2446  0.3339
 4092SOL     OW13174   0.597   6.508   1.096  0.0795 -0.1487 -0.1494
 4092SOL    HW113175   0.694   6.514   1.076 -0.2794  2.3705 -1.5844
 4092SOL    HW213176   0.582   6.528   1.193  0.9148  1.1018 -0.2498
 4093SOL     OW13177   4.420   5.716   4.304  0.0685  0.1205 -0.0698
 4093SOL    HW113178   4.385   5.623   4.289  0.9903 -0.4627  1.1588
 4093SOL    HW213179   4.392   5.747   4.395 -0.4922  1.1985 -0.5851
 4094SOL     OW13180   3.724   3.495   5.798 -0.8618 -0.7717  0.5059
 4094SOL    HW113181   3.808   3.442   5.783  0.6723  1.3834  0.9525
 4094SOL    HW213182   3.665   3.489   5.718  1.0015 -0.1489 -0.9753
 4095SOL     OW13183   6.833   1.999   5.303 -0.0983  0.5283 -0.9548
 4095SOL    HW113184   6.787   2.034   5.221  0.3111  0.8083 -1.0666
 4095SOL    HW213185   6.823   1.900   5.307  0.1292  0.4827 -1.4979
 4096SOL     OW13186   3.312   5.784   1.900  0.5932  0.1452 -0.0579
 4096SOL    HW113187   3.264   5.774   1.813  0.4317 -0.6717  0.1204
 4096SOL    HW213188   3.253   5.755   1.975  0.4826  1.4821  0.4106
 4097SOL     OW13189   3.193   4.059   3.796  0.2287  0.1917 -0.4654
 4097SOL    HW113190   3.173   3.988   3.864  1.4494 -0.4544 -0.7534
 4097SOL    HW213191   3.166   4.148   3.832 -1.1968 -0.3802 -0.0309
 4098SOL     OW13192   1.070   4.848   3.708  0.0766 -0.2080 -0.4295
 4098SOL    HW113193   1.046   4.830   3.804  0.9952 -0.2613 -0.1981
 4098SOL    HW213194   1.007   4.915   3.670 -0.9497 -0.9680 -0.1077
 4099SOL     OW13195   1.638   0.295   2.039 -0.1164  0.2050  0.0040
 4099SOL    HW113196   1.657   0.346   1.955  2.1667  0.3810  0.5831
 4099SOL    HW213197   1.722   0.252   2.072 -0.6957  1.0894  2.8275
 4100SOL     OW13198   2.814   6.203   1.413  0.1721  0.2616 -0.1958
 4100SOL    HW113199   2.856   6.281   1.366  2.6474 -0.7961  0.1290
 4100SOL    HW213200   2.815   6.124   1.352 -1.3538  0.1784 -0.1458
 4101SOL     OW13201   5.326   0.976   4.796  1.0376 -0.5058  0.1875
 4101SOL    HW113202   5.402   0.915   4.814 -0.4724 -2.0478  1.6705
 4101SOL    HW213203   5.241   0.923   4.788 -0.0112  1.2020 -0.7494
 4102SOL     OW13204   5.218   0.456   6.175 -0.7294  0.0674 -0.3098
 4102SOL    HW113205   5.211   0.457   6.275 -0.1391 -2.0750 -0.2028
 4102SOL    HW213206   5.153   0.390   6.138 -1.2763  1.1924 -1.4032
 4103SOL     OW13207   5.040   6.153   1.339  0.4450  0.4654  0.3017
 4103SOL    HW113208   5.090   6.079   1.385  1.3929  0.7677 -0.2207
 4103SOL    HW213209   5.078   6.241   1.366  1.4485  0.6364 -1.5109
 4104SOL     OW13210   0.291   6.231   3.511 -0.3897 -0.1347 -0.2941
 4104SOL    HW113211   0.323   6.229   3.416 -1.5746 -0.1153 -0.7085
 4104SOL    HW213212   0.357   6.183   3.569 -0.0677 -0.8889 -1.2525
 4105SOL     OW13213   6.298   6.154   1.575  0.3616  0.3793 -0.1111
 4105SOL    HW113214   6.368   6.220   1.546 -0.2047  0.9647 -0.1809
 4105SOL    HW213215   6.340   6.084   1.632  1.5591 -0.8964 -2.4116
 4106SOL     OW13216   6.281   1.047   4.566 -0.1032  0.1925  0.3937
 4106SOL    HW113217   6.227   1.028   4.484  0.4348 -1.4692  0.3846
 4106SOL    HW213218   6.319   0.961   4.601  2.1613  1.2437  0.6463
 4107SOL     OW13219   6.027   0.335   0.965  0.5599 -0.4228 -0.0148
 4107SOL    HW113220   5.995   0.355   0.873  0.6750  0.9239  0.2247
 4107SOL    HW213221   6.056   0.239   0.970  0.0077 -0.6651 -1.2079
 4108SOL     OW13222   5.653   2.745   5.855  0.1475  0.3109  0.0478
 4108SOL    HW113223   5.698   2.673   5.908  1.5054  0.7279 -0.4817
 4108SOL    HW213224   5.558   2.754   5.885  0.3611 -0.7001  1.1269
 4109SOL     OW13225   3.965   5.802   2.888 -0.6343  0.4526  0.3816
 4109SOL    HW113226   3.943   5.815   2.985  1.1973  0.9871  0.7620
 4109SOL    HW213227   4.044   5.859   2.864  0.1909 -1.1496 -0.9017
 4110SOL     OW13228   5.141   4.004   4.915 -0.7981  0.3341  0.4688
 4110SOL    HW113229   5.226   3.981   4.867 -0.0368 -1.1113  2.3530
 4110SOL    HW213230   5.150   4.094   4.958 -0.1256  0.1276  0.7836
 4111SOL     OW13231   4.047   2.944   0.575 -0.4058  0.0610 -0.1041
 4111SOL    HW113232   4.095   2.945   0.487 -0.9805  0.6691 -0.4216
 4111SOL    HW213233   4.112   2.921   0.648  0.1645 -0.0564 -0.6371
 4112SOL     OW13234   4.144   0.724   0.811  1.0374 -0.1417 -0.7731
 4112SOL    HW113235   4.075   0.663   0.850  0.0987  1.6059  0.4790
 4112SOL    HW213236   4.234   0.701   0.847  0.4471  0.2527  1.0703
 4113SOL     OW13237   4.192   6.535   5.600  0.8672 -0.1859 -0.7168
 4113SOL    HW113238   4.202   6.457   5.661  2.1904  0.7875  0.4142
 4113SOL    HW213239   4.275   6.544   5.545  1.1245  0.8995 -0.1865
 4114SOL     OW13240   3.633   1.805   4.537  0.6406  0.3534 -0.1389
 4114SOL    HW113241   3.731   1.806   4.555  0.5450 -2.0090  0.8775
 4114SOL    HW213242   3.614   1.853   4.451  2.7329  0.3841 -0.6332
 4115SOL     OW13243   6.057   1.902   2.575  0.1622  0.3523 -1.0569
 4115SOL    HW113244   5.981   1.857   2.528 -0.6242  2.2187 -1.6661
 4115SOL    HW213245   6.042   2.001   2.574  0.8534  0.5573  1.9106
 4116SOL     OW13246   3.744   0.839   4.476 -0.2452 -0.1689  0.8706
 4116SOL    HW113247   3.795   0.766   4.429 -0.6848  0.3881 -0.5180
 4116SOL    HW213248   3.708   0.903   4.409  0.4720  1.5922  2.0834
 4117SOL     OW13249   0.360   6.422   2.066 -0.1364 -0.2781 -0.2976
 4117SOL    HW113250   0.331   6.506   2.112 -0.6299  0.0139 -1.1073
 4117SOL    HW213251   0.285   6.356   2.068  0.7338 -1.2875  1.6195
 4118SOL     OW13252   2.926   0.994   5.145 -0.3083  0.4412 -0.0145
 4118SOL    HW113253   2.870   0.914   5.122  1.6602 -0.5455 -1.6287
 4118SOL    HW213254   2.920   1.011   5.244 -0.0051 -2.3280  0.5567
 4119SOL     OW13255   5.875   0.694   2.768  0.0184 -0.0272  0.4628
 4119SOL    HW113256   5.868   0.781   2.720  0.3591 -0.6111 -0.6684
 4119SOL    HW213257   5.962   0.688   2.816 -0.0404  0.2791  0.6093
 4120SOL     OW13258   4.539   6.293   0.606  0.0070 -0.1243 -0.6897
 4120SOL    HW113259   4.638   6.279   0.606  0.0850  0.3937 -0.8689
 4120SOL    HW213260   4.515   6.355   0.682  0.0979  1.5266 -1.9530
 4121SOL     OW13261   4.873   3.369   3.077 -0.0120  0.1569  0.0294
 4121SOL    HW113262   4.891   3.457   3.122  1.1779 -1.0814  2.1729
 4121SOL    HW213263   4.876   3.381   2.978  0.7092  2.4132  0.2618
 4122SOL     OW13264   1.749   3.702   5.341 -0.0853  0.4185 -0.8714
 4122SOL    HW113265   1.668   3.720   5.286 -0.9478 -0.9024 -0.0778
 4122SOL    HW213266   1.728   3.718   5.437  0.3660 -0.6388 -0.5809
 4123SOL     OW13267   3.309   2.217   5.346  0.4493 -0.1366 -0.1730
 4123SOL    HW113268   3.254   2.136   5.368  1.0431 -0.4591  0.1343
 4123SOL    HW213269   3.261   2.272   5.277 -0.6529  0.0310  0.7031
 4124SOL     OW13270   5.741   4.744   2.246 -0.6387 -0.0964  0.6716
 4124SOL    HW113271   5.724   4.649   2.270  0.8510 -0.2489  1.2486
 4124SOL    HW213272   5.769   4.750   2.150 -1.8559 -0.0804  0.3031
 4125SOL     OW13273   3.162   0.585   3.235  0.3088 -0.0286  0.4432
 4125SOL    HW113274   3.092   0.607   3.303 -0.6356 -0.3292 -0.4060
 4125SOL    HW213275   3.214   0.505   3.266 -1.8965 -1.8751 -0.3730
 4126SOL     OW13276   0.751   2.576   6.003 -0.7923 -0.0043  0.7219
 4126SOL    HW113277   0.707   2.665   6.020 -0.7063  0.0114  0.8622
 4126SOL    HW213278   0.845   2.579   6.037 -1.0081 -0.3846  1.3702
 4127SOL     OW13279   6.626   4.990   4.793 -0.0230  0.3467 -0.4809
 4127SOL    HW113280   6.582   5.065   4.743 -1.3547 -0.3032 -0.3346
 4127SOL    HW213281   6.629   4.909   4.736  2.1274  0.6891 -0.9199
 4128SOL     OW13282   6.075   2.664   1.536  0.5714 -0.0130  0.5792
 4128SOL    HW113283   6.029   2.575   1.532  0.9234 -0.1578 -1.2151
 4128SOL    HW213284   6.140   2.672   1.460 -0.1161  2.1234  0.1264
 4129SOL     OW13285   6.308   3.669   0.829  0.2638  0.1114  1.0796
 4129SOL    HW113286   6.268   3.686   0.739  0.6733 -2.6333  0.2651
 4129SOL    HW213287   6.267   3.730   0.896 -0.9550  1.3992 -0.7482
 4130SOL     OW13288   0.559   3.420   1.724  0.1396  0.2009  0.4782
 4130SOL    HW113289   0.566   3.448   1.629  2.3376 -0.3910  0.4215
 4130SOL    HW213290   0.578   3.322   1.732 -1.4112 -0.0662  1.3918
 4131SOL     OW13291   1.110   5.502   4.098 -0.1342  0.4839 -0.9096
 4131SOL    HW113292   1.171   5.478   4.022  0.7839 -1.1689  0.2729
 4131SOL    HW213293   1.104   5.425   4.161 -1.7275  1.4264  0.1686
 4132SOL     OW13294   4.205   0.823   4.436 -0.2050  0.6795  0.0127
 4132SOL    HW113295   4.254   0.738   4.450 -0.2000  0.5428 -0.8024
 4132SOL    HW213296   4.153   0.846   4.519 -1.2796 -0.8126 -0.2097
 4133SOL     OW13297   3.264   3.096   6.326 -0.2371  0.1861  0.2944
 4133SOL    HW113298   3.213   3.048   6.255  0.7348  0.9780 -0.9605
 4133SOL    HW213299   3.362   3.084   6.312 -0.0050  1.2637  0.8554
 4134SOL     OW13300   2.210   0.429   6.326 -0.6297 -0.5676 -0.4935
 4134SOL    HW113301   2.268   0.407   6.404  0.7464 -1.3024 -1.6810
 4134SOL    HW213302   2.131   0.368   6.324 -0.4746 -0.7885  0.1083
 4135SOL     OW13303   1.689   6.409   2.691 -0.1475 -0.5613  0.1448
 4135SOL    HW113304   1.607   6.421   2.634  0.3403  0.0706 -0.4444
 4135SOL    HW213305   1.769   6.438   2.640  0.2834  0.2387  1.2345
 4136SOL     OW13306   0.672   0.413   2.476  0.0465 -0.4189 -0.0298
 4136SOL    HW113307   0.747   0.447   2.420  1.6936 -1.2597  1.5725
 4136SOL    HW213308   0.628   0.489   2.524  0.1529  0.0245 -0.6265
 4137SOL     OW13309   4.750   4.804   4.822  0.4462 -0.1455  0.3173
 4137SOL    HW113310   4.718   4.890   4.862  1.4873  0.1605  0.5151
 4137SOL    HW213311   4.834   4.775   4.868  0.9469 -0.4720 -0.7761
 4138SOL     OW13312   6.137   5.215   6.530  0.1040 -0.2827  0.2992
 4138SOL    HW113313   6.152   5.313   6.526  0.2703 -0.3168  0.0807
 4138SOL    HW213314   6.092   5.191   6.616  3.5214 -0.4514  2.2021
 4139SOL     OW13315   4.528   2.483   5.693 -0.2687  0.0518  0.4097
 4139SOL    HW113316   4.580   2.553   5.740  0.3727  0.2973 -0.6337
 4139SOL    HW213317   4.446   2.523   5.653 -0.5123 -0.0396  0.8111
 4140SOL     OW13318   5.081   2.992   0.104 -0.3070  0.3454 -0.1111
 4140SOL    HW113319   5.174   3.003   0.070 -1.0269  2.2591 -1.6907
 4140SOL    HW213320   5.017   2.996   0.027 -1.6460 -3.8657  0.5079
 4141SOL     OW13321   0.696   5.264   1.340 -0.0607 -0.3575  0.1670
 4141SOL    HW113322   0.783   5.267   1.390 -0.2064 -1.0043  0.4636
 4141SOL    HW213323   0.631   5.205   1.388 -1.1490  1.2194  0.6964
 4142SOL     OW13324   5.308   0.999   3.155  0.6810 -0.2365  0.3155
 4142SOL    HW113325   5.330   1.032   3.247  0.5342 -1.3617  0.7783
 4142SOL    HW213326   5.374   0.928   3.129 -0.4855 -1.4094  0.4259
 4143SOL     OW13327   2.384   2.783   3.608  0.2314 -0.3632  0.2412
 4143SOL    HW113328   2.354   2.861   3.662  2.1907  1.5523 -1.2096
 4143SOL    HW213329   2.390   2.810   3.511  2.3777 -1.8101 -0.1105
 4144SOL     OW13330   5.023   6.511   2.449 -0.1452 -0.0603 -0.7014
 4144SOL    HW113331   5.100   6.466   2.403  0.5282  1.7524 -1.4252
 4144SOL    HW213332   5.055   6.554   2.533 -0.9513 -1.5744  0.4103
 4145SOL     OW13333   3.163   1.479   4.099 -0.0546 -0.1441 -0.0828
 4145SOL    HW113334   3.063   1.471   4.107 -0.1449  1.1713  0.3093
 4145SOL    HW213335   3.196   1.547   4.164  1.0766 -0.4029 -0.3767
 4146SOL     OW13336   4.250   5.212   0.379 -0.1081 -0.1089  0.8461
 4146SOL    HW113337   4.173   5.178   0.324  0.0990 -0.2942  0.6647
 4146SOL    HW213338   4.218   5.241   0.469 -0.3202 -0.6324  0.9437
 4147SOL     OW13339   3.987   6.370   0.814 -0.2785 -0.0734  0.1744
 4147SOL    HW113340   4.061   6.323   0.862 -2.5807 -3.0281  1.1675
 4147SOL    HW213341   3.961   6.452   0.866  0.1984 -0.7779  1.5755
 4148SOL     OW13342   0.169   0.133   1.796  0.1984 -0.7326  0.1391
 4148SOL    HW113343   0.082   0.141   1.845 -0.1428 -3.3083  0.0968
 4148SOL    HW213344   0.243   0.117   1.862  0.2295 -1.0834  0.0210
 4149SOL     OW13345   4.493   5.208   1.331 -0.0012 -0.7465  0.7810
 4149SOL    HW113346   4.514   5.279   1.398  1.5233 -0.7484  0.3484
 4149SOL    HW213347   4.552   5.129   1.346  0.9450 -0.4439 -1.0017
 4150SOL     OW13348   3.630   0.350   2.758 -0.1882 -0.0357  0.1175
 4150SOL    HW113349   3.674   0.438   2.771 -0.0763  0.0288 -0.6690
 4150SOL    HW213350   3.531   0.364   2.748 -0.0242  0.1818 -1.5477
 4151SOL     OW13351   0.493   0.156   0.998 -0.6820  0.3810 -0.6475
 4151SOL    HW113352   0.570   0.217   0.977  0.0548 -0.0174  0.7812
 4151SOL    HW213353   0.407   0.203   0.977 -0.1510  2.0819  0.7156
 4152SOL     OW13354   4.369   4.268   5.961 -0.2653  0.2808 -0.5672
 4152SOL    HW113355   4.414   4.257   5.873 -1.7692  1.7232 -1.5666
 4152SOL    HW213356   4.425   4.327   6.020 -0.0946  0.7791 -1.2149
 4153SOL     OW13357   3.872   5.231   6.453 -0.1513  0.6426 -0.7898
 4153SOL    HW113358   3.855   5.310   6.511  1.3542  0.0004  0.5883
 4153SOL    HW213359   3.789   5.176   6.446 -0.3850  0.7938  0.6575
 4154SOL     OW13360   5.010   2.041   3.744 -0.5033  0.5415  0.6503
 4154SOL    HW113361   4.932   2.101   3.763 -0.6566  0.7688 -0.6386
 4154SOL    HW213362   4.979   1.959   3.698  0.0999  1.0271 -0.6705
 4155SOL     OW13363   0.759   2.907   0.550  0.2838 -0.0809  0.2474
 4155SOL    HW113364   0.847   2.882   0.510  0.5355  0.9044  0.1539
 4155SOL    HW213365   0.768   2.912   0.649  1.0345  2.4136  0.1321
 4156SOL     OW13366   5.808   1.673   5.499 -0.4311 -0.5217  0.0454
 4156SOL    HW113367   5.841   1.582   5.522 -0.0019 -0.3982 -0.0787
 4156SOL    HW213368   5.809   1.685   5.399 -0.2303 -0.2824  0.0778
 4157SOL     OW13369   4.303   1.361   3.138  0.3583 -0.3853  0.3490
 4157SOL    HW113370   4.265   1.346   3.046 -1.3545 -1.9392  1.2408
 4157SOL    HW213371   4.244   1.425   3.188 -1.2488 -2.8094  1.7471
 4158SOL     OW13372   0.918   0.029   2.807 -0.1664  0.1112  0.5312
 4158SOL    HW113373   0.850   0.041   2.735  0.6076 -0.9419 -0.4014
 4158SOL    HW213374   0.982  -0.044   2.782  2.1446  1.9281  0.7045
 4159SOL     OW13375   2.059   5.003   5.090 -0.4296  0.1666 -0.8128
 4159SOL    HW113376   2.077   5.011   5.188  1.6065 -0.3548 -1.0937
 4159SOL    HW213377   1.968   4.964   5.076 -0.5345 -0.2902  0.8745
 4160SOL     OW13378   5.072   2.349   2.521 -0.6046  0.2546  0.4293
 4160SOL    HW113379   5.060   2.399   2.606  0.1216  0.1652  0.5953
 4160SOL    HW213380   5.067   2.412   2.444  0.5330  0.6270  0.6476
 4161SOL     OW13381   0.904   1.678   1.772 -0.3153 -0.1520  0.3464
 4161SOL    HW113382   0.914   1.609   1.700 -0.6084  0.8315 -0.6741
 4161SOL    HW213383   0.808   1.686   1.797 -0.2941 -0.0350  0.3887
 4162SOL     OW13384   0.565   0.685   3.842 -0.5549 -0.5835  0.1121
 4162SOL    HW113385   0.548   0.783   3.846  0.4378 -0.3307 -1.2337
 4162SOL    HW213386   0.546   0.651   3.750 -0.6110 -1.6159  0.4822
 4163SOL     OW13387   7.012   2.150   6.685  0.2882 -0.1421 -0.1472
 4163SOL    HW113388   7.081   2.186   6.623  0.1632  1.0027  0.3667
 4163SOL    HW213389   6.921   2.166   6.647  0.2201  0.3698  0.2348
 4164SOL     OW13390   1.959   0.828   5.799  0.1224 -0.1154  0.1857
 4164SOL    HW113391   1.963   0.732   5.828  0.5347  0.0226  0.5935
 4164SOL    HW213392   2.052   0.862   5.781  0.0746  0.4905  0.9998
 4165SOL     OW13393   1.518   5.033   3.108  0.3022  0.0323 -0.3897
 4165SOL    HW113394   1.520   4.939   3.074  0.5529 -0.3252  0.5832
 4165SOL    HW213395   1.554   5.095   3.038 -0.9581 -0.4308 -1.4970
 4166SOL     OW13396   0.163   0.657   1.498 -0.0655  0.7073  0.4295
 4166SOL    HW113397   0.066   0.679   1.486 -0.1353 -0.5799 -1.8492
 4166SOL    HW213398   0.173   0.559   1.513  0.9647  0.5369 -1.1465
 4167SOL     OW13399   0.609   3.064   1.475  0.2664 -0.3058  0.2012
 4167SOL    HW113400   0.663   3.053   1.392  0.1793 -1.0342  0.2359
 4167SOL    HW213401   0.511   3.064   1.453  0.2327 -0.8783  0.3410
 4168SOL     OW13402   2.870   6.681   0.846  0.1250  0.0720 -0.3535
 4168SOL    HW113403   2.770   6.678   0.842  0.0249 -0.7753  1.6257
 4168SOL    HW213404   2.907   6.683   0.753 -1.7199  0.3698 -1.1238
 4169SOL     OW13405   0.213   3.551   5.495 -0.1964 -0.2478 -0.0971
 4169SOL    HW113406   0.151   3.614   5.542 -0.9192 -0.7161 -0.3949
 4169SOL    HW213407   0.224   3.581   5.400 -2.4491 -1.8355 -0.9376
 4170SOL     OW13408   3.974   0.325   5.331  0.8013  0.2472  0.1583
 4170SOL    HW113409   3.950   0.328   5.428 -1.4781  0.6726 -0.3564
 4170SOL    HW213410   3.983   0.230   5.302 -0.8513  0.0162  0.3129
 4171SOL     OW13411   5.645   0.624   2.845  0.9037 -0.2042  0.0982
 4171SOL    HW113412   5.728   0.643   2.793  0.8529 -2.7305 -1.0771
 4171SOL    HW213413   5.566   0.657   2.794  1.0680  0.7604  0.4500
 4172SOL     OW13414   2.898   1.060   0.095  0.2864  0.5039  0.3275
 4172SOL    HW113415   2.803   1.082   0.117  0.0010  1.1536 -1.3933
 4172SOL    HW213416   2.955   1.140   0.109  0.5003  0.2642  0.8523
 4173SOL     OW13417   4.234   5.672   6.012 -0.1904  0.4658  0.6553
 4173SOL    HW113418   4.289   5.614   6.071  0.1441 -0.3233 -0.4000
 4173SOL    HW213419   4.169   5.725   6.067  0.2147 -0.1276  1.7180
 4174SOL     OW13420   6.989   1.191   1.962  0.8180 -0.1587 -0.0120
 4174SOL    HW113421   6.945   1.255   2.025  0.4658 -0.0331 -0.3801
 4174SOL    HW213422   6.921   1.129   1.924  1.1562 -0.7302  0.3166
 4175SOL     OW13423   1.674   0.126   3.386  0.3590 -0.1180 -0.0270
 4175SOL    HW113424   1.705   0.192   3.318  1.0123 -0.0651  0.3166
 4175SOL    HW213425   1.688   0.033   3.351 -0.5355 -0.0851 -0.4989
 4176SOL     OW13426   6.848   3.765   0.798 -0.5569 -0.1159 -0.3394
 4176SOL    HW113427   6.777   3.717   0.747 -0.4028 -1.1679  0.3975
 4176SOL    HW213428   6.935   3.716   0.788 -0.2706  0.3199 -0.0140
 4177SOL     OW13429   6.913   6.934   1.650  0.0643  0.1345  0.0927
 4177SOL    HW113430   7.011   6.956   1.646 -0.4846  2.7904 -1.3188
 4177SOL    HW213431   6.882   6.939   1.745  0.8620  1.5536  0.3084
 4178SOL     OW13432   3.332   2.924   5.456 -0.3849  0.1978 -0.0125
 4178SOL    HW113433   3.314   2.896   5.362 -0.6323  0.6984 -0.1165
 4178SOL    HW213434   3.401   2.864   5.496  0.4589  0.5926 -0.8412
 4179SOL     OW13435   4.987   2.174   6.927 -0.5376 -0.3037  0.1066
 4179SOL    HW113436   4.988   2.203   7.023 -2.8639 -0.2286  0.1741
 4179SOL    HW213437   5.029   2.245   6.871  0.9663 -0.3995  1.0576
 4180SOL     OW13438   6.893   3.117   2.116 -0.5962  0.5254  0.1879
 4180SOL    HW113439   6.950   3.055   2.062 -0.7413 -0.3232  0.9800
 4180SOL    HW213440   6.951   3.189   2.156 -0.2263  0.1859  0.2647
 4181SOL     OW13441   6.283   3.286   6.717 -0.2886  0.1471 -1.1686
 4181SOL    HW113442   6.373   3.292   6.673 -0.4265  1.0201 -1.3572
 4181SOL    HW213443   6.226   3.222   6.666  0.8401 -1.9729  0.0909
 4182SOL     OW13444   6.491   6.456   3.051  0.3533  0.3875 -0.0724
 4182SOL    HW113445   6.442   6.421   2.971  0.4077 -1.2723  0.5712
 4182SOL    HW213446   6.582   6.488   3.023  1.6125 -2.9939 -0.3535
 4183SOL     OW13447   2.030   0.308   0.648  0.0207 -0.1860 -0.2966
 4183SOL    HW113448   2.065   0.219   0.621 -1.1110 -0.3252 -1.4330
 4183SOL    HW213449   1.956   0.335   0.586 -0.2288  1.1652  0.5345
 4184SOL     OW13450   5.528   5.350   5.509 -0.5580 -0.4918  0.0010
 4184SOL    HW113451   5.435   5.344   5.545 -0.4366 -3.0309  0.0550
 4184SOL    HW213452   5.560   5.259   5.484  1.3180  0.5262 -1.6072
 4185SOL     OW13453   0.834   1.424   4.067 -0.5872  0.1041 -0.3691
 4185SOL    HW113454   0.905   1.471   4.014  0.0001  0.7728  0.9674
 4185SOL    HW213455   0.752   1.481   4.070  0.0047  0.9446  0.9515
 4186SOL     OW13456   4.090   3.296   3.712 -0.1670 -0.4455 -0.2489
 4186SOL    HW113457   4.165   3.343   3.757 -2.4131  3.3038  0.0351
 4186SOL    HW213458   4.035   3.247   3.780  1.1663 -2.0358 -0.2709
 4187SOL     OW13459   3.660   5.256   6.793  0.4289  0.2405 -0.4211
 4187SOL    HW113460   3.637   5.219   6.883  0.8066  2.1413  0.5135
 4187SOL    HW213461   3.579   5.254   6.734  0.3573 -1.6801 -0.3100
 4188SOL     OW13462   6.296   6.149   2.183  0.1548  0.7530 -0.3954
 4188SOL    HW113463   6.215   6.185   2.229 -1.2418 -1.8864 -0.6374
 4188SOL    HW213464   6.376   6.163   2.242 -0.8934  1.1462  0.9808
 4189SOL     OW13465   1.412   2.539   3.310  0.0754  0.1342  0.5930
 4189SOL    HW113466   1.403   2.472   3.383  1.5572  0.1600  0.8374
 4189SOL    HW213467   1.472   2.504   3.238  1.1516  1.2872  0.8817
 4190SOL     OW13468   2.312   5.504   2.161  0.4981 -0.3940  0.7653
 4190SOL    HW113469   2.370   5.509   2.080 -0.9646 -0.1756 -0.3078
 4190SOL    HW213470   2.225   5.550   2.143  0.7370  1.0832  3.0079
 4191SOL     OW13471   0.213   2.764   3.428  0.0618  0.3377 -0.0231
 4191SOL    HW113472   0.208   2.739   3.524 -3.0089 -0.4274 -0.2990
 4191SOL    HW213473   0.298   2.729   3.389  1.0853  0.1491  2.2179
 4192SOL     OW13474   4.244   6.216   3.496 -0.1831  0.0689 -0.8560
 4192SOL    HW113475   4.341   6.229   3.516 -0.3669 -0.9615  0.9661
 4192SOL    HW213476   4.234   6.141   3.430  0.2191 -0.7482 -0.0108
 4193SOL     OW13477   0.358   0.402   3.421 -0.1347 -0.7997 -0.6188
 4193SOL    HW113478   0.338   0.338   3.346  0.7490  0.9645 -2.4804
 4193SOL    HW213479   0.452   0.434   3.413 -0.0813 -0.4127  1.1895
 4194SOL     OW13480   3.604   4.890   2.870 -0.1689 -0.3520 -0.3420
 4194SOL    HW113481   3.599   4.910   2.772  0.1272 -2.2621 -0.7966
 4194SOL    HW213482   3.512   4.882   2.908 -0.4844 -3.5091 -1.4271
 4195SOL     OW13483   0.096   5.903   4.236  0.7921 -0.1387  0.0135
 4195SOL    HW113484   0.127   5.861   4.322  1.4921 -0.5085 -0.4147
 4195SOL    HW213485   0.065   5.832   4.173  2.2937 -0.0750 -0.8403
 4196SOL     OW13486   4.194   1.185   5.305 -0.1083  0.7293  0.2887
 4196SOL    HW113487   4.181   1.183   5.206  1.4313  0.7693  0.0599
 4196SOL    HW213488   4.166   1.097   5.344  1.5283 -0.2005 -0.5179
 4197SOL     OW13489   4.846   4.507   4.973  0.2972  0.0348 -0.1878
 4197SOL    HW113490   4.778   4.574   5.002 -1.2608 -0.3958 -2.5132
 4197SOL    HW213491   4.824   4.418   5.010 -1.4480 -0.4353 -2.1948
 4198SOL     OW13492   5.053   4.053   5.334  0.2733 -0.2552  0.0424
 4198SOL    HW113493   4.993   4.034   5.256 -0.1053  0.0299  0.2569
 4198SOL    HW213494   5.062   3.971   5.391  1.2478 -0.7146 -0.7624
 4199SOL     OW13495   2.829   6.045   6.449 -0.3129 -0.5753  0.0754
 4199SOL    HW113496   2.764   5.988   6.498  0.3345 -0.8487  0.6330
 4199SOL    HW213497   2.845   6.130   6.499 -0.4772 -0.3715 -0.2170
 4200SOL     OW13498   3.808   0.437   6.666  0.5091 -0.2791  0.2857
 4200SOL    HW113499   3.780   0.406   6.575  0.0036  0.0255  0.3374
 4200SOL    HW213500   3.861   0.521   6.658 -0.4459  0.3384  0.3468
 4201SOL     OW13501   0.252   6.087   5.129  0.4803 -0.0768  0.0935
 4201SOL    HW113502   0.222   6.175   5.092 -0.6360 -1.1752 -1.8205
 4201SOL    HW213503   0.352   6.085   5.135  0.5006  1.6291  1.1264
 4202SOL     OW13504   5.607   3.151   4.355  0.0580 -0.1335 -0.3623
 4202SOL    HW113505   5.576   3.081   4.291 -3.0688  0.2696  0.5107
 4202SOL    HW213506   5.570   3.240   4.327 -0.4440  0.2357  1.3087
 4203SOL     OW13507   3.622   5.609   4.416  0.5298  0.1098  0.4575
 4203SOL    HW113508   3.523   5.619   4.417  0.4763  0.0067 -1.2190
 4203SOL    HW213509   3.665   5.699   4.418  0.4284  0.1478  1.4959
 4204SOL     OW13510   1.126   6.169   0.958 -0.1617 -0.0798  0.3417
 4204SOL    HW113511   1.149   6.239   1.026 -4.0709  2.8593 -0.9886
 4204SOL    HW213512   1.164   6.195   0.869 -0.8553 -0.1292  0.0273
 4205SOL     OW13513   2.122   1.144   3.689  0.3351  0.5725  0.2625
 4205SOL    HW113514   2.150   1.128   3.783  0.8602  0.5093  0.0984
 4205SOL    HW213515   2.056   1.073   3.662  2.2948 -1.1194 -0.3029
 4206SOL     OW13516   5.328   4.916   3.025 -0.2562  0.3328  0.5043
 4206SOL    HW113517   5.416   4.871   3.010 -0.6136 -1.0836  2.2375
 4206SOL    HW213518   5.342   5.013   3.043  0.9143  0.2074  0.3183
 4207SOL     OW13519   0.776   0.235   0.421 -0.0062  0.4250 -0.1613
 4207SOL    HW113520   0.698   0.292   0.397 -0.5986 -0.5111 -0.5440
 4207SOL    HW213521   0.744   0.154   0.470  0.4923 -0.8623 -1.8502
 4208SOL     OW13522   2.466   1.018   2.649 -0.0129 -1.0654  0.3373
 4208SOL    HW113523   2.561   1.035   2.621 -0.4837  1.6610  0.0635
 4208SOL    HW213524   2.415   0.976   2.574  0.2789  0.3194 -0.6830
 4209SOL     OW13525   3.552   0.470   5.812  0.1128  0.3973 -0.2232
 4209SOL    HW113526   3.644   0.465   5.850  0.3049  1.1624 -0.5783
 4209SOL    HW213527   3.549   0.540   5.741 -0.7975  0.5144 -0.0776
 4210SOL     OW13528   4.224   3.822   0.132 -0.2115  0.7203  0.0412
 4210SOL    HW113529   4.247   3.909   0.175 -0.3417  0.6574  0.2398
 4210SOL    HW213530   4.242   3.828   0.034 -2.8755  1.9398 -0.4734
 4211SOL     OW13531   6.894   3.614   5.183  0.1637 -0.0729  0.7766
 4211SOL    HW113532   6.832   3.615   5.106 -0.0421  1.7358  0.9149
 4211SOL    HW213533   6.863   3.547   5.251 -2.2281  1.4215  1.2757
 4212SOL     OW13534   3.896   5.795   0.979  0.2841  0.8970  0.0478
 4212SOL    HW113535   3.873   5.702   1.008  0.8214  0.9895  0.7890
 4212SOL    HW213536   3.929   5.848   1.057  1.9158  1.1130 -0.7403
 4213SOL     OW13537   1.751   1.337   2.245 -0.0747 -0.2053  0.3239
 4213SOL    HW113538   1.698   1.421   2.247 -2.5780 -1.6356 -1.0335
 4213SOL    HW213539   1.733   1.284   2.329  3.9217  1.7863  2.7730
 4214SOL     OW13540   5.274   4.187   3.605 -0.7191 -0.1323  0.1357
 4214SOL    HW113541   5.291   4.164   3.509 -1.6713 -1.1738  0.1938
 4214SOL    HW213542   5.176   4.196   3.620 -0.4895  2.0066  0.6097
 4215SOL     OW13543   6.404   5.666   1.055 -0.8702  0.6861 -0.2082
 4215SOL    HW113544   6.359   5.742   1.008  0.0336  0.4272 -1.5783
 4215SOL    HW213545   6.343   5.587   1.057 -1.5878  1.2428  0.6877
 4216SOL     OW13546   2.094   3.150   3.511 -0.0922 -0.3749 -0.3182
 4216SOL    HW113547   2.105   3.097   3.427 -0.0117  1.0017 -1.1951
 4216SOL    HW213548   2.129   3.242   3.498 -0.4595 -0.0019  1.1049
 4217SOL     OW13549   5.602   0.065   3.159 -0.3365 -0.4227 -0.1164
 4217SOL    HW113550   5.692   0.047   3.200 -0.3048  0.2378  0.1055
 4217SOL    HW213551   5.610   0.057   3.060  0.6514  2.3784 -0.3432
 4218SOL     OW13552   2.957   4.814   3.043  0.6154  0.4429 -0.2701
 4218SOL    HW113553   3.023   4.751   3.084 -0.6290  0.3642  1.7993
 4218SOL    HW213554   2.879   4.762   3.008 -0.4896  0.7482  1.5849
 4219SOL     OW13555   5.046   2.128   2.736  0.1276  0.1046  0.4922
 4219SOL    HW113556   5.144   2.148   2.746  0.4770 -1.0370 -0.4404
 4219SOL    HW213557   5.017   2.151   2.643 -0.1459 -0.8916  0.3240
 4220SOL     OW13558   0.931   5.030   2.537  0.3422  0.6113  0.4023
 4220SOL    HW113559   0.964   4.972   2.462 -1.3025 -0.8844  0.7741
 4220SOL    HW213560   1.001   5.098   2.560  2.2520 -1.0400 -0.2350
 4221SOL     OW13561   4.801   0.128   4.716 -0.0705 -0.2358 -0.1594
 4221SOL    HW113562   4.826   0.225   4.708  0.2710 -0.3109 -0.0066
 4221SOL    HW213563   4.871   0.072   4.671  1.0222 -0.5684  1.8550
 4222SOL     OW13564   3.834   1.721   0.817  0.0341 -0.4403  0.4671
 4222SOL    HW113565   3.829   1.774   0.902 -0.3399  0.6615 -0.2164
 4222SOL    HW213566   3.928   1.696   0.799  0.1414 -0.5223  1.1157
 4223SOL     OW13567   4.037   3.894   3.860 -0.0150 -0.7499 -0.1551
 4223SOL    HW113568   3.938   3.900   3.851  0.0336  1.6717  0.3490
 4223SOL    HW213569   4.080   3.971   3.813  1.4559 -0.3740  1.6628
 4224SOL     OW13570   2.435   0.886   4.901  0.2780  0.1245 -0.7402
 4224SOL    HW113571   2.393   0.953   4.841 -0.1333  1.4004  0.9068
 4224SOL    HW213572   2.428   0.916   4.996 -0.3149 -2.4679  0.1292
 4225SOL     OW13573   3.914   6.232   4.531  0.0939 -0.0576  0.2632
 4225SOL    HW113574   3.938   6.271   4.442 -2.2991 -1.2856 -1.0244
 4225SOL    HW213575   3.981   6.164   4.557  2.4222  2.3138  0.8850
 4226SOL     OW13576   1.281   2.200   4.424 -0.0178  0.4795  0.1606
 4226SOL    HW113577   1.260   2.106   4.455  0.0183  0.2206 -0.5881
 4226SOL    HW213578   1.356   2.197   4.358 -1.0982  0.8409 -1.1361
 4227SOL     OW13579   4.798   5.991   6.747 -0.1171 -0.4659  0.0774
 4227SOL    HW113580   4.771   5.932   6.823  0.9376 -1.2300 -0.1258
 4227SOL    HW213581   4.794   5.941   6.661 -2.3324  0.6887 -0.5692
 4228SOL     OW13582   3.893   5.502   3.277  0.0715 -0.0256  0.2234
 4228SOL    HW113583   3.826   5.576   3.290  0.8473  0.9105 -0.8886
 4228SOL    HW213584   3.845   5.414   3.274 -1.2778  0.6958 -1.6800
 4229SOL     OW13585   4.160   5.416   5.472  0.2954  0.0328 -0.2022
 4229SOL    HW113586   4.184   5.486   5.405 -0.5104  0.6598  0.1448
 4229SOL    HW213587   4.061   5.407   5.477  0.3696 -0.6341  0.2803
 4230SOL     OW13588   1.853   2.802   5.011 -0.7653  0.9166 -0.9913
 4230SOL    HW113589   1.813   2.742   5.080  0.4122  1.1757 -0.0451
 4230SOL    HW213590   1.810   2.785   4.922 -1.8708  0.1350 -0.3269
 4231SOL     OW13591   4.743   0.416   5.861  0.5204  0.1410  0.3029
 4231SOL    HW113592   4.721   0.413   5.958  1.8806  0.3833  0.6445
 4231SOL    HW213593   4.753   0.323   5.826  1.2409  0.0633  0.6995
 4232SOL     OW13594   2.479   5.538   1.971 -0.8314 -0.6110  0.2030
 4232SOL    HW113595   2.414   5.565   1.900 -0.0986  0.6854 -0.0245
 4232SOL    HW213596   2.557   5.491   1.928  0.7085  2.1399 -0.2493
 4233SOL     OW13597   4.088   3.967   6.439 -0.1561 -0.6320 -0.3980
 4233SOL    HW113598   4.015   4.033   6.453 -1.0299 -1.6570 -0.0389
 4233SOL    HW213599   4.175   4.008   6.467 -0.7967  0.0539  0.6707
 4234SOL     OW13600   4.755   4.241   5.747 -0.1074 -0.2938 -0.1552
 4234SOL    HW113601   4.773   4.159   5.802 -1.5395  1.0753  2.5874
 4234SOL    HW213602   4.657   4.246   5.726 -0.7068  2.1650  2.5386
 4235SOL     OW13603   0.213   5.182   6.153  0.4772  0.3497  0.1806
 4235SOL    HW113604   0.186   5.087   6.137  1.2151  0.0300  0.7837
 4235SOL    HW213605   0.234   5.194   6.250  1.8385  0.7545 -0.1491
 4236SOL     OW13606   2.302   1.243   2.749  0.0310  0.1449 -0.2281
 4236SOL    HW113607   2.348   1.155   2.740  0.3134  0.4261 -2.0338
 4236SOL    HW213608   2.209   1.229   2.782  1.3844 -0.3965  3.7943
 4237SOL     OW13609   5.876   2.787   5.449  0.5134 -0.0518  0.3263
 4237SOL    HW113610   5.906   2.844   5.525  1.4061  2.0846 -1.4956
 4237SOL    HW213611   5.953   2.735   5.413  0.2063 -0.6785  0.5571
 4238SOL     OW13612   5.170   5.001   5.208  0.5953  0.2598  0.6883
 4238SOL    HW113613   5.096   4.997   5.141  0.6715 -0.4866  0.6402
 4238SOL    HW213614   5.150   4.940   5.285  1.7151 -0.9155  0.0901
 4239SOL     OW13615   5.645   4.824   5.422 -0.5003  0.2197  0.1071
 4239SOL    HW113616   5.694   4.872   5.350 -0.2550 -1.1358 -0.6606
 4239SOL    HW213617   5.711   4.783   5.485 -0.6262 -0.9897 -0.5166
 4240SOL     OW13618   3.155   3.519   5.097  0.1710  0.6403  0.4185
 4240SOL    HW113619   3.179   3.601   5.148  0.2299 -0.2119  1.8066
 4240SOL    HW213620   3.216   3.508   5.019  1.9642  0.4586  1.7926
 4241SOL     OW13621   4.549   1.265   2.021 -0.0788 -0.3753 -0.6615
 4241SOL    HW113622   4.523   1.197   1.953  1.8161 -1.0100 -0.8178
 4241SOL    HW213623   4.590   1.344   1.975 -0.1934 -0.1267 -0.3413
 4242SOL     OW13624   2.308   0.329   4.613 -0.0977 -0.4676 -0.5703
 4242SOL    HW113625   2.396   0.311   4.568  0.2291 -2.5484  0.7557
 4242SOL    HW213626   2.248   0.378   4.550  2.3679  2.1090 -1.1458
 4243SOL     OW13627   3.220   1.216   1.717  0.1396 -0.1840  0.2711
 4243SOL    HW113628   3.121   1.228   1.716  0.0585 -0.8675  0.0992
 4243SOL    HW213629   3.256   1.242   1.806 -0.1032  0.7358  0.1194
 4244SOL     OW13630   1.362   6.094   5.537  0.1029 -0.5438 -0.3816
 4244SOL    HW113631   1.267   6.099   5.508  0.2185  0.9683 -0.6220
 4244SOL    HW213632   1.377   6.156   5.614  1.0052 -0.2789 -0.7439
 4245SOL     OW13633   6.880   0.860   0.809  0.2169 -0.0877 -0.4098
 4245SOL    HW113634   6.856   0.935   0.871 -1.5973 -2.2041  1.6379
 4245SOL    HW213635   6.811   0.853   0.736  0.3142  0.1588 -0.5243
 4246SOL     OW13636   3.250   0.790   3.067  0.8029 -0.4137  0.4715
 4246SOL    HW113637   3.252   0.883   3.105 -1.3964  0.2919 -0.9361
 4246SOL    HW213638   3.180   0.737   3.114 -1.9734  0.4744 -2.2753
 4247SOL     OW13639   2.540   4.565   6.615  0.0675  0.3409  0.0345
 4247SOL    HW113640   2.449   4.581   6.654  0.3487 -0.7673  1.2312
 4247SOL    HW213641   2.601   4.640   6.638 -0.6996  1.4341 -1.3669
 4248SOL     OW13642   4.370   6.251   0.388  0.3451  0.0854 -0.1190
 4248SOL    HW113643   4.440   6.275   0.455  0.1822 -0.6976  0.3466
 4248SOL    HW213644   4.284   6.231   0.436  0.2048 -0.3925 -0.5627
 4249SOL     OW13645   4.866   2.709   5.038  0.1901 -0.1574  0.0120
 4249SOL    HW113646   4.834   2.631   5.092 -0.3644  0.8578  1.1994
 4249SOL    HW213647   4.788   2.752   4.992  0.5069 -0.3437 -0.7108
 4250SOL     OW13648   0.316   4.861   5.131 -0.1600  0.1509  0.2153
 4250SOL    HW113649   0.397   4.843   5.188 -0.4282 -1.1759  0.2170
 4250SOL    HW213650   0.233   4.845   5.184 -0.4229  0.4827 -0.0894
 4251SOL     OW13651   3.736   0.094   0.608 -0.0130  0.0257 -0.3745
 4251SOL    HW113652   3.673   0.096   0.531  0.2597  0.0122 -0.5991
 4251SOL    HW213653   3.829   0.110   0.576  0.1775 -0.5522 -0.1253
 4252SOL     OW13654   6.725   6.411   0.202  0.5475 -0.4805  0.3200
 4252SOL    HW113655   6.754   6.412   0.106  0.3146 -3.4235  0.1260
 4252SOL    HW213656   6.788   6.354   0.255  0.9835  1.5219  2.0904
 4253SOL     OW13657   2.311   6.848   2.285  0.2416  0.5993 -0.5147
 4253SOL    HW113658   2.327   6.828   2.189 -1.0741  1.8802 -1.0262
 4253SOL    HW213659   2.375   6.795   2.341  1.0631 -0.1163 -2.0772
 4254SOL     OW13660   6.638   1.104   1.533 -0.0447  0.4431 -0.1660
 4254SOL    HW113661   6.618   1.186   1.587 -1.4877 -0.4002  0.6483
 4254SOL    HW213662   6.576   1.030   1.560  2.2668 -1.4534  0.2884
 4255SOL     OW13663   2.687   2.238   5.958 -0.3798  0.2773  0.3955
 4255SOL    HW113664   2.632   2.206   6.035 -0.3269 -0.3998  0.1644
 4255SOL    HW213665   2.643   2.316   5.915 -1.4602 -0.6134 -0.1399
 4256SOL     OW13666   6.401   0.836   0.958 -0.1162  0.2799 -0.4143
 4256SOL    HW113667   6.426   0.820   0.862 -1.8022  0.1742 -0.8630
 4256SOL    HW213668   6.318   0.785   0.980 -0.5583  1.4322  0.7004
 4257SOL     OW13669   0.449   1.328   4.203 -0.2286  0.2999  0.3906
 4257SOL    HW113670   0.362   1.291   4.172 -0.2123  0.5724  0.0150
 4257SOL    HW213671   0.470   1.412   4.153  0.1040  0.4013  0.6915
 4258SOL     OW13672   1.998   0.251   5.982  0.7532 -0.2409 -0.3183
 4258SOL    HW113673   1.923   0.188   5.965 -1.4042  2.4041 -1.4083
 4258SOL    HW213674   1.993   0.285   6.076  0.3491  0.1503 -0.4738
 4259SOL     OW13675   1.208   0.053   0.190 -0.2779  0.1359  0.1494
 4259SOL    HW113676   1.172   0.135   0.235  1.8422  0.8658  0.6451
 4259SOL    HW213677   1.252   0.079   0.104  0.3327 -0.4930  0.2636
 4260SOL     OW13678   6.341   1.114   5.578 -0.1475  0.0850  0.0747
 4260SOL    HW113679   6.355   1.191   5.639  1.2492  1.0616 -1.3784
 4260SOL    HW213680   6.421   1.104   5.518 -1.2114 -1.1422 -1.2309
 4261SOL     OW13681   0.395   1.534   4.924  0.1839 -0.4208  0.3412
 4261SOL    HW113682   0.329   1.490   4.863 -0.7558  1.8916 -0.3972
 4261SOL    HW213683   0.487   1.501   4.903 -0.3620 -1.2247 -0.8819
 4262SOL     OW13684   2.137   3.550   4.539  0.6159  0.4457  0.2664
 4262SOL    HW113685   2.116   3.607   4.618  0.1182 -0.3954  0.7385
 4262SOL    HW213686   2.175   3.608   4.466 -2.1730  1.8574 -0.2096
 4263SOL     OW13687   2.620   5.635   3.754 -0.0082  0.1488 -0.3471
 4263SOL    HW113688   2.639   5.560   3.690 -0.2052  0.0420 -0.2807
 4263SOL    HW213689   2.606   5.598   3.845 -2.5778  0.0083 -0.7414
 4264SOL     OW13690   4.676   2.330   0.154 -0.1895 -0.8381 -0.1385
 4264SOL    HW113691   4.731   2.351   0.073  1.1031  0.1183  0.9467
 4264SOL    HW213692   4.694   2.236   0.182  1.0051 -0.4935  0.2777
 4265SOL     OW13693   3.264   6.176   4.745  0.2671  0.6910  0.4581
 4265SOL    HW113694   3.211   6.141   4.668  2.0857  1.2277 -1.0891
 4265SOL    HW213695   3.333   6.109   4.772 -0.5834  0.3461  1.9226
 4266SOL     OW13696   1.423   4.494   2.829  0.3863 -0.1448  0.2207
 4266SOL    HW113697   1.446   4.543   2.913 -1.0790  1.6715 -0.3654
 4266SOL    HW213698   1.418   4.396   2.848  0.0924  0.2161  2.2434
 4267SOL     OW13699   0.808   1.667   2.715  0.1577  0.3052  0.2862
 4267SOL    HW113700   0.756   1.738   2.764 -1.1209 -0.5994  0.3139
 4267SOL    HW213701   0.744   1.606   2.669  1.2551 -0.5872 -0.0920
 4268SOL     OW13702   0.816   4.556   5.197  0.1522 -0.0635  0.0083
 4268SOL    HW113703   0.770   4.615   5.131 -0.7380 -0.9690 -0.2119
 4268SOL    HW213704   0.748   4.500   5.244  0.9875 -1.0195  0.1123
 4269SOL     OW13705   3.152   2.095   4.734  0.2999 -0.2244 -0.2825
 4269SOL    HW113706   3.153   2.150   4.818 -2.4680  0.7229 -0.7436
 4269SOL    HW213707   3.245   2.066   4.712  1.5289  2.0336  1.4490
 4270SOL     OW13708   3.395   4.071   0.913  0.4192 -0.0414 -0.4724
 4270SOL    HW113709   3.455   4.086   0.834  1.5459 -2.5878 -0.1914
 4270SOL    HW213710   3.440   4.105   0.995  0.3085  0.4369 -0.6079
 4271SOL     OW13711   6.401   5.358   5.606  0.4466 -0.2280  0.1775
 4271SOL    HW113712   6.429   5.291   5.675 -0.1294 -1.4088 -0.6894
 4271SOL    HW213713   6.395   5.313   5.516  1.1623  1.2608 -0.6558
 4272SOL     OW13714   5.870   2.187   6.472 -0.6460 -0.0991  0.2709
 4272SOL    HW113715   5.846   2.182   6.569  1.9764  1.0336  1.0570
 4272SOL    HW213716   5.830   2.269   6.431 -1.6576 -0.5183  0.3833
 4273SOL     OW13717   4.212   0.782   2.047  0.4635  0.0007  0.3466
 4273SOL    HW113718   4.115   0.762   2.032  0.3989  0.3761  0.2604
 4273SOL    HW213719   4.235   0.869   2.003  0.9079 -0.2313  0.1135
 4274SOL     OW13720   3.926   0.216   2.195 -0.2570 -0.3427  0.2189
 4274SOL    HW113721   3.856   0.215   2.267 -0.8887 -1.0958 -0.3826
 4274SOL    HW213722   3.882   0.201   2.107  0.4939  0.6820 -0.3534
 4275SOL     OW13723   4.712   1.822   4.005 -0.6340 -0.0316  0.0430
 4275SOL    HW113724   4.617   1.805   4.031 -0.6054  0.6897  0.6308
 4275SOL    HW213725   4.765   1.848   4.086  0.0093 -0.1673 -0.3251
 4276SOL     OW13726   2.379   2.275   2.868  0.0907 -0.0642  0.4798
 4276SOL    HW113727   2.410   2.226   2.950 -0.7049 -1.3149  0.0629
 4276SOL    HW213728   2.450   2.339   2.838  0.6422 -0.0347  1.7792
 4277SOL     OW13729   6.354   4.209   3.527 -0.3018 -0.4192  0.6315
 4277SOL    HW113730   6.383   4.153   3.604 -2.2047 -0.9380  1.0323
 4277SOL    HW213731   6.270   4.171   3.488  0.3331  0.1037 -1.4161
 4278SOL     OW13732   5.941   1.966   0.353 -0.2642  0.1579 -0.1212
 4278SOL    HW113733   5.987   1.923   0.276  0.2067  0.4169  0.0095
 4278SOL    HW213734   6.008   1.992   0.422 -0.8167 -1.2900  1.0019
 4279SOL     OW13735   1.962   3.712   3.644  0.1889  0.6103 -0.3620
 4279SOL    HW113736   2.009   3.625   3.635  0.5215  0.7914 -0.3958
 4279SOL    HW213737   1.876   3.699   3.694  0.5314  0.3717  0.1619
 4280SOL     OW13738   0.852   1.849   6.212 -0.2490 -0.6046 -0.2060
 4280SOL    HW113739   0.898   1.763   6.233 -1.3967 -0.8984  1.2707
 4280SOL    HW213740   0.800   1.839   6.126 -0.6060 -1.4941  0.0987
 4281SOL     OW13741   0.258   0.408   1.551 -0.3229 -0.2003  0.4448
 4281SOL    HW113742   0.209   0.357   1.480 -0.7140  0.0889  0.5043
 4281SOL    HW213743   0.353   0.422   1.523 -0.9271  1.5521 -0.9134
 4282SOL     OW13744   5.430   4.103   2.087  0.1036 -0.1122 -0.1311
 4282SOL    HW113745   5.497   4.046   2.135  0.2962  0.1626 -0.0648
 4282SOL    HW213746   5.473   4.190   2.062 -0.5282  0.4856  0.8238
 4283SOL     OW13747   1.177   3.229   4.970 -0.0738  0.3034  0.2291
 4283SOL    HW113748   1.163   3.246   5.068 -2.1624  2.0144 -0.2845
 4283SOL    HW213749   1.165   3.315   4.920  2.2958 -0.2638 -1.4649
 4284SOL     OW13750   4.541   5.672   1.034 -0.2490  0.0415  0.6068
 4284SOL    HW113751   4.466   5.737   1.019  0.3544  1.2101  2.3023
 4284SOL    HW213752   4.546   5.650   1.132  0.2104 -1.8034  0.2022
 4285SOL     OW13753   3.262   6.787   0.252  0.6500 -0.0708 -0.3733
 4285SOL    HW113754   3.212   6.701   0.259 -0.9729  0.8135 -0.6631
 4285SOL    HW213755   3.358   6.772   0.277  0.4684 -2.0026 -0.6931
 4286SOL     OW13756   5.175   1.017   5.587 -0.2343  0.1451  0.4540
 4286SOL    HW113757   5.229   0.989   5.508 -1.5131  0.3695 -0.5308
 4286SOL    HW213758   5.081   1.034   5.559 -1.2405 -1.8095  2.4109
 4287SOL     OW13759   5.387   6.205   2.666  0.1214  0.0943 -0.3146
 4287SOL    HW113760   5.484   6.181   2.667  0.0705 -0.3992 -2.7007
 4287SOL    HW213761   5.332   6.124   2.646 -0.6966  0.5947 -0.1507
 4288SOL     OW13762   6.667   3.902   2.676 -0.5343 -0.5258  0.0589
 4288SOL    HW113763   6.644   4.000   2.677 -2.3013 -0.8201  3.0664
 4288SOL    HW213764   6.765   3.891   2.661 -0.3039  1.6995 -0.4682
 4289SOL     OW13765   1.948   6.289   6.670 -0.6324  0.5468 -0.2382
 4289SOL    HW113766   1.878   6.248   6.729 -1.1526  1.8129  0.0619
 4289SOL    HW213767   1.998   6.216   6.623  0.2104 -0.5768  2.1772
 4290SOL     OW13768   6.376   0.304   2.082 -0.2583 -0.0600 -0.5841
 4290SOL    HW113769   6.317   0.300   2.000  0.0632 -2.2456 -0.7520
 4290SOL    HW213770   6.471   0.317   2.054 -0.2349 -0.0602 -0.5058
 4291SOL     OW13771   5.128   6.399   5.480  0.3359 -0.3352  0.1111
 4291SOL    HW113772   5.199   6.366   5.543  1.1643 -1.6786 -1.4331
 4291SOL    HW213773   5.084   6.320   5.436 -2.0136  0.4911  0.8860
 4292SOL     OW13774   1.198   6.616   0.796  0.1792  0.1544  0.2399
 4292SOL    HW113775   1.294   6.626   0.823 -0.2846 -1.2324  2.7085
 4292SOL    HW213776   1.142   6.681   0.849 -0.6131 -1.6411  1.7034
 4293SOL     OW13777   5.282   1.132   0.616 -0.6045 -0.0306 -0.0757
 4293SOL    HW113778   5.276   1.057   0.550  1.1751 -3.3972  3.2322
 4293SOL    HW213779   5.217   1.117   0.690 -0.3925  1.8929  0.5628
 4294SOL     OW13780   1.945   2.116   4.813  0.0468  0.5690 -0.0123
 4294SOL    HW113781   2.007   2.078   4.745 -0.3356  0.5118 -0.3370
 4294SOL    HW213782   1.984   2.200   4.851 -0.6264  1.7746 -1.8029
 4295SOL     OW13783   4.773   5.682   1.602  0.5272 -0.4130 -0.0249
 4295SOL    HW113784   4.781   5.775   1.638 -0.1773  0.0870 -1.1175
 4295SOL    HW213785   4.713   5.628   1.661 -0.5442  0.3716 -0.3621
 4296SOL     OW13786   1.142   4.349   1.190  0.0634 -0.1748 -0.2986
 4296SOL    HW113787   1.128   4.443   1.159  0.4058  0.4409  1.3084
 4296SOL    HW213788   1.091   4.286   1.131  0.0051  0.9822 -1.5354
 4297SOL     OW13789   4.780   5.087   5.683 -0.2729 -0.5013  0.2214
 4297SOL    HW113790   4.878   5.091   5.663 -0.0420 -2.2118  0.8771
 4297SOL    HW213791   4.768   5.066   5.780 -1.3167  0.9196  0.4259
 4298SOL     OW13792   3.005   6.316   0.618 -0.2840 -0.1967 -0.0260
 4298SOL    HW113793   3.067   6.373   0.566 -0.1799 -1.1832 -1.0024
 4298SOL    HW213794   3.056   6.267   0.689 -0.0351 -0.5753 -0.4620
 4299SOL     OW13795   6.778   4.390   5.459  0.6410  0.1401 -0.0380
 4299SOL    HW113796   6.814   4.332   5.386  0.0239 -1.0777  0.5949
 4299SOL    HW213797   6.719   4.336   5.519  0.4205  1.3217  0.8568
 4300SOL     OW13798   4.074   1.125   1.793 -0.0511 -0.6132  0.1911
 4300SOL    HW113799   4.022   1.111   1.878 -0.6783  1.5223  0.1957
 4300SOL    HW213800   4.150   1.188   1.811 -1.5797  1.7822 -1.2697
 4301SOL     OW13801   2.080   5.622   2.638  0.0919  0.2507  0.8019
 4301SOL    HW113802   1.986   5.606   2.607 -0.0223  1.2815  0.5942
 4301SOL    HW213803   2.107   5.715   2.616  1.3440 -0.1870  0.4477
 4302SOL     OW13804   4.341   6.140   5.837  0.6608  0.8335 -0.2844
 4302SOL    HW113805   4.293   6.192   5.767  2.4413  1.8984 -0.7991
 4302SOL    HW213806   4.338   6.042   5.814 -0.4593  0.9691 -0.7637
 4303SOL     OW13807   5.956   4.203   2.598 -0.2140 -0.0639  0.3220
 4303SOL    HW113808   5.900   4.247   2.527 -3.3607 -2.2177  1.2646
 4303SOL    HW213809   5.986   4.113   2.567 -1.3352 -0.8882  1.5018
 4304SOL     OW13810   2.449   4.216   0.282 -0.5897 -0.5672  0.8313
 4304SOL    HW113811   2.433   4.233   0.379  1.0233  0.8108  0.9022
 4304SOL    HW213812   2.468   4.302   0.235  2.4125 -1.5218  0.0657
 4305SOL     OW13813   1.458   5.968   0.649  0.5726  0.2970 -0.5730
 4305SOL    HW113814   1.508   5.908   0.711 -0.1019 -1.1039 -1.3448
 4305SOL    HW213815   1.500   5.966   0.559  2.2320  3.1892 -0.0110
 4306SOL     OW13816   6.728   5.520   5.794  0.0898 -0.4185 -0.2253
 4306SOL    HW113817   6.701   5.605   5.748  1.6410 -1.2020 -2.7920
 4306SOL    HW213818   6.671   5.445   5.762 -0.6301 -0.5593  1.3009
 4307SOL     OW13819   0.590   2.420   4.083  0.3081  0.1090  0.2960
 4307SOL    HW113820   0.499   2.421   4.043 -0.0891  0.2603  1.1749
 4307SOL    HW213821   0.583   2.424   4.183  1.2934  1.0937  0.3469
 4308SOL     OW13822   5.603   5.723   5.688 -0.0798  0.2056 -0.4153
 4308SOL    HW113823   5.669   5.798   5.680 -1.9220  1.8658 -1.0135
 4308SOL    HW213824   5.633   5.659   5.758  0.1726  3.0824  2.3047
 4309SOL     OW13825   3.659   1.941   0.114  0.0824 -0.2906  0.2729
 4309SOL    HW113826   3.568   1.907   0.091  0.2462  0.5871 -1.9155
 4309SOL    HW213827   3.669   1.947   0.214 -2.0121 -0.9833  0.5605
 4310SOL     OW13828   5.923   6.874   0.131 -0.0406 -0.2113 -0.0634
 4310SOL    HW113829   5.860   6.862   0.054 -0.1670 -0.1113  0.0252
 4310SOL    HW213830   6.003   6.925   0.100 -0.8649  1.3608  0.2634
 4311SOL     OW13831   6.840   6.573   1.839 -0.6850  0.7741 -0.4989
 4311SOL    HW113832   6.752   6.525   1.833  0.0643 -0.9714  1.4327
 4311SOL    HW213833   6.888   6.565   1.751 -1.5286 -0.1100 -0.9006
 4312SOL     OW13834   1.113   3.200   5.253  0.0148 -0.4224 -0.1078
 4312SOL    HW113835   1.063   3.116   5.274  0.4051 -0.1348  2.2381
 4312SOL    HW213836   1.082   3.273   5.315  1.4790  0.4777 -0.3963
 4313SOL     OW13837   0.663   3.825   6.789 -0.4206 -0.1260  0.5756
 4313SOL    HW113838   0.641   3.804   6.694  0.5585 -3.8576  0.9968
 4313SOL    HW213839   0.732   3.897   6.792  0.5346 -0.8582 -1.6472
 4314SOL     OW13840   2.427   1.975   4.099  0.2530 -0.0854  0.0109
 4314SOL    HW113841   2.455   2.071   4.098  0.5090 -0.1600 -0.2091
 4314SOL    HW213842   2.483   1.924   4.164  0.2529 -0.1238 -0.0183
 4315SOL     OW13843   3.875   2.591   6.963 -0.0819  0.3082 -0.1482
 4315SOL    HW113844   3.857   2.688   6.980 -1.6372  0.1649 -0.8350
 4315SOL    HW213845   3.945   2.559   7.028  0.7350  1.9508 -0.1470
 4316SOL     OW13846   3.979   4.559   1.285  0.0238  0.2403  0.0538
 4316SOL    HW113847   4.043   4.483   1.276  1.4734  1.5261 -0.9407
 4316SOL    HW213848   3.898   4.528   1.335  0.9186 -1.7207  0.3907
 4317SOL     OW13849   5.233   0.018   2.437 -1.1446  0.0506 -0.1077
 4317SOL    HW113850   5.159  -0.048   2.421 -1.9534  0.7635  0.6188
 4317SOL    HW213851   5.315  -0.012   2.388 -1.5145 -1.4543  0.1396
 4318SOL     OW13852   2.424   0.098   4.757 -0.5640  0.7410  0.2026
 4318SOL    HW113853   2.395   0.188   4.723 -0.7088  0.7907  0.4594
 4318SOL    HW213854   2.493   0.060   4.694  0.8222  1.8164  1.0136
 4319SOL     OW13855   3.048   3.780   6.655  0.1154  0.2747 -1.0142
 4319SOL    HW113856   3.107   3.860   6.653  0.5813 -0.0620 -1.0065
 4319SOL    HW213857   3.000   3.776   6.742  2.2826 -0.9923  0.2357
 4320SOL     OW13858   4.007   0.000   2.047 -0.2055 -0.0437  0.0598
 4320SOL    HW113859   3.954   0.058   2.109  0.0618  1.3801 -0.9871
 4320SOL    HW213860   4.104   0.023   2.056 -0.1719  0.2111 -0.9038
 4321SOL     OW13861   6.901   5.970   2.276  0.0445 -0.6709 -0.1182
 4321SOL    HW113862   6.994   5.979   2.312  0.1805  0.8358 -0.7921
 4321SOL    HW213863   6.844   5.923   2.344  1.0108 -0.5982  0.7769
 4322SOL     OW13864   1.754   2.016   2.835 -0.3101 -0.2195  0.2978
 4322SOL    HW113865   1.799   1.988   2.751 -1.1563  0.6451 -0.4606
 4322SOL    HW213866   1.823   2.050   2.900  0.1951  0.6305 -0.6631
 4323SOL     OW13867   4.868   4.224   1.662  0.2414  0.2906  1.0135
 4323SOL    HW113868   4.780   4.193   1.698 -0.3340  0.4694 -0.1866
 4323SOL    HW213869   4.858   4.316   1.624  0.5757 -0.2461 -0.4344
 4324SOL     OW13870   5.004   4.210   3.661 -0.0241 -0.1151  0.1325
 4324SOL    HW113871   4.909   4.241   3.673  0.3815  0.7948  1.2801
 4324SOL    HW213872   5.017   4.124   3.709 -0.5241 -0.7981 -0.9294
 4325SOL     OW13873   0.502   0.853   6.906  0.4510 -0.0414  0.7117
 4325SOL    HW113874   0.500   0.784   6.833 -1.4251  0.0189  0.6426
 4325SOL    HW213875   0.596   0.885   6.920  1.0287 -0.9668 -0.8109
 4326SOL     OW13876   6.888   2.019   2.391  0.0724  0.3870 -0.1377
 4326SOL    HW113877   6.814   2.042   2.453 -0.5986  0.6893 -1.0313
 4326SOL    HW213878   6.906   1.921   2.395 -1.3994  0.0621 -1.0045
 4327SOL     OW13879   2.796   6.704   3.693 -0.6687  0.6092 -0.5973
 4327SOL    HW113880   2.729   6.753   3.748 -1.0471 -0.1090 -0.4096
 4327SOL    HW213881   2.786   6.730   3.597 -0.6279  1.1594 -0.4551
 4328SOL     OW13882   6.008   6.381   1.986 -0.3357 -0.1711 -0.1993
 4328SOL    HW113883   5.985   6.304   2.046  0.0218  0.4348  0.7497
 4328SOL    HW213884   6.107   6.395   1.986 -0.4273  0.5392 -0.0302
 4329SOL     OW13885   0.832   3.610   6.593  0.5452 -0.3150  0.4010
 4329SOL    HW113886   0.870   3.685   6.646  0.8572 -1.4444  1.8534
 4329SOL    HW213887   0.904   3.542   6.576  0.2322 -0.3792 -0.7422
 4330SOL     OW13888   0.991   5.096   5.367  0.6123 -1.1183  0.8182
 4330SOL    HW113889   1.075   5.129   5.325 -0.3444 -0.0249 -0.3264
 4330SOL    HW213890   1.013   5.038   5.446  2.4769 -3.3153 -1.1853
 4331SOL     OW13891   4.584   0.531   3.568  0.4712  0.7040 -0.5247
 4331SOL    HW113892   4.517   0.463   3.538  1.4350  0.4137 -2.1617
 4331SOL    HW213893   4.587   0.534   3.668 -0.9635 -0.2564 -0.4261
 4332SOL     OW13894   6.762   5.397   2.051 -0.2418 -0.1692 -0.1885
 4332SOL    HW113895   6.673   5.392   2.008  0.7809 -1.2461 -2.3474
 4332SOL    HW213896   6.752   5.424   2.147 -2.9127 -0.9588 -0.1757
 4333SOL     OW13897   2.708   2.805   6.759 -0.2745  0.2371  0.0369
 4333SOL    HW113898   2.797   2.774   6.725  0.8246  0.3555  2.5080
 4333SOL    HW213899   2.635   2.767   6.704  1.2040 -2.5670 -0.1554
 4334SOL     OW13900   1.277   2.108   2.096 -0.3917  0.7604  0.0553
 4334SOL    HW113901   1.207   2.044   2.124  1.6577 -1.3141  0.7549
 4334SOL    HW213902   1.318   2.078   2.010  0.4194  1.2898  0.2415
 4335SOL     OW13903   0.383   1.361   1.400  0.1030  0.3483  0.3331
 4335SOL    HW113904   0.320   1.287   1.377 -0.4355  0.3457  1.7391
 4335SOL    HW213905   0.396   1.419   1.319  0.9607 -1.5338 -0.9595
 4336SOL     OW13906   1.880   6.227   4.943 -0.1547  0.6920 -0.0807
 4336SOL    HW113907   1.895   6.130   4.960 -1.6989  0.5043  0.4298
 4336SOL    HW213908   1.963   6.269   4.906  1.7778 -0.0072  3.1183
 4337SOL     OW13909   0.873   3.194   3.232  0.1934 -0.2024  0.0499
 4337SOL    HW113910   0.870   3.187   3.133  0.9508 -0.8939  0.0721
 4337SOL    HW213911   0.786   3.162   3.270 -0.7997  1.7423 -0.4563
 4338SOL     OW13912   4.234   3.432   5.803  0.9373 -0.3224  0.2786
 4338SOL    HW113913   4.285   3.469   5.881 -0.1386  2.7212 -0.3516
 4338SOL    HW213914   4.270   3.470   5.718 -1.1489  0.4661 -0.3143
 4339SOL     OW13915   4.134   2.948   5.385  0.3852  0.1212 -0.0996
 4339SOL    HW113916   4.133   2.978   5.480  0.1337 -1.5671  0.4670
 4339SOL    HW213917   4.228   2.948   5.350  0.4709  0.7785  0.1306
 4340SOL     OW13918   0.854   3.050   1.298 -0.7350  0.1512  0.3369
 4340SOL    HW113919   0.889   2.957   1.286 -0.8333  0.0437  0.8244
 4340SOL    HW213920   0.899   3.092   1.377 -0.2679  0.7316 -0.2271
 4341SOL     OW13921   5.841   5.910   2.035 -0.4416  0.3423  0.0643
 4341SOL    HW113922   5.795   5.834   2.082 -0.6897  0.4824  0.0482
 4341SOL    HW213923   5.920   5.940   2.089 -0.4184  0.1587  0.1339
 4342SOL     OW13924   5.985   3.132   1.608  0.1237  0.9830 -0.6066
 4342SOL    HW113925   5.974   3.124   1.707 -0.9504 -0.3208 -0.8019
 4342SOL    HW213926   5.982   3.228   1.581  0.7107  1.3737  0.6377
 4343SOL     OW13927   5.056   6.625   0.527 -0.2428 -0.7540 -0.2517
 4343SOL    HW113928   5.118   6.645   0.451  0.0513 -1.5822 -0.2404
 4343SOL    HW213929   4.963   6.650   0.500 -0.1831 -1.2928 -0.9894
 4344SOL     OW13930   0.477   5.198   4.535  0.0283 -0.6980 -0.0766
 4344SOL    HW113931   0.486   5.259   4.457 -3.0582 -1.0477 -0.8398
 4344SOL    HW213932   0.428   5.244   4.609  1.1892 -1.0116  0.9316
 4345SOL     OW13933   3.447   3.710   3.345  0.7567  0.3606  0.4427
 4345SOL    HW113934   3.543   3.724   3.369  1.1954 -0.3741 -0.7913
 4345SOL    HW213935   3.436   3.713   3.245 -0.2750 -0.8738  0.4901
 4346SOL     OW13936   0.877   2.479   2.183 -0.0040 -0.0380 -0.1202
 4346SOL    HW113937   0.826   2.547   2.130  1.3624  1.3782  0.3263
 4346SOL    HW213938   0.956   2.522   2.226 -0.4355 -1.3797  2.1805
 4347SOL     OW13939   5.067   5.483   2.376 -0.4818  0.3508 -0.6002
 4347SOL    HW113940   5.036   5.473   2.470  0.5260  2.2159  0.0025
 4347SOL    HW213941   4.993   5.462   2.313 -1.1371 -1.0469  0.5907
 4348SOL     OW13942   1.465   4.339   4.317  0.4253 -0.3361  0.2015
 4348SOL    HW113943   1.501   4.315   4.407  1.6635 -2.2042 -0.7163
 4348SOL    HW213944   1.389   4.277   4.294 -0.0632  0.3047  0.0462
 4349SOL     OW13945   0.773   5.042   3.334 -0.0195  0.1406 -0.2170
 4349SOL    HW113946   0.869   5.061   3.316 -0.4570  0.3051 -2.6157
 4349SOL    HW213947   0.748   4.955   3.292 -1.0311  0.3344 -0.0366
 4350SOL     OW13948   3.105   6.363   3.502  0.4189  0.2680  0.5115
 4350SOL    HW113949   3.140   6.455   3.522 -1.5612  1.0525  0.6001
 4350SOL    HW213950   3.044   6.334   3.576  0.3889 -0.7815  0.0885
 4351SOL     OW13951   0.403   6.477   0.889 -0.1847  0.3054 -0.2866
 4351SOL    HW113952   0.475   6.487   0.957  0.0983 -1.0746 -0.3523
 4351SOL    HW213953   0.370   6.567   0.861  0.3451  0.9061  0.9762
 4352SOL     OW13954   4.996   5.155   1.203  0.1219 -0.9127 -0.2317
 4352SOL    HW113955   5.036   5.090   1.138  0.0193 -0.3370 -0.8892
 4352SOL    HW213956   4.918   5.202   1.159 -0.6531 -1.3042  0.6834
 4353SOL     OW13957   3.277   4.769   6.932  0.2554  0.4594  0.5197
 4353SOL    HW113958   3.191   4.816   6.912  0.7700  2.2492  2.1359
 4353SOL    HW213959   3.342   4.787   6.858 -0.1382  0.7782  0.2400
 4354SOL     OW13960   6.783   3.791   2.283 -0.2207  0.1157  0.3648
 4354SOL    HW113961   6.790   3.788   2.184 -0.7753  1.8531  0.2364
 4354SOL    HW213962   6.799   3.699   2.321  2.7866 -0.0963 -1.1057
 4355SOL     OW13963   0.236   5.546   4.953 -0.0489  0.0299 -0.0988
 4355SOL    HW113964   0.238   5.640   4.918 -0.9024  0.1865  0.2703
 4355SOL    HW213965   0.246   5.547   5.052 -0.6380 -0.2373 -0.0371
 4356SOL     OW13966   4.997   1.812   3.262  0.0202  0.3345 -0.6150
 4356SOL    HW113967   5.082   1.758   3.262 -0.4752 -0.4774  0.3988
 4356SOL    HW213968   4.928   1.766   3.318 -0.9615  1.2035 -1.0770
 4357SOL     OW13969   5.110   4.691   3.227  0.1035 -0.8217  0.5441
 4357SOL    HW113970   5.059   4.684   3.312  0.6020 -2.6763  0.7123
 4357SOL    HW213971   5.171   4.771   3.231 -2.1810  1.0451  0.6100
 4358SOL     OW13972   3.829   5.553   1.895 -0.1389  0.7069  0.7053
 4358SOL    HW113973   3.819   5.494   1.975 -0.0109  1.0033  0.9394
 4358SOL    HW213974   3.749   5.611   1.886 -1.2099 -0.8658 -0.6620
 4359SOL     OW13975   2.151   4.211   0.453 -0.6030  0.6960  0.0779
 4359SOL    HW113976   2.230   4.163   0.491 -1.7176 -3.6451 -2.4246
 4359SOL    HW213977   2.078   4.216   0.522  0.0977  0.1210  0.8710
 4360SOL     OW13978   1.668   0.780   4.526 -0.5446 -0.5088 -0.3268
 4360SOL    HW113979   1.671   0.860   4.585  1.1448 -0.1872 -0.7966
 4360SOL    HW213980   1.679   0.808   4.431 -0.3202 -1.2700 -0.5313
 4361SOL     OW13981   0.339   0.731   0.095  0.7277  0.2566  0.4615
 4361SOL    HW113982   0.406   0.751   0.023  1.0638 -0.5226  0.5457
 4361SOL    HW213983   0.249   0.766   0.069  1.0904  0.9788  0.1762
 4362SOL     OW13984   0.144   3.560   2.259  0.3680  0.2558 -0.1097
 4362SOL    HW113985   0.119   3.638   2.316  1.3235 -0.2401  1.0318
 4362SOL    HW213986   0.242   3.565   2.237  0.3923 -0.5000 -0.2067
 4363SOL     OW13987   5.987   0.050   2.407  0.3646 -0.2936  0.1572
 4363SOL    HW113988   6.034   0.036   2.320 -1.3484  0.6332 -0.9853
 4363SOL    HW213989   5.977   0.149   2.423  1.8922 -0.3966  2.1570
 4364SOL     OW13990   3.830   3.550   4.299  0.4509  0.1873 -0.2848
 4364SOL    HW113991   3.851   3.641   4.333  1.4300  0.3597 -1.3100
 4364SOL    HW213992   3.765   3.557   4.223  1.5466  0.1661 -1.2536
 4365SOL     OW13993   3.269   1.328   1.232  0.3565 -0.7513 -0.2152
 4365SOL    HW113994   3.176   1.349   1.262  0.7543 -0.6427  0.9884
 4365SOL    HW213995   3.309   1.260   1.292  0.7301 -1.5213 -1.3056
 4366SOL     OW13996   4.430   6.650   5.326 -0.5587  0.5209  0.1433
 4366SOL    HW113997   4.405   6.576   5.388  1.5077  0.6430  1.2097
 4366SOL    HW213998   4.455   6.731   5.380  1.8910  0.4436 -0.7380
 4367SOL     OW13999   0.168   6.098   3.079  0.0811 -0.2055  0.2192
 4367SOL    HW114000   0.251   6.133   3.036  0.3944 -0.5495  0.5299
 4367SOL    HW214001   0.193   6.036   3.153 -0.4479  0.5024  1.0053
 4368SOL     OW14002   5.927   6.189   5.193 -0.3039  0.4206  0.2820
 4368SOL    HW114003   5.841   6.210   5.147 -0.9705 -1.1183  0.7388
 4368SOL    HW214004   5.911   6.184   5.292  0.5915  1.3470  0.4857
 4369SOL     OW14005   1.231   4.480   3.803  0.1786 -0.5022  0.0402
 4369SOL    HW114006   1.248   4.382   3.818  4.4329 -0.1751 -1.4354
 4369SOL    HW214007   1.261   4.505   3.712 -0.5601  2.2810  0.4804
 4370SOL     OW14008   5.783   6.026   1.791 -0.2787  0.3194 -0.0815
 4370SOL    HW114009   5.749   6.118   1.809 -1.8744 -0.2558  0.0059
 4370SOL    HW214010   5.786   5.974   1.877  0.6659  0.3063 -0.1197
 4371SOL     OW14011   2.433   0.366   5.584  0.2812  0.4582  0.2865
 4371SOL    HW114012   2.346   0.406   5.612  1.9946  3.3126  1.9883
 4371SOL    HW214013   2.506   0.433   5.595  2.7642 -1.8155 -1.0493
 4372SOL     OW14014   2.445   2.386   6.023 -0.2236 -0.1538  0.3169
 4372SOL    HW114015   2.404   2.436   6.099 -0.7295 -0.3318  0.1689
 4372SOL    HW214016   2.423   2.431   5.937  1.1956  0.6132  0.3360
 4373SOL     OW14017   4.933   6.969   1.024 -0.1154  0.6262 -0.0556
 4373SOL    HW114018   4.905   6.898   1.089 -1.0425  0.7704 -0.2907
 4373SOL    HW214019   4.855   6.996   0.968  0.5767  0.7875 -0.9679
 4374SOL     OW14020   4.579   7.011   5.880  0.4949  0.0294  0.1099
 4374SOL    HW114021   4.641   7.075   5.835  1.7631 -0.9596  0.3752
 4374SOL    HW214022   4.489   7.052   5.889  1.1789  1.6257 -0.0355
 4375SOL     OW14023   5.318   0.876   0.472 -0.4779  0.0816  0.4620
 4375SOL    HW114024   5.386   0.875   0.398 -1.4313  0.9781 -0.4469
 4375SOL    HW214025   5.300   0.782   0.501 -2.0632 -0.5929 -2.3342
 4376SOL     OW14026   0.064   4.797   5.299  0.4652 -0.0758  0.6700
 4376SOL    HW114027   0.050   4.819   5.395 -1.6149  0.8011  0.2020
 4376SOL    HW214028  -0.013   4.743   5.264  0.0236  1.5413 -1.0442
 4377SOL     OW14029   6.119   0.577   6.902  0.0803  0.4270  0.8305
 4377SOL    HW114030   6.154   0.485   6.921  1.5519  1.2528  2.4726
 4377SOL    HW214031   6.192   0.644   6.915 -0.6631  1.7806 -1.4038
 4378SOL     OW14032   1.828   3.924   0.994 -0.6124  0.6528  0.7825
 4378SOL    HW114033   1.795   3.898   1.086  0.1071 -0.5675  0.7195
 4378SOL    HW214034   1.750   3.954   0.939 -1.3557 -0.4035  1.2160
 4379SOL     OW14035   3.839   6.754   1.987  0.0046 -0.3341  0.2024
 4379SOL    HW114036   3.851   6.670   2.039 -0.5928 -0.6005 -0.0695
 4379SOL    HW214037   3.886   6.830   2.032  1.8230 -1.0962 -0.3293
 4380SOL     OW14038   1.141   5.764   4.092  0.5401 -0.2766 -0.0117
 4380SOL    HW114039   1.090   5.812   4.020 -1.0821  1.4160  2.0729
 4380SOL    HW214040   1.132   5.665   4.079 -1.5523 -0.0370 -0.9532
 4381SOL     OW14041   4.857   5.351   3.870  0.5889 -0.2330  0.4348
 4381SOL    HW114042   4.792   5.296   3.818  1.2857 -2.3005  1.6190
 4381SOL    HW214043   4.943   5.356   3.820  0.5465 -0.3070  0.3528
 4382SOL     OW14044   6.018   1.852   3.400  0.1262 -0.2599  0.1042
 4382SOL    HW114045   6.002   1.754   3.386  0.9094 -0.2860 -0.6793
 4382SOL    HW214046   6.114   1.872   3.384 -0.1444  0.7379 -0.3022
 4383SOL     OW14047   6.023   0.558   5.852 -0.1761 -0.1149 -0.3400
 4383SOL    HW114048   6.110   0.605   5.832  0.9230 -1.8287  0.1909
 4383SOL    HW214049   5.983   0.525   5.767 -0.1046  0.3073 -0.5440
 4384SOL     OW14050   3.567   5.683   1.959 -0.3088 -0.1581  0.6294
 4384SOL    HW114051   3.571   5.622   1.879  2.5962 -0.4122  0.8659
 4384SOL    HW214052   3.486   5.741   1.952  0.0435  0.1439 -2.7531
 4385SOL     OW14053   4.614   2.691   4.293  0.2019  0.0731 -0.1280
 4385SOL    HW114054   4.563   2.746   4.360  0.4187 -1.4118  1.3481
 4385SOL    HW214055   4.670   2.750   4.236 -0.3776  1.4450  0.6782
 4386SOL     OW14056   3.375   5.056   0.387 -0.6428 -0.1669 -0.2957
 4386SOL    HW114057   3.388   4.987   0.316 -2.5686  0.9526 -1.8553
 4386SOL    HW214058   3.421   5.028   0.471  1.3434 -1.7523 -1.8389
 4387SOL     OW14059   6.477   0.754   0.704  0.3475 -0.1175  0.7105
 4387SOL    HW114060   6.552   0.737   0.768  0.2283 -0.2503  0.8176
 4387SOL    HW214061   6.455   0.669   0.655 -0.8482 -0.5401  1.8968
 4388SOL     OW14062   4.215   1.026   5.010 -0.2324 -0.7002  0.1299
 4388SOL    HW114063   4.284   0.967   4.968 -0.1349 -0.7339  0.3362
 4388SOL    HW214064   4.176   0.980   5.090  0.6643 -0.0313  0.9853
 4389SOL     OW14065   2.437   4.342   2.003  0.0598  0.1487 -0.5401
 4389SOL    HW114066   2.365   4.280   1.970  0.8857 -1.4521  0.5449
 4389SOL    HW214067   2.523   4.292   2.012  1.3026  1.9825 -1.6104
 4390SOL     OW14068   4.706   4.754   6.238 -0.4967 -0.4282  0.2476
 4390SOL    HW114069   4.650   4.690   6.289 -1.3547  0.1698  0.0829
 4390SOL    HW214070   4.721   4.837   6.293 -1.5549  0.2812 -0.5069
 4391SOL     OW14071   2.590   0.497   1.836  0.1434  0.3065 -0.1238
 4391SOL    HW114072   2.625   0.533   1.750  0.2227  0.5411  0.0047
 4391SOL    HW214073   2.513   0.554   1.867 -1.6944 -1.3279 -1.4066
 4392SOL     OW14074   5.785   5.291   4.169  0.5014 -0.0734 -0.4400
 4392SOL    HW114075   5.838   5.228   4.112  1.1503  0.1411 -0.0822
 4392SOL    HW214076   5.845   5.362   4.205  0.7545 -1.7643  2.8175
 4393SOL     OW14077   4.679   1.575   3.182 -0.1214 -0.5739 -0.2659
 4393SOL    HW114078   4.691   1.481   3.212 -1.8423 -0.6982  0.1564
 4393SOL    HW214079   4.667   1.578   3.083 -0.2565 -0.8292 -0.2569
 4394SOL     OW14080   3.966   1.216   2.273  0.3031 -0.1283 -0.4817
 4394SOL    HW114081   3.992   1.296   2.218  0.0551  0.8167  0.7382
 4394SOL    HW214082   3.955   1.244   2.369 -0.0213 -1.5879 -0.0780
 4395SOL     OW14083   5.316   3.879   4.201  0.6388 -0.0074 -0.1664
 4395SOL    HW114084   5.265   3.832   4.273 -0.6773 -1.8567 -2.1887
 4395SOL    HW214085   5.264   3.959   4.170 -0.5134 -1.1571 -1.3373
 4396SOL     OW14086   0.725   0.262   2.700 -0.0107 -0.3196  0.1982
 4396SOL    HW114087   0.686   0.327   2.634  1.1848  0.2585  0.0351
 4396SOL    HW214088   0.657   0.191   2.721 -2.0695  1.9696  1.8129
 4397SOL     OW14089   3.076   1.654   1.572 -0.3041 -0.5892 -0.3381
 4397SOL    HW114090   3.020   1.647   1.654 -0.2961 -1.9109 -0.4216
 4397SOL    HW214091   3.076   1.749   1.539 -0.2483 -0.0352  1.2043
 4398SOL     OW14092   0.571   5.447   4.967 -0.2546  0.8022 -0.4745
 4398SOL    HW114093   0.509   5.371   4.945  0.3571 -0.0886  0.7139
 4398SOL    HW214094   0.531   5.533   4.935 -1.9343  0.2162 -0.0693
 4399SOL     OW14095   2.603   6.081   2.867  0.3057  0.0459  0.0527
 4399SOL    HW114096   2.600   6.045   2.960  0.1112  0.1900  0.1019
 4399SOL    HW214097   2.634   6.175   2.869  0.6664 -0.0707 -0.0630
 4400SOL     OW14098   6.135   5.884   2.237 -0.7506 -0.0601 -0.2434
 4400SOL    HW114099   6.127   5.791   2.201  1.4443 -0.3564 -0.1234
 4400SOL    HW214100   6.229   5.900   2.266 -1.0212  2.2874 -0.4707
 4401SOL     OW14101   3.031   6.613   3.782  0.0198 -0.3618  1.0482
 4401SOL    HW114102   3.009   6.556   3.861 -0.1435 -2.3038 -0.3175
 4401SOL    HW214103   2.947   6.641   3.736  0.1466 -0.8089  0.5295
 4402SOL     OW14104   0.715   3.258   1.994  0.2429 -0.0601  0.0692
 4402SOL    HW114105   0.810   3.289   1.996  0.2608 -0.1445  1.2011
 4402SOL    HW214106   0.656   3.331   1.959  0.8715 -0.4882 -2.0176
 4403SOL     OW14107   6.289   0.663   2.710 -0.6603 -0.0956 -0.2595
 4403SOL    HW114108   6.327   0.584   2.759 -0.0617  0.3615  0.0234
 4403SOL    HW214109   6.363   0.715   2.668 -1.1621 -0.5066 -1.7201
 4404SOL     OW14110   2.101   3.659   4.783  0.9773 -0.6216  0.3893
 4404SOL    HW114111   2.129   3.750   4.814 -0.0870 -0.2816  0.4126
 4404SOL    HW214112   2.123   3.591   4.852  4.5576 -0.9084 -0.8264
 4405SOL     OW14113   4.337   4.355   0.314  0.6648 -0.5152 -0.0310
 4405SOL    HW114114   4.358   4.368   0.411  2.2135  0.1440 -0.4299
 4405SOL    HW214115   4.378   4.428   0.260 -0.3862 -0.7294 -1.1864
 4406SOL     OW14116   6.465   0.128   2.899 -0.6510  0.2008  0.2535
 4406SOL    HW114117   6.440   0.151   2.993 -0.0267  1.1257  0.2016
 4406SOL    HW214118   6.543   0.065   2.899  0.9501  2.0924  0.3627
 4407SOL     OW14119   1.323   2.541   0.608  0.7768  0.3104  0.3061
 4407SOL    HW114120   1.290   2.471   0.545  0.8665 -0.0315  0.6302
 4407SOL    HW214121   1.256   2.554   0.682  0.5913  0.8322  0.0515
 4408SOL     OW14122   5.168   5.013   1.029  0.0646  0.0170 -0.6125
 4408SOL    HW114123   5.152   5.089   0.967 -2.4970  0.8050  0.8344
 4408SOL    HW214124   5.250   4.963   1.002 -0.0568  1.2688 -3.5884
 4409SOL     OW14125   3.185   0.875   3.546 -0.3656  0.2644 -0.9434
 4409SOL    HW114126   3.189   0.843   3.641 -1.4171 -1.4007 -1.4067
 4409SOL    HW214127   3.273   0.858   3.502 -0.3223 -0.3148 -0.6506
 4410SOL     OW14128   3.557   4.055   6.530  0.2389  0.7196  0.0926
 4410SOL    HW114129   3.638   3.997   6.517  0.3863  1.2646 -1.8035
 4410SOL    HW214130   3.538   4.065   6.627  1.8614 -0.2357  0.5478
 4411SOL     OW14131   3.708   1.122   2.644  0.5357 -0.1918  0.2201
 4411SOL    HW114132   3.691   1.196   2.709 -1.1851  0.8664 -1.3672
 4411SOL    HW214133   3.723   1.160   2.553  3.0048 -1.6396 -0.0845
 4412SOL     OW14134   3.772   0.775   0.318 -0.2337 -0.7201  0.1320
 4412SOL    HW114135   3.686   0.787   0.367  0.4600 -0.0050  1.2118
 4412SOL    HW214136   3.754   0.774   0.219 -1.5147 -0.9960  0.3527
 4413SOL     OW14137   4.327   5.622   2.955  0.7801  0.4314  0.0080
 4413SOL    HW114138   4.284   5.651   2.870  1.6247 -0.1652 -0.6387
 4413SOL    HW214139   4.406   5.564   2.935 -0.2530 -1.5235  1.2038
 4414SOL     OW14140   1.735   4.570   0.505  0.1208 -0.3574  0.0025
 4414SOL    HW114141   1.812   4.616   0.460  1.2111 -0.7009  1.4200
 4414SOL    HW214142   1.660   4.636   0.518  1.0238  0.6057  0.5406
 4415SOL     OW14143   3.839   0.462   3.138  0.1511  0.2255  0.3305
 4415SOL    HW114144   3.851   0.552   3.095  0.6424 -0.4146 -0.9181
 4415SOL    HW214145   3.921   0.440   3.192 -0.0416  0.5857  0.7810
 4416SOL     OW14146   4.986   1.344   6.996 -0.2411 -0.2048 -0.3822
 4416SOL    HW114147   4.944   1.255   6.975 -0.0232 -0.1284 -1.1697
 4416SOL    HW214148   4.950   1.413   6.933 -0.5161  0.3021  0.3188
 4417SOL     OW14149   3.753   1.049   2.281  0.3326 -0.3450 -0.1109
 4417SOL    HW114150   3.841   1.086   2.251  0.6400  1.1100  2.3667
 4417SOL    HW214151   3.686   1.123   2.288 -0.5897 -1.1491 -0.1512
 4418SOL     OW14152   2.493   0.234   1.728 -0.0138  0.1179 -0.4877
 4418SOL    HW114153   2.524   0.198   1.640  0.3424 -3.4200  0.9054
 4418SOL    HW214154   2.570   0.277   1.776  0.1680  0.6137 -1.2040
 4419SOL     OW14155   5.187   5.383   6.102 -0.4961 -0.0903 -0.6733
 4419SOL    HW114156   5.150   5.305   6.052 -1.0143  0.8664 -1.8308
 4419SOL    HW214157   5.118   5.456   6.106  0.2110  0.5716 -0.2296
 4420SOL     OW14158   5.689   0.443   1.038  0.0973 -0.0934  0.0509
 4420SOL    HW114159   5.609   0.499   1.017  0.4333  0.2313 -0.3858
 4420SOL    HW214160   5.660   0.356   1.078 -0.6042 -0.8317 -1.9214
 4421SOL     OW14161   1.459   1.069   2.898 -0.0556 -0.1571  0.2518
 4421SOL    HW114162   1.444   0.994   2.834  2.3750 -1.2239  0.8209
 4421SOL    HW214163   1.539   1.049   2.955 -1.1805  1.4661  2.5737
 4422SOL     OW14164   2.006   5.362   5.704  0.0109 -0.3145  0.2196
 4422SOL    HW114165   2.063   5.280   5.714  2.3596  1.0959 -0.7649
 4422SOL    HW214166   2.063   5.443   5.709 -1.6973  1.1697 -2.2124
 4423SOL     OW14167   6.299   1.009   6.030  0.2475 -0.5177  0.0881
 4423SOL    HW114168   6.255   1.006   5.940 -0.2062  0.4411  0.2671
 4423SOL    HW214169   6.396   0.984   6.020  0.1622 -0.5888 -0.6349
 4424SOL     OW14170   1.927   4.257   2.661 -0.1419  0.3881 -0.9803
 4424SOL    HW114171   2.001   4.203   2.621  0.7852  1.3098 -0.5489
 4424SOL    HW214172   1.962   4.312   2.736 -0.6186  2.9985 -2.5500
 4425SOL     OW14173   5.918   3.056   3.605  0.0897  0.0769 -0.0480
 4425SOL    HW114174   5.878   3.020   3.521 -1.4499  0.3876  0.5175
 4425SOL    HW214175   5.917   2.984   3.675 -1.2922  0.6385  0.5361
 4426SOL     OW14176   1.841   6.052   4.256 -0.9910  0.2952  0.1307
 4426SOL    HW114177   1.867   6.146   4.276  0.7039 -0.1265  0.0661
 4426SOL    HW214178   1.810   6.045   4.161  0.1662  0.5548 -0.2802
 4427SOL     OW14179   6.526   5.725   3.243  0.6466 -0.4904 -1.0073
 4427SOL    HW114180   6.526   5.800   3.177  1.2310  0.0494 -0.4140
 4427SOL    HW214181   6.431   5.700   3.264  0.4289  0.3295 -0.9500
 4428SOL     OW14182   0.787   6.808   0.857  0.0301 -0.8260 -0.2718
 4428SOL    HW114183   0.701   6.772   0.822 -0.0134 -1.3644  0.3665
 4428SOL    HW214184   0.769   6.866   0.937  0.2374 -0.7127 -0.3069
 4429SOL     OW14185   2.786   0.076   3.362  0.1135 -0.0622  0.2632
 4429SOL    HW114186   2.869   0.021   3.374  1.2678  2.0050  2.5810
 4429SOL    HW214187   2.795   0.132   3.280 -0.1958 -1.7295 -0.9681
 4430SOL     OW14188   1.242   6.927   0.566 -0.6316 -0.1389 -0.3112
 4430SOL    HW114189   1.193   6.977   0.495 -0.4555 -0.2758 -0.5285
 4430SOL    HW214190   1.287   6.992   0.627 -1.9871  0.0311  0.5524
 4431SOL     OW14191   2.891   6.907   1.950 -0.5964 -0.1115  0.2125
 4431SOL    HW114192   2.930   6.820   1.980 -0.9382  0.2988  1.9557
 4431SOL    HW214193   2.814   6.932   2.009 -3.0383 -0.4623 -2.5936
 4432SOL     OW14194   3.098   4.032   4.629 -0.1862 -0.1066  0.2090
 4432SOL    HW114195   3.060   4.045   4.721 -0.3300  3.8614 -0.2365
 4432SOL    HW214196   3.170   4.099   4.614  0.3576 -1.1703 -2.3743
 4433SOL     OW14197   5.923   6.681   1.509 -0.0461  0.2206  0.2732
 4433SOL    HW114198   5.835   6.696   1.554 -0.2075 -1.6707  0.6670
 4433SOL    HW214199   5.909   6.661   1.412 -0.1809 -1.2725  0.5810
 4434SOL     OW14200   6.901   1.379   4.847  0.1760  0.0114 -0.4741
 4434SOL    HW114201   6.913   1.465   4.896  0.0656 -0.5623  0.6032
 4434SOL    HW214202   6.804   1.359   4.836  0.1370 -1.0416  1.3091
 4435SOL     OW14203   3.535   2.124   2.693  0.5024  0.8407  0.0079
 4435SOL    HW114204   3.622   2.149   2.651 -0.0593 -0.1782 -1.8923
 4435SOL    HW214205   3.550   2.050   2.759  1.0985  0.8095 -0.1602
 4436SOL     OW14206   5.649   6.985   6.338  0.3549 -0.5298 -0.2983
 4436SOL    HW114207   5.725   7.045   6.313  0.5743 -0.7200 -0.0948
 4436SOL    HW214208   5.670   6.939   6.425 -1.4051  1.9767  1.6058
 4437SOL     OW14209   2.474   0.834   4.464  0.4793  0.3144  0.0588
 4437SOL    HW114210   2.410   0.796   4.531  0.8761  1.5185  1.1598
 4437SOL    HW214211   2.564   0.793   4.476  0.6054  0.6882  0.4363
 4438SOL     OW14212   4.465   3.564   6.760 -0.5989  0.3361 -0.0224
 4438SOL    HW114213   4.473   3.570   6.661  1.9287  1.7646  0.1983
 4438SOL    HW214214   4.450   3.468   6.787  1.5206 -0.5337 -1.6626
 4439SOL     OW14215   1.622   5.555   1.396  0.5353 -0.0074 -0.6555
 4439SOL    HW114216   1.560   5.605   1.456  0.2437  0.1838 -1.1084
 4439SOL    HW214217   1.575   5.476   1.357  0.9584 -0.5725 -0.0394
 4440SOL     OW14218   0.265   1.175   0.309  0.0315  0.1111  0.1283
 4440SOL    HW114219   0.301   1.084   0.293  4.2740  1.4271  1.0096
 4440SOL    HW214220   0.277   1.231   0.226 -1.6509  0.2270 -0.0869
 4441SOL     OW14221   5.579   1.246   5.402  0.0226 -0.3734  0.2119
 4441SOL    HW114222   5.628   1.180   5.459 -0.3081  0.6570  1.7261
 4441SOL    HW214223   5.526   1.308   5.460  0.5289  1.4008 -1.1435
 4442SOL     OW14224   2.728   6.013   3.134 -0.3455  0.0039 -0.0636
 4442SOL    HW114225   2.679   6.054   3.210  0.2942 -0.6973  0.7459
 4442SOL    HW214226   2.803   6.073   3.106  2.0659 -1.4826  2.6391
 4443SOL     OW14227   1.645   1.768   0.327 -0.9313 -0.3499 -0.7163
 4443SOL    HW114228   1.722   1.805   0.276  0.8684 -0.5993  1.6454
 4443SOL    HW214229   1.564   1.827   0.313  0.4778  1.6303 -0.9603
 4444SOL     OW14230   4.970   1.022   3.329  0.2186  0.2037  0.1255
 4444SOL    HW114231   5.000   1.067   3.245 -0.2103 -2.0058 -1.3109
 4444SOL    HW214232   5.005   1.071   3.409  3.9427  0.2631 -1.3581
 4445SOL     OW14233   6.463   2.471   4.440  0.2029 -0.1728 -0.6457
 4445SOL    HW114234   6.538   2.406   4.456  0.1679 -0.3226 -1.0768
 4445SOL    HW214235   6.473   2.549   4.502  1.3523  0.3542 -1.4631
 4446SOL     OW14236   6.213   6.702   2.578 -0.2212 -0.0816 -0.0111
 4446SOL    HW114237   6.150   6.741   2.644  1.2162  0.2224  1.2284
 4446SOL    HW214238   6.182   6.724   2.485 -0.7521  1.9623  0.5937
 4447SOL     OW14239   4.916   3.229   2.190 -0.0107  0.0524  0.6450
 4447SOL    HW114240   4.861   3.169   2.131  0.5764 -1.3491  1.4697
 4447SOL    HW214241   5.010   3.194   2.193  0.9489  2.3297 -0.6507
 4448SOL     OW14242   3.384   3.407   6.850 -0.2240  0.1845  0.0959
 4448SOL    HW114243   3.336   3.335   6.801 -0.8847 -0.0007  0.9762
 4448SOL    HW214244   3.390   3.383   6.947 -1.7167  1.9351  0.6809
 4449SOL     OW14245   0.256   3.323   6.721 -0.1866 -0.1253 -0.3726
 4449SOL    HW114246   0.334   3.272   6.686  1.0187  0.4604  1.3428
 4449SOL    HW214247   0.279   3.420   6.725 -0.6402 -0.0527  1.0125
 4450SOL     OW14248   3.544   3.853   2.460  0.0266 -0.6513 -0.2288
 4450SOL    HW114249   3.464   3.899   2.422 -0.1806 -0.2088  0.7255
 4450SOL    HW214250   3.599   3.918   2.513 -0.6787 -1.6035  1.7811
 4451SOL     OW14251   7.005   5.999   1.229 -0.5867  0.4655  0.1624
 4451SOL    HW114252   6.978   6.084   1.184  0.7038 -0.0578 -1.7143
 4451SOL    HW214253   6.927   5.938   1.235 -1.3116  1.4275  0.7178
 4452SOL     OW14254   0.047   3.140   6.753 -0.2608  0.0137  0.3997
 4452SOL    HW114255   0.095   3.053   6.740 -0.4389 -0.1947  1.0683
 4452SOL    HW214256   0.114   3.211   6.776  0.0072  0.3018 -1.1844
 4453SOL     OW14257   4.986   2.809   0.949  0.2959  0.3670 -0.2504
 4453SOL    HW114258   5.034   2.786   1.033  1.0765 -0.9448 -1.0130
 4453SOL    HW214259   4.931   2.730   0.920  1.0529  0.3285 -1.6373
 4454SOL     OW14260   6.476   3.918   3.311 -0.1523  0.0675  0.1094
 4454SOL    HW114261   6.441   3.867   3.389 -2.0523  0.9388 -0.1372
 4454SOL    HW214262   6.421   3.897   3.230  1.7674 -0.8166 -1.0455
 4455SOL     OW14263   4.519   1.994   3.426  0.4873 -0.8998  0.7567
 4455SOL    HW114264   4.512   1.895   3.442  0.3384 -0.9130  0.6173
 4455SOL    HW214265   4.470   2.017   3.342 -1.8614 -0.3066  2.1949
 4456SOL     OW14266   6.043   4.179   0.681  0.4352  0.0058 -0.2383
 4456SOL    HW114267   5.980   4.242   0.726  0.2988 -0.2491 -0.0736
 4456SOL    HW214268   6.121   4.230   0.645  1.3632  0.0206  1.6855
 4457SOL     OW14269   5.707   0.356   0.693 -0.1080 -0.0066 -0.1708
 4457SOL    HW114270   5.616   0.398   0.703  0.2054  0.6211  0.1302
 4457SOL    HW214271   5.720   0.287   0.764 -1.3019 -1.9150 -1.6994
 4458SOL     OW14272   3.834   3.012   1.465  0.4355 -0.4939  0.3061
 4458SOL    HW114273   3.812   3.085   1.530  0.3978 -0.2261 -0.0007
 4458SOL    HW214274   3.914   3.039   1.411  0.2083 -0.5217 -0.0504
 4459SOL     OW14275   0.038   1.041   5.955  0.5198 -0.1387  0.3159
 4459SOL    HW114276  -0.046   1.093   5.970 -0.1299 -1.1024  0.0894
 4459SOL    HW214277   0.113   1.104   5.936 -0.3442  0.6989 -0.4205
 4460SOL     OW14278   1.478   0.059   5.834  0.4364  0.1769 -0.2149
 4460SOL    HW114279   1.388   0.037   5.796  1.5285 -2.0127 -1.7615
 4460SOL    HW214280   1.487   0.016   5.924 -0.4185  1.3204  0.4418
 4461SOL     OW14281   0.986   5.102   4.007  0.1714 -0.8933  0.5158
 4461SOL    HW114282   0.999   5.135   4.100 -0.8216  0.4921  0.2040
 4461SOL    HW214283   1.043   5.155   3.944 -0.4870 -0.6048  0.1481
 4462SOL     OW14284   1.001   3.339   2.103 -0.4048  0.2291 -0.0470
 4462SOL    HW114285   1.027   3.244   2.124 -0.2440 -0.0768 -1.5193
 4462SOL    HW214286   1.084   3.396   2.101 -0.6398  0.7608  2.3482
 4463SOL     OW14287   0.288   4.522   6.005  0.1502 -0.1395 -0.2422
 4463SOL    HW114288   0.386   4.537   5.990  0.4451 -0.1766  1.4027
 4463SOL    HW214289   0.235   4.580   5.943  1.2121  0.3425 -0.7295
 4464SOL     OW14290   0.175   2.130   1.711  0.4356 -0.9743 -0.0331
 4464SOL    HW114291   0.169   2.230   1.706  3.3088 -0.7696 -1.4920
 4464SOL    HW214292   0.098   2.090   1.661 -1.6834  0.3656  1.8995
 4465SOL     OW14293   5.103   3.375   1.967 -0.5712 -0.5641 -0.1360
 4465SOL    HW114294   5.078   3.459   2.015  0.2307  0.9921 -2.2712
 4465SOL    HW214295   5.150   3.313   2.030 -0.3916  0.9587  1.2895
 4466SOL     OW14296   5.492   4.349   4.457 -0.1072  0.1941 -0.0458
 4466SOL    HW114297   5.413   4.391   4.412 -0.3339 -1.2819 -1.0910
 4466SOL    HW214298   5.467   4.258   4.488  0.9241  0.0812  0.4875
 4467SOL     OW14299   1.852   0.616   3.825  0.1869  0.1301 -0.7557
 4467SOL    HW114300   1.826   0.545   3.760  0.1956 -1.2645  0.7046
 4467SOL    HW214301   1.769   0.655   3.865  0.1274 -2.1573  1.6190
 4468SOL     OW14302   6.876   2.304   6.292 -0.0204 -0.0172 -0.5359
 4468SOL    HW114303   6.890   2.402   6.280 -0.6209 -0.1220 -2.3705
 4468SOL    HW214304   6.789   2.287   6.338  0.7107  0.3197  1.0258
 4469SOL     OW14305   4.965   0.063   6.984 -0.1217  0.0804  0.4227
 4469SOL    HW114306   4.984   0.027   6.893 -0.7466 -1.0535  0.7212
 4469SOL    HW214307   4.973  -0.010   7.051  1.3138  1.1154  1.4358
 4470SOL     OW14308   5.960   3.342   2.427  0.1694  0.8925  0.5559
 4470SOL    HW114309   5.896   3.325   2.502 -0.4172  3.4104  0.7171
 4470SOL    HW214310   5.964   3.262   2.367 -1.5278 -0.1029  1.6936
 4471SOL     OW14311   6.749   2.771   0.337  0.4843 -0.0889  0.2490
 4471SOL    HW114312   6.794   2.731   0.417  0.5673  1.1742  0.8585
 4471SOL    HW214313   6.793   2.858   0.314  0.4347 -0.4221 -1.1586
 4472SOL     OW14314   1.930   6.091   0.914 -0.5931  0.1484 -0.4574
 4472SOL    HW114315   1.923   6.121   1.009  2.4145 -0.2913 -0.0063
 4472SOL    HW214316   1.917   5.992   0.908  0.7960 -0.0721 -0.2094
 4473SOL     OW14317   5.282   2.294   1.953  0.1657 -0.0545  0.2573
 4473SOL    HW114318   5.288   2.256   2.045  0.7708  2.3034  1.2345
 4473SOL    HW214319   5.338   2.376   1.946 -2.8739  2.1029 -1.0137
 4474SOL     OW14320   1.586   3.698   4.593 -0.0058  0.1226 -0.0110
 4474SOL    HW114321   1.594   3.774   4.528 -1.1116  0.5530  0.3367
 4474SOL    HW214322   1.669   3.693   4.648  0.3113  0.7304 -0.4149
 4475SOL     OW14323   0.843   5.321   6.494  0.0311 -0.1509 -0.3649
 4475SOL    HW114324   0.751   5.332   6.458  0.5149  0.0677 -1.5631
 4475SOL    HW214325   0.910   5.327   6.420  0.9700 -1.0597  0.3720
 4476SOL     OW14326   3.731   4.914   2.211 -0.0612 -0.2239  0.6885
 4476SOL    HW114327   3.679   4.854   2.271 -1.2433 -0.0142 -0.0714
 4476SOL    HW214328   3.711   4.891   2.115 -2.2686  2.6318  0.2883
 4477SOL     OW14329   2.112   2.703   6.510  0.9222 -0.1208  0.6029
 4477SOL    HW114330   2.029   2.654   6.537 -0.1979  1.8193  0.8544
 4477SOL    HW214331   2.118   2.789   6.560  4.3771 -1.2296  2.3730
 4478SOL     OW14332   0.553   4.524   1.477 -1.1037  0.1120 -0.1522
 4478SOL    HW114333   0.465   4.550   1.437 -1.4857 -0.1728  0.4808
 4478SOL    HW214334   0.537   4.481   1.566 -0.5024 -2.2806 -1.1227
 4479SOL     OW14335   1.285   0.676   5.822 -0.2367 -0.3179  0.1816
 4479SOL    HW114336   1.264   0.579   5.814 -1.9584  0.1667 -2.9192
 4479SOL    HW214337   1.342   0.704   5.745  0.4953  1.1065  1.1999
 4480SOL     OW14338   6.735   5.997   3.277 -0.0802  0.3005  0.0983
 4480SOL    HW114339   6.697   5.963   3.364 -2.3451 -0.6816 -1.1745
 4480SOL    HW214340   6.703   6.091   3.262 -0.3817  0.1803 -0.0324
 4481SOL     OW14341   0.187   6.746   2.532 -0.2363 -0.2630 -0.0128
 4481SOL    HW114342   0.220   6.700   2.614 -2.5728 -0.2273  1.0262
 4481SOL    HW214343   0.158   6.839   2.555 -0.7512 -0.1839 -0.9253
 4482SOL     OW14344   0.272   2.652   2.538  0.1209  0.7575 -0.0364
 4482SOL    HW114345   0.340   2.632   2.609  0.5492  0.1295 -0.5987
 4482SOL    HW214346   0.320   2.682   2.455 -0.0523 -1.7803 -1.1706
 4483SOL     OW14347   0.357   6.322   6.813 -0.1920  0.6653  0.6119
 4483SOL    HW114348   0.375   6.229   6.846 -0.0527 -0.1951 -1.7039
 4483SOL    HW214349   0.351   6.384   6.891 -0.9640 -1.3818  2.2903
 4484SOL     OW14350   4.075   3.858   6.707 -0.2175  0.3315  0.3553
 4484SOL    HW114351   4.162   3.853   6.755 -0.5196  1.4771  1.0616
 4484SOL    HW214352   4.090   3.842   6.609  0.6119 -0.5754  0.6252
 4485SOL     OW14353   5.457   5.862   4.935 -0.3129 -0.1238  0.0154
 4485SOL    HW114354   5.422   5.944   4.980 -3.8891 -0.9545 -0.9465
 4485SOL    HW214355   5.450   5.873   4.836  1.4380 -0.7427 -0.2073
 4486SOL     OW14356   0.378   3.426   4.148  0.2145  0.6153  0.2318
 4486SOL    HW114357   0.439   3.501   4.121  0.6484 -0.2026 -1.1631
 4486SOL    HW214358   0.332   3.390   4.067  0.1757 -0.7647  0.8404
 4487SOL     OW14359   2.704   4.903   0.035 -0.0138  0.1362  1.0086
 4487SOL    HW114360   2.741   4.981  -0.016  1.8156 -0.6472  1.0604
 4487SOL    HW214361   2.758   4.889   0.118 -2.5336  0.9728  2.9003
 4488SOL     OW14362   0.220   4.216   6.884  0.0238  0.4713 -0.0241
 4488SOL    HW114363   0.262   4.142   6.833 -1.1890  0.4541 -1.0435
 4488SOL    HW214364   0.219   4.192   6.982 -1.3207 -1.3811 -0.4335
 4489SOL     OW14365   0.095   3.106   4.852  0.4238 -0.1099 -0.4006
 4489SOL    HW114366   0.048   3.135   4.936  1.3175  0.7124 -0.1758
 4489SOL    HW214367   0.054   3.151   4.773  0.8634  0.6436 -0.2008
 4490SOL     OW14368   1.076   1.690   2.613 -0.2346 -0.4117  0.1180
 4490SOL    HW114369   0.986   1.668   2.649 -0.4954 -0.9170 -0.8045
 4490SOL    HW214370   1.122   1.754   2.674 -1.0476 -0.4802  0.8138
 4491SOL     OW14371   2.566   4.716   0.535  0.2808  0.2525 -0.8780
 4491SOL    HW114372   2.569   4.714   0.635 -0.5639 -1.1072 -0.8553
 4491SOL    HW214373   2.646   4.668   0.498  0.2310  0.1485 -0.8503
 4492SOL     OW14374   4.974   2.876   6.649 -0.3607 -0.2990 -0.1203
 4492SOL    HW114375   5.063   2.912   6.621  0.5363 -1.5678  1.0030
 4492SOL    HW214376   4.920   2.950   6.689  0.2208  0.4602 -0.7031
 4493SOL     OW14377   5.444   4.103   4.827  0.9350  0.6484 -0.3325
 4493SOL    HW114378   5.499   4.074   4.749  2.8622  1.5672  0.6321
 4493SOL    HW214379   5.445   4.031   4.897  2.9099  1.5593  0.6474
 4494SOL     OW14380   6.683   2.955   1.640 -0.6389  0.2736  0.6922
 4494SOL    HW114381   6.594   2.985   1.677 -0.5127  1.4697  0.0725
 4494SOL    HW214382   6.744   3.034   1.633  0.2559 -0.4254  0.4798
 4495SOL     OW14383   5.329   2.657   2.855  0.4100  0.2381 -0.6329
 4495SOL    HW114384   5.269   2.675   2.932  2.3698  0.5950  0.8830
 4495SOL    HW214385   5.398   2.729   2.848  1.2182 -0.6015 -1.7667
 4496SOL     OW14386   5.470   4.070   5.283 -0.0080 -0.0046 -0.5208
 4496SOL    HW114387   5.384   4.045   5.329  1.0278 -0.2575  1.3777
 4496SOL    HW214388   5.532   3.991   5.283  1.2570  0.9444  0.6477
 4497SOL     OW14389   3.780   0.809   0.676  0.4585 -0.1093 -0.1617
 4497SOL    HW114390   3.793   0.822   0.774  2.7726  1.1617 -0.5859
 4497SOL    HW214391   3.770   0.898   0.631 -0.7038 -0.6802 -1.1098
 4498SOL     OW14392   3.707   4.653   6.194 -0.0211 -0.3710 -0.5080
 4498SOL    HW114393   3.649   4.662   6.113  1.7469  0.5092 -1.7522
 4498SOL    HW214394   3.758   4.738   6.209  0.8371 -1.0389  0.6192
 4499SOL     OW14395   5.607   5.841   0.073 -0.3857 -0.5418 -0.3581
 4499SOL    HW114396   5.671   5.821  -0.001 -1.5357  0.9012 -1.8441
 4499SOL    HW214397   5.653   5.835   0.161  2.1245  1.6309 -1.4148
 4500SOL     OW14398   2.987   4.430   1.375  0.7906 -0.0968  0.7018
 4500SOL    HW114399   2.931   4.407   1.455  0.0490  0.1265  0.2640
 4500SOL    HW214400   3.006   4.347   1.322 -0.2241 -0.0226  0.1749
 4501SOL     OW14401   0.934   0.190   1.130 -0.0070 -0.1997  0.1286
 4501SOL    HW114402   1.006   0.145   1.183 -0.7730 -0.3435  1.0691
 4501SOL    HW214403   0.863   0.124   1.108  0.1690 -0.0780 -0.8755
 4502SOL     OW14404   6.577   3.759   1.343 -0.4798  0.8890 -0.5392
 4502SOL    HW114405   6.539   3.841   1.386 -0.9889  0.9768 -1.1420
 4502SOL    HW214406   6.603   3.780   1.249  0.1475  0.5655 -0.4400
 4503SOL     OW14407   2.355   4.649   1.626  0.0792  0.3617 -0.1993
 4503SOL    HW114408   2.366   4.557   1.664 -0.9750  0.7902  1.2186
 4503SOL    HW214409   2.434   4.671   1.569  1.1010 -0.8156  0.7119
 4504SOL     OW14410   4.286   1.610   3.364  0.1293  0.3447  0.0230
 4504SOL    HW114411   4.345   1.543   3.409 -1.5193 -0.6167  0.8726
 4504SOL    HW214412   4.263   1.683   3.427 -0.4798  0.1084  0.0877
 4505SOL     OW14413   2.774   3.465   0.177 -0.5093 -0.2594 -0.2507
 4505SOL    HW114414   2.825   3.475   0.262 -2.7840  2.6159  0.9627
 4505SOL    HW214415   2.827   3.502   0.101 -0.2876  1.6456  0.7782
 4506SOL     OW14416   3.131   6.794   0.008 -0.2203 -0.4040  0.2981
 4506SOL    HW114417   3.176   6.717  -0.036 -0.8635  0.0801 -1.2863
 4506SOL    HW214418   3.184   6.823   0.088  2.5109  0.3838 -1.6659
 4507SOL     OW14419   0.038   3.662   2.902 -0.4530 -0.2135  0.2303
 4507SOL    HW114420   0.071   3.747   2.943 -0.9046  0.1325 -0.1153
 4507SOL    HW214421  -0.052   3.640   2.938 -0.1614 -0.7757  0.6356
 4508SOL     OW14422   1.251   3.670   0.418 -0.4992 -0.4940 -0.0215
 4508SOL    HW114423   1.284   3.647   0.510 -4.1341 -0.9806  1.3100
 4508SOL    HW214424   1.225   3.767   0.415  0.8026 -0.1387 -1.0175
 4509SOL     OW14425   0.380   3.638   3.532  0.0864  0.2631  0.2803
 4509SOL    HW114426   0.444   3.691   3.476 -1.7097  0.2467 -1.9527
 4509SOL    HW214427   0.319   3.701   3.581 -0.3612  0.2743 -0.2881
 4510SOL     OW14428   3.392   0.964   1.790  0.0215  0.4588 -0.6378
 4510SOL    HW114429   3.414   1.035   1.858 -2.0000  0.1309  0.4453
 4510SOL    HW214430   3.320   0.997   1.729 -0.5738 -0.4474 -0.4545
 4511SOL     OW14431   5.861   3.765   5.170 -0.0685 -0.7192 -0.3944
 4511SOL    HW114432   5.765   3.792   5.175 -0.3706 -1.9909  1.6761
 4511SOL    HW214433   5.917   3.836   5.212  0.2840  1.2628 -3.8413
 4512SOL     OW14434   2.053   5.754   6.273 -0.0254  0.3593  0.0452
 4512SOL    HW114435   2.070   5.686   6.202 -1.1761 -0.5525  0.6166
 4512SOL    HW214436   2.074   5.714   6.362 -0.5345  0.8106  0.3691
 4513SOL     OW14437   5.963   1.175   1.673 -0.1337 -0.3802  0.0033
 4513SOL    HW114438   5.949   1.245   1.742 -0.0401 -0.2703 -0.0895
 4513SOL    HW214439   5.888   1.108   1.678 -0.1800 -0.3178  0.1431
 4514SOL     OW14440   0.678   1.054   6.006 -0.4383 -0.6415 -0.5116
 4514SOL    HW114441   0.687   1.153   5.997 -1.3141 -0.2752  1.8928
 4514SOL    HW214442   0.689   1.011   5.916  0.1179  1.5946 -1.5818
 4515SOL     OW14443   0.962   2.764   0.193  0.4655 -0.2476  0.2746
 4515SOL    HW114444   1.019   2.759   0.275  0.5092  1.5908  0.4020
 4515SOL    HW214445   0.869   2.734   0.214  0.5946 -0.2114  0.8937
 4516SOL     OW14446   6.714   0.476   2.778  0.2732 -0.1374 -0.1323
 4516SOL    HW114447   6.694   0.550   2.842 -0.3733 -0.2900 -0.1524
 4516SOL    HW214448   6.728   0.391   2.829 -0.8920 -0.3990 -0.2143
 4517SOL     OW14449   1.474   0.307   6.568 -0.2434 -0.4825 -0.2708
 4517SOL    HW114450   1.438   0.396   6.594  1.2179  0.5971 -1.7007
 4517SOL    HW214451   1.459   0.292   6.470 -1.1370 -2.1756  0.0854
 4518SOL     OW14452   0.340   1.260   3.872  0.6946 -0.3213  0.5648
 4518SOL    HW114453   0.329   1.326   3.798  0.3180 -1.4132 -0.3795
 4518SOL    HW214454   0.435   1.227   3.874  1.0409  0.6843  1.4338
 4519SOL     OW14455   0.774   2.193   5.202 -0.0396  0.0596  0.3640
 4519SOL    HW114456   0.720   2.268   5.164  2.1880  1.7778  0.3587
 4519SOL    HW214457   0.867   2.225   5.221  0.2360 -1.9694  3.0442
 4520SOL     OW14458   0.176   2.647   4.165  0.0825  0.2806 -0.4651
 4520SOL    HW114459   0.118   2.566   4.166  1.1639 -0.5238 -0.4028
 4520SOL    HW214460   0.250   2.634   4.098  2.1832 -0.1985  1.8151
 4521SOL     OW14461   5.728   1.742   4.622  0.0942 -0.1620  0.7526
 4521SOL    HW114462   5.685   1.654   4.643 -0.8249 -0.0311 -0.4696
 4521SOL    HW214463   5.738   1.796   4.706 -0.9356 -0.7183  1.2465
 4522SOL     OW14464   4.899   0.022   3.131 -0.2197  0.3589 -0.6387
 4522SOL    HW114465   4.803   0.017   3.105 -0.0782 -0.4204 -1.0498
 4522SOL    HW214466   4.913  -0.027   3.217  0.2054 -1.7575 -1.8271
 4523SOL     OW14467   4.305   1.838   4.842 -0.0776 -0.1348  0.2690
 4523SOL    HW114468   4.244   1.912   4.812  0.6462  1.2970  2.1377
 4523SOL    HW214469   4.266   1.791   4.920  0.4067 -0.3521  0.3870
 4524SOL     OW14470   6.929   2.195   4.236 -0.2045  0.6318 -0.5369
 4524SOL    HW114471   6.881   2.120   4.190 -0.6069  0.7107 -0.2575
 4524SOL    HW214472   6.954   2.165   4.329 -0.6664  0.9526 -0.3044
 4525SOL     OW14473   6.384   2.883   3.144  0.6752  0.1920 -0.4604
 4525SOL    HW114474   6.294   2.900   3.186  0.6215  2.4180 -1.3274
 4525SOL    HW214475   6.372   2.865   3.047  1.0378 -1.9101 -0.1607
 4526SOL     OW14476   3.472   2.116   1.724  0.0670  0.5325 -0.2211
 4526SOL    HW114477   3.390   2.119   1.781 -1.2478 -2.1397 -1.7675
 4526SOL    HW214478   3.551   2.146   1.778 -1.4014  0.1224  2.3328
 4527SOL     OW14479   4.903   0.613   3.213 -0.4025 -0.9184 -0.0669
 4527SOL    HW114480   4.866   0.572   3.296 -0.0824  0.0733  0.5789
 4527SOL    HW214481   4.900   0.546   3.139 -1.8979 -1.4093  0.4021
 4528SOL     OW14482   4.783   6.650   6.356 -0.5028 -0.1552  0.8313
 4528SOL    HW114483   4.858   6.670   6.420  0.8782  0.9706 -1.0276
 4528SOL    HW214484   4.822   6.620   6.269 -2.2036  0.7244 -0.2732
 4529SOL     OW14485   3.861   0.437   4.946  0.1756 -0.3705  0.8258
 4529SOL    HW114486   3.865   0.480   5.036 -2.4598  1.0835  0.3708
 4529SOL    HW214487   3.848   0.507   4.876  2.0302 -1.4886 -0.7331
 4530SOL     OW14488   6.317   1.634   3.270  1.0997 -0.1589 -0.3629
 4530SOL    HW114489   6.246   1.578   3.314  2.2599 -1.5082 -0.1568
 4530SOL    HW214490   6.362   1.580   3.198  3.2700 -0.0685  0.8464
 4531SOL     OW14491   0.437   4.747   1.769 -0.2848 -0.0652  0.5292
 4531SOL    HW114492   0.458   4.804   1.689 -2.2756  2.0673  1.4070
 4531SOL    HW214493   0.353   4.779   1.811 -0.2296 -2.2597  2.4981
 4532SOL     OW14494   0.560   2.243   6.196 -0.0042  0.3105  0.0262
 4532SOL    HW114495   0.593   2.267   6.105  0.2867  0.4300  0.1596
 4532SOL    HW214496   0.500   2.163   6.191 -0.2084  0.4850 -0.3021
 4533SOL     OW14497   2.726   0.349   2.015 -0.9106  0.0246  0.1416
 4533SOL    HW114498   2.680   0.408   1.948  0.3178 -0.2776 -1.0163
 4533SOL    HW214499   2.789   0.404   2.069  0.3217 -0.2018 -1.0168
 4534SOL     OW14500   5.793   4.707   5.669 -0.2145  0.5772  0.2722
 4534SOL    HW114501   5.757   4.750   5.752  0.6242 -0.3515  1.1398
 4534SOL    HW214502   5.890   4.729   5.659  0.3694 -1.4458  1.0044
 4535SOL     OW14503   3.930   1.117   4.198 -0.0922 -0.3282 -0.5158
 4535SOL    HW114504   3.963   1.023   4.183  0.5578 -0.3038  0.6018
 4535SOL    HW214505   3.962   1.149   4.287 -0.8719  0.7250 -0.5978
 4536SOL     OW14506   6.812   6.341   2.050  0.3690  0.0807 -0.4626
 4536SOL    HW114507   6.894   6.396   2.035  0.1689  0.1883 -1.2571
 4536SOL    HW214508   6.759   6.338   1.965  0.1911 -1.0474 -0.3291
 4537SOL     OW14509   6.116   3.182   5.352  0.4079 -0.0997  0.1557
 4537SOL    HW114510   6.055   3.117   5.306  1.7268 -1.7017  0.5731
 4537SOL    HW214511   6.088   3.192   5.447 -0.9172  1.4243 -0.3587
 4538SOL     OW14512   2.904   2.231   3.090 -0.4682 -0.6580 -0.0823
 4538SOL    HW114513   2.844   2.290   3.145 -0.3968  0.3952 -1.0907
 4538SOL    HW214514   2.875   2.234   2.995  1.9748  1.0013 -0.8644
 4539SOL     OW14515   2.431   2.697   5.548 -0.0601  0.2191  0.0958
 4539SOL    HW114516   2.333   2.685   5.567  0.0646 -0.1171  0.5523
 4539SOL    HW214517   2.443   2.738   5.458 -0.6034 -0.5081 -0.3222
 4540SOL     OW14518   3.457   4.180   5.113 -0.1658  0.3374  0.0376
 4540SOL    HW114519   3.548   4.196   5.073  0.8102 -0.8305  1.6193
 4540SOL    HW214520   3.463   4.102   5.175 -2.2120  0.4493  0.4208
 4541SOL     OW14521   6.041   0.740   2.363  0.0238 -0.0945 -0.4436
 4541SOL    HW114522   6.117   0.805   2.353  1.0128 -0.7322  2.0849
 4541SOL    HW214523   6.020   0.700   2.274 -0.9450  3.9099 -2.2457
 4542SOL     OW14524   6.207   4.933   3.769  0.1003 -0.0570 -0.3219
 4542SOL    HW114525   6.173   4.906   3.679  0.5549 -2.2327  0.0969
 4542SOL    HW214526   6.295   4.888   3.786  1.2241  2.2303  0.2554
 4543SOL     OW14527   5.523   2.737   4.086  0.3635  0.3863  0.0969
 4543SOL    HW114528   5.429   2.703   4.084  0.0577  1.1525  0.8650
 4543SOL    HW214529   5.571   2.697   4.164  0.6464  0.0950 -0.2213
 4544SOL     OW14530   5.241   3.714   1.769 -0.1358  0.2196  0.2231
 4544SOL    HW114531   5.188   3.787   1.726 -0.9598  0.2905  1.3318
 4544SOL    HW214532   5.337   3.723   1.741 -0.5696  0.4765 -1.2904
 4545SOL     OW14533   4.454   5.202   6.719 -0.4974  0.1108 -0.1977
 4545SOL    HW114534   4.503   5.246   6.644 -0.8889  2.3418  0.7806
 4545SOL    HW214535   4.518   5.179   6.792 -0.7458  2.8596  1.0035
 4546SOL     OW14536   1.400   0.071   1.400 -0.2311  0.4222  0.2483
 4546SOL    HW114537   1.429   0.159   1.437 -0.3264  0.2784  0.6699
 4546SOL    HW214538   1.467   0.001   1.425  0.7566  0.6718 -1.5388
 4547SOL     OW14539   2.988   1.091   4.099 -0.6581  0.5022  0.1968
 4547SOL    HW114540   2.960   0.995   4.100 -1.5935  0.7663  1.4328
 4547SOL    HW214541   2.984   1.128   4.192 -0.2034  1.7145 -0.2485
 4548SOL     OW14542   2.167   1.992   0.856 -0.1360  0.0374  0.1905
 4548SOL    HW114543   2.139   2.022   0.764  1.2995 -0.7559 -0.5427
 4548SOL    HW214544   2.106   2.032   0.924 -1.6169  0.1659 -1.1486
 4549SOL     OW14545   0.155   1.596   2.265  0.4399  0.0854 -0.1636
 4549SOL    HW114546   0.242   1.645   2.274  1.4022 -1.3573 -1.2958
 4549SOL    HW214547   0.153   1.518   2.327  0.4478 -0.5589 -0.9536
 4550SOL     OW14548   2.887   4.643   5.994  0.7479  0.0400  1.0236
 4550SOL    HW114549   2.938   4.557   5.987 -0.1650 -0.4429  0.0217
 4550SOL    HW214550   2.830   4.641   6.076  1.4407  0.0982  1.5166
 4551SOL     OW14551   0.141   2.550   0.578 -0.1656 -0.0321  0.3526
 4551SOL    HW114552   0.204   2.623   0.606 -0.4357  0.3787 -0.0947
 4551SOL    HW214553   0.161   2.467   0.630  1.0143 -0.0271 -0.0423
 4552SOL     OW14554   0.507   6.187   5.875 -0.3424  0.1976  0.1503
 4552SOL    HW114555   0.587   6.199   5.934  0.7398  0.1481 -1.2573
 4552SOL    HW214556   0.430   6.154   5.930  0.5249  0.4693  1.5806
 4553SOL     OW14557   4.907   5.496   0.010  0.5040 -0.4103  0.6527
 4553SOL    HW114558   4.810   5.483  -0.010  0.2959 -2.4170  2.6009
 4553SOL    HW214559   4.927   5.593   0.023 -1.8578 -0.1310  2.8840
 4554SOL     OW14560   0.369   5.452   2.988 -0.7412 -0.2597  0.0576
 4554SOL    HW114561   0.408   5.447   2.896 -0.6975  2.6214 -0.1938
 4554SOL    HW214562   0.276   5.490   2.982 -0.6235  0.2503  1.2134
 4555SOL     OW14563   4.920   1.330   5.871  0.1852  0.0899 -0.3697
 4555SOL    HW114564   4.933   1.293   5.779  0.0316  0.2071 -0.4391
 4555SOL    HW214565   4.850   1.401   5.868  0.2513  0.1623 -0.1798
 4556SOL     OW14566   4.135   1.460   4.532  0.3477  0.8697 -1.0330
 4556SOL    HW114567   4.231   1.479   4.510  0.5192 -0.6545 -1.7140
 4556SOL    HW214568   4.123   1.463   4.631  1.5969 -0.8645 -0.7656
 4557SOL     OW14569   6.822   2.999   3.901  0.1713 -0.0722 -0.4066
 4557SOL    HW114570   6.758   3.074   3.883 -1.0692 -1.0567 -0.2110
 4557SOL    HW214571   6.832   2.944   3.818  2.1756  1.0613 -0.9938
 4558SOL     OW14572   1.721   3.923   6.766  0.5032 -0.6462  0.8621
 4558SOL    HW114573   1.707   3.938   6.668  1.5591 -0.5434  0.7157
 4558SOL    HW214574   1.657   3.979   6.818  1.6703  1.3306  0.2644
 4559SOL     OW14575   1.767   1.018   1.494  1.2151 -0.3920 -0.2938
 4559SOL    HW114576   1.718   1.011   1.580 -0.0680 -0.2505 -0.9904
 4559SOL    HW214577   1.861   0.986   1.506  0.7751 -1.2724  0.9153
 4560SOL     OW14578   0.387   3.501   5.737  0.2041 -0.5748 -0.1320
 4560SOL    HW114579   0.418   3.595   5.739  2.4243 -1.2434 -0.5888
 4560SOL    HW214580   0.353   3.478   5.646 -0.7388 -0.1257  0.0943
 4561SOL     OW14581   0.687   4.789   6.121  0.2702  0.3624  0.6078
 4561SOL    HW114582   0.687   4.755   6.215  3.3968  0.0624  0.5989
 4561SOL    HW214583   0.689   4.889   6.122 -1.2012  0.4241  0.7623
 4562SOL     OW14584   4.613   4.513   5.374 -0.2008  0.3894 -0.3305
 4562SOL    HW114585   4.524   4.488   5.411  0.4778  0.7569  1.7412
 4562SOL    HW214586   4.683   4.452   5.412  0.3342 -0.8285 -3.0288
 4563SOL     OW14587   4.979   3.952   6.195 -0.2912  0.6242  0.2859
 4563SOL    HW114588   4.976   3.959   6.295  1.2369  0.2686  0.3848
 4563SOL    HW214589   5.049   4.014   6.159  0.4190 -0.5238 -0.3852
 4564SOL     OW14590   0.610   5.992   0.636 -0.0729 -0.3234  0.1953
 4564SOL    HW114591   0.690   5.936   0.660  0.8439 -0.4798 -2.8497
 4564SOL    HW214592   0.624   6.086   0.668  1.8810 -0.0880 -1.2096
 4565SOL     OW14593   4.334   2.027   0.015 -0.1720  0.0516 -0.5771
 4565SOL    HW114594   4.431   2.009   0.033 -0.2147  0.5948  0.2211
 4565SOL    HW214595   4.308   1.985  -0.073  0.8351  0.1060 -0.9097
 4566SOL     OW14596   3.515   1.266   1.941  0.4858  0.0270  0.2573
 4566SOL    HW114597   3.467   1.308   2.019  0.5622 -0.6969  0.7097
 4566SOL    HW214598   3.516   1.330   1.864  0.2655  0.6965  0.7967
 4567SOL     OW14599   1.548   3.804   1.349 -0.0382 -0.0315 -0.1977
 4567SOL    HW114600   1.590   3.797   1.440 -0.1336  0.1617 -0.1390
 4567SOL    HW214601   1.597   3.872   1.295  0.1340 -0.2800 -0.3545
 4568SOL     OW14602   5.554   3.916   3.042 -0.5687 -0.4367 -0.1542
 4568SOL    HW114603   5.626   3.865   2.994 -1.0158 -1.1548 -0.0719
 4568SOL    HW214604   5.524   3.992   2.984 -0.2927 -0.6027 -0.5240
 4569SOL     OW14605   1.940   1.518   4.141  0.0531 -0.0829  0.3111
 4569SOL    HW114606   1.892   1.594   4.186 -3.5434 -0.9933 -1.5787
 4569SOL    HW214607   1.911   1.432   4.182  0.3579 -0.6613 -0.6626
 4570SOL     OW14608   5.526   5.105   5.351  0.1790  0.1212  0.1779
 4570SOL    HW114609   5.547   5.038   5.423 -0.2270 -1.2407 -0.9122
 4570SOL    HW214610   5.566   5.073   5.265  0.6713  1.7275 -0.2137
 4571SOL     OW14611   2.907   3.645   4.452  0.3152 -0.1907 -0.6633
 4571SOL    HW114612   2.914   3.742   4.426  0.1961 -0.1095 -0.3917
 4571SOL    HW214613   2.930   3.588   4.373  1.3476  0.0649 -0.5616
 4572SOL     OW14614   1.303   5.154   1.879  0.5312 -0.0166 -0.2244
 4572SOL    HW114615   1.384   5.187   1.927 -0.0865  2.3708 -0.7253
 4572SOL    HW214616   1.311   5.174   1.782 -0.6247  0.1877 -0.2932
 4573SOL     OW14617   6.362   1.936   1.271  0.4924 -0.5721  0.0467
 4573SOL    HW114618   6.334   2.033   1.273  1.5571 -0.2658  1.2348
 4573SOL    HW214619   6.329   1.894   1.187 -0.4656  0.6829 -0.2377
 4574SOL     OW14620   2.331   5.042   1.471  0.4589 -0.8530  0.2392
 4574SOL    HW114621   2.255   5.034   1.535  0.3143 -1.3021  0.0182
 4574SOL    HW214622   2.416   5.057   1.521  0.1522  0.2134  0.4590
 4575SOL     OW14623   6.491   5.252   1.332 -0.4079  1.2446  0.1266
 4575SOL    HW114624   6.396   5.254   1.364 -0.3287  0.2694  0.4275
 4575SOL    HW214625   6.495   5.284   1.237 -1.1179  0.7341 -0.0801
 4576SOL     OW14626   3.840   6.702   4.872 -0.0419 -0.0841  0.0205
 4576SOL    HW114627   3.900   6.661   4.941  1.0679  0.0108 -0.8538
 4576SOL    HW214628   3.816   6.795   4.900  0.7646  0.1181  0.0759
 4577SOL     OW14629   2.229   5.231   3.186  0.0619  0.0502 -0.6353
 4577SOL    HW114630   2.245   5.324   3.155  1.9357 -0.6034 -1.8115
 4577SOL    HW214631   2.291   5.169   3.138  0.1923 -1.5697  1.5011
 4578SOL     OW14632   6.342   4.438   1.767  0.5169 -0.1320  0.1124
 4578SOL    HW114633   6.345   4.482   1.677 -1.6730  0.3695  0.2290
 4578SOL    HW214634   6.340   4.509   1.838  0.9004 -0.5002  0.4941
 4579SOL     OW14635   4.715   1.308   2.962 -0.1982 -0.4175  0.2801
 4579SOL    HW114636   4.798   1.355   2.931  0.3625 -1.0294  0.8094
 4579SOL    HW214637   4.701   1.226   2.906 -0.0368 -0.7055  0.6595
 4580SOL     OW14638   0.712   4.764   0.391  0.4039 -0.0090  0.1610
 4580SOL    HW114639   0.632   4.825   0.392  0.2849 -0.0041 -2.2335
 4580SOL    HW214640   0.788   4.810   0.346  1.2819 -0.5591  1.0617
 4581SOL     OW14641   2.596   5.045   4.078 -0.2237 -0.6756  0.4233
 4581SOL    HW114642   2.640   5.096   4.004 -1.5038 -0.8822 -0.5167
 4581SOL    HW214643   2.497   5.046   4.066 -0.3649 -2.2778  1.0952
 4582SOL     OW14644   5.506   5.296   3.813  0.6049 -0.0153  0.3017
 4582SOL    HW114645   5.451   5.214   3.830 -0.9673  1.0553  0.6173
 4582SOL    HW214646   5.549   5.291   3.723 -0.8143 -0.4756 -0.3701
 4583SOL     OW14647   3.976   4.837   3.187  0.5469  0.2474  0.0628
 4583SOL    HW114648   4.042   4.913   3.186  1.3543 -0.4211  0.9412
 4583SOL    HW214649   4.025   4.750   3.193 -0.4139 -0.2670  0.7027
 4584SOL     OW14650   2.009   4.923   4.127  0.0583 -0.0942  0.0715
 4584SOL    HW114651   1.956   5.008   4.137  2.0414  1.3299 -0.9227
 4584SOL    HW214652   1.958   4.859   4.071 -1.3522  0.5439  0.5719
 4585SOL     OW14653   2.836   6.657   2.555  0.1263  0.0523  0.6885
 4585SOL    HW114654   2.792   6.638   2.467 -0.8665 -0.0932  1.1981
 4585SOL    HW214655   2.841   6.573   2.608 -0.7985  0.4472  1.4270
 4586SOL     OW14656   0.166   5.943   1.015 -0.1797 -0.4310  0.0768
 4586SOL    HW114657   0.117   5.952   1.101  1.5521  0.3307  1.0368
 4586SOL    HW214658   0.246   5.885   1.028  0.5087  0.2946 -0.8276
 4587SOL     OW14659   1.677   3.887   5.859 -0.0333 -0.0857  0.2839
 4587SOL    HW114660   1.670   3.985   5.839 -1.7490 -0.1035  0.6484
 4587SOL    HW214661   1.737   3.874   5.938 -0.2285  0.7198  0.5788
 4588SOL     OW14662   4.080   3.229   4.057  0.5010 -0.1504  0.1674
 4588SOL    HW114663   4.154   3.295   4.060 -0.7619  1.3368  0.1761
 4588SOL    HW214664   3.992   3.278   4.051 -0.5899 -1.7722  1.7898
 4589SOL     OW14665   2.844   2.274   4.324  0.1232 -0.3008 -0.4441
 4589SOL    HW114666   2.814   2.287   4.229  1.3855 -0.1693 -0.8447
 4589SOL    HW214667   2.788   2.330   4.384 -0.0064  0.4491 -1.2393
 4590SOL     OW14668   2.678   5.042   0.445  0.1001  0.3576  0.3895
 4590SOL    HW114669   2.752   4.974   0.451  0.4059  0.7418  0.9750
 4590SOL    HW214670   2.625   5.041   0.530 -0.5061  0.1614  0.0135
 4591SOL     OW14671   3.431   0.311   4.014 -0.7897 -0.4222  0.0619
 4591SOL    HW114672   3.474   0.304   3.924 -1.8550  1.6493 -0.6645
 4591SOL    HW214673   3.334   0.286   4.007 -1.4764  1.9796  0.0533
 4592SOL     OW14674   4.829   1.493   1.166  0.4056  0.7837 -0.2466
 4592SOL    HW114675   4.763   1.423   1.194  0.8195  0.5259  0.0928
 4592SOL    HW214676   4.813   1.518   1.071  0.8551 -0.4427 -0.6454
 4593SOL     OW14677   3.904   5.101   0.643  0.0775  0.3203  0.2948
 4593SOL    HW114678   3.832   5.131   0.581  0.8021 -0.8187 -1.1604
 4593SOL    HW214679   3.982   5.066   0.590  0.9443 -0.1813  1.8357
 4594SOL     OW14680   4.335   1.577   2.913  0.0651  0.1766  0.2062
 4594SOL    HW114681   4.367   1.636   2.839  1.3400 -0.6418  0.0779
 4594SOL    HW214682   4.372   1.610   3.000 -1.8427  1.4410  0.5904
 4595SOL     OW14683   4.306   3.607   6.034 -0.2869  0.1382 -0.0852
 4595SOL    HW114684   4.382   3.621   5.970  0.0106 -1.0618 -0.0131
 4595SOL    HW214685   4.342   3.580   6.123 -0.7639  0.5032  0.2238
 4596SOL     OW14686   4.750   0.749   2.049 -0.0286 -0.1827  0.2334
 4596SOL    HW114687   4.788   0.719   2.137  1.1457  2.7089  0.8354
 4596SOL    HW214688   4.663   0.794   2.063  0.0334  0.0559 -0.1181
 4597SOL     OW14689   1.152   2.408   0.404 -0.3853 -0.1040 -0.0280
 4597SOL    HW114690   1.207   2.447   0.330 -0.9751  1.4111  0.2977
 4597SOL    HW214691   1.162   2.309   0.404 -0.7180 -0.2077 -2.4509
 4598SOL     OW14692   2.372   2.258   0.149  0.7913  0.1689  0.6875
 4598SOL    HW114693   2.395   2.321   0.223  0.9508  0.1548  0.6513
 4598SOL    HW214694   2.420   2.285   0.066 -0.5249  1.0493  0.1831
 4599SOL     OW14695   3.695   5.862   1.337 -0.1785 -0.7093 -0.0947
 4599SOL    HW114696   3.696   5.961   1.323 -0.9134 -0.7202 -0.2782
 4599SOL    HW214697   3.623   5.822   1.281  0.4527 -1.4142 -0.4207
 4600SOL     OW14698   2.911   2.712   1.233  0.1401 -0.1203  0.1076
 4600SOL    HW114699   2.924   2.789   1.296  0.3170 -1.7212  2.1194
 4600SOL    HW214700   2.949   2.629   1.273  0.8085 -1.1194 -2.4269
 4601SOL     OW14701   2.997   5.341   3.330 -0.1349  0.8595 -0.6209
 4601SOL    HW114702   2.904   5.306   3.341  1.1079 -2.4636  0.6810
 4601SOL    HW214703   3.046   5.285   3.264  2.1352 -0.4063  1.9156
 4602SOL     OW14704   1.039   5.078   1.920 -0.2125 -0.2281 -0.3672
 4602SOL    HW114705   1.043   4.983   1.952  1.2395 -0.5219 -1.3481
 4602SOL    HW214706   1.130   5.119   1.923 -0.6779  0.8803 -0.7323
 4603SOL     OW14707   2.164   0.451   2.669 -0.1576 -0.0713 -0.4476
 4603SOL    HW114708   2.236   0.513   2.703 -0.2745  0.8905 -1.8993
 4603SOL    HW214709   2.165   0.367   2.724  1.1321  0.5008  0.4701
 4604SOL     OW14710   5.185   5.796   4.008 -0.0493  0.5355  0.5376
 4604SOL    HW114711   5.253   5.869   3.997  1.3869 -1.1059 -2.5286
 4604SOL    HW214712   5.095   5.829   3.977  0.9846  0.5633 -2.8030
 4605SOL     OW14713   5.455   6.040   4.403  0.2135  0.1190  0.5219
 4605SOL    HW114714   5.541   6.078   4.436 -0.5691  0.4835  2.2397
 4605SOL    HW214715   5.404   6.110   4.352  0.3114  0.3130  0.6944
 4606SOL     OW14716   1.329   5.031   5.576 -0.1597  0.1054 -0.3915
 4606SOL    HW114717   1.354   4.940   5.609 -0.9270  0.4391  1.2528
 4606SOL    HW214718   1.378   5.100   5.630 -0.2739  0.6845 -1.0109
 4607SOL     OW14719   3.670   3.454   6.699  0.0170  0.3544  0.6397
 4607SOL    HW114720   3.588   3.424   6.748  0.9545 -0.4335  1.7719
 4607SOL    HW214721   3.694   3.547   6.728  1.5359 -0.7023  3.0815
 4608SOL     OW14722   0.972   2.971   5.273 -0.5634  0.6019  0.3021
 4608SOL    HW114723   0.999   2.877   5.255 -0.4062  0.4610  1.2134
 4608SOL    HW214724   0.878   2.974   5.305 -0.0572  0.5321  1.9392
 4609SOL     OW14725   4.810   2.163   0.909 -0.0750  0.1693 -0.0639
 4609SOL    HW114726   4.898   2.199   0.939 -0.8607  1.3351  0.9243
 4609SOL    HW214727   4.787   2.081   0.962 -0.4285  0.9338  0.9822
 4610SOL     OW14728   5.181   4.476   0.435  0.0517 -0.1228  0.2075
 4610SOL    HW114729   5.216   4.383   0.428 -0.0488 -0.1922  0.6061
 4610SOL    HW214730   5.171   4.501   0.531 -2.0893 -0.5309  0.1432
 4611SOL     OW14731   2.235   5.434   4.631 -0.7980  0.1917 -0.2821
 4611SOL    HW114732   2.313   5.469   4.683 -2.5438  2.9680  0.7475
 4611SOL    HW214733   2.181   5.374   4.690 -1.5889  1.5778  0.4651
 4612SOL     OW14734   0.471   1.488   6.961 -0.0528 -0.8161 -0.2159
 4612SOL    HW114735   0.388   1.472   6.907 -0.3072 -0.7328  0.1468
 4612SOL    HW214736   0.505   1.580   6.943 -0.4263 -0.6055  0.1512
 4613SOL     OW14737   3.764   5.235   0.390 -0.3579  0.5038 -0.1030
 4613SOL    HW114738   3.671   5.234   0.355  0.3287  1.0837 -2.0961
 4613SOL    HW214739   3.795   5.330   0.400  0.8198  0.3619 -1.9062
 4614SOL     OW14740   2.040   2.446   6.192  0.1918  0.5790 -0.2723
 4614SOL    HW114741   1.992   2.365   6.228 -0.2178  1.0539  0.2772
 4614SOL    HW214742   2.063   2.431   6.096  1.2709 -0.7150  0.1474
 4615SOL     OW14743   0.219   4.177   6.499 -0.2286 -0.4163 -0.3266
 4615SOL    HW114744   0.272   4.234   6.436 -0.8581  0.2757 -0.2406
 4615SOL    HW214745   0.161   4.115   6.447 -1.1926  0.5648 -0.4540
 4616SOL     OW14746   3.222   0.992   6.337  0.2744  0.2240  0.2458
 4616SOL    HW114747   3.213   1.092   6.332 -2.2534  0.0282 -0.5622
 4616SOL    HW214748   3.154   0.956   6.401  0.6977 -1.0383  0.0106
 4617SOL     OW14749   6.829   5.732   0.604 -0.4406 -0.0569  0.3554
 4617SOL    HW114750   6.852   5.815   0.552  0.8215 -0.0163  0.9416
 4617SOL    HW214751   6.732   5.734   0.628 -1.0234  0.0202 -1.7996
 4618SOL     OW14752   2.518   1.833   6.953 -1.0173  0.5303 -0.9653
 4618SOL    HW114753   2.488   1.889   6.876 -1.3346 -0.2026 -1.3820
 4618SOL    HW214754   2.461   1.853   7.033 -4.1384 -2.2551 -2.2435
 4619SOL     OW14755   5.426   1.539   4.220  0.2781  0.7319 -0.1757
 4619SOL    HW114756   5.388   1.625   4.255  0.2451 -0.0863  1.9700
 4619SOL    HW214757   5.470   1.490   4.295 -0.5118 -1.5468 -1.1332
 4620SOL     OW14758   1.420   5.134   6.883  0.1465 -0.2493 -0.3053
 4620SOL    HW114759   1.384   5.152   6.792  1.4578  0.9150 -0.6252
 4620SOL    HW214760   1.397   5.209   6.944 -1.0065 -1.1748  0.4358
 4621SOL     OW14761   6.109   1.544   0.420 -0.5905 -0.3113  0.2090
 4621SOL    HW114762   6.065   1.472   0.475 -0.2281 -2.0423 -1.6250
 4621SOL    HW214763   6.062   1.551   0.332 -0.4962  1.6280  0.2847
 4622SOL     OW14764   0.462   4.484   1.736 -0.0979 -0.0831  0.9175
 4622SOL    HW114765   0.368   4.454   1.752 -0.0836  0.1314  1.4469
 4622SOL    HW214766   0.469   4.582   1.753 -0.4284  0.5536 -2.0454
 4623SOL     OW14767   6.795   5.288   6.724  0.0584 -0.0280 -0.5927
 4623SOL    HW114768   6.720   5.341   6.684  0.7544 -0.3409 -2.4183
 4623SOL    HW214769   6.880   5.339   6.718  0.3301 -0.4306 -0.2698
 4624SOL     OW14770   4.438   0.553   4.986 -0.1867 -0.1401  0.3693
 4624SOL    HW114771   4.354   0.594   5.019 -0.4599 -0.8673  0.5867
 4624SOL    HW214772   4.421   0.510   4.897  0.0615  0.0912  0.2092
 4625SOL     OW14773   0.058   4.235   5.612  0.2266  0.0857 -0.3116
 4625SOL    HW114774   0.070   4.334   5.601  0.1021  0.1603  0.1927
 4625SOL    HW214775  -0.036   4.211   5.587 -0.9300  0.6643  3.0061
 4626SOL     OW14776   5.626   3.240   3.540  0.2278  0.2875 -0.5730
 4626SOL    HW114777   5.604   3.152   3.497 -0.8417  0.2394  0.0442
 4626SOL    HW214778   5.695   3.288   3.484 -1.1952  0.2854 -2.4417
 4627SOL     OW14779   2.570   0.304   4.473  0.0359  0.1031 -0.1169
 4627SOL    HW114780   2.560   0.366   4.396 -0.2895 -0.4281 -0.5087
 4627SOL    HW214781   2.665   0.273   4.479  0.5916  1.8617  1.0527
 4628SOL     OW14782   1.113   2.572   3.410  0.4644 -0.6511  0.4474
 4628SOL    HW114783   1.208   2.603   3.413  0.4816 -0.2636 -1.9860
 4628SOL    HW214784   1.108   2.477   3.442  2.1298 -1.5321 -1.6814
 4629SOL     OW14785   4.921   3.514   3.452 -0.0544  0.2063 -0.5953
 4629SOL    HW114786   4.917   3.531   3.353  1.0511 -2.6264 -1.2260
 4629SOL    HW214787   5.016   3.514   3.482 -0.4370  2.4572  0.8344
 4630SOL     OW14788   2.370   5.920   3.062  0.8010  0.4390  0.2706
 4630SOL    HW114789   2.378   6.010   3.106  0.6820  0.0346  1.1348
 4630SOL    HW214790   2.292   5.871   3.100  0.9882 -0.1153 -0.0474
 4631SOL     OW14791   1.416   1.655   2.788  0.2235  0.5847 -0.5276
 4631SOL    HW114792   1.354   1.583   2.819 -0.0535  1.1240  0.1845
 4631SOL    HW214793   1.432   1.720   2.862  0.9335  0.9427 -0.9821
 4632SOL     OW14794   6.271   6.141   4.298 -0.1216  0.2768 -0.1517
 4632SOL    HW114795   6.193   6.202   4.315 -0.8773 -0.8037  0.4166
 4632SOL    HW214796   6.267   6.064   4.363  0.4904 -0.6638 -1.1968
 4633SOL     OW14797   4.798   3.159   5.376 -0.0811  0.4326  0.0665
 4633SOL    HW114798   4.795   3.087   5.445  0.3197 -0.1123 -0.4727
 4633SOL    HW214799   4.824   3.120   5.288 -0.0360  1.2107 -0.2766
 4634SOL     OW14800   0.992   2.660   6.969  0.2580  0.0941  0.4859
 4634SOL    HW114801   0.894   2.643   6.980  0.0587  1.0937  0.2937
 4634SOL    HW214802   1.027   2.707   7.049  0.4351  0.3461  0.2630
 4635SOL     OW14803   5.396   2.620   0.372  0.2826 -0.2541 -0.3572
 4635SOL    HW114804   5.342   2.704   0.362 -1.3021 -1.1254  0.5311
 4635SOL    HW214805   5.480   2.628   0.317 -0.6889  1.1765 -1.7378
 4636SOL     OW14806   2.099   5.228   0.836  0.2737 -0.0478  0.9385
 4636SOL    HW114807   2.028   5.162   0.812  0.9545 -1.1535  1.8645
 4636SOL    HW214808   2.180   5.211   0.780  0.3772  0.1446  1.0306
 4637SOL     OW14809   5.685   0.578   5.734 -0.5977 -0.5821  0.5816
 4637SOL    HW114810   5.760   0.545   5.677 -0.4309 -2.1012  1.6148
 4637SOL    HW214811   5.600   0.579   5.680  0.3012  2.4894 -1.0239
 4638SOL     OW14812   6.252   4.921   5.723  0.1423  0.4546  0.6006
 4638SOL    HW114813   6.229   5.012   5.687 -0.5849  0.5260  1.2218
 4638SOL    HW214814   6.320   4.929   5.795  1.5755  0.3151 -0.6951
 4639SOL     OW14815   1.183   2.256   5.870  0.3960 -0.6062 -0.1340
 4639SOL    HW114816   1.154   2.279   5.963  1.4583 -1.1684  0.3455
 4639SOL    HW214817   1.273   2.213   5.872 -0.5595 -2.8439 -1.1827
 4640SOL     OW14818   0.245   5.273   3.704  0.1759  0.1686 -0.7018
 4640SOL    HW114819   0.189   5.356   3.699 -0.3267 -0.1477 -0.4457
 4640SOL    HW214820   0.204   5.209   3.769  1.3102  0.2782  0.1416
 4641SOL     OW14821   1.805   2.209   2.291  0.2620 -0.5028  0.6593
 4641SOL    HW114822   1.724   2.154   2.314  0.3886 -0.7330  0.5586
 4641SOL    HW214823   1.856   2.163   2.218 -0.7596  0.7912 -0.9436
 4642SOL     OW14824   0.901   6.337   4.753  0.1714  0.0499  0.2150
 4642SOL    HW114825   0.869   6.267   4.689  1.4897  0.6222 -1.1310
 4642SOL    HW214826   0.962   6.294   4.820  1.2391 -0.0738 -0.8008
 4643SOL     OW14827   2.633   3.309   1.430  0.2214 -0.2058 -0.0434
 4643SOL    HW114828   2.557   3.309   1.495 -1.8531 -1.3365 -2.2933
 4643SOL    HW214829   2.691   3.229   1.448  0.3720  0.1361  1.1015
 4644SOL     OW14830   2.325   6.224   4.760 -0.8982  0.0491 -0.3238
 4644SOL    HW114831   2.362   6.241   4.668  0.2938  1.9935  0.4653
 4644SOL    HW214832   2.241   6.275   4.773  0.3997  2.0548  0.5674
 4645SOL     OW14833   0.964   5.855   3.907 -0.5598 -0.1398  0.3464
 4645SOL    HW114834   1.013   5.884   3.824 -0.7664  1.3689  0.7318
 4645SOL    HW214835   0.866   5.874   3.896 -0.8052 -1.2658  0.3966
 4646SOL     OW14836   2.371   0.451   3.194 -0.4249  0.2775  0.0245
 4646SOL    HW114837   2.426   0.374   3.226 -0.0458  1.3884  2.2790
 4646SOL    HW214838   2.427   0.533   3.191 -1.7286  1.3329  1.9060
 4647SOL     OW14839   6.452   0.183   3.734  0.4111  0.6363  0.3553
 4647SOL    HW114840   6.540   0.212   3.771  1.1386  0.0375 -0.8396
 4647SOL    HW214841   6.446   0.083   3.735 -0.2570  0.6711  0.4129
 4648SOL     OW14842   1.988   5.041   2.890 -0.0800 -0.6662 -0.4656
 4648SOL    HW114843   2.011   5.092   2.808  0.2212 -0.2837 -0.1466
 4648SOL    HW214844   2.000   4.943   2.872 -3.0596 -0.8668 -1.8634
 4649SOL     OW14845   5.973   0.326   6.217 -0.0023 -0.5248 -0.6117
 4649SOL    HW114846   6.068   0.352   6.232  0.4975 -0.6538 -3.0510
 4649SOL    HW214847   5.919   0.408   6.196 -0.7356 -0.3047  1.8430
 4650SOL     OW14848   5.900   3.588   2.344 -0.2804  0.2737  0.6425
 4650SOL    HW114849   5.805   3.600   2.370  0.5338  0.3033  4.1279
 4650SOL    HW214850   5.935   3.504   2.387  1.5035  0.8019  0.2898
 4651SOL     OW14851   6.775   3.359   6.913 -0.9352 -0.3821 -0.2661
 4651SOL    HW114852   6.735   3.269   6.893 -0.5343 -0.9584  1.3845
 4651SOL    HW214853   6.808   3.360   7.007 -0.3245  1.2919 -0.4783
 4652SOL     OW14854   0.991   6.861   4.339 -0.0085 -0.4307 -0.2477
 4652SOL    HW114855   1.077   6.909   4.319 -0.4524  0.8415  0.7354
 4652SOL    HW214856   0.930   6.923   4.388 -0.9645 -1.7596  0.2793
 4653SOL     OW14857   2.244   4.890   1.693 -0.4094 -0.0328  0.4084
 4653SOL    HW114858   2.303   4.947   1.750 -2.0162  0.9300  1.2086
 4653SOL    HW214859   2.292   4.807   1.667  0.8787  0.1566  2.0091
 4654SOL     OW14860   1.255   2.647   6.766 -0.3750  0.5534 -0.5700
 4654SOL    HW114861   1.164   2.626   6.802  0.1386  1.3418  1.2524
 4654SOL    HW214862   1.324   2.629   6.835  0.7646  1.0736 -1.5351
 4655SOL     OW14863   0.532   6.029   5.089  0.2519  0.0862 -0.3337
 4655SOL    HW114864   0.573   6.081   5.163 -0.1443 -0.0258 -0.0320
 4655SOL    HW214865   0.531   5.932   5.111  0.8322 -0.0350 -0.8220
 4656SOL     OW14866   2.569   0.870   3.393  0.0446  0.1585  0.1795
 4656SOL    HW114867   2.517   0.953   3.373 -1.4710 -0.7521  0.2208
 4656SOL    HW214868   2.662   0.880   3.358  0.0332  2.0399  0.5936
 4657SOL     OW14869   4.232   1.899   5.351 -0.0031 -0.2364 -0.3020
 4657SOL    HW114870   4.218   1.929   5.445 -1.4504  1.4603 -0.9934
 4657SOL    HW214871   4.326   1.867   5.339  0.8114  1.4210  1.2184
 4658SOL     OW14872   5.050   6.499   3.589 -0.2877 -0.2896  0.3708
 4658SOL    HW114873   5.098   6.420   3.550 -1.9320 -0.7937 -0.6940
 4658SOL    HW214874   5.035   6.567   3.518  0.0736  0.4940  1.0283
 4659SOL     OW14875   2.004   2.875   4.560 -0.3423 -0.1596 -0.4524
 4659SOL    HW114876   2.088   2.821   4.558  0.4945  1.0533  0.0823
 4659SOL    HW214877   1.959   2.864   4.649  1.4869  2.3236  0.9125
 4660SOL     OW14878   5.988   1.626   4.817  0.2746 -0.0502 -0.5831
 4660SOL    HW114879   6.014   1.686   4.742 -0.9107  0.2198 -0.7917
 4660SOL    HW214880   5.905   1.576   4.794  0.4397 -0.6935  0.1609
 4661SOL     OW14881   3.985   3.959   4.156  0.5379  0.0391 -0.3890
 4661SOL    HW114882   3.898   3.909   4.151  0.3508  0.0707  1.6291
 4661SOL    HW214883   4.016   3.982   4.064 -0.0331 -2.6280 -1.3288
 4662SOL     OW14884   2.300   5.579   5.922 -0.4155  0.2088  0.3297
 4662SOL    HW114885   2.211   5.577   5.969 -1.1849  0.1572 -1.0702
 4662SOL    HW214886   2.353   5.499   5.948 -1.7815 -1.0590 -0.6434
 4663SOL     OW14887   0.673   0.449   1.789 -0.2040 -0.0703 -0.0514
 4663SOL    HW114888   0.684   0.409   1.699  1.6395  2.3590 -1.0133
 4663SOL    HW214889   0.575   0.462   1.809 -0.6182  0.8590 -2.4304
 4664SOL     OW14890   2.042   4.003   6.372  0.0593  0.2657  0.2430
 4664SOL    HW114891   2.006   3.978   6.282 -1.9203  2.2561  0.4119
 4664SOL    HW214892   2.031   3.925   6.435 -0.5840 -0.3902 -0.6562
 4665SOL     OW14893   4.777   1.635   6.328 -0.5690 -0.3673  0.2450
 4665SOL    HW114894   4.865   1.666   6.362  0.4370  1.1623 -3.2317
 4665SOL    HW214895   4.791   1.555   6.269 -2.0427 -2.2335  2.2784
 4666SOL     OW14896   1.491   0.947   6.174  0.2333  0.3650  0.4579
 4666SOL    HW114897   1.415   0.976   6.232  0.8824 -1.3247  2.2639
 4666SOL    HW214898   1.540   1.027   6.141 -1.6926  1.4592  0.0637
 4667SOL     OW14899   6.796   4.241   3.649  0.9320 -0.2362  0.4339
 4667SOL    HW114900   6.723   4.178   3.676  0.8098  0.2268  1.2297
 4667SOL    HW214901   6.806   4.312   3.720 -0.1941  1.7552 -1.2694
 4668SOL     OW14902   5.611   6.868   4.388  0.2303 -0.5106  0.5107
 4668SOL    HW114903   5.700   6.898   4.353  1.4863 -1.3036  2.8063
 4668SOL    HW214904   5.578   6.932   4.456 -1.6712  0.4669 -1.2236
 4669SOL     OW14905   2.710   1.889   1.728 -0.0891  0.0865  0.5755
 4669SOL    HW114906   2.700   1.956   1.802  0.9395 -0.6037  1.3692
 4669SOL    HW214907   2.666   1.924   1.646  0.6015  1.8381  0.9038
 4670SOL     OW14908   2.828   1.214   5.005  0.3259 -0.2642  0.3359
 4670SOL    HW114909   2.815   1.290   5.069 -0.5334  0.0095 -0.1431
 4670SOL    HW214910   2.882   1.142   5.049  1.3494  0.7052  0.7188
 4671SOL     OW14911   6.184   1.081   3.270  0.7679  0.6661 -0.6433
 4671SOL    HW114912   6.226   1.023   3.199  0.3451 -1.2303  0.5767
 4671SOL    HW214913   6.243   1.082   3.351 -1.1332 -1.5623  0.8832
 4672SOL     OW14914   3.489   4.097   5.964 -0.8002 -0.1764 -0.3681
 4672SOL    HW114915   3.522   4.024   6.024 -0.6082 -2.6660 -3.2714
 4672SOL    HW214916   3.557   4.169   5.958 -0.4772 -0.2563  1.6836
 4673SOL     OW14917   4.687   0.662   2.670  1.2244 -0.4090 -0.4292
 4673SOL    HW114918   4.691   0.747   2.617  0.0073  1.5761  2.4074
 4673SOL    HW214919   4.592   0.635   2.683  1.0409  1.3225  3.5758
 4674SOL     OW14920   4.748   6.619   5.761 -0.5858 -0.3109 -0.4381
 4674SOL    HW114921   4.771   6.549   5.694  1.4657  0.8264 -1.0182
 4674SOL    HW214922   4.817   6.691   5.758 -0.3249 -0.2684  3.0150
 4675SOL     OW14923   6.634   4.759   5.016 -0.1043 -0.4932  0.5220
 4675SOL    HW114924   6.652   4.703   4.936 -0.6897  1.0889 -0.7756
 4675SOL    HW214925   6.689   4.842   5.012 -1.7331  0.6411  0.5844
 4676SOL     OW14926   2.400   4.773   4.941  0.1104 -0.4160 -0.3295
 4676SOL    HW114927   2.453   4.730   5.014 -1.0365 -0.1212  0.7197
 4676SOL    HW214928   2.329   4.710   4.910  0.9695 -0.7719 -1.6556
 4677SOL     OW14929   0.185   4.339   2.415  0.3336  0.5740 -0.6128
 4677SOL    HW114930   0.103   4.359   2.468 -0.2922 -0.9232 -0.9574
 4677SOL    HW214931   0.236   4.265   2.461 -0.7790 -1.5249 -2.5625
 4678SOL     OW14932   1.056   2.171   6.928 -0.0188 -0.0521 -0.8818
 4678SOL    HW114933   0.976   2.181   6.988  0.1775  1.3212 -0.8305
 4678SOL    HW214934   1.101   2.084   6.948  1.0332  1.0455  2.2065
 4679SOL     OW14935   5.468   6.930   2.329 -0.9474 -0.0751 -0.3790
 4679SOL    HW114936   5.527   6.994   2.378 -1.6457  0.9246 -0.8079
 4679SOL    HW214937   5.502   6.915   2.237  0.1616 -1.6738  0.2407
 4680SOL     OW14938   2.203   6.757   1.620  0.2077  0.2705  0.0430
 4680SOL    HW114939   2.238   6.830   1.562 -1.4123  0.0758 -1.2576
 4680SOL    HW214940   2.279   6.704   1.657  1.3571  1.8078 -0.0268
 4681SOL     OW14941   6.749   4.141   1.557 -0.0264  0.3263  0.0942
 4681SOL    HW114942   6.652   4.157   1.574 -0.8117 -2.0768 -1.5708
 4681SOL    HW214943   6.794   4.117   1.643 -1.2480 -0.0327  0.6548
 4682SOL     OW14944   4.917   4.425   6.223 -0.4206 -0.1807  0.0702
 4682SOL    HW114945   4.969   4.387   6.147  4.5633  0.6255  2.7114
 4682SOL    HW214946   4.867   4.352   6.270 -0.0572 -1.3960 -1.3683
 4683SOL     OW14947   6.331   2.927   4.488  0.0733 -0.1178  0.3754
 4683SOL    HW114948   6.272   2.847   4.501  0.1993 -0.3615 -0.5157
 4683SOL    HW214949   6.276   3.005   4.460  0.1525 -0.3314 -0.4026
 4684SOL     OW14950   6.493   6.635   0.289  0.1715  0.3402  0.3091
 4684SOL    HW114951   6.572   6.579   0.263  0.0131  0.7755 -1.2386
 4684SOL    HW214952   6.441   6.588   0.361  1.7115 -0.0409  1.2205
 4685SOL     OW14953   3.232   3.628   4.609 -0.0844  0.0761  0.5455
 4685SOL    HW114954   3.149   3.671   4.643  1.9270  2.1546  3.3101
 4685SOL    HW214955   3.272   3.686   4.537  0.4963  0.7205  1.3681
 4686SOL     OW14956   3.017   1.267   6.066 -0.2075  0.2855  0.5196
 4686SOL    HW114957   3.054   1.254   5.974 -3.0435 -0.1497 -0.6763
 4686SOL    HW214958   2.972   1.182   6.095 -2.5823  1.5078  0.6591
 4687SOL     OW14959   1.448   6.476   2.539  0.0515  0.2613 -0.4653
 4687SOL    HW114960   1.381   6.447   2.608  1.1188 -1.0533  0.0593
 4687SOL    HW214961   1.429   6.430   2.452  1.8166 -2.3275  0.3962
 4688SOL     OW14962   5.415   3.196   0.725  0.2110  0.1719  0.3142
 4688SOL    HW114963   5.453   3.157   0.641  0.2852 -0.0606  0.4558
 4688SOL    HW214964   5.327   3.151   0.745 -0.2106  0.7974 -0.0856
 4689SOL     OW14965   6.329   2.228   1.371  0.2097 -0.0028 -0.8433
 4689SOL    HW114966   6.266   2.237   1.448  0.0363 -0.3577 -0.9435
 4689SOL    HW214967   6.386   2.310   1.365  0.0894  0.1103 -0.4576
 4690SOL     OW14968   3.112   1.865   1.385 -0.1956 -0.5466 -0.0874
 4690SOL    HW114969   3.101   1.951   1.334  0.8732  0.3529  1.1090
 4690SOL    HW214970   3.184   1.810   1.342 -0.2595 -0.4377 -0.3386
 4691SOL     OW14971   6.681   1.472   2.994 -0.0729  0.2609  0.2290
 4691SOL    HW114972   6.759   1.534   2.997 -0.2557  0.5227 -0.2913
 4691SOL    HW214973   6.627   1.491   2.912 -0.2538 -0.4338  0.1846
 4692SOL     OW14974   0.571   3.629   4.026 -0.0279 -0.2982 -0.4407
 4692SOL    HW114975   0.559   3.602   3.931 -0.0112  1.4559 -0.9638
 4692SOL    HW214976   0.667   3.623   4.051 -0.1215 -1.4533 -0.2903
 4693SOL     OW14977   0.187   0.217   4.789 -0.0761  0.2155  0.1318
 4693SOL    HW114978   0.227   0.136   4.745  3.5997  1.8563  0.0247
 4693SOL    HW214979   0.135   0.190   4.869 -1.0974 -2.3524 -1.2794
 4694SOL     OW14980   0.475   5.225   5.221 -0.1937  0.0688  0.1002
 4694SOL    HW114981   0.439   5.153   5.280 -0.1339  1.0616  1.3932
 4694SOL    HW214982   0.483   5.191   5.128  0.4262 -1.7800  0.7920
 4695SOL     OW14983   1.034   3.924   2.902  0.0494 -0.4454  0.6826
 4695SOL    HW114984   1.021   3.987   2.825 -1.8491 -1.1876  0.3576
 4695SOL    HW214985   1.081   3.972   2.976 -2.4260  1.7666  0.9557
 4696SOL     OW14986   0.909   5.719   5.481  0.0732 -0.2383  0.6131
 4696SOL    HW114987   0.940   5.632   5.441  1.9842  0.6317  0.1071
 4696SOL    HW214988   0.809   5.722   5.479  0.0100 -1.5633 -1.2254
 4697SOL     OW14989   4.312   5.998   1.088 -0.7880  0.0857 -0.1811
 4697SOL    HW114990   4.404   6.036   1.099 -0.0614 -0.2509 -3.9532
 4697SOL    HW214991   4.302   5.918   1.147  1.8408 -0.6303 -0.5939
 4698SOL     OW14992   6.947   2.888   5.188 -0.3685 -0.0482  0.1604
 4698SOL    HW114993   7.042   2.866   5.210 -0.4683 -1.1324 -0.4135
 4698SOL    HW214994   6.922   2.975   5.230  1.0251  0.5016 -0.1025
 4699SOL     OW14995   1.651   0.606   4.223  0.4540 -0.6028  0.1864
 4699SOL    HW114996   1.626   0.632   4.130 -1.5229 -0.6558  0.6597
 4699SOL    HW214997   1.660   0.506   4.228  0.9946 -0.5706 -0.0238
 4700SOL     OW14998   1.690   1.855   3.258  0.3223  0.6848  0.5884
 4700SOL    HW114999   1.672   1.801   3.340 -0.0178  1.3786  0.9759
 4700SOL    HW215000   1.644   1.943   3.264 -1.2792  0.0512 -1.1756
 4701SOL     OW15001   2.476   2.123   2.156  0.2255  0.0073 -0.2457
 4701SOL    HW115002   2.454   2.088   2.247  2.2927 -1.3418 -0.1845
 4701SOL    HW215003   2.425   2.071   2.087  0.3383 -0.5021  0.0477
 4702SOL     OW15004   3.313   6.020   2.007 -0.6793  0.7687 -0.4306
 4702SOL    HW115005   3.215   6.023   1.987 -0.5470 -0.2284 -1.2969
 4702SOL    HW215006   3.354   5.940   1.962  0.8778  2.1733 -1.6238
 4703SOL     OW15007   6.246   3.555   5.950 -0.4643 -0.0955 -0.2165
 4703SOL    HW115008   6.280   3.514   6.035 -0.7954 -1.8608 -0.8909
 4703SOL    HW215009   6.264   3.653   5.951  0.6931 -0.2813  1.3308
 4704SOL     OW15010   1.642   2.148   2.589 -0.0305  0.0322 -0.0932
 4704SOL    HW115011   1.607   2.142   2.495 -1.1891  0.4576  0.2925
 4704SOL    HW215012   1.690   2.064   2.612 -1.0761 -0.7278 -0.5583
 4705SOL     OW15013   2.757   3.825   1.603  0.1266 -0.2948  0.3417
 4705SOL    HW115014   2.805   3.864   1.682  0.3685 -1.1921  0.6492
 4705SOL    HW215015   2.738   3.728   1.620  1.9647 -1.0563 -1.4986
 4706SOL     OW15016   2.594   0.691   3.780  0.1756  0.4725 -0.1116
 4706SOL    HW115017   2.652   0.767   3.749  1.2360 -0.5492 -0.7457
 4706SOL    HW215018   2.547   0.652   3.701  0.6800 -0.3616 -0.0057
 4707SOL     OW15019   2.652   5.169   3.135 -0.2109 -0.6603  0.1089
 4707SOL    HW115020   2.558   5.135   3.135 -0.4591 -0.0004  0.4421
 4707SOL    HW215021   2.698   5.141   3.051 -0.5845 -1.3192  0.1230
 4708SOL     OW15022   0.910   3.473   0.204  0.2032  0.0909 -0.2673
 4708SOL    HW115023   0.978   3.410   0.241  0.2215  1.3218  2.0214
 4708SOL    HW215024   0.866   3.433   0.123  0.0764 -2.9106  1.1552
 4709SOL     OW15025   6.940   4.909   4.748  0.4354 -0.3582  0.3284
 4709SOL    HW115026   6.994   4.992   4.732 -1.6244  1.1521  0.7682
 4709SOL    HW215027   6.893   4.916   4.836  1.1567 -2.5749  0.9534
 4710SOL     OW15028   6.871   3.305   5.951  0.7051 -0.0481 -0.4198
 4710SOL    HW115029   6.820   3.320   5.867 -0.4386  0.0437  0.2609
 4710SOL    HW215030   6.959   3.352   5.947  0.0407  1.1793 -0.9856
 4711SOL     OW15031   4.881   3.279   3.660 -0.3051 -0.0923  0.3841
 4711SOL    HW115032   4.814   3.265   3.587 -0.5811  0.0519  0.6084
 4711SOL    HW215033   4.917   3.190   3.689 -2.2738 -0.4369  2.0159
 4712SOL     OW15034   2.950   5.891   4.239  0.5294 -0.4921  0.3385
 4712SOL    HW115035   2.889   5.846   4.174 -0.3054  1.2341 -0.1229
 4712SOL    HW215036   2.920   5.870   4.333 -0.3077 -0.2992  0.1230
 4713SOL     OW15037   4.940   3.729   2.090  0.5348 -0.3874  0.0376
 4713SOL    HW115038   4.901   3.649   2.136 -3.0693 -0.9109 -3.4694
 4713SOL    HW215039   4.910   3.813   2.137 -0.1924 -0.9465  0.5857
 4714SOL     OW15040   0.057   3.087   6.313  0.1537 -0.2213 -0.1027
 4714SOL    HW115041   0.017   3.141   6.387 -1.0813  0.7174 -1.3794
 4714SOL    HW215042   0.089   3.149   6.241 -0.8533 -1.1376 -1.3974
 4715SOL     OW15043   6.245   4.016   6.832  0.3031  0.1318  0.1732
 4715SOL    HW115044   6.310   3.942   6.847 -0.8373 -1.0162 -0.4297
 4715SOL    HW215045   6.295   4.102   6.819  1.6479 -0.5493  0.6695
 4716SOL     OW15046   3.867   4.577   5.672 -0.3253  0.3939 -0.4862
 4716SOL    HW115047   3.948   4.622   5.708 -0.6548  1.0898 -0.5983
 4716SOL    HW215048   3.857   4.486   5.714  0.4563  0.3425 -0.4121
 4717SOL     OW15049   6.429   5.078   6.212  0.2769  0.0529  0.1559
 4717SOL    HW115050   6.344   5.073   6.160  1.1213  0.7227 -1.3673
 4717SOL    HW215051   6.473   5.166   6.195  0.7493  0.1611  1.8003
 4718SOL     OW15052   5.044   3.071   3.074 -0.1581  0.5921  0.5184
 4718SOL    HW115053   5.050   3.024   3.162  0.0817 -0.3316  0.0216
 4718SOL    HW215054   4.949   3.079   3.046 -0.2795  1.4127  1.1265
 4719SOL     OW15055   0.516   4.193   1.437 -0.4991 -0.0236  0.3522
 4719SOL    HW115056   0.503   4.153   1.347 -1.1118  1.1967 -0.1286
 4719SOL    HW215057   0.552   4.286   1.428  2.1655 -0.8690  1.4725
 4720SOL     OW15058   0.804   0.232   5.885 -0.7031  0.0013  0.7128
 4720SOL    HW115059   0.825   0.316   5.936 -0.2452  0.4927 -0.2576
 4720SOL    HW215060   0.747   0.254   5.806  1.1519 -0.2395 -0.7704
 4721SOL     OW15061   2.118   3.511   2.403  0.2197 -0.3417 -0.5963
 4721SOL    HW115062   2.084   3.457   2.480  0.1391  0.8214  0.2085
 4721SOL    HW215063   2.215   3.533   2.418  0.9922 -2.3697 -2.1520
 4722SOL     OW15064   2.356   5.894   6.326 -0.4989  0.2384 -0.1034
 4722SOL    HW115065   2.273   5.946   6.305 -1.3271  0.3503  2.8794
 4722SOL    HW215066   2.434   5.955   6.332 -0.4585  0.3505 -1.4604
 4723SOL     OW15067   2.570   6.083   5.494  0.0670  0.1842 -0.3456
 4723SOL    HW115068   2.510   6.003   5.493 -0.3257  0.4545  0.4495
 4723SOL    HW215069   2.541   6.147   5.423  0.0113 -0.1087 -0.5918
 4724SOL     OW15070   0.034   0.658   4.986 -0.0213 -0.6232  0.4315
 4724SOL    HW115071   0.060   0.667   5.082  0.4883  0.5902  0.1947
 4724SOL    HW215072  -0.011   0.742   4.956  0.9414 -0.5055 -0.7246
 4725SOL     OW15073   5.729   5.494   1.690 -0.6214  0.3300  0.1001
 4725SOL    HW115074   5.629   5.496   1.686 -0.6567  1.6965  1.1038
 4725SOL    HW215075   5.762   5.409   1.649 -2.0773  0.7660 -2.1832
 4726SOL     OW15076   2.436   2.107   6.298 -0.4757  0.0823 -0.2952
 4726SOL    HW115077   2.501   2.072   6.365 -2.1152  0.3129  1.5016
 4726SOL    HW215078   2.369   2.166   6.344 -1.1884  0.9142 -2.2907
 4727SOL     OW15079   0.203   5.197   1.902  0.0555 -0.5881  0.1535
 4727SOL    HW115080   0.113   5.239   1.911 -0.2850 -1.3107  0.2187
 4727SOL    HW215081   0.192   5.099   1.886  0.8214 -0.6081 -0.3013
 4728SOL     OW15082   5.163   0.043   4.493  0.2859 -0.1709  0.0337
 4728SOL    HW115083   5.068   0.027   4.469 -0.1819  2.3922 -0.0663
 4728SOL    HW215084   5.171   0.066   4.590  0.7708 -0.0839 -0.0209
 4729SOL     OW15085   6.935   0.383   2.604 -0.3104 -0.0978  0.2515
 4729SOL    HW115086   6.891   0.379   2.515 -0.1180  2.5468 -0.0348
 4729SOL    HW215087   6.868   0.412   2.673 -0.0742 -0.5559  0.6813
 4730SOL     OW15088   2.887   0.730   1.576 -0.2007  1.1106  0.0349
 4730SOL    HW115089   2.948   0.717   1.497 -0.7579  0.3469 -0.2733
 4730SOL    HW215090   2.804   0.777   1.546 -1.6665 -1.6109 -0.4389
 4731SOL     OW15091   4.440   6.910   2.490 -0.0714  0.0160 -0.4456
 4731SOL    HW115092   4.520   6.855   2.468 -0.2774 -0.3817 -0.2029
 4731SOL    HW215093   4.415   6.897   2.586 -0.4902  0.0604 -0.5452
 4732SOL     OW15094   0.294   3.785   3.780  0.0304  0.0628 -0.0057
 4732SOL    HW115095   0.351   3.739   3.847  0.9803  0.3586 -0.5984
 4732SOL    HW215096   0.198   3.771   3.804  0.3438  0.2945  1.4996
 4733SOL     OW15097   1.001   5.491   3.642 -0.0427 -0.2594  0.3441
 4733SOL    HW115098   0.954   5.510   3.728 -0.3782  0.7979 -0.0641
 4733SOL    HW215099   1.095   5.461   3.661  0.1144  0.6483  1.0591
 4734SOL     OW15100   4.730   4.728   5.788 -0.1262 -0.1948 -0.0697
 4734SOL    HW115101   4.643   4.755   5.748 -0.5393 -0.5858  0.5533
 4734SOL    HW215102   4.728   4.743   5.887  1.0009  1.0935 -0.2072
 4735SOL     OW15103   6.516   1.233   4.322 -0.0938  0.1171  0.5918
 4735SOL    HW115104   6.611   1.260   4.304  0.0043 -1.5266 -1.7811
 4735SOL    HW215105   6.512   1.180   4.408  1.0378  0.5983  0.9582
 4736SOL     OW15106   5.909   6.215   3.418  0.5564  0.1327 -0.3121
 4736SOL    HW115107   5.964   6.251   3.494 -1.8163 -1.4216  2.3567
 4736SOL    HW215108   5.874   6.291   3.363  0.8793  1.4912  1.2871
 4737SOL     OW15109   1.487   4.867   6.038  0.0158  0.0824 -0.3891
 4737SOL    HW115110   1.523   4.955   6.006 -0.9655  0.9503  0.7838
 4737SOL    HW215111   1.390   4.861   6.018  0.1234 -0.8734 -0.6932
 4738SOL     OW15112   0.415   0.790   1.960  0.1660  0.9741 -0.1015
 4738SOL    HW115113   0.316   0.780   1.966  0.3891 -2.9069 -0.2193
 4738SOL    HW215114   0.458   0.754   2.043  1.5168  1.3880 -0.5894
 4739SOL     OW15115   5.866   1.679   2.442  0.3108  0.0135 -0.1988
 4739SOL    HW115116   5.899   1.586   2.461  0.0199 -0.0826 -0.1570
 4739SOL    HW215117   5.772   1.688   2.475 -0.0955 -0.0588 -1.3174
 4740SOL     OW15118   2.850   0.208   6.993 -0.6061 -0.2675 -0.2878
 4740SOL    HW115119   2.845   0.158   7.079  0.5866 -3.2318 -1.7980
 4740SOL    HW215120   2.924   0.275   6.997  1.3543 -2.3688  0.1270
 4741SOL     OW15121   6.527   3.660   2.711  0.5132 -0.3064  0.2410
 4741SOL    HW115122   6.582   3.741   2.732 -1.1582  0.7427  0.7018
 4741SOL    HW215123   6.505   3.612   2.795 -0.2425 -0.0659  0.1868
 4742SOL     OW15124   2.736   4.758   6.781  0.1831 -0.7737  0.2863
 4742SOL    HW115125   2.731   4.835   6.845  0.2395 -0.3464 -0.2217
 4742SOL    HW215126   2.707   4.787   6.690  3.6226 -0.3857 -0.7975
 4743SOL     OW15127   4.120   4.431   6.616  0.3381 -0.2104 -0.4491
 4743SOL    HW115128   4.134   4.391   6.525  1.2554 -1.9269  0.3930
 4743SOL    HW215129   4.022   4.439   6.634  0.1424 -0.6258 -1.2709
 4744SOL     OW15130   2.436   1.425   6.731 -0.7971 -0.3922  0.2169
 4744SOL    HW115131   2.398   1.513   6.760  0.8897  0.7451 -0.8557
 4744SOL    HW215132   2.521   1.440   6.681 -2.0041 -2.3622 -2.7708
 4745SOL     OW15133   5.322   5.112   3.905 -0.6672  0.4145 -0.0772
 4745SOL    HW115134   5.368   5.065   3.980 -0.1209  0.7308 -0.2073
 4745SOL    HW215135   5.224   5.115   3.923 -0.8711 -1.7559 -0.6009
 4746SOL     OW15136   4.842   2.182   0.603  0.1035  0.2732  0.2511
 4746SOL    HW115137   4.778   2.232   0.544 -0.2187 -1.2598 -0.7699
 4746SOL    HW215138   4.812   2.190   0.698  0.1626  2.1069  0.1650
 4747SOL     OW15139   0.838   4.592   1.945  0.0638 -0.3449  0.1697
 4747SOL    HW115140   0.836   4.595   1.845  1.2092 -0.6443  0.1184
 4747SOL    HW215141   0.867   4.501   1.974 -1.9667 -0.8318  0.8382
 4748SOL     OW15142   0.723   5.275   1.076 -0.2802 -0.5313 -0.4247
 4748SOL    HW115143   0.761   5.363   1.046 -2.6782  0.4625 -0.7815
 4748SOL    HW215144   0.729   5.270   1.176 -0.7710  0.3920 -0.3313
 4749SOL     OW15145   3.549   1.212   0.219 -0.0904 -0.0514  0.1886
 4749SOL    HW115146   3.634   1.168   0.191  0.3819  0.8486  0.1645
 4749SOL    HW215147   3.472   1.171   0.170  0.3267 -0.8765  0.2164
 4750SOL     OW15148   0.918   2.805   3.434  0.4070  0.6045  0.1924
 4750SOL    HW115149   0.995   2.743   3.414 -0.0375  0.0181  0.2577
 4750SOL    HW215150   0.833   2.752   3.436  0.3492  0.6877  3.2810
 4751SOL     OW15151   1.566   4.225   6.069  0.1049  0.1132 -0.5365
 4751SOL    HW115152   1.467   4.215   6.075 -0.1384  1.4243 -1.7232
 4751SOL    HW215153   1.598   4.188   5.981  0.6085  0.0972 -0.3493
 4752SOL     OW15154   3.508   3.455   5.596 -0.2665 -0.4621  0.0999
 4752SOL    HW115155   3.496   3.513   5.515  0.0115 -0.7882 -0.1776
 4752SOL    HW215156   3.441   3.481   5.665 -0.1677  0.1746 -0.0311
 4753SOL     OW15157   6.725   3.084   6.566 -0.2689  0.1911 -0.2987
 4753SOL    HW115158   6.800   3.124   6.618 -0.5847 -0.0185  0.3379
 4753SOL    HW215159   6.731   2.984   6.569 -0.0657  0.1812 -1.0060
 4754SOL     OW15160   1.009   2.126   6.547  0.0953 -0.0182 -0.1807
 4754SOL    HW115161   1.092   2.152   6.595  0.1942  0.5349 -0.6446
 4754SOL    HW215162   0.938   2.102   6.613  0.3039  0.5033  0.2357
 4755SOL     OW15163   1.542   2.385   2.857 -0.1040 -0.0313 -0.0585
 4755SOL    HW115164   1.521   2.320   2.784 -0.4310 -0.1876  0.1756
 4755SOL    HW215165   1.575   2.336   2.937 -0.6325  0.0671  0.2204
 4756SOL     OW15166   4.697   3.770   1.409  0.3921 -0.4085 -0.1635
 4756SOL    HW115167   4.725   3.741   1.318 -0.2231 -1.0108 -0.1648
 4756SOL    HW215168   4.613   3.823   1.404  0.3182 -0.5006  0.0575
 4757SOL     OW15169   3.169   2.403   0.878 -0.2902  0.2164  0.0752
 4757SOL    HW115170   3.221   2.448   0.805  1.0932  0.2904  1.0652
 4757SOL    HW215171   3.095   2.463   0.907  0.6991  1.2995  0.4364
 4758SOL     OW15172   5.622   3.855   5.302 -0.2485 -0.0680  0.1731
 4758SOL    HW115173   5.544   3.794   5.312 -0.7108  0.7533  2.1422
 4758SOL    HW215174   5.678   3.853   5.385  1.9461 -0.7223 -1.2227
 4759SOL     OW15175   6.318   4.087   0.448 -0.4079  0.0159 -0.1087
 4759SOL    HW115176   6.223   4.059   0.437 -0.3953 -1.0044  1.8796
 4759SOL    HW215177   6.322   4.178   0.488 -0.5327  0.3154 -0.7713
 4760SOL     OW15178   0.932   4.273   6.848  0.3603 -0.0331 -0.3768
 4760SOL    HW115179   0.904   4.369   6.857  0.4561 -0.0400  0.0030
 4760SOL    HW215180   0.999   4.265   6.775  2.4038  0.6257  1.3437
 4761SOL     OW15181   3.105   0.329   6.216 -0.4869  0.6689 -0.2799
 4761SOL    HW115182   3.032   0.363   6.274  0.3804 -0.0820  1.3034
 4761SOL    HW215183   3.076   0.243   6.172  0.3482 -1.2511  2.6321
 4762SOL     OW15184   4.760   6.288   3.588 -0.1502 -0.2647 -0.1772
 4762SOL    HW115185   4.766   6.346   3.669 -2.0129  1.1392 -0.9532
 4762SOL    HW215186   4.664   6.267   3.570  0.1424  0.0555 -2.3949
 4763SOL     OW15187   5.488   3.392   4.216  0.2173 -0.1294  0.0045
 4763SOL    HW115188   5.389   3.394   4.202  0.2213 -0.1192 -0.0222
 4763SOL    HW215189   5.534   3.379   4.129  0.2387 -0.1583  0.0201
 4764SOL     OW15190   3.592   3.596   4.131 -0.1921 -0.4742  0.2231
 4764SOL    HW115191   3.528   3.559   4.198  0.9173  1.2752  2.3778
 4764SOL    HW215192   3.602   3.531   4.055 -3.3972 -1.4174  0.4503
 4765SOL     OW15193   6.122   4.494   0.530 -0.8142 -0.5246 -1.1427
 4765SOL    HW115194   6.209   4.455   0.500 -0.7780 -0.9941 -0.4493
 4765SOL    HW215195   6.136   4.548   0.613 -0.9579  0.5519 -1.7990
 4766SOL     OW15196   4.071   2.245   4.051  1.0748 -0.4727 -0.1505
 4766SOL    HW115197   3.976   2.252   4.079  1.4583  0.0508  1.1109
 4766SOL    HW215198   4.093   2.317   3.985  0.2943 -1.3788 -1.4479
 4767SOL     OW15199   4.936   6.382   0.480 -0.3654 -0.3563  0.4956
 4767SOL    HW115200   4.859   6.413   0.425 -1.4153  1.0998  2.6398
 4767SOL    HW215201   4.981   6.461   0.522 -0.0921 -1.3878  2.2736
 4768SOL     OW15202   6.961   1.365   4.071  0.4219  0.6493  0.2621
 4768SOL    HW115203   6.933   1.372   4.167  0.7608 -1.5191  0.5752
 4768SOL    HW215204   6.962   1.456   4.030 -2.9151  1.3590  1.3786
 4769SOL     OW15205   3.632   0.883   2.771 -0.3828  0.6542  0.4206
 4769SOL    HW115206   3.668   0.964   2.723 -0.2665  0.1304 -0.4019
 4769SOL    HW215207   3.533   0.891   2.780 -0.5506  0.2532 -0.9167
 4770SOL     OW15208   2.110   1.555   2.859 -0.9125  0.3442  0.0276
 4770SOL    HW115209   2.081   1.469   2.900 -1.8411  0.0177 -1.2701
 4770SOL    HW215210   2.054   1.575   2.779  0.8650  0.9337 -1.1323
 4771SOL     OW15211   4.253   0.432   5.224 -0.4210 -0.1589 -0.0346
 4771SOL    HW115212   4.155   0.434   5.204  0.1415  0.2560 -3.4635
 4771SOL    HW215213   4.293   0.350   5.182  0.7140 -0.3070  1.2939
 4772SOL     OW15214   3.931   4.250   6.979 -0.3521  0.0150 -0.3008
 4772SOL    HW115215   3.907   4.162   6.937 -1.0177 -0.1262  0.3532
 4772SOL    HW215216   3.868   4.268   7.055 -0.6151  1.3485 -0.8159
 4773SOL     OW15217   6.392   5.088   4.635  0.1073  0.5868  0.0486
 4773SOL    HW115218   6.409   5.017   4.566  1.8154 -0.3291  1.3391
 4773SOL    HW215219   6.299   5.077   4.671 -1.1472  1.6463 -2.6667
 4774SOL     OW15220   2.536   4.006   0.939 -0.0425  0.5108  0.8236
 4774SOL    HW115221   2.452   4.041   0.898 -0.2934  1.0323  1.7593
 4774SOL    HW215222   2.527   3.907   0.954  1.0824 -0.3458 -2.8615
 4775SOL     OW15223   1.468   4.931   1.267 -0.4143 -0.9458 -0.6954
 4775SOL    HW115224   1.409   4.852   1.254 -1.2863 -0.7614  1.6739
 4775SOL    HW215225   1.425   4.994   1.332  0.9819  0.7268 -1.3140
 4776SOL     OW15226   4.020   5.452   2.473 -0.0085  0.0618  0.1153
 4776SOL    HW115227   3.984   5.432   2.564  2.5187 -0.2546  1.1183
 4776SOL    HW215228   4.072   5.373   2.440  0.7116  0.8934 -0.7711
 4777SOL     OW15229   2.204   2.688   1.864  0.1040  0.2944  0.7984
 4777SOL    HW115230   2.179   2.639   1.947  0.6572  1.6876  1.8159
 4777SOL    HW215231   2.228   2.783   1.886 -0.0839  0.8045 -0.9927
 4778SOL     OW15232   5.318   2.570   2.526 -0.6255 -0.2058 -0.3727
 4778SOL    HW115233   5.302   2.518   2.610  0.7776  0.1790  0.1560
 4778SOL    HW215234   5.380   2.519   2.467  0.3421  0.6064 -0.0819
 4779SOL     OW15235   5.252   1.968   3.061 -0.0352 -0.0404  0.0009
 4779SOL    HW115236   5.184   1.977   3.134  2.1222 -1.0766  2.3240
 4779SOL    HW215237   5.214   1.914   2.986 -1.8600 -0.2808  1.0326
 4780SOL     OW15238   6.367   0.801   6.978 -0.0445 -0.5729 -0.2663
 4780SOL    HW115239   6.368   0.840   6.885  0.8586  0.1978  0.0463
 4780SOL    HW215240   6.433   0.726   6.982 -0.4175 -0.9087 -0.3641
 4781SOL     OW15241   2.794   0.941   3.303 -0.7804  0.6550 -0.2116
 4781SOL    HW115242   2.864   0.986   3.358  1.6731 -0.0638 -2.4836
 4781SOL    HW215243   2.816   0.952   3.206 -1.4693 -3.0767 -0.9609
 4782SOL     OW15244   6.603   6.408   6.739  0.2587 -0.7912  0.1102
 4782SOL    HW115245   6.592   6.311   6.717  1.1122 -0.5027 -1.7717
 4782SOL    HW215246   6.646   6.455   6.662  1.6219  0.7385  1.7122
 4783SOL     OW15247   6.016   5.454   3.663 -0.2635 -0.4418  0.1218
 4783SOL    HW115248   5.999   5.451   3.761 -2.3197  0.4799 -0.1587
 4783SOL    HW215249   6.111   5.482   3.646 -0.6214  2.1073  1.8517
 4784SOL     OW15250   5.578   3.607   4.344  0.4948  0.7188  0.3235
 4784SOL    HW115251   5.538   3.518   4.321 -1.4842  1.4275  0.8707
 4784SOL    HW215252   5.589   3.660   4.260 -0.3541  0.7748  0.2477
 4785SOL     OW15253   4.152   6.783   1.582  0.2149 -0.2890 -0.4042
 4785SOL    HW115254   4.071   6.826   1.543 -0.2454  1.4387  2.1778
 4785SOL    HW215255   4.230   6.846   1.575  0.3679 -0.3672  0.4489
 4786SOL     OW15256   2.358   6.231   3.563  0.2558 -0.3485  0.3606
 4786SOL    HW115257   2.258   6.219   3.566  0.1609  0.5597  1.0017
 4786SOL    HW215258   2.400   6.170   3.630  0.1047 -0.4419  0.3731
 4787SOL     OW15259   4.502   0.739   1.711  0.2949  0.8275  0.1046
 4787SOL    HW115260   4.411   0.740   1.669 -0.2837  1.9875  1.3033
 4787SOL    HW215261   4.557   0.812   1.671  0.0119  1.4116  0.7531
 4788SOL     OW15262   2.140   1.268   4.408  0.1595 -0.3102  0.2692
 4788SOL    HW115263   2.178   1.348   4.453  2.0223 -0.1010 -1.5428
 4788SOL    HW215264   2.175   1.185   4.451  0.6214 -0.1321  0.2354
 4789SOL     OW15265   3.788   5.549   1.004 -0.4930  0.0559 -0.4079
 4789SOL    HW115266   3.711   5.541   0.940 -0.6475  0.2404 -0.2475
 4789SOL    HW215267   3.848   5.470   0.994  0.5913  1.0625 -2.2126
 4790SOL     OW15268   4.649   6.939   6.152  0.2438 -0.2980 -0.1002
 4790SOL    HW115269   4.617   6.853   6.193  0.0098 -0.5048 -0.7132
 4790SOL    HW215270   4.623   6.942   6.056  1.6880 -0.2945 -0.5228
 4791SOL     OW15271   4.111   1.335   3.541 -0.5669 -0.6820 -0.0193
 4791SOL    HW115272   4.117   1.385   3.627 -0.3103 -2.1609  0.8551
 4791SOL    HW215273   4.203   1.318   3.506 -0.6264 -1.0976  0.0243
 4792SOL     OW15274   4.583   1.874   0.052  0.0188  0.1571 -0.7303
 4792SOL    HW115275   4.589   1.831  -0.038 -1.5511 -0.2067 -0.7024
 4792SOL    HW215276   4.573   1.803   0.122  0.8092  0.4542 -0.2999
 4793SOL     OW15277   1.224   1.225   0.997  0.0735  0.1084 -0.8644
 4793SOL    HW115278   1.134   1.267   0.983  0.0384  1.0099  1.5707
 4793SOL    HW215279   1.223   1.131   0.963 -2.1214 -0.2356 -0.0171
 4794SOL     OW15280   5.743   2.998   1.526  0.1485  0.2760  0.0991
 4794SOL    HW115281   5.703   3.005   1.617 -1.9683 -0.8077 -0.6618
 4794SOL    HW215282   5.832   3.043   1.524  0.6742 -0.4938  2.9208
 4795SOL     OW15283   6.680   2.925   4.749  0.2305 -0.2021  0.3756
 4795SOL    HW115284   6.694   2.864   4.671  1.4199 -0.0775  0.4761
 4795SOL    HW215285   6.686   2.873   4.834 -0.8135 -0.2910  0.4165
 4796SOL     OW15286   5.211   4.383   6.874  0.4136 -0.1812  0.0198
 4796SOL    HW115287   5.276   4.318   6.834  0.2760 -0.0002 -0.5188
 4796SOL    HW215288   5.154   4.336   6.941  0.2658 -0.6375 -0.4208
 4797SOL     OW15289   0.913   4.317   4.500  0.0560 -0.0955  0.1330
 4797SOL    HW115290   0.948   4.236   4.548 -1.6053 -0.9653 -0.0294
 4797SOL    HW215291   0.815   4.304   4.482 -0.0365  1.5865 -0.6946
 4798SOL     OW15292   6.131   4.542   5.448 -0.1629 -0.3277 -0.1792
 4798SOL    HW115293   6.084   4.455   5.439 -0.2339 -0.3742  0.5656
 4798SOL    HW215294   6.229   4.530   5.429 -0.4098 -0.2447 -1.6512
 4799SOL     OW15295   6.147   3.449   5.708 -0.1723 -0.0393  0.5731
 4799SOL    HW115296   6.231   3.454   5.653 -0.0128  1.0341  0.8915
 4799SOL    HW215297   6.165   3.486   5.799 -1.2922  1.3137  0.2699
 4800SOL     OW15298   1.532   3.545   3.616  0.4399  0.5403 -0.6346
 4800SOL    HW115299   1.540   3.624   3.554 -2.4375  0.6375 -0.9958
 4800SOL    HW215300   1.502   3.465   3.564  2.2761 -0.5849 -0.0716
 4801SOL     OW15301   1.140   1.624   0.625  0.3140 -0.1433  0.0579
 4801SOL    HW115302   1.056   1.642   0.574  0.6441  0.2304 -0.3549
 4801SOL    HW215303   1.123   1.551   0.692 -0.1692 -0.5170 -0.4625
 4802SOL     OW15304   1.301   0.296   1.728 -0.0130  0.3280  0.7457
 4802SOL    HW115305   1.249   0.247   1.659 -1.1473  1.8695  0.4414
 4802SOL    HW215306   1.323   0.234   1.804 -1.3444 -0.6484  0.3731
 4803SOL     OW15307   0.846   6.521   0.958  0.0974 -0.2651  0.1696
 4803SOL    HW115308   0.882   6.468   0.881  0.1998 -0.1792  0.1572
 4803SOL    HW215309   0.856   6.619   0.938 -0.6872 -0.2313 -0.0882
 4804SOL     OW15310   4.174   5.814   4.724  0.5099 -0.7291  0.1644
 4804SOL    HW115311   4.220   5.725   4.732  0.4154 -0.9285 -1.3266
 4804SOL    HW215312   4.188   5.866   4.809  0.7478 -2.0697  0.9720
 4805SOL     OW15313   1.104   6.742   6.823 -0.2473 -0.0569 -0.0179
 4805SOL    HW115314   1.132   6.656   6.779  0.5849 -0.6560  1.5898
 4805SOL    HW215315   1.016   6.729   6.867 -0.4856  0.1670 -0.4178
 4806SOL     OW15316   2.852   1.114   5.393 -0.2587 -0.0263 -0.1381
 4806SOL    HW115317   2.936   1.142   5.440  0.1294  0.3025 -1.0129
 4806SOL    HW215318   2.820   1.028   5.432 -0.5336  0.7579  1.4332
 4807SOL     OW15319   6.995   6.396   3.866  0.4134 -0.0776 -0.2270
 4807SOL    HW115320   7.085   6.424   3.899 -0.7076 -0.3358  3.5427
 4807SOL    HW215321   6.990   6.296   3.864 -0.8062 -0.2511  3.4988
 4808SOL     OW15322   6.219   0.121   2.531  0.2935  0.2382  0.1245
 4808SOL    HW115323   6.260   0.209   2.506 -0.0767  0.5911  0.7353
 4808SOL    HW215324   6.129   0.113   2.488  1.3535 -0.9683 -2.0456
 4809SOL     OW15325   5.743   5.209   2.471 -0.2687  0.5058  0.2935
 4809SOL    HW115326   5.699   5.176   2.388 -0.2107 -1.0631  0.8492
 4809SOL    HW215327   5.787   5.132   2.519  1.9761  1.7867  0.4349
 4810SOL     OW15328   1.292   2.716   6.118  0.3947  0.0185 -0.0939
 4810SOL    HW115329   1.257   2.647   6.182 -1.4996  1.3701  0.4094
 4810SOL    HW215330   1.392   2.705   6.109  0.5315 -1.0619  2.0325
 4811SOL     OW15331   4.895   3.693   3.884 -0.1910 -0.0064  0.0392
 4811SOL    HW115332   4.941   3.621   3.831  1.3418  1.1902 -0.3424
 4811SOL    HW215333   4.903   3.780   3.836 -0.6946  0.7060  1.2031
 4812SOL     OW15334   6.101   0.049   2.146 -0.0722  0.4022 -0.0661
 4812SOL    HW115335   6.078   0.143   2.120  1.5192  1.0987  0.9190
 4812SOL    HW215336   6.193   0.026   2.114 -0.1099 -0.5240  0.4418
 4813SOL     OW15337   0.210   1.617   1.953  0.1951  0.6030 -0.3975
 4813SOL    HW115338   0.185   1.624   2.050 -0.9961 -0.0906 -0.6386
 4813SOL    HW215339   0.263   1.534   1.939  1.4576  1.3241 -0.1541
 4814SOL     OW15340   0.939   3.135   1.572  0.3379  0.2630  0.2372
 4814SOL    HW115341   0.853   3.131   1.624 -0.8728 -1.1055 -1.7100
 4814SOL    HW215342   0.988   3.048   1.581  1.1144  0.7442  0.6864
 4815SOL     OW15343   6.409   6.492   2.184 -0.3821  0.6344  0.5639
 4815SOL    HW115344   6.501   6.456   2.197 -0.3705  0.0658 -0.9394
 4815SOL    HW215345   6.357   6.431   2.123 -1.4667  1.4147  0.6739
 4816SOL     OW15346   4.847   3.818   4.576 -0.0411  0.0656 -0.0896
 4816SOL    HW115347   4.910   3.743   4.596  0.7279  0.5601 -0.5756
 4816SOL    HW215348   4.762   3.806   4.628  1.4063  0.7315  2.6035
 4817SOL     OW15349   6.285   1.137   0.000 -0.1548 -0.3972  0.0607
 4817SOL    HW115350   6.268   1.106  -0.093  0.1686  0.3038 -0.2395
 4817SOL    HW215351   6.248   1.070   0.065  0.3732 -1.3264 -0.5586
 4818SOL     OW15352   0.465   6.749   1.712 -0.4605  0.0958  0.0103
 4818SOL    HW115353   0.482   6.675   1.776 -1.4220  1.9930  2.6288
 4818SOL    HW215354   0.513   6.731   1.626  1.4394 -2.2503  1.4521
 4819SOL     OW15355   0.832   3.311   5.395  0.1927  0.1902 -0.0029
 4819SOL    HW115356   0.743   3.325   5.437  0.3778  1.2850  0.0538
 4819SOL    HW215357   0.866   3.220   5.417 -0.7896 -0.1301  0.1978
 4820SOL     OW15358   0.348   1.014   2.540  0.0233 -0.2609  0.2050
 4820SOL    HW115359   0.264   1.048   2.582 -0.1319  0.0314 -0.3239
 4820SOL    HW215360   0.397   0.956   2.604  0.6870  1.5729  1.4483
 4821SOL     OW15361   6.696   6.743   2.607 -0.2718  1.0560  0.8665
 4821SOL    HW115362   6.682   6.766   2.510  1.1819  1.6375  0.7591
 4821SOL    HW215363   6.608   6.737   2.653 -1.0242  0.1509 -0.6245
 4822SOL     OW15364   4.170   5.441   4.427 -0.0464 -0.0253 -0.0115
 4822SOL    HW115365   4.222   5.434   4.342 -1.2737 -1.3478 -0.6902
 4822SOL    HW215366   4.105   5.517   4.420  0.7829  0.7398  0.3061
 4823SOL     OW15367   2.524   2.574   6.709 -0.1468  0.7253  0.8549
 4823SOL    HW115368   2.434   2.566   6.667 -0.4728  1.4850  1.3671
 4823SOL    HW215369   2.595   2.551   6.643 -0.7341 -0.3387  0.5840
 4824SOL     OW15370   6.512   3.494   0.904  0.1539  0.2114 -0.4225
 4824SOL    HW115371   6.495   3.461   0.997  0.9029 -1.8277 -0.9429
 4824SOL    HW215372   6.431   3.542   0.870 -2.2800 -3.5574 -0.5363
 4825SOL     OW15373   0.072   0.131   4.141 -0.0424  0.0165 -0.4937
 4825SOL    HW115374   0.101   0.142   4.236 -0.9456  0.6888 -0.2852
 4825SOL    HW215375   0.027   0.043   4.131  0.7365 -0.3954 -0.4872
 4826SOL     OW15376   6.284   5.708   6.626 -0.2373 -0.2802  0.5667
 4826SOL    HW115377   6.358   5.756   6.579  1.7309 -2.6913  0.9505
 4826SOL    HW215378   6.273   5.746   6.718  0.0357  0.5687  0.2562
 4827SOL     OW15379   3.010   0.081   2.162  0.4603  0.2056  0.2439
 4827SOL    HW115380   2.986  -0.014   2.178 -2.8928  0.1391 -3.6947
 4827SOL    HW215381   3.094   0.085   2.107  0.4889 -0.5303  0.2247
 4828SOL     OW15382   5.571   3.080   0.528  0.1136 -0.1855  0.3025
 4828SOL    HW115383   5.593   2.992   0.570 -0.1995  0.5104  2.0417
 4828SOL    HW215384   5.651   3.140   0.534 -1.1459  1.4939  4.3492
 4829SOL     OW15385   5.098   6.709   5.216  0.2146 -0.0839 -0.1401
 4829SOL    HW115386   5.166   6.764   5.168  1.0485 -0.3740  0.6719
 4829SOL    HW215387   5.038   6.769   5.269  0.1511  0.1341 -0.4517
 4830SOL     OW15388   1.043   6.783   2.182  0.1552  0.4230  0.1211
 4830SOL    HW115389   1.090   6.784   2.270 -0.1411  0.0114  0.2823
 4830SOL    HW215390   0.970   6.852   2.182 -0.0217  0.2343  0.2918
 4831SOL     OW15391   2.475   5.603   5.654  0.2295 -0.0194  0.0155
 4831SOL    HW115392   2.447   5.685   5.604  0.5210 -0.7579 -1.4127
 4831SOL    HW215393   2.399   5.569   5.709 -0.4645  0.2063 -0.7822
 4832SOL     OW15394   3.011   3.618   3.507 -0.2398 -0.2442 -0.4611
 4832SOL    HW115395   3.002   3.632   3.409 -1.1439  0.5405 -0.2823
 4832SOL    HW215396   3.106   3.600   3.530 -0.2009 -1.7874 -1.6376
 4833SOL     OW15397   5.064   2.747   5.861  1.0394  0.5468 -0.4823
 4833SOL    HW115398   4.997   2.742   5.787 -1.0515  1.2086  1.2323
 4833SOL    HW215399   5.079   2.656   5.899 -1.1170  0.6726  0.8750
 4834SOL     OW15400   0.436   3.665   1.694  1.0373 -0.0921 -0.3704
 4834SOL    HW115401   0.399   3.730   1.760 -0.0134  0.0541 -1.0953
 4834SOL    HW215402   0.480   3.589   1.743 -1.8306 -1.2497  0.6136
 4835SOL     OW15403   0.793   4.735   6.370  0.2777 -0.2214 -0.2337
 4835SOL    HW115404   0.834   4.820   6.403 -0.5677  0.9361 -2.0235
 4835SOL    HW215405   0.863   4.680   6.323  0.4637  0.2505 -0.5061
 4836SOL     OW15406   5.504   6.251   5.200 -0.1205  0.3394 -0.0906
 4836SOL    HW115407   5.416   6.298   5.210  0.1245  0.8611 -0.3651
 4836SOL    HW215408   5.545   6.237   5.290 -0.7846 -0.4996  0.1000
 4837SOL     OW15409   0.035   3.500   4.661 -0.5446 -0.1726 -0.2009
 4837SOL    HW115410   0.130   3.469   4.657 -0.7796 -0.8243 -1.9371
 4837SOL    HW215411   0.004   3.505   4.756  1.7502  1.7912  0.5331
 4838SOL     OW15412   0.627   4.428   0.086 -0.3999 -0.3307 -0.3928
 4838SOL    HW115413   0.663   4.464   0.172 -2.0741 -3.0789  1.6476
 4838SOL    HW215414   0.703   4.398   0.028  0.7650 -1.3715  1.5773
 4839SOL     OW15415   3.349   0.347   2.733 -0.1041  0.0158  0.8789
 4839SOL    HW115416   3.307   0.384   2.816 -1.0127 -0.3259  0.5749
 4839SOL    HW215417   3.278   0.318   2.669  0.5271  1.6605 -0.6641
 4840SOL     OW15418   4.626   2.403   3.136  0.6554 -0.6248  0.2855
 4840SOL    HW115419   4.692   2.346   3.185  0.2645 -1.9827 -0.7288
 4840SOL    HW215420   4.537   2.358   3.134  1.0703 -1.5691 -3.2241
 4841SOL     OW15421   3.964   5.972   5.000 -0.1877  0.0753  0.5845
 4841SOL    HW115422   3.916   5.994   4.916 -0.7814 -0.8885  0.6675
 4841SOL    HW215423   4.002   6.056   5.039  0.1765  0.5131 -0.6805
 4842SOL     OW15424   4.527   5.300   2.385  0.1580  0.2288  0.1136
 4842SOL    HW115425   4.562   5.210   2.359 -1.1143 -0.0678 -0.6912
 4842SOL    HW215426   4.583   5.338   2.458  1.4021 -0.7143 -0.3092
 4843SOL     OW15427   0.047   3.922   0.136 -0.1247  0.3834  0.6188
 4843SOL    HW115428   0.098   4.007   0.130 -1.1395  0.9580 -0.0548
 4843SOL    HW215429  -0.020   3.918   0.063 -0.2612 -0.8876  0.7933
 4844SOL     OW15430   0.247   4.933   5.640 -0.0072  0.9391 -0.4168
 4844SOL    HW115431   0.161   4.884   5.635  0.2439  0.4446  0.1457
 4844SOL    HW215432   0.323   4.871   5.619  0.2171  1.3722 -0.9247
 4845SOL     OW15433   6.164   5.945   6.878  0.0389  0.1783  0.0129
 4845SOL    HW115434   6.140   5.995   6.795  1.7480  0.6979 -0.2142
 4845SOL    HW215435   6.263   5.939   6.886 -0.0713 -2.9778  0.1927
 4846SOL     OW15436   0.250   2.975   4.676  0.0919 -0.2386  0.3366
 4846SOL    HW115437   0.214   3.034   4.748  0.3424 -0.5222  0.6991
 4846SOL    HW215438   0.208   2.999   4.589 -1.9770 -1.4167  0.9511
 4847SOL     OW15439   0.048   6.019   6.090 -0.4795 -0.6781  0.0117
 4847SOL    HW115440   0.108   5.946   6.122  1.1785  0.3631 -0.5740
 4847SOL    HW215441  -0.001   5.988   6.008 -0.6550 -1.4849  0.4071
 4848SOL     OW15442   3.744   0.064   3.716 -0.1870 -0.1495 -0.2978
 4848SOL    HW115443   3.805   0.001   3.667 -1.7928 -0.0856 -2.5384
 4848SOL    HW215444   3.769   0.066   3.813  0.3432 -3.7085 -0.2300
 4849SOL     OW15445   0.357   4.385   2.807 -0.2541 -0.1733 -0.2800
 4849SOL    HW115446   0.391   4.294   2.783  2.7998  0.7279  0.2467
 4849SOL    HW215447   0.433   4.450   2.808 -2.0605  2.0742  1.0267
 4850SOL     OW15448   4.195   5.714   1.556 -0.0390  0.5971 -0.0708
 4850SOL    HW115449   4.139   5.791   1.587 -0.8947  0.0705 -0.2688
 4850SOL    HW215450   4.197   5.711   1.456 -0.6109 -0.0471 -0.0727
 4851SOL     OW15451   4.998   3.561   5.615 -0.0743  0.0153  0.2534
 4851SOL    HW115452   4.948   3.640   5.582  0.1530 -0.1974 -0.6288
 4851SOL    HW215453   5.002   3.491   5.543  0.1504 -0.5958  0.8441
 4852SOL     OW15454   4.742   4.401   4.643  0.7112 -0.2910 -0.0581
 4852SOL    HW115455   4.681   4.471   4.680 -1.5202 -0.5899 -2.8078
 4852SOL    HW215456   4.735   4.318   4.698  0.0233  0.2935  0.7547
 4853SOL     OW15457   3.013   5.139   1.851 -0.1788  0.0883  0.7182
 4853SOL    HW115458   2.958   5.198   1.910 -0.1772 -0.5187  1.3391
 4853SOL    HW215459   3.070   5.079   1.907  0.8339  0.4412  0.0753
 4854SOL     OW15460   3.974   0.556   1.119 -0.2687 -0.1216  0.9934
 4854SOL    HW115461   3.971   0.595   1.211  0.2416 -1.2192  1.4948
 4854SOL    HW215462   3.896   0.590   1.066 -0.2500  0.9668  1.6402
 4855SOL     OW15463   3.111   6.055   4.107 -0.3018 -0.4215 -0.1989
 4855SOL    HW115464   3.120   6.045   4.008  0.3253 -1.5262 -0.0441
 4855SOL    HW215465   3.054   5.981   4.143  0.8630 -1.0378  0.4563
 4856SOL     OW15466   1.376   3.187   4.315 -0.4063 -0.0949 -0.0430
 4856SOL    HW115467   1.394   3.241   4.233  1.2187 -0.3038  0.1524
 4856SOL    HW215468   1.365   3.090   4.289  0.0204 -0.1486 -0.0202
 4857SOL     OW15469   3.759   6.109   1.613  0.2673  0.2528 -0.2779
 4857SOL    HW115470   3.800   6.177   1.674 -0.0125  1.1567 -1.0815
 4857SOL    HW215471   3.767   6.139   1.518 -0.9150 -0.2612 -0.5608
 4858SOL     OW15472   1.431   6.062   4.765  0.3397 -0.0137 -0.3546
 4858SOL    HW115473   1.518   6.107   4.742  1.4530 -1.7507  0.2773
 4858SOL    HW215474   1.399   6.095   4.853  0.1565  0.8816 -0.7403
 4859SOL     OW15475   0.842   5.458   2.221  0.1582 -0.2764 -0.1871
 4859SOL    HW115476   0.754   5.454   2.174  0.6485 -1.1208 -1.0666
 4859SOL    HW215477   0.910   5.405   2.170  0.9523 -0.4150  0.9724
 4860SOL     OW15478   2.429   0.163   0.589 -0.1904  0.2382 -0.6875
 4860SOL    HW115479   2.390   0.071   0.596 -2.7420  1.2408 -0.3864
 4860SOL    HW215480   2.376   0.216   0.522 -0.4968  2.2376  1.0408
 4861SOL     OW15481   4.386   4.605   4.209 -0.0888 -0.3764  0.5309
 4861SOL    HW115482   4.446   4.600   4.130 -0.7240 -0.6091  0.0578
 4861SOL    HW215483   4.422   4.548   4.283 -0.1446 -1.1514 -0.0338
 4862SOL     OW15484   0.585   6.748   1.428 -0.4182  0.1421 -0.1282
 4862SOL    HW115485   0.514   6.813   1.404  0.7862  1.5562 -0.0023
 4862SOL    HW215486   0.674   6.782   1.396  0.4867 -0.5536  1.5276
 4863SOL     OW15487   5.750   2.027   1.972 -0.1932  0.7667  0.0760
 4863SOL    HW115488   5.718   2.105   2.025 -1.4377 -0.9112  1.9238
 4863SOL    HW215489   5.725   2.040   1.876 -1.2722  2.1807  0.5118
 4864SOL     OW15490   3.411   2.891   3.041  0.2487 -0.7716  0.6054
 4864SOL    HW115491   3.360   2.831   2.979 -0.3107 -0.1146  0.4296
 4864SOL    HW215492   3.504   2.904   3.005 -0.0660 -0.4080 -0.0907
 4865SOL     OW15493   3.614   5.895   4.431 -0.1093 -0.3252  1.4076
 4865SOL    HW115494   3.615   5.894   4.331  3.7039 -1.6722  1.3191
 4865SOL    HW215495   3.639   5.986   4.464  0.9945 -0.4848  1.0436
 4866SOL     OW15496   1.220   5.455   0.345 -0.1746 -0.1989  0.3590
 4866SOL    HW115497   1.246   5.359   0.342  0.3790 -0.0324 -1.3181
 4866SOL    HW215498   1.298   5.510   0.376 -0.5120 -0.2847  1.3833
 4867SOL     OW15499   6.520   4.450   5.954 -0.1274  0.4149  0.1913
 4867SOL    HW115500   6.492   4.510   6.029  0.1897  1.1883 -0.2892
 4867SOL    HW215501   6.582   4.500   5.894  1.7906 -1.0079  0.8749
 4868SOL     OW15502   1.262   5.523   1.639  0.4855  0.6716  0.1725
 4868SOL    HW115503   1.288   5.429   1.616  0.2036  0.5045  0.5395
 4868SOL    HW215504   1.266   5.536   1.738 -0.4343  0.7647  0.2032
 4869SOL     OW15505   1.152   1.757   1.178  0.4565 -0.1176 -0.2938
 4869SOL    HW115506   1.131   1.854   1.190 -0.8655 -0.4309  0.0599
 4869SOL    HW215507   1.246   1.740   1.207  0.6553  1.0273 -0.2179
 4870SOL     OW15508   5.461   2.241   2.636 -0.5335 -0.2651 -0.3493
 4870SOL    HW115509   5.490   2.308   2.705 -0.5192 -1.3068  0.6811
 4870SOL    HW215510   5.541   2.192   2.601 -0.6199 -0.2575 -0.5572
 4871SOL     OW15511   0.762   0.932   5.075  0.5192 -0.1106  0.5370
 4871SOL    HW115512   0.671   0.941   5.114 -0.0867 -1.2906 -0.5441
 4871SOL    HW215513   0.830   0.972   5.137 -0.6040 -0.2114  1.8495
 4872SOL     OW15514   2.099   3.987   2.301  0.2969  0.3423  0.0678
 4872SOL    HW115515   2.027   3.923   2.330 -0.7104  0.5280 -1.8691
 4872SOL    HW215516   2.159   3.941   2.236  1.0307  0.6576  0.5153
 4873SOL     OW15517   0.593   6.726   6.054  0.4426 -0.0049  0.0659
 4873SOL    HW115518   0.610   6.824   6.064  1.9762 -0.1407 -0.9171
 4873SOL    HW215519   0.528   6.712   5.980  1.2818  0.2269 -0.7355
 4874SOL     OW15520   5.969   0.554   4.643  0.1030 -0.2468 -0.0584
 4874SOL    HW115521   5.906   0.549   4.565 -1.2395  0.3059  0.9532
 4874SOL    HW215522   5.997   0.649   4.657 -0.0050 -0.2823  0.3933
 4875SOL     OW15523   5.544   4.193   1.122  0.0149 -0.5873 -0.0228
 4875SOL    HW115524   5.600   4.159   1.047  0.8642 -0.4813  0.5542
 4875SOL    HW215525   5.578   4.283   1.151 -1.2097  0.0414 -0.4684
 4876SOL     OW15526   0.022   0.625   0.830  0.2369  0.2716 -0.1788
 4876SOL    HW115527  -0.015   0.716   0.849  1.0163  0.1461  2.3669
 4876SOL    HW215528  -0.050   0.566   0.793 -2.1578  0.2066  3.9503
 4877SOL     OW15529   3.472   2.023   2.078 -0.2532 -0.4037  0.2323
 4877SOL    HW115530   3.415   2.105   2.086 -0.9983 -0.7809 -0.9179
 4877SOL    HW215531   3.566   2.050   2.058 -0.3238  0.1920  0.6741
 4878SOL     OW15532   2.103   4.671   1.913  0.3080 -0.4188  0.5758
 4878SOL    HW115533   2.198   4.639   1.911  0.3882 -0.1574  0.2358
 4878SOL    HW215534   2.100   4.767   1.940  0.2824  0.1060 -1.2081
 4879SOL     OW15535   4.019   5.939   3.841 -0.2512 -0.7246  0.4366
 4879SOL    HW115536   4.038   5.872   3.769 -0.3414 -0.3186  0.0243
 4879SOL    HW215537   4.081   6.017   3.830 -0.9139 -0.2182  0.2008
 4880SOL     OW15538   1.103   4.621   1.146 -0.0536  0.3206  0.2390
 4880SOL    HW115539   1.088   4.648   1.051  0.3291  0.1652  0.1304
 4880SOL    HW215540   1.159   4.690   1.192 -1.5887  1.2209  0.8224
 4881SOL     OW15541   4.799   6.354   5.662 -0.4937 -0.1970  0.7341
 4881SOL    HW115542   4.884   6.354   5.716 -0.7057  2.5402  1.2022
 4881SOL    HW215543   4.744   6.274   5.687  2.1924 -2.5317 -0.1393
 4882SOL     OW15544   5.603   6.810   6.156 -0.5081 -0.4536 -0.2757
 4882SOL    HW115545   5.696   6.774   6.145  0.2113  1.0691  0.5964
 4882SOL    HW215546   5.605   6.891   6.214 -2.3700 -0.2652 -0.4217
 4883SOL     OW15547   5.157   4.644   0.216 -0.1072 -0.5254 -0.8767
 4883SOL    HW115548   5.230   4.598   0.166  0.2364  0.6394 -1.4652
 4883SOL    HW215549   5.154   4.610   0.310  0.6334 -1.1811 -1.0823
 4884SOL     OW15550   5.334   5.559   2.073  0.1212 -0.4608 -0.0344
 4884SOL    HW115551   5.274   5.480   2.059  0.0810 -0.5104  0.3959
 4884SOL    HW215552   5.322   5.593   2.166  1.0694 -0.7300  0.1970
 4885SOL     OW15553   0.624   1.251   1.802  0.1541 -0.1117  0.0648
 4885SOL    HW115554   0.703   1.286   1.853  0.6277 -0.4828 -0.3975
 4885SOL    HW215555   0.579   1.180   1.855  1.7365 -1.8141 -0.7423
 4886SOL     OW15556   6.825   2.596   0.069 -0.1753  0.0118  0.3089
 4886SOL    HW115557   6.766   2.585  -0.011 -1.9542 -1.3841  1.7122
 4886SOL    HW215558   6.788   2.669   0.127  0.0944 -0.1465  0.6827
 4887SOL     OW15559   0.720   2.651   0.269 -0.4880 -0.6795 -0.3729
 4887SOL    HW115560   0.759   2.622   0.356  0.5665 -0.9549 -0.9202
 4887SOL    HW215561   0.712   2.571   0.208 -0.5571 -0.3665 -0.7809
 4888SOL     OW15562   4.975   5.521   1.207  0.8028  0.4957  0.2515
 4888SOL    HW115563   4.922   5.455   1.154 -2.7147  2.0228  1.6191
 4888SOL    HW215564   4.989   5.604   1.153  0.7002  0.5683  0.3370
 4889SOL     OW15565   1.907   4.262   5.764  0.0222  0.3290  0.1914
 4889SOL    HW115566   1.961   4.204   5.703  1.1864 -0.7802  2.1789
 4889SOL    HW215567   1.959   4.345   5.786 -0.4571  0.7973 -0.4017
 4890SOL     OW15568   6.703   0.167   3.852  0.1083 -0.5179  0.2476
 4890SOL    HW115569   6.784   0.175   3.794 -0.6902  0.4159 -0.7969
 4890SOL    HW215570   6.727   0.190   3.946  1.0764 -0.3758 -0.0173
 4891SOL     OW15571   5.710   5.237   0.945  0.3929 -1.0928 -0.1454
 4891SOL    HW115572   5.627   5.190   0.974  0.0053  0.1216  0.8148
 4891SOL    HW215573   5.748   5.288   1.022  0.3702  0.7801 -1.3013
 4892SOL     OW15574   6.949   4.306   1.482 -0.3607  0.5126 -0.1186
 4892SOL    HW115575   6.876   4.243   1.510  0.2401  0.8722  2.4416
 4892SOL    HW215576   7.009   4.260   1.416 -0.1500 -1.5046  1.3953
 4893SOL     OW15577   6.066   5.157   0.331 -0.3335 -0.2278 -0.4515
 4893SOL    HW115578   5.977   5.197   0.355 -0.4268 -0.2447 -0.7761
 4893SOL    HW215579   6.056   5.097   0.252  0.2995  1.2734 -1.7255
 4894SOL     OW15580   6.876   0.260   4.049 -0.0186 -0.1600  0.3134
 4894SOL    HW115581   6.875   0.298   3.957  1.3700  2.2292  1.1962
 4894SOL    HW215582   6.961   0.210   4.064 -0.3522 -0.7612  0.2475
 4895SOL     OW15583   5.863   3.965   6.445 -0.0564  0.0053  0.0539
 4895SOL    HW115584   5.831   3.991   6.537 -1.7938 -0.1245 -0.4793
 4895SOL    HW215585   5.815   4.021   6.377 -0.7539 -1.7070 -0.9039
 4896SOL     OW15586   6.731   2.221   4.740  1.0070 -0.1348  0.4599
 4896SOL    HW115587   6.687   2.245   4.654 -0.4730 -0.5464  1.0628
 4896SOL    HW215588   6.804   2.155   4.723  1.3073  0.4460 -0.5665
 4897SOL     OW15589   1.401   6.592   5.902  0.1196 -0.0037  0.3779
 4897SOL    HW115590   1.499   6.575   5.913  0.1887  0.2964  0.2320
 4897SOL    HW215591   1.372   6.662   5.968 -0.5345 -1.9395  2.2666
 4898SOL     OW15592   5.152   3.851   3.114 -0.2399 -0.2694 -0.0289
 4898SOL    HW115593   5.086   3.924   3.133  1.5319  1.3490  0.2850
 4898SOL    HW215594   5.166   3.845   3.015 -0.9122 -0.6916 -0.1047
 4899SOL     OW15595   6.840   3.928   5.138 -0.1367 -0.0939 -0.2885
 4899SOL    HW115596   6.938   3.913   5.155 -0.0052 -0.7749 -1.5196
 4899SOL    HW215597   6.789   3.845   5.164 -0.2034 -0.2825 -1.0033
 4900SOL     OW15598   5.173   5.622   6.395 -0.6478 -0.2672 -0.5387
 4900SOL    HW115599   5.118   5.575   6.464 -0.1066 -0.6027 -0.3267
 4900SOL    HW215600   5.247   5.561   6.365  1.4087  1.1355  1.3030
 4901SOL     OW15601   6.008   0.839   3.285 -0.2239 -1.1483 -0.5377
 4901SOL    HW115602   5.984   0.834   3.188  0.3471 -0.5322 -0.7133
 4901SOL    HW215603   6.071   0.915   3.300 -2.0090  0.1604  0.6761
 4902SOL     OW15604   3.812   6.070   4.806  0.6007 -0.1450 -0.0258
 4902SOL    HW115605   3.812   6.145   4.740 -2.2566 -0.0419 -0.0152
 4902SOL    HW215606   3.788   5.984   4.760  0.5558 -0.4466  0.5473
 4903SOL     OW15607   0.203   4.018   6.089 -0.1129 -0.0643  0.1950
 4903SOL    HW115608   0.223   4.116   6.077  0.2960 -0.2330 -0.5727
 4903SOL    HW215609   0.124   3.993   6.035 -0.1492 -0.1838  0.3037
 4904SOL     OW15610   1.820   1.995   3.997  0.1069 -0.4445 -0.1754
 4904SOL    HW115611   1.883   1.919   3.982  1.6175 -0.0389  3.2050
 4904SOL    HW215612   1.733   1.959   4.033  0.2493 -0.6703 -0.0574
 4905SOL     OW15613   6.463   3.763   2.042  0.1771  0.0803 -0.1801
 4905SOL    HW115614   6.525   3.838   2.021  0.5158  0.1810  1.0723
 4905SOL    HW215615   6.508   3.699   2.105 -1.1288  0.4353  1.1840
 4906SOL     OW15616   3.572   6.374   1.453 -0.2462 -0.3802  0.2137
 4906SOL    HW115617   3.474   6.385   1.467 -0.5474 -0.1538 -1.7731
 4906SOL    HW215618   3.592   6.372   1.355  1.7388 -0.4426  0.5687
 4907SOL     OW15619   1.987   1.182   0.348 -0.4187 -0.3746  0.2333
 4907SOL    HW115620   1.986   1.083   0.360  1.4983 -0.2093  2.4724
 4907SOL    HW215621   2.014   1.226   0.434 -1.6254  2.1500 -0.5536
 4908SOL     OW15622   4.619   4.711   6.876 -0.1794  0.4131  0.3737
 4908SOL    HW115623   4.558   4.790   6.867  0.0123  0.6050  0.7283
 4908SOL    HW215624   4.707   4.741   6.912  0.1431  0.1440 -0.1791
 4909SOL     OW15625   5.163   0.485   3.966  0.1566  0.1944 -0.8825
 4909SOL    HW115626   5.115   0.559   4.012 -1.0357 -0.7243 -0.6009
 4909SOL    HW215627   5.190   0.515   3.875 -1.7799  0.4657 -1.4151
 4910SOL     OW15628   5.958   1.698   6.118  0.5802  0.7810 -0.2278
 4910SOL    HW115629   5.913   1.708   6.029 -0.1085  0.1866  0.0452
 4910SOL    HW215630   5.897   1.652   6.181  0.9421  1.5119  0.6692
 4911SOL     OW15631   6.408   2.802   6.994 -0.1956  0.5344  0.3345
 4911SOL    HW115632   6.464   2.748   6.933  0.3416  2.3657 -0.8834
 4911SOL    HW215633   6.448   2.803   7.086 -0.6024 -1.6153  0.5869
 4912SOL     OW15634   2.148   2.214   2.478  0.6112 -0.1463  0.1019
 4912SOL    HW115635   2.082   2.282   2.511  1.2990  0.9300 -0.6515
 4912SOL    HW215636   2.233   2.222   2.532  1.1001  0.3939 -0.7262
 4913SOL     OW15637   3.880   2.968   0.968 -0.1330  0.3392  0.2612
 4913SOL    HW115638   3.854   2.937   0.876 -0.4695  1.5198 -0.0498
 4913SOL    HW215639   3.826   3.047   0.993  1.2872  1.2040  0.7001
 4914SOL     OW15640   1.967   0.537   1.987  0.3569 -0.2178  0.5999
 4914SOL    HW115641   2.043   0.530   1.923 -0.1570  1.2395 -0.2193
 4914SOL    HW215642   1.958   0.632   2.018 -1.4338 -0.2538  0.2759
 4915SOL     OW15643   5.231   0.857   2.897 -0.7208 -0.4204 -0.2284
 4915SOL    HW115644   5.315   0.869   2.844 -0.4325 -0.6735  0.1614
 4915SOL    HW215645   5.249   0.879   2.993 -1.2467  0.0719 -0.2351
 4916SOL     OW15646   1.578   6.984   3.629 -0.1429 -0.4204 -0.4715
 4916SOL    HW115647   1.638   7.029   3.563 -1.0986  1.0229 -0.4078
 4916SOL    HW215648   1.485   7.019   3.618 -0.2462  0.2701  1.9481
 4917SOL     OW15649   0.013   4.384   0.341 -0.1607  0.4337  0.6023
 4917SOL    HW115650   0.078   4.369   0.416 -1.1248  0.9594  1.5723
 4917SOL    HW215651   0.062   4.383   0.254  1.1495  0.8370  1.3050
 4918SOL     OW15652   2.049   6.725   1.982  0.2686  0.1819  0.2288
 4918SOL    HW115653   1.979   6.717   2.053  1.4648 -2.3666  1.2789
 4918SOL    HW215654   2.006   6.729   1.892 -1.2317 -0.6163  0.8780
 4919SOL     OW15655   3.990   2.886   1.804  0.4202  0.3495 -0.4831
 4919SOL    HW115656   3.904   2.906   1.756 -0.1950 -0.8396  0.0678
 4919SOL    HW215657   3.970   2.863   1.899  1.1834 -1.2843 -0.6803
 4920SOL     OW15658   4.152   0.364   1.469  0.2664  0.2647  0.3259
 4920SOL    HW115659   4.079   0.311   1.513 -1.1294  0.3612 -1.6991
 4920SOL    HW215660   4.237   0.352   1.519 -0.2071 -3.1217  0.5410
 4921SOL     OW15661   0.063   4.164   1.141  0.3207  0.6112 -0.2533
 4921SOL    HW115662   0.140   4.186   1.200  0.8095 -0.6290 -0.4080
 4921SOL    HW215663   0.070   4.069   1.111 -0.8790  0.6995 -0.8598
 4922SOL     OW15664   1.483   3.235   3.799  0.5160  0.2097 -0.5897
 4922SOL    HW115665   1.567   3.226   3.852  1.6091  1.2339 -2.0593
 4922SOL    HW215666   1.470   3.154   3.742  0.8960  0.3389 -0.8645
 4923SOL     OW15667   3.685   1.518   2.428  0.0858 -0.4997  0.2017
 4923SOL    HW115668   3.671   1.477   2.518  3.4341 -0.2921  0.9421
 4923SOL    HW215669   3.685   1.618   2.437 -1.1506 -0.4278 -0.3664
 4924SOL     OW15670   0.338   3.104   5.260  0.6802 -0.3520  0.3256
 4924SOL    HW115671   0.349   3.186   5.204  1.2520 -0.6087  0.0541
 4924SOL    HW215672   0.288   3.035   5.207  0.2268 -0.1947  0.5428
 4925SOL     OW15673   4.413   5.972   5.462  0.2682 -0.1686 -0.7220
 4925SOL    HW115674   4.364   5.924   5.534  1.9075  0.1099  0.6490
 4925SOL    HW215675   4.511   5.954   5.471  0.5708  0.3251 -2.5666
 4926SOL     OW15676   6.729   3.854   1.071 -0.7331 -0.1293  0.0452
 4926SOL    HW115677   6.777   3.818   0.991  0.6814  1.2392  0.2340
 4926SOL    HW215678   6.640   3.889   1.042  0.1038  1.1698 -1.1654
 4927SOL     OW15679   2.958   3.369   2.004 -0.3565 -0.2731 -0.0441
 4927SOL    HW115680   2.942   3.270   2.007  1.8675 -0.6776 -0.1654
 4927SOL    HW215681   2.876   3.415   1.969 -1.0299 -2.1829 -1.0985
 4928SOL     OW15682   0.717   5.313   5.161 -0.6613 -0.0605 -0.1366
 4928SOL    HW115683   0.689   5.364   5.080 -3.3758 -1.8162 -0.4023
 4928SOL    HW215684   0.637   5.294   5.218  0.8506 -0.7947  1.8627
 4929SOL     OW15685   0.451   4.277   5.886 -0.0869 -0.2444  0.4173
 4929SOL    HW115686   0.453   4.261   5.985 -2.1263 -0.0263  0.5323
 4929SOL    HW215687   0.525   4.340   5.862 -0.1217  0.4424  1.9576
 4930SOL     OW15688   1.177   3.807   0.791 -0.4908 -0.5947  0.1398
 4930SOL    HW115689   1.123   3.890   0.783 -0.5665 -0.6795 -0.2380
 4930SOL    HW215690   1.235   3.797   0.710  0.3002 -0.3584  0.6564
 4931SOL     OW15691   5.540   2.084   6.621 -0.1961  0.0713  0.2128
 4931SOL    HW115692   5.498   1.997   6.650 -2.2133  1.5258  1.9738
 4931SOL    HW215693   5.468   2.150   6.600  1.2920  1.7023  0.0349
 4932SOL     OW15694   1.818   0.458   2.216 -0.0509  0.3117 -0.0386
 4932SOL    HW115695   1.877   0.486   2.140  0.2775 -0.8452 -0.2274
 4932SOL    HW215696   1.803   0.536   2.277  1.2817  0.7383 -0.2369
 4933SOL     OW15697   4.423   6.476   4.469  0.4488  0.2012 -0.1046
 4933SOL    HW115698   4.425   6.430   4.380 -0.9205  1.7071 -0.9566
 4933SOL    HW215699   4.358   6.428   4.529 -0.0334  0.2739 -0.5577
 4934SOL     OW15700   6.430   5.974   6.043 -0.1881 -0.3767 -0.6698
 4934SOL    HW115701   6.442   6.065   6.003 -1.8574  0.5130  0.6940
 4934SOL    HW215702   6.453   5.979   6.141  0.4360 -1.6288 -0.7412
 4935SOL     OW15703   2.293   4.367   0.810 -0.2171 -0.1951  0.1197
 4935SOL    HW115704   2.304   4.330   0.902 -1.7284 -0.8990  0.0509
 4935SOL    HW215705   2.201   4.406   0.800  0.4409  1.2677 -0.6311
 4936SOL     OW15706   5.824   4.737   0.791  0.1731  0.3922 -0.3552
 4936SOL    HW115707   5.909   4.779   0.759  0.5341 -0.6913 -0.8845
 4936SOL    HW215708   5.840   4.692   0.879  0.1857  0.0712 -0.5207
 4937SOL     OW15709   6.658   3.380   4.841  0.0523  0.0725 -0.3564
 4937SOL    HW115710   6.618   3.466   4.874  0.2467  1.6288 -3.7606
 4937SOL    HW215711   6.757   3.383   4.855  0.1029  0.5855 -0.7765
 4938SOL     OW15712   3.926   1.887   0.540 -0.1569  1.0878 -0.3638
 4938SOL    HW115713   3.972   1.938   0.612 -1.2489 -0.4947  1.5610
 4938SOL    HW215714   3.967   1.796   0.532 -0.8004  0.8412 -0.9546
 4939SOL     OW15715   0.538   0.386   0.343 -0.2339 -0.1675 -0.8978
 4939SOL    HW115716   0.442   0.408   0.327  0.2081  0.2221 -3.4781
 4939SOL    HW215717   0.589   0.471   0.358 -0.4601 -0.4626  1.9328
 4940SOL     OW15718   1.494   0.523   4.816  0.6700  0.1240  0.0184
 4940SOL    HW115719   1.483   0.620   4.837  0.3890  0.2036 -0.4830
 4940SOL    HW215720   1.569   0.486   4.870 -0.5378  0.1205  1.7778
 4941SOL     OW15721   5.133   1.579   4.597 -0.0490  0.1580  0.3028
 4941SOL    HW115722   5.095   1.617   4.682 -0.5176 -0.5892  0.4382
 4941SOL    HW215723   5.227   1.549   4.613 -0.4343 -0.8174  0.8193
 4942SOL     OW15724   2.278   0.510   0.787  0.4007  0.1252  0.4972
 4942SOL    HW115725   2.216   0.563   0.844  0.5058  0.5458  0.2175
 4942SOL    HW215726   2.275   0.414   0.816 -0.5792  0.0888  0.3121
 4943SOL     OW15727   4.735   2.980   0.626 -0.8261 -0.1149 -0.3531
 4943SOL    HW115728   4.750   2.950   0.532  1.0463 -1.1515  0.2352
 4943SOL    HW215729   4.658   2.929   0.665 -0.0883 -1.4567 -0.5912
 4944SOL     OW15730   2.301   5.158   1.184 -0.9126 -0.5554  0.0224
 4944SOL    HW115731   2.219   5.129   1.136 -1.4365 -1.8713  1.6262
 4944SOL    HW215732   2.289   5.145   1.282  0.9455 -0.0968  0.3550
 4945SOL     OW15733   2.295   6.564   6.480 -0.4986 -0.0322  0.2066
 4945SOL    HW115734   2.290   6.489   6.414  3.1650 -0.7969  0.6143
 4945SOL    HW215735   2.320   6.529   6.570 -1.4304  1.4555  1.1047
 4946SOL     OW15736   2.195   6.268   6.325 -0.3507  0.4391 -0.4451
 4946SOL    HW115737   2.117   6.326   6.349  0.8137  2.2259 -0.8025
 4946SOL    HW215738   2.163   6.174   6.311 -2.1836  0.7925  0.9214
 4947SOL     OW15739   1.475   0.140   0.318  0.0674 -0.0405  0.1225
 4947SOL    HW115740   1.400   0.128   0.252 -0.7853 -1.0432  1.2254
 4947SOL    HW215741   1.515   0.051   0.340  0.4427  0.2935  0.8371
 4948SOL     OW15742   0.535   5.573   3.687 -0.0910 -0.1576 -0.1872
 4948SOL    HW115743   0.524   5.476   3.709 -1.2940 -0.1429 -0.6584
 4948SOL    HW215744   0.516   5.628   3.768 -0.1081 -0.2815 -0.1065
 4949SOL     OW15745   5.014   4.037   4.607 -0.4907 -0.3316 -0.1547
 4949SOL    HW115746   5.089   3.976   4.630 -1.7617 -1.8751  0.0372
 4949SOL    HW215747   4.929   3.985   4.596 -1.3981  1.2460 -1.1852
 4950SOL     OW15748   3.846   3.119   4.989 -0.2662  0.3359 -0.1659
 4950SOL    HW115749   3.866   3.209   4.950  1.2226 -0.6112 -1.7167
 4950SOL    HW215750   3.840   3.051   4.916 -0.8709 -0.9241  1.0100
 4951SOL     OW15751   4.915   3.489   2.538  0.0219 -0.3477 -0.0333
 4951SOL    HW115752   4.861   3.420   2.585 -0.6190 -0.0833 -0.3713
 4951SOL    HW215753   4.994   3.446   2.494 -0.0469 -0.7707  0.2539
 4952SOL     OW15754   1.696   1.085   0.106 -0.6206 -0.4183 -0.0666
 4952SOL    HW115755   1.648   1.163   0.067  0.6539  0.5232  0.1794
 4952SOL    HW215756   1.717   1.103   0.202  0.1921 -0.8134 -0.1596
 4953SOL     OW15757   0.400   1.908   6.816 -0.4414 -0.1290  0.5080
 4953SOL    HW115758   0.489   1.892   6.860 -0.4726 -1.4605  0.1182
 4953SOL    HW215759   0.364   1.821   6.782 -1.4741  0.5458 -0.1453
 4954SOL     OW15760   5.161   1.691   0.893  0.0345  0.2067 -0.0028
 4954SOL    HW115761   5.122   1.674   0.802 -0.8425 -0.8803  0.5536
 4954SOL    HW215762   5.194   1.785   0.898 -0.2333  0.3911 -1.3264
 4955SOL     OW15763   3.487   6.233   1.699  0.2339 -0.1904  0.4376
 4955SOL    HW115764   3.565   6.226   1.637  0.8049  0.2439  1.0929
 4955SOL    HW215765   3.510   6.295   1.774  0.6552 -2.8070  2.6539
 4956SOL     OW15766   2.685   5.918   1.573 -0.3596 -0.7328 -0.5881
 4956SOL    HW115767   2.616   5.897   1.643 -2.0412  1.8957 -1.3014
 4956SOL    HW215768   2.727   6.006   1.594 -1.0955  0.2604 -2.9474
 4957SOL     OW15769   4.507   5.619   1.291 -0.1143 -0.5168  0.4425
 4957SOL    HW115770   4.530   5.549   1.358  0.9309 -0.1925  0.4436
 4957SOL    HW215771   4.500   5.707   1.336 -0.2326 -0.4318  0.2591
 4958SOL     OW15772   4.213   4.115   0.261  0.5104  0.1805  0.1523
 4958SOL    HW115773   4.116   4.106   0.242  0.2477  0.3144  1.3105
 4958SOL    HW215774   4.233   4.210   0.288  1.1833  0.4414 -1.2032
 4959SOL     OW15775   2.603   0.603   3.151  0.0905  0.4972  1.0346
 4959SOL    HW115776   2.626   0.604   3.248  1.1927 -0.5200  0.8033
 4959SOL    HW215777   2.646   0.680   3.105 -0.6246  1.1160  1.3760
 4960SOL     OW15778   5.611   3.106   5.332  0.3563  0.1923  0.4479
 4960SOL    HW115779   5.519   3.128   5.302 -0.2453 -1.9388  0.6114
 4960SOL    HW215780   5.610   3.079   5.429  1.0258 -0.4386  0.2939
 4961SOL     OW15781   3.493   4.121   3.749 -0.1335 -0.1333  0.3158
 4961SOL    HW115782   3.523   4.103   3.655 -0.8098  0.7685 -0.0911
 4961SOL    HW215783   3.394   4.116   3.754 -0.3336  2.3209  0.3552
 4962SOL     OW15784   1.159   2.643   0.814 -0.4634  0.5296  0.2836
 4962SOL    HW115785   1.072   2.655   0.860  0.9332  2.8436  2.6246
 4962SOL    HW215786   1.189   2.731   0.775  0.6716 -0.2771 -0.7570
 4963SOL     OW15787   1.210   3.229   6.549  0.1126  0.9458  0.1695
 4963SOL    HW115788   1.210   3.237   6.649  0.0263 -1.8225  0.4627
 4963SOL    HW215789   1.224   3.134   6.523 -0.5013  1.4954 -2.4784
 4964SOL     OW15790   2.387   5.073   3.057 -0.0237 -0.0388  0.4904
 4964SOL    HW115791   2.412   4.976   3.068 -2.6233 -0.6769  1.2834
 4964SOL    HW215792   2.394   5.097   2.960 -0.4819 -1.3705  0.0985
 4965SOL     OW15793   1.345   0.474   3.116  0.7206 -0.1834  0.5487
 4965SOL    HW115794   1.398   0.440   3.038  0.2564 -1.1058  0.6247
 4965SOL    HW215795   1.347   0.407   3.190  2.2444  1.2450  1.8672
 4966SOL     OW15796   4.706   5.917   3.622  0.3172  0.1965  0.2561
 4966SOL    HW115797   4.701   5.818   3.608 -0.0742  0.5451 -2.8289
 4966SOL    HW215798   4.619   5.950   3.658  1.0082 -0.6955  3.0016
 4967SOL     OW15799   5.361   2.922   2.237 -0.2384 -0.2589 -0.3664
 4967SOL    HW115800   5.350   2.903   2.139  0.6559 -3.5387  0.0571
 4967SOL    HW215801   5.270   2.926   2.280 -0.6280  0.9648 -1.2235
 4968SOL     OW15802   6.667   3.248   2.922  0.0359 -0.0349 -0.0096
 4968SOL    HW115803   6.661   3.244   2.822  0.2317 -0.5858 -0.0023
 4968SOL    HW215804   6.763   3.244   2.950  0.0355  0.9716  0.1731
 4969SOL     OW15805   1.285   6.357   3.588 -0.3960  0.2828 -0.0110
 4969SOL    HW115806   1.217   6.421   3.552 -0.8651 -0.3888 -0.3477
 4969SOL    HW215807   1.315   6.387   3.678 -0.0056  1.4119 -0.4889
 4970SOL     OW15808   1.347   5.835   1.930 -0.1612  0.4876 -0.0887
 4970SOL    HW115809   1.279   5.886   1.877 -0.2189  1.2174  0.6639
 4970SOL    HW215810   1.439   5.867   1.906 -0.1399  0.2458 -0.3350
 4971SOL     OW15811   0.660   6.424   2.825 -0.3262  0.4058  0.1402
 4971SOL    HW115812   0.626   6.413   2.919  3.2672 -0.0809  1.5585
 4971SOL    HW215813   0.637   6.516   2.792 -0.5096  1.0953  2.0357
 4972SOL     OW15814   2.277   4.116   1.321  0.7351  0.2934 -0.4405
 4972SOL    HW115815   2.278   4.017   1.312 -0.2093  0.3338 -1.1058
 4972SOL    HW215816   2.183   4.149   1.324  0.9342  1.4088 -3.1644
 4973SOL     OW15817   5.908   3.506   0.552  0.1394  0.0603  0.1354
 4973SOL    HW115818   5.841   3.569   0.590 -0.2193 -0.4131  0.2943
 4973SOL    HW215819   6.000   3.540   0.570 -0.0314  0.0432  1.0833
 4974SOL     OW15820   2.768   1.045   4.520  0.3648 -0.1485 -0.2579
 4974SOL    HW115821   2.745   1.063   4.616 -1.6350 -0.6885 -0.5777
 4974SOL    HW215822   2.849   1.097   4.494  0.7453  0.2547  1.6278
 4975SOL     OW15823   5.884   3.760   1.637  0.0923 -0.3404  0.1148
 4975SOL    HW115824   5.880   3.709   1.723 -0.5528  0.0341  0.3200
 4975SOL    HW215825   5.823   3.840   1.644  1.4872  0.7731  0.0147
 4976SOL     OW15826   1.763   5.164   3.886  0.5636  0.2365  0.2810
 4976SOL    HW115827   1.814   5.167   3.972  2.4247 -0.0522 -0.7378
 4976SOL    HW215828   1.818   5.116   3.817 -1.0798  0.0343 -0.9366
 4977SOL     OW15829   0.824   1.905   5.365 -0.0393  0.2589  0.2464
 4977SOL    HW115830   0.826   1.989   5.419 -1.2068  0.7106 -0.3652
 4977SOL    HW215831   0.775   1.922   5.280 -1.8392 -1.4493  0.8545
 4978SOL     OW15832   6.339   4.720   4.554 -0.5780 -0.1300 -0.0854
 4978SOL    HW115833   6.324   4.763   4.644 -1.9214 -0.2782 -0.2188
 4978SOL    HW215834   6.335   4.791   4.483  0.6459  0.0112 -0.0321
 4979SOL     OW15835   3.106   0.884   6.607 -0.0392 -0.0514 -0.2784
 4979SOL    HW115836   3.200   0.885   6.641 -0.0153  2.4111 -0.2159
 4979SOL    HW215837   3.049   0.939   6.668 -1.0706  0.1839 -1.4293
 4980SOL     OW15838   0.186   3.091   4.410 -0.3187  0.4809  0.3395
 4980SOL    HW115839   0.188   3.025   4.335  2.4992  0.1939  0.5614
 4980SOL    HW215840   0.158   3.181   4.375 -2.3942 -0.3710 -0.3182
 4981SOL     OW15841   3.831   6.793   3.091  0.0896 -0.3399  0.3265
 4981SOL    HW115842   3.832   6.697   3.061  0.5074 -0.5724  1.0659
 4981SOL    HW215843   3.875   6.801   3.180  0.0169  0.5400  0.2958
 4982SOL     OW15844   4.239   1.566   6.311  0.1900 -0.1249  0.2509
 4982SOL    HW115845   4.334   1.539   6.297  0.1948  0.6953 -1.5577
 4982SOL    HW215846   4.179   1.491   6.284  0.2961  0.2594 -1.1592
 4983SOL     OW15847   5.707   2.663   6.399  0.4530 -0.3394  0.0088
 4983SOL    HW115848   5.753   2.734   6.345 -3.1383  1.5318 -0.9212
 4983SOL    HW215849   5.691   2.697   6.491  1.2293 -1.1443  0.4572
 4984SOL     OW15850   5.278   2.673   4.435  0.5194  0.1270  0.4924
 4984SOL    HW115851   5.269   2.772   4.418  0.4535 -0.0110 -0.3054
 4984SOL    HW215852   5.319   2.630   4.356 -1.8568 -0.8945 -0.2690
 4985SOL     OW15853   4.281   6.041   1.488  0.4503 -0.4403  0.4609
 4985SOL    HW115854   4.208   5.998   1.541  0.1887  0.2595  0.6764
 4985SOL    HW215855   4.310   6.126   1.532  1.6015 -0.8485  0.5326
 4986SOL     OW15856   2.479   5.537   0.110 -0.3138 -0.1903  0.1000
 4986SOL    HW115857   2.517   5.452   0.073  1.6028  0.0954  1.2793
 4986SOL    HW215858   2.553   5.602   0.125 -1.7742  1.8156 -1.0124
 4987SOL     OW15859   3.316   3.888   1.735  0.3289 -0.2260 -0.2642
 4987SOL    HW115860   3.397   3.947   1.732 -0.2574  0.6177 -0.1904
 4987SOL    HW215861   3.288   3.865   1.642 -0.7342  1.5009 -0.4194
 4988SOL     OW15862   5.636   4.234   5.472 -0.0818  0.0403 -0.0702
 4988SOL    HW115863   5.662   4.331   5.470 -1.8130  0.5663  0.8462
 4988SOL    HW215864   5.592   4.209   5.385 -0.5508  0.3725  0.0659
 4989SOL     OW15865   0.099   0.662   5.254  0.0121  0.1912 -0.2570
 4989SOL    HW115866   0.097   0.608   5.339  2.0872  0.8509  0.2566
 4989SOL    HW215867   0.193   0.688   5.233 -0.2816 -0.8675 -3.3981
 4990SOL     OW15868   4.788   2.244   1.330 -0.5012 -0.2044 -0.4205
 4990SOL    HW115869   4.794   2.165   1.392 -0.3910 -0.1436 -0.3541
 4990SOL    HW215870   4.874   2.252   1.279  0.2805  1.0656  1.0073
 4991SOL     OW15871   2.689   5.256   4.254 -0.5554 -0.4191  0.0265
 4991SOL    HW115872   2.694   5.186   4.182 -0.3561  0.3185 -0.6913
 4991SOL    HW215873   2.600   5.301   4.251  0.3688  1.4870 -1.6037
 4992SOL     OW15874   3.232   4.164   5.562  0.0728 -0.1403 -0.4828
 4992SOL    HW115875   3.158   4.216   5.518  1.0618  1.6393 -0.1410
 4992SOL    HW215876   3.320   4.199   5.531  0.7830 -0.5184  1.0302
 4993SOL     OW15877   1.809   6.863   2.680 -0.2931 -0.4597 -0.2764
 4993SOL    HW115878   1.781   6.787   2.738  0.1357 -0.7249 -0.4127
 4993SOL    HW215879   1.739   6.934   2.683 -1.6488 -1.6659 -1.6633
 4994SOL     OW15880   3.231   2.553   5.341 -0.5380 -0.0794  0.4380
 4994SOL    HW115881   3.221   2.480   5.274  0.2639 -1.1961  1.4875
 4994SOL    HW215882   3.234   2.642   5.294  2.1370 -0.9308 -1.2244
 4995SOL     OW15883   1.365   2.836   5.158  0.4094  0.0851  0.7548
 4995SOL    HW115884   1.371   2.874   5.065 -0.1572 -1.9183 -0.1627
 4995SOL    HW215885   1.361   2.911   5.224 -1.5082  1.6477 -0.9765
 4996SOL     OW15886   0.896   1.844   3.490 -0.4096 -0.0139  0.8100
 4996SOL    HW115887   0.839   1.774   3.534 -0.5854 -0.6467 -0.3696
 4996SOL    HW215888   0.876   1.846   3.392  0.9803  0.3572  0.5119
 4997SOL     OW15889   4.294   2.401   6.560 -0.0725  0.4487 -0.2168
 4997SOL    HW115890   4.375   2.359   6.519  0.5843  0.7697  0.7237
 4997SOL    HW215891   4.217   2.337   6.557  1.0084 -1.0313  1.5673
 4998SOL     OW15892   6.895   5.215   1.475  0.0746  0.0077  0.2076
 4998SOL    HW115893   6.939   5.161   1.404  0.8884 -0.7888  1.2874
 4998SOL    HW215894   6.899   5.312   1.450  1.1726 -0.1768 -0.3989
 4999SOL     OW15895   0.447   2.933   3.760  0.2331  0.5765  0.2823
 4999SOL    HW115896   0.400   2.958   3.845 -0.3268  0.0893  0.1198
 4999SOL    HW215897   0.545   2.924   3.778  0.1902  0.9896  0.7625
 5000SOL     OW15898   1.838   5.543   2.094 -0.0525 -1.1776 -0.1535
 5000SOL    HW115899   1.781   5.592   2.159 -0.4201  0.3693 -1.5703
 5000SOL    HW215900   1.888   5.470   2.141 -0.1381  0.0105  1.8621
 5001SOL     OW15901   6.953   5.212   3.469 -0.2706 -0.0551 -0.6740
 5001SOL    HW115902   6.917   5.278   3.403  0.0717  1.7363  0.8438
 5001SOL    HW215903   7.052   5.203   3.455 -0.3533 -0.4299 -1.0283
 5002SOL     OW15904   0.041   6.352   2.847 -0.2919  0.0941 -0.1987
 5002SOL    HW115905   0.065   6.450   2.849  0.3693 -0.0744  0.4480
 5002SOL    HW215906  -0.005   6.327   2.932  1.6164 -0.6499  0.6739
 5003SOL     OW15907   4.792   1.963   2.796  0.4261 -0.1580  0.0459
 5003SOL    HW115908   4.870   2.020   2.769 -0.5710  1.0853 -0.3059
 5003SOL    HW215909   4.777   1.971   2.894  0.7248 -0.3967  0.1143
 5004SOL     OW15910   6.025   0.824   1.251  0.0915  0.0446 -0.5300
 5004SOL    HW115911   6.104   0.824   1.312  1.8525 -0.0561 -2.6750
 5004SOL    HW215912   5.999   0.919   1.230 -0.5028  0.0785  0.3211
 5005SOL     OW15913   4.008   4.559   0.757 -0.6839 -0.0881 -0.3732
 5005SOL    HW115914   4.056   4.573   0.844 -2.7628  2.5588  0.5077
 5005SOL    HW215915   3.942   4.485   0.767  0.2834 -0.9651 -0.2973
 5006SOL     OW15916   4.324   1.473   1.954 -0.2321  0.1649 -0.4359
 5006SOL    HW115917   4.317   1.550   1.891 -1.4251  1.2210  0.9108
 5006SOL    HW215918   4.237   1.424   1.958  0.3387 -0.9364 -0.8382
 5007SOL     OW15919   6.843   5.001   2.269 -0.1824  0.0276  0.0137
 5007SOL    HW115920   6.781   5.053   2.209 -0.8230 -0.5453  0.1643
 5007SOL    HW215921   6.789   4.954   2.339  0.4770 -0.0937  0.4424
 5008SOL     OW15922   4.576   6.648   6.179  0.0758  0.6643 -0.1883
 5008SOL    HW115923   4.575   6.558   6.135  0.7968  0.3763  0.3645
 5008SOL    HW215924   4.637   6.646   6.259  1.8863  2.2141 -1.4208
 5009SOL     OW15925   1.953   6.925   6.715 -0.0683 -0.1429  0.1010
 5009SOL    HW115926   1.944   6.831   6.748 -0.3081 -0.0581  0.2762
 5009SOL    HW215927   1.898   6.986   6.772  0.4425  0.1707  0.2716
 5010SOL     OW15928   0.073   4.706   2.049 -0.1103 -0.1039 -0.3940
 5010SOL    HW115929   0.164   4.672   2.072 -1.4391 -2.0201  2.6566
 5010SOL    HW215930   0.018   4.632   2.011 -0.6489  0.8477 -1.5315
 5011SOL     OW15931   2.408   1.242   5.215 -0.2184 -0.0788  0.3793
 5011SOL    HW115932   2.376   1.273   5.125  1.2944  2.0924  0.5176
 5011SOL    HW215933   2.358   1.291   5.286  1.6977  1.6481  0.6144
 5012SOL     OW15934   5.690   2.492   6.822 -0.1347 -0.1253 -0.0493
 5012SOL    HW115935   5.770   2.536   6.780 -0.2565  0.5823  0.4449
 5012SOL    HW215936   5.608   2.547   6.803 -1.1091 -2.3588 -3.1640
 5013SOL     OW15937   0.079   5.687   5.901  0.9382 -0.0013  0.0865
 5013SOL    HW115938   0.057   5.616   5.834 -0.8765  0.3335  0.2875
 5013SOL    HW215939   0.141   5.754   5.859 -0.3037  0.3003 -1.3405
 5014SOL     OW15940   5.598   4.837   0.726  0.6099  0.9679  0.3583
 5014SOL    HW115941   5.690   4.803   0.748  0.5978  0.8357  0.2105
 5014SOL    HW215942   5.605   4.919   0.670  0.6395  0.2978 -0.6456
 5015SOL     OW15943   0.347   2.512   6.431 -0.0857  0.3545 -0.0338
 5015SOL    HW115944   0.437   2.527   6.389 -0.2763 -0.1504 -0.6271
 5015SOL    HW215945   0.346   2.422   6.475  0.0334  0.7780  0.8678
 5016SOL     OW15946   1.827   1.270   5.589  1.1772 -0.2487 -0.3858
 5016SOL    HW115947   1.845   1.256   5.491  1.1523 -1.7407 -0.1939
 5016SOL    HW215948   1.729   1.272   5.605  1.1825 -0.3778 -0.3389
 5017SOL     OW15949   1.232   3.515   1.279 -0.1911 -0.0173  0.1906
 5017SOL    HW115950   1.242   3.614   1.293 -0.5641 -0.0512  0.7510
 5017SOL    HW215951   1.272   3.489   1.191  0.7733  0.4768  0.4772
 5018SOL     OW15952   6.208   6.984   0.863 -0.1840  0.1474  0.1027
 5018SOL    HW115953   6.137   6.935   0.914  0.6196 -0.8055  0.3336
 5018SOL    HW215954   6.221   6.942   0.773  0.2295  0.1920  0.1378
 5019SOL     OW15955   1.344   2.184   3.879  0.0799  0.5591  0.3813
 5019SOL    HW115956   1.272   2.137   3.930 -1.2668  1.3597 -0.6999
 5019SOL    HW215957   1.433   2.146   3.904 -0.7923 -1.2462  0.9040
 5020SOL     OW15958   1.912   0.670   6.830 -0.6110 -0.0727  0.3484
 5020SOL    HW115959   1.892   0.741   6.761 -1.3623 -2.6822 -2.3115
 5020SOL    HW215960   2.009   0.672   6.852 -0.4482  1.2151 -0.3571
 5021SOL     OW15961   1.701   0.772   1.974 -0.2845 -0.3042 -0.0874
 5021SOL    HW115962   1.631   0.774   2.045  0.5241  2.0115  0.7366
 5021SOL    HW215963   1.790   0.794   2.014  0.3314  0.2432 -1.6623
 5022SOL     OW15964   6.356   4.024   1.854  0.2205 -0.1900  0.3689
 5022SOL    HW115965   6.432   3.976   1.810  0.0183 -1.2906  1.1769
 5022SOL    HW215966   6.337   3.982   1.943 -1.3435  0.0594  0.1770
 5023SOL     OW15967   2.853   1.011   2.483  0.0845  0.1263  0.3299
 5023SOL    HW115968   2.923   0.989   2.552  0.4867  1.1942  0.2712
 5023SOL    HW215969   2.803   1.093   2.510  0.9072  1.1453 -1.0997
 5024SOL     OW15970   4.567   4.275   1.008 -1.1178  0.0313 -0.1436
 5024SOL    HW115971   4.598   4.288   1.101 -0.9172  0.6864 -0.3003
 5024SOL    HW215972   4.526   4.184   0.999  1.5690 -1.2741 -0.1681
 5025SOL     OW15973   3.445   1.865   5.165 -0.3231  0.0017  0.5049
 5025SOL    HW115974   3.414   1.949   5.119 -0.7066 -0.5165 -0.2113
 5025SOL    HW215975   3.366   1.806   5.182  0.1995 -1.1962 -1.0537
 5026SOL     OW15976   5.387   4.501   5.452  0.1618 -0.3920 -0.0203
 5026SOL    HW115977   5.393   4.601   5.446  1.1856 -0.5020 -1.0422
 5026SOL    HW215978   5.401   4.461   5.362 -0.4587 -1.4657  0.3439
 5027SOL     OW15979   5.136   5.462   1.591  0.4487 -1.1383 -1.0801
 5027SOL    HW115980   5.136   5.511   1.678  0.3894 -1.4947 -0.8751
 5027SOL    HW215981   5.044   5.459   1.553  0.7119  0.3673 -1.9423
 5028SOL     OW15982   0.234   2.064   3.680 -0.0632  0.1149  0.1943
 5028SOL    HW115983   0.236   2.056   3.780  1.7982 -1.5787  0.0799
 5028SOL    HW215984   0.183   1.987   3.641 -0.8297  0.7967 -0.1829
 5029SOL     OW15985   6.042   1.558   3.448 -0.1490 -0.3366 -0.3677
 5029SOL    HW115986   5.970   1.497   3.415 -0.8633  1.4715 -2.3713
 5029SOL    HW215987   6.026   1.580   3.544 -0.9874 -1.6734 -0.1737
 5030SOL     OW15988   1.272   3.742   6.039  0.0961  0.5210 -0.5298
 5030SOL    HW115989   1.331   3.729   5.959  0.8362 -1.1277  0.2418
 5030SOL    HW215990   1.318   3.709   6.121 -2.7887 -3.5856 -0.2158
 5031SOL     OW15991   6.528   1.389   6.103  0.1019 -0.0333  0.5584
 5031SOL    HW115992   6.475   1.333   6.167  1.1737  2.0424  3.4610
 5031SOL    HW215993   6.618   1.408   6.143  0.4359  2.2267 -1.1293
 5032SOL     OW15994   1.876   3.177   6.802 -0.1954 -0.1896 -0.4277
 5032SOL    HW115995   1.950   3.111   6.815 -0.4373 -0.2104  1.1264
 5032SOL    HW215996   1.851   3.181   6.706  0.6753 -1.4310 -0.7349
 5033SOL     OW15997   2.781   6.933   4.223  0.2065  0.6982  0.0659
 5033SOL    HW115998   2.806   6.949   4.318 -0.0918 -1.1890  0.5001
 5033SOL    HW215999   2.684   6.909   4.217 -0.0186  1.7543 -0.8526
 5034SOL     OW16000   3.726   6.731   3.530  0.5057 -0.0907 -0.1969
 5034SOL    HW116001   3.814   6.735   3.577  0.6174  0.7289 -0.4500
 5034SOL    HW216002   3.683   6.643   3.546 -0.1986  0.6881  2.7936
 5035SOL     OW16003   0.467   4.469   3.734 -0.3543 -0.0231  0.2403
 5035SOL    HW116004   0.505   4.504   3.820  0.1175  0.0646  0.0022
 5035SOL    HW216005   0.445   4.545   3.673 -1.0652 -0.0667  0.4324
 5036SOL     OW16006   0.989   1.754   3.872  1.1346 -0.3932  0.4853
 5036SOL    HW116007   0.912   1.751   3.808  2.3795 -2.1110 -1.0463
 5036SOL    HW216008   1.052   1.827   3.846  0.2180  0.8268  1.5694
 5037SOL     OW16009   6.140   4.264   1.209 -0.2533  0.4583  0.0544
 5037SOL    HW116010   6.147   4.321   1.291  0.8561  0.1832  0.1773
 5037SOL    HW216011   6.045   4.258   1.180 -0.2479  3.7905 -0.9814
 5038SOL     OW16012   3.394   3.266   3.944  0.2097  0.5094  0.0777
 5038SOL    HW116013   3.361   3.179   3.907 -0.7329  0.2807  1.3553
 5038SOL    HW216014   3.411   3.330   3.870 -0.6730 -0.2416 -0.8019
 5039SOL     OW16015   0.948   2.747   1.006  0.3184  0.3249 -0.3452
 5039SOL    HW116016   1.024   2.798   1.046  0.2549  1.3045 -1.4263
 5039SOL    HW216017   0.871   2.747   1.070  0.7989  0.4176  0.2341
 5040SOL     OW16018   1.543   2.054   4.971  0.4830 -0.1913  0.0277
 5040SOL    HW116019   1.518   2.085   5.063  0.0455 -1.0463  0.2064
 5040SOL    HW216020   1.573   2.132   4.917 -3.0022  1.0571 -0.3422
 5041SOL     OW16021   6.059   3.441   1.920 -0.5178  0.2056 -0.0845
 5041SOL    HW116022   6.107   3.417   2.005  2.0480 -0.9856 -1.7434
 5041SOL    HW216023   6.088   3.532   1.890 -2.1750  1.0596  0.7298
 5042SOL     OW16024   6.363   0.795   4.713  0.1453  0.7084 -0.0482
 5042SOL    HW116025   6.459   0.793   4.684 -0.3243 -0.9423 -1.7668
 5042SOL    HW216026   6.354   0.748   4.801  0.7595 -0.4260 -0.5619
 5043SOL     OW16027   2.965   0.813   2.020 -0.0737 -0.6776  0.3081
 5043SOL    HW116028   2.896   0.817   1.948  1.1741 -0.1693 -0.9190
 5043SOL    HW216029   3.014   0.726   2.014 -0.7097 -1.1219  1.3007
 5044SOL     OW16030   0.131   6.748   1.029  0.2161  0.3046 -0.4609
 5044SOL    HW116031   0.223   6.736   1.067 -0.1919 -1.4097  0.0847
 5044SOL    HW216032   0.127   6.709   0.937  0.8009  3.1144 -1.7678
 5045SOL     OW16033   3.379   2.124   5.082  0.0386 -0.8943 -0.0403
 5045SOL    HW116034   3.307   2.169   5.029  1.5425  0.7474 -0.7900
 5045SOL    HW216035   3.372   2.152   5.178  2.0963  2.7645 -0.7753
 5046SOL     OW16036   3.319   3.136   3.185 -0.1016  0.1783  0.1393
 5046SOL    HW116037   3.253   3.098   3.249 -0.4513  1.2975  0.4614
 5046SOL    HW216038   3.372   3.061   3.144  1.4284 -0.5057  3.1040
 5047SOL     OW16039   0.574   0.430   3.979 -0.2414 -0.1067 -0.4346
 5047SOL    HW116040   0.561   0.523   3.943 -2.6419  0.6951  2.1504
 5047SOL    HW216041   0.489   0.379   3.971 -0.5776 -0.2423  2.8394
 5048SOL     OW16042   2.139   6.622   4.857 -0.3118  0.0752 -0.1677
 5048SOL    HW116043   2.090   6.540   4.887 -0.1468  0.1920  0.4442
 5048SOL    HW216044   2.219   6.595   4.803 -1.2647 -0.1017 -1.5090
 5049SOL     OW16045   4.491   2.522   6.913 -0.1072  0.5653 -0.4927
 5049SOL    HW116046   4.464   2.545   7.007  1.5531  0.6906 -0.0105
 5049SOL    HW216047   4.426   2.456   6.875 -0.2080 -0.3438  1.1500
 5050SOL     OW16048   1.410   6.113   1.165  0.0925  0.2197  0.3088
 5050SOL    HW116049   1.325   6.155   1.200  1.1030  0.8976  2.0864
 5050SOL    HW216050   1.412   6.121   1.066 -2.9502 -1.8215 -0.0463
 5051SOL     OW16051   4.152   4.496   1.733 -0.0733 -0.0970  0.5336
 5051SOL    HW116052   4.113   4.407   1.710  0.5024 -0.3992  0.6988
 5051SOL    HW216053   4.082   4.567   1.722 -0.7014 -0.6372  0.9412
 5052SOL     OW16054   1.927   2.560   3.995  0.1299 -0.6058 -0.0394
 5052SOL    HW116055   1.986   2.582   3.917  0.3581  0.8954  0.5216
 5052SOL    HW216056   1.865   2.486   3.970  0.3572 -0.3113 -1.5736
 5053SOL     OW16057   6.767   1.420   1.015  0.5424 -0.2437 -0.2079
 5053SOL    HW116058   6.707   1.441   1.092 -0.6510  0.4419 -1.2820
 5053SOL    HW216059   6.713   1.415   0.931  1.9088 -0.2354 -1.1269
 5054SOL     OW16060   2.504   6.063   0.902 -0.1134 -0.1834  0.6231
 5054SOL    HW116061   2.477   6.013   0.820  3.3856  0.2346 -0.9511
 5054SOL    HW216062   2.478   6.159   0.891  1.9981  0.2713 -0.9754
 5055SOL     OW16063   5.165   3.586   6.879  0.1647  0.5081 -0.0313
 5055SOL    HW116064   5.202   3.531   6.954 -1.6917 -0.2587  0.3803
 5055SOL    HW216065   5.210   3.675   6.879  1.3859 -0.0683  0.9354
 5056SOL     OW16066   5.522   4.904   2.679  0.8043  0.0185  0.1028
 5056SOL    HW116067   5.574   4.954   2.749  0.1931  1.7815 -0.6655
 5056SOL    HW216068   5.442   4.958   2.652  0.7033 -0.9112 -1.5302
 5057SOL     OW16069   0.989   4.379   2.033  0.1110  0.5980 -0.7117
 5057SOL    HW116070   1.076   4.385   1.985  1.1947  0.8138  1.1829
 5057SOL    HW216071   0.988   4.297   2.090  0.7104  2.4561  2.1966
 5058SOL     OW16072   1.654   3.893   5.574 -0.2752  0.3584  0.5804
 5058SOL    HW116073   1.565   3.927   5.544 -0.3369 -0.5496 -0.3435
 5058SOL    HW216074   1.664   3.906   5.672 -1.8219 -0.3650  0.8614
 5059SOL     OW16075   0.611   6.706   2.742  0.1199 -1.0637 -0.0089
 5059SOL    HW116076   0.622   6.731   2.838 -1.3545 -2.4221  0.5648
 5059SOL    HW216077   0.672   6.761   2.685 -0.4316  1.2009  1.4886
 5060SOL     OW16078   5.770   4.596   0.219  0.1397 -0.6148 -0.1804
 5060SOL    HW116079   5.674   4.621   0.233  1.0679  3.2954  0.5996
 5060SOL    HW216080   5.806   4.554   0.302  0.2176  2.6011  1.5884
 5061SOL     OW16081   3.884   4.333   5.841  0.0390 -0.2111  0.4061
 5061SOL    HW116082   3.903   4.244   5.800 -0.6960  0.0680 -0.5760
 5061SOL    HW216083   3.969   4.373   5.875  0.6897 -0.4560 -0.8671
 5062SOL     OW16084   0.905   1.538   6.542  0.1056  0.9559  0.0775
 5062SOL    HW116085   0.953   1.454   6.517 -0.3192  1.0156 -1.0144
 5062SOL    HW216086   0.958   1.617   6.513  0.7015  1.0982  1.4715
 5063SOL     OW16087   1.235   1.473   2.844 -0.5329  0.0257  0.0348
 5063SOL    HW116088   1.222   1.452   2.747  1.2702 -0.5173 -0.1213
 5063SOL    HW216089   1.164   1.537   2.874 -1.9880 -0.9195 -1.2512
 5064SOL     OW16090   5.034   3.281   0.163  0.3048 -0.6132 -0.1990
 5064SOL    HW116091   5.070   3.192   0.191 -0.4410 -0.5090  1.2083
 5064SOL    HW216092   5.046   3.346   0.237 -1.3434 -0.1888 -0.2574
 5065SOL     OW16093   0.170   0.611   6.670 -0.0205  0.2264 -0.2365
 5065SOL    HW116094   0.185   0.534   6.731 -0.0478  0.4980  0.1143
 5065SOL    HW216095   0.074   0.613   6.642  0.0182  0.0321 -0.3849
 5066SOL     OW16096   3.898   4.653   6.992 -0.0807 -0.4427 -0.4781
 5066SOL    HW116097   3.817   4.620   7.040 -0.4362  0.0980 -0.6982
 5066SOL    HW216098   3.870   4.711   6.915  0.5074 -0.4424 -0.6953
 5067SOL     OW16099   5.658   2.362   0.059  0.2039 -0.2426 -0.2559
 5067SOL    HW116100   5.710   2.279   0.083  2.9206  1.5047  0.3828
 5067SOL    HW216101   5.688   2.395  -0.030 -0.3119  0.4600 -0.1711
 5068SOL     OW16102   3.112   5.962   6.593  0.1449  0.0441 -0.4292
 5068SOL    HW116103   3.050   5.995   6.522  1.2863 -0.0922 -1.5126
 5068SOL    HW216104   3.070   5.883   6.639 -0.3447 -0.2648 -1.3779
 5069SOL     OW16105   5.346   4.591   2.322 -0.9653  0.4178  0.2540
 5069SOL    HW116106   5.314   4.645   2.400  1.8165  2.0100  0.4140
 5069SOL    HW216107   5.367   4.499   2.352  1.6697  1.4455  1.9142
 5070SOL     OW16108   4.804   1.409   3.852  0.6923  0.2146 -0.1822
 5070SOL    HW116109   4.799   1.508   3.842  0.0801  0.2872  0.7982
 5070SOL    HW216110   4.761   1.365   3.773 -1.8899  0.7698  0.8241
 5071SOL     OW16111   5.068   2.408   1.864  0.0175 -0.1164 -0.2842
 5071SOL    HW116112   5.084   2.496   1.909  0.1339 -0.0793 -0.3981
 5071SOL    HW216113   5.151   2.353   1.870  0.1937  0.0785 -0.8828
 5072SOL     OW16114   6.265   5.573   5.254  0.2295  0.3804  0.3681
 5072SOL    HW116115   6.180   5.616   5.282 -1.2889 -0.3222 -2.6917
 5072SOL    HW216116   6.309   5.627   5.182  0.4313 -1.0632 -0.6417
 5073SOL     OW16117   5.109   1.743   5.079  0.1485 -0.1706  0.1341
 5073SOL    HW116118   5.012   1.760   5.062  0.5034  1.8116 -0.2037
 5073SOL    HW216119   5.122   1.706   5.171 -0.7691  2.0513  1.2286
 5074SOL     OW16120   3.851   3.633   5.376  0.0982  0.5245  0.2640
 5074SOL    HW116121   3.829   3.600   5.283 -0.0969 -2.7468  1.3403
 5074SOL    HW216122   3.782   3.700   5.404 -0.3561  0.9057 -1.6080
 5075SOL     OW16123   0.150   6.754   5.510 -0.0735  0.5472  0.1727
 5075SOL    HW116124   0.239   6.740   5.552 -0.0499  0.6220  0.1486
 5075SOL    HW216125   0.162   6.790   5.417 -0.0787 -1.1083 -0.5052
 5076SOL     OW16126   5.358   1.947   1.524 -0.3052  0.0314 -0.6465
 5076SOL    HW116127   5.366   1.851   1.550 -1.4086  0.2261  0.5273
 5076SOL    HW216128   5.341   2.002   1.606 -0.2914  1.1528 -1.3781
 5077SOL     OW16129   0.633   2.252   2.051  0.2923  0.0711  0.0083
 5077SOL    HW116130   0.700   2.200   2.105  1.0684 -0.0594 -1.0555
 5077SOL    HW216131   0.618   2.207   1.963 -0.7246  0.4493 -0.0301
 5078SOL     OW16132   0.503   1.247   5.702  0.2177  0.2611 -0.0325
 5078SOL    HW116133   0.591   1.219   5.740  0.2523  0.8042  0.2949
 5078SOL    HW216134   0.448   1.290   5.773 -0.2228  0.1291 -0.2918
 5079SOL     OW16135   5.789   5.041   3.791  0.0389 -0.3256  0.2164
 5079SOL    HW116136   5.710   5.016   3.735  1.4541 -3.1606 -0.6923
 5079SOL    HW216137   5.830   5.125   3.755 -0.0898 -1.1353 -1.9883
 5080SOL     OW16138   5.060   0.335   5.976 -0.2331 -0.4151 -0.1530
 5080SOL    HW116139   5.051   0.404   5.904 -1.2875 -0.6078 -0.2234
 5080SOL    HW216140   5.107   0.255   5.940  1.1559  0.3204 -0.0224
 5081SOL     OW16141   3.524   3.283   3.339 -0.2599  0.2035 -0.5177
 5081SOL    HW116142   3.472   3.248   3.260 -0.7409  0.9769 -0.5566
 5081SOL    HW216143   3.476   3.257   3.423 -0.5829  0.6975 -0.5443
 5082SOL     OW16144   6.998   3.953   5.973  0.5229  0.7624  0.2391
 5082SOL    HW116145   6.975   3.874   6.029  1.0647 -0.4640 -1.2063
 5082SOL    HW216146   6.926   4.022   5.980 -0.9012 -0.6656  0.0434
 5083SOL     OW16147   0.712   2.473   1.326 -0.4997  0.5155  0.1160
 5083SOL    HW116148   0.676   2.399   1.270  0.3473  0.3760 -0.2609
 5083SOL    HW216149   0.809   2.487   1.304 -0.6549  1.7458  0.1694
 5084SOL     OW16150   0.153   5.682   3.544  0.3835 -0.1757 -0.0882
 5084SOL    HW116151   0.185   5.657   3.452  1.3824 -0.2580  0.2714
 5084SOL    HW216152   0.090   5.759   3.538  1.2696  0.5150 -0.7545
 5085SOL     OW16153   6.772   3.667   1.694 -0.0296  0.7575  0.0164
 5085SOL    HW116154   6.818   3.707   1.615 -0.0953  0.1857 -0.3191
 5085SOL    HW216155   6.695   3.611   1.663  1.3484 -1.4217  0.2684
 5086SOL     OW16156   6.150   2.973   3.251 -0.1978 -0.1920 -0.3086
 5086SOL    HW116157   6.147   3.028   3.335 -0.3837  0.9302 -1.0229
 5086SOL    HW216158   6.062   2.976   3.205 -0.3448 -1.4784 -0.1438
 5087SOL     OW16159   4.558   5.418   5.062  0.0523 -1.0615 -0.0338
 5087SOL    HW116160   4.554   5.373   5.151  1.6238 -0.6963  0.2547
 5087SOL    HW216161   4.633   5.485   5.062  0.1643 -1.1494 -1.6730
 5088SOL     OW16162   3.951   6.822   4.224  0.4799  0.6449 -0.5085
 5088SOL    HW116163   3.866   6.808   4.273  0.6425  0.3371 -0.3112
 5088SOL    HW216164   4.000   6.901   4.263  0.1778  0.9659 -0.7739
 5089SOL     OW16165   0.045   2.424   4.539  0.1712 -0.1597 -0.3847
 5089SOL    HW116166   0.042   2.329   4.508  0.4572 -0.1808 -0.3527
 5089SOL    HW216167   0.133   2.465   4.513 -0.5554  0.5733 -1.7650
 5090SOL     OW16168   6.226   4.602   0.773  0.3617  0.4044 -0.6032
 5090SOL    HW116169   6.178   4.687   0.751 -1.1074 -0.3511 -0.4411
 5090SOL    HW216170   6.203   4.573   0.866  1.5792  0.2810 -0.3115
 5091SOL     OW16171   0.339   6.687   2.763 -0.0468  0.5013 -0.1259
 5091SOL    HW116172   0.321   6.626   2.840 -0.5124 -0.9923 -1.3692
 5091SOL    HW216173   0.431   6.670   2.727  0.8958  2.4798  1.1896
 5092SOL     OW16174   2.111   2.870   0.800 -0.3076 -0.0856 -0.1826
 5092SOL    HW116175   2.016   2.894   0.816 -0.4786 -0.1918 -0.9993
 5092SOL    HW216176   2.132   2.784   0.846 -0.8115 -0.4375 -0.6041
 5093SOL     OW16177   1.178   1.958   0.917  0.2673 -0.2827  0.3131
 5093SOL    HW116178   1.269   1.925   0.943 -0.1703 -0.9668  1.0261
 5093SOL    HW216179   1.138   2.010   0.993  0.2612  0.4712 -0.1882
 5094SOL     OW16180   2.157   1.502   6.245  0.4503 -0.2589  0.3623
 5094SOL    HW116181   2.129   1.582   6.191 -0.2746 -0.5367  0.3087
 5094SOL    HW216182   2.185   1.429   6.184 -0.2414 -0.5265  0.3526
 5095SOL     OW16183   2.742   6.801   4.735  0.3679 -0.6268 -0.5722
 5095SOL    HW116184   2.805   6.876   4.755  1.7681 -1.8342 -0.3425
 5095SOL    HW216185   2.727   6.746   4.818 -0.7819 -0.5230 -0.6927
 5096SOL     OW16186   1.632   0.045   2.617  0.0441  0.5734 -0.1390
 5096SOL    HW116187   1.615   0.142   2.633 -0.7531  0.6152 -1.1142
 5096SOL    HW216188   1.606   0.022   2.523  0.9089 -0.4332 -0.1451
 5097SOL     OW16189   0.961   2.379   6.437  0.5146  0.0902 -0.0477
 5097SOL    HW116190   1.042   2.412   6.486 -0.7385  0.7161  1.7013
 5097SOL    HW216191   0.945   2.283   6.462 -0.8535  0.7628  1.9109
 5098SOL     OW16192   2.153   4.222   2.192 -0.2749 -0.1022  0.1754
 5098SOL    HW116193   2.115   4.137   2.229  2.7790 -1.0607  1.4723
 5098SOL    HW216194   2.208   4.201   2.111 -1.0797  0.9676 -0.6661
 5099SOL     OW16195   1.179   1.611   5.799 -1.0569  0.0135 -0.6118
 5099SOL    HW116196   1.275   1.628   5.820 -1.3381 -0.2902  1.0375
 5099SOL    HW216197   1.171   1.576   5.705  0.2502  1.5721 -1.3503
 5100SOL     OW16198   4.127   4.720   4.231 -0.2498  0.5053 -0.1450
 5100SOL    HW116199   4.064   4.656   4.187 -0.7638  0.8547  0.0889
 5100SOL    HW216200   4.217   4.676   4.239 -0.4716 -0.0139 -0.4201
 5101SOL     OW16201   6.852   5.481   1.299 -0.7420  0.0895  0.2854
 5101SOL    HW116202   6.929   5.459   1.239 -0.0701  0.2063  1.0722
 5101SOL    HW216203   6.788   5.542   1.252 -0.3605 -0.0261 -0.3896
 5102SOL     OW16204   4.744   4.034   3.279  0.0279  0.1249 -0.2210
 5102SOL    HW116205   4.665   3.973   3.276  0.3500 -0.3358 -3.5660
 5102SOL    HW216206   4.720   4.119   3.326 -2.0150 -0.5483  0.0220
 5103SOL     OW16207   2.399   2.203   2.593 -0.3802  0.0140 -0.2830
 5103SOL    HW116208   2.356   2.225   2.680  2.2422 -1.4379  1.5162
 5103SOL    HW216209   2.464   2.276   2.568  0.7105 -0.7204  0.3275
 5104SOL     OW16210   0.932   5.755   0.011  0.7934 -0.6228  0.9697
 5104SOL    HW116211   0.973   5.818  -0.056  1.1799 -0.8659  0.9745
 5104SOL    HW216212   0.974   5.772   0.100 -0.6224  0.5881  1.4477
 5105SOL     OW16213   3.112   2.521   0.589 -0.2691  0.3066 -0.2520
 5105SOL    HW116214   3.196   2.532   0.642 -1.0717  1.2911  0.8812
 5105SOL    HW216215   3.112   2.432   0.545  1.2227  0.1601 -0.0198
 5106SOL     OW16216   1.557   5.570   2.186  0.3540  0.6102  0.0322
 5106SOL    HW116217   1.498   5.650   2.197  0.8903  0.8352  1.5229
 5106SOL    HW216218   1.501   5.487   2.183 -0.1843  1.0058 -1.2047
 5107SOL     OW16219   6.776   1.662   5.576  0.5744  0.1585 -0.0408
 5107SOL    HW116220   6.711   1.735   5.597 -2.4655 -2.2553 -0.3307
 5107SOL    HW216221   6.803   1.616   5.660 -0.1287 -0.4142 -0.1196
 5108SOL     OW16222   4.511   4.221   5.221  0.0732 -0.0836  0.2608
 5108SOL    HW116223   4.436   4.277   5.185  0.0859  1.1450  2.0038
 5108SOL    HW216224   4.475   4.158   5.290  0.0396 -2.4319 -1.7375
 5109SOL     OW16225   0.168   2.012   2.352  0.0345 -0.2563 -0.5526
 5109SOL    HW116226   0.074   1.978   2.356 -0.9438  2.2076 -0.7039
 5109SOL    HW216227   0.199   2.015   2.257 -0.6794  1.1749 -0.7677
 5110SOL     OW16228   0.667   5.735   0.047 -0.4155  0.0193  0.0486
 5110SOL    HW116229   0.764   5.750   0.030 -0.1265 -0.8394  0.8469
 5110SOL    HW216230   0.636   5.795   0.121 -0.3408 -0.1314  0.2037
 5111SOL     OW16231   2.593   0.394   6.590 -0.5350 -0.0380 -0.2873
 5111SOL    HW116232   2.617   0.326   6.521  0.8794  0.1439 -0.0063
 5111SOL    HW216233   2.676   0.424   6.638 -1.1132  1.8650 -0.3833
 5112SOL     OW16234   1.982   0.775   1.753 -0.0705  0.4577  0.1686
 5112SOL    HW116235   1.951   0.749   1.661  0.8895 -1.0642  0.2332
 5112SOL    HW216236   2.063   0.722   1.777 -0.9820 -0.0776  2.3601
 5113SOL     OW16237   0.282   2.153   6.776  0.5473  0.0485 -0.4529
 5113SOL    HW116238   0.323   2.196   6.695  0.1294  0.5005 -0.4265
 5113SOL    HW216239   0.333   2.069   6.798  0.8238  0.0593 -1.0253
 5114SOL     OW16240   5.118   4.993   6.644  0.7609 -0.3860 -0.1515
 5114SOL    HW116241   5.074   4.908   6.672 -2.3999  0.6114 -1.6119
 5114SOL    HW216242   5.062   5.071   6.674  2.4220  1.0923 -0.7083
 5115SOL     OW16243   3.742   5.000   4.820 -0.1730  0.4802 -0.0308
 5115SOL    HW116244   3.797   4.965   4.896 -0.1250 -0.0971 -0.3268
 5115SOL    HW216245   3.649   4.963   4.826 -0.2218  0.5858 -0.1404
 5116SOL     OW16246   0.417   4.237   1.096  0.1890  0.5331  0.1161
 5116SOL    HW116247   0.376   4.309   1.152  1.5874 -0.2044  2.2318
 5116SOL    HW216248   0.372   4.150   1.117  1.6735 -0.0013  1.2803
 5117SOL     OW16249   1.293   6.185   2.816 -0.7022  0.0299  0.6933
 5117SOL    HW116250   1.312   6.140   2.729 -1.4252 -1.3109  1.2205
 5117SOL    HW216251   1.371   6.172   2.877 -0.4159  0.5282  0.4470
 5118SOL     OW16252   3.329   1.363   2.296 -0.1160 -0.8145  0.3032
 5118SOL    HW116253   3.335   1.420   2.214  1.8364 -0.9023  0.3493
 5118SOL    HW216254   3.238   1.321   2.300 -0.0878 -1.2802 -2.1284
 5119SOL     OW16255   5.434   0.346   1.978 -0.3687 -0.0505  0.4645
 5119SOL    HW116256   5.482   0.337   2.066 -0.4008  0.4508  0.5347
 5119SOL    HW216257   5.387   0.434   1.975  1.2351  0.7984 -0.8540
 5120SOL     OW16258   3.863   1.856   2.602 -0.3881  0.3519  0.0268
 5120SOL    HW116259   3.877   1.805   2.687 -0.0842  0.8900  0.3016
 5120SOL    HW216260   3.813   1.798   2.537 -2.5739  0.6383  1.3264
 5121SOL     OW16261   2.540   4.463   3.500  0.1065 -0.3014 -0.3297
 5121SOL    HW116262   2.598   4.537   3.466 -1.4093  1.4738  0.7069
 5121SOL    HW216263   2.561   4.446   3.597 -0.4816 -0.2550 -0.1909
 5122SOL     OW16264   4.681   5.839   2.879  0.0116 -0.1960  0.1997
 5122SOL    HW116265   4.610   5.848   2.949  0.9563  0.2702  1.1082
 5122SOL    HW216266   4.735   5.922   2.874  1.2183 -0.9492  0.3083
 5123SOL     OW16267   0.674   2.785   2.365  0.3680 -0.0049  0.1375
 5123SOL    HW116268   0.728   2.703   2.344  0.1839 -0.2151  0.4717
 5123SOL    HW216269   0.736   2.857   2.399  0.3652 -0.4766  1.1799
 5124SOL     OW16270   1.213   1.174   6.914  0.4527  0.7999 -0.2865
 5124SOL    HW116271   1.262   1.119   6.846 -0.3618 -0.2870 -0.0218
 5124SOL    HW216272   1.143   1.229   6.867 -0.0689  0.0965 -0.3536
 5125SOL     OW16273   0.359   1.766   0.465 -0.0385  0.0477  0.1844
 5125SOL    HW116274   0.276   1.716   0.439 -0.8023  1.2396  0.2291
 5125SOL    HW216275   0.348   1.804   0.557  0.4965  0.3658  0.1220
 5126SOL     OW16276   3.082   2.125   1.225  0.4929  0.5478 -0.6708
 5126SOL    HW116277   3.177   2.158   1.223  0.2819  1.1499 -1.0502
 5126SOL    HW216278   3.054   2.099   1.133 -0.1320  1.6227 -0.8038
 5127SOL     OW16279   6.227   3.775   5.481  0.3930 -0.0191  0.5554
 5127SOL    HW116280   6.273   3.691   5.511 -0.3708 -1.2077 -1.4190
 5127SOL    HW216281   6.155   3.752   5.416  0.7269  2.2569 -0.7135
 5128SOL     OW16282   0.442   2.273   0.058  0.3011  0.2718  0.3755
 5128SOL    HW116283   0.405   2.216   0.132  1.3299  0.0552  0.7398
 5128SOL    HW216284   0.442   2.369   0.088 -1.1551  0.4497 -0.1261
 5129SOL     OW16285   5.953   3.605   5.369  0.7019 -0.2563 -1.3036
 5129SOL    HW116286   5.972   3.513   5.334  3.0169  0.7298 -2.8931
 5129SOL    HW216287   5.896   3.654   5.303 -1.7387 -0.8949  0.1852
 5130SOL     OW16288   6.773   6.680   4.673  0.1382 -0.2342  0.0316
 5130SOL    HW116289   6.735   6.768   4.704  1.0651  0.5923 -1.0765
 5130SOL    HW216290   6.703   6.631   4.621 -0.0433  0.3995 -0.3442
 5131SOL     OW16291   4.540   4.534   3.042  0.0697  0.2505  0.5620
 5131SOL    HW116292   4.488   4.578   3.115 -1.8529 -0.8121 -0.1085
 5131SOL    HW216293   4.552   4.437   3.063  1.9217  0.4681  0.7309
 5132SOL     OW16294   4.405   2.705   6.231 -0.4330 -0.5521  0.3315
 5132SOL    HW116295   4.426   2.761   6.151 -0.3292  0.4590  1.0500
 5132SOL    HW216296   4.371   2.615   6.201 -2.3380  0.5120 -0.8702
 5133SOL     OW16297   2.093   5.558   5.453  0.4129 -1.3727 -0.0071
 5133SOL    HW116298   2.054   5.605   5.532  0.7373 -2.3150  0.7421
 5133SOL    HW216299   2.175   5.607   5.422  0.5249 -1.2312  0.5065
 5134SOL     OW16300   4.078   0.237   1.714  0.4502 -0.0867  0.5500
 5134SOL    HW116301   4.144   0.301   1.753 -0.1225  2.1131 -1.8405
 5134SOL    HW216302   4.119   0.146   1.711  3.6288  1.2342 -1.1821
 5135SOL     OW16303   1.492   3.020   1.577  0.3031  0.3902  0.7036
 5135SOL    HW116304   1.410   2.981   1.620  0.5639 -1.1320 -0.1193
 5135SOL    HW216305   1.571   3.003   1.636  0.2080  0.9080  0.9881
 5136SOL     OW16306   1.009   0.860   0.382 -0.5230  0.4481 -0.5367
 5136SOL    HW116307   0.924   0.850   0.434  0.7100 -0.3705  1.4393
 5136SOL    HW216308   1.016   0.785   0.316 -1.1369  0.2975 -0.4385
 5137SOL     OW16309   4.852   0.676   2.301  0.1360 -0.2415  0.3580
 5137SOL    HW116310   4.874   0.719   2.388  0.7967  0.3497 -0.0820
 5137SOL    HW216311   4.931   0.622   2.269  0.0595 -0.1086 -0.0680
 5138SOL     OW16312   3.396   3.472   2.774 -0.2513 -0.2679 -0.3860
 5138SOL    HW116313   3.487   3.494   2.809 -0.3938 -0.3979  0.0799
 5138SOL    HW216314   3.389   3.501   2.678  0.5500 -0.9827 -0.6776
 5139SOL     OW16315   6.554   3.291   6.630 -0.3350 -0.6990  0.2428
 5139SOL    HW116316   6.579   3.384   6.604 -0.6802 -0.7578 -0.3103
 5139SOL    HW216317   6.617   3.226   6.588 -0.6967 -0.7741 -0.1913
 5140SOL     OW16318   3.033   2.839   5.598  0.4965  0.1012 -0.1038
 5140SOL    HW116319   2.998   2.889   5.677 -2.2714 -0.7844 -0.6301
 5140SOL    HW216320   3.110   2.889   5.558 -0.3334  2.4412  1.0227
 5141SOL     OW16321   1.368   2.667   2.381 -0.2523  0.3224 -0.3021
 5141SOL    HW116322   1.448   2.727   2.373  1.3608 -1.8090 -1.2172
 5141SOL    HW216323   1.329   2.676   2.473  3.2268 -1.0099  1.5008
 5142SOL     OW16324   0.463   0.186   2.228 -0.7110 -0.3743  0.2100
 5142SOL    HW116325   0.425   0.273   2.258  1.7062  0.6805  0.3984
 5142SOL    HW216326   0.434   0.114   2.292 -1.1796  0.6182  1.1446
 5143SOL     OW16327   4.589   4.686   2.285 -0.6349 -0.7077 -0.4066
 5143SOL    HW116328   4.638   4.746   2.348  0.3949 -1.1386 -0.7584
 5143SOL    HW216329   4.581   4.595   2.326 -0.2297 -0.9074 -0.7580
 5144SOL     OW16330   2.018   1.762   3.998 -0.2245 -0.0569 -0.1994
 5144SOL    HW116331   1.989   1.676   4.039 -2.1823  0.3528 -0.6152
 5144SOL    HW216332   2.105   1.790   4.037  0.0112 -1.7645  0.5878
 5145SOL     OW16333   6.356   4.661   6.573  0.2388  0.0563  0.3342
 5145SOL    HW116334   6.396   4.571   6.557 -1.1978 -0.3081 -1.5612
 5145SOL    HW216335   6.268   4.668   6.525 -0.5474  1.8619  1.8895
 5146SOL     OW16336   4.263   6.936   0.147 -0.3390  0.0150 -0.1307
 5146SOL    HW116337   4.284   6.854   0.199  0.1332  0.9226  1.1636
 5146SOL    HW216338   4.283   7.017   0.203 -1.7875  1.0030 -0.9742
 5147SOL     OW16339   4.734   0.649   4.598 -0.5180 -0.0565  0.4090
 5147SOL    HW116340   4.667   0.599   4.544 -1.4375  1.4919  0.0748
 5147SOL    HW216341   4.733   0.746   4.572  0.6652  0.2974  1.5753
 5148SOL     OW16342   5.228   3.906   1.502 -0.2483  0.4299 -0.3761
 5148SOL    HW116343   5.299   3.917   1.572  0.7187 -3.8336 -0.3831
 5148SOL    HW216344   5.260   3.943   1.415  0.3274  1.9511  0.4565
 5149SOL     OW16345   2.708   1.203   3.498 -0.4121  0.7474  0.2209
 5149SOL    HW116346   2.617   1.236   3.474 -0.0761  0.9844 -0.7647
 5149SOL    HW216347   2.705   1.104   3.510 -0.9277  0.8312  0.8333
 5150SOL     OW16348   6.899   1.744   3.793 -0.2493 -0.1312 -0.1819
 5150SOL    HW116349   6.857   1.776   3.708  1.2914  0.4983 -0.7603
 5150SOL    HW216350   6.829   1.708   3.855 -1.3144 -1.4696 -2.0762
 5151SOL     OW16351   5.280   5.235   0.472  0.5942 -0.4107  0.1106
 5151SOL    HW116352   5.282   5.147   0.519  1.4875  0.3789  1.6710
 5151SOL    HW216353   5.292   5.308   0.539  0.7692  0.8569 -1.2494
 5152SOL     OW16354   1.719   1.608   1.056  0.2607 -0.1374  0.4026
 5152SOL    HW116355   1.772   1.563   1.128  1.8153 -1.2766 -1.3681
 5152SOL    HW216356   1.635   1.555   1.039  0.8777 -1.0188  0.0196
 5153SOL     OW16357   2.337   0.341   6.589 -0.5167 -0.6025 -0.2719
 5153SOL    HW116358   2.437   0.344   6.587 -0.4980  0.3141  1.0461
 5153SOL    HW216359   2.307   0.302   6.676 -1.3175 -0.3208 -0.4195
 5154SOL     OW16360   0.730   0.761   1.101  0.0833 -0.1473  0.3683
 5154SOL    HW116361   0.634   0.772   1.126  0.0961  0.6651  0.1026
 5154SOL    HW216362   0.788   0.800   1.172  0.1628  0.7527 -0.1685
 5155SOL     OW16363   3.070   0.063   6.074 -0.1933  0.1758  0.5356
 5155SOL    HW116364   3.011   0.010   6.134 -0.6612  1.5580  1.3453
 5155SOL    HW216365   3.152   0.010   6.052 -0.3618 -0.6451  1.7957
 5156SOL     OW16366   5.652   3.839   4.988  0.2194 -0.1031 -0.3657
 5156SOL    HW116367   5.584   3.896   5.034  0.2158  0.0080 -0.5107
 5156SOL    HW216368   5.649   3.746   5.026 -0.7304 -0.3819 -1.1069
 5157SOL     OW16369   2.079   2.334   4.194 -1.1371  0.3868 -0.0299
 5157SOL    HW116370   2.123   2.283   4.269 -3.4934 -0.2417  1.0178
 5157SOL    HW216371   2.076   2.431   4.217  0.7163  0.6381 -0.6816
 5158SOL     OW16372   2.324   3.869   1.253 -0.1163  0.3412  0.0820
 5158SOL    HW116373   2.265   3.790   1.234 -1.1704  1.3928 -1.2185
 5158SOL    HW216374   2.420   3.839   1.253 -0.5259 -1.0789  0.4681
 5159SOL     OW16375   5.377   2.881   5.867  0.3522  0.0692 -0.4179
 5159SOL    HW116376   5.396   2.936   5.948 -0.8218  0.5670 -0.4660
 5159SOL    HW216377   5.330   2.797   5.894  0.3514  0.0306 -0.5395
 5160SOL     OW16378   6.570   0.130   4.657  0.2358 -0.3873  0.5343
 5160SOL    HW116379   6.526   0.097   4.574 -0.2145  0.9110  0.2336
 5160SOL    HW216380   6.527   0.216   4.686  0.7771 -0.5146  1.7793
 5161SOL     OW16381   1.809   0.494   4.858  0.3096  0.0154  0.1517
 5161SOL    HW116382   1.869   0.521   4.933 -1.1802 -0.5045  1.6160
 5161SOL    HW216383   1.836   0.540   4.774  0.9315  2.0852  1.4185
 5162SOL     OW16384   6.184   1.868   6.169 -0.4457 -0.1746  0.5170
 5162SOL    HW116385   6.101   1.814   6.151  1.4508 -2.3626 -2.7069
 5162SOL    HW216386   6.259   1.806   6.191  1.5405  1.1674 -2.0388
 5163SOL     OW16387   5.596   1.102   2.569  0.2966  0.3575 -0.3906
 5163SOL    HW116388   5.691   1.116   2.594  0.2568  0.7099 -0.4359
 5163SOL    HW216389   5.536   1.149   2.634  0.2111  1.7940 -1.4618
 5164SOL     OW16390   2.393   1.484   0.125 -0.3163 -0.2354 -0.8988
 5164SOL    HW116391   2.333   1.453   0.199  1.7919 -0.4937  0.8290
 5164SOL    HW216392   2.488   1.460   0.147  0.3920 -0.5636 -3.8700
 5165SOL     OW16393   5.125   6.668   5.578 -0.3607  0.7340  0.6100
 5165SOL    HW116394   5.224   6.674   5.576 -0.2939  0.9717  2.6991
 5165SOL    HW216395   5.095   6.583   5.535  1.0092 -1.1295  3.1383
 5166SOL     OW16396   6.235   5.791   5.889  0.4829  0.2450 -0.1252
 5166SOL    HW116397   6.274   5.858   5.953  0.8144  0.6912 -0.7874
 5166SOL    HW216398   6.301   5.719   5.872  0.6047  0.4236 -0.4036
 5167SOL     OW16399   4.656   4.893   5.984  0.3849  0.2179  0.0690
 5167SOL    HW116400   4.674   4.852   6.073 -1.1373  1.5381  1.0473
 5167SOL    HW216401   4.618   4.985   5.997  1.9624  1.2464 -1.9905
 5168SOL     OW16402   6.910   2.463   2.753 -0.6233  0.0296 -0.2021
 5168SOL    HW116403   6.843   2.519   2.801 -0.4816  0.9207 -1.0093
 5168SOL    HW216404   6.932   2.505   2.665  0.8555 -0.3254 -0.0425
 5169SOL     OW16405   4.563   5.715   3.377  0.0507 -0.1008 -0.1806
 5169SOL    HW116406   4.622   5.663   3.439 -0.9520 -1.4648 -0.3353
 5169SOL    HW216407   4.553   5.808   3.412  2.3132  0.1968 -0.1762
 5170SOL     OW16408   2.763   2.228   6.449 -0.1052 -0.3082  0.2954
 5170SOL    HW116409   2.737   2.136   6.478  2.2498 -1.4236 -0.8408
 5170SOL    HW216410   2.828   2.266   6.515 -1.9947  1.1309  1.4305
 5171SOL     OW16411   1.671   7.000   0.111  0.0014  0.3350  0.1217
 5171SOL    HW116412   1.744   6.986   0.178  1.3850  1.3455 -1.1271
 5171SOL    HW216413   1.590   6.948   0.140  1.0771 -0.5634  1.7095
 5172SOL     OW16414   3.910   4.722   0.346 -0.1891  0.1014 -0.0498
 5172SOL    HW116415   3.969   4.642   0.335 -0.1031 -0.0329  1.2912
 5172SOL    HW216416   3.819   4.702   0.311 -0.1897 -0.6124  0.3553
 5173SOL     OW16417   4.857   6.491   4.909 -0.3499  0.0691  0.4130
 5173SOL    HW116418   4.834   6.585   4.884  0.3068  0.3653  0.8836
 5173SOL    HW216419   4.786   6.452   4.967 -0.5715  0.3126  0.3019
 5174SOL     OW16420   1.313   6.543   3.294 -0.0080  0.1939  0.1506
 5174SOL    HW116421   1.222   6.555   3.334 -0.5501  0.0823 -0.9884
 5174SOL    HW216422   1.304   6.501   3.203  1.2972 -1.3396  0.6788
 5175SOL     OW16423   1.824   0.656   0.537  0.0297 -0.0386  0.3105
 5175SOL    HW116424   1.807   0.710   0.620  0.1692  0.5946 -0.0605
 5175SOL    HW216425   1.920   0.627   0.536  0.5234  1.4876 -0.4772
 5176SOL     OW16426   5.041   6.327   5.827  0.3801 -0.1827 -0.6675
 5176SOL    HW116427   5.110   6.396   5.802 -1.1170  0.9460 -1.9436
 5176SOL    HW216428   5.066   6.239   5.787  1.1297  0.1731 -1.0120
 5177SOL     OW16429   4.591   4.643   0.317  0.0343  0.3137 -0.0862
 5177SOL    HW116430   4.652   4.573   0.282 -0.8908 -1.0501  0.8989
 5177SOL    HW216431   4.541   4.685   0.241  2.0145  1.3572 -0.8910
 5178SOL     OW16432   1.243   3.556   1.644 -0.0833 -0.0300 -0.3171
 5178SOL    HW116433   1.312   3.484   1.646 -0.5128 -0.4279  1.0702
 5178SOL    HW216434   1.167   3.528   1.586  0.6856  0.2284 -1.5013
 5179SOL     OW16435   3.640   6.303   2.464  0.3403  0.9072 -0.0044
 5179SOL    HW116436   3.545   6.333   2.460  0.3650  0.9604 -0.1899
 5179SOL    HW216437   3.650   6.216   2.416 -0.1427 -0.4801  2.2729
 5180SOL     OW16438   3.407   5.211   3.015 -0.2727  0.2083 -0.4986
 5180SOL    HW116439   3.416   5.111   3.008  0.0560  0.2675 -0.9648
 5180SOL    HW216440   3.462   5.254   2.944 -1.4516  0.6775 -1.1593
 5181SOL     OW16441   0.601   2.321   5.942  0.2819 -0.2240  0.5177
 5181SOL    HW116442   0.627   2.417   5.954  0.2736 -0.3035  1.2590
 5181SOL    HW216443   0.511   2.315   5.898  0.7358  0.0831 -0.4693
 5182SOL     OW16444   1.787   6.038   3.307 -0.0203  0.4719  0.3054
 5182SOL    HW116445   1.762   6.126   3.268 -0.3202 -0.2944 -1.3289
 5182SOL    HW216446   1.886   6.033   3.319  0.1098  0.6288 -0.6439
 5183SOL     OW16447   5.607   1.975   2.501 -0.1735 -0.6159 -0.2790
 5183SOL    HW116448   5.631   1.962   2.405  0.4090 -0.8997 -0.1022
 5183SOL    HW216449   5.529   1.916   2.524 -0.1322 -0.7578 -0.5035
 5184SOL     OW16450   2.547   0.100   2.942 -0.0924 -0.0980  0.1765
 5184SOL    HW116451   2.547   0.087   2.843  5.5124 -2.3205  0.0611
 5184SOL    HW216452   2.533   0.012   2.987  0.6964  0.2462  1.1472
 5185SOL     OW16453   4.200   2.135   1.675  0.3639  0.3028 -0.1762
 5185SOL    HW116454   4.261   2.092   1.609  1.0385  0.7138  0.1755
 5185SOL    HW216455   4.142   2.066   1.717 -0.2505  0.0623 -1.3763
 5186SOL     OW16456   1.118   2.295   6.124 -0.0022 -0.4589 -0.1047
 5186SOL    HW116457   1.066   2.219   6.163  2.9320 -1.5635  1.9981
 5186SOL    HW216458   1.161   2.348   6.197  0.2420  1.6155 -1.6451
 5187SOL     OW16459   2.287   4.124   4.217 -0.2844 -0.1040 -0.1778
 5187SOL    HW116460   2.341   4.192   4.266 -1.0390  0.3019  0.1152
 5187SOL    HW216461   2.202   4.107   4.267  1.1917 -3.6147  1.4957
 5188SOL     OW16462   0.944   1.834   1.998  0.4924 -0.1357 -0.5135
 5188SOL    HW116463   0.915   1.920   1.957  1.1125  0.1095 -0.4410
 5188SOL    HW216464   0.955   1.765   1.926  0.8557  0.0905 -0.6768
 5189SOL     OW16465   4.053   6.103   5.253  0.6552 -0.0810  1.2956
 5189SOL    HW116466   4.004   6.181   5.214  1.4295  0.6533  1.7437
 5189SOL    HW216467   3.991   6.050   5.311 -0.0648 -0.2209  0.4152
 5190SOL     OW16468   2.832   4.122   1.497  0.0742 -0.8366 -0.4222
 5190SOL    HW116469   2.890   4.150   1.573  1.0452 -0.9616 -1.1056
 5190SOL    HW216470   2.864   4.035   1.461 -0.2317 -0.6671 -1.1253
 5191SOL     OW16471   3.108   4.499   6.907  0.0575  0.0667 -0.1159
 5191SOL    HW116472   3.022   4.449   6.893  0.2010 -0.4174  0.6426
 5191SOL    HW216473   3.093   4.596   6.889 -0.4331 -0.1336 -0.8234
 5192SOL     OW16474   6.876   3.815   1.875 -0.4900 -0.2111 -0.2038
 5192SOL    HW116475   6.832   3.785   1.791  2.2346 -0.2880 -1.7111
 5192SOL    HW216476   6.920   3.737   1.919  0.3704  0.2979 -0.1500
 5193SOL     OW16477   2.673   2.412   3.794 -0.0211 -0.2726  0.3364
 5193SOL    HW116478   2.714   2.440   3.880  1.1371 -0.0916 -0.2519
 5193SOL    HW216479   2.622   2.327   3.807  0.1311 -0.2398  1.1907
 5194SOL     OW16480   2.713   0.561   5.156  0.1967  0.1278  0.0877
 5194SOL    HW116481   2.795   0.509   5.133  1.1646  1.5761  0.1842
 5194SOL    HW216482   2.638   0.531   5.097  1.0300 -0.5360 -0.6703
 5195SOL     OW16483   1.080   0.824   5.963  0.4474 -0.1213 -0.6490
 5195SOL    HW116484   1.141   0.775   5.901  0.2906 -0.3065 -0.6611
 5195SOL    HW216485   1.014   0.876   5.910 -0.6891 -1.5214 -0.6780
 5196SOL     OW16486   0.470   5.978   2.500  0.4140 -0.0306  0.1595
 5196SOL    HW116487   0.447   5.881   2.490 -0.1696  0.1016  0.1511
 5196SOL    HW216488   0.449   6.026   2.414  3.1491 -0.3390 -0.7722
 5197SOL     OW16489   2.156   3.925   4.820 -0.2984 -0.0724 -0.1408
 5197SOL    HW116490   2.222   3.991   4.856 -0.2134  0.3533 -1.0711
 5197SOL    HW216491   2.063   3.957   4.839 -0.2718  0.7603 -1.3460
 5198SOL     OW16492   5.847   4.508   2.998  0.3724 -0.4844  0.2363
 5198SOL    HW116493   5.868   4.555   2.912  0.0601  0.7645  0.8280
 5198SOL    HW216494   5.911   4.432   3.010  0.7026 -0.4093 -0.8776
 5199SOL     OW16495   0.663   6.289   0.834 -0.0638 -0.3854  0.0301
 5199SOL    HW116496   0.753   6.247   0.843  1.3472  2.3328 -0.3827
 5199SOL    HW216497   0.642   6.342   0.916  0.0082  1.2718 -0.9848
 5200SOL     OW16498   0.386   3.882   5.609 -0.7352 -0.1169 -0.4793
 5200SOL    HW116499   0.357   3.876   5.514  0.2916 -0.5927 -0.7822
 5200SOL    HW216500   0.318   3.932   5.662 -1.4170 -0.0268 -1.4195
 5201SOL     OW16501   0.992   5.115   4.671 -0.0266 -0.6029  0.7772
 5201SOL    HW116502   0.897   5.119   4.702  0.2611 -1.2703  1.8177
 5201SOL    HW216503   1.048   5.068   4.741  1.1216  0.0627  0.3348
 5202SOL     OW16504   1.288   5.764   7.008 -0.0221 -0.0662  0.2950
 5202SOL    HW116505   1.258   5.837   6.947 -1.2423 -0.0524  0.8900
 5202SOL    HW216506   1.286   5.677   6.958 -1.2118 -0.0853  0.3568
 5203SOL     OW16507   0.329   3.097   1.347 -0.0703  0.0621 -0.4677
 5203SOL    HW116508   0.317   3.141   1.436 -0.2930 -4.4473  2.0103
 5203SOL    HW216509   0.239   3.075   1.308 -0.0213 -1.5540  0.2648
 5204SOL     OW16510   4.265   5.103   4.470  0.2361  0.1636 -0.2023
 5204SOL    HW116511   4.348   5.051   4.494  0.8758  1.0526 -0.4546
 5204SOL    HW216512   4.289   5.199   4.456 -0.7968  0.3727 -0.5764
 5205SOL     OW16513   5.755   6.021   0.538  0.0442 -0.1589  0.4948
 5205SOL    HW116514   5.747   6.000   0.636 -1.3556 -1.5733  0.1239
 5205SOL    HW216515   5.698   5.957   0.486  1.1347  0.2576 -1.2926
 5206SOL     OW16516   6.912   4.969   3.602 -0.4483 -0.3933  0.2746
 5206SOL    HW116517   6.862   4.965   3.689  1.0177 -1.1426  1.1123
 5206SOL    HW216518   6.930   5.064   3.579 -0.5186 -0.1979  0.9844
 5207SOL     OW16519   1.420   0.406   1.169 -0.3142 -0.3288 -0.1626
 5207SOL    HW116520   1.349   0.361   1.115 -0.5581  0.8168 -0.8307
 5207SOL    HW216521   1.395   0.404   1.265 -0.1724 -1.8511 -0.1199
 5208SOL     OW16522   4.068   2.259   0.428  0.4002 -0.8218 -0.1984
 5208SOL    HW116523   4.020   2.305   0.353 -0.7450  1.3174  1.7290
 5208SOL    HW216524   4.098   2.327   0.494  1.5392 -2.6367  1.2357
 5209SOL     OW16525   0.549   4.225   3.628 -0.4203  0.2536  0.2979
 5209SOL    HW116526   0.646   4.213   3.606 -0.5213  1.5610 -1.0060
 5209SOL    HW216527   0.536   4.313   3.674 -1.1020  0.5532 -0.4461
 5210SOL     OW16528   4.978   2.776   3.622  0.1304 -0.2998 -0.1486
 5210SOL    HW116529   4.971   2.683   3.657  1.2429 -0.2742  0.1986
 5210SOL    HW216530   4.907   2.792   3.553 -0.6292 -1.1038  0.4330
 5211SOL     OW16531   3.147   4.543   0.547  0.1882  0.4338  0.6612
 5211SOL    HW116532   3.114   4.507   0.459  0.3364 -1.3236  1.2688
 5211SOL    HW216533   3.080   4.607   0.584  0.0183  1.0274 -0.6158
 5212SOL     OW16534   1.165   6.640   6.515 -0.3927 -0.5712  0.1706
 5212SOL    HW116535   1.243   6.679   6.565  0.4202 -2.3114  0.3196
 5212SOL    HW216536   1.196   6.600   6.430 -0.9707 -2.0418  0.6217
 5213SOL     OW16537   6.520   0.874   0.346 -0.5114 -0.1576  0.1915
 5213SOL    HW116538   6.546   0.889   0.251 -0.8158 -1.5171 -0.1281
 5213SOL    HW216539   6.433   0.825   0.350 -1.1672  1.0421  1.1999
 5214SOL     OW16540   4.536   3.090   1.055 -0.9418 -1.1718  0.2798
 5214SOL    HW116541   4.553   2.991   1.063  0.3670 -0.9808  0.0638
 5214SOL    HW216542   4.499   3.123   1.142  0.3172 -1.5559  1.0094
 5215SOL     OW16543   6.313   4.566   3.186 -0.0231 -0.2567 -0.2489
 5215SOL    HW116544   6.231   4.618   3.212  0.8641  1.0451  0.0141
 5215SOL    HW216545   6.354   4.608   3.105  0.5434 -0.7327 -0.2148
 5216SOL     OW16546   1.578   5.807   0.854  0.5354  0.0281  0.5770
 5216SOL    HW116547   1.653   5.745   0.829  0.5840 -0.8056  2.5755
 5216SOL    HW216548   1.607   5.864   0.931 -1.3153 -1.3154  2.3636
 5217SOL     OW16549   2.205   5.774   4.487  0.1985 -0.0586 -0.4216
 5217SOL    HW116550   2.173   5.775   4.582 -0.5515  0.4256 -0.6645
 5217SOL    HW216551   2.260   5.692   4.471 -0.3330 -0.5530  0.2206
 5218SOL     OW16552   1.285   0.917   1.228  0.0698  0.5967 -0.1182
 5218SOL    HW116553   1.186   0.906   1.238  0.2535 -0.6162  0.5102
 5218SOL    HW216554   1.317   0.990   1.288 -0.5236  1.4539 -0.8168
 5219SOL     OW16555   2.782   5.437   0.963  0.7275  0.1086 -0.0150
 5219SOL    HW116556   2.851   5.376   1.000 -0.0555 -0.5004  0.4627
 5219SOL    HW216557   2.827   5.517   0.923  1.6560  0.1934  1.1390
 5220SOL     OW16558   1.116   0.525   1.352 -0.2086 -0.0398 -0.1447
 5220SOL    HW116559   1.057   0.479   1.285 -0.3520  1.5471 -1.1636
 5220SOL    HW216560   1.115   0.623   1.335 -0.2735  0.4422  2.2396
 5221SOL     OW16561   4.784   1.913   1.048 -0.1059  0.8267  0.2546
 5221SOL    HW116562   4.828   1.843   0.992  0.7160 -0.0238  1.9166
 5221SOL    HW216563   4.728   1.869   1.119 -0.3583  1.8668  0.7178
 5222SOL     OW16564   6.120   5.703   1.896  0.4615  0.3189  0.2665
 5222SOL    HW116565   6.060   5.692   1.975 -0.9270  2.6920 -0.3550
 5222SOL    HW216566   6.201   5.754   1.924  2.8543 -3.6273  1.3100
 5223SOL     OW16567   2.770   5.529   1.278  0.7211  0.5492  0.1674
 5223SOL    HW116568   2.763   5.496   1.183 -1.3809  0.3411  0.3410
 5223SOL    HW216569   2.794   5.626   1.277 -0.4917  0.8685 -0.6530
 5224SOL     OW16570   6.149   5.916   5.007  0.2277 -0.0450 -0.4020
 5224SOL    HW116571   6.213   5.887   4.936  0.8438 -1.2805  0.6263
 5224SOL    HW216572   6.174   6.008   5.038  1.4485 -0.4810 -0.0722
 5225SOL     OW16573   1.159   6.160   5.921 -0.2343 -0.0863  0.1919
 5225SOL    HW116574   1.123   6.076   5.963  1.0595 -1.3834 -1.1779
 5225SOL    HW216575   1.142   6.158   5.822  0.1229  1.1218  0.0911
 5226SOL     OW16576   0.610   0.502   3.366 -0.0839  0.5614  0.2461
 5226SOL    HW116577   0.620   0.589   3.415  0.1335  0.2453  0.7639
 5226SOL    HW216578   0.700   0.458   3.357 -0.1652  0.4754 -0.1837
 5227SOL     OW16579   5.280   2.243   2.990 -0.1018 -0.0312  0.4349
 5227SOL    HW116580   5.283   2.157   3.041  1.0195  0.6329  1.5494
 5227SOL    HW216581   5.293   2.319   3.053 -0.2790  0.9179 -0.6486
 5228SOL     OW16582   4.947   5.677   2.855  0.2347 -0.1178 -0.3067
 5228SOL    HW116583   4.888   5.695   2.934 -0.8212 -1.4640 -0.7602
 5228SOL    HW216584   4.947   5.757   2.795  0.0739  0.4579  0.4470
 5229SOL     OW16585   6.480   1.999   4.894 -0.9054  0.7420 -0.0332
 5229SOL    HW116586   6.428   1.934   4.950  1.3319 -0.8224  0.3319
 5229SOL    HW216587   6.418   2.070   4.861 -2.7043  0.6707  2.8308
 5230SOL     OW16588   1.312   2.061   6.163 -0.2620 -0.4664 -0.3275
 5230SOL    HW116589   1.224   2.099   6.135  0.5524 -0.8955 -3.9350
 5230SOL    HW216590   1.306   1.961   6.162 -0.0013 -0.4982  0.5237
 5231SOL     OW16591   3.853   3.330   3.143 -0.3007  0.2018  0.7421
 5231SOL    HW116592   3.881   3.235   3.158  2.5965  0.8925  0.2404
 5231SOL    HW216593   3.799   3.362   3.221 -1.4494 -1.8395  0.8639
 5232SOL     OW16594   6.243   2.728   5.163  0.2675 -0.0738 -0.1908
 5232SOL    HW116595   6.203   2.802   5.109 -0.4104  0.0771  0.5003
 5232SOL    HW216596   6.215   2.640   5.125 -0.1386  0.0319 -0.1450
 5233SOL     OW16597   6.741   0.257   1.143  0.2934 -0.5012  0.1442
 5233SOL    HW116598   6.732   0.167   1.185 -0.8833 -0.6512 -0.4173
 5233SOL    HW216599   6.654   0.306   1.148 -0.1316 -0.8143 -2.7635
 5234SOL     OW16600   4.241   3.983   1.290 -0.0043 -0.0184  0.2555
 5234SOL    HW116601   4.157   4.025   1.323  0.8587  0.4467  1.9906
 5234SOL    HW216602   4.316   4.004   1.352  1.1206 -1.5922 -0.4743
 5235SOL     OW16603   3.067   1.489   1.896 -0.0400  0.2013  0.1584
 5235SOL    HW116604   3.037   1.573   1.850  1.0278 -0.0292 -1.0236
 5235SOL    HW216605   2.988   1.430   1.914 -0.4582  0.1265 -1.7747
 5236SOL     OW16606   6.491   4.204   1.591  0.2401 -0.6209  0.0751
 5236SOL    HW116607   6.429   4.208   1.669  0.0766 -1.6284  0.0137
 5236SOL    HW216608   6.453   4.256   1.515 -0.3890 -0.9772  0.1381
 5237SOL     OW16609   0.828   2.924   3.042 -0.4634 -0.4791  0.0001
 5237SOL    HW116610   0.792   2.877   2.961 -2.0185 -1.3485  1.1309
 5237SOL    HW216611   0.864   3.013   3.016 -1.2215 -0.6065 -1.6125
 5238SOL     OW16612   3.158   3.864   0.021  0.0509  0.2423 -0.1272
 5238SOL    HW116613   3.092   3.894  -0.048 -1.8300  2.2379  2.3702
 5238SOL    HW216614   3.132   3.774   0.054 -1.5958  1.0393  0.8949
 5239SOL     OW16615   2.906   3.704   4.045  0.2633  0.4957 -0.4803
 5239SOL    HW116616   2.972   3.778   4.031  1.0033 -0.3359 -1.5021
 5239SOL    HW216617   2.894   3.653   3.960  0.8724 -1.4530  0.5428
 5240SOL     OW16618   4.584   2.410   4.277 -0.0565  0.0799  0.4037
 5240SOL    HW116619   4.582   2.508   4.296  1.8836  0.1007  0.7116
 5240SOL    HW216620   4.679   2.381   4.262 -0.5826 -1.7832  0.4524
 5241SOL     OW16621   4.718   0.177   5.728  0.2950  0.3346 -0.4048
 5241SOL    HW116622   4.817   0.171   5.742  0.3087  1.7609  0.2270
 5241SOL    HW216623   4.699   0.204   5.634  0.5298  0.6426 -0.3655
 5242SOL     OW16624   2.719   0.525   5.855 -0.2860  0.0348  0.2465
 5242SOL    HW116625   2.760   0.434   5.867  0.1606  0.0583 -0.9644
 5242SOL    HW216626   2.645   0.537   5.921 -1.2157 -1.7172 -0.4093
 5243SOL     OW16627   2.078   3.124   1.647  0.2413 -0.0940  0.3549
 5243SOL    HW116628   2.079   3.185   1.568  1.1699 -0.5178  0.0290
 5243SOL    HW216629   2.052   3.032   1.617  1.9344 -0.5772  0.2769
 5244SOL     OW16630   4.533   3.805   5.497 -0.9134 -0.1905  0.2644
 5244SOL    HW116631   4.581   3.838   5.578 -0.6780  1.7595 -0.6057
 5244SOL    HW216632   4.465   3.873   5.468  0.4832  0.2156 -2.4017
 5245SOL     OW16633   5.189   4.239   5.089  0.2773 -0.4462  0.7340
 5245SOL    HW116634   5.160   4.222   5.183 -0.0836 -0.0508  0.6994
 5245SOL    HW216635   5.182   4.337   5.070  1.2616 -0.3894  0.5976
 5246SOL     OW16636   2.335   4.303   3.756  0.1861 -0.2175 -0.6497
 5246SOL    HW116637   2.250   4.355   3.745 -0.1652 -0.9286 -1.4274
 5246SOL    HW216638   2.331   4.250   3.840 -0.1799 -0.3296 -0.7383
 5247SOL     OW16639   1.244   4.106   6.380 -0.7927 -0.7071  0.3377
 5247SOL    HW116640   1.296   4.192   6.376 -0.2778 -1.0632 -1.3141
 5247SOL    HW216641   1.156   4.118   6.335 -1.3849 -0.6501  1.4574
 5248SOL     OW16642   6.364   2.124   6.846  0.3605  0.2180 -0.7485
 5248SOL    HW116643   6.345   2.075   6.932  0.4894  0.3418 -0.6491
 5248SOL    HW216644   6.278   2.136   6.796  0.1022  1.1073 -0.1182
 5249SOL     OW16645   2.181   4.362   5.764 -0.5236 -0.0471  0.1944
 5249SOL    HW116646   2.233   4.382   5.847  1.1374  1.2924 -1.0978
 5249SOL    HW216647   2.205   4.271   5.730 -2.2151 -1.1723  1.8455
 5250SOL     OW16648   1.385   2.329   0.155  0.3081  0.1947  0.5988
 5250SOL    HW116649   1.374   2.247   0.099  1.5893 -0.8207  1.7791
 5250SOL    HW216650   1.347   2.407   0.107 -2.2199 -1.2834  0.0079
 5251SOL     OW16651   1.011   2.189   1.042  0.0333 -0.0594  0.1196
 5251SOL    HW116652   1.083   2.245   1.000  1.1325 -1.9658 -0.6697
 5251SOL    HW216653   0.922   2.216   1.005  0.5895  0.7889 -0.6527
 5252SOL     OW16654   6.648   5.229   2.537 -0.0390 -0.1977  0.2069
 5252SOL    HW116655   6.706   5.149   2.525 -0.2251 -0.4955  1.1937
 5252SOL    HW216656   6.599   5.248   2.452  1.1025 -0.2518 -0.4732
 5253SOL     OW16657   5.533   2.985   6.497 -0.0997  0.4769  0.2276
 5253SOL    HW116658   5.516   2.966   6.400  1.0585  1.6637 -0.2309
 5253SOL    HW216659   5.572   2.903   6.540 -0.6685 -0.0749 -0.2859
 5254SOL     OW16660   4.593   1.740   5.601 -0.4395  0.1555  0.3179
 5254SOL    HW116661   4.662   1.677   5.565  0.7458  1.9726 -0.7663
 5254SOL    HW216662   4.502   1.699   5.590  0.3392 -1.8704  0.8509
 5255SOL     OW16663   2.283   4.871   6.756  0.2407 -0.4986  0.1125
 5255SOL    HW116664   2.190   4.841   6.776  1.2329 -3.5777  0.5731
 5255SOL    HW216665   2.295   4.878   6.657 -0.4302 -0.1693  0.0466
 5256SOL     OW16666   3.208   5.415   1.759  0.6138  0.5431 -0.2224
 5256SOL    HW116667   3.125   5.390   1.809  0.5872  0.7494 -0.1605
 5256SOL    HW216668   3.263   5.333   1.743  0.4882  0.4336 -0.0986
 5257SOL     OW16669   3.798   1.738   1.928 -0.4600 -0.6726  0.7517
 5257SOL    HW116670   3.739   1.760   2.006  3.0457  0.9170  3.2340
 5257SOL    HW216671   3.847   1.653   1.946  0.7084 -0.0637  0.5686
 5258SOL     OW16672   5.990   3.935   0.604 -0.0841  0.0598  0.2947
 5258SOL    HW116673   6.007   4.026   0.641  2.1154 -0.4410  0.6678
 5258SOL    HW216674   6.011   3.935   0.506  0.3943 -0.1504  0.3950
 5259SOL     OW16675   6.175   4.832   2.324 -0.0977  0.1038  0.4782
 5259SOL    HW116676   6.086   4.805   2.360 -0.3943  0.0333 -0.2722
 5259SOL    HW216677   6.237   4.754   2.328 -0.2287  0.0007  0.5279
 5260SOL     OW16678   5.796   1.536   2.068 -0.3331  0.3112 -0.0628
 5260SOL    HW116679   5.840   1.454   2.031 -0.6594  0.8924 -1.8094
 5260SOL    HW216680   5.704   1.513   2.100  0.3147 -0.4041  1.3650
 5261SOL     OW16681   1.511   3.771   4.973 -0.3210 -0.1969  0.4753
 5261SOL    HW116682   1.502   3.678   5.008 -1.6510 -0.9349 -1.6629
 5261SOL    HW216683   1.420   3.810   4.957  0.1628  1.8969  2.2209
 5262SOL     OW16684   0.978   2.244   1.991  0.1521  0.6756  0.0423
 5262SOL    HW116685   0.914   2.244   2.068  0.6997  1.5358  0.5123
 5262SOL    HW216686   1.056   2.186   2.012  0.2996  0.9066  0.1323
 5263SOL     OW16687   0.396   1.164   4.952  0.2257 -0.2601 -0.1454
 5263SOL    HW116688   0.340   1.086   4.979  0.7990  0.1417  2.4991
 5263SOL    HW216689   0.337   1.242   4.931 -0.3076 -0.1195  1.6795
 5264SOL     OW16690   6.967   0.876   0.314  0.0289 -0.0145 -0.6250
 5264SOL    HW116691   7.056   0.887   0.360  0.5681 -1.6513 -1.2168
 5264SOL    HW216692   6.982   0.845   0.220 -1.1135  2.1896 -1.6002
 5265SOL     OW16693   5.422   3.463   3.027 -0.1262  0.3319 -1.0273
 5265SOL    HW116694   5.326   3.454   3.002 -0.4563 -0.1598  0.3392
 5265SOL    HW216695   5.459   3.373   3.051  0.5713  0.5759 -1.1599
 5266SOL     OW16696   1.237   1.012   0.368  0.0198 -0.1334 -0.1050
 5266SOL    HW116697   1.238   1.076   0.291 -0.5336  0.5213  0.4106
 5266SOL    HW216698   1.149   0.965   0.371 -0.5629  0.9351  0.9603
 5267SOL     OW16699   3.589   3.660   4.850  0.1159  0.4537  0.1887
 5267SOL    HW116700   3.578   3.712   4.765 -1.6042  0.2888  0.2796
 5267SOL    HW216701   3.679   3.618   4.852  1.1480  2.4797 -0.4141
 5268SOL     OW16702   5.500   5.047   6.167  0.6134 -0.2214 -0.3970
 5268SOL    HW116703   5.467   4.954   6.184  1.3088 -0.8084 -1.9898
 5268SOL    HW216704   5.599   5.044   6.150  0.4833  0.6757 -1.3703
 5269SOL     OW16705   3.590   6.140   4.009 -0.0107  0.7332 -0.3357
 5269SOL    HW116706   3.672   6.105   3.963  0.2681 -0.2177  0.8409
 5269SOL    HW216707   3.511   6.123   3.950  0.3704 -0.2090 -0.6073
 5270SOL     OW16708   1.176   0.486   4.133  0.0937  0.0244 -0.2572
 5270SOL    HW116709   1.101   0.487   4.199 -0.2400 -0.3249 -0.6273
 5270SOL    HW216710   1.259   0.453   4.178 -0.4780 -1.6285 -0.3673
 5271SOL     OW16711   5.933   3.383   5.105  0.2840 -0.2228  0.3930
 5271SOL    HW116712   5.907   3.467   5.058 -0.9569 -0.8410 -0.0757
 5271SOL    HW216713   5.855   3.351   5.159  0.4398 -1.5495 -0.1488
 5272SOL     OW16714   3.166   0.489   3.951 -0.1656 -0.1449  0.6801
 5272SOL    HW116715   3.133   0.408   3.903  1.1171 -0.6187  0.5714
 5272SOL    HW216716   3.236   0.463   4.017  1.0661  0.9791 -0.1255
 5273SOL     OW16717   5.527   1.259   5.966  0.5312 -0.2744  0.2392
 5273SOL    HW116718   5.588   1.248   5.888  1.0767  0.5272  0.5392
 5273SOL    HW216719   5.434   1.232   5.940  0.9007 -0.9846 -0.3772
 5274SOL     OW16720   6.567   3.865   4.580 -0.2767  0.0335 -0.3225
 5274SOL    HW116721   6.473   3.883   4.610 -0.3532 -1.1984  0.1945
 5274SOL    HW216722   6.631   3.907   4.643 -0.4512  1.9139 -1.3166
 5275SOL     OW16723   3.487   4.991   4.909  0.0012 -0.1970 -0.2479
 5275SOL    HW116724   3.406   4.933   4.919  0.4131 -0.4544  2.5148
 5275SOL    HW216725   3.484   5.065   4.977  1.2250  0.8756 -1.2963
 5276SOL     OW16726   1.271   1.210   1.278  0.3119  0.2812 -0.4407
 5276SOL    HW116727   1.226   1.284   1.329 -0.3850 -0.1958 -0.3380
 5276SOL    HW216728   1.248   1.219   1.181  2.2169  1.6035 -0.8130
 5277SOL     OW16729   5.472   2.358   1.243  0.3822  0.3168  0.0853
 5277SOL    HW116730   5.550   2.298   1.226 -0.0401 -0.8898  2.1272
 5277SOL    HW216731   5.504   2.450   1.265  1.3501 -0.4076  1.9292
 5278SOL     OW16732   1.499   5.541   0.064 -0.7225  0.6824 -0.5986
 5278SOL    HW116733   1.552   5.626   0.058  1.3274 -0.3867  0.9341
 5278SOL    HW216734   1.484   5.504  -0.027 -0.1587  1.8155 -1.1728
 5279SOL     OW16735   2.208   5.651   0.066  0.4384  0.2034  0.7177
 5279SOL    HW116736   2.304   5.625   0.056  0.5231  1.2409 -2.2188
 5279SOL    HW216737   2.197   5.747   0.037 -1.4918  0.0800  0.9460
 5280SOL     OW16738   4.086   5.313   5.729  0.2660 -0.1452  0.2064
 5280SOL    HW116739   4.075   5.215   5.740 -1.6583 -0.0524 -0.5230
 5280SOL    HW216740   4.100   5.335   5.632 -1.1812  0.4098  0.0963
 5281SOL     OW16741   0.400   0.063   3.508 -0.2548  0.0978  0.4618
 5281SOL    HW116742   0.407   0.139   3.573 -0.3180  0.0338  0.5443
 5281SOL    HW216743   0.394   0.098   3.415  1.0433  0.1704  0.3915
 5282SOL     OW16744   6.988   0.050   2.258 -0.0249  0.2704  0.3991
 5282SOL    HW116745   7.055  -0.023   2.246  0.5627  0.3952  2.4693
 5282SOL    HW216746   6.905   0.029   2.208 -0.0894 -2.1251  1.3990
 5283SOL     OW16747   3.240   5.817   3.945  0.4135 -0.7187 -0.5377
 5283SOL    HW116748   3.167   5.749   3.947 -0.5190  0.2416  1.8261
 5283SOL    HW216749   3.290   5.816   4.032  1.1345  0.8244 -0.8858
 5284SOL     OW16750   3.719   3.425   2.209 -0.7587 -0.4509  0.0388
 5284SOL    HW116751   3.668   3.448   2.127  0.4052  1.3321 -0.2454
 5284SOL    HW216752   3.717   3.502   2.273  2.6157  0.3155 -0.5668
 5285SOL     OW16753   3.268   2.564   5.907  0.0327  0.2260  0.0101
 5285SOL    HW116754   3.170   2.559   5.926  0.3008  1.3028  1.9102
 5285SOL    HW216755   3.294   2.659   5.891  1.0634  0.2265  1.4722
 5286SOL     OW16756   0.413   1.951   1.682  0.4557  0.5918 -0.3429
 5286SOL    HW116757   0.322   1.977   1.650 -0.6809 -1.6429  0.8149
 5286SOL    HW216758   0.462   1.904   1.609 -0.4820 -0.7500 -0.1382
 5287SOL     OW16759   1.642   5.493   2.440  0.2124  0.2841  0.2276
 5287SOL    HW116760   1.615   5.530   2.351 -1.1846 -1.5098 -0.1426
 5287SOL    HW216761   1.560   5.479   2.496  0.5558 -2.6576  0.1433
 5288SOL     OW16762   1.864   6.468   1.575  0.2750 -0.0818  0.2680
 5288SOL    HW116763   1.956   6.455   1.612  0.2718  1.2935  0.8276
 5288SOL    HW216764   1.857   6.558   1.531 -0.6023 -0.4574 -0.4050
 5289SOL     OW16765   2.500   5.007   6.273  0.0601 -0.1580 -0.2622
 5289SOL    HW116766   2.510   4.931   6.209  0.2424  1.4555 -2.2583
 5289SOL    HW216767   2.577   5.070   6.263 -1.6888  1.9785 -1.0947
 5290SOL     OW16768   2.613   1.889   5.051 -0.2762 -0.2940  0.1370
 5290SOL    HW116769   2.624   1.820   5.122  1.5610 -0.2892 -0.1023
 5290SOL    HW216770   2.690   1.884   4.987 -1.6173  0.0374 -1.5720
 5291SOL     OW16771   1.900   6.596   4.231  0.1313  0.3380 -0.2999
 5291SOL    HW116772   1.913   6.668   4.163  0.6120  0.3714 -0.1708
 5291SOL    HW216773   1.826   6.535   4.201 -1.5312  1.8883  0.4221
 5292SOL     OW16774   1.156   3.603   4.497 -0.1320  0.2481  0.0361
 5292SOL    HW116775   1.234   3.613   4.436  0.1663  1.9983  0.6254
 5292SOL    HW216776   1.185   3.623   4.591 -1.3456  1.4557  0.1960
 5293SOL     OW16777   1.852   0.961   2.297  0.7689 -0.3032  0.2094
 5293SOL    HW116778   1.919   0.973   2.370  0.3276 -0.4714  0.6479
 5293SOL    HW216779   1.775   1.023   2.311  0.9104  0.0159 -0.3892
 5294SOL     OW16780   5.466   6.483   4.383 -0.1235  0.2995  0.0907
 5294SOL    HW116781   5.369   6.481   4.408 -0.1180 -1.6867  0.1009
 5294SOL    HW216782   5.517   6.419   4.440  1.2981  1.6307  0.3783
 5295SOL     OW16783   2.087   6.824   0.169 -0.7959 -0.0761  0.0820
 5295SOL    HW116784   2.023   6.895   0.142 -1.4747 -1.7973 -3.3725
 5295SOL    HW216785   2.174   6.837   0.122 -0.2177 -0.4058  1.0276
 5296SOL     OW16786   3.642   5.057   6.445 -0.3681 -0.1180 -0.3112
 5296SOL    HW116787   3.584   4.997   6.390 -2.0130 -0.5049  1.7159
 5296SOL    HW216788   3.586   5.101   6.515  1.4695  1.0917  0.4612
 5297SOL     OW16789   5.762   6.840   5.100 -0.3753  0.4602 -0.3075
 5297SOL    HW116790   5.715   6.917   5.143 -0.7573  0.4570 -0.7130
 5297SOL    HW216791   5.697   6.788   5.044 -0.3316 -0.6938  0.6767
 5298SOL     OW16792   4.656   1.860   6.445 -0.1934 -0.0255 -0.3724
 5298SOL    HW116793   4.564   1.894   6.421 -0.7049  0.3438  1.9349
 5298SOL    HW216794   4.675   1.777   6.393 -1.4248  0.4070 -1.5954
 5299SOL     OW16795   2.763   0.784   0.379  0.1340 -0.0266  0.3609
 5299SOL    HW116796   2.785   0.786   0.477 -1.0444 -0.5597  0.6562
 5299SOL    HW216797   2.750   0.877   0.345 -1.6824  0.0923  1.2679
 5300SOL     OW16798   3.302   3.932   6.746  0.0483 -0.5041  0.1665
 5300SOL    HW116799   3.344   3.958   6.833  0.4963  0.3415 -0.2814
 5300SOL    HW216800   3.328   3.839   6.722  0.1018 -0.6615  0.8318
 5301SOL     OW16801   4.025   6.616   5.065 -0.4468  0.1206  0.8843
 5301SOL    HW116802   4.091   6.686   5.092 -0.3683  0.1128  0.7086
 5301SOL    HW216803   4.071   6.528   5.058 -0.6463 -0.0494  1.6154
 5302SOL     OW16804   3.787   0.172   4.910 -0.0265  0.3142  0.1516
 5302SOL    HW116805   3.754   0.260   4.946 -0.8214 -0.2059  0.7396
 5302SOL    HW216806   3.868   0.143   4.960  0.5464  0.9582 -0.3927
 5303SOL     OW16807   1.702   5.739   4.317  0.1469  0.2294 -0.2183
 5303SOL    HW116808   1.679   5.710   4.224 -1.4325 -0.5497  0.3881
 5303SOL    HW216809   1.796   5.773   4.318 -0.3629  1.9995 -2.4931
 5304SOL     OW16810   1.794   0.643   2.990  0.7850  0.0723  0.0446
 5304SOL    HW116811   1.737   0.579   2.938 -1.6821 -0.1728  2.7600
 5304SOL    HW216812   1.827   0.598   3.073 -1.6465  2.2868  2.4369
 5305SOL     OW16813   0.070   5.485   3.721  0.0095 -0.4885 -0.0174
 5305SOL    HW116814   0.110   5.559   3.667  1.7925  0.3972  2.3131
 5305SOL    HW216815  -0.018   5.514   3.758  1.2995  1.1480  2.0024
 5306SOL     OW16816   1.771   1.404   4.705  0.1119 -1.0580 -0.0029
 5306SOL    HW116817   1.871   1.404   4.694  0.2765 -0.2642  1.2201
 5306SOL    HW216818   1.748   1.383   4.800 -0.7627  1.1605  0.3413
 5307SOL     OW16819   3.207   1.739   2.149 -0.2470 -0.4468  0.5013
 5307SOL    HW116820   3.205   1.651   2.101 -0.4219  0.9494 -2.2233
 5307SOL    HW216821   3.248   1.808   2.090 -0.5825  1.4378  2.3733
 5308SOL     OW16822   2.650   4.749   3.731 -0.9161  0.6197  0.5887
 5308SOL    HW116823   2.648   4.654   3.698  0.4975  0.2675  1.4316
 5308SOL    HW216824   2.637   4.749   3.830  1.9331  1.0184  1.0328
 5309SOL     OW16825   6.286   4.851   1.425  0.0253  0.2640 -0.2708
 5309SOL    HW116826   6.373   4.897   1.409  0.9068 -1.0784  0.4482
 5309SOL    HW216827   6.232   4.852   1.341  0.0072  2.5321 -0.2850
 5310SOL     OW16828   6.783   2.536   3.153 -0.5204  0.4247 -0.4734
 5310SOL    HW116829   6.717   2.610   3.137  1.0441  2.0849  0.3293
 5310SOL    HW216830   6.861   2.547   3.092 -1.0947 -1.7448 -1.6908
 5311SOL     OW16831   6.901   1.687   6.913  0.0621 -0.0337 -0.5914
 5311SOL    HW116832   6.844   1.687   6.996  2.0188  0.4089  0.8187
 5311SOL    HW216833   6.964   1.609   6.915  0.0181 -0.1223 -1.7778
 5312SOL     OW16834   3.044   5.890   2.527 -0.0930  0.1097 -0.3734
 5312SOL    HW116835   3.144   5.898   2.519  0.1847 -1.1948  1.1836
 5312SOL    HW216836   3.017   5.903   2.623 -1.4345  0.4797 -0.7820
 5313SOL     OW16837   0.392   0.091   4.112  0.7022 -0.3287 -0.2571
 5313SOL    HW116838   0.488   0.099   4.140  1.0654  2.1697 -1.9040
 5313SOL    HW216839   0.335   0.147   4.172  0.5194 -0.3814 -0.3814
 5314SOL     OW16840   4.356   0.193   4.205  0.3313 -0.3097 -0.1091
 5314SOL    HW116841   4.355   0.291   4.226  1.7099 -0.2758 -0.1001
 5314SOL    HW216842   4.364   0.141   4.290  1.8220 -0.3316 -0.2473
 5315SOL     OW16843   4.649   0.218   2.677  0.2178 -0.5502  0.1522
 5315SOL    HW116844   4.630   0.160   2.598  2.3717 -0.4342 -0.5146
 5315SOL    HW216845   4.691   0.304   2.647  0.9679 -0.4421  1.3887
 5316SOL     OW16846   6.726   1.501   5.804  0.2387  1.0544  0.3976
 5316SOL    HW116847   6.638   1.504   5.850  0.6444  0.7443  1.2067
 5316SOL    HW216848   6.727   1.424   5.739 -0.0801  1.0536  0.3920
 5317SOL     OW16849   5.585   3.250   1.498 -0.6288  0.4834  0.2701
 5317SOL    HW116850   5.661   3.315   1.491 -0.7779  0.5575 -0.7050
 5317SOL    HW216851   5.611   3.164   1.454 -1.5855  0.9553 -1.2994
 5318SOL     OW16852   6.596   5.236   5.073 -0.7053  0.1600  1.0289
 5318SOL    HW116853   6.521   5.172   5.089 -0.0624 -0.4267  1.7951
 5318SOL    HW216854   6.673   5.212   5.132  0.6843 -0.2357 -0.8436
 5319SOL     OW16855   4.469   4.556   2.080 -0.0023  0.2359 -0.0383
 5319SOL    HW116856   4.489   4.610   2.161 -1.1764  1.3488 -0.4625
 5319SOL    HW216857   4.487   4.459   2.099  1.7065  0.6897  0.8716
 5320SOL     OW16858   4.563   4.678   1.820  0.1988 -0.1631 -0.6687
 5320SOL    HW116859   4.559   4.756   1.758 -1.1932  0.1253 -0.2569
 5320SOL    HW216860   4.601   4.706   1.908  0.3923 -0.1183 -0.7679
 5321SOL     OW16861   1.793   4.255   5.056 -0.5657 -0.0607 -0.4122
 5321SOL    HW116862   1.760   4.339   5.014 -2.2109 -0.6263 -0.3103
 5321SOL    HW216863   1.775   4.257   5.154 -0.8890 -0.6554 -0.4534
 5322SOL     OW16864   2.500   3.968   6.425  0.0383  0.0614 -0.0701
 5322SOL    HW116865   2.515   4.044   6.361  0.9115 -0.7017 -0.7985
 5322SOL    HW216866   2.535   3.883   6.385  1.2097 -0.3303  1.6737
 5323SOL     OW16867   5.850   0.581   6.077 -0.5777 -0.1684 -0.3685
 5323SOL    HW116868   5.919   0.568   6.006 -0.1181 -0.4013  0.1195
 5323SOL    HW216869   5.868   0.665   6.128 -0.4041 -0.4522  0.0412
 5324SOL     OW16870   0.879   0.487   0.734 -0.0256 -0.1133 -0.3911
 5324SOL    HW116871   0.871   0.489   0.635 -0.8749  0.0158 -0.3310
 5324SOL    HW216872   0.827   0.564   0.773  2.0907  1.1931  0.0592
 5325SOL     OW16873   2.252   2.123   3.703 -0.0639  0.3254  0.0542
 5325SOL    HW116874   2.212   2.204   3.661  1.3833  1.3099  0.5063
 5325SOL    HW216875   2.210   2.107   3.792 -0.1112  0.7980  0.1195
 5326SOL     OW16876   5.972   1.432   2.523  0.3181  0.1797 -0.5886
 5326SOL    HW116877   6.055   1.481   2.549  0.2436  0.1681 -0.3235
 5326SOL    HW216878   5.980   1.399   2.429 -0.3369  2.2372 -1.4333
 5327SOL     OW16879   6.970   4.182   6.704  0.0672  0.2157  0.2366
 5327SOL    HW116880   7.065   4.153   6.694  0.0117  0.2793 -0.4863
 5327SOL    HW216881   6.951   4.201   6.801  0.0289 -2.3401  0.7822
 5328SOL     OW16882   3.321   5.182   1.669  0.4243 -0.4837  0.5963
 5328SOL    HW116883   3.271   5.102   1.635  1.5008 -0.8671 -0.1167
 5328SOL    HW216884   3.348   5.165   1.764 -1.4734  0.0675  1.2806
 5329SOL     OW16885   4.171   3.392   4.899 -0.6242 -0.4000 -0.2792
 5329SOL    HW116886   4.155   3.367   4.803 -0.6406 -1.2682 -0.0621
 5329SOL    HW216887   4.261   3.358   4.927 -0.9756 -0.9066  0.2542
 5330SOL     OW16888   3.497   4.644   5.991 -0.3398 -0.3912 -0.7626
 5330SOL    HW116889   3.417   4.661   6.049 -1.1275 -0.3950 -1.8125
 5330SOL    HW216890   3.494   4.550   5.956 -0.2201 -0.2000 -1.3044
 5331SOL     OW16891   5.779   2.402   6.352 -0.2599 -0.0361  0.3673
 5331SOL    HW116892   5.704   2.350   6.311  0.3246 -1.4330  1.0116
 5331SOL    HW216893   5.746   2.493   6.378 -1.4330 -0.2397 -0.3353
 5332SOL     OW16894   5.761   4.715   6.565  0.5115 -0.7098  0.4023
 5332SOL    HW116895   5.729   4.731   6.471  0.9331  1.3783  0.5698
 5332SOL    HW216896   5.813   4.794   6.597  0.7443 -1.5536  2.2667
 5333SOL     OW16897   0.089   5.984   5.327 -0.7360 -0.1996 -0.6640
 5333SOL    HW116898   0.146   6.006   5.248  0.3196  0.6298  0.2913
 5333SOL    HW216899   0.003   5.943   5.297 -0.6797  0.8135 -2.2697
 5334SOL     OW16900   2.950   0.655   5.798  0.3033 -0.1435 -0.7221
 5334SOL    HW116901   2.857   0.625   5.817 -0.0888 -0.3619 -2.7150
 5334SOL    HW216902   2.993   0.593   5.733  1.3153  0.7606 -0.9547
 5335SOL     OW16903   5.712   0.895   6.609  0.5123 -0.0815  0.2931
 5335SOL    HW116904   5.779   0.937   6.670  1.1290 -0.0166 -0.4102
 5335SOL    HW216905   5.742   0.802   6.586 -0.4763 -0.6615  1.2617
 5336SOL     OW16906   1.218   2.393   1.376 -0.0804 -0.0171  0.1527
 5336SOL    HW116907   1.231   2.418   1.472  1.0757  0.8562 -0.2159
 5336SOL    HW216908   1.248   2.299   1.361 -1.3509 -0.5660  0.8636
 5337SOL     OW16909   2.908   6.106   2.092 -0.2170  0.2631  0.3744
 5337SOL    HW116910   2.927   6.156   2.008 -2.7985  0.6270 -0.0728
 5337SOL    HW216911   2.965   6.143   2.166  0.4066  1.5301 -0.6917
 5338SOL     OW16912   5.625   3.670   6.912 -0.3898 -0.3736  0.1646
 5338SOL    HW116913   5.615   3.731   6.991 -0.0407  0.7719 -0.6626
 5338SOL    HW216914   5.558   3.694   6.842  2.4829  2.0607 -2.0267
 5339SOL     OW16915   1.469   1.011   1.745  0.5360 -0.2596  0.2949
 5339SOL    HW116916   1.569   1.012   1.750  0.6714  0.8457 -1.6183
 5339SOL    HW216917   1.440   1.044   1.655 -1.5950  1.7164  1.5948
 5340SOL     OW16918   5.446   2.599   6.759  0.8274 -0.1979 -0.5074
 5340SOL    HW116919   5.453   2.653   6.676  1.5937 -2.0531 -1.6999
 5340SOL    HW216920   5.373   2.637   6.817  0.9741  1.7356 -1.5141
 5341SOL     OW16921   3.239   0.492   1.121 -0.5148  0.4575  0.0588
 5341SOL    HW116922   3.145   0.462   1.137 -0.2715 -0.1979  0.2568
 5341SOL    HW216923   3.266   0.471   1.027 -0.3473  0.0539  0.1949
 5342SOL     OW16924   0.598   0.565   5.323 -0.2698  0.7168 -0.3476
 5342SOL    HW116925   0.649   0.500   5.266  0.8475  1.0459  0.2579
 5342SOL    HW216926   0.656   0.642   5.347 -1.1759  1.2934  0.0644
 5343SOL     OW16927   2.928   3.921   6.898  0.6426 -0.0913 -0.3265
 5343SOL    HW116928   2.929   4.007   6.848 -0.5555  1.8656  2.7391
 5343SOL    HW216929   2.865   3.857   6.854  1.0455  0.7984 -2.2806
 5344SOL     OW16930   1.992   1.688   0.982  0.4949  0.0886 -0.3023
 5344SOL    HW116931   1.977   1.747   0.903  0.1562  1.2845  0.6229
 5344SOL    HW216932   1.904   1.653   1.014  0.4853  0.6662  0.3226
 5345SOL     OW16933   5.345   0.729   1.685  0.0247 -0.2445  0.0846
 5345SOL    HW116934   5.250   0.725   1.715 -0.5622 -1.5929 -1.7325
 5345SOL    HW216935   5.376   0.824   1.686 -0.0855 -0.0914  4.1234
 5346SOL     OW16936   4.204   1.668   5.830  0.3825 -0.1291  0.0840
 5346SOL    HW116937   4.222   1.752   5.779  1.5078 -0.3868  0.0265
 5346SOL    HW216938   4.273   1.657   5.901 -0.0937 -0.7184  0.4605
 5347SOL     OW16939   0.625   1.800   0.894 -0.0845  0.3037 -0.2638
 5347SOL    HW116940   0.683   1.722   0.869  2.7656  1.4067  2.3501
 5347SOL    HW216941   0.584   1.783   0.984 -0.6910  1.2122 -0.3612
 5348SOL     OW16942   0.039   3.507   0.029  0.7409 -0.1489  0.0859
 5348SOL    HW116943  -0.058   3.505   0.054  0.1500 -0.6804 -2.0937
 5348SOL    HW216944   0.048   3.512  -0.070  2.9647 -1.3003  0.1706
 5349SOL     OW16945   4.603   6.045   1.128 -0.2910 -0.0897  0.3635
 5349SOL    HW116946   4.620   6.024   1.224 -2.1940  0.9682  0.9803
 5349SOL    HW216947   4.662   5.988   1.071  0.9797 -0.6460  2.1375
 5350SOL     OW16948   3.903   6.313   7.006  0.3396 -0.2174  0.4403
 5350SOL    HW116949   3.824   6.293   6.947  1.1036 -1.4450 -0.2160
 5350SOL    HW216950   3.898   6.255   7.088  0.0576  0.4210  0.8842
 5351SOL     OW16951   2.814   1.266   3.229  0.4542 -0.3876  0.0988
 5351SOL    HW116952   2.833   1.360   3.201  0.1143 -0.3764 -0.1041
 5351SOL    HW216953   2.816   1.259   3.328 -2.6354  0.5492  0.3200
 5352SOL     OW16954   4.084   1.268   5.817  0.4026 -0.5749  0.4421
 5352SOL    HW116955   3.986   1.264   5.801  0.3874 -4.0856  0.7931
 5352SOL    HW216956   4.133   1.227   5.740  1.9166  3.3266 -0.9329
 5353SOL     OW16957   6.265   0.975   5.075  0.0678  0.0260  0.1673
 5353SOL    HW116958   6.229   1.020   4.994  1.0528 -0.8226 -0.7734
 5353SOL    HW216959   6.286   1.043   5.145  0.8305  0.9439 -0.9342
 5354SOL     OW16960   1.005   3.652   2.866 -0.0071 -0.5358 -0.1788
 5354SOL    HW116961   1.036   3.740   2.902 -0.7761  0.5410 -1.9796
 5354SOL    HW216962   1.046   3.638   2.776 -0.4945 -1.6676 -0.2326
 5355SOL     OW16963   4.830   0.334   6.143 -0.0925  0.1335  0.2875
 5355SOL    HW116964   4.825   0.393   6.224  0.7712  0.1378  0.3465
 5355SOL    HW216965   4.893   0.375   6.076 -1.7434  0.7813 -0.9426
 5356SOL     OW16966   0.877   3.575   1.693 -0.0331 -0.1424  0.4379
 5356SOL    HW116967   0.936   3.500   1.664 -0.1161  0.5027 -1.5760
 5356SOL    HW216968   0.786   3.539   1.716  0.5127 -0.8793  1.5206
 5357SOL     OW16969   4.901   6.169   0.287 -0.9805 -0.2314  0.4991
 5357SOL    HW116970   4.951   6.254   0.304 -0.5824 -0.0070 -1.5552
 5357SOL    HW216971   4.832   6.184   0.216 -0.9755 -1.5944  0.1732
 5358SOL     OW16972   4.978   5.189   6.764  0.0098  0.6258  0.0774
 5358SOL    HW116973   5.027   5.255   6.821  1.3690 -0.5554  0.3150
 5358SOL    HW216974   4.964   5.228   6.673 -1.0573  2.0320  0.8040
 5359SOL     OW16975   2.070   1.313   5.169 -0.1930  0.2689 -0.4454
 5359SOL    HW116976   2.112   1.281   5.084 -2.0981 -0.7816 -1.0552
 5359SOL    HW216977   2.090   1.248   5.243 -1.5897 -0.8413 -0.9952
 5360SOL     OW16978   4.424   3.434   1.134  0.5370  0.1921 -0.5221
 5360SOL    HW116979   4.514   3.470   1.109 -0.5051  1.8032 -2.2308
 5360SOL    HW216980   4.371   3.415   1.051 -0.8465 -0.3735  0.4472
 5361SOL     OW16981   0.502   0.913   6.176  0.3811 -0.5617 -0.1684
 5361SOL    HW116982   0.539   0.958   6.095 -0.3308  1.4034  0.5427
 5361SOL    HW216983   0.573   0.854   6.216  1.4878  0.2025 -0.9383
 5362SOL     OW16984   4.270   0.178   2.835 -0.5830 -0.5362  0.0214
 5362SOL    HW116985   4.205   0.197   2.761  0.9817 -1.5910 -1.7148
 5362SOL    HW216986   4.345   0.244   2.831  0.0735 -1.2714 -0.0698
 5363SOL     OW16987   6.318   4.710   4.078  0.5343  0.0192 -0.0769
 5363SOL    HW116988   6.263   4.647   4.132 -0.4976  1.3483  0.4802
 5363SOL    HW216989   6.408   4.721   4.122 -0.0469  0.5599  1.0207
 5364SOL     OW16990   3.287   3.835   1.123  0.3494 -0.1070 -1.0850
 5364SOL    HW116991   3.276   3.854   1.026 -2.5602 -0.9430 -0.9953
 5364SOL    HW216992   3.225   3.893   1.176  2.4979  0.9864  0.4282
 5365SOL     OW16993   5.269   2.863   0.337 -0.5815 -0.0300  0.0570
 5365SOL    HW116994   5.225   2.930   0.397  1.0051  2.1050 -1.0290
 5365SOL    HW216995   5.344   2.906   0.288  0.0678 -2.4670 -1.2784
 5366SOL     OW16996   5.891   4.189   5.178 -0.1287 -0.4221  0.4335
 5366SOL    HW116997   5.944   4.110   5.208  1.9556 -0.8232 -3.5859
 5366SOL    HW216998   5.855   4.172   5.086 -0.5538  2.8688 -0.1389
 5367SOL     OW16999   0.812   4.239   1.362 -0.1169  0.0976 -0.2726
 5367SOL    HW117000   0.775   4.326   1.330  0.7390  1.0471  1.1855
 5367SOL    HW217001   0.844   4.249   1.457  2.0159 -1.2011 -0.7815
 5368SOL     OW17002   5.837   6.382   1.511  0.5147  0.0681 -0.7364
 5368SOL    HW117003   5.777   6.428   1.577 -0.1095 -0.5419 -0.8732
 5368SOL    HW217004   5.895   6.316   1.560  0.7181  0.2869 -0.6769
 5369SOL     OW17005   1.528   4.859   0.882  0.1973  0.1436  0.1079
 5369SOL    HW117006   1.464   4.925   0.922  0.5677  0.3250  0.4109
 5369SOL    HW217007   1.542   4.784   0.946  0.9701  0.5498  0.4301
 5370SOL     OW17008   4.521   2.064   1.327  0.0781  0.0874 -0.3927
 5370SOL    HW117009   4.597   2.036   1.385  0.4833  3.0870  0.7443
 5370SOL    HW217010   4.546   2.148   1.278 -2.1753  0.6473 -0.6924
 5371SOL     OW17011   2.363   5.102   3.563  0.2688 -0.0511 -0.4007
 5371SOL    HW117012   2.407   5.013   3.568 -0.7787 -0.6314 -1.3151
 5371SOL    HW217013   2.312   5.119   3.647  1.9359  0.5084  0.5568
 5372SOL     OW17014   4.198   6.447   2.728 -0.3032 -0.2459  0.2297
 5372SOL    HW117015   4.254   6.440   2.810 -0.6940 -0.5206  0.4753
 5372SOL    HW217016   4.248   6.500   2.659 -0.4299  0.9668  1.0274
 5373SOL     OW17017   3.142   5.222   3.137 -0.5716 -0.3826 -0.5380
 5373SOL    HW117018   3.228   5.252   3.095 -0.2211 -0.6782 -0.0497
 5373SOL    HW217019   3.161   5.143   3.196 -1.0294  0.1113  0.2756
 5374SOL     OW17020   3.577   3.001   1.760  0.0047  0.1170  0.0679
 5374SOL    HW117021   3.489   2.981   1.716  0.4358 -0.1307 -0.7083
 5374SOL    HW217022   3.645   2.936   1.728  1.3191  2.3609 -2.0832
 5375SOL     OW17023   1.615   3.897   2.682  0.4613 -0.3306  0.4201
 5375SOL    HW117024   1.554   3.963   2.638  2.4360 -0.1405 -2.2942
 5375SOL    HW217025   1.578   3.805   2.674 -0.1794 -0.0518  0.1749
 5376SOL     OW17026   3.107   4.739   5.690 -0.4030 -0.4935  0.5317
 5376SOL    HW117027   3.062   4.775   5.608 -2.5445 -0.8695  1.4922
 5376SOL    HW217028   3.206   4.735   5.674 -0.6511  0.4931 -1.6089
 5377SOL     OW17029   1.535   3.526   7.000  0.0698  0.1284 -0.5095
 5377SOL    HW117030   1.616   3.468   7.002 -1.5971 -2.4067 -1.7912
 5377SOL    HW217031   1.508   3.547   7.094  1.7510  0.4111 -0.0540
 5378SOL     OW17032   5.468   6.502   1.132 -0.0174  0.2738 -0.3365
 5378SOL    HW117033   5.526   6.441   1.077  2.1234  0.0809  1.9684
 5378SOL    HW217034   5.523   6.577   1.168 -1.6073  1.0541  0.5838
 5379SOL     OW17035   5.751   5.543   0.829  0.3550  0.0522  0.0758
 5379SOL    HW117036   5.776   5.631   0.869  1.6282 -1.1813  2.1594
 5379SOL    HW217037   5.662   5.514   0.865 -0.5223  0.8588 -1.3385
 5380SOL     OW17038   6.654   1.285   4.799 -0.3156 -0.7467  0.0168
 5380SOL    HW117039   6.558   1.314   4.801 -0.9499 -2.6452  1.8463
 5380SOL    HW217040   6.667   1.222   4.721 -0.6369 -0.7031 -0.0775
 5381SOL     OW17041   6.018   3.187   3.128  0.7020  0.3475 -0.1862
 5381SOL    HW117042   5.976   3.255   3.187 -0.5066 -1.9622  1.7667
 5381SOL    HW217043   6.088   3.137   3.179  0.8124 -0.6094 -1.2346
 5382SOL     OW17044   0.562   5.484   2.151  0.6448  0.0225  0.2181
 5382SOL    HW117045   0.506   5.451   2.075  2.0412 -0.9757 -0.4055
 5382SOL    HW217046   0.527   5.573   2.182 -0.9878 -0.3601 -0.4436
 5383SOL     OW17047   2.893   3.366   5.167 -0.1407  0.3625 -0.1441
 5383SOL    HW117048   2.950   3.446   5.148  3.0312 -1.9021 -1.0494
 5383SOL    HW217049   2.855   3.331   5.081 -0.5079  0.2038  0.0813
 5384SOL     OW17050   4.889   4.563   5.604  0.1593 -0.6817 -0.2993
 5384SOL    HW117051   4.852   4.631   5.668  0.6502  0.2326 -0.9564
 5384SOL    HW217052   4.831   4.482   5.604 -0.8813  0.0365 -0.0383
 5385SOL     OW17053   2.716   3.947   1.183 -0.1752  0.2689 -0.1576
 5385SOL    HW117054   2.662   4.029   1.164 -3.2188 -1.9661 -1.9768
 5385SOL    HW217055   2.801   3.950   1.129 -0.9246  1.5805 -1.3399
 5386SOL     OW17056   5.857   0.494   0.318 -0.5102  0.2271  0.7767
 5386SOL    HW117057   5.869   0.489   0.219 -0.5184 -2.4123  0.8576
 5386SOL    HW217058   5.782   0.435   0.347 -0.5148  0.9451  2.3711
 5387SOL     OW17059   3.660   5.975   0.995 -0.6196  0.3676  0.1794
 5387SOL    HW117060   3.719   5.894   1.000 -0.9402  0.2003  1.7991
 5387SOL    HW217061   3.714   6.055   0.969 -0.5822 -0.5871 -3.1302
 5388SOL     OW17062   0.140   6.412   3.395 -0.4208  0.0423 -0.1130
 5388SOL    HW117063   0.204   6.469   3.345 -1.2078  0.7836 -0.3045
 5388SOL    HW217064   0.190   6.344   3.449  0.5263  0.7476 -0.0819
 5389SOL     OW17065   1.594   3.827   2.322  0.5485 -0.4062 -0.3210
 5389SOL    HW117066   1.538   3.747   2.299 -1.3715  0.7885 -0.0499
 5389SOL    HW217067   1.534   3.902   2.350  2.3733  0.6789  0.8649
 5390SOL     OW17068   6.897   5.542   5.352  0.4268 -0.3344 -0.1404
 5390SOL    HW117069   6.951   5.571   5.431  0.3969 -0.5919 -0.0285
 5390SOL    HW217070   6.803   5.526   5.380  0.4271 -0.4704 -0.2186
 5391SOL     OW17071   3.286   5.338   5.241 -0.2665  0.4356 -0.0276
 5391SOL    HW117072   3.232   5.264   5.202  1.1203 -0.3250 -0.5995
 5391SOL    HW217073   3.236   5.424   5.232 -2.2933 -0.5059  1.4550
 5392SOL     OW17074   0.037   1.858   2.740  0.3238  0.9656 -0.2249
 5392SOL    HW117075   0.017   1.853   2.642  0.4287 -2.1376 -0.2030
 5392SOL    HW217076  -0.042   1.824   2.791  1.0338  0.5467  0.6217
 5393SOL     OW17077   0.664   2.175   6.429 -0.6099 -0.2842  0.4513
 5393SOL    HW117078   0.661   2.259   6.484 -0.0555  0.1452 -0.1435
 5393SOL    HW217079   0.659   2.199   6.332  0.9063 -0.8123  0.2076
 5394SOL     OW17080   2.729   3.455   6.409  0.4715 -0.1836 -0.2504
 5394SOL    HW117081   2.657   3.469   6.341  0.0591  0.3898  0.2949
 5394SOL    HW217082   2.703   3.382   6.472  0.2267  0.2284  0.1298
 5395SOL     OW17083   3.195   6.879   1.382 -0.2062 -0.1755  0.4933
 5395SOL    HW117084   3.278   6.872   1.326  0.5417 -1.7117  1.7163
 5395SOL    HW217085   3.115   6.889   1.322  0.7054 -0.1732 -0.7676
 5396SOL     OW17086   2.944   1.069   3.074 -0.3652  0.3370  0.3507
 5396SOL    HW117087   2.890   1.147   3.104 -1.5053 -0.4948  0.5367
 5396SOL    HW217088   2.883   0.994   3.049  0.6885 -0.3204 -0.3297
 5397SOL     OW17089   0.705   1.782   1.226  0.8401 -0.2562  0.0526
 5397SOL    HW117090   0.786   1.812   1.276  0.7758  1.1568 -0.6376
 5397SOL    HW217091   0.705   1.682   1.219  0.5943 -0.6045  3.2773
 5398SOL     OW17092   3.151   3.941   3.168  0.1390 -0.1924 -0.0366
 5398SOL    HW117093   3.181   3.937   3.264  0.8195 -1.3674 -0.2820
 5398SOL    HW217094   3.180   4.027   3.127 -3.1462  1.9959  1.7473
 5399SOL     OW17095   2.363   3.791   6.583  0.3702 -0.2931 -1.0427
 5399SOL    HW117096   2.396   3.875   6.538  0.5493 -0.3417 -1.0033
 5399SOL    HW217097   2.407   3.782   6.672  3.1887 -2.3045 -2.4978
 5400SOL     OW17098   3.829   2.857   6.138 -0.0535  0.0026 -0.0930
 5400SOL    HW117099   3.908   2.803   6.166  0.9269 -0.9755 -4.1179
 5400SOL    HW217100   3.750   2.831   6.193  1.4363 -2.1461  1.1906
 5401SOL     OW17101   4.194   2.210   2.209  0.2540  0.0966  0.5124
 5401SOL    HW117102   4.108   2.203   2.159 -0.2677  0.8800  1.2567
 5401SOL    HW217103   4.267   2.235   2.146 -0.4912  1.6414  0.1953
 5402SOL     OW17104   0.292   6.942   0.616 -0.7917  0.3699 -0.1389
 5402SOL    HW117105   0.202   6.985   0.623 -0.2360  1.5849 -0.0555
 5402SOL    HW217106   0.333   6.967   0.528 -0.2050  0.5220  0.1752
 5403SOL     OW17107   2.069   2.304   6.591 -0.1697  0.2249  0.3531
 5403SOL    HW117108   2.024   2.304   6.681 -2.1570  2.5608 -0.5166
 5403SOL    HW217109   2.051   2.217   6.545 -0.6160 -0.3261  1.5253
 5404SOL     OW17110   6.133   1.367   2.029  0.2927  0.7437 -0.1528
 5404SOL    HW117111   6.203   1.436   2.011  0.5883 -0.1951 -3.1297
 5404SOL    HW217112   6.071   1.361   1.951 -1.0697 -0.8588  0.9640
 5405SOL     OW17113   5.903   5.826   5.067 -0.0492 -0.2895 -0.0529
 5405SOL    HW117114   5.990   5.873   5.053 -1.1329  1.5493 -1.0398
 5405SOL    HW217115   5.895   5.749   5.003  0.3379  0.2954 -0.8132
 5406SOL     OW17116   2.496   6.832   2.479  0.3271 -0.4650  0.3284
 5406SOL    HW117117   2.558   6.795   2.548  1.4867 -0.5401 -0.7208
 5406SOL    HW217118   2.526   6.924   2.453 -0.2029 -0.3692  0.0430
 5407SOL     OW17119   4.907   2.661   0.163  0.2325 -0.3448  0.0432
 5407SOL    HW117120   4.986   2.723   0.151 -0.2328 -0.0684 -2.0122
 5407SOL    HW217121   4.890   2.613   0.077 -1.3538 -1.0203  0.7086
 5408SOL     OW17122   3.358   0.398   2.195 -0.0521 -0.8194  0.4522
 5408SOL    HW117123   3.382   0.378   2.100 -1.7037  0.0687 -0.2005
 5408SOL    HW217124   3.423   0.464   2.232  1.0899 -1.7968  0.2203
 5409SOL     OW17125   4.481   1.115   0.560  0.0865  0.0004 -0.3810
 5409SOL    HW117126   4.385   1.136   0.542 -0.5593 -0.6750  1.9291
 5409SOL    HW217127   4.501   1.022   0.530 -0.7430 -0.8148  1.4415
 5410SOL     OW17128   6.620   2.735   3.091 -0.5327 -0.3782 -0.5763
 5410SOL    HW117129   6.627   2.795   3.170 -0.7659 -2.1472  0.8364
 5410SOL    HW217130   6.523   2.721   3.068 -0.5599 -1.4878  0.1439
 5411SOL     OW17131   3.110   3.349   5.545 -0.0059 -0.5401  0.1010
 5411SOL    HW117132   3.189   3.399   5.509 -0.4109 -0.8503 -1.2516
 5411SOL    HW217133   3.028   3.406   5.537 -0.2030 -0.8396 -0.0027
 5412SOL     OW17134   0.187   2.113   0.918 -0.1902  0.1440 -0.0953
 5412SOL    HW117135   0.263   2.050   0.902  0.3474  0.4897  0.9948
 5412SOL    HW217136   0.148   2.097   1.009 -0.5080  0.8977 -0.0873
 5413SOL     OW17137   0.434   5.488   2.407 -0.1403 -0.8856  0.2594
 5413SOL    HW117138   0.377   5.431   2.348  0.8562 -0.5821 -1.0370
 5413SOL    HW217139   0.530   5.464   2.394  0.2709  0.8326 -0.0549
 5414SOL     OW17140   4.978   0.734   3.786  0.8017  0.4128  0.2442
 5414SOL    HW117141   4.944   0.653   3.833  0.6486 -0.1886 -0.8751
 5414SOL    HW217142   4.921   0.813   3.809  1.4710  0.4087  2.0215
 5415SOL     OW17143   6.644   4.626   3.807 -0.3762  0.0679  0.0379
 5415SOL    HW117144   6.629   4.629   3.708  0.0141  0.4610 -0.0135
 5415SOL    HW217145   6.688   4.539   3.831  1.2980  0.7549 -0.4035
 5416SOL     OW17146   5.321   5.142   4.771  0.1914 -0.2449  0.1775
 5416SOL    HW117147   5.362   5.144   4.679  1.1662 -0.8697  0.5827
 5416SOL    HW217148   5.378   5.196   4.834 -0.5753  0.3379  0.3896
 5417SOL     OW17149   1.745   4.987   2.368  0.7007 -0.3797  0.7659
 5417SOL    HW117150   1.762   5.085   2.380  1.5710 -0.2031 -1.5115
 5417SOL    HW217151   1.651   4.967   2.393  0.2448  1.1978  0.4487
 5418SOL     OW17152   3.447   6.731   2.039 -0.0485  0.0021  0.6017
 5418SOL    HW117153   3.518   6.797   2.061  1.0928 -1.0400  0.1462
 5418SOL    HW217154   3.400   6.760   1.955  0.2542  0.3714  0.5549
 5419SOL     OW17155   2.210   3.478   6.024  0.5069 -0.7366  0.6771
 5419SOL    HW117156   2.271   3.555   6.007 -1.3037  0.2372 -2.2461
 5419SOL    HW217157   2.192   3.430   5.938 -3.0429 -0.7462  1.2815
 5420SOL     OW17158   0.799   0.117   2.409 -0.1224  0.0210 -0.4632
 5420SOL    HW117159   0.792   0.187   2.338 -0.0978  0.6077  0.1103
 5420SOL    HW217160   0.765   0.153   2.496  1.0552 -0.2536  0.1335
 5421SOL     OW17161   2.836   2.119   0.131  0.0306  1.0011 -0.1143
 5421SOL    HW117162   2.797   2.154   0.046 -1.6598  0.8804  0.5596
 5421SOL    HW217163   2.920   2.168   0.152  0.5810  0.8953 -1.9386
 5422SOL     OW17164   2.488   2.298   6.915 -0.3688 -0.3728 -0.0821
 5422SOL    HW117165   2.586   2.320   6.920 -0.0535 -1.8484  1.1055
 5422SOL    HW217166   2.446   2.350   6.841  1.4282 -0.1208 -0.9881
 5423SOL     OW17167   4.009   3.853   5.147  0.0422  0.3074  0.4499
 5423SOL    HW117168   4.024   3.800   5.064 -0.2927 -0.0804  0.6285
 5423SOL    HW217169   4.023   3.794   5.227  0.6630  0.7547  0.6767
 5424SOL     OW17170   5.112   3.290   5.919  0.6672 -0.8695  0.4121
 5424SOL    HW117171   5.113   3.191   5.907  4.0790 -0.8958 -0.1969
 5424SOL    HW217172   5.170   3.314   5.997  1.6137  0.7164 -0.7229
 5425SOL     OW17173   5.397   1.425   6.160  0.5446  0.4229 -0.0439
 5425SOL    HW117174   5.392   1.509   6.106  3.4859  0.2486 -0.8061
 5425SOL    HW217175   5.491   1.390   6.157 -0.7410 -3.4577 -0.5925
 5426SOL     OW17176   0.172   0.800   2.754  0.0041  0.0337 -0.2455
 5426SOL    HW117177   0.114   0.776   2.831  0.0464  0.3015 -0.1270
 5426SOL    HW217178   0.144   0.749   2.673 -0.9567  0.8003 -0.4135
 5427SOL     OW17179   5.129   0.282   6.852 -0.4766  0.2925  0.0109
 5427SOL    HW117180   5.049   0.236   6.890 -0.3597 -0.3450 -0.5039
 5427SOL    HW217181   5.196   0.214   6.821  0.9131  0.7906  1.7242
 5428SOL     OW17182   1.752   1.496   0.347 -0.4284  0.1436  0.3971
 5428SOL    HW117183   1.726   1.589   0.320 -1.9687 -0.2750  0.3989
 5428SOL    HW217184   1.702   1.469   0.429  1.8452  0.2013  1.8942
 5429SOL     OW17185   1.624   2.922   6.827  0.1654  0.4355  0.3511
 5429SOL    HW117186   1.611   2.966   6.738 -1.7972  0.8077  0.7820
 5429SOL    HW217187   1.557   2.958   6.892  0.7652 -0.7209  1.6511
 5430SOL     OW17188   3.651   0.971   6.325 -0.4302 -0.1780  0.2729
 5430SOL    HW117189   3.604   0.892   6.365 -1.5726  0.3702  0.0512
 5430SOL    HW217190   3.667   1.040   6.396 -0.5401 -0.0964  0.2184
 5431SOL     OW17191   5.149   6.079   4.500 -0.2558 -0.2592  0.0224
 5431SOL    HW117192   5.083   6.084   4.575  0.4028 -0.6003  0.6468
 5431SOL    HW217193   5.107   6.034   4.421 -0.4915 -1.3276  0.7287
 5432SOL     OW17194   5.619   5.118   0.560  0.3013 -0.2002  0.3018
 5432SOL    HW117195   5.707   5.158   0.585 -0.2890  1.0049  0.5374
 5432SOL    HW217196   5.563   5.187   0.513 -0.5529 -0.9125  0.2406
 5433SOL     OW17197   1.990   2.327   3.450  0.0778  0.4396 -0.3434
 5433SOL    HW117198   1.986   2.421   3.417 -1.8403  1.0309  1.3351
 5433SOL    HW217199   2.063   2.318   3.518  0.1979  0.7382 -0.4315
 5434SOL     OW17200   1.017   6.187   4.072  0.4546 -0.4576  0.3776
 5434SOL    HW117201   1.052   6.202   4.164  1.3437  0.7469 -0.1364
 5434SOL    HW217202   0.923   6.152   4.077  1.1541 -2.2903  1.7543
 5435SOL     OW17203   5.163   2.990   1.750  0.2122  0.0737 -0.3362
 5435SOL    HW117204   5.101   2.944   1.686  1.2061 -0.1159 -1.1806
 5435SOL    HW217205   5.243   3.025   1.700  1.3304 -0.6469  0.8945
 5436SOL     OW17206   4.826   2.363   2.047  0.3514  0.1007  0.6124
 5436SOL    HW117207   4.849   2.407   2.134 -1.3475  0.0192  1.1463
 5436SOL    HW217208   4.903   2.371   1.984  0.1410  3.9467  0.6347
 5437SOL     OW17209   2.752   4.659   5.368 -0.2348 -0.1841 -0.3848
 5437SOL    HW117210   2.741   4.758   5.371  1.0508 -0.0670  1.9339
 5437SOL    HW217211   2.812   4.635   5.292 -2.3597  0.5362 -2.4386
 5438SOL     OW17212   0.864   0.990   6.639  0.2024 -0.1101 -0.4687
 5438SOL    HW117213   0.905   0.899   6.627 -1.4172 -0.8562 -0.6212
 5438SOL    HW217214   0.832   1.024   6.551 -0.7979 -0.2023 -0.1509
 5439SOL     OW17215   0.944   1.738   5.872 -0.2828 -0.1391 -0.2837
 5439SOL    HW117216   0.977   1.821   5.829 -0.9823 -0.5595 -1.6777
 5439SOL    HW217217   0.990   1.659   5.832 -1.2180 -0.5667 -0.5365
 5440SOL     OW17218   2.599   6.669   0.681 -0.6144 -0.1937  0.0153
 5440SOL    HW117219   2.642   6.588   0.639  2.5046  1.1736  0.2487
 5440SOL    HW217220   2.602   6.745   0.616 -1.4723  0.3102  0.5574
 5441SOL     OW17221   5.544   2.075   6.339 -0.0048  0.4071  0.0007
 5441SOL    HW117222   5.569   2.093   6.434 -0.5381  1.6289 -0.0679
 5441SOL    HW217223   5.496   1.987   6.333 -0.7004  0.6931  1.0089
 5442SOL     OW17224   3.774   2.034   1.814  0.5576  0.0154  0.5463
 5442SOL    HW117225   3.764   1.966   1.886  0.5633  0.5843  1.0903
 5442SOL    HW217226   3.728   2.118   1.841 -0.9891 -0.3219 -0.8674
 5443SOL     OW17227   6.396   5.351   4.557 -0.1100 -0.2064 -0.1920
 5443SOL    HW117228   6.385   5.252   4.558 -3.5406  0.0536 -0.6363
 5443SOL    HW217229   6.366   5.388   4.469 -1.5915  1.3836  0.9013
 5444SOL     OW17230   0.026   0.295   3.247 -0.2910 -0.4355 -0.0799
 5444SOL    HW117231   0.040   0.392   3.227  0.8549 -0.5495  0.0993
 5444SOL    HW217232  -0.046   0.285   3.315 -2.0296  0.1419 -1.7353
 5445SOL     OW17233   6.730   1.683   2.126  0.7099  0.1635 -0.0049
 5445SOL    HW117234   6.631   1.699   2.135  0.4475 -1.4053  0.2215
 5445SOL    HW217235   6.767   1.742   2.054 -0.3720  0.8548 -0.0139
 5446SOL     OW17236   0.277   6.821   5.924  0.5199  0.2017 -0.3149
 5446SOL    HW117237   0.320   6.903   5.964  0.2908 -0.4837  1.4041
 5446SOL    HW217238   0.201   6.849   5.864  0.8124  1.2571 -0.2108
 5447SOL     OW17239   3.006   3.254   1.499  0.5344  0.0935  0.0937
 5447SOL    HW117240   3.044   3.219   1.585  0.4746  1.2226  0.5929
 5447SOL    HW217241   3.078   3.297   1.445  0.4175  0.1083 -0.0515
 5448SOL     OW17242   4.647   1.939   0.634 -0.2249  0.4372  0.6190
 5448SOL    HW117243   4.728   1.954   0.578  0.0285  0.6990  1.0497
 5448SOL    HW217244   4.664   1.866   0.700 -0.5717  0.0298  0.2653
 5449SOL     OW17245   0.184   2.321   0.739 -0.0106  0.0871 -0.4232
 5449SOL    HW117246   0.168   2.260   0.817  3.8600  0.3631  0.8197
 5449SOL    HW217247   0.195   2.266   0.656 -0.2237 -0.5944 -0.0119
 5450SOL     OW17248   1.455   3.676   6.787  0.0686  0.0706  0.2668
 5450SOL    HW117249   1.373   3.655   6.735  1.7289 -1.3677 -1.9852
 5450SOL    HW217250   1.457   3.622   6.871 -1.1325 -0.0398  0.2419
 5451SOL     OW17251   4.617   5.603   3.108  0.1677 -0.7194  0.2467
 5451SOL    HW117252   4.585   5.638   3.196 -2.2987  0.1713 -0.9152
 5451SOL    HW217253   4.712   5.630   3.094 -0.1424  1.2737  1.5692
 5452SOL     OW17254   2.242   2.161   6.060 -0.0942 -0.2896 -0.5222
 5452SOL    HW117255   2.277   2.237   6.004 -0.0037 -1.4720 -2.1538
 5452SOL    HW217256   2.283   2.165   6.151  1.4333  0.4809 -1.2107
 5453SOL     OW17257   0.389   5.147   0.151 -0.4981  0.1124  0.0528
 5453SOL    HW117258   0.297   5.106   0.149 -0.7035  0.5647 -1.5432
 5453SOL    HW217259   0.386   5.233   0.201 -1.2167  0.6612 -0.8889
 5454SOL     OW17260   1.449   2.853   0.706  0.4560  0.2839  0.0349
 5454SOL    HW117261   1.494   2.769   0.675  0.3034  1.2882 -3.2789
 5454SOL    HW217262   1.351   2.849   0.686  0.1511  0.6880  1.2869
 5455SOL     OW17263   6.831   1.082   1.036 -0.6081  0.4019  0.6505
 5455SOL    HW117264   6.803   1.075   1.132  0.1098 -0.7222  0.7956
 5455SOL    HW217265   6.909   1.144   1.028  2.3246 -2.8853  1.5352
 5456SOL     OW17266   3.752   0.234   2.411 -0.0298  0.1091 -0.6405
 5456SOL    HW117267   3.747   0.185   2.498 -1.0011  0.5351 -0.4379
 5456SOL    HW217268   3.740   0.332   2.428  2.2133  0.4836 -1.0018
 5457SOL     OW17269   5.383   1.804   2.609  0.1386  0.4099  0.2374
 5457SOL    HW117270   5.313   1.812   2.537  0.4759 -0.8258 -0.2518
 5457SOL    HW217271   5.349   1.847   2.693  0.0858  2.6731 -0.8770
 5458SOL     OW17272   6.801   4.978   4.997 -0.2505 -0.6605  0.2493
 5458SOL    HW117273   6.820   5.038   5.075  1.2459 -0.4600 -0.2343
 5458SOL    HW217274   6.718   5.009   4.951  0.2043  0.7463  0.3189
 5459SOL     OW17275   2.623   5.533   4.998  0.6297  0.3657  0.4328
 5459SOL    HW117276   2.639   5.449   4.947 -1.5380  1.5921 -2.5960
 5459SOL    HW217277   2.702   5.594   4.987  0.8486 -0.0133 -0.1784
 5460SOL     OW17278   4.596   1.915   5.030 -0.0858 -0.0948 -0.1558
 5460SOL    HW117279   4.534   1.973   4.977  0.2194 -1.9461 -2.7128
 5460SOL    HW217280   4.681   1.966   5.049 -0.8079  1.1211 -0.0589
 5461SOL     OW17281   4.550   6.555   5.083 -0.5962 -0.0711 -0.3611
 5461SOL    HW117282   4.525   6.585   5.175  1.5166 -1.5369  0.7638
 5461SOL    HW217283   4.481   6.491   5.048 -0.4777 -0.9570  0.9918
 5462SOL     OW17284   6.726   1.594   2.403  0.2890 -0.7243 -0.3169
 5462SOL    HW117285   6.750   1.633   2.314  0.9755 -0.5523 -0.0597
 5462SOL    HW217286   6.727   1.666   2.472 -1.6904 -0.5615 -0.4146
 5463SOL     OW17287   1.081   0.477   2.462  0.2944  0.2936 -0.8500
 5463SOL    HW117288   1.150   0.545   2.486  1.0944 -0.7269 -0.1526
 5463SOL    HW217289   1.045   0.435   2.545 -1.1323  0.7449 -1.2089
 5464SOL     OW17290   1.280   0.276   3.401  0.2135 -0.4742  0.0530
 5464SOL    HW117291   1.212   0.221   3.353 -0.1643  0.6191 -0.6951
 5464SOL    HW217292   1.234   0.350   3.450  0.7793 -0.4103  0.5034
 5465SOL     OW17293   3.539   5.504   5.196 -0.2223 -0.2164 -0.4130
 5465SOL    HW117294   3.557   5.504   5.097  0.1892  0.8413 -0.3505
 5465SOL    HW217295   3.442   5.522   5.212 -0.0589  0.9700 -0.6176
 5466SOL     OW17296   3.924   6.516   3.394 -0.5969  0.3263 -0.2258
 5466SOL    HW117297   3.933   6.608   3.356  1.7731  0.0178 -0.5705
 5466SOL    HW217298   3.858   6.463   3.339  1.2513  0.5035 -2.8094
 5467SOL     OW17299   6.341   5.986   2.511  0.2691 -0.0428 -0.6958
 5467SOL    HW117300   6.330   5.906   2.571 -0.6057 -0.7061 -1.7102
 5467SOL    HW217301   6.389   6.058   2.561  0.5178 -0.9661  0.4493
 5468SOL     OW17302   4.671   1.820   5.850  0.1680 -0.2210  0.5191
 5468SOL    HW117303   4.731   1.899   5.836  1.0627 -1.0276 -0.3739
 5468SOL    HW217304   4.644   1.783   5.761  0.5723 -1.5142  0.9117
 5469SOL     OW17305   3.567   5.522   1.745  0.6116  0.3157  0.1379
 5469SOL    HW117306   3.479   5.489   1.780  0.4466 -0.7885 -1.2187
 5469SOL    HW217307   3.551   5.577   1.663  1.1960 -0.1139 -0.2705
 5470SOL     OW17308   1.028   5.131   3.316  0.0224  0.1004  0.0322
 5470SOL    HW117309   1.115   5.083   3.309  0.2904  0.7060 -1.0052
 5470SOL    HW217310   1.044   5.224   3.350 -0.0770  0.5464 -1.0879
 5471SOL     OW17311   6.085   3.942   3.230 -0.3040 -0.6818 -0.2340
 5471SOL    HW117312   6.082   3.917   3.326  0.4851 -1.5845 -0.4350
 5471SOL    HW217313   5.999   3.987   3.204 -0.3031  0.0886  1.0155
 5472SOL     OW17314   2.595   6.765   6.170  0.1167 -0.0778  0.1616
 5472SOL    HW117315   2.546   6.827   6.109  0.7395 -0.4607 -0.7571
 5472SOL    HW217316   2.561   6.672   6.157 -0.6449  0.0081  1.3565
 5473SOL     OW17317   1.603   4.191   2.319  0.2285  0.2977 -0.7532
 5473SOL    HW117318   1.633   4.184   2.415 -0.2189 -1.8047 -0.7380
 5473SOL    HW217319   1.683   4.209   2.261  1.4485 -3.5104 -0.5122
 5474SOL     OW17320   0.364   6.897   3.751  0.6417 -0.0273  0.0353
 5474SOL    HW117321   0.366   6.938   3.659  1.8984  0.3601  0.2163
 5474SOL    HW217322   0.446   6.840   3.763  0.4848 -0.0706  0.9199
 5475SOL     OW17323   3.686   2.103   0.825 -0.1625 -0.1375  0.3423
 5475SOL    HW117324   3.688   2.034   0.753 -1.6683 -0.7230  0.8121
 5475SOL    HW217325   3.778   2.140   0.839  0.3931 -0.9726 -0.9409
 5476SOL     OW17326   2.224   1.458   6.505  0.1931 -0.1797  0.5386
 5476SOL    HW117327   2.320   1.473   6.530  0.5665 -1.9048  0.2525
 5476SOL    HW217328   2.208   1.495   6.414  0.8898 -0.8283  0.1368
 5477SOL     OW17329   1.586   2.696   2.018  0.0514 -0.2982  0.5572
 5477SOL    HW117330   1.656   2.740   1.962  2.3595 -1.4429  2.3675
 5477SOL    HW217331   1.518   2.764   2.045  2.4909  1.8244  1.7478
 5478SOL     OW17332   6.893   6.443   4.511 -0.4223 -0.5397  0.5391
 5478SOL    HW117333   6.909   6.451   4.413  0.1560 -2.0311  0.4872
 5478SOL    HW217334   6.860   6.530   4.547 -1.7894 -0.3001 -1.1844
 5479SOL     OW17335   4.348   2.181   4.455  0.0486 -0.1560 -0.1681
 5479SOL    HW117336   4.269   2.146   4.405 -0.2089 -0.9158  0.7447
 5479SOL    HW217337   4.318   2.245   4.525  0.3771  0.6141 -0.7113
 5480SOL     OW17338   1.073   1.871   6.697 -0.3999  0.4904 -0.2103
 5480SOL    HW117339   0.984   1.915   6.703  0.6119  2.5225  1.2095
 5480SOL    HW217340   1.097   1.856   6.601 -1.5507  1.4534 -0.6665
 5481SOL     OW17341   4.253   6.033   1.862  0.2659 -0.2621 -0.0040
 5481SOL    HW117342   4.284   6.118   1.819 -0.9488  0.6631  0.8713
 5481SOL    HW217343   4.157   6.016   1.837 -0.0878 -0.3413  1.3366
 5482SOL     OW17344   1.518   5.345   1.228 -0.8113 -0.3633 -0.0964
 5482SOL    HW117345   1.580   5.332   1.150  0.7802  1.1561  0.8631
 5482SOL    HW217346   1.539   5.277   1.298  0.5549  0.8054  0.6711
 5483SOL     OW17347   0.131   1.858   6.651  0.0473  0.5651  0.6103
 5483SOL    HW117348   0.159   1.773   6.696  0.9192  0.0070 -0.8896
 5483SOL    HW217349   0.090   1.920   6.718 -1.8615 -1.5462  1.5008
 5484SOL     OW17350   5.675   6.172   4.472  0.0412 -0.3452 -0.2816
 5484SOL    HW117351   5.740   6.247   4.456 -0.2144 -0.1853 -0.5962
 5484SOL    HW217352   5.714   6.107   4.536  0.5033 -0.2372 -0.4479
 5485SOL     OW17353   4.482   0.825   5.081  0.1210  0.0422  1.1432
 5485SOL    HW117354   4.484   0.912   5.032 -3.2593 -1.2400 -1.7525
 5485SOL    HW217355   4.557   0.767   5.050  0.5815  0.8402  0.7420
 5486SOL     OW17356   2.564   4.989   4.838 -0.7317 -0.0904 -0.0078
 5486SOL    HW117357   2.487   4.932   4.866 -0.5086 -0.9673 -1.1328
 5486SOL    HW217358   2.642   4.970   4.898 -1.3712  0.8675  1.1947
 5487SOL     OW17359   2.846   4.770   4.467 -0.0546  0.7507 -0.0583
 5487SOL    HW117360   2.843   4.860   4.511  1.2067  0.5060  0.5892
 5487SOL    HW217361   2.823   4.700   4.534  1.6361  0.3928  0.1888
 5488SOL     OW17362   3.841   1.806   6.006 -0.2517 -0.2471  0.3961
 5488SOL    HW117363   3.817   1.713   6.036  0.9792 -0.4288  0.8461
 5488SOL    HW217364   3.863   1.805   5.909 -0.9972 -0.2680  0.2178
 5489SOL     OW17365   6.861   2.956   4.187  0.2038  0.3661 -0.3111
 5489SOL    HW117366   6.832   2.973   4.093  3.6826  0.1637 -1.5444
 5489SOL    HW217367   6.833   2.864   4.215 -0.0245  0.0628 -1.5124
 5490SOL     OW17368   6.364   4.633   2.300  0.3125 -0.1478  0.4172
 5490SOL    HW117369   6.324   4.544   2.278  1.9771 -0.6026 -1.0374
 5490SOL    HW217370   6.457   4.620   2.334 -0.2147  0.9422  2.4407
 5491SOL     OW17371   1.779   4.259   0.408  0.1994  0.1670  0.6213
 5491SOL    HW117372   1.801   4.240   0.313  2.2425  0.5081  0.9757
 5491SOL    HW217373   1.777   4.358   0.423  2.7067  0.1640  1.4495
 5492SOL     OW17374   1.434   3.382   0.442  0.0566 -0.6462  0.4596
 5492SOL    HW117375   1.368   3.329   0.388 -1.1487  0.1200  1.1215
 5492SOL    HW217376   1.389   3.416   0.525  1.4384 -0.4886  1.1619
 5493SOL     OW17377   3.398   3.475   4.879 -0.1057 -0.4523  0.0622
 5493SOL    HW117378   3.336   3.508   4.808  0.1782  1.0057  0.4459
 5493SOL    HW217379   3.473   3.541   4.890  1.3439 -1.9992 -0.1666
 5494SOL     OW17380   5.719   0.639   6.428 -0.4982  0.0191 -0.4973
 5494SOL    HW117381   5.763   0.549   6.434  2.1203  1.1544 -1.3378
 5494SOL    HW217382   5.646   0.636   6.361 -1.5378 -1.8416  0.6234
 5495SOL     OW17383   2.801   3.089   1.464  0.3017  0.2976 -0.0014
 5495SOL    HW117384   2.868   3.163   1.472  1.5224 -0.8674  1.2497
 5495SOL    HW217385   2.768   3.065   1.555 -0.6150 -0.2253 -0.4636
 5496SOL     OW17386   4.624   6.914   6.709 -0.8300 -0.0958  0.0532
 5496SOL    HW117387   4.527   6.939   6.699 -1.2275 -1.4701  0.2741
 5496SOL    HW217388   4.655   6.868   6.626 -1.2680 -2.4182  1.1111
 5497SOL     OW17389   0.050   0.333   5.285 -0.0944 -0.0944 -0.0523
 5497SOL    HW117390  -0.023   0.390   5.322  0.6578  0.9961 -0.2161
 5497SOL    HW217391   0.135   0.350   5.335  0.2616 -0.7232 -0.4175
 5498SOL     OW17392   7.006   6.202   1.033  0.2783 -0.0958  0.3617
 5498SOL    HW117393   7.087   6.160   0.992  0.6523  0.6659  0.2941
 5498SOL    HW217394   7.030   6.292   1.069 -0.6671  0.3993 -0.1940
 5499SOL     OW17395   2.284   6.532   3.214 -0.4262 -0.9648 -0.1102
 5499SOL    HW117396   2.326   6.513   3.303  0.7091 -0.8058 -0.6023
 5499SOL    HW217397   2.204   6.591   3.227 -1.3353 -2.3711  0.9753
 5500SOL     OW17398   1.558   4.661   1.106 -0.2296 -0.0236  0.3282
 5500SOL    HW117399   1.574   4.709   1.193 -1.4628 -0.4619  0.8302
 5500SOL    HW217400   1.485   4.593   1.119 -0.7724  0.2380 -1.1668
 5501SOL     OW17401   6.148   3.703   0.580 -0.4340 -0.5928 -0.1132
 5501SOL    HW117402   6.110   3.786   0.620 -0.7561 -1.1092  0.6848
 5501SOL    HW217403   6.189   3.724   0.491 -1.3749  0.2236 -0.3694
 5502SOL     OW17404   4.430   4.731   5.901  0.3015 -0.4944  0.3955
 5502SOL    HW117405   4.376   4.733   5.985 -0.5530 -0.1924 -0.1376
 5502SOL    HW217406   4.523   4.763   5.919 -0.5798  2.1432  0.7378
 5503SOL     OW17407   6.058   3.731   2.069 -0.0729  0.0741 -0.0762
 5503SOL    HW117408   6.043   3.666   2.144  0.2836 -0.3570 -0.3801
 5503SOL    HW217409   6.142   3.708   2.020  0.4828  1.2285  0.2909
 5504SOL     OW17410   5.244   2.260   1.346  0.0526 -0.7962  0.5135
 5504SOL    HW117411   5.194   2.315   1.412  0.0375 -1.0539  0.7197
 5504SOL    HW217412   5.337   2.294   1.338 -0.4298  0.3267 -0.6272
 5505SOL     OW17413   3.348   4.921   2.996  0.0614  0.0020 -0.2046
 5505SOL    HW117414   3.284   4.934   2.920 -1.0494  2.7478  1.0620
 5505SOL    HW217415   3.300   4.880   3.073 -0.0994  1.5909  0.5745
 5506SOL     OW17416   6.881   2.797   2.450 -0.2173 -0.5196 -0.0473
 5506SOL    HW117417   6.801   2.793   2.510 -0.0808 -0.2088  0.1557
 5506SOL    HW217418   6.925   2.707   2.448 -1.1845 -1.0084 -1.0162
 5507SOL     OW17419   4.342   6.422   6.203 -0.1505  0.4551 -0.9822
 5507SOL    HW117420   4.329   6.412   6.301 -0.4970  0.5706 -1.0150
 5507SOL    HW217421   4.294   6.504   6.171  0.2531  0.6148 -1.1901
 5508SOL     OW17422   0.193   2.188   5.695 -0.2101 -1.0017  0.5782
 5508SOL    HW117423   0.251   2.237   5.760 -0.2821  0.8306 -0.6563
 5508SOL    HW217424   0.100   2.226   5.698 -0.4754 -1.6055  0.1648
 5509SOL     OW17425   0.587   3.335   2.392 -0.7090 -0.1289  0.4083
 5509SOL    HW117426   0.622   3.244   2.372 -0.9547 -0.0978 -0.1918
 5509SOL    HW217427   0.634   3.372   2.472  0.0105 -0.4311  0.1341
 5510SOL     OW17428   5.161   6.269   0.634 -0.1984 -0.1011 -0.0285
 5510SOL    HW117429   5.135   6.190   0.689 -0.8611  1.9728  2.8637
 5510SOL    HW217430   5.088   6.288   0.568  0.4022 -2.3489 -1.4872
 5511SOL     OW17431   1.348   4.377   6.393 -0.3230 -0.2030 -0.1602
 5511SOL    HW117432   1.431   4.377   6.337  1.0320 -3.3746  1.6056
 5511SOL    HW217433   1.360   4.442   6.469  0.3364 -0.2366 -0.2240
 5512SOL     OW17434   1.181   6.256   1.528  0.0654  0.0013  0.1882
 5512SOL    HW117435   1.189   6.237   1.430  1.6197 -1.6509  0.5783
 5512SOL    HW217436   1.085   6.256   1.554 -0.3586  0.0896 -1.2593
 5513SOL     OW17437   3.888   5.384   4.283  0.2989 -0.5764 -0.4437
 5513SOL    HW117438   3.835   5.340   4.356  0.8320 -1.8919 -0.8123
 5513SOL    HW217439   3.954   5.318   4.247  0.0059  0.0347 -2.1536
 5514SOL     OW17440   4.233   0.933   0.565  0.0323 -0.4327 -0.5421
 5514SOL    HW117441   4.156   0.869   0.566 -1.2190  0.9948  0.6160
 5514SOL    HW217442   4.230   0.989   0.482 -0.1597 -0.4177 -0.5247
 5515SOL     OW17443   4.983   4.759   1.893 -0.5531  0.6167 -0.0049
 5515SOL    HW117444   5.021   4.783   1.982 -2.6869  2.2694  0.5273
 5515SOL    HW217445   4.986   4.659   1.882  2.0220  0.5242  0.7838
 5516SOL     OW17446   1.585   2.855   6.400  0.3543 -0.5326 -0.3848
 5516SOL    HW117447   1.604   2.927   6.467 -1.5212  1.8144 -2.1757
 5516SOL    HW217448   1.496   2.813   6.420  1.0743 -1.8404  0.1773
 5517SOL     OW17449   1.494   2.103   5.698  0.1407  0.4798  0.1241
 5517SOL    HW117450   1.512   2.199   5.675 -0.0646  0.1821 -1.4026
 5517SOL    HW217451   1.521   2.045   5.621 -0.6219 -0.6005  0.6493
 5518SOL     OW17452   4.158   3.526   6.470 -0.3417  0.5548 -0.0027
 5518SOL    HW117453   4.250   3.563   6.458 -0.1533 -0.1470 -0.8428
 5518SOL    HW217454   4.163   3.440   6.520 -0.5313  0.4719 -0.1236
 5519SOL     OW17455   5.417   1.595   6.930 -0.1465 -0.2251 -0.5395
 5519SOL    HW117456   5.360   1.672   6.957 -1.4633 -0.3293 -2.7314
 5519SOL    HW217457   5.429   1.533   7.007 -2.8935 -0.0970  0.0933
 5520SOL     OW17458   3.975   4.901   1.996  0.0728 -0.5648  0.5806
 5520SOL    HW117459   4.042   4.960   1.951  1.7565 -1.3884  1.8828
 5520SOL    HW217460   3.896   4.888   1.937  1.8717 -1.0519 -1.8504
 5521SOL     OW17461   4.582   6.220   2.662 -0.3225  0.2735  1.2723
 5521SOL    HW117462   4.556   6.297   2.720 -0.0119  1.0867  0.3655
 5521SOL    HW217463   4.674   6.236   2.625  0.8611 -1.7851  3.1379
 5522SOL     OW17464   5.304   5.839   0.217 -0.5015 -0.0113 -0.5641
 5522SOL    HW117465   5.248   5.780   0.159 -1.2621  0.7702 -0.6593
 5522SOL    HW217466   5.397   5.843   0.181 -0.6945 -0.3712 -1.1176
 5523SOL     OW17467   5.578   3.774   0.477 -0.1837 -0.3339 -0.2949
 5523SOL    HW117468   5.581   3.693   0.418 -0.2998 -2.4830  2.4366
 5523SOL    HW217469   5.484   3.806   0.484 -0.5041 -1.3263  0.2366
 5524SOL     OW17470   3.018   6.098   3.429  0.9719 -0.1822 -0.2309
 5524SOL    HW117471   3.067   6.183   3.449 -1.2638  1.2229 -0.3570
 5524SOL    HW217472   2.923   6.106   3.459  0.7848 -2.8410  0.1472
 5525SOL     OW17473   5.707   1.411   3.927  0.1056  0.2178 -0.4281
 5525SOL    HW117474   5.619   1.377   3.957 -0.0152  0.7655 -0.1496
 5525SOL    HW217475   5.723   1.383   3.832  0.5809 -1.6809  0.1789
 5526SOL     OW17476   4.888   3.499   2.244  0.6255  0.3633  0.6832
 5526SOL    HW117477   4.880   3.405   2.209  0.5646  0.9891 -1.0869
 5526SOL    HW217478   4.846   3.505   2.334  0.6384 -1.3084  0.8321
 5527SOL     OW17479   0.449   0.831   2.730 -0.0521  0.7036  0.2581
 5527SOL    HW117480   0.357   0.827   2.768 -0.4660 -1.4924 -0.8269
 5527SOL    HW217481   0.513   0.859   2.801 -1.5314  2.4509  0.9881
 5528SOL     OW17482   3.486   1.756   0.745  0.4139 -0.5158 -0.7263
 5528SOL    HW117483   3.555   1.790   0.682  0.7897  0.6831  0.3019
 5528SOL    HW217484   3.530   1.711   0.823  0.0417 -0.1466 -0.2896
 5529SOL     OW17485   3.746   1.806   1.624  0.5690 -0.3730  0.3891
 5529SOL    HW117486   3.820   1.859   1.582 -0.0318 -0.8061 -1.2949
 5529SOL    HW217487   3.767   1.792   1.721  1.7786  1.0901  0.3947
 5530SOL     OW17488   0.198   1.501   1.035  0.3704  0.1060 -0.7503
 5530SOL    HW117489   0.295   1.477   1.040  0.1191 -1.0910 -1.3808
 5530SOL    HW217490   0.176   1.533   0.943 -0.0804 -0.8257 -0.9848
 5531SOL     OW17491   2.021   4.122   5.564 -0.0289 -0.4483  0.6585
 5531SOL    HW117492   1.998   4.025   5.562 -1.1458 -0.2494  1.9812
 5531SOL    HW217493   2.024   4.158   5.471  2.5835 -2.1817 -0.0272
 5532SOL     OW17494   6.662   4.621   5.394  0.1216  0.3345  0.3632
 5532SOL    HW117495   6.707   4.681   5.328 -0.9075  0.6718 -0.0542
 5532SOL    HW217496   6.710   4.533   5.397  1.0428  0.8161  0.2455
 5533SOL     OW17497   4.600   2.052   4.498  0.1708  0.5618 -0.1421
 5533SOL    HW117498   4.596   2.037   4.596 -0.4625  1.6396  0.0154
 5533SOL    HW217499   4.509   2.076   4.464  0.6427  1.5773 -0.7444
 5534SOL     OW17500   2.339   1.085   4.740  0.0704 -0.1534 -0.3222
 5534SOL    HW117501   2.286   1.057   4.661 -0.9942 -0.9622  0.6390
 5534SOL    HW217502   2.419   1.137   4.711  0.3228 -1.4023 -1.9806
 5535SOL     OW17503   1.203   1.576   2.370  0.5166  0.5760 -0.5422
 5535SOL    HW117504   1.161   1.572   2.461  0.9946 -1.9778 -0.3566
 5535SOL    HW217505   1.219   1.671   2.345 -1.1607  1.4171  1.3104
 5536SOL     OW17506   5.259   0.055   3.957  0.1578  0.1485  0.4020
 5536SOL    HW117507   5.296   0.133   4.007 -0.7374 -1.1016  3.2589
 5536SOL    HW217508   5.328  -0.017   3.950  0.5817  0.6631 -1.1099
 5537SOL     OW17509   2.164   2.166   3.308 -0.1685  0.3819  0.0569
 5537SOL    HW117510   2.137   2.073   3.329 -0.6898  0.2178 -1.2530
 5537SOL    HW217511   2.099   2.230   3.348  0.4687  0.2293  1.3868
 5538SOL     OW17512   4.543   5.324   3.100  0.6747 -0.5832 -0.1316
 5538SOL    HW117513   4.570   5.420   3.105 -2.0396  0.3436 -1.4391
 5538SOL    HW217514   4.605   5.276   3.038  0.8660  0.8492 -1.1197
 5539SOL     OW17515   4.744   4.438   0.219 -0.3216  0.0320 -0.3134
 5539SOL    HW117516   4.732   4.430   0.120  0.2322  0.9108 -0.4589
 5539SOL    HW217517   4.728   4.349   0.261 -1.0891 -0.2328 -1.1328
 5540SOL     OW17518   3.869   6.145   2.919 -0.7749  0.2518  0.2011
 5540SOL    HW117519   3.892   6.184   2.829 -1.0201 -0.3081 -0.1111
 5540SOL    HW217520   3.802   6.071   2.907 -0.5890 -0.0233  0.8166
 5541SOL     OW17521   4.513   6.468   0.829 -0.1123 -0.2689  0.1923
 5541SOL    HW117522   4.496   6.414   0.912 -1.1303 -0.1847  0.0563
 5541SOL    HW217523   4.586   6.534   0.848  0.4505 -1.0034  0.6654
 5542SOL     OW17524   6.231   4.331   0.199 -0.1151 -0.0516  0.4234
 5542SOL    HW117525   6.313   4.314   0.254 -1.1557 -0.3727  1.9538
 5542SOL    HW217526   6.246   4.410   0.140  1.2774 -0.0955  0.6758
 5543SOL     OW17527   6.965   3.894   6.520  0.2740  0.8256  0.4156
 5543SOL    HW117528   6.923   3.985   6.519 -0.1334  0.6786  1.8960
 5543SOL    HW217529   6.902   3.828   6.478  1.0641  1.3859 -1.7708
 5544SOL     OW17530   5.048   6.402   6.449 -0.8624  0.1017  0.5127
 5544SOL    HW117531   4.989   6.352   6.387 -0.6380  1.4570 -0.8354
 5544SOL    HW217532   5.090   6.338   6.514 -0.1048 -1.5693 -1.5177
 5545SOL     OW17533   3.281   2.029   2.288  0.1917 -0.0686 -0.1231
 5545SOL    HW117534   3.197   2.059   2.244  1.2335  0.5450 -1.7483
 5545SOL    HW217535   3.343   1.991   2.220  2.3797  2.0951  0.5240
 5546SOL     OW17536   1.388   6.624   3.703 -0.0011  0.6114  0.0158
 5546SOL    HW117537   1.442   6.663   3.628 -0.3528  0.9426 -0.0709
 5546SOL    HW217538   1.436   6.546   3.742 -0.1519 -0.0402 -1.0472
 5547SOL     OW17539   3.682   5.848   4.705  0.2837 -0.2216  1.0911
 5547SOL    HW117540   3.582   5.843   4.700  0.1772  1.7060  0.3146
 5547SOL    HW217541   3.721   5.820   4.617  0.2900  0.9659  0.6981
 5548SOL     OW17542   6.023   2.110   5.680  0.6589  0.1892  0.5942
 5548SOL    HW117543   6.003   2.162   5.763  0.9169 -0.9859  1.4234
 5548SOL    HW217544   5.997   2.014   5.694  1.4719 -0.1914 -0.3851
 5549SOL     OW17545   4.519   4.988   4.385  0.4401  0.1161 -0.0951
 5549SOL    HW117546   4.528   4.964   4.288  0.2356  0.1902 -0.1347
 5549SOL    HW217547   4.596   4.950   4.437  1.6692  1.8117 -0.6058
 5550SOL     OW17548   4.131   6.519   0.326  0.5472 -0.1870  0.3533
 5550SOL    HW117549   4.050   6.570   0.357  1.0230  0.7038  0.1724
 5550SOL    HW217550   4.156   6.451   0.395  0.8350  0.9066  1.3694
 5551SOL     OW17551   1.660   1.203   2.006 -0.1077 -0.1339  0.3083
 5551SOL    HW117552   1.702   1.275   2.061 -0.2367 -1.1275  1.7516
 5551SOL    HW217553   1.586   1.160   2.057  0.2667 -1.6102 -0.3165
 5552SOL     OW17554   1.465   1.603   0.544  0.6603 -0.2396  0.1464
 5552SOL    HW117555   1.498   1.595   0.450  0.4631 -0.6533  0.1099
 5552SOL    HW217556   1.393   1.535   0.560 -1.5758  1.8780 -0.3613
 5553SOL     OW17557   5.569   6.425   4.700  0.3064 -0.0378  0.4083
 5553SOL    HW117558   5.607   6.476   4.777  2.0497  0.7561 -0.9156
 5553SOL    HW217559   5.639   6.367   4.660 -0.5151 -0.3239 -0.6850
 5554SOL     OW17560   3.438   5.814   6.103 -0.2601 -0.3327 -0.5634
 5554SOL    HW117561   3.525   5.829   6.150 -0.7413 -4.7164  2.3606
 5554SOL    HW217562   3.364   5.855   6.156 -0.3845 -0.9543 -0.2530
 5555SOL     OW17563   6.400   6.526   1.692 -0.5036  0.1256  0.1153
 5555SOL    HW117564   6.314   6.497   1.649 -0.3692 -0.4707  0.2415
 5555SOL    HW217565   6.448   6.589   1.631 -0.3043 -0.7328 -0.6316
 5556SOL     OW17566   4.465   2.014   6.330 -0.2985 -0.0933  0.7136
 5556SOL    HW117567   4.537   2.071   6.290  0.9928 -1.8429  0.4444
 5556SOL    HW217568   4.391   2.003   6.264 -0.6482  1.3514  0.8225
 5557SOL     OW17569   1.954   6.758   2.473 -0.2150  0.2094 -0.1301
 5557SOL    HW117570   1.888   6.781   2.545  0.7695  0.8530  0.5850
 5557SOL    HW217571   2.046   6.785   2.502  0.3733 -0.6849 -1.1133
 5558SOL     OW17572   4.299   2.675   0.485 -0.2957  0.0114  0.4514
 5558SOL    HW117573   4.361   2.743   0.445 -1.3585  1.0183  0.4700
 5558SOL    HW217574   4.315   2.669   0.583  0.1444 -0.1325  0.3716
 5559SOL     OW17575   3.448   1.010   2.571  0.3868  0.1620  0.1884
 5559SOL    HW117576   3.404   0.967   2.649  0.4638 -1.8072 -0.7854
 5559SOL    HW217577   3.510   1.082   2.603 -0.1336 -0.0991  1.8661
 5560SOL     OW17578   0.372   1.138   2.928  0.1261  0.2654 -0.2049
 5560SOL    HW117579   0.407   1.146   3.022  1.7524  0.8255 -0.8140
 5560SOL    HW217580   0.295   1.200   2.916  0.1344  0.4602  0.6560
 5561SOL     OW17581   3.075   5.121   1.421 -0.4028 -0.3090 -0.2604
 5561SOL    HW117582   3.127   5.054   1.474 -1.5079 -1.0099 -0.0247
 5561SOL    HW217583   3.083   5.211   1.463  3.5057  0.4585 -2.1622
 5562SOL     OW17584   5.065   3.830   1.153 -0.1107 -0.9787 -0.1814
 5562SOL    HW117585   5.132   3.781   1.208  0.4698  1.0405  1.0131
 5562SOL    HW217586   5.109   3.868   1.072  0.0184 -0.3094  0.2005
 5563SOL     OW17587   5.160   4.847   0.046  0.1092  0.5703  0.2512
 5563SOL    HW117588   5.145   4.760   0.093  0.6728  0.2811 -0.0993
 5563SOL    HW217589   5.252   4.849   0.007  0.0099  1.2206  0.0337
 5564SOL     OW17590   4.811   1.934   2.091  0.1829  0.2001 -0.3365
 5564SOL    HW117591   4.876   2.009   2.108  0.9643 -0.2486 -1.2738
 5564SOL    HW217592   4.793   1.886   2.177  0.5591  0.7589  0.0600
 5565SOL     OW17593   3.205   1.267   6.351 -0.7358  0.4164  0.1946
 5565SOL    HW117594   3.123   1.308   6.309 -0.7352  0.0556 -0.1674
 5565SOL    HW217595   3.286   1.319   6.323 -0.7891  0.4835  0.1642
 5566SOL     OW17596   3.430   3.270   0.169 -0.3684  0.4862 -0.0583
 5566SOL    HW117597   3.368   3.230   0.102  0.4475  0.9202 -1.0955
 5566SOL    HW217598   3.437   3.209   0.248 -1.2907 -0.0652 -0.3867
 5567SOL     OW17599   1.045   6.170   2.597 -0.3446 -0.1073  0.4682
 5567SOL    HW117600   1.101   6.228   2.536 -0.9056 -0.0928 -0.0454
 5567SOL    HW217601   1.067   6.074   2.580  1.2004 -0.0587  1.9128
 5568SOL     OW17602   4.822   2.871   6.958 -0.1141 -0.1873 -0.2049
 5568SOL    HW117603   4.762   2.897   6.883  0.2423 -0.8325 -0.7203
 5568SOL    HW217604   4.780   2.897   7.045  0.1038  1.9148 -0.6545
 5569SOL     OW17605   5.346   1.158   0.925  0.3544  0.4720  0.1496
 5569SOL    HW117606   5.281   1.132   0.996  0.2604  0.6119  0.1147
 5569SOL    HW217607   5.311   1.237   0.875  0.0526 -0.1140 -0.5719
 5570SOL     OW17608   3.730   1.773   6.581 -0.5953 -0.1321 -0.0093
 5570SOL    HW117609   3.631   1.781   6.569 -0.5699  1.8085  0.6096
 5570SOL    HW217610   3.750   1.729   6.668 -1.0032  2.1205  1.2957
 5571SOL     OW17611   0.922   5.501   5.304  0.3022 -0.3380  0.1742
 5571SOL    HW117612   0.972   5.478   5.220  1.8983 -1.2112  1.3219
 5571SOL    HW217613   0.826   5.516   5.282  0.8770  0.6186 -1.9962
 5572SOL     OW17614   0.917   4.175   4.955  0.2971  0.3546  0.0185
 5572SOL    HW117615   0.833   4.154   5.005 -0.1726 -0.7697 -1.2088
 5572SOL    HW217616   0.961   4.254   4.998 -0.7033  0.1824  1.4624
 5573SOL     OW17617   5.485   4.632   0.560  0.0526 -0.3622 -0.3224
 5573SOL    HW117618   5.400   4.620   0.611  1.8497 -1.7277  2.6583
 5573SOL    HW217619   5.529   4.717   0.587  0.1738 -0.1979 -1.0131
 5574SOL     OW17620   1.862   0.313   3.646  0.1599 -0.2897  0.3943
 5574SOL    HW117621   1.791   0.276   3.706  0.9981 -1.5595  0.6419
 5574SOL    HW217622   1.907   0.239   3.597 -0.7751  0.7340 -2.1752
 5575SOL     OW17623   2.082   1.398   3.796 -0.1910 -0.2225 -0.2104
 5575SOL    HW117624   2.094   1.350   3.883 -0.0568 -2.0888 -1.2046
 5575SOL    HW217625   2.072   1.331   3.722 -0.6878  1.3099 -1.5965
 5576SOL     OW17626   4.858   6.993   0.507  0.2087  0.2900 -0.3399
 5576SOL    HW117627   4.821   6.931   0.438 -1.8138 -0.3261  1.1921
 5576SOL    HW217628   4.837   7.087   0.482 -2.5942 -0.0168  0.4102
 5577SOL     OW17629   2.799   3.558   5.991 -0.0493 -0.1906  0.0968
 5577SOL    HW117630   2.828   3.479   6.046 -2.0505 -0.7365  0.4513
 5577SOL    HW217631   2.725   3.530   5.930 -0.1957  1.2245 -0.4084
 5578SOL     OW17632   5.752   2.998   6.849 -0.5119  0.4355 -0.0064
 5578SOL    HW117633   5.773   3.095   6.866  0.4876  0.0573  1.0787
 5578SOL    HW217634   5.823   2.941   6.891  0.0140 -0.7412 -2.3319
 5579SOL     OW17635   4.036   4.233   1.671  0.1703  0.5859  0.3951
 5579SOL    HW117636   4.044   4.175   1.752 -0.2813 -2.2594 -1.4859
 5579SOL    HW217637   3.940   4.243   1.647  0.3814  0.0522 -0.7007
 5580SOL     OW17638   6.732   5.830   2.454  0.1021 -0.0348 -0.8037
 5580SOL    HW117639   6.656   5.775   2.420 -0.1881 -0.8930  1.1182
 5580SOL    HW217640   6.787   5.776   2.517  0.3164  1.6084  0.4823
 5581SOL     OW17641   2.946   2.955   0.404  0.2251 -0.1507 -0.0927
 5581SOL    HW117642   2.945   2.864   0.446  0.6341 -0.5189 -0.8746
 5581SOL    HW217643   2.957   3.024   0.476  0.7934 -0.7614  0.4203
 5582SOL     OW17644   2.274   3.062   6.159  0.3123 -0.0626  0.2284
 5582SOL    HW117645   2.232   3.078   6.248  1.9022  1.0803  0.8282
 5582SOL    HW217646   2.210   3.087   6.086 -1.4463 -2.1254  0.9647
 5583SOL     OW17647   2.287   0.540   0.166 -0.5293  0.1690 -0.0131
 5583SOL    HW117648   2.339   0.623   0.144  0.0639 -0.1459  0.1721
 5583SOL    HW217649   2.325   0.498   0.248 -0.6122 -0.4621 -0.2930
 5584SOL     OW17650   5.678   3.116   4.838 -0.3369 -0.0676  0.3061
 5584SOL    HW117651   5.650   3.090   4.746  1.2716 -1.5204  0.1904
 5584SOL    HW217652   5.611   3.181   4.876 -1.5917 -0.2703 -1.4467
 5585SOL     OW17653   0.513   0.509   2.974  0.6558  0.1653 -0.2974
 5585SOL    HW117654   0.512   0.419   3.018 -0.4750 -0.1495 -0.9106
 5585SOL    HW217655   0.606   0.533   2.948  1.1049 -0.3891  0.7433
 5586SOL     OW17656   2.391   0.883   6.308  0.1404 -0.0979  0.0088
 5586SOL    HW117657   2.428   0.877   6.401  0.4194  0.0213 -0.0955
 5586SOL    HW217658   2.462   0.912   6.245  0.0938 -0.7264 -0.3383
 5587SOL     OW17659   2.911   5.356   2.710  0.2164  0.3143  0.0371
 5587SOL    HW117660   2.978   5.344   2.637 -1.5742  0.2507 -1.6646
 5587SOL    HW217661   2.822   5.378   2.671 -2.0873 -4.4680  1.8031
 5588SOL     OW17662   5.157   0.724   6.304  0.4434 -0.2873 -0.1252
 5588SOL    HW117663   5.138   0.644   6.361 -3.4844  0.6663  0.2296
 5588SOL    HW217664   5.128   0.706   6.210  0.9975  0.2129 -0.4003
 5589SOL     OW17665   1.300   3.673   4.711 -0.2921  0.2389  0.3526
 5589SOL    HW117666   1.290   3.740   4.785 -0.1592 -1.0314  1.5579
 5589SOL    HW217667   1.396   3.667   4.685 -0.4146  1.1091 -0.3568
 5590SOL     OW17668   5.203   0.263   4.327  0.2658  0.3182 -0.1138
 5590SOL    HW117669   5.187   0.169   4.358  0.1829  0.1119 -0.7534
 5590SOL    HW217670   5.118   0.299   4.289  0.0218  1.0295  1.0647
 5591SOL     OW17671   5.785   0.300   5.134  0.4172  0.7070 -0.0365
 5591SOL    HW117672   5.854   0.261   5.072 -0.1140 -0.4996  0.0966
 5591SOL    HW217673   5.747   0.383   5.093  0.5460  0.2966 -1.0280
 5592SOL     OW17674   0.228   3.997   4.578 -0.5134  0.2987  0.0554
 5592SOL    HW117675   0.153   4.062   4.589  0.0153  0.7239  1.3782
 5592SOL    HW217676   0.198   3.906   4.607 -0.3117  0.6332  1.4099
 5593SOL     OW17677   2.096   2.776   5.980 -0.3678 -0.1569 -0.1653
 5593SOL    HW117678   2.054   2.860   5.943  0.8299  0.8482  0.6809
 5593SOL    HW217679   2.061   2.760   6.072  0.2180  0.0302  0.0908
 5594SOL     OW17680   3.573   6.422   5.677  0.2036 -0.3008  0.3377
 5594SOL    HW117681   3.640   6.414   5.751  0.7835  0.4996 -0.0821
 5594SOL    HW217682   3.557   6.332   5.636  1.0519 -0.4972  0.4254
 5595SOL     OW17683   1.074   3.521   3.915  0.0666 -0.1128 -0.1796
 5595SOL    HW117684   1.120   3.451   3.859 -0.8024 -0.2493 -0.7505
 5595SOL    HW217685   0.983   3.539   3.876  0.6891  2.1460 -0.7109
 5596SOL     OW17686   5.957   5.332   5.395 -0.1308  0.4102  0.3450
 5596SOL    HW117687   5.907   5.417   5.381  0.5976  0.7065 -0.6294
 5596SOL    HW217688   5.893   5.255   5.400 -0.7516  0.9390  0.5466
 5597SOL     OW17689   1.934   1.720   6.546 -0.5795 -0.3124 -0.1476
 5597SOL    HW117690   1.885   1.655   6.605 -0.7479  0.0268  0.0906
 5597SOL    HW217691   1.959   1.801   6.599  0.9560 -0.8133 -0.0554
 5598SOL     OW17692   0.210   0.348   3.821  0.1135  0.5304 -0.0848
 5598SOL    HW117693   0.173   0.258   3.843  0.7940  0.4192  0.6141
 5598SOL    HW217694   0.147   0.419   3.854 -0.2162  0.3237 -0.2618
 5599SOL     OW17695   4.420   1.758   2.712 -0.0361 -0.1260  0.6232
 5599SOL    HW117696   4.337   1.795   2.754 -0.3458 -1.6408  1.4141
 5599SOL    HW217697   4.397   1.716   2.624 -0.5182 -2.3204  1.7472
 5600SOL     OW17698   2.219   4.177   1.904 -0.8788  0.1741  0.7288
 5600SOL    HW117699   2.272   4.163   1.820  0.3619  0.6635  1.3985
 5600SOL    HW217700   2.124   4.197   1.881 -1.1275 -2.0753 -0.4690
 5601SOL     OW17701   4.685   5.014   4.958 -0.2613  0.4509 -0.6105
 5601SOL    HW117702   4.663   5.002   5.055  0.4988  2.1463 -0.1958
 5601SOL    HW217703   4.624   5.082   4.918  2.0011  2.8307 -0.2416
 5602SOL     OW17704   3.410   1.234   3.788  0.4878 -0.1034  0.5519
 5602SOL    HW117705   3.316   1.229   3.821  0.0629 -2.1746 -0.8371
 5602SOL    HW217706   3.473   1.205   3.861 -0.0844 -0.3814  0.9376
 5603SOL     OW17707   3.800   0.701   6.472 -0.3573  0.2572  0.0827
 5603SOL    HW117708   3.859   0.759   6.416  0.8979 -1.8284 -0.8832
 5603SOL    HW217709   3.728   0.661   6.415  0.9030 -1.8490 -0.1681
 5604SOL     OW17710   2.494   4.557   4.510 -0.1086 -0.3851 -0.3280
 5604SOL    HW117711   2.396   4.575   4.523 -0.1588 -1.2268  0.5810
 5604SOL    HW217712   2.546   4.605   4.581  0.1928  0.4304 -1.0793
 5605SOL     OW17713   3.352   1.789   4.764 -0.3766  0.3615  0.0069
 5605SOL    HW117714   3.443   1.761   4.796 -1.0578 -0.6723  1.1156
 5605SOL    HW217715   3.360   1.875   4.713  1.2187  0.2763  0.0592
 5606SOL     OW17716   5.061   6.041   0.780  0.2242  0.3834  0.2720
 5606SOL    HW117717   5.058   5.998   0.870 -2.0342  1.1059  0.6046
 5606SOL    HW217718   4.999   6.120   0.778  0.3278  0.4766 -1.8714
 5607SOL     OW17719   2.104   0.188   1.751 -0.4204  0.0799  0.3268
 5607SOL    HW117720   2.025   0.128   1.744 -0.2874  0.0252 -0.9880
 5607SOL    HW217721   2.116   0.218   1.846 -1.9033 -0.0407  0.5624
 5608SOL     OW17722   0.313   4.255   3.825 -0.2920  0.0547  0.1378
 5608SOL    HW117723   0.368   4.174   3.844 -1.1730 -0.1640  1.9699
 5608SOL    HW217724   0.373   4.332   3.803  0.9519  0.1800  3.3935
 5609SOL     OW17725   5.749   2.562   1.503 -0.7568 -1.0514 -0.0966
 5609SOL    HW117726   5.660   2.573   1.546 -1.0415 -0.0132 -0.9296
 5609SOL    HW217727   5.741   2.572   1.404  0.6778  1.9685 -0.0250
 5610SOL     OW17728   6.066   6.213   6.769  0.1447 -0.2222  0.2116
 5610SOL    HW117729   6.014   6.199   6.685 -1.0000  2.2641  0.4239
 5610SOL    HW217730   6.011   6.265   6.834  1.4883 -0.9699  2.0259
 5611SOL     OW17731   1.042   3.981   1.690  0.1056 -0.2013  0.1300
 5611SOL    HW117732   1.031   3.932   1.604  1.6479  0.7323 -0.6419
 5611SOL    HW217733   1.002   4.073   1.682 -0.0413 -0.2248  0.5366
 5612SOL     OW17734   4.983   4.867   1.633  0.2851  0.4312  0.8206
 5612SOL    HW117735   5.000   4.832   1.726  3.6793  1.4773  0.7099
 5612SOL    HW217736   5.047   4.940   1.613 -0.0400 -0.0876 -2.5876
 5613SOL     OW17737   6.010   5.215   5.093  0.2840 -0.6170  0.1684
 5613SOL    HW117738   5.946   5.209   5.169 -0.5349 -1.7804 -0.5897
 5613SOL    HW217739   6.080   5.284   5.114  1.3280 -2.3284  2.8848
 5614SOL     OW17740   0.794   2.809   4.774 -0.1043  0.0934 -0.2371
 5614SOL    HW117741   0.794   2.855   4.685  0.0165 -1.9215 -1.3540
 5614SOL    HW217742   0.794   2.877   4.847  0.1481  1.8178 -1.7634
 5615SOL     OW17743   0.823   5.857   4.740  0.0338  0.5578  0.2849
 5615SOL    HW117744   0.790   5.828   4.650 -0.6618 -3.9089  1.7153
 5615SOL    HW217745   0.921   5.871   4.737  0.6159 -2.7093 -0.7245
 5616SOL     OW17746   1.267   2.929   1.697  0.0643  0.2454 -0.2576
 5616SOL    HW117747   1.185   2.922   1.640 -1.3448  0.1905  1.6859
 5616SOL    HW217748   1.290   2.840   1.735 -0.0962  0.6047  0.7024
 5617SOL     OW17749   2.189   6.198   5.260 -0.4633  0.0467  0.4698
 5617SOL    HW117750   2.124   6.244   5.321 -0.1909  2.0311 -0.6386
 5617SOL    HW217751   2.142   6.126   5.210 -1.5898  0.7803  0.4174
 5618SOL     OW17752   6.486   0.834   2.628 -0.2408 -0.4466 -0.1835
 5618SOL    HW117753   6.480   0.928   2.595 -1.5009 -0.0195  1.1850
 5618SOL    HW217754   6.572   0.793   2.596  1.3813  1.8627  0.9251
 5619SOL     OW17755   2.979   4.034   5.134  0.8660  0.0715  0.7226
 5619SOL    HW117756   3.013   4.123   5.165  0.2359 -0.4604  3.1165
 5619SOL    HW217757   2.883   4.024   5.160  0.1375 -0.3518 -1.7712
 5620SOL     OW17758   6.121   3.215   6.122 -0.1544 -0.2514  0.5527
 5620SOL    HW117759   6.094   3.139   6.181  2.3663 -2.5240 -1.0168
 5620SOL    HW217760   6.177   3.279   6.174  1.1914 -1.6972  0.9724
 5621SOL     OW17761   0.015   2.672   5.557 -0.4778 -0.0374  0.2099
 5621SOL    HW117762   0.058   2.672   5.467  0.3839  0.3487  0.6072
 5621SOL    HW217763  -0.019   2.764   5.577 -0.6846 -0.1269  0.2659
 5622SOL     OW17764   6.839   3.982   1.292 -0.1155  0.3311  0.4692
 5622SOL    HW117765   6.786   3.945   1.216 -0.5755 -0.6861  1.2591
 5622SOL    HW217766   6.821   4.080   1.301 -0.8667  0.2476 -0.0665
 5623SOL     OW17767   5.021   5.586   4.106 -0.2753  0.2743  0.8385
 5623SOL    HW117768   5.044   5.490   4.120  0.1244  0.0754 -0.9289
 5623SOL    HW217769   5.103   5.636   4.078 -0.9284  0.6251 -0.5482
 5624SOL     OW17770   5.228   3.996   3.817 -0.3182  0.1310  0.5615
 5624SOL    HW117771   5.203   4.059   3.890 -1.8463  0.3255 -0.1039
 5624SOL    HW217772   5.261   4.048   3.738  1.5692 -0.0890  1.1449
 5625SOL     OW17773   2.143   0.900   6.535 -0.0885  0.2062 -0.0814
 5625SOL    HW117774   2.198   0.922   6.615  0.5677  1.4180 -0.8385
 5625SOL    HW217775   2.202   0.886   6.456 -0.7540 -0.4766 -0.4722
 5626SOL     OW17776   1.972   2.795   5.281  0.2492  1.1845  0.1742
 5626SOL    HW117777   2.053   2.826   5.331 -0.1869  0.8725  1.1024
 5626SOL    HW217778   1.977   2.826   5.186  1.8759  0.4355 -0.0236
 5627SOL     OW17779   0.044   4.730   1.552 -0.4602 -0.2046  0.0871
 5627SOL    HW117780  -0.055   4.727   1.568 -0.3673  1.4832  1.1017
 5627SOL    HW217781   0.080   4.819   1.577  1.5009 -1.0976  0.6524
 5628SOL     OW17782   2.654   3.504   6.730  0.5000 -0.5421 -0.0368
 5628SOL    HW117783   2.561   3.480   6.704  0.7668  0.7925 -2.5191
 5628SOL    HW217784   2.714   3.425   6.716  0.2771 -0.4473 -1.8183
 5629SOL     OW17785   6.621   1.879   5.634  0.1755  0.0585 -0.0075
 5629SOL    HW117786   6.571   1.908   5.716 -0.7132 -0.3473 -0.3931
 5629SOL    HW217787   6.566   1.897   5.553  0.9759  0.2961 -0.5136
 5630SOL     OW17788   1.433   4.159   0.182  0.6791  0.3320 -0.0412
 5630SOL    HW117789   1.349   4.139   0.133  0.4741  1.6169 -0.2575
 5630SOL    HW217790   1.422   4.242   0.237  1.8680  0.6694 -0.2672
 5631SOL     OW17791   3.764   0.002   4.012 -0.1882  0.5473  0.0587
 5631SOL    HW117792   3.709   0.082   4.037 -0.2211  0.2747  0.8869
 5631SOL    HW217793   3.764  -0.063   4.088  1.7001  0.7723  0.2988
 5632SOL     OW17794   2.821   0.195   4.085  0.0272  0.2050 -0.0547
 5632SOL    HW117795   2.877   0.269   4.122  1.0671 -1.1518  1.1784
 5632SOL    HW217796   2.824   0.116   4.147 -1.3466 -0.7559 -1.1470
 5633SOL     OW17797   0.726   3.539   4.311  0.0746  0.1690  0.2470
 5633SOL    HW117798   0.701   3.443   4.310  0.3605  0.0989 -0.4992
 5633SOL    HW217799   0.773   3.563   4.226 -0.5974  1.1220  0.1224
 5634SOL     OW17800   1.181   6.904   1.520 -0.5322  0.0170  0.3067
 5634SOL    HW117801   1.180   6.805   1.504 -1.0074  0.0476  0.1487
 5634SOL    HW217802   1.271   6.940   1.494 -0.7445 -0.1939 -0.7451
 5635SOL     OW17803   5.219   6.832   2.958  0.4599  0.0422  0.1332
 5635SOL    HW117804   5.273   6.751   2.980 -0.6496 -1.1865 -1.4073
 5635SOL    HW217805   5.239   6.860   2.864  0.3447  1.1886  0.4370
 5636SOL     OW17806   3.854   0.626   4.750  0.1952  0.3423 -0.2334
 5636SOL    HW117807   3.808   0.708   4.783  0.7928  1.3014 -1.6643
 5636SOL    HW217808   3.796   0.580   4.683 -0.4076 -0.7957  1.0168
 5637SOL     OW17809   5.456   0.505   5.574  0.4807 -0.0517  0.3132
 5637SOL    HW117810   5.509   0.466   5.498  0.8278 -1.0173  1.0322
 5637SOL    HW217811   5.398   0.579   5.539  1.6100  0.4179 -0.6551
 5638SOL     OW17812   1.542   5.820   5.660  0.1416 -0.3279 -0.0818
 5638SOL    HW117813   1.520   5.771   5.575  2.9605 -1.0815 -0.5122
 5638SOL    HW217814   1.538   5.918   5.644 -0.7483 -0.4551 -0.6793
 5639SOL     OW17815   1.599   5.242   2.939 -0.7575 -0.3296  0.2824
 5639SOL    HW117816   1.679   5.293   2.970  0.7076 -2.9224  1.0561
 5639SOL    HW217817   1.604   5.229   2.840  0.1961 -1.0759  0.4135
 5640SOL     OW17818   5.783   5.990   4.636 -0.3181 -0.6665 -0.3517
 5640SOL    HW117819   5.742   6.012   4.724 -1.3596 -1.1340 -0.7030
 5640SOL    HW217820   5.821   5.898   4.639 -0.5083 -0.7474 -0.4471
 5641SOL     OW17821   1.675   5.801   4.667  0.3431 -0.4529  0.0790
 5641SOL    HW117822   1.774   5.805   4.679  0.3715 -0.3008 -0.2021
 5641SOL    HW217823   1.636   5.892   4.681  0.3863 -0.2461 -1.0258
 5642SOL     OW17824   2.242   1.330   6.059 -0.4058 -0.0059  0.4148
 5642SOL    HW117825   2.331   1.294   6.090 -0.4712 -0.3653  0.1923
 5642SOL    HW217826   2.254   1.423   6.024 -0.2487  0.2307  1.0783
 5643SOL     OW17827   4.729   3.215   1.747 -0.2607  0.2109 -0.2270
 5643SOL    HW117828   4.673   3.135   1.768 -0.3032 -0.5057 -2.7733
 5643SOL    HW217829   4.819   3.204   1.788 -0.7134 -0.4778  0.6179
 5644SOL     OW17830   1.850   0.907   6.260 -0.0123 -0.0248  0.1475
 5644SOL    HW117831   1.820   0.811   6.263  0.1562 -0.0795  0.0548
 5644SOL    HW217832   1.944   0.914   6.294 -0.2109  0.1822  0.6663
 5645SOL     OW17833   6.702   5.253   3.148 -0.0165  0.3839 -0.2618
 5645SOL    HW117834   6.798   5.244   3.120 -0.5461  0.9048 -2.4908
 5645SOL    HW217835   6.648   5.183   3.101 -0.8311  0.5504  0.4179
 5646SOL     OW17836   6.022   1.344   2.891  0.1027 -0.1170 -0.0731
 5646SOL    HW117837   5.959   1.336   2.968  0.1993 -1.7908 -0.1439
 5646SOL    HW217838   6.028   1.440   2.864 -3.0467  0.0634 -0.5947
 5647SOL     OW17839   6.418   4.385   6.592  0.2119  0.1525  0.2276
 5647SOL    HW117840   6.365   4.308   6.557 -0.9817  0.3896  1.4280
 5647SOL    HW217841   6.501   4.351   6.636  0.4116 -0.3212 -0.4882
 5648SOL     OW17842   0.811   1.096   4.553  0.5429  0.2484  0.4912
 5648SOL    HW117843   0.752   1.021   4.522 -0.8905  1.8822 -0.9978
 5648SOL    HW217844   0.799   1.109   4.652 -0.0631 -0.7242  0.5603
 5649SOL     OW17845   5.991   0.199   0.600  0.0746 -0.1735  0.1890
 5649SOL    HW117846   5.968   0.102   0.609  1.7386 -0.5592  0.5768
 5649SOL    HW217847   6.087   0.213   0.623 -0.1210  1.5744  0.0896
 5650SOL     OW17848   0.513   5.309   3.729 -0.2389 -0.2900  0.0720
 5650SOL    HW117849   0.414   5.300   3.731 -0.3607  0.9134  0.7538
 5650SOL    HW217850   0.553   5.256   3.803 -0.5005  0.3725  0.6995
 5651SOL     OW17851   4.365   1.107   2.732 -0.5698 -0.4128 -0.6943
 5651SOL    HW117852   4.417   1.169   2.673 -0.0182 -1.4023 -1.2806
 5651SOL    HW217853   4.344   1.023   2.682  1.2172 -1.9136  0.9260
 5652SOL     OW17854   2.799   0.827   6.436 -0.2297  0.3797 -0.3477
 5652SOL    HW117855   2.817   0.782   6.349  0.1997  1.7890 -1.0141
 5652SOL    HW217856   2.882   0.874   6.468 -0.2722 -0.4211  1.0181
 5653SOL     OW17857   1.597   0.172   6.741 -0.1682 -0.4411  0.2149
 5653SOL    HW117858   1.695   0.150   6.736 -0.3227 -1.0027 -0.7097
 5653SOL    HW217859   1.575   0.241   6.672 -0.4389 -0.3598  0.3818
 5654SOL     OW17860   1.602   6.478   4.652 -0.2801 -0.1207  0.1483
 5654SOL    HW117861   1.616   6.576   4.644  0.8615 -0.1062  1.7842
 5654SOL    HW217862   1.508   6.455   4.625 -0.2434  1.2459 -1.2552
 5655SOL     OW17863   5.098   2.961   2.317  0.6597  0.1226 -0.0982
 5655SOL    HW117864   5.006   2.959   2.278  0.7330  0.0787 -0.2724
 5655SOL    HW217865   5.113   2.879   2.372  1.0795 -0.5795 -1.2142
 5656SOL     OW17866   2.952   2.581   1.005  0.2981  0.0439  0.5532
 5656SOL    HW117867   2.926   2.636   0.926 -0.2653 -2.2445 -0.9557
 5656SOL    HW217868   2.930   2.630   1.089  0.7835  2.4934 -0.6594
 5657SOL     OW17869   3.793   6.129   1.349  0.0440 -0.9411  0.5150
 5657SOL    HW117870   3.742   6.209   1.318 -0.7452 -0.6392  2.4362
 5657SOL    HW217871   3.888   6.135   1.318 -0.3581 -0.0047 -0.5822
 5658SOL     OW17872   4.983   5.016   4.982  0.0502 -0.2758 -0.0970
 5658SOL    HW117873   4.988   4.950   4.907  0.4827 -0.2256 -0.1164
 5658SOL    HW217874   4.894   5.061   4.981 -0.4738 -1.2601  0.2641
 5659SOL     OW17875   3.727   3.980   3.277 -0.1838 -0.1618  0.5224
 5659SOL    HW117876   3.782   3.920   3.218 -0.7972  0.8412 -1.1234
 5659SOL    HW217877   3.776   3.996   3.363  1.5636 -0.2499 -0.4196
 5660SOL     OW17878   0.323   2.721   1.639  0.0263  0.1140 -0.9292
 5660SOL    HW117879   0.374   2.636   1.642 -0.5225 -0.2078 -0.0383
 5660SOL    HW217880   0.228   2.704   1.668  0.3812  1.3312  1.1698
 5661SOL     OW17881   6.098   5.678   0.726 -0.6479 -0.0641  0.3483
 5661SOL    HW117882   6.092   5.766   0.678 -1.1954 -0.7019 -0.8050
 5661SOL    HW217883   6.111   5.694   0.824 -0.7090  1.2944  0.1571
 5662SOL     OW17884   1.320   4.586   4.052 -0.1411 -0.0012  0.0240
 5662SOL    HW117885   1.312   4.685   4.045 -1.8081 -0.0937  0.0746
 5662SOL    HW217886   1.330   4.547   3.961 -0.8047  0.1393 -0.1140
 5663SOL     OW17887   2.823   2.399   0.672  0.2620 -0.5721 -0.5901
 5663SOL    HW117888   2.913   2.443   0.678  0.4099 -1.0292  0.8486
 5663SOL    HW217889   2.832   2.312   0.625  0.3946 -0.1643 -1.3295
 5664SOL     OW17890   6.168   0.147   1.399  0.2919 -0.2261 -0.8488
 5664SOL    HW117891   6.239   0.201   1.445 -0.6560  0.7242 -0.4496
 5664SOL    HW217892   6.088   0.205   1.383 -1.3520 -1.8507  0.9506
 5665SOL     OW17893   1.143   6.230   4.344 -0.3402  0.4320 -0.3911
 5665SOL    HW117894   1.191   6.145   4.366 -1.0736 -0.0713 -0.7078
 5665SOL    HW217895   1.183   6.305   4.397 -2.2169 -0.7582  2.9917
 5666SOL     OW17896   4.820   5.616   5.432  0.0115  0.1914  0.4731
 5666SOL    HW117897   4.852   5.699   5.478 -2.1143  0.3410  1.8329
 5666SOL    HW217898   4.763   5.640   5.354  0.5897 -0.0106 -0.0126
 5667SOL     OW17899   5.806   4.229   2.345 -0.0109 -0.1313  0.3156
 5667SOL    HW117900   5.806   4.139   2.388  1.1214 -0.4353 -0.2834
 5667SOL    HW217901   5.826   4.220   2.248  0.3360  0.7756  0.2855
 5668SOL     OW17902   0.706   2.034   5.986  0.8211 -0.9235  0.2845
 5668SOL    HW117903   0.787   2.043   5.928  0.1575  1.2263 -0.3830
 5668SOL    HW217904   0.666   2.124   6.003 -0.1972 -1.7014  2.4280
 5669SOL     OW17905   1.699   2.599   4.425 -0.4626 -0.0906 -0.7126
 5669SOL    HW117906   1.749   2.685   4.418  1.1282 -0.6892  1.7849
 5669SOL    HW217907   1.664   2.573   4.335  0.6225  2.2010 -1.8841
 5670SOL     OW17908   1.812   1.720   4.296 -0.4190 -0.0241 -0.3593
 5670SOL    HW117909   1.713   1.712   4.295 -0.3434 -1.1940 -1.4714
 5670SOL    HW217910   1.838   1.817   4.289 -1.4859  0.2219 -1.0970
 5671SOL     OW17911   0.555   1.566   4.101 -0.3391 -0.5047 -0.3509
 5671SOL    HW117912   0.608   1.650   4.111 -1.2860  0.2355 -1.3222
 5671SOL    HW217913   0.460   1.583   4.129 -0.1321 -1.7800  1.2736
 5672SOL     OW17914   2.049   3.862   6.845 -0.4783 -0.0282 -0.3042
 5672SOL    HW117915   2.138   3.885   6.886 -0.1736  0.6547 -1.3175
 5672SOL    HW217916   1.997   3.805   6.909  0.4077  0.1293  0.5870
 5673SOL     OW17917   3.212   5.832   0.597  0.1042 -0.4028 -0.5027
 5673SOL    HW117918   3.264   5.752   0.627 -1.5673 -0.4033  2.8590
 5673SOL    HW217919   3.249   5.915   0.639 -0.8595 -0.0273 -0.3565
 5674SOL     OW17920   0.600   2.699   6.674  0.2828  0.1101  0.2232
 5674SOL    HW117921   0.550   2.649   6.744  0.3320 -0.1929  0.0476
 5674SOL    HW217922   0.589   2.797   6.688 -0.2212  0.0481  0.2820
 5675SOL     OW17923   6.512   1.499   6.901  0.8367 -0.1413 -0.0185
 5675SOL    HW117924   6.468   1.418   6.863 -1.2569  0.9924 -0.1693
 5675SOL    HW217925   6.528   1.485   6.999 -1.3511 -0.0625  0.4018
 5676SOL     OW17926   0.814   4.158   2.578  0.6598 -0.6044 -0.2977
 5676SOL    HW117927   0.743   4.199   2.521  0.7928  0.6501  0.4077
 5676SOL    HW217928   0.771   4.106   2.652  0.4595  0.4301  0.3244
 5677SOL     OW17929   5.943   1.734   2.184 -0.3625 -0.6819 -0.0998
 5677SOL    HW117930   5.884   1.687   2.119 -2.5939 -0.4609  1.6276
 5677SOL    HW217931   5.926   1.699   2.276  0.9120  0.6617  0.6887
 5678SOL     OW17932   1.822   5.224   3.458 -0.5219  0.5146  0.0812
 5678SOL    HW117933   1.918   5.246   3.443 -0.0998  0.6791  2.6026
 5678SOL    HW217934   1.793   5.154   3.393  1.2305  0.6323 -0.8605
 5679SOL     OW17935   2.376   5.944   4.103 -0.4928  0.7578 -0.0431
 5679SOL    HW117936   2.342   5.864   4.152 -0.5784 -0.4845 -2.0518
 5679SOL    HW217937   2.476   5.938   4.095 -0.5686  0.4831 -0.8111
 5680SOL     OW17938   1.415   0.878   0.678 -0.3668  0.0004  0.0106
 5680SOL    HW117939   1.320   0.911   0.681 -0.8592 -1.4183  0.4620
 5680SOL    HW217940   1.447   0.882   0.583 -1.0832 -0.0638 -0.2450
 5681SOL     OW17941   3.583   2.633   0.076 -0.0643  0.3763  0.4695
 5681SOL    HW117942   3.643   2.711   0.061 -0.3561  0.6236  0.5806
 5681SOL    HW217943   3.582   2.610   0.173 -0.4940  0.6593  0.5390
 5682SOL     OW17944   0.465   4.142   2.750  0.3801 -0.6677 -0.1050
 5682SOL    HW117945   0.550   4.092   2.768  0.3013 -0.3403  1.2632
 5682SOL    HW217946   0.455   4.156   2.652  0.7412 -2.7401 -0.4807
 5683SOL     OW17947   3.209   3.669   5.377  0.1473 -0.3880  0.4234
 5683SOL    HW117948   3.207   3.743   5.444 -2.5335  0.1601 -0.1827
 5683SOL    HW217949   3.155   3.694   5.297  0.4914 -2.3896 -0.4946
 5684SOL     OW17950   3.566   3.468   1.957  0.7186  0.0125  0.0043
 5684SOL    HW117951   3.548   3.370   1.946  0.5490 -0.1701  1.6609
 5684SOL    HW217952   3.487   3.520   1.925  0.7551 -0.3824 -0.7663
 5685SOL     OW17953   2.099   1.232   0.601 -0.0787 -0.4596 -0.2643
 5685SOL    HW117954   2.081   1.208   0.697  1.2839  2.3036  0.7713
 5685SOL    HW217955   2.196   1.219   0.582  0.1498  1.3913 -0.4812
 5686SOL     OW17956   3.721   4.853   5.862  0.0303 -0.0204 -0.2153
 5686SOL    HW117957   3.650   4.874   5.929 -1.3113 -2.6438 -0.6734
 5686SOL    HW217958   3.698   4.768   5.814  2.7630 -0.1928 -1.4479
 5687SOL     OW17959   5.749   2.013   4.371 -0.0334  0.6274  0.2680
 5687SOL    HW117960   5.690   1.933   4.364 -0.6320  1.1718 -1.3735
 5687SOL    HW217961   5.839   1.992   4.334 -0.4047  0.8916 -0.8135
 5688SOL     OW17962   4.510   0.262   1.355  0.0238 -0.5765 -0.2825
 5688SOL    HW117963   4.488   0.306   1.441  0.2923 -1.0882  0.0525
 5688SOL    HW217964   4.561   0.325   1.296 -0.0788 -0.2611 -0.0315
 5689SOL     OW17965   4.227   2.948   0.041 -0.0236  0.1985 -0.0782
 5689SOL    HW117966   4.162   2.923  -0.031 -0.6670 -0.1871  0.6230
 5689SOL    HW217967   4.308   2.891   0.034 -0.7030 -0.8668  0.3767
 5690SOL     OW17968   3.786   6.533   1.587  0.5572 -0.5297  0.1481
 5690SOL    HW117969   3.736   6.597   1.645  0.3730  0.1978 -0.7823
 5690SOL    HW217970   3.721   6.477   1.536  0.7174 -1.1879  0.6609
 5691SOL     OW17971   2.092   6.671   4.424  0.4207 -0.1611  0.3181
 5691SOL    HW117972   2.116   6.768   4.426 -1.7386  0.4032  1.2919
 5691SOL    HW217973   2.017   6.656   4.359  0.2804 -1.0711  0.6695
 5692SOL     OW17974   6.470   1.238   1.864 -0.4621 -0.2209 -0.4201
 5692SOL    HW117975   6.518   1.282   1.788  2.2750 -2.1437  0.0458
 5692SOL    HW217976   6.465   1.301   1.942  0.2326  0.4246 -0.8890
 5693SOL     OW17977   6.881   3.435   1.839 -0.3664 -0.4126  0.1709
 5693SOL    HW117978   6.844   3.499   1.771 -0.0686 -0.5226 -0.0942
 5693SOL    HW217979   6.896   3.346   1.797  1.4924 -0.0173 -0.0970
 5694SOL     OW17980   0.789   1.237   5.222 -0.0682 -0.4388  0.0938
 5694SOL    HW117981   0.762   1.248   5.127  0.1632 -0.0168  0.0774
 5694SOL    HW217982   0.803   1.139   5.242 -1.4408 -0.6576  0.0627
 5695SOL     OW17983   2.131   3.669   2.140  0.0889 -0.4403  0.1308
 5695SOL    HW117984   2.165   3.598   2.079  1.4411 -0.6560  1.0808
 5695SOL    HW217985   2.115   3.631   2.231  0.1328  0.3168  0.4692
 5696SOL     OW17986   4.943   1.487   6.768  0.3924  0.1932 -0.4755
 5696SOL    HW117987   4.885   1.568   6.770  0.3892  0.1723  0.5901
 5696SOL    HW217988   4.919   1.431   6.689 -1.8811 -0.4088  0.5602
 5697SOL     OW17989   6.846   3.615   0.483  0.4211 -0.3163 -0.4166
 5697SOL    HW117990   6.889   3.526   0.461 -0.5870 -0.9627  0.1771
 5697SOL    HW217991   6.762   3.600   0.534  0.3297  1.0102 -0.1447
 5698SOL     OW17992   1.141   5.175   3.604 -0.1746 -0.4414 -0.1109
 5698SOL    HW117993   1.189   5.088   3.590 -0.3349 -0.4377 -0.6856
 5698SOL    HW217994   1.203   5.251   3.588  0.1094 -0.4398  0.8916
 5699SOL     OW17995   1.233   2.980   4.882 -0.1861 -0.3863  0.3879
 5699SOL    HW117996   1.230   2.996   4.783 -0.1750  0.9900  0.5926
 5699SOL    HW217997   1.212   3.065   4.930  1.6857 -0.5470  1.5765
 5700SOL     OW17998   2.307   6.481   3.495 -0.8001  0.0173  0.4849
 5700SOL    HW117999   2.267   6.511   3.582 -1.1367  0.7972  0.0731
 5700SOL    HW218000   2.339   6.386   3.504 -0.7755  0.1052  1.4705
 5701SOL     OW18001   6.444   1.058   2.475  0.5667 -0.4919 -0.2843
 5701SOL    HW118002   6.389   1.138   2.453  0.6552  0.1917  1.8183
 5701SOL    HW218003   6.539   1.073   2.445  0.6969  0.4318  0.5587
 5702SOL     OW18004   3.815   6.844   1.204  0.1778  0.0172 -0.3023
 5702SOL    HW118005   3.761   6.808   1.128  1.0476 -1.7158 -0.1547
 5702SOL    HW218006   3.848   6.935   1.181  0.8716 -0.6808 -2.2594
 5703SOL     OW18007   6.904   1.896   2.011  0.0973  0.1273  0.8793
 5703SOL    HW118008   6.834   1.954   1.967 -1.5048 -1.2228  1.5416
 5703SOL    HW218009   6.990   1.947   2.017 -0.8011  1.8558  0.0204
 5704SOL     OW18010   5.507   3.269   5.012  0.2621  0.1174 -0.2301
 5704SOL    HW118011   5.429   3.279   5.073  0.7243 -0.3704  0.4649
 5704SOL    HW218012   5.587   3.240   5.065  0.3402 -1.7290 -1.2600
 5705SOL     OW18013   5.998   0.586   5.057  0.0542  0.3695 -0.3955
 5705SOL    HW118014   5.921   0.608   5.117 -0.9092 -0.3951 -1.3153
 5705SOL    HW218015   5.978   0.618   4.964  0.0295 -1.4200 -1.0426
 5706SOL     OW18016   1.649   0.882   4.244 -0.3460  0.4722 -0.6614
 5706SOL    HW118017   1.551   0.903   4.239 -0.7679 -0.6560  1.6338
 5706SOL    HW218018   1.663   0.785   4.225  0.0192  0.1166  1.3024
 5707SOL     OW18019   1.930   6.369   2.311 -0.2691  0.0036 -0.2604
 5707SOL    HW118020   2.021   6.406   2.295 -0.8609  1.7743  0.2779
 5707SOL    HW218021   1.935   6.294   2.377  0.7998  0.0112 -0.3170
 5708SOL     OW18022   0.248   5.558   1.402 -0.7403 -0.6305 -0.2565
 5708SOL    HW118023   0.280   5.553   1.497  1.4417 -0.1613 -0.9022
 5708SOL    HW218024   0.327   5.561   1.341 -2.0687  0.9219 -2.0155
 5709SOL     OW18025   6.970   3.392   0.459  0.3873 -0.0651  0.7716
 5709SOL    HW118026   7.066   3.417   0.446  0.3267 -0.2284 -0.0589
 5709SOL    HW218027   6.949   3.311   0.404 -0.9488  1.6793 -1.4428
 5710SOL     OW18028   3.037   5.301   6.095  0.6470 -0.2190  0.0772
 5710SOL    HW118029   3.093   5.318   6.013  1.4141 -0.0472  0.6246
 5710SOL    HW218030   3.093   5.255   6.164  0.3559  0.6822  0.9424
 5711SOL     OW18031   6.522   2.041   6.267 -0.1228 -0.7872 -0.0176
 5711SOL    HW118032   6.525   1.979   6.189  0.0106 -0.5565 -0.1982
 5711SOL    HW218033   6.601   2.024   6.326  0.4493 -0.1402 -0.5741
 5712SOL     OW18034   5.323   5.957   5.757  0.1889 -0.3529  0.5074
 5712SOL    HW118035   5.319   5.890   5.830  0.6163  0.4162  1.2576
 5712SOL    HW218036   5.371   6.039   5.789  1.9464 -0.6500 -1.1426
 5713SOL     OW18037   0.703   3.216   3.633 -0.1440 -0.0002 -0.5896
 5713SOL    HW118038   0.641   3.182   3.563  0.4871  1.5223 -1.9550
 5713SOL    HW218039   0.651   3.263   3.705 -0.6226  1.1128 -1.6339
 5714SOL     OW18040   1.605   0.797   1.346  0.1000 -0.3221  0.5109
 5714SOL    HW118041   1.657   0.876   1.377 -0.3448 -0.1716  0.8845
 5714SOL    HW218042   1.567   0.815   1.256 -2.6463  1.1679  1.8661
 5715SOL     OW18043   6.373   5.569   2.983  0.2817  0.4956 -0.4697
 5715SOL    HW118044   6.401   5.664   2.998  0.7978  0.2107  0.3773
 5715SOL    HW218045   6.275   5.561   3.000  0.3958  0.6999  0.3022
 5716SOL     OW18046   0.555   1.533   4.671  0.8412  1.0286 -0.1287
 5716SOL    HW118047   0.505   1.620   4.677  1.0735  1.0761  1.4217
 5716SOL    HW218048   0.649   1.551   4.642  0.5370  1.1377 -1.1061
 5717SOL     OW18049   1.834   5.439   4.122  0.6689 -1.1024 -0.2350
 5717SOL    HW118050   1.790   5.516   4.077  2.7847 -0.5214 -1.4425
 5717SOL    HW218051   1.781   5.356   4.106 -1.9296  0.1004  1.5243
 5718SOL     OW18052   0.717   6.122   6.324  0.3101  0.6975 -0.0050
 5718SOL    HW118053   0.729   6.131   6.423  2.4561  2.7660 -0.3740
 5718SOL    HW218054   0.786   6.061   6.287 -1.2696 -1.1031 -0.1499
 5719SOL     OW18055   0.553   0.511   0.045 -0.7277  0.0752 -0.6074
 5719SOL    HW118056   0.483   0.498   0.115 -1.0481  0.4989 -0.8418
 5719SOL    HW218057   0.593   0.602   0.055 -2.5437  1.1797 -2.4975
 5720SOL     OW18058   0.637   0.259   5.685 -0.5272  0.1738  0.0824
 5720SOL    HW118059   0.563   0.195   5.705 -1.1466  0.9430  0.3256
 5720SOL    HW218060   0.697   0.221   5.615 -0.6085 -0.8665  0.5727
 5721SOL     OW18061   4.330   6.086   5.223  0.2712 -0.1308 -0.3797
 5721SOL    HW118062   4.231   6.097   5.223  0.0600 -1.1181 -3.0719
 5721SOL    HW218063   4.359   6.039   5.306 -1.8822 -2.1273 -0.6572
 5722SOL     OW18064   2.372   2.227   4.349  0.1219  1.0223  0.4186
 5722SOL    HW118065   2.351   2.131   4.366  0.9163  0.6207 -0.7989
 5722SOL    HW218066   2.392   2.272   4.436  2.1235 -0.4954  0.8283
 5723SOL     OW18067   5.208   5.311   1.257  0.6949 -0.1011  0.1212
 5723SOL    HW118068   5.139   5.240   1.243  0.1878  0.0435  1.7511
 5723SOL    HW218069   5.189   5.387   1.195  1.5006 -1.5095 -1.9759
 5724SOL     OW18070   4.309   2.271   6.891 -0.1115 -0.3336  0.2871
 5724SOL    HW118071   4.308   2.197   6.958 -0.6348 -0.3950  0.2121
 5724SOL    HW218072   4.269   2.240   6.806  0.0654 -0.0920  0.1134
 5725SOL     OW18073   5.606   2.331   3.994  0.0204  0.0650  0.2480
 5725SOL    HW118074   5.683   2.357   3.936 -0.4786 -0.2359 -0.5672
 5725SOL    HW218075   5.632   2.253   4.051 -0.5929 -2.1536 -2.2915
 5726SOL     OW18076   3.914   4.949   5.022 -0.5244 -0.1865  0.3228
 5726SOL    HW118077   3.984   4.882   5.046 -0.2142  0.1253  0.3013
 5726SOL    HW218078   3.841   4.948   5.091 -0.4277 -0.4085  0.4220
 5727SOL     OW18079   6.268   1.575   2.779  0.1516  0.4299 -0.5229
 5727SOL    HW118080   6.181   1.575   2.828  0.8620 -1.1671  0.8361
 5727SOL    HW218081   6.252   1.556   2.682 -1.1068  1.6540 -0.5916
 5728SOL     OW18082   1.722   1.503   3.396 -0.1428 -0.0096  0.7168
 5728SOL    HW118083   1.798   1.531   3.339 -1.5933 -1.3502 -2.0759
 5728SOL    HW218084   1.693   1.411   3.371 -3.2141  0.7515  1.0026
 5729SOL     OW18085   4.794   2.969   4.519  0.0685 -0.0781 -0.2386
 5729SOL    HW118086   4.767   2.874   4.531  2.0615 -0.6860 -0.1388
 5729SOL    HW218087   4.781   3.018   4.605 -2.0389  0.0620 -0.6073
 5730SOL     OW18088   5.596   6.975   4.841 -0.1372  0.2710  0.4204
 5730SOL    HW118089   5.642   7.020   4.917  1.3333  0.2411 -0.4112
 5730SOL    HW218090   5.615   7.026   4.757 -0.6029 -0.4659 -0.1368
 5731SOL     OW18091   5.693   1.294   6.742  0.5963 -0.6068 -0.3024
 5731SOL    HW118092   5.677   1.255   6.833 -1.0584  1.1762  0.2107
 5731SOL    HW218093   5.611   1.284   6.686  0.4476  1.2184 -0.4710
 5732SOL     OW18094   4.661   2.823   4.931  0.0274 -0.4751  0.0166
 5732SOL    HW118095   4.638   2.910   4.889  0.1005  0.2040  1.3284
 5732SOL    HW218096   4.643   2.749   4.866  0.6093  0.5445 -1.3581
 5733SOL     OW18097   2.198   6.331   6.778  0.1983  0.3607  0.3317
 5733SOL    HW118098   2.099   6.324   6.765  0.0907  0.3408  1.1120
 5733SOL    HW218099   2.219   6.335   6.875  0.8586  1.9720  0.1643
 5734SOL     OW18100   1.448   6.487   4.246 -0.3589 -0.2547 -0.3461
 5734SOL    HW118101   1.542   6.454   4.233 -0.2367  0.9258 -3.0476
 5734SOL    HW218102   1.422   6.474   4.342  2.1773 -1.5291  0.2796
 5735SOL     OW18103   6.183   2.957   0.507 -0.3271  0.1803  0.0220
 5735SOL    HW118104   6.147   2.867   0.533  1.4270 -0.4847  0.2757
 5735SOL    HW218105   6.182   2.966   0.407 -2.4704  0.7700  0.0380
 5736SOL     OW18106   3.473   5.278   5.728  0.0244 -0.3121 -0.2272
 5736SOL    HW118107   3.544   5.212   5.754  1.7878  1.6116  0.1251
 5736SOL    HW218108   3.484   5.303   5.632 -0.2373 -0.0744 -0.1971
 5737SOL     OW18109   4.756   4.182   2.502  0.3862  0.0124  0.4648
 5737SOL    HW118110   4.725   4.226   2.587  0.4882  0.7091  0.1467
 5737SOL    HW218111   4.710   4.225   2.424  0.2473 -0.6674  0.1658
 5738SOL     OW18112   2.711   2.172   1.563 -0.2154 -0.0729  0.4548
 5738SOL    HW118113   2.798   2.172   1.513 -1.9355  1.5904 -2.8653
 5738SOL    HW218114   2.649   2.106   1.522 -1.6035  1.1166  0.5567
 5739SOL     OW18115   1.270   1.066   6.279 -0.0750 -0.5249 -0.1764
 5739SOL    HW118116   1.261   1.140   6.213  0.6234 -1.2654 -1.1418
 5739SOL    HW218117   1.179   1.039   6.312 -0.5244 -0.6791 -1.4742
 5740SOL     OW18118   6.234   1.718   2.325 -0.3111  0.0299 -0.2111
 5740SOL    HW118119   6.176   1.798   2.312 -0.0738  0.3087  0.3700
 5740SOL    HW218120   6.322   1.732   2.279 -0.8365 -0.5583 -1.4254
 5741SOL     OW18121   1.952   3.819   2.963 -0.3738 -0.1908 -0.3484
 5741SOL    HW118122   1.936   3.887   2.891  1.4200  1.1717  0.4400
 5741SOL    HW218123   2.024   3.852   3.024 -0.5821 -2.1152  1.0397
 5742SOL     OW18124   0.079   4.995   1.691  1.0314 -0.8887 -0.5923
 5742SOL    HW118125  -0.020   5.009   1.683  0.6458 -1.2774  2.3151
 5742SOL    HW218126   0.127   5.057   1.629 -1.0137 -0.4104 -1.7759
 5743SOL     OW18127   3.066   6.394   5.229 -0.0865  0.6151 -0.4940
 5743SOL    HW118128   3.142   6.429   5.283  0.9882 -1.7419 -0.3792
 5743SOL    HW218129   3.036   6.306   5.265 -1.9290  0.7967 -1.4270
 5744SOL     OW18130   6.487   6.400   4.883  0.2812 -0.1010  0.6622
 5744SOL    HW118131   6.508   6.461   4.959  0.1540  0.6820  0.0723
 5744SOL    HW218132   6.524   6.437   4.799 -1.0670 -0.0812  0.0498
 5745SOL     OW18133   1.065   4.109   3.131 -0.5491  0.0345  0.3957
 5745SOL    HW118134   1.122   4.176   3.179  0.2774 -1.3492  1.4152
 5745SOL    HW218135   0.998   4.070   3.194  1.5311 -2.9163  0.9933
 5746SOL     OW18136   4.473   1.856   4.163 -0.1035  0.4107 -0.3156
 5746SOL    HW118137   4.477   1.955   4.150  2.2965  0.4617  0.4264
 5746SOL    HW218138   4.430   1.836   4.251  0.8042  0.8877  0.2532
 5747SOL     OW18139   1.969   0.689   1.515 -0.0959 -0.1079  0.1153
 5747SOL    HW118140   1.904   0.653   1.449  0.8743 -0.5921 -0.6014
 5747SOL    HW218141   2.039   0.620   1.535  1.0041  0.8702 -0.2303
 5748SOL     OW18142   6.643   1.058   0.532  0.0260 -0.0988 -0.0433
 5748SOL    HW118143   6.577   0.990   0.497  1.0927 -1.2594  0.1523
 5748SOL    HW218144   6.593   1.129   0.582 -1.1902 -0.3226 -0.8735
 5749SOL     OW18145   2.491   6.036   5.146  0.0777 -0.1891 -0.6289
 5749SOL    HW118146   2.522   6.058   5.054 -1.0428 -1.5402 -1.3664
 5749SOL    HW218147   2.439   6.114   5.182  0.3214  0.2630 -1.2249
 5750SOL     OW18148   0.734   3.239   4.327 -0.1115 -0.2950 -0.0136
 5750SOL    HW118149   0.671   3.162   4.342 -3.2962  2.1413  0.3202
 5750SOL    HW218150   0.751   3.286   4.413 -1.0890  1.3279 -0.6464
 5751SOL     OW18151   0.560   3.729   4.706  0.1577 -0.0129 -0.2669
 5751SOL    HW118152   0.567   3.686   4.616  0.7160  1.5103 -0.9728
 5751SOL    HW218153   0.566   3.658   4.777 -0.8012 -1.2922 -1.4031
 5752SOL     OW18154   4.326   3.988   5.746  0.1944 -0.3103 -0.0851
 5752SOL    HW118155   4.330   4.038   5.833  0.2214  0.7512 -0.6856
 5752SOL    HW218156   4.320   3.889   5.765  0.9852 -0.1555  1.1179
 5753SOL     OW18157   3.491   3.270   2.523  0.0595  0.3381  0.5686
 5753SOL    HW118158   3.454   3.361   2.503 -1.4116 -0.3248  0.1929
 5753SOL    HW218159   3.587   3.267   2.494  0.4570  2.0680  1.5056
 5754SOL     OW18160   5.986   0.073   1.071 -0.1780  0.1517 -0.5186
 5754SOL    HW118161   6.033  -0.014   1.089 -0.5760  0.3235  1.6603
 5754SOL    HW218162   5.949   0.108   1.157 -0.3097  2.3321 -1.4182
 5755SOL     OW18163   6.984   4.546   4.948  0.1644 -0.5524  0.3826
 5755SOL    HW118164   7.022   4.461   4.983  0.7829  0.2916  1.8549
 5755SOL    HW218165   7.057   4.602   4.909  0.3249  0.5702  2.1579
 5756SOL     OW18166   5.788   5.354   1.171 -0.0868 -0.2352  0.5226
 5756SOL    HW118167   5.736   5.372   1.255  0.0788  0.7690  0.4256
 5756SOL    HW218168   5.880   5.392   1.181  1.2055 -3.2483  1.2749
 5757SOL     OW18169   2.519   2.518   3.092 -0.5725  0.4663  0.0239
 5757SOL    HW118170   2.577   2.483   3.018  0.2664  1.0560  0.3773
 5757SOL    HW218171   2.446   2.574   3.054 -0.7963 -0.1061 -0.4154
 5758SOL     OW18172   5.027   0.176   1.619 -0.1723 -0.2730 -0.1365
 5758SOL    HW118173   5.113   0.179   1.568  0.2833 -1.0899  0.5593
 5758SOL    HW218174   5.042   0.208   1.713 -0.5902 -0.5543  0.0327
 5759SOL     OW18175   3.732   5.768   2.713 -0.0448 -0.0372  0.5437
 5759SOL    HW118176   3.788   5.769   2.796  0.8129  0.8343 -0.0252
 5759SOL    HW218177   3.777   5.822   2.642  0.2369 -2.3654 -1.1604
 5760SOL     OW18178   1.272   3.823   5.632  0.6558  0.1611  0.0652
 5760SOL    HW118179   1.306   3.894   5.570  0.8039 -0.0167 -0.0596
 5760SOL    HW218180   1.208   3.765   5.583 -0.3023  0.8607  0.4693
 5761SOL     OW18181   0.561   0.876   6.553  0.1669  0.2206  0.2749
 5761SOL    HW118182   0.610   0.823   6.622 -0.4847  0.4814  0.9505
 5761SOL    HW218183   0.482   0.825   6.521  1.4042 -0.6362 -1.5641
 5762SOL     OW18184   1.034   6.251   6.213 -0.2742 -0.2976  0.1528
 5762SOL    HW118185   1.112   6.210   6.260  0.4871  0.0291 -0.7879
 5762SOL    HW218186   1.067   6.303   6.134 -1.4858 -0.4721 -0.4807
 5763SOL     OW18187   4.601   5.744   6.100  0.3922  0.1150  0.1710
 5763SOL    HW118188   4.577   5.825   6.045 -0.1103 -0.6125 -0.7278
 5763SOL    HW218189   4.686   5.760   6.149  1.7043  0.2830 -2.0132
 5764SOL     OW18190   5.420   5.263   3.474 -0.0725 -0.3483  0.1011
 5764SOL    HW118191   5.497   5.315   3.511 -0.6249  0.2955  0.3610
 5764SOL    HW218192   5.340   5.276   3.532 -0.3302 -1.1721 -0.0573
 5765SOL     OW18193   6.178   5.462   2.343  0.0528 -0.6253 -0.7766
 5765SOL    HW118194   6.138   5.528   2.406 -0.2760 -0.6001 -1.0104
 5765SOL    HW218195   6.277   5.460   2.355 -0.0284 -0.7805 -0.1071
 5766SOL     OW18196   6.014   1.813   3.100 -0.1577  0.0946  0.1242
 5766SOL    HW118197   6.008   1.875   3.022  1.1873 -0.0769 -0.1429
 5766SOL    HW218198   6.036   1.865   3.183  2.7153 -0.0925 -0.3881
 5767SOL     OW18199   6.001   1.304   2.262  0.4597  0.4466 -0.0519
 5767SOL    HW118200   5.984   1.213   2.223 -1.5723  0.6574  0.2351
 5767SOL    HW218201   6.042   1.362   2.192  1.8722 -0.6851 -0.2165
 5768SOL     OW18202   6.622   0.831   4.594 -0.4089 -0.1547 -0.3328
 5768SOL    HW118203   6.673   0.796   4.516 -1.4430 -1.1034 -0.5980
 5768SOL    HW218204   6.676   0.817   4.678  0.8259  1.1199 -0.8722
 5769SOL     OW18205   2.867   6.088   4.650 -0.6199  0.2731  0.4500
 5769SOL    HW118206   2.887   6.184   4.628 -0.9430  0.2166 -0.0995
 5769SOL    HW218207   2.912   6.064   4.736  0.5318  0.5491 -0.0486
 5770SOL     OW18208   2.578   4.699   0.839  1.0331 -0.1881 -0.8162
 5770SOL    HW118209   2.612   4.607   0.857  1.8870  0.2506 -0.1141
 5770SOL    HW218210   2.607   4.760   0.913  0.9777  0.7726 -1.5683
 5771SOL     OW18211   5.056   5.413   2.635 -0.4695  0.3272  0.3050
 5771SOL    HW118212   4.993   5.468   2.690  0.8918  0.2798  2.0057
 5771SOL    HW218213   5.142   5.402   2.684  0.3069 -0.9717 -1.2417
 5772SOL     OW18214   2.092   2.653   3.474  0.3357  0.6585  0.1009
 5772SOL    HW118215   2.189   2.664   3.454  0.3526  0.0501 -0.1615
 5772SOL    HW218216   2.080   2.625   3.569  0.4416  0.2865  0.0044
 5773SOL     OW18217   6.841   0.656   4.087 -0.3178  0.0816 -0.0654
 5773SOL    HW118218   6.898   0.591   4.137  0.1337  0.5391  0.0242
 5773SOL    HW218219   6.869   0.659   3.991 -2.7792 -2.6342 -0.9959
 5774SOL     OW18220   6.724   6.488   2.658  0.2971 -0.3856 -0.0930
 5774SOL    HW118221   6.757   6.436   2.580 -1.5980  0.2731 -1.4022
 5774SOL    HW218222   6.720   6.585   2.634 -0.5909 -0.2068  0.7159
 5775SOL     OW18223   6.636   4.232   2.464 -0.2939 -0.0920  0.2039
 5775SOL    HW118224   6.610   4.156   2.405 -0.6023  0.3852 -0.2814
 5775SOL    HW218225   6.573   4.308   2.451  1.1091  0.9675 -0.7396
 5776SOL     OW18226   4.583   1.316   6.436 -0.2011 -0.4482 -0.1902
 5776SOL    HW118227   4.638   1.268   6.367 -0.9386 -0.3510 -0.8684
 5776SOL    HW218228   4.535   1.393   6.392  0.3900  0.4583  0.7276
 5777SOL     OW18229   5.974   0.256   1.695  0.5900 -0.0385  0.2367
 5777SOL    HW118230   5.949   0.274   1.600 -0.2453 -0.0585  0.4514
 5777SOL    HW218231   5.985   0.343   1.744  1.8210 -0.0001 -0.0685
 5778SOL     OW18232   7.004   0.191   5.776  0.4818  0.2867  0.4177
 5778SOL    HW118233   7.050   0.209   5.689  1.4509 -1.1016  0.6175
 5778SOL    HW218234   6.993   0.093   5.789  1.3930  0.3915  2.3805
 5779SOL     OW18235   5.665   1.644   0.978 -0.1278 -0.1295 -0.2594
 5779SOL    HW118236   5.675   1.587   0.896 -1.7208 -0.2315 -0.4145
 5779SOL    HW218237   5.672   1.740   0.952  2.2201 -0.1891 -0.0477
 5780SOL     OW18238   6.484   5.457   5.959 -0.2943  0.3850 -0.1982
 5780SOL    HW118239   6.525   5.548   5.961 -1.1844  0.8006  0.0968
 5780SOL    HW218240   6.418   5.449   6.035  0.5768 -0.9007  0.4691
 5781SOL     OW18241   1.572   6.524   6.696  0.3000 -0.0003  0.1860
 5781SOL    HW118242   1.561   6.470   6.779  0.2701  1.5315  1.2363
 5781SOL    HW218243   1.663   6.567   6.697  0.2244  0.1819 -0.4834
 5782SOL     OW18244   4.937   1.600   2.223 -0.0018  0.3656 -0.1769
 5782SOL    HW118245   4.966   1.690   2.254  0.2744  0.2093  0.0248
 5782SOL    HW218246   4.909   1.605   2.127 -1.5191  0.9919  0.2702
 5783SOL     OW18247   3.331   1.043   0.083  0.6061  0.3371 -0.7720
 5783SOL    HW118248   3.342   1.058  -0.015  1.8135 -1.2339 -0.9195
 5783SOL    HW218249   3.346   0.947   0.104 -1.2567  0.3243  0.7747
 5784SOL     OW18250   5.747   5.698   0.547 -0.4860  0.0752  0.4566
 5784SOL    HW118251   5.655   5.685   0.582 -0.6512 -2.6455 -0.7371
 5784SOL    HW218252   5.814   5.668   0.615 -0.4383  1.8439  1.2371
 5785SOL     OW18253   3.728   0.613   4.307  0.9358 -0.6395  0.1049
 5785SOL    HW118254   3.660   0.595   4.235  0.5502  0.9529  0.0339
 5785SOL    HW218255   3.751   0.527   4.354 -0.6955 -1.2981 -0.2448
 5786SOL     OW18256   5.048   4.120   1.821 -0.8256  0.4544 -0.2044
 5786SOL    HW118257   4.969   4.161   1.774 -0.7702  0.1112 -0.6031
 5786SOL    HW218258   5.046   4.020   1.808  0.3080  0.5425 -1.1967
 5787SOL     OW18259   0.835   0.076   4.387 -0.2769 -0.1199 -0.1623
 5787SOL    HW118260   0.772   0.095   4.312 -1.0541 -0.5451  0.3711
 5787SOL    HW218261   0.904   0.147   4.391 -1.0903  0.6994 -0.3697
 5788SOL     OW18262   5.245   6.266   3.943  0.3143 -0.4969 -0.1420
 5788SOL    HW118263   5.167   6.253   3.881 -0.0000  0.7189 -0.0124
 5788SOL    HW218264   5.317   6.317   3.897  0.3922 -0.2471  0.2528
 5789SOL     OW18265   4.252   4.067   0.539 -0.0419  0.3828 -0.5307
 5789SOL    HW118266   4.289   4.138   0.599  2.3335 -0.9456 -0.3183
 5789SOL    HW218267   4.229   4.106   0.451  1.0213  1.4700 -0.3451
 5790SOL     OW18268   2.063   4.110   4.410 -0.1566 -0.4160  0.3676
 5790SOL    HW118269   2.115   4.190   4.440 -0.2846 -0.2073  0.0478
 5790SOL    HW218270   2.086   4.031   4.466 -0.3329 -0.0539  0.9527
 5791SOL     OW18271   2.671   0.969   3.620 -0.2105 -0.1096  0.4552
 5791SOL    HW118272   2.621   1.043   3.666  0.5516  0.9260 -0.3311
 5791SOL    HW218273   2.610   0.923   3.556 -0.7883 -0.3932  1.2029
 5792SOL     OW18274   0.637   1.290   4.977  0.1646 -0.0855 -0.2627
 5792SOL    HW118275   0.549   1.244   4.992  0.8416 -1.4986 -0.4640
 5792SOL    HW218276   0.689   1.239   4.908  2.4772 -1.2169  2.1539
 5793SOL     OW18277   5.603   1.954   1.338  0.0882  0.2545  0.0022
 5793SOL    HW118278   5.672   2.021   1.366  0.1146 -0.4788  1.8244
 5793SOL    HW218279   5.568   1.907   1.419 -1.6945 -0.2375 -1.0020
 5794SOL     OW18280   6.827   4.095   5.604 -0.7583 -0.0388  0.1846
 5794SOL    HW118281   6.842   4.085   5.702  1.5485  1.2306  0.0252
 5794SOL    HW218282   6.731   4.119   5.587 -1.1737 -0.1773  2.1136
 5795SOL     OW18283   1.412   4.466   0.344 -0.6187 -0.1503 -0.3845
 5795SOL    HW118284   1.423   4.562   0.367 -1.7755 -0.0376 -0.2157
 5795SOL    HW218285   1.405   4.412   0.428 -0.8581 -0.2577 -0.4702
 5796SOL     OW18286   4.069   0.250   0.804  0.4068  0.0778  0.6066
 5796SOL    HW118287   4.062   0.267   0.902  0.2130 -0.1939  0.6405
 5796SOL    HW218288   3.990   0.291   0.758  0.1503 -0.3680  0.6420
 5797SOL     OW18289   4.781   3.705   6.443  0.4304 -0.3979  0.1772
 5797SOL    HW118290   4.688   3.738   6.434  0.4053  0.0110  1.6331
 5797SOL    HW218291   4.798   3.633   6.376 -1.2780 -1.2294  0.5779
 5798SOL     OW18292   0.865   6.175   4.513  0.3219 -0.1149 -0.4697
 5798SOL    HW118293   0.961   6.157   4.490 -0.3925 -0.6088 -3.4449
 5798SOL    HW218294   0.817   6.089   4.527  0.4226  0.1432  2.0000
 5799SOL     OW18295   5.075   6.656   4.084  0.1856  0.3289  0.0891
 5799SOL    HW118296   5.168   6.665   4.048 -0.1435  1.5962 -0.4910
 5799SOL    HW218297   5.076   6.593   4.162  1.6197  0.7546  0.4514
 5800SOL     OW18298   4.572   6.047   6.046  0.3112 -0.2296 -0.0374
 5800SOL    HW118299   4.563   6.062   6.144  1.3439  1.5795 -0.1767
 5800SOL    HW218300   4.481   6.037   6.005 -0.1412 -0.7404  1.0447
 5801SOL     OW18301   2.440   0.231   2.670  0.3777 -0.6718 -0.0221
 5801SOL    HW118302   2.428   0.271   2.579  1.9438 -0.6341 -0.2387
 5801SOL    HW218303   2.485   0.298   2.730  1.7740 -1.5904  0.0031
 5802SOL     OW18304   0.807   2.608   4.968  0.2483 -0.3850  0.1339
 5802SOL    HW118305   0.786   2.512   4.953  0.4364 -0.1127 -2.2986
 5802SOL    HW218306   0.793   2.659   4.883  1.1364  1.5575  1.0850
 5803SOL     OW18307   1.295   5.920   1.394 -0.4616 -0.3448  0.6066
 5803SOL    HW118308   1.311   5.824   1.416 -1.7782 -1.0083 -1.0641
 5803SOL    HW218309   1.345   5.943   1.310  0.7562  0.7847  1.5986
 5804SOL     OW18310   6.783   4.429   6.111  0.0140 -0.1976 -0.2198
 5804SOL    HW118311   6.683   4.426   6.119  0.0036 -2.0322 -0.7661
 5804SOL    HW218312   6.824   4.359   6.170  0.8851 -0.5658 -1.2390
 5805SOL     OW18313   3.903   5.300   5.029  0.2612 -0.4109  0.3063
 5805SOL    HW118314   3.822   5.309   4.970  1.1795  2.4538 -0.7095
 5805SOL    HW218315   3.978   5.261   4.977  0.4115 -0.0872  0.2784
 5806SOL     OW18316   6.427   6.361   5.546 -0.0611 -0.1314 -0.0172
 5806SOL    HW118317   6.515   6.407   5.534 -0.6413  0.7473 -1.0582
 5806SOL    HW218318   6.353   6.421   5.517 -1.1679 -0.2229  2.3807
 5807SOL     OW18319   1.757   1.994   0.030  0.2876 -0.4512 -0.7098
 5807SOL    HW118320   1.680   2.025   0.085  1.6187  2.2229 -0.2157
 5807SOL    HW218321   1.747   2.026  -0.064  1.2123  0.7128 -0.4272
 5808SOL     OW18322   5.428   1.881   4.644 -0.1776 -0.2752  0.2774
 5808SOL    HW118323   5.510   1.934   4.665 -1.0343  1.1003  0.2721
 5808SOL    HW218324   5.415   1.812   4.715  2.5102 -2.4685 -1.1830
 5809SOL     OW18325   6.909   2.014   3.421  0.5241 -0.4959  0.5289
 5809SOL    HW118326   6.820   2.047   3.390  0.6739  0.4986  1.1016
 5809SOL    HW218327   6.972   2.092   3.430  1.3983 -1.1596  0.3089
 5810SOL     OW18328   2.925   2.272   3.703  0.1134  0.2271 -0.1231
 5810SOL    HW118329   2.853   2.341   3.710 -0.2898 -0.3367  1.9238
 5810SOL    HW218330   2.908   2.214   3.623  0.1596  2.1208 -1.5490
 5811SOL     OW18331   3.116   1.059   0.807 -0.4193 -0.5581 -0.6407
 5811SOL    HW118332   3.133   1.105   0.720  1.7581  0.3360  0.1968
 5811SOL    HW218333   3.114   1.126   0.881 -0.2551 -1.5112  0.2518
 5812SOL     OW18334   6.441   6.835   5.654  0.1532  0.1994 -0.1563
 5812SOL    HW118335   6.431   6.930   5.687 -1.3774  0.2731 -0.7574
 5812SOL    HW218336   6.362   6.782   5.684  1.6707 -1.2908  1.3963
 5813SOL     OW18337   1.627   0.882   3.026 -0.0048  0.1126 -0.1924
 5813SOL    HW118338   1.536   0.843   3.016  0.0232 -0.6532  1.9005
 5813SOL    HW218339   1.696   0.810   3.018  0.2334  0.2159  0.7571
 5814SOL     OW18340   1.803   3.697   6.896  0.2439  0.3996 -0.2165
 5814SOL    HW118341   1.720   3.652   6.931 -0.4274  1.2597 -0.6709
 5814SOL    HW218342   1.781   3.791   6.870  0.8547  0.0081 -2.3197
 5815SOL     OW18343   4.556   5.858   5.114 -0.6066 -0.2893  0.5476
 5815SOL    HW118344   4.624   5.842   5.044 -0.1845 -0.3366  0.9664
 5815SOL    HW218345   4.589   5.929   5.177 -1.6814  0.9956 -0.2579
 5816SOL     OW18346   4.795   6.415   1.272 -0.1144 -0.7874 -0.4106
 5816SOL    HW118347   4.831   6.346   1.209 -0.5755 -1.7513  0.3632
 5816SOL    HW218348   4.865   6.485   1.287  0.3702 -1.0898 -1.1924
 5817SOL     OW18349   6.889   3.026   0.245 -0.1951  0.4333  0.2065
 5817SOL    HW118350   6.814   3.063   0.190  0.0993 -0.0418 -0.5344
 5817SOL    HW218351   6.976   3.044   0.199  0.2921  2.2017  1.7329
 5818SOL     OW18352   6.207   6.349   4.815 -0.2306  0.5862 -0.0419
 5818SOL    HW118353   6.160   6.320   4.898  0.6739  0.3267  0.4002
 5818SOL    HW218354   6.304   6.366   4.836 -0.2843  1.9085 -0.7365
 5819SOL     OW18355   0.936   6.374   2.747  0.2523 -0.3073 -0.1103
 5819SOL    HW118356   0.840   6.385   2.773 -0.0350  0.0422 -1.2857
 5819SOL    HW218357   0.949   6.286   2.703  1.0642 -1.6242  2.5320
 5820SOL     OW18358   3.496   4.623   0.336  0.6023 -0.3061  0.2632
 5820SOL    HW118359   3.465   4.681   0.411  1.8674 -0.1989  0.7274
 5820SOL    HW218360   3.417   4.595   0.281  0.0222  2.7900 -0.6983
 5821SOL     OW18361   1.906   5.896   2.898  0.3223 -0.0735  0.1458
 5821SOL    HW118362   1.955   5.983   2.899  1.7605 -0.8457  0.8326
 5821SOL    HW218363   1.968   5.824   2.864  0.0360 -1.2944  2.0800
 5822SOL     OW18364   4.033   1.923   1.746 -0.2197  0.0366 -0.0778
 5822SOL    HW118365   4.032   1.847   1.680  0.3281  0.9719 -1.1950
 5822SOL    HW218366   3.939   1.955   1.760 -0.3084  0.0615 -0.6920
 5823SOL     OW18367   0.573   1.805   1.486  0.0382  0.4473 -0.2026
 5823SOL    HW118368   0.596   1.789   1.390 -0.1369  1.1515 -0.3662
 5823SOL    HW218369   0.648   1.852   1.531  0.6385 -0.9597  0.3304
 5824SOL     OW18370   5.118   6.323   3.394  0.0091  0.4578 -0.4349
 5824SOL    HW118371   5.155   6.355   3.307  1.5424 -1.5337 -0.5928
 5824SOL    HW218372   5.019   6.306   3.384  0.2508 -0.2038 -1.9637
 5825SOL     OW18373   2.007   1.409   2.164 -0.1116  0.0178  0.1133
 5825SOL    HW118374   2.061   1.326   2.178  1.1453  0.4817 -1.7123
 5825SOL    HW218375   1.910   1.387   2.174  0.2833 -1.1694  1.8476
 5826SOL     OW18376   1.592   5.934   1.109 -0.4658 -0.0149 -0.0878
 5826SOL    HW118377   1.527   6.010   1.117  0.2650  0.5576  0.5144
 5826SOL    HW218378   1.622   5.906   1.200  2.3154  1.6653 -0.3598
 5827SOL     OW18379   3.255   4.203   6.067  0.0508  0.5005 -0.2303
 5827SOL    HW118380   3.204   4.137   6.122  1.7504 -1.5179 -0.9630
 5827SOL    HW218381   3.334   4.158   6.024 -0.5618  2.2056 -3.4862
 5828SOL     OW18382   6.756   1.796   0.132 -0.0615  0.1010 -0.1415
 5828SOL    HW118383   6.724   1.850   0.055 -0.0116 -1.1574 -1.0818
 5828SOL    HW218384   6.677   1.768   0.188  0.0846  2.9964  1.6982
 5829SOL     OW18385   1.910   1.775   6.973  0.0629 -0.3207  0.2978
 5829SOL    HW118386   1.842   1.848   6.968 -0.8441 -1.0733  1.3001
 5829SOL    HW218387   1.865   1.687   6.988  1.1793 -1.0133 -0.2475
 5830SOL     OW18388   1.154   1.418   6.522 -0.0051 -0.2562  0.1310
 5830SOL    HW118389   1.202   1.400   6.437 -0.8051 -0.2063 -0.3340
 5830SOL    HW218390   1.135   1.332   6.569 -1.7261 -0.5068 -0.9416
 5831SOL     OW18391   5.282   5.935   3.705  0.2606  0.1072 -0.7813
 5831SOL    HW118392   5.353   5.899   3.644 -0.4878  0.9850 -2.2183
 5831SOL    HW218393   5.193   5.904   3.674 -0.0086 -1.4394  1.3332
 5832SOL     OW18394   2.889   3.299   4.864  0.5419  0.0605 -0.1586
 5832SOL    HW118395   2.918   3.375   4.806  2.3061 -1.5511 -1.5148
 5832SOL    HW218396   2.814   3.250   4.820  2.2737 -1.5263 -1.5371
 5833SOL     OW18397   3.049   3.197   2.734 -0.3152  0.8588 -0.2264
 5833SOL    HW118398   3.077   3.135   2.807 -0.4025  0.2155 -0.7313
 5833SOL    HW218399   3.045   3.291   2.769 -0.9096  0.4786  0.7389
 5834SOL     OW18400   6.266   2.656   0.516  0.4260 -0.1628 -0.2949
 5834SOL    HW118401   6.167   2.666   0.502  0.7112  2.7344 -1.0693
 5834SOL    HW218402   6.314   2.680   0.432  1.8476 -3.0680 -0.4344
 5835SOL     OW18403   6.958   2.341   5.267  0.2676  0.3409 -0.0397
 5835SOL    HW118404   6.996   2.429   5.296  0.5313  1.0386 -2.2647
 5835SOL    HW218405   7.033   2.278   5.246  0.0823 -0.2618  1.0282
 5836SOL     OW18406   3.315   5.888   2.503  0.7075  0.0505 -0.0229
 5836SOL    HW118407   3.394   5.942   2.532  0.4451  0.0981  0.6204
 5836SOL    HW218408   3.326   5.793   2.531  0.9339 -0.1359 -0.7081
 5837SOL     OW18409   2.562   5.312   6.989 -0.5413 -0.3531 -0.3103
 5837SOL    HW118410   2.565   5.231   6.931  2.5752 -0.3977 -0.2829
 5837SOL    HW218411   2.650   5.360   6.983 -0.7063  0.6052  3.0169
 5838SOL     OW18412   2.393   1.085   0.738  0.1245  0.0040 -0.2145
 5838SOL    HW118413   2.479   1.095   0.789  1.7219 -0.9848 -2.5607
 5838SOL    HW218414   2.382   1.162   0.675  0.2291 -0.7986 -1.2237
 5839SOL     OW18415   0.366   2.286   2.094 -0.0284 -0.3740  0.0817
 5839SOL    HW118416   0.462   2.266   2.073 -0.4140 -0.9372 -1.2856
 5839SOL    HW218417   0.318   2.202   2.118 -0.3601 -0.2238 -0.0409
 5840SOL     OW18418   3.928   5.505   0.514  0.0485 -0.3886  0.0538
 5840SOL    HW118419   3.996   5.453   0.462  0.5842  0.8489 -0.5227
 5840SOL    HW218420   3.967   5.532   0.602  0.0755 -0.2454 -0.0015
 5841SOL     OW18421   1.330   2.159   1.275  0.1018 -0.4991  0.2014
 5841SOL    HW118422   1.355   2.220   1.200 -0.2390 -1.1812 -0.4822
 5841SOL    HW218423   1.409   2.104   1.302 -0.5266 -2.5845 -1.8905
 5842SOL     OW18424   2.878   2.859   0.963 -0.5438  0.0324  0.2777
 5842SOL    HW118425   2.787   2.898   0.952 -1.7205 -2.3948  1.0007
 5842SOL    HW218426   2.889   2.823   1.055  0.9419 -0.2322  0.0245
 5843SOL     OW18427   1.808   2.180   0.635  0.4453  0.6610 -0.5780
 5843SOL    HW118428   1.778   2.257   0.579  0.4364 -0.4574 -2.1666
 5843SOL    HW218429   1.814   2.098   0.578  1.3096 -0.3251  0.8877
 5844SOL     OW18430   1.526   4.567   3.728 -0.3760  0.4643 -0.7797
 5844SOL    HW118431   1.494   4.516   3.648 -1.3344 -1.5916  0.7982
 5844SOL    HW218432   1.561   4.502   3.796  0.3824  2.1435  0.5043
 5845SOL     OW18433   1.575   1.397   3.641  0.9518 -0.2965  0.1331
 5845SOL    HW118434   1.518   1.332   3.692  1.5035 -1.6615 -0.9243
 5845SOL    HW218435   1.638   1.442   3.704 -0.4186  0.3222  1.1242
 5846SOL     OW18436   3.782   1.277   5.832  0.4111  0.5835  0.2088
 5846SOL    HW118437   3.682   1.273   5.826  0.4535 -0.8127  0.2504
 5846SOL    HW218438   3.809   1.273   5.929  0.5703 -1.6882  0.1169
 5847SOL     OW18439   1.885   1.813   3.565 -0.4247 -0.0107 -0.4166
 5847SOL    HW118440   1.917   1.728   3.606 -1.6997 -1.0588 -1.4907
 5847SOL    HW218441   1.785   1.813   3.565 -0.4359  0.9440 -1.5333
 5848SOL     OW18442   2.372   6.179   3.157  0.5978  0.2261 -0.3519
 5848SOL    HW118443   2.376   6.263   3.103  1.1957  1.3200  1.3245
 5848SOL    HW218444   2.422   6.191   3.242  0.7538 -1.8734 -0.0841
 5849SOL     OW18445   2.191   0.240   5.756  0.4006 -0.0290 -0.3694
 5849SOL    HW118446   2.125   0.234   5.831  0.3937 -2.5210 -0.4873
 5849SOL    HW218447   2.182   0.330   5.711 -1.3370  0.5554  0.9992
 5850SOL     OW18448   1.013   4.572   3.911 -0.3401 -0.4102 -0.3218
 5850SOL    HW118449   1.103   4.543   3.879 -0.3394  0.6296 -1.3387
 5850SOL    HW218450   1.021   4.661   3.957 -1.0137  0.3932 -1.6883
 5851SOL     OW18451   6.970   3.649   2.624  0.5159 -0.5516  0.1739
 5851SOL    HW118452   7.002   3.659   2.718  1.0999  0.9729 -0.1515
 5851SOL    HW218453   6.940   3.738   2.590 -0.3779 -1.2181 -0.8546
 5852SOL     OW18454   3.792   5.297   3.679  0.5277  0.2931  0.5311
 5852SOL    HW118455   3.767   5.379   3.730 -0.6269 -0.9671  2.1170
 5852SOL    HW218456   3.719   5.272   3.617  0.8947  0.4785  0.0196
 5853SOL     OW18457   4.653   2.195   6.234  0.2588  0.5056 -0.2017
 5853SOL    HW118458   4.701   2.214   6.148  0.1110  0.3343 -0.3225
 5853SOL    HW218459   4.719   2.194   6.309  0.2271  1.8172 -0.1414
 5854SOL     OW18460   5.693   1.284   5.760  0.2672 -0.3097 -0.4964
 5854SOL    HW118461   5.697   1.201   5.704  3.1248 -1.0616  0.6458
 5854SOL    HW218462   5.730   1.361   5.708  0.9792 -0.5516 -0.3522
 5855SOL     OW18463   1.793   0.552   5.413 -0.0117  0.3220 -0.7780
 5855SOL    HW118464   1.762   0.592   5.327 -0.5973 -1.7673 -1.6162
 5855SOL    HW218465   1.893   0.546   5.413  0.0738  1.5509 -0.7087
 5856SOL     OW18466   0.659   1.757   4.942  0.0476  0.3321  0.0841
 5856SOL    HW118467   0.642   1.824   5.013  0.8246 -0.6875  1.2803
 5856SOL    HW218468   0.638   1.665   4.977 -0.4192 -0.1149 -1.3043
 5857SOL     OW18469   2.028   2.782   6.239 -0.0695  0.6636  0.1267
 5857SOL    HW118470   2.032   2.722   6.319 -3.1095  0.9362  0.5873
 5857SOL    HW218471   2.041   2.877   6.268  0.1563  0.6493  0.0771
 5858SOL     OW18472   1.893   6.235   3.753  0.3127  0.0413 -0.0433
 5858SOL    HW118473   1.936   6.295   3.821 -0.6512 -0.1471  0.7602
 5858SOL    HW218474   1.910   6.139   3.778 -0.2794 -0.0299  0.1024
 5859SOL     OW18475   4.782   3.061   2.949 -0.1238 -0.3030  0.0571
 5859SOL    HW118476   4.817   2.993   2.885 -0.4840  0.1303 -0.6053
 5859SOL    HW218477   4.728   3.016   3.019 -1.0054 -0.6244 -0.8151
 5860SOL     OW18478   6.541   5.271   1.062 -0.1628 -0.0351  0.0632
 5860SOL    HW118479   6.559   5.268   0.963 -0.8436  0.7852 -0.0987
 5860SOL    HW218480   6.627   5.259   1.112  0.0228 -1.7340 -0.5936
 5861SOL     OW18481   5.115   3.571   5.346  0.0427  0.4916 -0.3470
 5861SOL    HW118482   5.085   3.476   5.357  1.3854  0.0934  0.1683
 5861SOL    HW218483   5.069   3.612   5.267  0.5339 -1.0667 -1.5026
 5862SOL     OW18484   5.589   4.304   3.122 -0.2129 -0.2802 -0.0055
 5862SOL    HW118485   5.573   4.402   3.126 -0.2774 -0.2343 -1.0361
 5862SOL    HW218486   5.616   4.270   3.212 -1.3722  0.4735  0.6455
 5863SOL     OW18487   2.652   2.132   0.324  0.2609  0.4819 -0.5143
 5863SOL    HW118488   2.621   2.040   0.345 -0.3832  0.9629  0.7655
 5863SOL    HW218489   2.726   2.128   0.258  1.5423 -1.0806  0.9331
 5864SOL     OW18490   3.800   5.435   6.644  0.1229  0.6149  0.1787
 5864SOL    HW118491   3.756   5.523   6.660 -0.2229  0.2157  1.5268
 5864SOL    HW218492   3.765   5.368   6.709  0.4182 -0.5185 -0.7955
 5865SOL     OW18493   2.558   5.621   1.633  0.7307 -0.1850  0.1215
 5865SOL    HW118494   2.582   5.618   1.730 -0.0469 -1.7253  0.2923
 5865SOL    HW218495   2.638   5.598   1.578  1.0207  0.1035  0.4164
 5866SOL     OW18496   3.226   2.382   6.969  0.3741 -0.5608  0.3403
 5866SOL    HW118497   3.180   2.294   6.953 -0.0822 -0.1716 -0.5684
 5866SOL    HW218498   3.159   2.448   7.004  0.0867  0.1532 -1.4658
 5867SOL     OW18499   0.356   1.839   1.920  0.4441 -0.8002  0.0155
 5867SOL    HW118500   0.353   1.876   1.828  0.1743 -0.5460  0.1227
 5867SOL    HW218501   0.287   1.767   1.930 -1.3056  0.8919  0.7322
 5868SOL     OW18502   0.455   3.746   5.855  0.2156 -0.4618 -0.1637
 5868SOL    HW118503   0.543   3.793   5.855 -0.3988  0.7460  1.4693
 5868SOL    HW218504   0.381   3.813   5.845 -0.6156 -1.2006  0.8136
 5869SOL     OW18505   1.244   0.250   5.460  0.0137 -0.1241 -0.1703
 5869SOL    HW118506   1.296   0.172   5.425 -1.1552 -0.2905 -1.5762
 5869SOL    HW218507   1.207   0.303   5.384 -0.6980  0.8006  0.7903
 5870SOL     OW18508   5.625   6.238   5.438  0.1511 -0.3772  0.1659
 5870SOL    HW118509   5.691   6.293   5.489  0.8873 -0.8837 -0.2313
 5870SOL    HW218510   5.648   6.141   5.447  0.2536 -0.4787 -1.0605
 5871SOL     OW18511   0.867   5.489   1.853  0.2560  0.2234 -0.1562
 5871SOL    HW118512   0.936   5.521   1.917  0.0645  0.3403 -0.0062
 5871SOL    HW218513   0.859   5.389   1.859  1.4897  0.0265 -1.2677
 5872SOL     OW18514   3.169   6.453   4.198  0.0633 -0.1643  0.1932
 5872SOL    HW118515   3.084   6.489   4.235  0.5025  1.5004 -0.3611
 5872SOL    HW218516   3.232   6.432   4.273 -0.3785 -0.2367  0.5467
 5873SOL     OW18517   0.846   3.187   6.848 -0.6314 -0.2093 -0.2030
 5873SOL    HW118518   0.853   3.201   6.946  1.0541  0.2300 -0.3488
 5873SOL    HW218519   0.908   3.113   6.820  2.3034  2.4376 -1.4077
 5874SOL     OW18520   4.997   5.451   5.113 -0.2433  0.0894 -0.6642
 5874SOL    HW118521   5.097   5.455   5.117  0.0089 -3.7013  0.3302
 5874SOL    HW218522   4.969   5.380   5.048 -2.1663 -1.1051  1.3376
 5875SOL     OW18523   5.410   1.796   0.715 -0.3120 -0.3220  0.3192
 5875SOL    HW118524   5.361   1.711   0.697  0.4952 -0.5503 -0.9944
 5875SOL    HW218525   5.345   1.870   0.730 -1.0320 -0.9794  0.4994
 5876SOL     OW18526   3.310   2.747   6.141  0.5850 -0.3358  0.4404
 5876SOL    HW118527   3.238   2.678   6.147  0.5626 -0.2411  1.5125
 5876SOL    HW218528   3.301   2.798   6.056 -0.6052 -0.3513  0.5471
 5877SOL     OW18529   0.477   4.672   2.622  0.5668 -0.1105  0.1971
 5877SOL    HW118530   0.428   4.756   2.600  0.8812  0.4208  1.4286
 5877SOL    HW218531   0.574   4.684   2.601  0.6723 -0.0190  0.7152
 5878SOL     OW18532   5.152   3.573   3.548 -1.0428 -0.2730  0.3535
 5878SOL    HW118533   5.193   3.548   3.461 -1.4668 -0.8617  0.3178
 5878SOL    HW218534   5.188   3.662   3.578 -0.2163 -0.4940  0.0324
 5879SOL     OW18535   3.872   4.636   5.405  0.1582  0.5704 -0.4759
 5879SOL    HW118536   3.905   4.730   5.393  1.7393  0.2253  0.8544
 5879SOL    HW218537   3.911   4.597   5.488 -1.3816 -0.9014 -0.3813
 5880SOL     OW18538   5.342   4.497   0.095  0.4803  0.6708 -0.4868
 5880SOL    HW118539   5.305   4.475   0.005 -0.2336  0.0118 -0.0408
 5880SOL    HW218540   5.385   4.416   0.134  0.6539  0.9168 -0.1621
 5881SOL     OW18541   0.341   6.634   4.710  0.7424  0.3358 -0.1218
 5881SOL    HW118542   0.306   6.624   4.617 -0.1288  1.8481  0.0147
 5881SOL    HW218543   0.292   6.572   4.771  0.2901  0.3796 -0.4352
 5882SOL     OW18544   2.042   5.435   4.430  0.2922 -0.2294  0.0379
 5882SOL    HW118545   2.070   5.476   4.344  1.6833  0.9388  0.9962
 5882SOL    HW218546   2.118   5.438   4.495 -1.0202 -0.1272  1.6400
 5883SOL     OW18547   0.308   5.799   5.756  0.3173  0.0502  0.3254
 5883SOL    HW118548   0.240   5.858   5.712  0.1967 -0.1070  0.3008
 5883SOL    HW218549   0.379   5.856   5.798  0.4748  0.1985 -0.1350
 5884SOL     OW18550   1.403   1.225   0.715 -0.0776  0.3854  0.2683
 5884SOL    HW118551   1.326   1.165   0.736 -0.0035  0.1581 -0.0874
 5884SOL    HW218552   1.485   1.191   0.761 -0.1554  0.5332  0.5152
 5885SOL     OW18553   6.298   6.211   0.284 -0.2154 -0.6321  0.0874
 5885SOL    HW118554   6.304   6.247   0.191 -2.1242 -0.1272  0.1140
 5885SOL    HW218555   6.252   6.122   0.281 -1.0409 -0.2379  0.5955
 5886SOL     OW18556   0.260   6.036   4.025  0.8497  0.0739 -0.0579
 5886SOL    HW118557   0.218   5.962   4.077  0.3503 -0.3663 -1.0726
 5886SOL    HW218558   0.347   6.061   4.068  1.0585 -1.1387  0.2563
 5887SOL     OW18559   1.696   4.611   2.122  0.1636  0.2505  0.1223
 5887SOL    HW118560   1.656   4.580   2.208  1.9151  2.3325  1.7881
 5887SOL    HW218561   1.773   4.552   2.098 -0.0669 -0.0782  0.1823
 5888SOL     OW18562   3.145   5.787   0.296  0.4803  0.2775  0.5955
 5888SOL    HW118563   3.165   5.865   0.356  0.0978 -0.5954  1.9067
 5888SOL    HW218564   3.221   5.774   0.233  0.8033  1.3564  0.7354
 5889SOL     OW18565   6.009   6.086   1.255 -0.2287  0.5012 -0.1414
 5889SOL    HW118566   5.991   6.036   1.340  1.1884 -2.9130 -1.6681
 5889SOL    HW218567   6.105   6.116   1.254 -0.3025  0.7320 -0.4599
 5890SOL     OW18568   1.323   4.163   2.302  0.2910 -0.3211  0.1694
 5890SOL    HW118569   1.294   4.240   2.358 -0.7386 -0.5224 -0.0688
 5890SOL    HW218570   1.422   4.165   2.291  0.6087 -0.5445  2.4079
 5891SOL     OW18571   2.997   1.788   0.899 -0.5372 -0.1268  0.1023
 5891SOL    HW118572   3.071   1.751   0.843 -2.1152 -0.1346 -2.0891
 5891SOL    HW218573   2.935   1.714   0.926 -1.9942  0.3680 -1.6606
 5892SOL     OW18574   1.414   2.911   1.077 -0.5547  0.0821 -0.6023
 5892SOL    HW118575   1.363   2.978   1.024  0.5795  0.8093 -0.7936
 5892SOL    HW218576   1.510   2.913   1.051 -0.7283 -2.8827 -1.9493
 5893SOL     OW18577   0.772   5.715   1.193  0.0701  0.2034 -0.0360
 5893SOL    HW118578   0.869   5.694   1.207 -0.0063 -1.6950 -1.8260
 5893SOL    HW218579   0.734   5.756   1.276  1.6089 -2.0180  1.8840
 5894SOL     OW18580   2.041   6.061   0.395 -0.0377  0.3657  0.1087
 5894SOL    HW118581   2.057   6.046   0.492 -2.2347 -1.2015  0.3070
 5894SOL    HW218582   1.978   6.138   0.383  0.2835  0.5995 -0.0724
 5895SOL     OW18583   6.085   2.440   1.812 -0.3908 -0.2650  0.8166
 5895SOL    HW118584   5.987   2.448   1.793 -0.7091 -0.2280  2.3275
 5895SOL    HW218585   6.126   2.375   1.748 -1.1190  0.6903 -0.6975
 5896SOL     OW18586   5.310   2.447   3.173 -0.4816 -0.1347  0.1026
 5896SOL    HW118587   5.225   2.492   3.199 -0.9218 -0.3986 -0.8840
 5896SOL    HW218588   5.387   2.497   3.213 -1.1426 -0.9554  2.5875
 5897SOL     OW18589   2.116   1.536   1.376  0.8591  0.0778 -0.4610
 5897SOL    HW118590   2.178   1.612   1.398  2.7058 -0.8439 -2.1501
 5897SOL    HW218591   2.126   1.465   1.447  0.1545  0.7924  0.3792
 5898SOL     OW18592   3.158   6.465   0.240 -0.1294  0.3035  0.0897
 5898SOL    HW118593   3.168   6.372   0.204 -0.4961  1.0244 -1.9807
 5898SOL    HW218594   3.062   6.482   0.263 -0.2767  0.5655 -0.7020
 5899SOL     OW18595   0.439   0.358   1.329 -0.2922  0.2482 -0.1052
 5899SOL    HW118596   0.345   0.361   1.294 -0.1699  0.4628 -0.4182
 5899SOL    HW218597   0.454   0.270   1.375 -0.7117  0.2968  0.1343
 5900SOL     OW18598   3.968   6.070   1.862  0.3144 -0.2006 -0.2542
 5900SOL    HW118599   3.960   6.169   1.876 -1.0679 -0.0868 -1.6330
 5900SOL    HW218600   3.893   6.024   1.909 -1.1504 -0.2515 -2.4907
 5901SOL     OW18601   1.759   1.250   3.271  0.3227  0.6841 -0.1969
 5901SOL    HW118602   1.730   1.202   3.188 -0.7053  0.0043  0.5347
 5901SOL    HW218603   1.859   1.260   3.270  0.2225  2.3357 -2.3749
 5902SOL     OW18604   4.585   5.124   6.205  0.5661 -0.1431 -0.4928
 5902SOL    HW118605   4.665   5.065   6.211  1.4066  1.0182  0.1526
 5902SOL    HW218606   4.579   5.162   6.112 -0.6335 -2.0646 -1.2660
 5903SOL     OW18607   5.472   1.676   1.523  0.3701  0.3091 -0.0823
 5903SOL    HW118608   5.493   1.582   1.495 -1.1222  0.3445 -1.3880
 5903SOL    HW218609   5.553   1.716   1.567  1.3207 -1.2697 -0.3296
 5904SOL     OW18610   6.004   4.525   1.574  0.1332 -0.1006  0.2159
 5904SOL    HW118611   6.014   4.565   1.665  1.0004 -2.5182  1.2763
 5904SOL    HW218612   5.914   4.482   1.566 -0.7462  1.8205 -0.8683
 5905SOL     OW18613   1.083   1.892   5.226  0.2161  0.1645 -0.8394
 5905SOL    HW118614   1.087   1.809   5.170 -0.4383 -0.7673  0.4500
 5905SOL    HW218615   0.995   1.896   5.273  0.8354  0.7952  0.3042
 5906SOL     OW18616   4.494   1.857   5.337 -0.5067 -0.4816 -0.2625
 5906SOL    HW118617   4.562   1.805   5.389  0.4163  0.9682  0.0385
 5906SOL    HW218618   4.515   1.853   5.240 -0.9012 -1.3014 -0.3207
 5907SOL     OW18619   5.988   5.681   5.938 -0.6983  0.4615 -0.2936
 5907SOL    HW118620   5.965   5.589   5.907  0.9966  0.4222 -1.5687
 5907SOL    HW218621   6.069   5.714   5.889 -0.7806  2.3229  0.7173
 5908SOL     OW18622   4.693   2.373   0.461  0.8035  0.0224  0.6191
 5908SOL    HW118623   4.667   2.342   0.370  2.3720 -1.7832  0.7346
 5908SOL    HW218624   4.745   2.458   0.453 -0.2287  0.6197 -0.0230
 5909SOL     OW18625   5.149   4.741   2.143  0.6069  0.0231 -0.4178
 5909SOL    HW118626   5.175   4.812   2.077 -0.1165 -1.5827 -2.5360
 5909SOL    HW218627   5.228   4.720   2.202  1.2530  1.5598 -0.6817
 5910SOL     OW18628   1.968   4.280   1.812 -0.1071  0.0596 -0.0240
 5910SOL    HW118629   1.937   4.185   1.823 -0.9302  0.4684  1.4719
 5910SOL    HW218630   1.989   4.297   1.716 -2.2585 -0.9424 -0.7320
 5911SOL     OW18631   2.315   6.779   5.847 -0.0152 -0.1536 -0.1228
 5911SOL    HW118632   2.371   6.826   5.915 -0.3962  0.3397 -0.1438
 5911SOL    HW218633   2.239   6.838   5.819 -3.5710 -2.4179  3.5570
 5912SOL     OW18634   0.495   5.022   5.394 -0.4238  0.5774 -0.9958
 5912SOL    HW118635   0.516   4.947   5.332  1.2033  0.5260 -0.4168
 5912SOL    HW218636   0.571   5.035   5.458 -2.7743 -0.7502  2.3927
 5913SOL     OW18637   0.593   4.530   6.000 -0.1316 -0.4955  0.4353
 5913SOL    HW118638   0.611   4.624   6.031  0.9363 -0.9878  1.3960
 5913SOL    HW218639   0.641   4.466   6.061  1.1210 -1.5745 -1.5993
 5914SOL     OW18640   2.328   6.139   1.804  0.5926  0.2500  0.4642
 5914SOL    HW118641   2.315   6.068   1.735  0.0223 -1.4794  2.2739
 5914SOL    HW218642   2.378   6.216   1.764 -1.8669  0.4552 -2.5852
 5915SOL     OW18643   5.928   6.361   6.326 -0.0913  0.4861 -0.3664
 5915SOL    HW118644   5.839   6.316   6.330  0.5446 -0.9532 -1.4515
 5915SOL    HW218645   5.947   6.390   6.232  1.5055 -1.2337 -0.6299
 5916SOL     OW18646   3.490   0.041   4.656 -0.0439  0.4710 -0.7360
 5916SOL    HW118647   3.568   0.094   4.624  2.0295 -2.3457 -0.7757
 5916SOL    HW218648   3.467  -0.029   4.588 -0.5766 -0.6781  0.5637
 5917SOL     OW18649   3.733   3.970   2.233 -0.1159 -0.4747  0.2589
 5917SOL    HW118650   3.809   3.997   2.292 -0.3885 -1.0243  0.8804
 5917SOL    HW218651   3.647   4.000   2.274 -0.2309  0.3930 -0.5794
 5918SOL     OW18652   2.840   1.840   3.022  0.4038 -0.4492 -0.1953
 5918SOL    HW118653   2.938   1.851   3.005  0.1400  1.2103 -0.7403
 5918SOL    HW218654   2.788   1.875   2.945 -0.6433 -1.1102  0.1854
 5919SOL     OW18655   2.655   1.374   0.130  0.5031 -0.1048  0.5143
 5919SOL    HW118656   2.645   1.275   0.121  0.9508 -0.0964 -0.1863
 5919SOL    HW218657   2.680   1.413   0.041 -1.7846  0.9099  0.2518
 5920SOL     OW18658   1.522   5.182   5.659 -0.2459 -0.6943  0.2069
 5920SOL    HW118659   1.566   5.127   5.730  1.8791  0.2777 -0.2903
 5920SOL    HW218660   1.469   5.255   5.701  1.2157  0.0411  0.8184
 5921SOL     OW18661   4.428   6.678   3.196 -0.1697 -0.0911 -0.3797
 5921SOL    HW118662   4.452   6.627   3.278  1.3072 -1.4158 -1.5533
 5921SOL    HW218663   4.329   6.690   3.191 -0.7086 -3.4225 -0.2993
 5922SOL     OW18664   5.946   4.427   1.930  0.3019  0.1534  0.3003
 5922SOL    HW118665   5.991   4.414   1.842 -0.8322  0.2364 -0.3107
 5922SOL    HW218666   5.869   4.490   1.920  0.9734  1.2565  1.6361
 5923SOL     OW18667   0.954   0.275   3.577  0.4777  0.4671 -0.3549
 5923SOL    HW118668   1.016   0.353   3.579  1.7933 -0.4989  2.2755
 5923SOL    HW218669   0.882   0.288   3.646  0.3730 -0.3705 -0.2917
 5924SOL     OW18670   0.450   0.870   3.266  0.3440 -0.0891  0.3532
 5924SOL    HW118671   0.534   0.923   3.257 -1.5962  2.9470 -1.7742
 5924SOL    HW218672   0.425   0.831   3.177 -0.3215 -1.3007  1.0437
 5925SOL     OW18673   0.354   5.939   1.413  0.0925 -0.9303  0.3551
 5925SOL    HW118674   0.290   5.948   1.489 -0.9178 -0.0057 -0.5772
 5925SOL    HW218675   0.323   5.866   1.352 -1.0804  0.6148 -0.9946
 5926SOL     OW18676   1.579   6.070   2.801 -0.7884 -0.5596 -0.2473
 5926SOL    HW118677   1.518   6.100   2.728  0.3752  0.6554 -0.7697
 5926SOL    HW218678   1.644   6.144   2.822 -0.1193 -1.4597  0.9454
 5927SOL     OW18679   1.419   6.134   0.858 -0.0141 -0.0551  0.2728
 5927SOL    HW118680   1.514   6.107   0.875 -0.1489 -1.1598 -0.5738
 5927SOL    HW218681   1.394   6.109   0.765 -0.7187  1.5079  0.0220
 5928SOL     OW18682   4.255   6.986   1.309 -0.9669 -0.7182  0.0720
 5928SOL    HW118683   4.256   7.078   1.271 -0.5936 -1.1801 -1.0522
 5928SOL    HW218684   4.342   6.967   1.354 -0.7787 -0.7731 -0.3136
 5929SOL     OW18685   0.702   0.687   6.036  0.3386 -0.0848 -0.0749
 5929SOL    HW118686   0.775   0.653   6.095  1.5316 -1.7767 -2.3693
 5929SOL    HW218687   0.646   0.610   6.004  0.9092  0.4291 -2.5883
 5930SOL     OW18688   5.284   0.621   2.045 -0.1575  0.1166 -0.1242
 5930SOL    HW118689   5.311   0.689   2.113 -0.9259  0.5361 -0.2339
 5930SOL    HW218690   5.255   0.667   1.961  0.4464 -0.3866 -0.6211
 5931SOL     OW18691   3.551   4.401   6.871  0.0557 -0.3104 -0.3340
 5931SOL    HW118692   3.456   4.412   6.841 -0.2708 -0.0342  0.7361
 5931SOL    HW218693   3.561   4.440   6.963  1.5870  1.1240 -1.0559
 5932SOL     OW18694   1.847   6.584   1.099  0.0186  0.0085  0.1273
 5932SOL    HW118695   1.947   6.587   1.104  0.0244  0.1326 -0.0658
 5932SOL    HW218696   1.811   6.677   1.096 -0.0599 -0.0417 -0.6531
 5933SOL     OW18697   2.718   2.380   4.070  0.4356  0.4122  0.1802
 5933SOL    HW118698   2.640   2.319   4.083  0.2114  0.3704 -1.1495
 5933SOL    HW218699   2.712   2.456   4.134 -0.0529 -0.2018  0.8882
 5934SOL     OW18700   2.948   3.466   2.842  0.1893 -0.0828 -0.2684
 5934SOL    HW118701   2.919   3.403   2.913  1.9744 -1.4148 -0.6530
 5934SOL    HW218702   2.871   3.486   2.782 -0.7979 -0.6381  0.7761
 5935SOL     OW18703   3.721   3.680   3.402 -0.2731 -0.6754  0.0958
 5935SOL    HW118704   3.720   3.669   3.302  0.9436 -1.6348  0.1664
 5935SOL    HW218705   3.793   3.744   3.428 -0.3198 -0.7352  0.3768
 5936SOL     OW18706   5.931   6.461   1.245  0.1969 -0.2456  0.1335
 5936SOL    HW118707   6.025   6.431   1.226 -0.8133 -2.1120 -2.4785
 5936SOL    HW218708   5.900   6.421   1.331  1.3708 -0.6655  0.3758
 5937SOL     OW18709   0.268   3.253   0.832 -0.2007  0.1977  0.3294
 5937SOL    HW118710   0.218   3.290   0.911  0.9831  2.1370  0.2461
 5937SOL    HW218711   0.271   3.154   0.838 -1.5938  0.2070  1.8298
 5938SOL     OW18712   3.041   4.959   1.208 -0.2507  0.8394 -0.4047
 5938SOL    HW118713   2.969   4.996   1.149 -0.0128  0.6503 -0.8236
 5938SOL    HW218714   3.060   5.022   1.283  0.9774  2.1468 -1.7540
 5939SOL     OW18715   0.518   0.369   0.701  0.2110 -0.0761 -0.5982
 5939SOL    HW118716   0.465   0.341   0.781  1.0967  0.5951  0.2500
 5939SOL    HW218717   0.616   0.358   0.721  0.4668 -3.3514 -2.8449
 5940SOL     OW18718   5.200   4.146   3.309  0.0778 -0.0209  0.1181
 5940SOL    HW118719   5.263   4.079   3.270 -0.8920 -0.2748 -1.0740
 5940SOL    HW218720   5.193   4.225   3.247 -0.4250  0.2044  0.4560
 5941SOL     OW18721   0.487   3.123   3.008  0.7879 -0.4824  0.1566
 5941SOL    HW118722   0.538   3.110   3.093  0.5773  0.0170  0.3616
 5941SOL    HW218723   0.417   3.052   2.999  0.1838  0.0256  0.8593
 5942SOL     OW18724   0.890   2.130   5.517 -0.0314  0.2824  0.5790
 5942SOL    HW118725   0.831   2.146   5.596  0.8014  0.2737  1.2250
 5942SOL    HW218726   0.971   2.189   5.524 -1.4988  2.8069 -1.9998
 5943SOL     OW18727   0.168   5.916   1.619  0.5469 -0.1028 -0.3096
 5943SOL    HW118728   0.214   5.999   1.652 -0.2888  0.6118 -0.8923
 5943SOL    HW218729   0.119   5.873   1.695  0.0975  0.5453 -0.2241
 5944SOL     OW18730   4.956   1.563   3.613  0.0553 -0.9297  0.0416
 5944SOL    HW118731   5.050   1.539   3.590  0.5083  0.0395  0.8169
 5944SOL    HW218732   4.956   1.645   3.671 -1.2508 -1.0624  0.2471
 5945SOL     OW18733   5.362   5.862   0.870 -0.3640  0.0048  0.1770
 5945SOL    HW118734   5.269   5.827   0.857 -0.7940  0.5337  1.6168
 5945SOL    HW218735   5.364   5.960   0.851  0.1376 -0.1827 -0.8032
 5946SOL     OW18736   3.457   3.019   4.720 -0.2105  0.8975  1.3755
 5946SOL    HW118737   3.490   2.960   4.794 -0.2542  0.8782  1.3794
 5946SOL    HW218738   3.362   2.996   4.698  1.0690 -2.4855 -1.8988
 5947SOL     OW18739   5.833   3.383   4.101 -0.7243 -0.1124 -0.6121
 5947SOL    HW118740   5.802   3.357   4.192 -0.1915  0.0962 -0.3694
 5947SOL    HW218741   5.872   3.475   4.104  0.9885 -0.7975 -0.6564
 5948SOL     OW18742   1.128   5.778   3.198  0.6448 -0.3331  0.3917
 5948SOL    HW118743   1.197   5.730   3.144  1.5707  2.4944 -1.1402
 5948SOL    HW218744   1.161   5.869   3.222 -2.0037  0.6116  0.8662
 5949SOL     OW18745   0.118   2.360   1.982  0.1311 -0.4759 -0.1900
 5949SOL    HW118746   0.060   2.310   2.048 -1.3288  1.1913 -0.1398
 5949SOL    HW218747   0.204   2.385   2.026 -1.2710  1.6071  1.5749
 5950SOL     OW18748   2.060   1.078   6.028 -0.0451 -0.2139  0.2915
 5950SOL    HW118749   2.123   1.154   6.014  0.1349  0.3218  3.3238
 5950SOL    HW218750   2.009   1.061   5.944  0.3551  2.8405 -0.6842
 5951SOL     OW18751   1.855   7.006   3.914  0.3305 -0.3159 -0.2236
 5951SOL    HW118752   1.841   7.067   3.992  1.2634  0.0573 -0.3445
 5951SOL    HW218753   1.832   7.055   3.830 -0.0083 -0.5005 -0.2422
 5952SOL     OW18754   6.585   0.862   6.534 -0.6141 -0.4787  0.0333
 5952SOL    HW118755   6.646   0.794   6.491 -1.0632 -1.0777  0.3296
 5952SOL    HW218756   6.554   0.927   6.465  0.1943 -0.2854 -0.1626
 5953SOL     OW18757   0.817   5.053   5.146 -0.4949 -0.1228 -0.1263
 5953SOL    HW118758   0.901   5.067   5.199 -1.3334  1.5142  0.8931
 5953SOL    HW218759   0.766   5.139   5.144 -2.9825 -1.4940  0.7882
 5954SOL     OW18760   1.285   6.774   6.120 -0.4637  0.7906 -0.0676
 5954SOL    HW118761   1.299   6.702   6.188 -1.4826 -2.0347 -2.6388
 5954SOL    HW218762   1.189   6.801   6.119 -0.4064  0.9930 -0.2701
 5955SOL     OW18763   4.257   6.610   0.672 -0.6009  0.3614 -0.4559
 5955SOL    HW118764   4.245   6.672   0.750 -0.3273  0.1296 -0.2247
 5955SOL    HW218765   4.346   6.628   0.629 -0.1936 -0.3635  0.0657
 5956SOL     OW18766   2.014   1.694   2.034  0.2744  0.2161 -0.0741
 5956SOL    HW118767   2.021   1.601   2.072  2.3179  0.8454  1.2256
 5956SOL    HW218768   1.959   1.691   1.951 -0.3535 -2.0276  0.3383
 5957SOL     OW18769   4.026   0.882   4.649 -0.0056  0.0045  0.2553
 5957SOL    HW118770   3.980   0.971   4.652  0.3304  0.1554  1.5323
 5957SOL    HW218771   3.958   0.810   4.641 -0.2760  0.3634 -0.8916
 5958SOL     OW18772   1.340   0.321   4.328  0.0972 -0.5596  0.0535
 5958SOL    HW118773   1.312   0.377   4.406 -0.4576 -0.3405 -0.2963
 5958SOL    HW218774   1.325   0.225   4.349 -1.4353 -0.4289 -0.3066
 5959SOL     OW18775   0.720   5.906   4.051 -0.3384  0.3622  0.5467
 5959SOL    HW118776   0.743   5.995   4.090  1.9746 -0.0943  0.3888
 5959SOL    HW218777   0.767   5.834   4.102  0.6335 -0.4616 -1.4206
 5960SOL     OW18778   2.153   4.620   4.830  0.0281  0.4545  0.0060
 5960SOL    HW118779   2.070   4.657   4.872  0.8317  0.6802  1.4221
 5960SOL    HW218780   2.144   4.520   4.821 -1.1475  0.6525 -1.6196
 5961SOL     OW18781   1.231   6.256   4.677  0.0936  0.4519 -0.3533
 5961SOL    HW118782   1.156   6.265   4.743  1.8898  1.0068  1.7130
 5961SOL    HW218783   1.306   6.205   4.718  1.1636  0.5616 -2.0890
 5962SOL     OW18784   5.997   3.527   3.444 -0.2447 -0.3664  0.1951
 5962SOL    HW118785   5.936   3.485   3.376 -1.1514 -0.8872  1.2981
 5962SOL    HW218786   6.078   3.469   3.456  0.9845  0.7735 -1.9335
 5963SOL     OW18787   3.621   4.223   0.820  0.4582 -0.4995 -0.3266
 5963SOL    HW118788   3.599   4.317   0.793 -2.1937 -1.1029 -0.5506
 5963SOL    HW218789   3.599   4.210   0.917 -1.4446 -1.4479 -0.8376
 5964SOL     OW18790   1.273   2.137   6.626 -0.0348  0.0254  0.1241
 5964SOL    HW118791   1.315   2.136   6.535 -1.6616  0.9179 -0.6764
 5964SOL    HW218792   1.314   2.065   6.682  1.5927 -0.0004 -1.0161
 5965SOL     OW18793   3.154   0.173   4.024 -0.2755  0.0840  0.3129
 5965SOL    HW118794   3.079   0.142   3.965 -0.0164  0.1911 -0.0773
 5965SOL    HW218795   3.131   0.153   4.119  0.1131 -1.7873  0.0514
 5966SOL     OW18796   0.260   4.872   2.516  0.0070  0.2501  0.4978
 5966SOL    HW118797   0.315   4.940   2.466  0.6840 -1.0035 -0.5215
 5966SOL    HW218798   0.172   4.861   2.470  0.5469 -0.7469 -0.3415
 5967SOL     OW18799   6.303   4.032   2.226  0.2873  0.1495 -0.0304
 5967SOL    HW118800   6.338   4.120   2.193  0.8270 -0.2274 -0.4615
 5967SOL    HW218801   6.212   4.016   2.187  0.7750 -0.1318 -1.0777
 5968SOL     OW18802   2.725   1.598   3.682 -0.2138 -0.3987  0.7552
 5968SOL    HW118803   2.649   1.545   3.720 -2.8329  2.3903 -0.1514
 5968SOL    HW218804   2.695   1.645   3.599  2.0774  1.9540  1.1160
 5969SOL     OW18805   1.013   3.397   3.297  0.2298 -0.2114 -0.3148
 5969SOL    HW118806   0.966   3.318   3.259  0.9100 -0.4788 -0.6237
 5969SOL    HW218807   1.067   3.442   3.226 -1.2210  1.3750 -0.4834
 5970SOL     OW18808   0.982   4.132   2.210 -0.6233 -0.2581  0.2172
 5970SOL    HW118809   1.052   4.080   2.162  0.1279 -1.0920  2.1272
 5970SOL    HW218810   0.927   4.071   2.267 -0.9909  0.7732  1.0047
 5971SOL     OW18811   2.836   5.248   4.552 -0.1616  0.5751 -0.1681
 5971SOL    HW118812   2.933   5.270   4.562 -0.4480  2.0576 -0.3834
 5971SOL    HW218813   2.795   5.310   4.485 -1.0766 -0.6157 -0.7368
 5972SOL     OW18814   4.725   6.452   3.202  0.1472 -0.0590  0.0350
 5972SOL    HW118815   4.664   6.422   3.129  0.8361  0.4867 -0.7701
 5972SOL    HW218816   4.784   6.375   3.229 -1.8406 -1.0502  1.8500
 5973SOL     OW18817   2.250   5.280   4.124 -0.0464 -0.7544 -0.1075
 5973SOL    HW118818   2.272   5.294   4.028 -0.7247  0.6844 -0.0874
 5973SOL    HW218819   2.186   5.204   4.133 -1.3094  0.1571 -0.9984
 5974SOL     OW18820   0.555   3.758   0.909 -0.0657  0.2063  0.0657
 5974SOL    HW118821   0.545   3.852   0.875 -2.2704  0.6151  1.6163
 5974SOL    HW218822   0.620   3.757   0.984  0.4818  0.3456 -0.3962
 5975SOL     OW18823   1.428   2.499   5.912  0.5900  0.2120  0.0613
 5975SOL    HW118824   1.492   2.554   5.966  0.7562 -0.2331  0.3259
 5975SOL    HW218825   1.434   2.403   5.941 -1.0996  0.3429  0.9606
 5976SOL     OW18826   3.184   2.960   4.693 -0.0244 -0.7111 -0.2755
 5976SOL    HW118827   3.139   3.032   4.745 -1.0142 -0.3070 -1.6366
 5976SOL    HW218828   3.139   2.872   4.713  0.6570 -0.8401  0.7607
 5977SOL     OW18829   2.402   2.410   3.322 -0.9885 -0.0249  0.0053
 5977SOL    HW118830   2.470   2.354   3.370 -2.3325 -1.1649  0.6584
 5977SOL    HW218831   2.447   2.467   3.253  0.7956  0.3891  1.4453
 5978SOL     OW18832   6.465   3.452   2.539 -0.8830  0.2662  0.6212
 5978SOL    HW118833   6.493   3.533   2.590 -0.7461  0.6404 -0.0445
 5978SOL    HW218834   6.367   3.437   2.553 -0.8300  0.3111  1.0645
 5979SOL     OW18835   1.180   1.939   2.723 -0.4978 -0.0419 -0.1021
 5979SOL    HW118836   1.252   2.008   2.730 -0.5324  0.0482 -0.6224
 5979SOL    HW218837   1.101   1.968   2.777 -0.8218  0.7217 -0.9656
 5980SOL     OW18838   6.193   2.486   6.174  0.0929  0.2751 -0.5294
 5980SOL    HW118839   6.210   2.396   6.213 -1.3539  0.6897  1.2110
 5980SOL    HW218840   6.106   2.485   6.125  0.0340  0.7428 -0.4415
 5981SOL     OW18841   4.908   1.316   1.398 -0.2374  0.1506 -0.2981
 5981SOL    HW118842   4.816   1.301   1.437 -0.8305  1.2325 -1.2139
 5981SOL    HW218843   4.902   1.387   1.327  1.2186 -0.1884 -0.7721
 5982SOL     OW18844   0.964   3.746   7.013 -0.4714  0.0830 -0.5457
 5982SOL    HW118845   0.961   3.835   7.059 -0.1436  0.3370 -1.0137
 5982SOL    HW218846   0.930   3.676   7.075 -0.8412  0.5518 -0.2113
 5983SOL     OW18847   0.287   0.778   2.348 -0.5846  0.3025  0.1719
 5983SOL    HW118848   0.357   0.749   2.282 -0.5227  1.4274 -0.2904
 5983SOL    HW218849   0.328   0.843   2.412 -1.2329  1.1192 -0.2195
 5984SOL     OW18850   0.826   5.434   5.994 -0.0727  0.7206 -0.4935
 5984SOL    HW118851   0.811   5.343   5.954 -0.1715  1.7814 -3.0921
 5984SOL    HW218852   0.754   5.453   6.060  0.6702 -1.5499  1.1016
 5985SOL     OW18853   4.848   3.855   4.308 -0.2310 -0.3156 -0.2163
 5985SOL    HW118854   4.830   3.835   4.404 -0.5750  0.8715 -0.0073
 5985SOL    HW218855   4.864   3.770   4.258 -0.9253 -1.0187  0.7132
 5986SOL     OW18856   3.163   3.668   2.164 -0.0489  0.2398 -0.7006
 5986SOL    HW118857   3.145   3.737   2.094 -0.2925  0.2536 -0.6253
 5986SOL    HW218858   3.084   3.662   2.226  1.3145  2.3719  1.4123
 5987SOL     OW18859   3.814   0.952   6.105  0.2414 -0.0267 -0.3834
 5987SOL    HW118860   3.853   1.030   6.056 -1.0472  0.2666 -0.9671
 5987SOL    HW218861   3.759   0.985   6.182  3.1712 -0.4887  2.1233
 5988SOL     OW18862   2.008   5.229   6.890  0.3660  0.1843 -0.4134
 5988SOL    HW118863   1.968   5.137   6.896 -0.2462  0.5075  0.6660
 5988SOL    HW218864   2.075   5.231   6.815 -0.8547 -0.6585 -1.5714
 5989SOL     OW18865   4.582   2.536   6.508 -0.2238 -0.1597 -1.2086
 5989SOL    HW118866   4.485   2.549   6.490 -0.8791  0.5624  2.1324
 5989SOL    HW218867   4.628   2.626   6.508 -0.0158 -0.2633 -0.6216
 5990SOL     OW18868   3.186   6.478   4.689 -0.4058 -0.0328 -0.5474
 5990SOL    HW118869   3.263   6.426   4.654 -0.3955 -0.6922  0.4395
 5990SOL    HW218870   3.171   6.457   4.785 -1.4548  0.5261 -0.5658
 5991SOL     OW18871   6.877   2.964   3.487  0.0189 -0.2915 -0.7992
 5991SOL    HW118872   6.902   2.873   3.455  1.6796 -0.4799  0.8500
 5991SOL    HW218873   6.850   2.959   3.584  1.3947  1.1264 -0.3066
 5992SOL     OW18874   5.685   2.719   4.548  0.0593  0.2606 -0.5366
 5992SOL    HW118875   5.728   2.739   4.636  1.4600  3.2900 -1.7671
 5992SOL    HW218876   5.600   2.771   4.541 -0.8936 -1.2255 -0.4004
 5993SOL     OW18877   3.865   0.206   3.484  0.2239  0.2032 -0.0212
 5993SOL    HW118878   3.873   0.229   3.582  1.2075 -1.7365  0.3915
 5993SOL    HW218879   3.779   0.242   3.449  0.3668  1.9481  1.2542
 5994SOL     OW18880   0.590   3.980   0.344 -0.2390  0.4465 -0.3610
 5994SOL    HW118881   0.527   3.903   0.336 -0.6232  0.7970 -0.7350
 5994SOL    HW218882   0.671   3.962   0.287 -0.5066  0.4956 -0.7599
 5995SOL     OW18883   5.997   2.117   1.846  0.2269 -0.4312  0.1075
 5995SOL    HW118884   5.899   2.102   1.862 -0.4581  1.4385 -1.8591
 5995SOL    HW218885   6.045   2.115   1.934 -1.8591  0.3588  1.3565
 5996SOL     OW18886   6.224   0.393   6.269  0.1338 -0.0451  0.2912
 5996SOL    HW118887   6.272   0.406   6.183  0.4952  1.1800  0.6547
 5996SOL    HW218888   6.290   0.384   6.343 -0.1742 -0.9870  0.4598
 5997SOL     OW18889   5.670   0.887   1.130  0.0274 -0.2743 -0.4036
 5997SOL    HW118890   5.601   0.876   1.058 -0.7346  0.4453  0.1890
 5997SOL    HW218891   5.693   0.798   1.168 -1.9767 -0.4022  0.6513
 5998SOL     OW18892   5.766   2.970   2.729  0.0109  0.5194  0.3555
 5998SOL    HW118893   5.863   2.944   2.724 -0.2742 -0.5084 -0.4298
 5998SOL    HW218894   5.758   3.069   2.723  0.9771  0.5651 -0.6534
 5999SOL     OW18895   2.071   1.923   3.402  0.2693 -0.0873  0.2474
 5999SOL    HW118896   2.135   1.851   3.374  0.3935  0.2787 -0.4126
 5999SOL    HW218897   2.003   1.884   3.464  0.8939 -0.5718  0.6506
 6000SOL     OW18898   6.498   0.110   4.314  0.3139  0.3629  0.1375
 6000SOL    HW118899   6.469   0.092   4.220  1.3117  0.2782 -0.1594
 6000SOL    HW218900   6.598   0.116   4.319  0.3718 -0.9283  1.4026
 6001SOL     OW18901   5.199   0.407   1.215  0.0460  0.1544  0.3235
 6001SOL    HW118902   5.167   0.313   1.200  0.2816  0.2481 -0.7913
 6001SOL    HW218903   5.157   0.442   1.299 -1.7173 -0.2124 -0.3589
 6002SOL     OW18904   3.078   1.257   2.254  0.1609 -0.1238  0.1451
 6002SOL    HW118905   2.990   1.303   2.259  0.0958 -0.1661 -0.5602
 6002SOL    HW218906   3.065   1.161   2.230  0.4683  0.1878 -1.3751
 6003SOL     OW18907   5.705   3.885   3.639 -0.1246  0.0584  0.1154
 6003SOL    HW118908   5.721   3.893   3.541 -0.8746  0.6899  0.0348
 6003SOL    HW218909   5.611   3.853   3.655 -0.2089  0.5469  0.6278
 6004SOL     OW18910   0.253   3.249   3.906  0.4623 -0.1232 -0.1925
 6004SOL    HW118911   0.297   3.172   3.953  1.3439  0.1438 -0.5644
 6004SOL    HW218912   0.211   3.216   3.821 -0.3097 -0.4290  0.2973
 6005SOL     OW18913   1.812   5.366   1.463  0.2462 -0.2523 -0.1278
 6005SOL    HW118914   1.910   5.386   1.464  0.1514  0.2692 -0.6281
 6005SOL    HW218915   1.760   5.451   1.453 -0.1964 -0.6371 -1.3751
 6006SOL     OW18916   3.153   6.343   5.671 -0.2562  0.1337  0.2739
 6006SOL    HW118917   3.188   6.281   5.601 -1.2272 -0.4963  0.3384
 6006SOL    HW218918   3.223   6.358   5.741 -0.1616 -1.2602  0.5080
 6007SOL     OW18919   4.955   3.649   4.759  0.2935  0.5989  0.0899
 6007SOL    HW118920   4.910   3.673   4.845 -0.4650 -2.8393  0.8128
 6007SOL    HW218921   5.055   3.657   4.770  0.2662 -0.7796  1.6859
 6008SOL     OW18922   5.516   3.578   1.499 -0.1387 -0.0684  0.2807
 6008SOL    HW118923   5.614   3.565   1.483 -0.3009  0.7180 -1.5831
 6008SOL    HW218924   5.466   3.501   1.460 -0.3330  0.1417  0.1123
 6009SOL     OW18925   2.951   1.630   5.454  0.0943 -0.0834  1.2169
 6009SOL    HW118926   2.940   1.687   5.373  1.3537 -1.6301 -0.1212
 6009SOL    HW218927   3.022   1.668   5.512  1.6865 -0.7820 -0.1942
 6010SOL     OW18928   1.504   4.484   2.586  0.0014 -0.3371 -0.1120
 6010SOL    HW118929   1.580   4.543   2.559  1.8980 -2.1452  1.0171
 6010SOL    HW218930   1.478   4.503   2.680 -1.4393  0.6995 -0.6777
 6011SOL     OW18931   6.821   3.572   1.401  0.8680  0.4167  0.0897
 6011SOL    HW118932   6.794   3.581   1.305 -0.2838  0.2464  0.3829
 6011SOL    HW218933   6.824   3.663   1.444  1.9709  0.5511 -0.2483
 6012SOL     OW18934   1.433   3.327   1.731  0.0358 -0.1273 -0.0441
 6012SOL    HW118935   1.487   3.398   1.777  1.1982 -0.4474 -0.8830
 6012SOL    HW218936   1.380   3.278   1.800  2.7011 -1.4426  1.2356
 6013SOL     OW18937   5.141   1.797   2.162 -0.0780 -0.1403  1.1337
 6013SOL    HW118938   5.134   1.860   2.084 -1.1181  0.5957  1.7843
 6013SOL    HW218939   5.183   1.712   2.132  0.4286  0.4821 -0.0121
 6014SOL     OW18940   6.534   1.432   0.168  0.0696  0.4992 -0.0675
 6014SOL    HW118941   6.516   1.359   0.233  2.7640  0.2124  0.4819
 6014SOL    HW218942   6.518   1.521   0.212 -3.2388  0.3697 -0.7468
 6015SOL     OW18943   3.480   0.723   4.423 -0.5993 -0.3530  0.0274
 6015SOL    HW118944   3.571   0.765   4.423 -0.6890 -0.1214 -1.1878
 6015SOL    HW218945   3.456   0.697   4.330 -2.2837  0.6626  0.1546
 6016SOL     OW18946   6.622   0.364   5.087 -0.3309  0.3685 -0.0852
 6016SOL    HW118947   6.588   0.454   5.115  1.7635  1.1070  0.2317
 6016SOL    HW218948   6.686   0.375   5.011  0.2301 -0.8191  0.1919
 6017SOL     OW18949   0.259   3.988   2.865 -0.0565 -0.3095  0.0565
 6017SOL    HW118950   0.348   4.034   2.863 -1.0106  1.6605  0.7155
 6017SOL    HW218951   0.245   3.949   2.956  0.4207 -1.2724 -0.2690
 6018SOL     OW18952   2.994   3.090   2.011 -0.4819 -0.2964  0.1604
 6018SOL    HW118953   3.091   3.068   1.995  0.0123  1.9176 -0.1800
 6018SOL    HW218954   2.979   3.104   2.109 -0.0987  0.8405  0.0653
 6019SOL     OW18955   1.228   6.422   2.721  0.7338  0.0438  0.3291
 6019SOL    HW118956   1.130   6.414   2.707  0.0966  3.2991  1.9038
 6019SOL    HW218957   1.262   6.340   2.767 -1.3974 -0.7894  0.5413
 6020SOL     OW18958   0.719   6.864   3.737  0.2221  0.0884  0.3989
 6020SOL    HW118959   0.686   6.871   3.831 -0.0298  0.3932  0.2876
 6020SOL    HW218960   0.761   6.951   3.710  0.6962 -0.1433  0.3811
 6021SOL     OW18961   4.030   6.353   3.608  0.7489 -0.0296 -0.4027
 6021SOL    HW118962   4.067   6.290   3.539  1.4607  0.3357 -0.3557
 6021SOL    HW218963   3.991   6.433   3.562 -1.4988 -1.1379 -0.5716
 6022SOL     OW18964   2.568   3.103   5.607  0.3686  0.0045 -0.2333
 6022SOL    HW118965   2.496   3.086   5.539 -0.3714 -0.3685  0.6276
 6022SOL    HW218966   2.575   3.024   5.668  0.0428  0.8901  0.9991
 6023SOL     OW18967   1.488   1.670   2.531 -0.0336 -0.4044 -0.2179
 6023SOL    HW118968   1.439   1.649   2.615  0.2442  0.1027  0.0768
 6023SOL    HW218969   1.444   1.747   2.484  0.0408 -0.4347 -0.3399
 6024SOL     OW18970   6.223   5.144   1.258  0.4076  0.5014 -0.0387
 6024SOL    HW118971   6.278   5.082   1.202  0.2930 -0.0551  0.4584
 6024SOL    HW218972   6.126   5.129   1.238  0.2515 -1.0423  1.6443
 6025SOL     OW18973   2.596   0.443   2.874 -0.5821 -0.5476  0.5451
 6025SOL    HW118974   2.685   0.403   2.854 -0.0789  0.0490  1.5152
 6025SOL    HW218975   2.594   0.473   2.969 -1.3189  0.7454  0.1373
 6026SOL     OW18976   2.127   4.573   3.686  0.4503 -0.2947  0.2952
 6026SOL    HW118977   2.185   4.607   3.761 -0.4261  0.2536  0.7404
 6026SOL    HW218978   2.048   4.525   3.725  0.2491 -0.4473 -0.2994
 6027SOL     OW18979   3.639   3.907   6.092  0.2257  0.2917 -0.1751
 6027SOL    HW118980   3.651   3.867   6.183 -1.9732 -2.5921 -0.9995
 6027SOL    HW218981   3.676   3.846   6.023  0.0810  1.4766 -1.3453
 6028SOL     OW18982   0.280   4.571   6.903  0.3584 -0.1250 -0.0862
 6028SOL    HW118983   0.236   4.558   6.814  0.2263 -0.6502  0.0500
 6028SOL    HW218984   0.378   4.585   6.891  0.3463 -0.2364 -0.3137
 6029SOL     OW18985   2.081   4.511   0.784  0.2833  0.3477  0.4054
 6029SOL    HW118986   2.083   4.530   0.883 -0.8179  1.2436  0.2801
 6029SOL    HW218987   1.988   4.489   0.757  0.8182 -1.2100 -0.2243
 6030SOL     OW18988   0.661   6.559   2.475 -0.1365  0.0384 -0.3051
 6030SOL    HW118989   0.695   6.515   2.392 -0.6070 -1.5616  0.3075
 6030SOL    HW218990   0.737   6.597   2.527  0.8462 -3.1176  0.8352
 6031SOL     OW18991   4.158   0.899   5.273 -0.3655  0.1952  0.1481
 6031SOL    HW118992   4.060   0.912   5.291 -0.0924  1.7430  0.6561
 6031SOL    HW218993   4.181   0.802   5.284 -1.7384 -0.1127  0.5295
 6032SOL     OW18994   1.603   2.507   1.394 -0.3056 -0.0601 -0.2279
 6032SOL    HW118995   1.646   2.440   1.333  0.8532  0.9652 -0.5597
 6032SOL    HW218996   1.589   2.593   1.345 -3.2917 -0.4893 -0.3119
 6033SOL     OW18997   6.955   0.083   3.795 -0.3730  0.4413 -0.5531
 6033SOL    HW118998   6.949  -0.013   3.768 -2.1527  0.4658 -0.3411
 6033SOL    HW218999   7.051   0.108   3.806  0.1096 -1.4693 -0.0440
 6034SOL     OW19000   2.343   5.799   4.755 -0.2395  0.3322  0.1851
 6034SOL    HW119001   2.305   5.887   4.780  0.4750  0.8729 -0.5906
 6034SOL    HW219002   2.435   5.811   4.718  0.8549 -0.9591  2.2939
 6035SOL     OW19003   5.435   6.689   4.600  0.2451 -0.2933  0.8544
 6035SOL    HW119004   5.385   6.716   4.517  0.3776  0.2775  0.9569
 6035SOL    HW219005   5.514   6.634   4.574  0.5622  0.2938  0.5644
 6036SOL     OW19006   5.386   0.553   5.981  0.2563  0.1954  0.0257
 6036SOL    HW119007   5.366   0.497   5.901 -0.4771 -1.7586  1.4987
 6036SOL    HW219008   5.327   0.526   6.057  1.0244  1.8756  1.3099
 6037SOL     OW19009   0.485   3.890   4.400 -0.0971 -0.2262  0.1002
 6037SOL    HW119010   0.461   3.857   4.309  2.0978 -0.3970 -0.4744
 6037SOL    HW219011   0.402   3.899   4.455 -1.3966 -0.8203 -1.6627
 6038SOL     OW19012   0.500   4.659   5.627 -0.1799 -0.3244  0.3555
 6038SOL    HW119013   0.474   4.566   5.599 -0.3785  0.4130 -2.2073
 6038SOL    HW219014   0.587   4.683   5.584 -1.6405  1.7244 -1.7017
 6039SOL     OW19015   3.761   4.099   3.580 -0.9173 -0.0502 -0.4025
 6039SOL    HW119016   3.758   4.129   3.675  0.4076  0.6205 -0.5457
 6039SOL    HW219017   3.670   4.106   3.540 -1.2924  0.6538  0.5275
 6040SOL     OW19018   1.463   1.040   2.473 -0.0443 -0.3416 -0.5538
 6040SOL    HW119019   1.454   0.947   2.509 -1.3268 -0.1236 -0.2913
 6040SOL    HW219020   1.394   1.099   2.513 -1.9152 -0.1875 -3.6658
 6041SOL     OW19021   6.731   2.292   6.646  0.4447 -0.7369 -0.1784
 6041SOL    HW119022   6.703   2.378   6.603  0.4528 -0.5313  0.2154
 6041SOL    HW219023   6.789   2.313   6.725  1.4724 -1.1434 -0.8021
 6042SOL     OW19024   6.108   4.761   5.271  0.0285 -0.3427 -0.5299
 6042SOL    HW119025   6.116   4.686   5.337  3.2955 -0.8006 -1.2690
 6042SOL    HW219026   6.169   4.744   5.194  2.5435  3.9353  0.1840
 6043SOL     OW19027   0.463   4.871   4.434  0.4861 -0.3063 -0.0399
 6043SOL    HW119028   0.446   4.968   4.453 -0.8854  0.5430 -4.3096
 6043SOL    HW219029   0.545   4.862   4.378 -0.3601 -1.3422 -1.1674
 6044SOL     OW19030   2.499   1.264   6.167  0.1304 -0.0599  0.0223
 6044SOL    HW119031   2.486   1.184   6.108 -3.4250  1.0018 -0.8822
 6044SOL    HW219032   2.486   1.237   6.263  0.3899 -0.8023 -0.1427
 6045SOL     OW19033   4.245   4.734   6.108  0.4623 -0.4891  0.7132
 6045SOL    HW119034   4.148   4.712   6.103  0.5850 -0.7811 -1.0428
 6045SOL    HW219035   4.281   4.708   6.198 -0.2869 -3.8188  0.1919
 6046SOL     OW19036   5.381   5.764   6.579 -0.1303  0.5151  0.0780
 6046SOL    HW119037   5.306   5.739   6.518  1.1748  0.6954 -1.6950
 6046SOL    HW219038   5.358   5.739   6.673 -0.8735 -3.0589 -0.8904
 6047SOL     OW19039   1.862   6.694   5.733  0.4149 -0.7076  0.1090
 6047SOL    HW119040   1.817   6.734   5.812 -2.3617 -0.6160 -1.3997
 6047SOL    HW219041   1.948   6.650   5.762 -1.1292 -1.8817  3.3829
 6048SOL     OW19042   3.091   5.838   3.306 -0.1908  0.4396  0.4446
 6048SOL    HW119043   3.021   5.826   3.236 -0.5292  0.2935  0.8122
 6048SOL    HW219044   3.059   5.904   3.374 -0.0751  0.1722  0.7548
 6049SOL     OW19045   1.758   5.761   6.292 -0.5439  0.2081  0.2501
 6049SOL    HW119046   1.857   5.766   6.283 -0.4496  0.3113  1.2236
 6049SOL    HW219047   1.722   5.849   6.321 -0.7362 -0.2275  1.3811
 6050SOL     OW19048   4.542   4.867   5.610  0.8666  0.2781 -0.2850
 6050SOL    HW119049   4.625   4.888   5.558  1.5931  1.5209  1.3015
 6050SOL    HW219050   4.494   4.952   5.632 -2.2419 -0.4705 -3.2204
 6051SOL     OW19051   2.035   2.388   2.666 -0.1840  0.1284  0.6617
 6051SOL    HW119052   2.071   2.442   2.742 -1.2780  1.8401  0.0255
 6051SOL    HW219053   1.938   2.370   2.680  0.1887 -1.8980  0.9430
 6052SOL     OW19054   1.659   2.051   6.787 -0.5886  0.1908 -0.1648
 6052SOL    HW119055   1.649   2.145   6.819 -1.4116 -0.3122  1.1475
 6052SOL    HW219056   1.571   2.003   6.795 -0.4395 -0.4252 -1.7559
 6053SOL     OW19057   1.419   5.841   6.056 -0.5227 -0.3678  0.4563
 6053SOL    HW119058   1.507   5.792   6.054  0.1521  0.7980 -0.8678
 6053SOL    HW219059   1.350   5.787   6.008  0.0651 -0.3295 -0.4789
 6054SOL     OW19060   1.010   4.101   6.144 -0.0769  0.0832 -0.5471
 6054SOL    HW119061   0.959   4.166   6.201  0.4472  1.3632 -1.5076
 6054SOL    HW219062   0.970   4.097   6.053  1.2116  0.7234 -1.1611
 6055SOL     OW19063   6.126   5.556   3.087 -0.0172  0.2534 -0.2193
 6055SOL    HW119064   6.097   5.499   3.164 -0.1244  0.5852 -0.0053
 6055SOL    HW219065   6.069   5.538   3.008 -0.2333  0.2682 -0.0666
 6056SOL     OW19066   4.070   2.535   5.970 -0.1330  0.6167 -0.0708
 6056SOL    HW119067   4.154   2.502   6.011 -1.5648 -1.1547  1.6115
 6056SOL    HW219068   4.027   2.603   6.030 -0.2482  1.0382 -0.6095
 6057SOL     OW19069   5.527   0.491   6.816 -0.6693 -0.0836 -0.1238
 6057SOL    HW119070   5.510   0.496   6.717 -0.5375 -0.2913 -0.1593
 6057SOL    HW219071   5.511   0.580   6.857  0.6504  0.3721 -0.5553
 6058SOL     OW19072   5.179   1.256   6.484 -0.1027 -0.8070  0.1642
 6058SOL    HW119073   5.210   1.280   6.576  1.9281 -1.8251 -0.2103
 6058SOL    HW219074   5.126   1.171   6.488  0.2048 -0.9908  0.3514
 6059SOL     OW19075   6.830   6.771   0.283  0.4112 -0.1931  0.2881
 6059SOL    HW119076   6.805   6.726   0.369 -0.2195 -0.9296 -0.2661
 6059SOL    HW219077   6.863   6.703   0.218 -0.9937  0.0445 -0.7238
 6060SOL     OW19078   5.048   6.139   5.350  0.2785  0.0852 -0.0372
 6060SOL    HW119079   5.099   6.064   5.392  1.2866  1.8014  2.0490
 6060SOL    HW219080   5.046   6.128   5.251  2.0865 -1.6482  0.0686
 6061SOL     OW19081   1.401   1.931   6.762  0.0731  0.2165 -0.1468
 6061SOL    HW119082   1.424   1.908   6.668  3.7697 -0.0094  0.6444
 6061SOL    HW219083   1.392   1.847   6.816  0.2395  0.3855  0.1491
 6062SOL     OW19084   0.873   5.680   3.278  0.1433  0.6083  0.0205
 6062SOL    HW119085   0.863   5.727   3.366  0.8642  1.3879 -0.2998
 6062SOL    HW219086   0.960   5.706   3.236 -0.2475  0.3534 -0.9794
 6063SOL     OW19087   5.950   0.467   5.586  0.1653  0.2632 -0.4764
 6063SOL    HW119088   6.006   0.524   5.526  1.5790 -0.6684 -0.1130
 6063SOL    HW219089   5.971   0.370   5.569  0.8647 -0.0356  1.6899
 6064SOL     OW19090   1.382   5.779   2.206  0.4347 -0.3965 -0.3268
 6064SOL    HW119091   1.450   5.850   2.229  0.5495 -0.8017  0.6238
 6064SOL    HW219092   1.329   5.809   2.126  1.0698  0.3666 -0.4804
 6065SOL     OW19093   5.019   0.631   0.773 -0.3915  0.1603  0.1328
 6065SOL    HW119094   4.945   0.563   0.768 -0.0571 -0.1553 -0.6867
 6065SOL    HW219095   5.026   0.665   0.866 -1.0118 -0.4350  0.4094
 6066SOL     OW19096   5.647   2.092   1.706  0.1857 -0.2473 -0.7764
 6066SOL    HW119097   5.551   2.118   1.708  0.7944  2.1266 -0.1420
 6066SOL    HW219098   5.683   2.105   1.614 -0.4112 -2.6049 -1.4117
 6067SOL     OW19099   5.281   0.838   1.182  0.1655 -0.6259  0.4576
 6067SOL    HW119100   5.360   0.853   1.121 -1.0011 -1.1496 -1.2675
 6067SOL    HW219101   5.305   0.770   1.251  1.8938  0.7963  1.3691
 6068SOL     OW19102   5.125   2.266   5.403 -0.4990 -0.2646 -0.3406
 6068SOL    HW119103   5.121   2.263   5.303  1.2002  0.2460 -0.4586
 6068SOL    HW219104   5.211   2.309   5.431 -0.9789 -0.3502  1.3506
 6069SOL     OW19105   6.757   3.678   3.077  0.5924 -1.0633 -0.1392
 6069SOL    HW119106   6.722   3.635   3.160 -4.4233 -0.2041 -1.4841
 6069SOL    HW219107   6.777   3.774   3.095 -0.5295 -0.8636  0.1262
 6070SOL     OW19108   0.540   3.014   2.231 -0.4514 -0.4578 -0.4063
 6070SOL    HW119109   0.631   3.032   2.268 -0.8321 -0.6689  0.6590
 6070SOL    HW219110   0.503   2.931   2.272 -2.2285  1.0592  1.2798
 6071SOL     OW19111   0.196   2.909   6.622 -0.0390  0.2136 -0.1049
 6071SOL    HW119112   0.265   2.965   6.576  1.2439  0.7836  2.3196
 6071SOL    HW219113   0.229   2.815   6.630 -0.9473 -0.2718 -1.6434
 6072SOL     OW19114   5.816   2.420   1.726 -0.4307 -0.2449 -0.4761
 6072SOL    HW119115   5.806   2.506   1.678 -1.3250 -0.0546  0.0279
 6072SOL    HW219116   5.787   2.344   1.667  0.3907 -0.2179 -0.9305
 6073SOL     OW19117   5.535   1.006   1.694  0.2523  0.6949  0.4733
 6073SOL    HW119118   5.455   1.010   1.634  0.9488  0.7078 -0.4774
 6073SOL    HW219119   5.505   0.994   1.788 -0.9002  1.6295  0.2461
 6074SOL     OW19120   2.135   2.531   4.499  0.4491  0.4725 -0.1042
 6074SOL    HW119121   2.221   2.481   4.517  1.3985  2.4088  1.0576
 6074SOL    HW219122   2.105   2.512   4.406  1.3857 -1.3187 -0.1019
 6075SOL     OW19123   5.504   0.785   4.917  0.4189  0.0141  0.4236
 6075SOL    HW119124   5.523   0.697   4.873  1.1542  0.7315 -0.7382
 6075SOL    HW219125   5.585   0.815   4.967  0.3331  0.2516  0.4216
 6076SOL     OW19126   3.554   1.952   4.321 -0.4600 -0.4893  0.4589
 6076SOL    HW119127   3.547   1.898   4.237  0.2127  0.1865 -0.0446
 6076SOL    HW219128   3.500   2.036   4.312 -0.8818 -0.7025  0.9457
 6077SOL     OW19129   4.371   6.190   2.463  0.0609  0.1469 -0.2954
 6077SOL    HW119130   4.432   6.194   2.542 -1.6732 -2.0289  1.2723
 6077SOL    HW219131   4.395   6.110   2.407 -2.6179 -2.2038  1.6333
 6078SOL     OW19132   0.760   6.145   4.141 -0.2320 -0.3534 -0.4764
 6078SOL    HW119133   0.738   6.218   4.077  3.3019  1.0537 -0.3258
 6078SOL    HW219134   0.718   6.164   4.230 -1.8462 -0.1863 -1.2523
 6079SOL     OW19135   3.167   2.114   1.865 -0.4557  0.4655 -0.9178
 6079SOL    HW119136   3.139   2.151   1.777  0.5613 -0.2404 -1.5665
 6079SOL    HW219137   3.096   2.132   1.933 -0.2515  3.1097 -1.2942
 6080SOL     OW19138   6.580   3.279   5.105  0.0386 -0.2477  0.2027
 6080SOL    HW119139   6.653   3.230   5.056  0.3599  1.1694 -0.7839
 6080SOL    HW219140   6.499   3.221   5.111  0.8777 -1.4360  0.3466
 6081SOL     OW19141   1.423   3.884   1.660  0.5796  0.2840 -0.5101
 6081SOL    HW119142   1.439   3.981   1.644  0.7353  0.3428 -0.0111
 6081SOL    HW219143   1.507   3.833   1.641  1.3861  0.5674  1.8863
 6082SOL     OW19144   5.254   2.264   6.579 -0.6962  0.0066  0.2225
 6082SOL    HW119145   5.224   2.310   6.662  0.1858 -1.4419  1.3788
 6082SOL    HW219146   5.185   2.196   6.551 -0.2101 -0.7350  0.7883
 6083SOL     OW19147   6.273   5.958   0.929  0.8582  0.5425 -1.0489
 6083SOL    HW119148   6.228   6.043   0.956 -1.4983 -1.1726  0.8592
 6083SOL    HW219149   6.368   5.958   0.963 -0.0399  1.2114  1.7402
 6084SOL     OW19150   5.604   0.916   6.104  0.4152  0.1512  0.6068
 6084SOL    HW119151   5.671   0.987   6.127  2.4270 -1.8419  1.2385
 6084SOL    HW219152   5.644   0.854   6.036 -1.1023 -0.6791  0.4357
 6085SOL     OW19153   5.686   5.083   2.826  0.7340 -0.1721 -0.2382
 6085SOL    HW119154   5.668   5.069   2.923 -0.5089  1.4677 -0.1897
 6085SOL    HW219155   5.784   5.100   2.813  1.0998 -1.5541  0.5530
 6086SOL     OW19156   2.795   2.165   1.064  0.0290  0.0572 -0.2008
 6086SOL    HW119157   2.816   2.251   1.111 -0.7924  1.1382 -1.7367
 6086SOL    HW219158   2.879   2.127   1.025  0.2626  0.6403 -0.2766
 6087SOL     OW19159   3.360   0.678   1.837  0.0533  0.4441  0.0557
 6087SOL    HW119160   3.338   0.655   1.743  1.9702 -0.9406 -0.1267
 6087SOL    HW219161   3.382   0.775   1.844  0.3633  0.4611 -1.0389
 6088SOL     OW19162   0.159   1.036   4.238  0.4489 -0.2116 -0.0202
 6088SOL    HW119163   0.110   1.056   4.153 -0.5573 -1.8564  0.1161
 6088SOL    HW219164   0.164   0.937   4.251  2.4250 -0.0456  0.8233
 6089SOL     OW19165   0.369   4.238   0.836  0.0072 -1.1250 -0.0310
 6089SOL    HW119166   0.393   4.243   0.933 -0.3865  2.6529  0.0486
 6089SOL    HW219167   0.270   4.222   0.827 -0.0196 -1.0964  0.2113
 6090SOL     OW19168   0.923   6.538   6.294  0.3960  0.6692 -0.0297
 6090SOL    HW119169   1.020   6.543   6.268  0.6841 -1.5231  0.3706
 6090SOL    HW219170   0.874   6.481   6.228  0.0033 -0.5192  1.2373
 6091SOL     OW19171   6.788   2.058   1.341 -0.0885 -0.3593  0.2683
 6091SOL    HW119172   6.766   2.155   1.349 -1.4091 -0.5451 -0.8211
 6091SOL    HW219173   6.815   2.037   1.248 -1.3473 -1.3055  0.0831
 6092SOL     OW19174   6.373   4.616   0.339  0.2674  0.2174 -0.0713
 6092SOL    HW119175   6.323   4.702   0.329 -1.7482 -1.0458 -1.5869
 6092SOL    HW219176   6.363   4.562   0.256  0.1408 -2.1540  1.4135
 6093SOL     OW19177   1.832   5.056   5.778 -0.2316  0.5220 -0.2504
 6093SOL    HW119178   1.832   5.026   5.683 -1.2536 -3.0763  0.7200
 6093SOL    HW219179   1.878   4.987   5.835 -0.1975  2.2459  1.9664
 6094SOL     OW19180   0.738   1.038   6.405  0.3428 -0.2101  0.3735
 6094SOL    HW119181   0.674   0.986   6.462  0.6410  0.2628  1.1649
 6094SOL    HW219182   0.689   1.078   6.328 -0.2791 -0.0195  0.8587
 6095SOL     OW19183   0.680   4.099   5.621  0.2209  0.1341  0.4303
 6095SOL    HW119184   0.616   4.053   5.683  1.7898 -2.5911  0.1437
 6095SOL    HW219185   0.756   4.039   5.600  0.3823  1.3734 -3.2431
 6096SOL     OW19186   4.843   0.987   5.800  0.1990 -0.0214 -0.0573
 6096SOL    HW119187   4.940   1.006   5.782  0.5481 -0.7425  1.0269
 6096SOL    HW219188   4.834   0.938   5.886 -1.0551 -0.8686 -0.6522
 6097SOL     OW19189   3.962   1.598   3.232 -0.4039 -0.3423  0.6897
 6097SOL    HW119190   4.042   1.608   3.291 -0.7867 -0.0864  1.1786
 6097SOL    HW219191   3.948   1.502   3.209 -1.7885 -0.8408  3.2287
 6098SOL     OW19192   6.295   1.809   6.771  0.1894  0.1215 -0.3886
 6098SOL    HW119193   6.355   1.740   6.731  0.8189 -0.3179  1.2354
 6098SOL    HW219194   6.201   1.774   6.773  0.5019 -0.7162  0.4166
 6099SOL     OW19195   5.135   4.428   5.300  0.1575 -0.1180 -0.0747
 6099SOL    HW119196   5.170   4.494   5.235  1.3111 -1.5702 -0.9942
 6099SOL    HW219197   5.203   4.411   5.371 -0.2228 -0.1455  0.2854
 6100SOL     OW19198   0.872   1.622   0.522 -0.0795  0.2205 -0.0838
 6100SOL    HW119199   0.847   1.714   0.492  1.0271  0.8759  0.9213
 6100SOL    HW219200   0.806   1.590   0.589  0.3546  0.9223  0.6978
 6101SOL     OW19201   6.560   0.604   2.301 -0.3408  0.0591  0.8140
 6101SOL    HW119202   6.469   0.614   2.262 -0.2428 -1.2769  0.2044
 6101SOL    HW219203   6.628   0.610   2.228  0.1685  2.1291  1.3903
 6102SOL     OW19204   2.103   6.309   3.947 -0.0308 -0.0561  0.1325
 6102SOL    HW119205   2.170   6.242   3.916 -0.1595 -0.2031  0.1735
 6102SOL    HW219206   2.125   6.337   4.040  1.5953  1.9387 -0.7584
 6103SOL     OW19207   6.803   0.962   3.822 -0.6046 -0.4693  0.3693
 6103SOL    HW119208   6.749   0.925   3.746  2.3970 -1.3017 -1.5509
 6103SOL    HW219209   6.901   0.951   3.802  0.3653  1.0580  3.5466
 6104SOL     OW19210   3.344   3.094   0.362 -0.5883  0.6203  0.2994
 6104SOL    HW119211   3.275   3.115   0.293  0.8297 -0.6910 -1.6390
 6104SOL    HW219212   3.350   2.994   0.374  2.1500  0.5223 -0.9919
 6105SOL     OW19213   3.747   5.732   3.402 -0.1715  0.2673 -0.7597
 6105SOL    HW119214   3.663   5.687   3.432 -1.6607  2.6162 -1.1883
 6105SOL    HW219215   3.810   5.740   3.479  0.1162 -2.2817 -0.6207
 6106SOL     OW19216   1.648   5.018   4.230 -0.3802  0.1450  0.5584
 6106SOL    HW119217   1.711   4.959   4.280  1.1610  1.8534  0.7761
 6106SOL    HW219218   1.565   5.033   4.284 -0.6918 -1.5713  0.5928
 6107SOL     OW19219   1.982   6.083   4.563  0.3540 -0.2354  0.3041
 6107SOL    HW119220   2.077   6.083   4.531  0.5019 -0.7409  0.7350
 6107SOL    HW219221   1.939   6.170   4.538  1.2722  0.4749  1.0977
 6108SOL     OW19222   5.442   1.405   3.991  0.9407  0.1459  0.2240
 6108SOL    HW119223   5.450   1.460   4.074 -0.0916  0.3961  0.1634
 6108SOL    HW219224   5.387   1.454   3.924  0.2967 -0.8085  0.0382
 6109SOL     OW19225   1.817   3.224   6.529 -0.3617 -0.1142 -0.2018
 6109SOL    HW119226   1.768   3.148   6.486 -1.5677  0.5421 -0.0407
 6109SOL    HW219227   1.782   3.311   6.493 -0.5747  0.4166  1.2381
 6110SOL     OW19228   5.014   0.302   2.418 -0.2244 -0.7465  0.1486
 6110SOL    HW119229   5.081   0.269   2.484  1.4406  0.7589 -0.6976
 6110SOL    HW219230   4.970   0.385   2.452  0.7779  0.1457 -0.6457
 6111SOL     OW19231   1.112   6.663   4.495  0.0285 -0.3020  0.1230
 6111SOL    HW119232   1.064   6.713   4.423 -0.6643 -1.6249 -0.3686
 6111SOL    HW219233   1.059   6.669   4.580  0.8398  1.2484  0.5553
 6112SOL     OW19234   1.916   6.287   0.423  0.1344 -0.2077  0.0562
 6112SOL    HW119235   1.978   6.360   0.449 -0.2482  0.0832  0.1653
 6112SOL    HW219236   1.844   6.278   0.492  0.0695 -0.5596 -0.0535
 6113SOL     OW19237   1.662   4.147   5.812 -0.6865  0.2756  0.3006
 6113SOL    HW119238   1.577   4.179   5.769 -0.2766  0.9549 -0.0149
 6113SOL    HW219239   1.739   4.199   5.777  0.3079 -2.3182 -1.7153
 6114SOL     OW19240   3.973   3.149   1.869  0.3115 -0.0087 -0.3104
 6114SOL    HW119241   4.026   3.229   1.897 -2.2471  1.3745  1.0573
 6114SOL    HW219242   3.953   3.093   1.949  1.2170 -1.5282 -1.1021
 6115SOL     OW19243   6.940   2.457   2.267 -0.9466 -0.0037 -0.6350
 6115SOL    HW119244   6.943   2.371   2.216  0.7713  0.4344 -1.3582
 6115SOL    HW219245   6.845   2.481   2.286 -1.4385 -2.7376  0.8205
 6116SOL     OW19246   5.323   3.672   2.630  0.3652  0.4355 -0.3117
 6116SOL    HW119247   5.356   3.701   2.719 -0.1730 -0.6649  0.2671
 6116SOL    HW219248   5.328   3.572   2.623  1.0042  0.5474 -1.7636
 6117SOL     OW19249   5.721   4.730   3.843 -0.1200  0.2185  0.6376
 6117SOL    HW119250   5.691   4.818   3.808 -0.2308  0.7918  2.1083
 6117SOL    HW219251   5.767   4.743   3.931  0.1022 -1.1622  0.7453
 6118SOL     OW19252   0.306   0.679   3.436  0.2096  0.4018 -0.5429
 6118SOL    HW119253   0.314   0.580   3.433 -0.4947  0.3692 -1.7255
 6118SOL    HW219254   0.381   0.721   3.386  0.9780  0.5061  0.6625
 6119SOL     OW19255   6.909   5.924   4.915  0.7235 -0.6488  0.2338
 6119SOL    HW119256   6.845   5.847   4.904  1.8196 -1.7773  1.3539
 6119SOL    HW219257   6.858   6.010   4.917 -0.4552 -1.2195 -2.0845
 6120SOL     OW19258   3.864   1.470   1.662  0.0241 -0.7480  0.0149
 6120SOL    HW119259   3.772   1.485   1.697 -0.0456 -1.3181  0.0861
 6120SOL    HW219260   3.863   1.397   1.594  0.8049 -2.5597  1.8626
 6121SOL     OW19261   0.471   2.010   3.259  0.4171  0.2723  0.0214
 6121SOL    HW119262   0.388   1.956   3.276  1.6144 -2.1169 -1.2016
 6121SOL    HW219263   0.519   2.025   3.345  1.3616 -3.0182  0.1986
 6122SOL     OW19264   3.024   6.768   4.889  0.1424  0.3264  0.0242
 6122SOL    HW119265   3.100   6.780   4.953  0.0260 -0.4964  0.3304
 6122SOL    HW219266   3.048   6.808   4.800  1.7603 -1.6682 -0.5029
 6123SOL     OW19267   6.683   1.263   3.402  0.4890  0.7252 -0.5062
 6123SOL    HW119268   6.624   1.307   3.335 -0.4495 -0.9765 -0.8550
 6123SOL    HW219269   6.714   1.175   3.366 -0.3352 -0.4088  1.3917
 6124SOL     OW19270   2.087   0.809   5.019 -0.5576 -0.0612  0.2463
 6124SOL    HW119271   2.014   0.836   5.082 -2.0573 -1.2216 -0.8880
 6124SOL    HW219272   2.052   0.813   4.925  1.3650  0.8631 -0.4938
 6125SOL     OW19273   0.914   5.571   3.899  0.5581 -0.1339  0.2498
 6125SOL    HW119274   0.966   5.510   3.959  0.5789  1.7547  2.2916
 6125SOL    HW219275   0.920   5.665   3.933 -1.0879  0.7507 -1.6399
 6126SOL     OW19276   2.357   6.819   3.200 -0.1479  0.6047 -0.6831
 6126SOL    HW119277   2.275   6.855   3.157 -1.3700  2.0751  2.5137
 6126SOL    HW219278   2.348   6.720   3.213 -1.8713  0.8710  0.4113
 6127SOL     OW19279   2.279   5.178   0.602 -0.1228 -0.6736  0.0119
 6127SOL    HW119280   2.228   5.242   0.545  0.5290 -0.4815 -0.3686
 6127SOL    HW219281   2.314   5.104   0.544  2.5020  0.7083 -0.3255
 6128SOL     OW19282   0.815   3.540   2.513 -0.3451 -1.0388  0.1116
 6128SOL    HW119283   0.767   3.625   2.533  4.2560  1.3522  2.7842
 6128SOL    HW219284   0.846   3.542   2.417  1.7592  1.7236  0.7164
 6129SOL     OW19285   6.723   4.451   4.726  0.3839  0.9789  0.0453
 6129SOL    HW119286   6.674   4.457   4.640  1.8669 -3.9277 -1.4771
 6129SOL    HW219287   6.822   4.448   4.708  0.7196 -0.4899  1.8165
 6130SOL     OW19288   6.507   2.948   2.492 -0.0094 -0.3883  0.0043
 6130SOL    HW119289   6.588   2.976   2.440 -1.3622 -2.4178 -3.5362
 6130SOL    HW219290   6.450   3.029   2.508  0.4129  0.3560 -1.8830
 6131SOL     OW19291   0.650   0.726   6.341 -0.2912 -0.2922  0.0807
 6131SOL    HW119292   0.695   0.644   6.377 -0.5549 -0.7759 -0.6504
 6131SOL    HW219293   0.614   0.780   6.416 -0.4364 -1.0404  0.5657
 6132SOL     OW19294   6.426   3.571   1.439  0.1388 -0.1073  0.0727
 6132SOL    HW119295   6.451   3.479   1.408  1.5136 -0.0553  0.9633
 6132SOL    HW219296   6.479   3.639   1.388 -3.5165  0.5665 -3.3870
 6133SOL     OW19297   1.128   5.640   6.727  0.3783  0.1558  0.3247
 6133SOL    HW119298   1.098   5.646   6.822  0.1047  1.9039  0.1612
 6133SOL    HW219299   1.052   5.606   6.670  0.9874 -2.3093  0.8922
 6134SOL     OW19300   5.237   4.374   5.910  0.3022 -0.3503 -0.6086
 6134SOL    HW119301   5.215   4.436   5.835  0.8598  0.3278 -0.2369
 6134SOL    HW219302   5.253   4.282   5.875 -0.5859 -0.3009 -1.1667
 6135SOL     OW19303   3.506   6.521   2.226  0.0423 -0.7850  0.4637
 6135SOL    HW119304   3.578   6.451   2.221  0.4594 -0.2726 -1.1569
 6135SOL    HW219305   3.514   6.583   2.149 -0.9925  0.4358  1.3013
 6136SOL     OW19306   1.558   1.988   1.370  0.7642 -0.0688  0.3825
 6136SOL    HW119307   1.506   1.903   1.356 -2.1004  1.6418 -0.1167
 6136SOL    HW219308   1.639   1.987   1.311 -1.3299 -0.8174 -2.7337
 6137SOL     OW19309   3.033   6.264   6.407 -0.1627 -0.4120 -0.0368
 6137SOL    HW119310   3.034   6.181   6.352  0.1252  0.0021 -0.6664
 6137SOL    HW219311   2.949   6.314   6.390  0.7215  0.6472 -1.5421
 6138SOL     OW19312   4.970   6.542   3.089  0.5396 -0.4641 -0.0846
 6138SOL    HW119313   4.876   6.523   3.118  0.7798 -2.6080 -0.4803
 6138SOL    HW219314   4.970   6.605   3.012 -0.6178 -0.7855 -0.3620
 6139SOL     OW19315   5.153   5.732   4.386 -0.4096 -0.3092  0.0256
 6139SOL    HW119316   5.103   5.649   4.363  0.9406 -1.2027  0.1811
 6139SOL    HW219317   5.217   5.753   4.312 -0.7253  0.5936 -0.0023
 6140SOL     OW19318   1.065   6.318   0.516  0.4458  0.0737  0.6170
 6140SOL    HW119319   1.040   6.360   0.604 -0.1650 -0.4981  0.7223
 6140SOL    HW219320   1.034   6.223   0.515  1.5397 -0.2824  0.2543
 6141SOL     OW19321   0.097   4.994   3.954 -0.6130  0.1052  0.4939
 6141SOL    HW119322   0.017   4.940   3.979 -0.4148  0.1691  1.3084
 6141SOL    HW219323   0.071   5.091   3.948 -0.7469  0.0432  0.0531
 6142SOL     OW19324   6.321   3.752   3.475  0.4025  0.0762  0.3958
 6142SOL    HW119325   6.225   3.775   3.458  0.1293 -0.9658  0.4696
 6142SOL    HW219326   6.331   3.713   3.566  0.6925 -0.9010 -0.0393
 6143SOL     OW19327   5.137   5.753   6.160 -0.2845 -0.6309  0.3328
 6143SOL    HW119328   5.134   5.715   6.253 -0.4764  0.0214  0.6035
 6143SOL    HW219329   5.085   5.695   6.098 -0.0078 -1.1695  0.5934
 6144SOL     OW19330   5.705   6.256   5.004  0.1791 -0.7114 -0.3582
 6144SOL    HW119331   5.643   6.233   5.079  1.8634 -1.1719  0.9633
 6144SOL    HW219332   5.737   6.171   4.961  1.1399 -0.5522  0.0390
 6145SOL     OW19333   0.030   4.620   4.370  0.8307  0.5677 -0.0961
 6145SOL    HW119334   0.031   4.531   4.326  2.2561  0.8364 -0.6372
 6145SOL    HW219335   0.108   4.674   4.339 -0.6822  2.4819 -0.7380
 6146SOL     OW19336   5.005   2.810   4.013 -0.4408 -0.6335 -0.8365
 6146SOL    HW119337   5.001   2.714   4.041 -0.7522 -0.7370 -1.2197
 6146SOL    HW219338   4.973   2.818   3.918 -1.9287  0.0439 -0.3202
 6147SOL     OW19339   7.010   5.589   5.609  0.0745 -0.5018 -0.2103
 6147SOL    HW119340   6.915   5.617   5.621 -0.3122 -0.0301 -3.4557
 6147SOL    HW219341   7.024   5.500   5.653 -1.6157 -0.2061  1.0301
 6148SOL     OW19342   5.247   6.789   4.425 -0.1622 -0.6373 -0.3371
 6148SOL    HW119343   5.270   6.779   4.328  1.5352 -0.1862 -0.0289
 6148SOL    HW219344   5.257   6.885   4.452  2.9797 -1.2074  1.0227
 6149SOL     OW19345   6.060   5.662   4.413  0.6056  0.7694  0.1260
 6149SOL    HW119346   6.031   5.571   4.382  0.0580  0.8774  0.3035
 6149SOL    HW219347   6.018   5.732   4.355  0.4577  0.9299  0.4211
 6150SOL     OW19348   4.913   0.531   0.133 -0.4283 -0.2505  0.4295
 6150SOL    HW119349   4.922   0.594   0.056  0.9028 -2.8027 -1.6907
 6150SOL    HW219350   4.816   0.516   0.152 -0.8188 -0.2004 -1.3614
 6151SOL     OW19351   4.777   2.077   4.282 -0.1393 -0.2665  0.1542
 6151SOL    HW119352   4.725   2.076   4.368 -0.9728 -1.9482 -0.3367
 6151SOL    HW219353   4.845   2.004   4.283  0.2673  0.0963 -0.3774
 6152SOL     OW19354   0.003   3.203   5.080  0.0843  0.1940 -0.6987
 6152SOL    HW119355   0.027   3.217   5.176  1.5267  1.2205 -1.1822
 6152SOL    HW219356  -0.087   3.158   5.074  0.9255 -1.9113  1.1516
 6153SOL     OW19357   3.728   5.364   4.572  0.1827  0.7911 -0.3045
 6153SOL    HW119358   3.653   5.317   4.618  0.6458  0.2676 -0.0844
 6153SOL    HW219359   3.690   5.436   4.513 -0.4096  1.4675  0.8710
 6154SOL     OW19360   6.357   3.042   4.797  0.6747 -0.0977 -0.4621
 6154SOL    HW119361   6.395   3.130   4.769 -2.1060  0.5618 -2.5876
 6154SOL    HW219362   6.388   2.971   4.734 -0.4360  0.1909 -1.3624
 6155SOL     OW19363   3.588   5.187   4.377  0.9337 -0.5266  0.0020
 6155SOL    HW119364   3.538   5.252   4.434  0.1705 -1.3069  0.2426
 6155SOL    HW219365   3.580   5.212   4.281  0.9192 -0.0874  0.1177
 6156SOL     OW19366   6.422   6.134   3.008 -0.5548 -0.1593 -0.1682
 6156SOL    HW119367   6.501   6.192   2.988 -0.3480 -0.1934  0.5140
 6156SOL    HW219368   6.346   6.192   3.039 -0.0521 -0.3001  1.4303
 6157SOL     OW19369   2.820   0.219   3.130 -0.0891 -0.3436  0.0589
 6157SOL    HW119370   2.733   0.226   3.081 -0.0288 -3.4477 -0.6557
 6157SOL    HW219371   2.896   0.234   3.066  0.0032  1.5662  0.5278
 6158SOL     OW19372   3.287   5.319   5.946  0.5638  0.0249  0.4309
 6158SOL    HW119373   3.323   5.398   5.996  1.5445 -0.8604  1.1761
 6158SOL    HW219374   3.330   5.315   5.855 -1.3223  1.7127 -0.6181
 6159SOL     OW19375   4.684   2.949   0.158  0.1795 -0.2488 -0.2900
 6159SOL    HW119376   4.662   3.043   0.184  0.9847  0.0511 -0.6816
 6159SOL    HW219377   4.705   2.896   0.241  0.8352  0.2093 -0.1561
 6160SOL     OW19378   6.351   4.603   6.857  0.2122  0.9160  0.1844
 6160SOL    HW119379   6.418   4.584   6.785 -0.4359 -0.6024 -0.0495
 6160SOL    HW219380   6.272   4.650   6.816  0.2623  0.9219  0.0922
 6161SOL     OW19381   4.455   0.812   6.203  0.2898  0.1749  0.2540
 6161SOL    HW119382   4.395   0.777   6.275  0.6731 -2.6911 -0.6844
 6161SOL    HW219383   4.550   0.791   6.225  0.3741 -1.2621 -1.2733
 6162SOL     OW19384   6.380   4.906   1.975 -0.1899 -0.6667 -0.0370
 6162SOL    HW119385   6.331   4.931   1.891 -0.3966  1.1090  0.5751
 6162SOL    HW219386   6.351   4.815   2.005 -1.4512 -0.5684 -0.9025
 6163SOL     OW19387   1.448   4.422   3.510 -0.3512 -0.4066 -0.0520
 6163SOL    HW119388   1.484   4.333   3.535  0.7142 -0.0563 -0.2725
 6163SOL    HW219389   1.451   4.432   3.410  0.4102  0.2189  0.0244
 6164SOL     OW19390   5.929   3.795   0.890  0.3000 -0.2370 -0.6326
 6164SOL    HW119391   5.845   3.839   0.923  1.8296  1.7310  0.9403
 6164SOL    HW219392   5.942   3.815   0.793 -0.7279 -0.0092 -0.7300
 6165SOL     OW19393   3.014   6.501   2.314 -0.0575  0.8115  0.0578
 6165SOL    HW119394   2.923   6.541   2.319 -0.1205  0.6377  0.3482
 6165SOL    HW219395   3.083   6.573   2.305 -0.0886  1.0650  1.5174
 6166SOL     OW19396   3.646   5.749   0.297  0.4407  0.4344 -0.3823
 6166SOL    HW119397   3.637   5.847   0.276 -0.8618  0.4025 -0.0483
 6166SOL    HW219398   3.694   5.738   0.384  0.6584  0.7727 -0.4569
 6167SOL     OW19399   0.894   5.959   2.424 -0.1854  0.0430  0.0500
 6167SOL    HW119400   0.991   5.940   2.436 -0.0325  0.9590  0.3092
 6167SOL    HW219401   0.844   5.935   2.507  0.0877  1.2480  0.5831
 6168SOL     OW19402   1.102   1.187   6.612 -0.1410 -0.0287  0.0214
 6168SOL    HW119403   1.057   1.209   6.699 -0.9134  2.2829 -0.9053
 6168SOL    HW219404   1.057   1.107   6.572 -1.7869  0.6917  0.3475
 6169SOL     OW19405   0.698   4.191   1.036  0.0846 -0.1537  0.2207
 6169SOL    HW119406   0.621   4.249   1.062 -0.2708 -2.1418  4.5450
 6169SOL    HW219407   0.780   4.247   1.025 -1.1482  1.5711 -0.6608
 6170SOL     OW19408   4.511   1.733   3.559 -0.1715 -0.0150  0.2702
 6170SOL    HW119409   4.418   1.724   3.593  0.0442 -1.6500  0.4877
 6170SOL    HW219410   4.568   1.659   3.595  0.5192 -0.7403 -2.1247
 6171SOL     OW19411   4.791   6.739   1.165  0.3224 -0.1037  0.2143
 6171SOL    HW119412   4.854   6.691   1.103 -0.9938 -1.9521  0.2130
 6171SOL    HW219413   4.700   6.740   1.124 -0.6666 -1.6606  2.2013
 6172SOL     OW19414   0.001   4.084   3.597 -0.1446  0.4363 -0.6315
 6172SOL    HW119415  -0.037   3.993   3.581 -1.0323  0.4224  1.3126
 6172SOL    HW219416  -0.073   4.149   3.613  0.5067  1.3929 -1.3911
 6173SOL     OW19417   6.410   0.449   2.797 -0.4031 -0.7021  0.5145
 6173SOL    HW119418   6.416   0.387   2.876  2.3351 -2.7839 -1.1449
 6173SOL    HW219419   6.502   0.470   2.764 -1.4405  0.1132 -2.1037
 6174SOL     OW19420   0.930   0.461   1.135  0.0446 -0.4218  0.8432
 6174SOL    HW119421   0.833   0.466   1.162 -0.7196 -0.4683 -1.6158
 6174SOL    HW219422   0.954   0.367   1.115  0.4291 -0.3274  0.8656
 6175SOL     OW19423   5.710   1.149   1.236 -0.7088  0.7801 -0.2959
 6175SOL    HW119424   5.623   1.197   1.247 -1.0362  0.1353 -0.0030
 6175SOL    HW219425   5.695   1.066   1.182 -0.7230 -0.5110  1.6045
 6176SOL     OW19426   3.835   6.351   5.856  0.0353  0.3084  0.2846
 6176SOL    HW119427   3.878   6.322   5.942  0.7376 -1.3833 -0.5937
 6176SOL    HW219428   3.904   6.355   5.784 -0.8415 -0.0192 -0.5934
 6177SOL     OW19429   0.465   5.025   2.436 -0.5246 -0.5691  0.2302
 6177SOL    HW119430   0.492   4.947   2.379  0.7438 -1.6924  2.2450
 6177SOL    HW219431   0.544   5.086   2.448 -1.7173  1.5591 -2.0025
 6178SOL     OW19432   4.691   4.427   1.855 -0.6936  0.3688  0.1839
 6178SOL    HW119433   4.646   4.361   1.915  0.1986  1.9163  2.6535
 6178SOL    HW219434   4.645   4.516   1.863  0.4811  1.0204 -0.1560
 6179SOL     OW19435   4.791   5.902   4.966  0.0604 -0.9492  0.0874
 6179SOL    HW119436   4.814   5.861   4.877  2.2045  0.6333 -0.1694
 6179SOL    HW219437   4.862   5.878   5.032  1.3260  2.0821 -0.0349
 6180SOL     OW19438   1.250   2.592   5.699  0.3630  0.0197  0.3731
 6180SOL    HW119439   1.257   2.524   5.626 -1.2536  1.0270 -0.7877
 6180SOL    HW219440   1.310   2.566   5.775  2.7633 -0.6485 -1.6127
 6181SOL     OW19441   2.484   3.756   0.578  0.1175  0.3358 -0.3695
 6181SOL    HW119442   2.422   3.834   0.584  1.3817  1.2979  0.6829
 6181SOL    HW219443   2.543   3.766   0.498  0.6949  0.7867  0.1078
 6182SOL     OW19444   4.040   3.573   5.546 -0.0067  0.1541  0.0679
 6182SOL    HW119445   3.961   3.605   5.494 -1.0288 -1.6205  0.4348
 6182SOL    HW219446   4.009   3.522   5.626  1.5348  1.5484  1.6391
 6183SOL     OW19447   0.721   1.682   0.104  0.2522 -0.0322 -0.1265
 6183SOL    HW119448   0.690   1.673   0.198 -0.3050 -0.8115 -0.3729
 6183SOL    HW219449   0.821   1.689   0.102  0.4520 -2.0833  0.4101
 6184SOL     OW19450   4.129   6.573   4.197  0.0347 -0.1385 -0.4038
 6184SOL    HW119451   4.087   6.491   4.235  0.0161 -0.0049 -0.1350
 6184SOL    HW219452   4.089   6.655   4.239  0.1685  0.0045 -0.5492
 6185SOL     OW19453   2.744   4.206   0.954  0.5967 -0.2083 -0.1992
 6185SOL    HW119454   2.674   4.137   0.934  1.4855 -1.1659 -0.0884
 6185SOL    HW219455   2.710   4.267   1.026  0.3302 -1.4258  0.7499
 6186SOL     OW19456   0.690   2.051   0.815  0.3262 -0.0272 -0.2076
 6186SOL    HW119457   0.684   1.956   0.846 -2.2602  0.2004  0.1235
 6186SOL    HW219458   0.697   2.112   0.894 -0.2398  0.1900 -0.3238
 6187SOL     OW19459   4.489   4.146   6.228  0.2503  0.5261  0.0597
 6187SOL    HW119460   4.558   4.077   6.252 -2.4016 -2.1796  0.6335
 6187SOL    HW219461   4.472   4.205   6.307 -1.1822 -1.7536  1.6027
 6188SOL     OW19462   6.393   1.774   5.038 -0.1370 -0.0262 -0.1080
 6188SOL    HW119463   6.293   1.765   5.041 -0.1157 -0.5465 -0.6712
 6188SOL    HW219464   6.433   1.687   5.008  0.3493  0.8266 -2.0913
 6189SOL     OW19465   5.814   5.444   0.160  0.0256 -0.0503 -0.3016
 6189SOL    HW119466   5.854   5.394   0.238  1.4008  0.5199 -0.6023
 6189SOL    HW219467   5.788   5.536   0.190  1.0880  0.3726 -0.6102
 6190SOL     OW19468   0.322   2.389   3.362  0.9694  0.5933 -0.1113
 6190SOL    HW119469   0.299   2.339   3.278  1.4920 -0.2107  0.2127
 6190SOL    HW219470   0.350   2.482   3.338  2.6887 -0.0952 -1.0324
 6191SOL     OW19471   1.927   5.333   5.991  0.4447  0.2924  0.1689
 6191SOL    HW119472   1.890   5.391   5.918 -0.0176  0.5251  0.5843
 6191SOL    HW219473   1.965   5.250   5.950  0.7775  0.7101 -0.3947
 6192SOL     OW19474   1.756   0.584   0.016 -0.3301 -0.1356  0.2828
 6192SOL    HW119475   1.817   0.532   0.076 -1.8572 -1.9598  0.3405
 6192SOL    HW219476   1.802   0.602  -0.071  1.1773  0.7902  1.2223
 6193SOL     OW19477   5.593   5.800   1.027 -0.0105 -0.7722  0.5803
 6193SOL    HW119478   5.500   5.810   0.993  0.1982  0.7081  0.4018
 6193SOL    HW219479   5.592   5.751   1.114 -0.8445 -1.6878  0.0774
 6194SOL     OW19480   6.042   0.213   5.512 -0.0039 -0.4881 -0.0905
 6194SOL    HW119481   6.094   0.189   5.429  1.7007  0.3230  0.6791
 6194SOL    HW219482   6.074   0.157   5.588 -0.8231 -0.4941  0.2581
 6195SOL     OW19483   5.748   5.464   5.274 -0.2737 -0.5669  0.2920
 6195SOL    HW119484   5.706   5.543   5.319  1.6655  1.3025 -0.9832
 6195SOL    HW219485   5.694   5.439   5.194  0.3338  1.0785 -0.6831
 6196SOL     OW19486   0.221   2.163   4.647  0.1868 -0.3453 -0.2651
 6196SOL    HW119487   0.251   2.085   4.702 -0.4766  0.2461  0.9959
 6196SOL    HW219488   0.206   2.242   4.707  0.6750  0.7093 -1.4846
 6197SOL     OW19489   6.131   4.854   0.478 -0.8374 -0.2364  0.5662
 6197SOL    HW119490   6.102   4.867   0.573 -3.1040 -0.1192 -0.0725
 6197SOL    HW219491   6.053   4.820   0.425 -0.6171  2.7720 -1.9337
 6198SOL     OW19492   1.209   3.599   6.699  0.1219  0.6921 -0.4798
 6198SOL    HW119493   1.183   3.503   6.712 -0.3109  0.7908 -0.6191
 6198SOL    HW219494   1.133   3.658   6.726  1.0825  1.0849  1.6230
 6199SOL     OW19495   1.724   1.017   6.492 -0.5585 -0.3214 -0.0078
 6199SOL    HW119496   1.765   0.978   6.410 -1.8686  1.0583 -1.3714
 6199SOL    HW219497   1.744   0.958   6.571  0.9107 -1.5567 -1.2470
 6200SOL     OW19498   0.361   6.570   6.703 -0.1657 -0.1093 -0.0589
 6200SOL    HW119499   0.359   6.470   6.715 -0.9338 -0.0956 -0.0121
 6200SOL    HW219500   0.410   6.612   6.780 -1.1410 -0.3495  0.7145
 6201SOL     OW19501   2.910   5.808   3.105 -0.0920  0.6429 -0.0834
 6201SOL    HW119502   2.916   5.763   3.016 -0.4708  0.9559 -0.2719
 6201SOL    HW219503   2.848   5.887   3.098  0.0792  0.8220  0.3933
 6202SOL     OW19504   5.386   0.805   2.217 -0.3773 -0.5539 -0.2083
 6202SOL    HW119505   5.353   0.862   2.293 -0.7841 -0.9325 -0.0906
 6202SOL    HW219506   5.485   0.810   2.212 -0.3246 -0.7154  0.5135
 6203SOL     OW19507   1.235   1.846   4.237 -0.5285 -0.2627 -0.4853
 6203SOL    HW119508   1.287   1.764   4.211 -1.6968 -0.3224 -2.9251
 6203SOL    HW219509   1.259   1.873   4.330  1.9024 -1.7870 -0.5838
 6204SOL     OW19510   0.820   0.284   4.967  0.6606 -0.1837 -0.0865
 6204SOL    HW119511   0.792   0.340   4.890  2.1561  0.6435 -0.0573
 6204SOL    HW219512   0.768   0.198   4.967 -2.7999  1.7417  0.7319
 6205SOL     OW19513   5.881   3.347   2.703 -0.3634 -0.8277  0.0750
 6205SOL    HW119514   5.857   3.442   2.683  0.6438 -0.4590  0.5851
 6205SOL    HW219515   5.877   3.332   2.802  0.6397 -0.9866  0.1025
 6206SOL     OW19516   0.192   2.271   5.115  0.0070 -1.0502  0.2680
 6206SOL    HW119517   0.179   2.174   5.135 -0.5463 -1.1275 -0.4551
 6206SOL    HW219518   0.257   2.310   5.181 -1.1356 -1.4936  1.6980
 6207SOL     OW19519   1.373   6.890   2.778 -0.0676  0.1366  0.2344
 6207SOL    HW119520   1.456   6.903   2.832  1.3747 -0.8791 -1.6343
 6207SOL    HW219521   1.391   6.826   2.703 -2.7753 -0.7422  0.2290
 6208SOL     OW19522   4.995   3.152   6.720 -0.0995 -0.2776 -0.8896
 6208SOL    HW119523   5.077   3.180   6.770 -1.2514  0.6609  0.5503
 6208SOL    HW219524   4.957   3.231   6.672  0.8650 -1.1100 -3.1968
 6209SOL     OW19525   5.413   4.987   4.140 -0.0889 -0.1286 -0.0928
 6209SOL    HW119526   5.490   5.025   4.192 -0.5010  0.9184 -0.2232
 6209SOL    HW219527   5.333   4.978   4.200  0.2193 -1.5540  0.1334
 6210SOL     OW19528   6.405   6.078   4.765  0.8680 -0.1567  0.2382
 6210SOL    HW119529   6.448   6.163   4.734  2.1538 -0.2345  1.6561
 6210SOL    HW219530   6.323   6.060   4.711  1.6280  0.9694 -1.3721
 6211SOL     OW19531   5.751   2.212   4.577  0.3108  0.2489  0.5522
 6211SOL    HW119532   5.769   2.134   4.516  1.1913  0.5716  0.3822
 6211SOL    HW219533   5.789   2.295   4.536  2.1422  0.2630  2.1168
 6212SOL     OW19534   4.535   4.450   3.937 -0.0529  0.2735 -0.0919
 6212SOL    HW119535   4.577   4.454   3.847  0.9791  0.9862  0.4049
 6212SOL    HW219536   4.595   4.401   4.000  0.5685  2.1983  0.8821
 6213SOL     OW19537   4.306   5.959   0.079 -0.9839 -0.5936 -0.0912
 6213SOL    HW119538   4.315   5.865   0.046  0.6512 -0.3972 -0.2877
 6213SOL    HW219539   4.301   6.022   0.002 -0.0726 -0.3732  0.0140
 6214SOL     OW19540   6.153   6.996   0.047 -0.1895  0.0005  0.0046
 6214SOL    HW119541   6.237   6.956   0.009  0.3174  0.6418  0.4357
 6214SOL    HW219542   6.171   7.089   0.078 -1.7306  1.2652 -2.5089
 6215SOL     OW19543   6.121   2.840   5.985 -0.1609  0.6626 -0.5170
 6215SOL    HW119544   6.160   2.754   5.954 -0.2539  0.5773 -0.3974
 6215SOL    HW219545   6.036   2.858   5.935 -0.1644  0.6642 -0.5107
 6216SOL     OW19546   3.668   2.959   0.379 -0.0734 -0.4912  0.1289
 6216SOL    HW119547   3.569   2.947   0.380 -0.4068  1.6428  2.3736
 6216SOL    HW219548   3.712   2.882   0.426 -0.8429 -0.6007  0.6812
 6217SOL     OW19549   1.088   5.282   4.284 -0.6066 -0.0805  0.0137
 6217SOL    HW119550   1.151   5.337   4.339 -0.1973  0.0477 -0.5657
 6217SOL    HW219551   1.011   5.253   4.340  0.4133 -1.0085  0.9796
 6218SOL     OW19552   4.566   5.050   2.276  0.0504 -0.7448 -0.3299
 6218SOL    HW119553   4.467   5.048   2.260 -0.2332  0.4228  1.0678
 6218SOL    HW219554   4.613   5.064   2.189 -0.9723 -1.7687 -1.0807
 6219SOL     OW19555   2.847   0.831   6.002 -0.3435  0.4613 -0.0028
 6219SOL    HW119556   2.838   0.758   6.071 -1.5929 -0.4849 -1.1107
 6219SOL    HW219557   2.889   0.793   5.919  3.1463  2.0602  0.8457
 6220SOL     OW19558   2.258   1.211   1.396 -0.2937  0.6615 -0.1922
 6220SOL    HW119559   2.317   1.137   1.430 -0.8918 -0.5155 -1.5934
 6220SOL    HW219560   2.168   1.204   1.438  0.2795  1.9699  1.3367
 6221SOL     OW19561   2.670   6.705   4.982 -0.6216  0.2225 -0.0189
 6221SOL    HW119562   2.756   6.670   5.018 -0.0169  0.8118 -0.8573
 6221SOL    HW219563   2.606   6.629   4.969  0.0931 -0.3495 -0.2680
 6222SOL     OW19564   1.677   0.673   0.836  0.1605  0.2773  0.0975
 6222SOL    HW119565   1.580   0.649   0.832  0.3173 -0.3165 -0.3716
 6222SOL    HW219566   1.687   0.772   0.840 -0.5145  0.3044  2.1571
 6223SOL     OW19567   0.333   6.613   5.701  0.4381  0.6563 -0.2592
 6223SOL    HW119568   0.263   6.561   5.752 -0.3869  0.0149 -1.9456
 6223SOL    HW219569   0.423   6.594   5.739 -0.0384 -0.6589  0.2813
 6224SOL     OW19570   4.494   0.313   0.135  0.4285 -0.2137 -0.3063
 6224SOL    HW119571   4.403   0.305   0.093 -0.0211  0.7901  0.4523
 6224SOL    HW219572   4.564   0.296   0.066 -0.3287 -1.0086 -0.9010
 6225SOL     OW19573   4.216   5.136   5.437 -0.0725  0.3640  0.1672
 6225SOL    HW119574   4.185   5.230   5.445  0.9287  0.8222 -0.9806
 6225SOL    HW219575   4.227   5.113   5.340  0.9750 -0.4913  0.4713
 6226SOL     OW19576   1.808   2.012   4.495 -0.3688  0.3227 -0.5801
 6226SOL    HW119577   1.823   1.990   4.399 -2.0537  2.7199 -1.4922
 6226SOL    HW219578   1.895   2.040   4.536  0.3186 -0.4437 -1.4662
 6227SOL     OW19579   0.123   4.670   5.811 -0.2204  0.4392  0.1649
 6227SOL    HW119580   0.083   4.761   5.807  1.0491  1.0537  0.8791
 6227SOL    HW219581   0.135   4.635   5.718  0.2469  1.4545 -0.1783
 6228SOL     OW19582   1.587   2.296   3.114 -0.1363  0.8218  0.6080
 6228SOL    HW119583   1.685   2.300   3.092  0.1029  1.5312  1.7203
 6228SOL    HW219584   1.574   2.246   3.200 -0.6907  1.3355  0.8278
 6229SOL     OW19585   6.827   3.242   3.675  0.1374  0.0588  0.0095
 6229SOL    HW119586   6.844   3.318   3.612  0.6014 -1.0527 -1.2670
 6229SOL    HW219587   6.748   3.190   3.644  0.2092 -0.3463  0.4958
 6230SOL     OW19588   1.259   0.637   0.453 -0.1742  0.4672 -0.2734
 6230SOL    HW119589   1.244   0.702   0.378  1.1080 -0.3280 -1.2606
 6230SOL    HW219590   1.357   0.628   0.471 -0.4307  0.3344  1.2559
 6231SOL     OW19591   1.841   3.522   4.476 -0.0457  0.1398 -0.0810
 6231SOL    HW119592   1.863   3.613   4.440 -0.4439 -0.1586 -1.1390
 6231SOL    HW219593   1.904   3.455   4.438  0.3093 -0.0223  0.7770
 6232SOL     OW19594   2.534   6.136   5.747 -0.0355 -0.7476  0.5276
 6232SOL    HW119595   2.515   6.138   5.649  0.6401  2.1127  0.3846
 6232SOL    HW219596   2.591   6.056   5.768 -0.4919 -1.6151 -1.3241
 6233SOL     OW19597   5.278   4.859   1.739 -0.1785  0.3307  0.1646
 6233SOL    HW119598   5.251   4.778   1.686 -3.0924  1.7866 -0.7810
 6233SOL    HW219599   5.266   4.839   1.837  1.1460 -0.9909  0.1008
 6234SOL     OW19600   4.430   4.391   1.451 -0.1139 -0.4602  0.2917
 6234SOL    HW119601   4.391   4.343   1.530 -2.1705  0.5153 -0.0620
 6234SOL    HW219602   4.495   4.459   1.483  0.1031 -1.0041  1.0470
 6235SOL     OW19603   1.107   1.968   0.639  0.4225  0.3363 -0.2922
 6235SOL    HW119604   1.142   1.963   0.733 -0.0206  0.8926 -0.0904
 6235SOL    HW219605   1.011   1.943   0.638  0.6941 -0.7197 -0.7744
 6236SOL     OW19606   4.894   6.649   1.385 -0.9769 -0.3293 -0.1481
 6236SOL    HW119607   4.847   6.684   1.304 -1.6056  0.0519  0.3691
 6236SOL    HW219608   4.892   6.718   1.457 -1.6964 -1.1807  0.6792
 6237SOL     OW19609   3.958   0.837   3.544 -0.0100  0.0748  0.2124
 6237SOL    HW119610   4.047   0.807   3.510 -0.0523 -0.6994  0.7537
 6237SOL    HW219611   3.969   0.877   3.636 -0.1962  0.1230  0.2141
 6238SOL     OW19612   0.082   5.569   3.032  0.3900 -0.5258 -0.0621
 6238SOL    HW119613   0.039   5.658   3.046  0.9472 -0.0199 -1.3947
 6238SOL    HW219614   0.022   5.512   2.975  0.8578 -0.2929 -0.8110
 6239SOL     OW19615   5.131   1.830   4.740 -0.1099 -0.0761 -0.0158
 6239SOL    HW119616   5.168   1.923   4.736 -0.9100  0.3080  1.0119
 6239SOL    HW219617   5.034   1.834   4.764 -0.3313 -1.1552 -0.6757
 6240SOL     OW19618   4.117   3.271   4.381 -0.0521 -0.0762  0.1755
 6240SOL    HW119619   4.072   3.259   4.292  2.0792 -0.3901 -0.9112
 6240SOL    HW219620   4.210   3.236   4.377  0.0449 -0.2854  2.6328
 6241SOL     OW19621   5.510   0.298   2.504  0.1718  0.2398  0.1138
 6241SOL    HW119622   5.502   0.387   2.550  0.3527  0.7869 -0.8791
 6241SOL    HW219623   5.589   0.249   2.540  0.6502  0.9054 -0.0140
 6242SOL     OW19624   3.884   1.891   4.994  0.1118  0.9731 -0.7715
 6242SOL    HW119625   3.893   1.889   4.894  0.8862  2.1809 -0.7578
 6242SOL    HW219626   3.804   1.947   5.019 -0.9319 -0.4968 -0.7162
 6243SOL     OW19627   4.352   7.003   6.710 -0.2016 -0.2360  0.3032
 6243SOL    HW119628   4.299   7.079   6.672 -1.1033 -0.7322  0.5389
 6243SOL    HW219629   4.395   7.032   6.795  1.3011  0.6872 -0.7271
 6244SOL     OW19630   5.198   3.152   2.500 -0.7778  0.5046  0.3433
 6244SOL    HW119631   5.151   3.076   2.454  0.5642  0.7197 -1.5138
 6244SOL    HW219632   5.170   3.239   2.458  2.3273  0.5385 -1.9807
 6245SOL     OW19633   6.562   4.012   2.322  0.1632 -1.1448 -0.1820
 6245SOL    HW119634   6.624   3.935   2.309 -1.5084 -2.5671 -0.1214
 6245SOL    HW219635   6.472   3.990   2.285 -1.0765 -0.2223  2.0386
 6246SOL     OW19636   0.704   6.016   3.346  0.3238  0.2680  0.3729
 6246SOL    HW119637   0.620   5.965   3.327  0.3037  0.7721 -1.0462
 6246SOL    HW219638   0.766   5.960   3.401  0.3475 -1.3486 -1.2030
 6247SOL     OW19639   5.620   4.472   2.574  0.2320  0.2648 -0.6694
 6247SOL    HW119640   5.657   4.552   2.622  0.5838  0.5215 -1.3549
 6247SOL    HW219641   5.606   4.495   2.478  1.6727 -0.9099 -1.1967
 6248SOL     OW19642   4.502   2.201   6.545  0.0598  0.4878 -0.4572
 6248SOL    HW119643   4.579   2.251   6.586  0.6402 -1.5414  1.0987
 6248SOL    HW219644   4.536   2.132   6.482 -0.7462  2.0643 -2.7454
 6249SOL     OW19645   6.376   0.169   3.157  0.1045  0.4424  0.0350
 6249SOL    HW119646   6.422   0.231   3.220  0.0166  1.5806 -1.0032
 6249SOL    HW219647   6.282   0.201   3.141 -0.6198 -1.0622  1.0186
 6250SOL     OW19648   4.673   6.090   4.373  0.5872  0.4130 -0.4678
 6250SOL    HW119649   4.750   6.144   4.340 -0.2528  0.2208 -3.0047
 6250SOL    HW219650   4.677   5.998   4.334 -0.2733  0.0227  0.3250
 6251SOL     OW19651   4.253   0.556   4.534 -0.0986  0.0290  0.0800
 6251SOL    HW119652   4.176   0.520   4.586 -0.2841  1.1167  0.5805
 6251SOL    HW219653   4.248   0.524   4.439 -2.1544  1.4814 -0.3669
 6252SOL     OW19654   1.788   3.811   0.151  0.3408 -0.0706 -0.3067
 6252SOL    HW119655   1.818   3.773   0.064  2.9290  1.7630 -0.3185
 6252SOL    HW219656   1.693   3.842   0.144 -0.6140 -2.9473 -1.3805
 6253SOL     OW19657   5.445   4.538   3.474 -0.0469 -0.1945  0.1490
 6253SOL    HW119658   5.364   4.529   3.532  1.2837  1.0685  2.3668
 6253SOL    HW219659   5.498   4.453   3.478  1.0070  0.4761  2.4982
 6254SOL     OW19660   5.540   5.554   2.786  0.5362 -0.0210  0.7413
 6254SOL    HW119661   5.576   5.463   2.766  1.6698  0.5720 -0.0803
 6254SOL    HW219662   5.464   5.574   2.724  1.2003  0.1194 -0.0440
 6255SOL     OW19663   3.677   6.316   6.543 -0.2477  0.6239 -0.2142
 6255SOL    HW119664   3.697   6.391   6.606  0.3154  0.3667 -0.0757
 6255SOL    HW219665   3.589   6.275   6.566  0.0039  0.4610  0.4795
 6256SOL     OW19666   0.648   2.719   3.547  0.0191  0.0300 -0.3240
 6256SOL    HW119667   0.723   2.669   3.590 -0.4943 -2.1616 -1.7901
 6256SOL    HW219668   0.577   2.737   3.616  0.5489 -0.6215  0.4173
 6257SOL     OW19669   2.286   5.358   1.764  0.3045 -0.7323 -0.1913
 6257SOL    HW119670   2.325   5.267   1.774  0.3774 -0.6444  0.4000
 6257SOL    HW219671   2.317   5.399   1.678  0.0906 -1.3484 -0.5679
 6258SOL     OW19672   3.327   5.311   4.162 -0.0837  0.2836 -0.6209
 6258SOL    HW119673   3.371   5.237   4.111  0.2971  1.5966 -2.2780
 6258SOL    HW219674   3.388   5.389   4.168 -1.0091  0.9955 -0.1741
 6259SOL     OW19675   5.217   5.797   3.457  0.3121  0.2807 -0.2137
 6259SOL    HW119676   5.306   5.752   3.466 -0.2940 -1.1315 -0.8325
 6259SOL    HW219677   5.215   5.849   3.372  1.6724  3.1501  1.3943
 6260SOL     OW19678   3.371   1.820   0.225 -0.4541 -0.2631 -0.6465
 6260SOL    HW119679   3.295   1.768   0.266  0.0078  0.8946  1.8681
 6260SOL    HW219680   3.335   1.881   0.155 -1.3608 -2.0192 -1.7953
 6261SOL     OW19681   4.236   6.112   6.874 -0.3233 -0.2527  0.4523
 6261SOL    HW119682   4.226   6.211   6.881  0.3883 -0.2304  1.2627
 6261SOL    HW219683   4.145   6.070   6.870 -0.6528  0.5413 -1.8968
 6262SOL     OW19684   6.642   1.765   2.621 -0.1314 -0.1294 -0.7139
 6262SOL    HW119685   6.659   1.855   2.581 -0.1684 -0.4952 -1.5615
 6262SOL    HW219686   6.552   1.764   2.664  0.0153  0.3396 -0.3797
 6263SOL     OW19687   5.216   5.629   0.074  0.4842 -0.0423 -0.7752
 6263SOL    HW119688   5.129   5.676   0.088  0.4363 -0.3621  0.0321
 6263SOL    HW219689   5.206   5.532   0.097  1.6646  0.3716  1.8517
 6264SOL     OW19690   6.817   0.131   1.477  0.2362  1.0282 -0.4660
 6264SOL    HW119691   6.868   0.127   1.391 -0.5392 -0.3544 -0.9086
 6264SOL    HW219692   6.863   0.074   1.546 -0.3930  0.1959 -0.7124
 6265SOL     OW19693   4.617   0.511   5.273  0.0134 -0.4022 -0.0297
 6265SOL    HW119694   4.627   0.507   5.174 -0.8509 -0.4299 -0.1206
 6265SOL    HW219695   4.539   0.455   5.301 -1.0271  1.2586  0.4649
 6266SOL     OW19696   4.260   4.751   2.971  0.0732 -0.1492 -0.3098
 6266SOL    HW119697   4.191   4.783   2.905 -1.3966 -0.1908  1.1424
 6266SOL    HW219698   4.317   4.682   2.928 -0.2148  0.5043 -1.8253
 6267SOL     OW19699   0.440   0.370   2.749  0.0410  0.2168  0.6973
 6267SOL    HW119700   0.464   0.391   2.843  2.1361  0.6222  0.1244
 6267SOL    HW219701   0.463   0.447   2.690  1.2415 -0.9593 -0.4676
 6268SOL     OW19702   1.732   1.024   1.782 -0.2509 -0.8443  0.2491
 6268SOL    HW119703   1.799   0.951   1.794  1.5641  0.6818 -0.1720
 6268SOL    HW219704   1.705   1.059   1.872  0.1022 -0.9575  0.4025
 6269SOL     OW19705   6.735   6.666   0.530  0.0411 -0.6322  0.0806
 6269SOL    HW119706   6.637   6.669   0.512  0.3626 -1.3106 -2.0442
 6269SOL    HW219707   6.761   6.574   0.559 -0.0851 -0.1719  1.7435
 6270SOL     OW19708   1.737   5.961   1.365  0.1524  0.0212  0.1808
 6270SOL    HW119709   1.786   6.042   1.397  0.6794  0.2253 -1.0918
 6270SOL    HW219710   1.797   5.881   1.372 -0.1307 -0.1418  0.7833
 6271SOL     OW19711   1.179   4.117   0.667 -0.2250 -0.4385 -0.1000
 6271SOL    HW119712   1.152   4.191   0.606 -1.3136 -0.3952  0.4117
 6271SOL    HW219713   1.151   4.029   0.628 -2.0030 -0.3398  0.8342
 6272SOL     OW19714   5.116   6.553   0.180  0.4599  0.4484  0.3810
 6272SOL    HW119715   5.175   6.491   0.127 -0.0865  0.8490 -0.7215
 6272SOL    HW219716   5.171   6.597   0.251  0.6074 -2.2046  2.0337
 6273SOL     OW19717   0.652   3.917   1.883  0.0634  0.7311 -0.0549
 6273SOL    HW119718   0.723   3.848   1.886 -0.7129 -0.0386  1.6377
 6273SOL    HW219719   0.669   3.979   1.806  0.3440 -1.7882 -2.1761
 6274SOL     OW19720   2.841   6.787   5.526  0.5683  0.1783  0.6165
 6274SOL    HW119721   2.812   6.778   5.430 -0.8589 -0.8053  1.0985
 6274SOL    HW219722   2.865   6.697   5.561  1.8112  0.6412  0.9900
 6275SOL     OW19723   2.716   3.780   6.756  0.1944 -0.2226 -0.1911
 6275SOL    HW119724   2.751   3.818   6.670  1.2710 -2.3230 -0.7801
 6275SOL    HW219725   2.716   3.680   6.749 -0.2060 -0.4232  2.0811
 6276SOL     OW19726   2.050   5.506   2.893  0.5733  0.1643  0.9447
 6276SOL    HW119727   2.133   5.455   2.913  0.8913  1.3608  2.9001
 6276SOL    HW219728   2.068   5.571   2.819  1.4667  0.6127  1.5453
 6277SOL     OW19729   5.215   2.937   6.503  0.8568 -0.0382 -0.9106
 6277SOL    HW119730   5.310   2.908   6.516  0.3302 -1.9408 -1.0475
 6277SOL    HW219731   5.188   2.921   6.408 -0.1115 -1.1444 -0.4687
 6278SOL     OW19732   2.971   3.531   6.389 -0.6396 -0.0074  0.3679
 6278SOL    HW119733   3.025   3.462   6.341 -0.0324  2.0877 -2.1751
 6278SOL    HW219734   2.881   3.493   6.411  0.0747 -1.9393  0.1516
 6279SOL     OW19735   1.701   1.165   2.462  0.3558  0.1048  0.5456
 6279SOL    HW119736   1.687   1.228   2.539 -0.4979 -1.8348  2.0642
 6279SOL    HW219737   1.626   1.099   2.459  0.5655 -0.1040 -1.7773
 6280SOL     OW19738   5.375   1.304   2.401 -0.0452  0.3138  0.1834
 6280SOL    HW119739   5.326   1.238   2.458 -0.7826  0.0771 -0.7085
 6280SOL    HW219740   5.466   1.319   2.439 -0.2178 -0.4724  0.9468
 6281SOL     OW19741   4.950   5.307   5.826  0.5309  0.3832 -0.2560
 6281SOL    HW119742   4.911   5.367   5.756  0.4519 -1.0107 -1.4555
 6281SOL    HW219743   5.050   5.310   5.821  0.5320 -0.4001 -1.0889
 6282SOL     OW19744   6.122   5.013   4.966 -0.1603 -0.3291  0.2379
 6282SOL    HW119745   6.071   4.932   4.996 -0.5645  0.4924  1.8949
 6282SOL    HW219746   6.085   5.094   5.012  1.1555  0.6131 -0.3095
 6283SOL     OW19747   1.847   5.279   6.257 -0.1074 -0.0924  0.5024
 6283SOL    HW119748   1.935   5.267   6.303  0.0816 -0.4603  0.0521
 6283SOL    HW219749   1.862   5.304   6.162 -0.4795  2.8668  1.1175
 6284SOL     OW19750   3.209   0.135   6.412  0.4903  0.0252  0.3733
 6284SOL    HW119751   3.160   0.209   6.366 -0.5562 -0.6983  0.3167
 6284SOL    HW219752   3.291   0.111   6.359 -0.0519  0.0238 -0.4687
 6285SOL     OW19753   3.559   4.974   3.165  0.1711 -0.6899  0.3203
 6285SOL    HW119754   3.562   4.935   3.073 -1.9238 -1.1859  0.3968
 6285SOL    HW219755   3.467   4.960   3.204  0.5508  0.8475  1.9006
 6286SOL     OW19756   2.839   3.261   0.458  0.1903 -0.4411  0.0991
 6286SOL    HW119757   2.749   3.286   0.421  0.2755 -0.2842 -0.0036
 6286SOL    HW219758   2.897   3.343   0.461  0.2241 -0.4746  0.4616
 6287SOL     OW19759   2.174   5.125   3.732 -0.5019 -0.1499 -0.3021
 6287SOL    HW119760   2.126   5.044   3.699 -2.7851  1.1809 -0.4782
 6287SOL    HW219761   2.108   5.198   3.750  1.4454  1.6529 -0.0337
 6288SOL     OW19762   3.340   3.329   5.313 -0.6670  0.2077 -0.2504
 6288SOL    HW119763   3.262   3.357   5.256 -0.7795 -1.1643 -0.8149
 6288SOL    HW219764   3.394   3.410   5.336 -1.1868  0.9478 -1.4644
 6289SOL     OW19765   2.345   6.097   6.003  0.0009  0.0923 -0.8263
 6289SOL    HW119766   2.374   6.115   6.096 -0.4799  1.1185 -0.8705
 6289SOL    HW219767   2.417   6.126   5.939 -0.2665  0.7254 -0.8406
 6290SOL     OW19768   6.582   0.832   1.961  0.0865 -0.2823  0.2872
 6290SOL    HW119769   6.628   0.778   2.032  1.2505  0.9090  0.4797
 6290SOL    HW219770   6.484   0.839   1.983  0.1186 -1.3853  0.8273
 6291SOL     OW19771   3.477   3.579   2.490 -0.1235  0.4064 -0.1951
 6291SOL    HW119772   3.480   3.674   2.521 -0.9709  0.7025 -1.0015
 6291SOL    HW219773   3.492   3.575   2.391 -1.1727 -0.1889 -0.3472
 6292SOL     OW19774   6.844   4.646   5.192 -0.1036 -0.6813 -0.2436
 6292SOL    HW119775   6.904   4.605   5.123 -1.1761 -2.6982 -0.0699
 6292SOL    HW219776   6.759   4.677   5.148 -0.3448 -0.9880  0.0015
 6293SOL     OW19777   2.888   1.698   1.805 -0.3177  0.1399 -0.2954
 6293SOL    HW119778   2.933   1.719   1.892 -1.3295  0.6173  0.1358
 6293SOL    HW219779   2.820   1.769   1.785 -0.9954 -0.6388 -0.8285
 6294SOL     OW19780   6.431   1.110   2.126  0.4154  0.4616  0.0677
 6294SOL    HW119781   6.499   1.173   2.164  0.1511  1.4425 -1.0148
 6294SOL    HW219782   6.418   1.131   2.029  0.3050 -1.2700 -0.3116
 6295SOL     OW19783   3.358   3.177   4.431 -0.6412  0.2081 -0.6212
 6295SOL    HW119784   3.299   3.228   4.493 -0.8193 -1.0681  0.2969
 6295SOL    HW219785   3.453   3.187   4.460 -0.4572  1.5477 -1.5840
 6296SOL     OW19786   0.912   1.346   0.451 -0.3814 -0.9767  0.4412
 6296SOL    HW119787   0.926   1.318   0.357  1.3183 -0.9166  0.6522
 6296SOL    HW219788   0.905   1.446   0.456 -2.8427 -1.0759  0.1303
 6297SOL     OW19789   2.059   1.291   5.785 -0.5033  0.0957  0.1720
 6297SOL    HW119790   2.007   1.289   5.700 -1.2127  1.5064  0.5496
 6297SOL    HW219791   2.020   1.359   5.847  1.6851  1.1138  0.5255
 6298SOL     OW19792   6.983   2.152   4.833 -0.4661 -0.2813 -0.6320
 6298SOL    HW119793   6.952   2.246   4.820 -0.2865 -0.2792 -1.0546
 6298SOL    HW219794   7.054   2.149   4.903  0.8443  0.1627 -1.8994
 6299SOL     OW19795   6.272   2.580   4.258  0.4705  0.2241  0.2822
 6299SOL    HW119796   6.351   2.536   4.300  0.1990 -0.8121 -0.2592
 6299SOL    HW219797   6.288   2.592   4.160 -0.0357  0.0142  0.1706
 6300SOL     OW19798   2.964   3.880   1.430  0.2309  0.0967 -0.0086
 6300SOL    HW119799   2.882   3.857   1.483  0.1824 -0.0183 -0.1336
 6300SOL    HW219800   2.984   3.807   1.365  0.3418  0.1968 -0.0885
 6301SOL     OW19801   2.622   5.976   1.318  0.4433 -0.2482 -0.3356
 6301SOL    HW119802   2.632   5.915   1.396  1.8816  0.3151 -0.0557
 6301SOL    HW219803   2.609   5.921   1.235  0.9338 -0.9126  0.0183
 6302SOL     OW19804   2.571   3.780   1.313  0.2315  0.5614 -0.7773
 6302SOL    HW119805   2.623   3.721   1.375  2.1083  0.0025 -2.7771
 6302SOL    HW219806   2.634   3.838   1.262 -1.2447  0.9818 -2.1977
 6303SOL     OW19807   0.032   6.967   6.513 -0.1621  0.2428  0.4031
 6303SOL    HW119808   0.120   6.932   6.543 -0.0599  0.4143  0.3093
 6303SOL    HW219809   0.035   7.067   6.513 -0.3194  0.2480  0.2926
 6304SOL     OW19810   1.862   3.168   4.140 -0.0082 -0.5205 -0.0682
 6304SOL    HW119811   1.789   3.102   4.156 -1.3643  0.5195 -1.6535
 6304SOL    HW219812   1.942   3.144   4.196 -0.8479 -2.8043  0.2417
 6305SOL     OW19813   1.940   5.847   4.705  0.1458 -0.3960 -0.1451
 6305SOL    HW119814   1.944   5.772   4.638 -0.2455 -0.9707  0.4658
 6305SOL    HW219815   1.956   5.934   4.658  0.9297 -0.8869 -0.8104
 6306SOL     OW19816   2.269   4.297   4.835 -0.0845 -0.3980 -0.5526
 6306SOL    HW119817   2.313   4.369   4.889 -3.0065  1.4416 -0.4300
 6306SOL    HW219818   2.276   4.210   4.884  1.9800  0.0968  0.1446
 6307SOL     OW19819   3.088   3.097   1.694 -0.4167 -0.1193 -0.3772
 6307SOL    HW119820   3.133   3.110   1.783 -0.0436 -1.0087 -0.4284
 6307SOL    HW219821   3.108   3.006   1.660 -1.0740 -0.0032 -1.0917
 6308SOL     OW19822   0.940   1.178   1.661 -0.2425  0.1186  0.3121
 6308SOL    HW119823   0.866   1.111   1.658 -0.2322  0.1485 -0.9540
 6308SOL    HW219824   1.020   1.143   1.613  0.4832  0.2141  1.4039
 6309SOL     OW19825   0.527   5.775   3.887 -0.5059 -0.0968  0.1677
 6309SOL    HW119826   0.597   5.804   3.952 -1.3092  1.0155  0.5671
 6309SOL    HW219827   0.443   5.751   3.936 -0.9878  0.3443 -0.4166
 6310SOL     OW19828   6.385   4.562   2.621 -0.1576 -0.2669 -0.4860
 6310SOL    HW119829   6.418   4.479   2.667 -2.3846 -0.4208  0.9616
 6310SOL    HW219830   6.375   4.544   2.523  2.8002 -0.5357 -0.8273
 6311SOL     OW19831   3.672   0.224   6.205  0.1732 -0.0268  0.3284
 6311SOL    HW119832   3.730   0.305   6.209  1.4669 -0.8052 -1.5282
 6311SOL    HW219833   3.640   0.210   6.111  0.7144 -2.1618  0.4126
 6312SOL     OW19834   4.114   5.282   0.606 -0.3136 -0.3483  0.4057
 6312SOL    HW119835   4.045   5.238   0.664  0.4090  1.0552  2.4535
 6312SOL    HW219836   4.147   5.365   0.651  1.6689 -0.1932 -1.1984
 6313SOL     OW19837   6.235   3.518   4.347 -0.2566  0.3595 -0.2495
 6313SOL    HW119838   6.165   3.495   4.415  0.7035 -0.0376  0.6353
 6313SOL    HW219839   6.314   3.558   4.393  0.8738 -0.9510 -0.9710
 6314SOL     OW19840   4.118   5.882   3.203  0.3799 -0.3634 -0.2343
 6314SOL    HW119841   4.151   5.955   3.142  1.4086 -0.2564  0.4180
 6314SOL    HW219842   4.020   5.867   3.188  0.2906  0.7165 -0.8310
 6315SOL     OW19843   1.184   2.061   4.036  0.2903 -0.0722 -0.0948
 6315SOL    HW119844   1.225   1.998   4.102  2.6456  0.1955 -1.2064
 6315SOL    HW219845   1.100   2.021   3.999  2.0236 -2.9158 -1.2587
 6316SOL     OW19846   3.286   0.050   5.053  0.3371  0.0511  0.2524
 6316SOL    HW119847   3.250  -0.044   5.052  0.1389  0.1293 -0.9177
 6316SOL    HW219848   3.384   0.048   5.072  0.1413 -0.3057  1.3210
 6317SOL     OW19849   5.539   3.662   2.213 -0.1385 -0.4660 -0.3640
 6317SOL    HW119850   5.482   3.580   2.222 -0.8704  0.2114  2.0066
 6317SOL    HW219851   5.584   3.681   2.301  2.5284 -0.0541 -1.7195
 6318SOL     OW19852   4.394   0.650   0.997  0.1516 -0.3941  0.2575
 6318SOL    HW119853   4.367   0.691   1.084 -0.4052 -0.7190  0.2395
 6318SOL    HW219854   4.372   0.553   0.998 -0.5419 -0.2534 -0.5293
 6319SOL     OW19855   4.167   2.270   3.536 -0.6841  0.2016  0.3036
 6319SOL    HW119856   4.151   2.182   3.490  0.7904 -0.4903  1.0266
 6319SOL    HW219857   4.221   2.329   3.476  0.8381 -0.5256  0.8928
 6320SOL     OW19858   0.297   2.417   1.229  0.0966  0.3960 -0.1404
 6320SOL    HW119859   0.243   2.391   1.309  0.2122  1.3382  0.2562
 6320SOL    HW219860   0.249   2.490   1.179 -0.4215 -0.7882 -1.4542
 6321SOL     OW19861   0.979   4.061   0.028  0.0322 -0.0514  0.1494
 6321SOL    HW119862   1.071   4.064   0.066  0.3427 -1.5791 -0.4232
 6321SOL    HW219863   0.960   4.146  -0.020  0.2509  1.2404  2.2126
 6322SOL     OW19864   1.766   6.593   4.844 -0.6986  0.5053 -0.2686
 6322SOL    HW119865   1.745   6.646   4.927 -0.9100  0.7175 -0.4597
 6322SOL    HW219866   1.692   6.529   4.826  0.7584 -1.8739  1.5547
 6323SOL     OW19867   3.619   5.521   1.226 -0.3711 -0.1355 -0.0690
 6323SOL    HW119868   3.579   5.445   1.174 -1.0708  0.0259  0.2249
 6323SOL    HW219869   3.697   5.557   1.176  0.3357 -1.4173  0.0524
 6324SOL     OW19870   5.662   1.859   0.629 -0.0334  0.4072  0.1873
 6324SOL    HW119871   5.566   1.839   0.647 -0.6279  0.7291 -2.3366
 6324SOL    HW219872   5.709   1.775   0.603  0.4420  0.2274  1.5404
 6325SOL     OW19873   0.452   5.383   4.013 -0.3730 -0.2668 -0.2247
 6325SOL    HW119874   0.393   5.463   4.004  0.4898  0.7266  2.1747
 6325SOL    HW219875   0.547   5.412   4.016 -0.0100 -1.4392  0.0885
 6326SOL     OW19876   4.359   6.376   4.938 -0.2699 -0.4965 -0.2332
 6326SOL    HW119877   4.299   6.401   4.862 -0.5061  0.6952  0.3203
 6326SOL    HW219878   4.354   6.278   4.955 -2.7884 -0.2999  0.4239
 6327SOL     OW19879   0.391   0.949   1.002  0.4859 -0.2029 -0.7579
 6327SOL    HW119880   0.310   1.007   1.003  0.1557 -0.6482 -0.0189
 6327SOL    HW219881   0.416   0.927   0.908  1.7995  2.6986 -1.1867
 6328SOL     OW19882   3.985   3.762   4.407 -0.0163 -0.1274 -0.3984
 6328SOL    HW119883   4.076   3.772   4.365 -0.4789 -0.6117 -1.5547
 6328SOL    HW219884   3.927   3.838   4.379 -0.0780 -0.0006  0.0648
 6329SOL     OW19885   6.750   2.676   2.844  0.6773  0.7740  0.5713
 6329SOL    HW119886   6.685   2.684   2.920  1.1047  0.1048  1.0162
 6329SOL    HW219887   6.773   2.767   2.810 -0.3260  1.0312  0.5458
 6330SOL     OW19888   2.433   0.927   5.209 -0.4101  0.5921 -0.0178
 6330SOL    HW119889   2.334   0.923   5.197 -0.4011  1.4909 -0.4912
 6330SOL    HW219890   2.464   1.022   5.200  0.6349  0.1837 -1.0367
 6331SOL     OW19891   2.241   2.362   3.562 -0.1985 -0.2170 -0.0826
 6331SOL    HW119892   2.296   2.423   3.618 -0.7265  0.9994 -0.8577
 6331SOL    HW219893   2.287   2.345   3.476 -1.0966  0.9921 -0.8323
 6332SOL     OW19894   3.497   0.659   6.010 -0.0701  0.0212 -0.3821
 6332SOL    HW119895   3.462   0.748   5.983  1.3258  1.1670  1.3302
 6332SOL    HW219896   3.492   0.596   5.933  0.1738  1.9741 -2.0765
 6333SOL     OW19897   0.077   1.734   0.903  0.5048  0.8342  0.4660
 6333SOL    HW119898   0.056   1.686   0.818 -1.4559 -0.1887  1.4535
 6333SOL    HW219899  -0.007   1.775   0.939  1.3897  1.6261  1.6890
 6334SOL     OW19900   2.151   0.865   3.101  0.5625  0.4689 -0.2905
 6334SOL    HW119901   2.220   0.860   3.174  0.6072 -1.3023 -0.4040
 6334SOL    HW219902   2.159   0.784   3.043  0.5133  1.8163 -2.2750
 6335SOL     OW19903   6.331   0.757   3.429 -0.0795 -0.6668 -0.1101
 6335SOL    HW119904   6.428   0.782   3.421  0.3455 -2.2450 -0.0925
 6335SOL    HW219905   6.289   0.811   3.502  1.1022 -0.8785  0.7563
 6336SOL     OW19906   1.378   5.406   5.752  0.3154  0.0957 -0.1786
 6336SOL    HW119907   1.314   5.352   5.806  0.8231  0.6178  0.9816
 6336SOL    HW219908   1.328   5.454   5.679 -0.6716  0.6495  0.8186
 6337SOL     OW19909   6.498   2.150   4.176  0.1693 -0.1598 -0.0006
 6337SOL    HW119910   6.487   2.091   4.096  0.1415 -0.0009 -0.1151
 6337SOL    HW219911   6.419   2.137   4.237  0.0403 -0.0574 -0.1453
 6338SOL     OW19912   0.485   1.077   1.945 -0.4722 -0.0379  0.1781
 6338SOL    HW119913   0.400   1.122   1.975 -0.2942  1.0679 -0.8815
 6338SOL    HW219914   0.467   0.981   1.927 -2.5622  0.8403 -3.6923
 6339SOL     OW19915   6.793   5.353   4.418  0.7371 -0.1665  0.2063
 6339SOL    HW119916   6.714   5.387   4.467  0.6742  0.3853 -0.2657
 6339SOL    HW219917   6.776   5.259   4.387 -0.9790  0.8922 -2.4571
 6340SOL     OW19918   2.432   4.982   5.903 -0.1827  0.0548  0.4192
 6340SOL    HW119919   2.523   5.013   5.876 -0.0490 -0.0877  0.7051
 6340SOL    HW219920   2.422   4.885   5.882 -0.0079 -0.1033  1.0588
 6341SOL     OW19921   1.312   5.147   4.608  0.2160  0.6308 -0.0870
 6341SOL    HW119922   1.339   5.229   4.558  0.3339  0.1204 -0.8785
 6341SOL    HW219923   1.214   5.151   4.629  0.3118  1.1722  0.2808
 6342SOL     OW19924   0.344   0.201   3.233 -0.2610 -0.0608  0.3608
 6342SOL    HW119925   0.278   0.152   3.176 -0.4417  0.1525  0.3849
 6342SOL    HW219926   0.424   0.226   3.177  0.1432 -0.9850  0.5167
 6343SOL     OW19927   1.656   4.020   6.512  0.3564 -0.2806  0.3335
 6343SOL    HW119928   1.595   3.991   6.438  0.1506  0.0350  0.3787
 6343SOL    HW219929   1.735   4.067   6.472 -0.0054  0.3434  0.3373
 6344SOL     OW19930   1.851   2.708   5.512 -0.6014 -0.2257  0.5086
 6344SOL    HW119931   1.897   2.713   5.423  0.0980  0.6080  0.9000
 6344SOL    HW219932   1.791   2.787   5.523 -0.3953 -0.1280  0.9373
 6345SOL     OW19933   1.557   2.843   4.667  0.1803  1.0658  0.5280
 6345SOL    HW119934   1.464   2.818   4.693  0.0893  0.5315 -0.2844
 6345SOL    HW219935   1.558   2.935   4.629 -0.1050  0.8696  0.0433
 6346SOL     OW19936   0.574   3.614   2.939 -0.0093  0.1184  0.2840
 6346SOL    HW119937   0.585   3.569   3.028  1.4154 -1.1299 -0.4667
 6346SOL    HW219938   0.530   3.551   2.875  1.2639  0.0394 -0.5611
 6347SOL     OW19939   2.318   1.482   1.707  0.4591  0.2423 -0.1253
 6347SOL    HW119940   2.225   1.471   1.673  1.5226 -0.2195 -3.2751
 6347SOL    HW219941   2.334   1.578   1.730 -0.6433  0.3910  0.0981
 6348SOL     OW19942   6.685   2.609   6.851  0.6955 -0.7603  0.5632
 6348SOL    HW119943   6.760   2.575   6.794  0.6655 -1.0320  0.6828
 6348SOL    HW219944   6.601   2.560   6.829 -0.2398  1.6832 -1.8437
 6349SOL     OW19945   5.902   3.239   6.384 -0.2746 -0.2143  0.1064
 6349SOL    HW119946   5.902   3.288   6.297 -0.1027  1.7043  1.1347
 6349SOL    HW219947   5.812   3.245   6.427 -0.1486 -0.5024  0.4220
 6350SOL     OW19948   6.017   6.137   3.185 -0.3697 -0.1200  0.2706
 6350SOL    HW119949   5.988   6.054   3.138  0.7096 -0.4868  0.2284
 6350SOL    HW219950   5.968   6.145   3.271 -0.3970 -0.8662  0.3324
 6351SOL     OW19951   0.140   2.983   3.024  0.2215 -0.5665  0.0754
 6351SOL    HW119952   0.221   2.957   3.076  0.0095 -0.7608  0.3112
 6351SOL    HW219953   0.101   2.902   2.979  0.4448 -0.3892 -0.4464
 6352SOL     OW19954   4.298   2.227   5.181 -0.1205 -0.0129 -0.6634
 6352SOL    HW119955   4.268   2.313   5.138  0.6079 -0.6096 -2.4985
 6352SOL    HW219956   4.240   2.152   5.149  0.8503 -0.5743 -1.1689
 6353SOL     OW19957   3.147   6.610   4.454  0.8472 -0.1121 -0.3948
 6353SOL    HW119958   3.235   6.635   4.415  1.3813 -0.3845  0.6065
 6353SOL    HW219959   3.160   6.540   4.524 -0.2955 -1.0184 -1.0523
 6354SOL     OW19960   6.508   5.403   3.907 -0.2575 -0.4598  0.4578
 6354SOL    HW119961   6.542   5.425   3.815  1.7131 -0.1873  1.1940
 6354SOL    HW219962   6.572   5.339   3.950 -0.3847  0.5144  2.1449
 6355SOL     OW19963   3.469   1.243   0.483  0.0806  0.0432 -0.8220
 6355SOL    HW119964   3.374   1.274   0.476 -0.6142 -2.0453 -1.1675
 6355SOL    HW219965   3.508   1.233   0.392  1.2292  2.4104 -0.6803
 6356SOL     OW19966   5.531   0.651   4.541  0.3184 -0.0316 -0.4946
 6356SOL    HW119967   5.582   0.582   4.593 -1.9727 -1.7907 -0.3653
 6356SOL    HW219968   5.514   0.616   4.448  2.6464  2.2175 -1.8740
 6357SOL     OW19969   5.648   1.859   3.660 -0.1888  0.1133 -0.7059
 6357SOL    HW119970   5.605   1.792   3.722 -1.4543  0.1266 -1.5290
 6357SOL    HW219971   5.666   1.943   3.710  0.2022 -0.3871  0.0175
 6358SOL     OW19972   1.668   0.986   3.744  0.1009 -0.0590  0.2212
 6358SOL    HW119973   1.633   0.912   3.687  0.0268 -0.6251  0.9876
 6358SOL    HW219974   1.743   1.032   3.696  0.4101 -0.8805 -0.1048
 6359SOL     OW19975   0.891   5.833   0.942 -0.2259 -0.1764 -0.5650
 6359SOL    HW119976   0.820   5.791   0.997 -0.6998  1.2465 -0.0684
 6359SOL    HW219977   0.958   5.877   1.001 -0.0205  0.2290 -1.0902
 6360SOL     OW19978   4.984   2.967   1.480 -0.0907 -0.2003 -0.2520
 6360SOL    HW119979   5.031   3.054   1.466 -0.4505  0.5590  2.6601
 6360SOL    HW219980   4.888   2.984   1.502 -0.5483 -1.4589 -1.1712
 6361SOL     OW19981   1.725   1.732   5.596  0.1980  0.0291  0.4579
 6361SOL    HW119982   1.742   1.778   5.683 -2.8921  0.9391  0.6924
 6361SOL    HW219983   1.643   1.675   5.604  1.9534 -2.9214 -0.8353
 6362SOL     OW19984   2.913   6.104   0.457  0.1431 -0.3180  0.0841
 6362SOL    HW119985   2.897   6.167   0.533 -3.1697 -1.2866  0.3402
 6362SOL    HW219986   2.883   6.013   0.483 -0.5579 -0.7993 -2.2058
 6363SOL     OW19987   1.850   2.697   1.402  0.4113 -0.3673  0.0693
 6363SOL    HW119988   1.943   2.725   1.377  0.3792  1.0731  1.3679
 6363SOL    HW219989   1.832   2.724   1.497 -0.6697 -2.4012  0.4827
 6364SOL     OW19990   1.955   2.181   1.526  0.5313  0.1107  0.0297
 6364SOL    HW119991   1.942   2.279   1.507 -0.9014  0.0579  0.6226
 6364SOL    HW219992   1.893   2.153   1.599 -0.2229 -1.6070 -1.2137
 6365SOL     OW19993   5.839   4.265   1.135  0.2867 -0.0736 -0.4144
 6365SOL    HW119994   5.852   4.176   1.180  0.8923  0.4553  0.4881
 6365SOL    HW219995   5.779   4.322   1.190  0.9476  0.5409 -0.3108
 6366SOL     OW19996   5.740   1.166   6.102 -0.4925  0.8667  0.1703
 6366SOL    HW119997   5.808   1.238   6.113 -0.0954  1.2911 -3.6394
 6366SOL    HW219998   5.663   1.201   6.047 -1.7948 -0.7584  0.8731
 6367SOL     OW19999   1.048   1.642   2.993  0.3037  0.3963 -0.3895
 6367SOL    HW120000   1.103   1.631   3.076 -0.3076  0.8753  0.0945
 6367SOL    HW220001   1.044   1.739   2.968 -0.2601  0.3657 -0.4464
 6368SOL     OW20002   6.484   4.022   4.341  0.4163  0.0325  0.2769
 6368SOL    HW120003   6.537   3.948   4.383  0.5081 -0.7776 -1.2134
 6368SOL    HW220004   6.467   4.000   4.245  0.7835  2.1358 -0.3151
 6369SOL     OW20005   2.533   5.065   0.997 -0.2371  0.1507 -0.4099
 6369SOL    HW120006   2.552   5.131   0.925  1.0004 -1.1354 -1.3220
 6369SOL    HW220007   2.446   5.021   0.980  0.0950 -0.2202 -1.2014
 6370SOL     OW20008   6.656   2.679   5.292 -0.0534 -0.0279  0.1356
 6370SOL    HW120009   6.685   2.691   5.198  1.0672  1.4688  0.6348
 6370SOL    HW220010   6.666   2.583   5.319 -0.1975 -0.4216 -1.1782
 6371SOL     OW20011   0.132   3.588   1.740  1.1007 -0.1192 -0.5653
 6371SOL    HW120012   0.093   3.656   1.802  0.3518 -0.3845 -0.7297
 6371SOL    HW220013   0.185   3.522   1.793  0.2516 -0.4962 -0.1573
 6372SOL     OW20014   6.654   1.337   2.107 -0.4349 -0.3678 -0.3067
 6372SOL    HW120015   6.718   1.353   2.182 -0.2866 -0.4146 -0.4242
 6372SOL    HW220016   6.684   1.388   2.026 -0.6840 -0.1870 -0.2867
 6373SOL     OW20017   6.079   2.998   2.434 -0.2782  0.2432  0.6287
 6373SOL    HW120018   6.153   3.065   2.437  1.1309 -1.1965 -0.3377
 6373SOL    HW220019   6.003   3.035   2.380  0.8084  0.7706 -0.5963
 6374SOL     OW20020   5.505   3.984   0.114 -0.0280 -0.4992  0.2546
 6374SOL    HW120021   5.587   4.011   0.166  0.7780 -0.0573 -1.2024
 6374SOL    HW220022   5.429   3.970   0.178  0.9412 -0.0451  1.5613
 6375SOL     OW20023   5.121   2.580   2.104 -0.0338  0.0822 -0.0829
 6375SOL    HW120024   5.088   2.550   2.194 -0.2368  1.0020  0.1599
 6375SOL    HW220025   5.189   2.652   2.116  1.7701 -1.4605 -0.5983
 6376SOL     OW20026   4.806   0.288   0.030 -0.1821  0.3028 -0.4415
 6376SOL    HW120027   4.847   0.378   0.017 -1.9933  0.9349 -2.3198
 6376SOL    HW220028   4.876   0.217   0.021  0.7519  1.3862 -2.1070
 6377SOL     OW20029   1.363   1.698   6.877  0.3640 -0.3232 -0.8203
 6377SOL    HW120030   1.283   1.642   6.857 -0.6988  0.6429  0.5499
 6377SOL    HW220031   1.409   1.662   6.959  0.1788  0.2747 -0.4486
 6378SOL     OW20032   4.768   4.045   3.907  0.4198  0.3300 -0.2537
 6378SOL    HW120033   4.836   3.995   3.853  1.2810  1.0333  0.1562
 6378SOL    HW220034   4.723   3.982   3.970  2.0640  0.1780  0.8333
 6379SOL     OW20035   0.536   4.854   6.989  0.0008  0.2712 -0.2372
 6379SOL    HW120036   0.473   4.921   6.951 -0.0704  0.7198  0.6466
 6379SOL    HW220037   0.591   4.896   7.061  0.3394 -0.4718 -0.0471
 6380SOL     OW20038   1.966   2.841   3.982 -0.0223 -0.7799 -0.1315
 6380SOL    HW120039   2.052   2.889   4.000 -0.3518 -0.6974  1.3172
 6380SOL    HW220040   1.971   2.748   4.020 -0.8655 -0.4906  0.7201
 6381SOL     OW20041   1.590   4.124   6.961 -0.1173  0.5167 -0.3541
 6381SOL    HW120042   1.551   4.164   7.044  0.2993  0.1121  0.0391
 6381SOL    HW220043   1.518   4.080   6.908 -0.7708  2.5614 -1.2672
 6382SOL     OW20044   2.318   1.802   0.674 -0.2640  0.0961 -0.2062
 6382SOL    HW120045   2.261   1.834   0.749 -0.6196  0.2524 -0.5383
 6382SOL    HW220046   2.395   1.864   0.661  0.7050 -0.7908  1.0611
 6383SOL     OW20047   1.299   1.522   3.779  1.1321 -0.1962 -0.5117
 6383SOL    HW120048   1.316   1.615   3.747  4.0227 -0.9942 -1.6017
 6383SOL    HW220049   1.306   1.458   3.702 -1.8764 -1.2989  0.0047
 6384SOL     OW20050   1.444   3.714   5.819  0.1482 -0.4465 -0.8745
 6384SOL    HW120051   1.528   3.767   5.811 -1.1268  1.9842  0.6942
 6384SOL    HW220052   1.378   3.746   5.751  0.2652 -2.0022 -1.7681
 6385SOL     OW20053   6.747   5.024   0.987  0.2850 -0.5713 -0.4404
 6385SOL    HW120054   6.839   5.031   1.027 -0.0032 -0.0136  0.1561
 6385SOL    HW220055   6.692   4.961   1.042  0.4148 -1.1943 -1.0131
 6386SOL     OW20056   2.410   5.682   1.412  0.0381  0.1971 -0.6402
 6386SOL    HW120057   2.463   5.703   1.494 -0.5531 -0.2466 -0.1308
 6386SOL    HW220058   2.368   5.766   1.377 -0.6325  0.2202  0.1789
 6387SOL     OW20059   6.868   1.455   6.148 -0.9251 -0.1366 -0.2711
 6387SOL    HW120060   6.902   1.520   6.080  1.5835 -0.8819  0.1963
 6387SOL    HW220061   6.827   1.506   6.225 -1.4618  0.7712 -1.1328
 6388SOL     OW20062   6.091   2.687   2.633 -0.0224  0.2138  1.0098
 6388SOL    HW120063   6.008   2.664   2.583  0.7402  0.8937 -0.6073
 6388SOL    HW220064   6.164   2.621   2.610 -0.0765 -0.3807  2.4152
 6389SOL     OW20065   6.749   6.925   2.164 -0.7448  0.0164 -0.4961
 6389SOL    HW120066   6.739   6.987   2.241  3.4237  0.5760 -0.1906
 6389SOL    HW220067   6.730   6.831   2.194  0.5824  0.2431  1.2073
 6390SOL     OW20068   4.585   4.893   2.535  0.0294  0.4150 -0.3408
 6390SOL    HW120069   4.496   4.873   2.578  0.2649 -0.7377 -0.3550
 6390SOL    HW220070   4.571   4.955   2.459 -0.4492  2.2071  1.1421
 6391SOL     OW20071   0.633   1.192   3.851 -0.1877 -0.1686 -0.1134
 6391SOL    HW120072   0.710   1.172   3.791  0.3680 -0.7164  0.7549
 6391SOL    HW220073   0.657   1.169   3.945 -1.6031 -0.8912  0.1044
 6392SOL     OW20074   4.057   6.361   4.958 -0.3171  0.0020  0.1986
 6392SOL    HW120075   3.996   6.333   5.032 -0.0371 -1.2691 -0.0267
 6392SOL    HW220076   4.088   6.280   4.908  2.4801  0.4295  1.0215
 6393SOL     OW20077   1.137   5.960   6.910  0.1632  0.3233 -0.2247
 6393SOL    HW120078   1.085   6.041   6.939  1.2398  1.5289 -1.5086
 6393SOL    HW220079   1.163   5.971   6.814  1.0046 -1.2094 -0.1913
 6394SOL     OW20080   0.233   4.510   0.967  0.4139  0.1741  0.0011
 6394SOL    HW120081   0.322   4.553   0.983  0.9588 -0.2060 -1.8555
 6394SOL    HW220082   0.236   4.457   0.883 -0.2934 -3.3823  2.0320
 6395SOL     OW20083   4.023   5.964   4.284 -0.4936 -0.4252  0.0223
 6395SOL    HW120084   4.079   6.040   4.250 -0.6578 -0.2102  0.2314
 6395SOL    HW220085   4.030   5.887   4.220 -0.2554 -0.2685 -0.1449
 6396SOL     OW20086   1.134   1.725   4.517  0.2705 -0.1631  0.6807
 6396SOL    HW120087   1.066   1.795   4.540  0.8047  1.3086 -1.8863
 6396SOL    HW220088   1.094   1.659   4.454  1.0407  0.4589 -0.4962
 6397SOL     OW20089   1.324   2.461   5.472  0.2559 -0.2349  0.3562
 6397SOL    HW120090   1.353   2.555   5.454  0.6879  0.1421  2.6839
 6397SOL    HW220091   1.401   2.408   5.507 -0.5217 -0.7902  1.2682
 6398SOL     OW20092   6.864   0.834   2.409  0.2952  0.4883  0.0046
 6398SOL    HW120093   6.951   0.787   2.419 -0.0993 -0.2860 -0.0863
 6398SOL    HW220094   6.792   0.780   2.453  0.2030  2.2621  2.2493
 6399SOL     OW20095   0.383   6.851   0.031 -0.3846 -0.4393  0.3592
 6399SOL    HW120096   0.394   6.949   0.049  0.0356 -0.5260  0.6046
 6399SOL    HW220097   0.386   6.802   0.118 -0.0963 -0.7106  0.1983
 6400SOL     OW20098   0.302   1.209   1.632  0.0177 -0.0207  0.4654
 6400SOL    HW120099   0.369   1.275   1.598  0.8273 -0.4855  1.1213
 6400SOL    HW220100   0.315   1.122   1.584 -0.9388  0.2304 -0.2829
 6401SOL     OW20101   2.477   3.051   6.992  0.1227  0.6605  0.2508
 6401SOL    HW120102   2.515   3.143   6.989 -1.8883  1.7486  3.0245
 6401SOL    HW220103   2.549   2.985   7.013  0.9813  2.2679  2.7706
 6402SOL     OW20104   5.146   5.100   6.293  0.0707  0.1972 -0.2485
 6402SOL    HW120105   5.198   5.032   6.346 -0.1124 -0.3781 -0.8048
 6402SOL    HW220106   5.196   5.121   6.209  0.0127  0.5860 -0.1869
 6403SOL     OW20107   5.428   6.699   5.951 -0.0176 -0.4201  0.4181
 6403SOL    HW120108   5.467   6.731   6.037  0.0847 -1.1728  0.6648
 6403SOL    HW220109   5.502   6.679   5.886 -0.1159  0.7364 -0.0745
 6404SOL     OW20110   5.582   5.766   1.309  0.0063  0.7558  0.5587
 6404SOL    HW120111   5.676   5.782   1.338  0.3587  0.0301 -0.1477
 6404SOL    HW220112   5.546   5.685   1.354  0.3207  0.0290 -0.4560
 6405SOL     OW20113   5.745   0.104   4.274  0.0108  0.1847 -0.0445
 6405SOL    HW120114   5.708   0.130   4.184 -0.5926  0.2456  0.2176
 6405SOL    HW220115   5.780   0.185   4.320 -0.0125  0.2122 -0.0745
 6406SOL     OW20116   0.523   3.163   4.748 -0.1950 -0.3526 -0.1247
 6406SOL    HW120117   0.442   3.219   4.764  0.0927 -0.1986  0.8508
 6406SOL    HW220118   0.605   3.220   4.755  0.2593 -1.2085  3.0739
 6407SOL     OW20119   2.421   6.277   2.201  0.5492  0.4549 -0.3835
 6407SOL    HW120120   2.365   6.336   2.142 -0.6627 -0.6961 -0.4295
 6407SOL    HW220121   2.511   6.265   2.160  0.6924  1.9271 -0.5742
 6408SOL     OW20122   1.328   0.609   2.218  0.0009  0.4679  0.1108
 6408SOL    HW120123   1.293   0.697   2.188  1.4583  0.3262 -2.2680
 6408SOL    HW220124   1.339   0.548   2.139  1.7856 -0.8020  1.2451
 6409SOL     OW20125   0.503   3.067   3.523  0.1298  0.1978 -0.1213
 6409SOL    HW120126   0.411   3.085   3.489  0.6019 -0.4032 -1.8092
 6409SOL    HW220127   0.497   3.006   3.602 -0.8702 -1.0598 -1.1189
 6410SOL     OW20128   2.468   0.909   0.286 -1.0587 -0.3889  0.2954
 6410SOL    HW120129   2.478   0.863   0.374 -1.1436 -1.7693 -0.3826
 6410SOL    HW220130   2.448   0.841   0.215  1.6845  0.2870 -1.2936
 6411SOL     OW20131   1.039   6.633   3.841 -0.2400  0.0646 -0.0036
 6411SOL    HW120132   1.012   6.588   3.926 -1.3439 -0.0274 -0.3955
 6411SOL    HW220133   1.106   6.704   3.861 -2.1375  1.5932  1.2386
 6412SOL     OW20134   3.818   2.054   1.529  0.4547 -0.3644 -0.4670
 6412SOL    HW120135   3.817   2.135   1.470 -3.8759  0.2870  0.1920
 6412SOL    HW220136   3.798   2.082   1.623 -1.7082 -2.1487 -0.3204
 6413SOL     OW20137   5.755   5.646   4.414  0.3123 -0.1719 -0.0748
 6413SOL    HW120138   5.667   5.694   4.424 -0.1794 -1.1626  0.5053
 6413SOL    HW220139   5.820   5.681   4.481  0.3835  0.5681 -0.5065
 6414SOL     OW20140   4.072   1.652   1.304 -0.1287  0.6704  0.5368
 6414SOL    HW120141   4.108   1.628   1.214  0.0660 -0.1358  0.8160
 6414SOL    HW220142   4.091   1.748   1.324 -2.0897  1.5149 -1.1955
 6415SOL     OW20143   5.638   0.240   3.492  0.1899  0.5057  0.0070
 6415SOL    HW120144   5.636   0.306   3.417 -1.0381 -1.4450 -1.7736
 6415SOL    HW220145   5.677   0.154   3.460  0.1570 -0.2074  1.7828
 6416SOL     OW20146   2.070   5.241   6.434  0.2159  0.8630  0.0084
 6416SOL    HW120147   2.160   5.275   6.463 -0.1012  1.0115  0.8414
 6416SOL    HW220148   2.040   5.169   6.497 -0.3208  0.9236 -0.1781
 6417SOL     OW20149   4.973   2.658   6.878 -0.0188 -0.3333  0.0357
 6417SOL    HW120150   4.911   2.730   6.909  0.1891  0.1420 -0.6335
 6417SOL    HW220151   5.050   2.699   6.828 -1.3399 -1.1672 -2.8504
 6418SOL     OW20152   4.943   5.779   1.111 -0.3753  0.0288 -0.3993
 6418SOL    HW120153   4.990   5.853   1.159  1.9852 -0.7118 -1.4115
 6418SOL    HW220154   4.870   5.816   1.055  0.5374  1.5589 -0.6207
 6419SOL     OW20155   0.874   6.114   0.842 -0.5456  1.0293 -0.5336
 6419SOL    HW120156   0.820   6.039   0.880 -0.6384  0.5463 -1.5827
 6419SOL    HW220157   0.965   6.115   0.883 -0.8385  0.8949  0.1250
 6420SOL     OW20158   2.898   5.451   4.178  0.2500  0.3398 -0.2193
 6420SOL    HW120159   2.828   5.392   4.220  1.5501 -2.3310 -1.5810
 6420SOL    HW220160   2.961   5.483   4.249  0.2522 -1.0023  0.4162
 6421SOL     OW20161   6.437   4.712   3.002 -0.4459 -0.1171 -0.5052
 6421SOL    HW120162   6.423   4.778   3.076 -0.4958 -1.4800  0.7504
 6421SOL    HW220163   6.526   4.667   3.013 -1.7336 -2.6204  0.6911
 6422SOL     OW20164   1.579   0.696   6.840 -0.3388  0.1015 -0.0708
 6422SOL    HW120165   1.588   0.716   6.938  1.1886 -1.6245  0.1925
 6422SOL    HW220166   1.632   0.763   6.788  0.0895  0.1372  0.4000
 6423SOL     OW20167   0.832   3.634   4.081 -0.2922 -0.4556  0.0561
 6423SOL    HW120168   0.911   3.601   4.031  1.4699 -0.4738  2.6455
 6423SOL    HW220169   0.826   3.734   4.072 -1.0228 -0.6190 -1.5073
 6424SOL     OW20170   6.084   3.812   4.804  0.0349  0.0675  1.0840
 6424SOL    HW120171   6.117   3.834   4.896 -0.4239 -1.6685  1.7002
 6424SOL    HW220172   5.985   3.819   4.802  0.1272  1.4874  0.2990
 6425SOL     OW20173   0.597   0.281   3.126  0.3623 -0.2203  0.2254
 6425SOL    HW120174   0.626   0.207   3.065 -0.7571 -0.1040 -0.4671
 6425SOL    HW220175   0.652   0.277   3.210  2.1241 -0.2049 -0.8653
 6426SOL     OW20176   4.927   5.272   4.256 -0.3646 -0.2277 -0.2460
 6426SOL    HW120177   4.932   5.312   4.348 -1.6727 -0.1609 -0.1877
 6426SOL    HW220178   5.014   5.287   4.209 -0.4005  1.7137  0.1941
 6427SOL     OW20179   2.867   3.586   2.492 -0.0918 -0.3006  0.3615
 6427SOL    HW120180   2.865   3.672   2.544 -2.0249 -0.0601 -0.0362
 6427SOL    HW220181   2.862   3.607   2.395  0.7263 -0.8399  0.2011
 6428SOL     OW20182   6.098   5.184   4.470 -0.1583 -0.6561 -0.0539
 6428SOL    HW120183   6.062   5.093   4.449 -2.8015  0.0616  1.0411
 6428SOL    HW220184   6.125   5.187   4.566 -2.1200  0.2626  0.5177
 6429SOL     OW20185   2.028   1.226   2.787 -0.0658 -0.0178 -0.1124
 6429SOL    HW120186   2.044   1.175   2.871  0.2173 -0.0374 -0.1771
 6429SOL    HW220187   1.946   1.282   2.797 -1.3724 -1.7466 -0.6227
 6430SOL     OW20188   6.408   0.204   5.054 -0.4448 -0.0876  0.5868
 6430SOL    HW120189   6.356   0.263   4.993 -0.4811 -0.1057  0.5994
 6430SOL    HW220190   6.493   0.249   5.081 -0.4425 -0.0683  0.5456
 6431SOL     OW20191   3.245   5.540   3.147  0.1113  0.4094  0.0815
 6431SOL    HW120192   3.206   5.532   3.056  0.1334  0.7347  0.0444
 6431SOL    HW220193   3.177   5.574   3.211  0.2762  0.7821  0.0584
 6432SOL     OW20194   4.310   4.174   6.608 -0.1336  0.3802 -0.0327
 6432SOL    HW120195   4.377   4.219   6.548  0.9719  0.3125  1.1041
 6432SOL    HW220196   4.239   4.240   6.633  1.3449  1.4973  1.4311
 6433SOL     OW20197   2.607   6.929   5.527 -0.0955  0.3823  0.5553
 6433SOL    HW120198   2.699   6.891   5.523  0.2496  1.2343  0.1669
 6433SOL    HW220199   2.610   7.027   5.507 -1.1523  0.3080 -0.0648
 6434SOL     OW20200   6.877   3.619   5.910 -0.8305  0.3550  0.0029
 6434SOL    HW120201   6.888   3.685   5.985 -1.5906  0.4933  0.0059
 6434SOL    HW220202   6.861   3.528   5.948 -1.8820  0.5341  0.0399
 6435SOL     OW20203   3.782   0.550   1.761  0.3696  0.4757 -0.0651
 6435SOL    HW120204   3.809   0.622   1.698  3.0109 -0.1413  0.2591
 6435SOL    HW220205   3.745   0.590   1.845  1.5911  1.4713  0.0254
 6436SOL     OW20206   0.705   1.508   3.485 -0.5673  0.4967  0.4687
 6436SOL    HW120207   0.657   1.596   3.479 -0.9272  0.5640  3.1328
 6436SOL    HW220208   0.717   1.483   3.581 -1.5778 -2.9925 -0.1689
 6437SOL     OW20209   0.488   3.587   0.486  0.1512 -0.1883 -0.0278
 6437SOL    HW120210   0.481   3.593   0.586 -0.5900  0.5206 -0.1090
 6437SOL    HW220211   0.578   3.551   0.461  0.1301 -0.9549  0.9067
 6438SOL     OW20212   1.745   6.293   1.994  0.3368 -0.0434 -0.2545
 6438SOL    HW120213   1.844   6.284   1.982  0.4313 -0.3676  0.6877
 6438SOL    HW220214   1.698   6.257   1.914  0.9897  0.4982 -0.8942
 6439SOL     OW20215   3.597   6.466   2.960  0.3679  0.1722 -0.0264
 6439SOL    HW120216   3.661   6.502   2.892  0.1337  1.1183  0.2366
 6439SOL    HW220217   3.536   6.401   2.916  0.5268  0.4123 -0.6205
 6440SOL     OW20218   4.814   0.882   0.069  0.4716 -0.0196 -0.4133
 6440SOL    HW120219   4.744   0.822   0.031  0.2369  0.0352 -0.0708
 6440SOL    HW220220   4.775   0.937   0.143  0.8683  0.0306 -0.2351
 6441SOL     OW20221   0.603   3.060   0.140  0.0623  0.7684 -0.2243
 6441SOL    HW120222   0.567   3.011   0.219  0.8204  1.6909  0.7230
 6441SOL    HW220223   0.528   3.103   0.090 -0.3942  0.4724  0.1968
 6442SOL     OW20224   4.349   2.441   3.409 -0.5958  0.1485 -0.2205
 6442SOL    HW120225   4.321   2.486   3.325  2.0612 -0.4291 -1.5191
 6442SOL    HW220226   4.374   2.510   3.477  0.4185  0.6708 -1.0964
 6443SOL     OW20227   3.446   0.843   6.488 -0.3246 -0.7661  0.2240
 6443SOL    HW120228   3.395   0.912   6.437 -0.0162 -0.7055 -0.0038
 6443SOL    HW220229   3.384   0.795   6.551 -0.7149 -0.8605 -0.2246
 6444SOL     OW20230   6.787   3.721   6.415  0.3229  0.0116 -0.4969
 6444SOL    HW120231   6.750   3.638   6.456 -0.0579  1.0181  1.2841
 6444SOL    HW220232   6.713   3.781   6.386  0.5808  0.2362 -0.7017
 6445SOL     OW20233   3.390   3.470   4.313  0.0982 -0.8206  0.2232
 6445SOL    HW120234   3.331   3.550   4.306  0.1000 -0.8580 -0.2594
 6445SOL    HW220235   3.335   3.388   4.324  0.1401 -0.5889  2.4812
 6446SOL     OW20236   0.471   1.492   1.179  0.1213 -0.0889 -0.2366
 6446SOL    HW120237   0.556   1.510   1.228 -0.2194 -1.5322  0.9798
 6446SOL    HW220238   0.488   1.430   1.103  0.5941  1.8951 -1.8458
 6447SOL     OW20239   0.467   6.033   6.814  0.2778 -0.5126 -0.0939
 6447SOL    HW120240   0.508   6.023   6.724 -0.0893  0.4655 -0.3810
 6447SOL    HW220241   0.523   6.095   6.869 -0.7718  0.8424 -0.4918
 6448SOL     OW20242   4.917   4.359   0.769 -0.3888  0.3886  0.3957
 6448SOL    HW120243   4.935   4.285   0.833  1.9981 -0.0038 -0.6269
 6448SOL    HW220244   4.840   4.334   0.709  0.4861 -1.3804 -0.0601
 6449SOL     OW20245   6.234   6.449   0.796  0.0452 -0.1263 -0.5146
 6449SOL    HW120246   6.244   6.362   0.843  0.5201 -0.3522 -1.0211
 6449SOL    HW220247   6.177   6.437   0.714  1.1021 -0.2274 -1.2519
 6450SOL     OW20248   4.712   2.960   1.568  0.5144 -0.4102 -0.0103
 6450SOL    HW120249   4.626   2.962   1.619  1.3191  1.3460  1.3950
 6450SOL    HW220250   4.692   2.968   1.470 -0.9017  0.9220  0.3431
 6451SOL     OW20251   4.679   3.490   0.518 -0.5125  0.0483  0.2151
 6451SOL    HW120252   4.621   3.412   0.543 -1.0629  0.5222  0.4230
 6451SOL    HW220253   4.760   3.491   0.577 -2.0033  1.4194  2.3827
 6452SOL     OW20254   4.318   6.515   2.965 -1.0307  0.1602  0.3147
 6452SOL    HW120255   4.329   6.463   3.051 -0.7021 -0.1612  0.0799
 6452SOL    HW220256   4.286   6.607   2.986  2.4446  1.3447  1.0964
 6453SOL     OW20257   2.986   6.921   3.376  0.2408  0.5870 -0.0162
 6453SOL    HW120258   3.025   6.940   3.466  1.5393 -0.7405 -0.2635
 6453SOL    HW220259   3.058   6.894   3.313 -0.8899 -0.3594 -0.9510
 6454SOL     OW20260   3.943   3.636   6.281 -0.1445  0.9652 -0.2968
 6454SOL    HW120261   3.853   3.623   6.241 -0.5074  2.2368  0.0866
 6454SOL    HW220262   3.936   3.636   6.381 -0.0760  3.2642 -0.2546
 6455SOL     OW20263   6.970   4.907   5.861 -0.0693  0.3781  0.7661
 6455SOL    HW120264   6.963   4.966   5.781 -1.3210 -1.4123 -0.5297
 6455SOL    HW220265   6.899   4.931   5.927 -1.6784 -0.6893 -0.5039
 6456SOL     OW20266   6.115   1.862   4.711 -0.3064 -0.3911 -0.7862
 6456SOL    HW120267   6.086   1.956   4.695  2.0128  0.2976 -1.3487
 6456SOL    HW220268   6.130   1.848   4.809 -2.0734 -0.6683 -0.5247
 6457SOL     OW20269   2.333   0.021   3.612 -0.2693  0.3903  0.3789
 6457SOL    HW120270   2.301   0.011   3.706  1.0801  0.7055  0.8997
 6457SOL    HW220271   2.286   0.098   3.569 -0.4706  0.6227  1.0027
 6458SOL     OW20272   2.137   0.504   5.675 -0.7186  0.1532  0.1159
 6458SOL    HW120273   2.103   0.553   5.595 -1.3027 -1.2770 -0.5519
 6458SOL    HW220274   2.084   0.529   5.756 -0.8073  0.8296 -0.1493
 6459SOL     OW20275   6.126   2.899   3.872 -0.4556  0.3370  0.0682
 6459SOL    HW120276   6.039   2.890   3.823 -0.6021  0.8909  0.2214
 6459SOL    HW220277   6.108   2.922   3.967 -0.1910 -1.2475  0.5370
 6460SOL     OW20278   0.567   3.339   5.233 -0.1871 -0.0698 -0.0790
 6460SOL    HW120279   0.473   3.339   5.198 -0.4723 -1.6082  0.6125
 6460SOL    HW220280   0.617   3.264   5.191  0.0634 -0.6672  1.2474
 6461SOL     OW20281   0.354   5.314   1.699 -0.1203 -0.0242  0.0992
 6461SOL    HW120282   0.319   5.262   1.777 -1.0923 -0.3778 -0.5433
 6461SOL    HW220283   0.335   5.411   1.713  0.0979 -0.0346  0.4924
 6462SOL     OW20284   2.760   2.599   6.167 -0.0369 -0.3823  0.5263
 6462SOL    HW120285   2.716   2.517   6.202  0.7782  0.0117  2.6634
 6462SOL    HW220286   2.744   2.675   6.231 -0.2922  0.9995 -1.1004
 6463SOL     OW20287   4.808   3.224   0.968 -0.0916  0.1858 -0.2686
 6463SOL    HW120288   4.895   3.178   0.947  0.1400 -0.8092  2.5009
 6463SOL    HW220289   4.732   3.167   0.936  0.2372 -0.1240 -0.5077
 6464SOL     OW20290   1.616   2.478   4.669  0.2890  0.4945 -0.0123
 6464SOL    HW120291   1.630   2.536   4.589  0.6307  1.4052  0.6923
 6464SOL    HW220292   1.532   2.425   4.658  1.3412 -0.9019 -1.8580
 6465SOL     OW20293   3.059   2.053   4.109  0.2844 -0.2812 -0.1460
 6465SOL    HW120294   2.998   2.124   4.073  1.5455  1.2560  0.6282
 6465SOL    HW220295   3.018   2.013   4.191  0.2518  0.6461  0.2987
 6466SOL     OW20296   5.669   6.166   5.963  0.4057  0.1365 -0.1556
 6466SOL    HW120297   5.667   6.082   6.017  0.8803 -0.0926 -0.4913
 6466SOL    HW220298   5.763   6.195   5.950  0.3142  0.0570 -1.0709
 6467SOL     OW20299   4.298   2.510   5.386  0.1172 -0.1977 -0.1512
 6467SOL    HW120300   4.383   2.505   5.333  0.7596  0.9211  0.7467
 6467SOL    HW220301   4.221   2.523   5.323  0.8269  0.8151 -0.8512
 6468SOL     OW20302   6.288   2.198   5.208 -0.1618 -0.0830 -0.2562
 6468SOL    HW120303   6.299   2.283   5.258 -0.6060  1.9488 -3.3123
 6468SOL    HW220304   6.216   2.143   5.250 -1.9717  2.4482  0.1823
 6469SOL     OW20305   3.329   0.594   1.572  0.4824  0.0160 -0.0648
 6469SOL    HW120306   3.240   0.587   1.618  1.0535 -0.8539  0.9271
 6469SOL    HW220307   3.328   0.536   1.490  1.0270 -2.2546  1.4491
 6470SOL     OW20308   5.872   0.541   0.824 -0.2299 -0.1383  0.4382
 6470SOL    HW120309   5.816   0.520   0.744  1.8279 -3.1809 -0.3832
 6470SOL    HW220310   5.825   0.513   0.907 -0.5280 -1.3508 -0.1228
 6471SOL     OW20311   6.908   5.800   5.220 -0.2947  0.0077  0.5027
 6471SOL    HW120312   6.972   5.810   5.143 -2.9856  0.8273 -1.7862
 6471SOL    HW220313   6.901   5.703   5.244  0.9831 -0.2080  0.0861
 6472SOL     OW20314   0.303   6.287   0.731  1.0106  0.0111  0.3904
 6472SOL    HW120315   0.347   6.363   0.778  0.8357  0.1788  0.2843
 6472SOL    HW220316   0.204   6.295   0.739  0.9869 -0.1036  0.2204
 6473SOL     OW20317   5.327   1.806   4.362 -0.2905  0.2906  0.1704
 6473SOL    HW120318   5.329   1.873   4.288 -1.0570  0.0985 -0.0348
 6473SOL    HW220319   5.341   1.853   4.450  2.0848  0.3488 -0.1670
 6474SOL     OW20320   4.258   0.577   2.943 -0.4397 -0.1135 -0.4324
 6474SOL    HW120321   4.277   0.663   2.990  1.0948 -0.7291  0.1479
 6474SOL    HW220322   4.309   0.574   2.857 -1.9336  0.3011 -1.3781
 6475SOL     OW20323   6.041   6.364   5.654  0.9901  0.2029 -0.2493
 6475SOL    HW120324   6.033   6.421   5.573 -2.2003  0.2819  0.0043
 6475SOL    HW220325   6.135   6.368   5.689  1.9664  1.6488 -2.7981
 6476SOL     OW20326   5.772   3.445   1.499  0.4018  0.1343 -0.6148
 6476SOL    HW120327   5.835   3.441   1.577 -0.2333 -2.8103 -0.1495
 6476SOL    HW220328   5.825   3.461   1.415  1.2620  1.7609  0.1794
 6477SOL     OW20329   1.414   0.347   1.431  0.3175  0.3787  0.3623
 6477SOL    HW120330   1.407   0.423   1.496  2.1836  0.5035  0.4618
 6477SOL    HW220331   1.507   0.342   1.396 -0.4281 -0.2619 -1.6408
 6478SOL     OW20332   2.332   0.128   1.011  0.0453  0.4580  0.3924
 6478SOL    HW120333   2.256   0.165   0.958  0.5731  1.4957  0.3237
 6478SOL    HW220334   2.363   0.197   1.077  1.3856  0.3376 -0.0769
 6479SOL     OW20335   4.953   5.640   3.823  0.0148  0.5316  0.1820
 6479SOL    HW120336   5.001   5.591   3.750 -0.7753 -0.0506  0.0349
 6479SOL    HW220337   4.963   5.589   3.909  0.7386  1.0882  0.4336
 6480SOL     OW20338   3.586   6.712   4.092  0.1343  0.1368 -0.0099
 6480SOL    HW120339   3.668   6.704   4.035 -0.2450  2.7734 -1.0675
 6480SOL    HW220340   3.512   6.658   4.051  0.9422 -1.2650  0.2853
 6481SOL     OW20341   3.027   3.135   2.268 -0.0649  0.1187  0.0373
 6481SOL    HW120342   2.976   3.179   2.341 -0.0092 -1.1465  0.8726
 6481SOL    HW220343   3.109   3.187   2.248 -1.1655  1.6581 -0.6582
 6482SOL     OW20344   6.094   3.983   4.130 -0.6638 -0.3328  0.1487
 6482SOL    HW120345   6.185   4.020   4.111 -0.5909 -0.3448  0.4623
 6482SOL    HW220346   6.036   3.993   4.050  0.5034 -3.1567 -1.1713
 6483SOL     OW20347   1.967   0.922   5.523  0.2257 -0.2058 -0.2201
 6483SOL    HW120348   2.003   0.948   5.613 -0.6007 -0.0954  0.0900
 6483SOL    HW220349   2.034   0.866   5.475  2.3175  2.7863 -1.1173
 6484SOL     OW20350   5.385   6.641   5.536 -0.5441  0.1139  0.3540
 6484SOL    HW120351   5.377   6.542   5.544 -2.7334  0.2194  0.2627
 6484SOL    HW220352   5.446   6.664   5.460  0.2675 -1.1517  0.6009
 6485SOL     OW20353   1.674   4.401   3.919 -0.1240 -0.3391  0.3695
 6485SOL    HW120354   1.723   4.425   4.002 -2.2569 -0.0974  1.6387
 6485SOL    HW220355   1.609   4.327   3.938 -0.4090 -0.5200 -1.1622
 6486SOL     OW20356   6.843   2.336   1.601 -0.3274  0.4621  0.2841
 6486SOL    HW120357   6.897   2.401   1.655 -1.7704  1.5081  0.5261
 6486SOL    HW220358   6.869   2.243   1.625 -0.8674  0.8884  2.7493
 6487SOL     OW20359   6.853   4.728   3.482  0.5735  0.4165 -0.3837
 6487SOL    HW120360   6.764   4.682   3.493  1.5306 -1.1246  1.4436
 6487SOL    HW220361   6.855   4.811   3.539  0.2720  0.5278 -0.5319
 6488SOL     OW20362   4.265   5.295   1.807 -0.5315  0.0936 -0.7917
 6488SOL    HW120363   4.223   5.207   1.787 -0.2946  0.1014 -1.3452
 6488SOL    HW220364   4.204   5.369   1.779 -1.2034  0.1345  0.6477
 6489SOL     OW20365   0.530   4.982   0.406 -0.1014  0.0036 -0.4429
 6489SOL    HW120366   0.480   5.012   0.325  0.0026 -0.1085 -0.5490
 6489SOL    HW220367   0.474   4.918   0.457 -0.6256  0.9303  0.1795
 6490SOL     OW20368   2.729   1.116   5.784  0.0823  0.3814  0.3018
 6490SOL    HW120369   2.749   1.034   5.731 -0.4333 -0.2551  1.0652
 6490SOL    HW220370   2.797   1.186   5.764 -0.3116  0.2916 -1.4429
 6491SOL     OW20371   0.867   5.763   3.533  0.0063  0.3832 -0.1312
 6491SOL    HW120372   0.955   5.728   3.561 -0.6083 -0.8447  0.3195
 6491SOL    HW220373   0.818   5.798   3.613  0.3445  1.7217 -0.4775
 6492SOL     OW20374   3.088   3.005   2.531  0.1336 -0.1337  0.5936
 6492SOL    HW120375   3.010   2.993   2.469 -0.3734 -2.9547  1.6435
 6492SOL    HW220376   3.058   3.051   2.614 -0.0206  0.2371  0.3373
 6493SOL     OW20377   1.231   4.565   4.318  0.2302 -0.4626 -0.0162
 6493SOL    HW120378   1.267   4.546   4.226  0.7864 -1.4122  0.3814
 6493SOL    HW220379   1.281   4.510   4.385  2.8297  3.2603  1.4296
 6494SOL     OW20380   6.435   2.681   1.031  0.1937  0.0279 -0.1037
 6494SOL    HW120381   6.396   2.679   0.939  2.0991  2.1672 -1.0286
 6494SOL    HW220382   6.502   2.608   1.040  0.1136 -0.0900 -0.4457
 6495SOL     OW20383   1.197   4.920   0.835  0.2592 -0.2461  0.1499
 6495SOL    HW120384   1.247   4.933   0.750  1.0297 -0.5190  0.5489
 6495SOL    HW220385   1.249   4.962   0.910  0.4343 -1.4637  0.7299
 6496SOL     OW20386   3.689   2.390   6.901 -0.2087 -0.0856  0.6839
 6496SOL    HW120387   3.733   2.322   6.842 -1.0679  1.6257 -2.1652
 6496SOL    HW220388   3.749   2.470   6.911 -1.4371  1.1436 -1.0269
 6497SOL     OW20389   1.165   3.411   0.295 -0.0885 -0.1132 -0.1390
 6497SOL    HW120390   1.206   3.492   0.336  2.0847 -1.5399  0.6957
 6497SOL    HW220391   1.094   3.375   0.356  0.7330 -0.2642  0.7579
 6498SOL     OW20392   1.754   4.512   4.723 -0.1551 -0.2235  0.1462
 6498SOL    HW120393   1.849   4.482   4.723  0.2178  0.9036  0.9317
 6498SOL    HW220394   1.746   4.599   4.674 -0.9191 -0.6710 -0.5555
 6499SOL     OW20395   4.945   6.904   3.367 -0.1438 -0.1356 -0.4570
 6499SOL    HW120396   4.906   6.813   3.380 -0.3289  0.0276  0.1404
 6499SOL    HW220397   5.040   6.905   3.398 -0.8475  0.4902  1.9081
 6500SOL     OW20398   1.166   3.078   2.822  0.3643  0.0005 -0.3935
 6500SOL    HW120399   1.118   3.096   2.736  1.8195  0.2070 -1.2053
 6500SOL    HW220400   1.254   3.125   2.821  1.0655 -1.2246  0.5849
 6501SOL     OW20401   5.582   0.368   1.766 -0.3062  0.6029  0.5155
 6501SOL    HW120402   5.524   0.346   1.844  0.0626 -0.2314  0.5603
 6501SOL    HW220403   5.672   0.325   1.779 -0.5518 -0.3553 -0.8284
 6502SOL     OW20404   0.125   2.185   3.444 -0.0446 -0.1378 -0.0201
 6502SOL    HW120405   0.194   2.170   3.515 -0.4533 -0.9904  0.2077
 6502SOL    HW220406   0.168   2.226   3.364  0.6383 -0.2159  0.2997
 6503SOL     OW20407   1.465   3.908   6.313  0.5430 -0.7540  0.6079
 6503SOL    HW120408   1.374   3.949   6.304  1.2236  1.0979  1.7748
 6503SOL    HW220409   1.460   3.811   6.287 -1.0963 -0.0017 -2.3071
 6504SOL     OW20410   3.246   6.581   3.618  0.4052 -0.1429  0.0674
 6504SOL    HW120411   3.308   6.543   3.686  1.1273 -2.0053 -1.5329
 6504SOL    HW220412   3.157   6.598   3.660  0.8054 -1.2986  1.4737
 6505SOL     OW20413   0.342   0.725   6.498  0.1508  0.2916  0.6223
 6505SOL    HW120414   0.292   0.768   6.423  0.7327 -4.2396 -2.7671
 6505SOL    HW220415   0.278   0.676   6.558 -0.0095 -2.7618 -1.8108
 6506SOL     OW20416   0.387   4.713   3.060  0.6848  0.2529  0.1615
 6506SOL    HW120417   0.390   4.812   3.072  0.6172  0.3997 -0.9475
 6506SOL    HW220418   0.295   4.685   3.035  0.7882 -0.0479  0.1138
 6507SOL     OW20419   4.823   5.321   1.058 -0.1509  0.1920  0.4343
 6507SOL    HW120420   4.760   5.246   1.038  0.0939 -0.1388  0.8914
 6507SOL    HW220421   4.859   5.357   0.972 -2.3153  1.5878  0.0449
 6508SOL     OW20422   5.988   1.872   4.032  0.2516 -0.8632 -0.2026
 6508SOL    HW120423   5.981   1.781   3.991 -0.4546 -0.9582  0.1303
 6508SOL    HW220424   5.948   1.872   4.123  0.8493 -0.3775  0.0730
 6509SOL     OW20425   2.882   3.000   6.390  0.1810 -0.4684 -0.3983
 6509SOL    HW120426   2.926   2.984   6.478 -0.9804 -0.0078  0.2892
 6509SOL    HW220427   2.949   2.989   6.316  1.5334  0.6086  0.6274
 6510SOL     OW20428   5.787   4.513   4.223 -0.7469  0.1548  0.1104
 6510SOL    HW120429   5.760   4.609   4.233  1.2842  0.9070 -0.8947
 6510SOL    HW220430   5.827   4.500   4.132 -0.1690 -1.4305  0.5608
 6511SOL     OW20431   3.654   5.480   5.871 -0.1115 -0.5174 -0.5296
 6511SOL    HW120432   3.747   5.516   5.874  0.0553 -0.9466 -0.5055
 6511SOL    HW220433   3.648   5.410   5.800  0.1183 -1.9617  0.8271
 6512SOL     OW20434   4.125   0.591   3.745 -0.2701  0.0868 -0.5227
 6512SOL    HW120435   4.177   0.647   3.682  2.0241  0.9090  1.9353
 6512SOL    HW220436   4.184   0.559   3.819 -2.2031 -3.0031 -0.0921
 6513SOL     OW20437   3.341   2.315   5.794  0.1443  0.5170 -0.6427
 6513SOL    HW120438   3.313   2.398   5.844 -1.6669  0.1078 -0.8913
 6513SOL    HW220439   3.435   2.325   5.763  0.7207  1.5587  1.2389
 6514SOL     OW20440   5.756   6.425   5.618 -0.0207  0.2177  0.1593
 6514SOL    HW120441   5.719   6.497   5.676  1.9397  0.0857  1.6749
 6514SOL    HW220442   5.826   6.374   5.668 -0.0614 -1.5773 -1.4884
 6515SOL     OW20443   6.305   3.476   1.716  0.3183 -0.4240  0.2040
 6515SOL    HW120444   6.344   3.506   1.629 -0.2747 -0.4302 -0.0632
 6515SOL    HW220445   6.321   3.378   1.728 -2.0304 -1.0432 -1.2090
 6516SOL     OW20446   4.832   6.644   3.417 -0.0337  0.4827 -0.1957
 6516SOL    HW120447   4.761   6.649   3.487  0.7919 -0.6690  0.7674
 6516SOL    HW220448   4.802   6.585   3.343  0.9774 -2.4834  1.6059
 6517SOL     OW20449   5.590   4.968   1.196 -0.3539 -0.5715 -0.0847
 6517SOL    HW120450   5.557   5.062   1.201 -0.5743 -0.5818 -1.1606
 6517SOL    HW220451   5.670   4.964   1.135  2.8026 -0.2545  3.6070
 6518SOL     OW20452   0.571   2.084   2.944  0.5857 -0.2649 -0.2203
 6518SOL    HW120453   0.642   2.152   2.930  0.7123 -0.1233  0.9444
 6518SOL    HW220454   0.561   2.067   3.042 -1.7564  0.5787 -0.2274
 6519SOL     OW20455   3.228   1.909   3.798  0.1368  0.0384  0.2736
 6519SOL    HW120456   3.275   1.997   3.806 -1.6692  1.0794  0.0961
 6519SOL    HW220457   3.197   1.879   3.888 -0.5031  0.3321  0.1584
 6520SOL     OW20458   5.462   6.698   6.533 -0.3766  0.2718  0.3989
 6520SOL    HW120459   5.377   6.750   6.534 -1.2978 -1.1632  1.1285
 6520SOL    HW220460   5.450   6.615   6.478  0.3120 -0.2984  1.0822
 6521SOL     OW20461   2.018   5.332   3.816 -0.4341  0.0593  0.7079
 6521SOL    HW120462   2.004   5.424   3.779 -0.2079  0.2117  1.0002
 6521SOL    HW220463   1.962   5.320   3.898 -0.6480 -0.1491  0.5335
 6522SOL     OW20464   3.436   1.500   5.323  0.0717 -0.2356 -0.5465
 6522SOL    HW120465   3.513   1.563   5.312 -1.5435  1.8278 -0.6746
 6522SOL    HW220466   3.424   1.446   5.239 -0.2323  1.3759 -1.5788
 6523SOL     OW20467   6.414   6.516   0.542 -0.4391  0.7845  0.3255
 6523SOL    HW120468   6.334   6.461   0.515 -0.4748  0.7552  0.4917
 6523SOL    HW220469   6.419   6.521   0.642 -0.1914  0.7264  0.3156
 6524SOL     OW20470   5.304   3.210   0.377  0.1113 -0.1630 -0.2749
 6524SOL    HW120471   5.368   3.153   0.324  0.8903  0.3282  0.1277
 6524SOL    HW220472   5.354   3.260   0.447 -0.9830 -1.2842  1.3935
 6525SOL     OW20473   1.659   6.730   3.818 -0.2923  0.4498  0.7172
 6525SOL    HW120474   1.630   6.718   3.723 -1.4180 -0.5359  1.1607
 6525SOL    HW220475   1.648   6.825   3.844 -0.4469  0.6346  0.0128
 6526SOL     OW20476   5.377   0.813   5.843 -0.6953 -0.5157 -0.7595
 6526SOL    HW120477   5.361   0.881   5.915  1.1526 -0.2533 -0.5461
 6526SOL    HW220478   5.378   0.722   5.884 -2.2075 -0.5992 -0.8861
 6527SOL     OW20479   5.135   4.598   6.691  0.5479  0.0237  0.1794
 6527SOL    HW120480   5.180   4.537   6.756 -1.0317 -1.5883 -0.1773
 6527SOL    HW220481   5.108   4.547   6.610 -2.4641  0.7181  0.6283
 6528SOL     OW20482   3.702   5.775   5.905  0.0275  0.0564  0.2226
 6528SOL    HW120483   3.731   5.721   5.985  0.1765 -0.8558 -0.4299
 6528SOL    HW220484   3.775   5.775   5.837  0.0174  1.0867  0.1991
 6529SOL     OW20485   2.699   4.288   1.217 -0.9034 -0.1126 -0.3045
 6529SOL    HW120486   2.754   4.261   1.295 -0.6952  0.1917 -0.3468
 6529SOL    HW220487   2.604   4.299   1.245 -0.4672  2.2458  0.4308
 6530SOL     OW20488   1.670   2.200   4.738  0.1403  0.2093 -0.2427
 6530SOL    HW120489   1.754   2.163   4.776 -0.7911 -1.5222  0.2103
 6530SOL    HW220490   1.686   2.295   4.710  2.6722 -0.4912 -1.5693
 6531SOL     OW20491   3.890   3.068   3.061 -0.4562 -0.1431 -0.3864
 6531SOL    HW120492   3.795   3.040   3.073 -0.0823 -1.2697  0.1039
 6531SOL    HW220493   3.944   2.990   3.028  0.5414  0.1195  0.5759
 6532SOL     OW20494   0.717   6.993   1.106 -0.3498  0.4050 -0.2241
 6532SOL    HW120495   0.719   6.983   1.205 -1.1717 -0.5964 -0.2891
 6532SOL    HW220496   0.628   7.028   1.077 -0.9862 -1.4869 -0.7450
 6533SOL     OW20497   6.641   3.971   1.989 -0.1676 -0.0204  0.1519
 6533SOL    HW120498   6.598   4.057   1.960  0.2167  0.6539  1.5120
 6533SOL    HW220499   6.723   3.955   1.935 -1.0955 -0.3849 -1.2177
 6534SOL     OW20500   0.788   3.908   4.742  0.1234 -0.3341 -0.3164
 6534SOL    HW120501   0.694   3.875   4.747  0.7183 -1.9510  0.8479
 6534SOL    HW220502   0.824   3.893   4.650 -0.1089 -1.5887 -0.2120
 6535SOL     OW20503   3.760   1.677   1.304  0.4705  0.4305 -0.0568
 6535SOL    HW120504   3.843   1.631   1.336  1.2455  1.3372 -0.7000
 6535SOL    HW220505   3.685   1.657   1.366  0.8171 -1.5340 -0.2164
 6536SOL     OW20506   6.695   6.444   5.570  0.0589  0.1192  0.4743
 6536SOL    HW120507   6.764   6.515   5.559  0.1436  0.2185  1.5021
 6536SOL    HW220508   6.700   6.380   5.494  1.8727 -0.3609  0.9392
 6537SOL     OW20509   5.881   3.292   4.418  0.3959  0.3883  0.1963
 6537SOL    HW120510   5.826   3.211   4.438 -0.1782  0.4051 -1.2101
 6537SOL    HW220511   5.875   3.356   4.495  0.1433 -0.5066  0.9439
 6538SOL     OW20512   1.218   6.647   4.155 -0.3555  0.2799  0.6197
 6538SOL    HW120513   1.287   6.604   4.213  0.9100  0.8538 -0.4201
 6538SOL    HW220514   1.245   6.742   4.135 -1.0134  0.2533 -0.4858
 6539SOL     OW20515   5.675   6.834   1.007 -0.0606 -0.2376  0.6508
 6539SOL    HW120516   5.687   6.756   0.945 -0.5860 -1.3437  1.8866
 6539SOL    HW220517   5.765   6.863   1.040  0.3592  1.2400 -1.5952
 6540SOL     OW20518   0.565   4.572   4.860 -0.1799 -0.1796 -0.1390
 6540SOL    HW120519   0.603   4.596   4.949 -0.0488 -1.0271  0.0355
 6540SOL    HW220520   0.583   4.647   4.796 -0.8441  0.7217  0.6914
 6541SOL     OW20521   2.499   0.502   6.938 -0.4881 -0.0333  0.1486
 6541SOL    HW120522   2.448   0.418   6.924 -1.1667  0.5090 -0.6974
 6541SOL    HW220523   2.494   0.559   6.856  0.6821  0.4557  0.3918
 6542SOL     OW20524   1.122   5.097   6.947  0.6073 -0.0422 -0.0105
 6542SOL    HW120525   1.036   5.134   6.911 -0.0766 -0.5505  1.0519
 6542SOL    HW220526   1.174   5.170   6.991 -0.5588 -0.2203  1.7424
 6543SOL     OW20527   4.738   2.390   3.967 -0.3247 -0.4337  0.3841
 6543SOL    HW120528   4.647   2.432   3.973  0.1293  0.3621  2.5274
 6543SOL    HW220529   4.769   2.366   4.058  1.2754 -1.5197 -0.4092
 6544SOL     OW20530   0.778   3.280   0.614 -0.3630 -0.2398  0.5788
 6544SOL    HW120531   0.807   3.234   0.698 -0.1290 -0.4350  0.3942
 6544SOL    HW220532   0.681   3.262   0.597 -0.0796 -1.3840  0.0608
 6545SOL     OW20533   5.811   5.713   6.122  0.5023  0.3765  0.3913
 6545SOL    HW120534   5.862   5.771   6.186  1.2841 -1.7593  1.7911
 6545SOL    HW220535   5.869   5.691   6.044  0.7432  0.2809  0.5928
 6546SOL     OW20536   3.545   6.130   4.801  0.0920  0.1398  0.2789
 6546SOL    HW120537   3.643   6.116   4.808 -0.1624 -3.7118 -1.5596
 6546SOL    HW220538   3.498   6.065   4.861 -1.3285 -0.5620 -1.5204
 6547SOL     OW20539   6.222   6.440   4.550 -0.4020  0.2597 -0.5033
 6547SOL    HW120540   6.154   6.406   4.486 -1.7344  1.4637  0.2129
 6547SOL    HW220541   6.212   6.394   4.638 -2.6369  2.7169  0.6747
 6548SOL     OW20542   2.792   6.799   5.952 -0.1759  0.1949  0.0944
 6548SOL    HW120543   2.706   6.792   5.901 -0.6798  1.1270  0.7834
 6548SOL    HW220544   2.772   6.800   6.050  0.4873  1.8281  0.2408
 6549SOL     OW20545   1.876   1.027   1.051 -0.5597  0.4360  0.0240
 6549SOL    HW120546   1.884   1.058   1.146 -1.6806 -1.8804  0.9294
 6549SOL    HW220547   1.872   0.928   1.048 -1.0800  0.4652 -2.4320
 6550SOL     OW20548   3.107   6.424   1.634  0.0622  0.5220 -0.1179
 6550SOL    HW120549   3.043   6.477   1.690 -0.0922  0.3195 -0.1022
 6550SOL    HW220550   3.143   6.347   1.687 -1.1950 -0.5288 -0.7401
 6551SOL     OW20551   4.044   6.091   0.439  0.0489  0.4314 -0.1453
 6551SOL    HW120552   4.042   6.181   0.482  1.4609 -0.3371  1.6944
 6551SOL    HW220553   4.061   6.021   0.509  0.2728 -1.1461 -1.6963
 6552SOL     OW20554   1.716   3.439   6.441  0.3255 -0.0761  0.3777
 6552SOL    HW120555   1.787   3.510   6.436 -0.4286  0.6224 -1.3632
 6552SOL    HW220556   1.655   3.459   6.517  1.1877  0.0768  1.0521
 6553SOL     OW20557   1.079   1.080   2.392  0.4910 -0.3475  0.2973
 6553SOL    HW120558   1.107   1.127   2.308  0.3670  0.1077  0.5091
 6553SOL    HW220559   0.982   1.096   2.409 -0.0657 -2.3286 -0.6963
 6554SOL     OW20560   2.605   2.268   4.814  0.4359  0.1842 -0.1887
 6554SOL    HW120561   2.704   2.254   4.821  0.6009  1.1340 -0.5126
 6554SOL    HW220562   2.569   2.301   4.901  0.4055 -0.1186 -0.0843
 6555SOL     OW20563   1.800   2.911   2.801 -0.2972 -0.0319  0.1661
 6555SOL    HW120564   1.732   2.885   2.870 -0.9875  1.9043  0.2817
 6555SOL    HW220565   1.754   2.957   2.725  0.8394  0.8654  0.0037
 6556SOL     OW20566   5.061   2.304   3.979 -0.1189 -0.6716 -0.2909
 6556SOL    HW120567   5.083   2.395   3.945 -1.9768 -0.0369  0.0801
 6556SOL    HW220568   5.035   2.245   3.902  0.4583 -0.7005 -0.4655
 6557SOL     OW20569   2.236   6.534   2.437  0.5302  0.7780  0.5390
 6557SOL    HW120570   2.233   6.434   2.440  0.2366  0.7551 -0.4379
 6557SOL    HW220571   2.233   6.565   2.342  1.1337  1.7047  0.8075
 6558SOL     OW20572   4.844   6.360   2.072 -0.2430  0.0411 -0.6050
 6558SOL    HW120573   4.806   6.391   1.985 -1.4490  0.8506  0.1782
 6558SOL    HW220574   4.773   6.364   2.143 -0.0111 -2.9078 -0.0574
 6559SOL     OW20575   0.493   2.594   1.050  0.2717  0.1889  0.3778
 6559SOL    HW120576   0.527   2.534   1.122 -0.4368  0.4862  0.9722
 6559SOL    HW220577   0.411   2.554   1.009 -1.3069  1.5434  2.0237
 6560SOL     OW20578   0.905   3.812   5.876 -0.0349  0.3003  0.0544
 6560SOL    HW120579   0.827   3.777   5.822  0.3253  0.8135 -0.8179
 6560SOL    HW220580   0.964   3.735   5.901  0.4999  0.1683 -1.4528
 6561SOL     OW20581   0.764   5.571   0.567  0.2588  0.2027 -0.1398
 6561SOL    HW120582   0.842   5.601   0.512  0.3206 -0.4772 -0.4462
 6561SOL    HW220583   0.787   5.576   0.664  0.8435 -0.3803 -0.2378
 6562SOL     OW20584   5.518   4.635   0.274  0.3347 -0.2380 -0.1997
 6562SOL    HW120585   5.494   4.628   0.371  2.3313 -0.6406  0.3138
 6562SOL    HW220586   5.446   4.593   0.219 -0.2560 -1.1425  1.2008
 6563SOL     OW20587   4.982   4.227   6.524  0.2259  0.5584 -0.3174
 6563SOL    HW120588   5.053   4.159   6.539 -1.2299 -1.1120 -0.6768
 6563SOL    HW220589   5.020   4.303   6.471  1.6731 -0.4193 -0.7517
 6564SOL     OW20590   0.070   3.895   3.083  0.3745 -0.2257 -0.1568
 6564SOL    HW120591  -0.024   3.905   3.115 -0.1947 -0.6809 -1.6093
 6564SOL    HW220592   0.129   3.873   3.160 -0.8830 -1.0010  0.6222
 6565SOL     OW20593   5.713   3.494   3.569  0.2712  0.0533  0.0507
 6565SOL    HW120594   5.812   3.496   3.555  0.4158 -1.6632  0.6851
 6565SOL    HW220595   5.693   3.463   3.661 -0.8753 -1.1221 -0.5577
 6566SOL     OW20596   5.506   1.137   3.974  1.5351  0.1535 -0.5183
 6566SOL    HW120597   5.498   1.234   3.996 -1.0444  0.1642 -1.2537
 6566SOL    HW220598   5.476   1.082   4.052  1.5046 -0.0203 -0.6510
 6567SOL     OW20599   3.398   0.693   3.369 -0.1685 -0.5211  0.2142
 6567SOL    HW120600   3.424   0.781   3.328 -1.1678  0.1954  1.0736
 6567SOL    HW220601   3.320   0.654   3.320 -1.0678  0.1118  1.0977
 6568SOL     OW20602   4.729   1.807   0.369 -0.4864  0.3505  0.0354
 6568SOL    HW120603   4.739   1.723   0.316  0.6608  0.0486  0.6894
 6568SOL    HW220604   4.818   1.853   0.376 -0.5188  0.2241  1.8997
 6569SOL     OW20605   1.738   2.629   2.863 -0.2701 -0.2991  0.4191
 6569SOL    HW120606   1.692   2.549   2.826  0.5624 -0.7414  0.3130
 6569SOL    HW220607   1.720   2.708   2.803 -1.2501 -0.3481  0.6310
 6570SOL     OW20608   4.776   0.101   3.753 -0.1750  0.7196  0.4210
 6570SOL    HW120609   4.743   0.040   3.681  0.4562  0.1612  0.5920
 6570SOL    HW220610   4.770   0.054   3.842  0.7629  0.7125  0.4948
 6571SOL     OW20611   4.699   0.345   3.990 -0.5177 -0.5807  0.8667
 6571SOL    HW120612   4.640   0.414   4.032  0.8705  1.4740 -0.4250
 6571SOL    HW220613   4.644   0.286   3.931 -1.5342  0.2038  1.0101
 6572SOL     OW20614   1.525   1.063   5.078 -0.0059  0.0270 -0.4453
 6572SOL    HW120615   1.471   1.138   5.115 -1.9036 -1.2195 -0.5392
 6572SOL    HW220616   1.523   0.986   5.141 -0.2917 -0.8673 -1.5087
 6573SOL     OW20617   1.594   2.397   6.223 -0.8571 -0.1513 -0.1202
 6573SOL    HW120618   1.537   2.349   6.157 -0.0868  0.4940 -1.2760
 6573SOL    HW220619   1.670   2.441   6.176 -1.0951  1.5445  1.0029
 6574SOL     OW20620   0.311   6.420   2.891 -0.2512  0.0403 -0.0039
 6574SOL    HW120621   0.293   6.346   2.826 -0.3429 -0.6833  0.8213
 6574SOL    HW220622   0.254   6.407   2.972 -0.8866  1.4973 -0.1980
 6575SOL     OW20623   6.674   5.335   2.780  0.0753  0.2024 -0.2851
 6575SOL    HW120624   6.596   5.324   2.842  0.4217 -2.1835 -0.1802
 6575SOL    HW220625   6.644   5.319   2.686  0.0669  1.3032 -0.4858
 6576SOL     OW20626   6.168   0.569   3.343  0.1209 -0.4374  0.3571
 6576SOL    HW120627   6.075   0.603   3.333 -0.2434 -1.4434  0.1559
 6576SOL    HW220628   6.229   0.643   3.371 -0.6732  0.3023  0.1423
 6577SOL     OW20629   4.023   0.320   6.579 -0.5077  0.5763  0.5500
 6577SOL    HW120630   4.033   0.221   6.585  1.6555  0.8401  3.0622
 6577SOL    HW220631   3.937   0.348   6.623 -0.2162 -0.0645  1.5518
 6578SOL     OW20632   6.734   6.047   6.963  0.2848  0.2650  1.1105
 6578SOL    HW120633   6.814   5.996   6.994  0.8108  0.8645  0.7639
 6578SOL    HW220634   6.744   6.143   6.990 -1.0594  0.0564  2.4542
 6579SOL     OW20635   1.964   2.511   4.697 -0.0701 -0.2312 -0.3255
 6579SOL    HW120636   1.890   2.445   4.689 -0.7116  0.3762  0.3191
 6579SOL    HW220637   2.015   2.516   4.611 -0.8630 -0.5616 -0.8260
 6580SOL     OW20638   2.464   1.718   6.154  0.5890  0.8830  0.2107
 6580SOL    HW120639   2.406   1.761   6.223 -0.2257  2.2591 -1.2643
 6580SOL    HW220640   2.507   1.788   6.098  3.0440 -0.1430  0.6887
 6581SOL     OW20641   2.557   1.955   1.488 -0.1983 -0.4315  0.6869
 6581SOL    HW120642   2.460   1.955   1.515  0.1181 -1.8742  1.9254
 6581SOL    HW220643   2.564   1.982   1.392 -1.8529 -0.4285  0.5359
 6582SOL     OW20644   5.638   5.507   2.226 -0.6074  0.3956 -0.0810
 6582SOL    HW120645   5.688   5.450   2.160  0.3150  1.7517 -0.6025
 6582SOL    HW220646   5.562   5.455   2.264  0.2717 -1.2228 -0.4289
 6583SOL     OW20647   6.842   4.591   0.782 -0.5518 -0.2079 -0.8236
 6583SOL    HW120648   6.751   4.627   0.802 -0.9106 -1.2872 -0.4455
 6583SOL    HW220649   6.838   4.540   0.696 -0.1417  0.2981 -1.1478
 6584SOL     OW20650   5.438   4.521   6.025 -0.1374  0.2906  0.7662
 6584SOL    HW120651   5.485   4.504   5.938  1.5515  1.1946  1.4519
 6584SOL    HW220652   5.353   4.469   6.028 -0.4918  0.6349 -1.6277
 6585SOL     OW20653   4.328   5.786   0.900 -0.5108 -0.2504  0.0456
 6585SOL    HW120654   4.307   5.803   0.803 -1.9180 -2.3843 -0.0912
 6585SOL    HW220655   4.296   5.864   0.954 -2.9893 -0.5167 -0.8914
 6586SOL     OW20656   5.833   1.706   1.353 -0.2022 -0.0862 -0.1336
 6586SOL    HW120657   5.884   1.634   1.306  1.3219  0.9160 -0.0867
 6586SOL    HW220658   5.735   1.690   1.342  0.1026 -1.9125 -0.4784
 6587SOL     OW20659   2.199   3.499   0.818 -0.5665  0.3813  0.7528
 6587SOL    HW120660   2.230   3.439   0.744 -0.3396  1.1685  0.1962
 6587SOL    HW220661   2.203   3.449   0.904 -0.2195 -0.3504  0.3291
 6588SOL     OW20662   2.485   0.673   0.925  0.0032 -0.3255 -0.2610
 6588SOL    HW120663   2.551   0.748   0.929  0.8465 -1.0552 -0.1034
 6588SOL    HW220664   2.427   0.684   0.844  1.3971 -0.5319 -1.3279
 6589SOL     OW20665   6.452   0.329   1.174 -0.1684 -0.0631  0.0690
 6589SOL    HW120666   6.440   0.230   1.166 -1.8832  0.1929 -0.9465
 6589SOL    HW220667   6.393   0.363   1.247  0.9945  0.1528  0.9491
 6590SOL     OW20668   6.161   5.604   4.669 -0.1007  0.0731 -0.3108
 6590SOL    HW120669   6.155   5.628   4.572 -0.6507  0.3464 -0.2129
 6590SOL    HW220670   6.164   5.505   4.679  2.3738  0.0250 -0.7349
 6591SOL     OW20671   1.774   3.198   2.201 -0.0215 -0.0720 -0.0239
 6591SOL    HW120672   1.778   3.192   2.101 -0.1605  2.0536 -0.2069
 6591SOL    HW220673   1.867   3.208   2.237 -0.0712  0.6962 -0.0909
 6592SOL     OW20674   6.738   0.455   3.453  0.3079 -0.5728 -0.0709
 6592SOL    HW120675   6.823   0.416   3.488 -0.2430 -1.3917  0.3829
 6592SOL    HW220676   6.759   0.526   3.385  1.3707  0.3115  1.1397
 6593SOL     OW20677   0.318   1.719   4.529  0.3791 -0.2131 -0.1897
 6593SOL    HW120678   0.315   1.800   4.470 -1.2732 -0.2500 -0.1926
 6593SOL    HW220679   0.353   1.746   4.619  2.1905 -0.0112 -0.9100
 6594SOL     OW20680   3.351   6.170   3.778  0.3483 -0.4076 -0.1389
 6594SOL    HW120681   3.392   6.103   3.717 -0.8401 -0.3205 -1.0629
 6594SOL    HW220682   3.251   6.167   3.769  0.0705 -0.8372  2.2584
 6595SOL     OW20683   1.524   5.617   4.522  0.2623  0.1915  0.1924
 6595SOL    HW120684   1.577   5.611   4.437  0.2169 -0.6471  0.2173
 6595SOL    HW220685   1.560   5.691   4.579  1.8455 -0.7765  0.5137
 6596SOL     OW20686   5.859   6.893   4.179 -0.8492  0.1967  0.0754
 6596SOL    HW120687   5.956   6.882   4.198 -0.6749  0.1131 -0.8393
 6596SOL    HW220688   5.820   6.960   4.242 -0.1616  0.3627  0.3277
 6597SOL     OW20689   6.975   5.727   2.079  0.2776 -0.7331  0.1113
 6597SOL    HW120690   7.000   5.695   1.987  1.7044  0.1244  0.1666
 6597SOL    HW220691   7.036   5.684   2.146  1.1118  0.7480  0.3531
 6598SOL     OW20692   1.002   6.167   6.997 -0.5241  0.0256  1.1395
 6598SOL    HW120693   0.948   6.191   7.078 -2.3752 -0.5483  0.1216
 6598SOL    HW220694   0.994   6.239   6.929 -2.1289 -1.1756 -0.0079
 6599SOL     OW20695   4.627   6.371   2.266 -0.4944 -0.2083  0.3721
 6599SOL    HW120696   4.690   6.316   2.320 -1.0445 -1.4027 -0.1682
 6599SOL    HW220697   4.609   6.458   2.313  1.3899  0.0799  0.6226
 6600SOL     OW20698   5.307   1.468   5.769 -0.2716  1.0992 -0.1499
 6600SOL    HW120699   5.315   1.490   5.866 -1.0403  1.9361 -0.2659
 6600SOL    HW220700   5.239   1.528   5.726  0.0869  0.7733 -1.2149
 6601SOL     OW20701   1.736   3.497   2.283 -0.4397  0.0365  0.2806
 6601SOL    HW120702   1.777   3.415   2.243 -2.5037 -0.6934 -0.4634
 6601SOL    HW220703   1.761   3.576   2.228 -0.6193 -0.4915 -0.5744
 6602SOL     OW20704   6.478   6.844   0.720 -0.1742 -0.2049  0.1226
 6602SOL    HW120705   6.393   6.816   0.678 -0.8665  3.3777 -1.2328
 6602SOL    HW220706   6.461   6.923   0.780  2.1778  0.8510 -0.4786
 6603SOL     OW20707   6.607   4.350   3.448 -0.6303 -0.0988  0.4259
 6603SOL    HW120708   6.678   4.334   3.516 -0.5851  0.0456  0.4127
 6603SOL    HW220709   6.517   4.337   3.490 -0.6237  0.6338  0.6935
 6604SOL     OW20710   2.312   4.278   2.459  0.0734  0.0186  0.1495
 6604SOL    HW120711   2.257   4.330   2.394 -0.8433  0.8464  1.5511
 6604SOL    HW220712   2.263   4.195   2.485 -1.2865  1.4758  2.5302
 6605SOL     OW20713   6.358   0.031   1.714 -0.3682  0.1004  0.0483
 6605SOL    HW120714   6.425   0.044   1.640 -1.4792 -1.8847 -1.4161
 6605SOL    HW220715   6.398  -0.026   1.785  0.2635  0.9130  0.3623
 6606SOL     OW20716   0.618   4.448   2.824  0.1359  0.5992  0.3857
 6606SOL    HW120717   0.647   4.355   2.802 -0.7454  0.3080  0.4406
 6606SOL    HW220718   0.674   4.514   2.773  1.9989  0.1185  1.6862
 6607SOL     OW20719   0.767   3.760   2.799  0.7292  0.6918  0.0939
 6607SOL    HW120720   0.855   3.740   2.842  0.3402  1.5188  1.3450
 6607SOL    HW220721   0.700   3.691   2.827  0.6667  0.8016  0.2212
 6608SOL     OW20722   1.973   0.151   5.375  0.4198  0.2619 -0.1924
 6608SOL    HW120723   1.963   0.108   5.464  0.5642  0.8914  0.1296
 6608SOL    HW220724   2.038   0.098   5.320  0.3184 -0.1332  0.0637
 6609SOL     OW20725   2.400   2.282   1.506 -1.0240 -0.2715 -0.3130
 6609SOL    HW120726   2.343   2.212   1.549  0.1473 -0.5728  0.8352
 6609SOL    HW220727   2.387   2.280   1.407 -3.8839  0.5174 -0.0191
 6610SOL     OW20728   3.841   6.579   0.019 -0.0645 -0.0618 -0.1393
 6610SOL    HW120729   3.900   6.636  -0.039  0.3277  0.4783  0.7644
 6610SOL    HW220730   3.857   6.483  -0.002  1.8067  0.0295  0.6755
 6611SOL     OW20731   3.213   0.574   5.899 -0.1934 -0.0990  0.3466
 6611SOL    HW120732   3.137   0.526   5.855  0.8531 -1.5397  0.0173
 6611SOL    HW220733   3.277   0.605   5.829  0.4451 -0.5646  0.7137
 6612SOL     OW20734   5.943   2.275   0.381 -0.0105 -0.6149 -0.1436
 6612SOL    HW120735   5.968   2.342   0.310 -0.4866 -0.7771 -0.4654
 6612SOL    HW220736   6.011   2.201   0.382  0.4802 -0.1673  0.1669
 6613SOL     OW20737   4.354   5.485   7.013 -0.2835  0.5583  0.6718
 6613SOL    HW120738   4.294   5.552   7.057 -2.5506  0.4107 -1.9474
 6613SOL    HW220739   4.310   5.396   7.013  0.6210  0.0949 -0.0233
 6614SOL     OW20740   3.344   5.467   6.571 -0.5019  0.1249 -0.1277
 6614SOL    HW120741   3.246   5.479   6.588 -0.5806 -0.6971  0.0304
 6614SOL    HW220742   3.370   5.519   6.490 -1.1984 -0.1614 -0.5451
 6615SOL     OW20743   4.434   6.491   4.039 -0.3772 -0.6479 -0.3151
 6615SOL    HW120744   4.480   6.444   4.114  0.8091 -0.5409 -0.9637
 6615SOL    HW220745   4.345   6.524   4.071  0.5370  0.3204  1.3605
 6616SOL     OW20746   4.163   2.897   6.536  0.2269 -0.2527  0.3256
 6616SOL    HW120747   4.067   2.918   6.553 -0.5451 -0.0046 -3.3430
 6616SOL    HW220748   4.193   2.824   6.597 -2.4914 -0.8511  1.1000
 6617SOL     OW20749   5.100   1.160   3.130 -0.3897  0.1447  0.1273
 6617SOL    HW120750   5.026   1.129   3.069 -1.7158 -0.7116  2.0789
 6617SOL    HW220751   5.172   1.091   3.133 -0.6512 -0.1296  0.0876
 6618SOL     OW20752   5.121   2.993   4.178  0.0354  0.0722  0.5445
 6618SOL    HW120753   5.071   2.933   4.115 -0.2276  0.8461 -0.0042
 6618SOL    HW220754   5.055   3.043   4.235  0.2007  0.7253  0.1688
 6619SOL     OW20755   4.857   6.300   4.285  0.5160 -0.0946  0.6360
 6619SOL    HW120756   4.838   6.316   4.382 -1.7199  2.0268 -0.0465
 6619SOL    HW220757   4.834   6.382   4.232  0.6325 -1.5417 -1.8204
 6620SOL     OW20758   0.649   1.997   4.006  0.1276  0.2264  0.1308
 6620SOL    HW120759   0.654   1.909   4.053  2.4536  0.6043  0.7095
 6620SOL    HW220760   0.585   2.057   4.055 -0.8784 -0.8482  0.1781
 6621SOL     OW20761   3.312   3.039   3.826  0.2169 -0.4149  0.5327
 6621SOL    HW120762   3.373   3.033   3.747  0.0044 -0.8250  0.3936
 6621SOL    HW220763   3.344   2.977   3.898  0.3463 -0.1259  0.7226
 6622SOL     OW20764   6.954   6.279   0.306  0.4279 -0.2813 -0.1879
 6622SOL    HW120765   6.977   6.290   0.209  1.8954  0.0026  0.1639
 6622SOL    HW220766   6.982   6.187   0.336 -0.9687 -0.7547 -0.2611
 6623SOL     OW20767   4.603   3.537   5.427 -0.0097 -0.1989 -0.4347
 6623SOL    HW120768   4.580   3.630   5.455 -0.6406 -0.9002  1.5651
 6623SOL    HW220769   4.625   3.536   5.329  1.9945  2.3898 -0.1349
 6624SOL     OW20770   0.964   1.851   2.375 -0.3597 -0.4472 -0.3937
 6624SOL    HW120771   0.979   1.789   2.452  1.5624 -0.7133 -0.9379
 6624SOL    HW220772   0.921   1.935   2.408  1.4842 -0.0575  1.2322
 6625SOL     OW20773   1.864   3.661   6.475  0.1267 -0.1538  0.3656
 6625SOL    HW120774   1.945   3.690   6.526 -0.4342 -0.7326  1.6359
 6625SOL    HW220775   1.826   3.739   6.424  0.8088  0.3961  0.6897
 6626SOL     OW20776   3.705   5.774   6.380  0.4635 -0.0649  0.1843
 6626SOL    HW120777   3.783   5.832   6.356  1.3011 -1.8259 -1.7059
 6626SOL    HW220778   3.707   5.756   6.479 -0.0249  3.2476  0.9079
 6627SOL     OW20779   3.292   6.905   4.475 -0.5492  0.6265  0.1386
 6627SOL    HW120780   3.289   6.853   4.561 -1.1264  0.2778 -0.0814
 6627SOL    HW220781   3.329   6.847   4.403  1.0987  1.3093  0.3980
 6628SOL     OW20782   4.261   6.795   3.423 -0.0154  0.3401 -0.5481
 6628SOL    HW120783   4.207   6.863   3.474  0.7404  0.4483  0.1217
 6628SOL    HW220784   4.282   6.717   3.482  2.5968  1.3638 -0.0010
 6629SOL     OW20785   4.125   6.156   4.817 -0.1903  0.2786  0.0003
 6629SOL    HW120786   4.134   6.135   4.720 -0.7530  0.3412 -0.0682
 6629SOL    HW220787   4.207   6.124   4.866  0.5370  1.1459 -0.6318
 6630SOL     OW20788   1.834   0.067   6.908  0.1781  0.2139 -0.7448
 6630SOL    HW120789   1.900   0.135   6.940 -1.5137  2.4257 -1.6734
 6630SOL    HW220790   1.769   0.048   6.981  0.0088  0.4437 -0.8346
 6631SOL     OW20791   2.071   2.458   5.938 -0.9021 -0.0723 -0.4939
 6631SOL    HW120792   2.097   2.397   5.863 -1.9780 -0.2935 -0.6982
 6631SOL    HW220793   2.002   2.522   5.906  0.6361  1.6891 -0.4545
 6632SOL     OW20794   3.441   1.396   6.279  0.0921  0.3769 -0.0494
 6632SOL    HW120795   3.481   1.460   6.345 -0.7215  0.0568  0.7829
 6632SOL    HW220796   3.475   1.304   6.297  0.9631  0.5058 -0.9985
 6633SOL     OW20797   5.010   1.442   0.252  0.0713  0.4645 -0.4036
 6633SOL    HW120798   4.977   1.392   0.172  0.3684 -0.8476  0.2604
 6633SOL    HW220799   5.103   1.414   0.272  0.1221  1.0476  0.1906
 6634SOL     OW20800   2.967   1.531   3.783  0.2773  0.2119  0.8977
 6634SOL    HW120801   3.037   1.594   3.751  1.7091 -1.4132  0.6881
 6634SOL    HW220802   2.879   1.554   3.740  1.0040  1.3502 -0.0287
 6635SOL     OW20803   3.424   4.885   6.302  0.2221 -0.4438 -0.1555
 6635SOL    HW120804   3.463   4.923   6.217 -1.8992  0.6666 -0.6984
 6635SOL    HW220805   3.407   4.788   6.290  0.4869 -0.4188 -0.7988
 6636SOL     OW20806   3.811   1.932   1.246  0.2089  0.0684  0.0529
 6636SOL    HW120807   3.817   1.832   1.242  1.6224  0.0156  1.8229
 6636SOL    HW220808   3.821   1.962   1.341 -0.2367  1.9013 -0.4366
 6637SOL     OW20809   6.834   2.885   0.964  0.3426 -0.2311  0.3768
 6637SOL    HW120810   6.853   2.967   0.909 -0.0271 -0.8715 -0.7428
 6637SOL    HW220811   6.754   2.902   1.022 -0.7040 -0.3001 -1.0035
 6638SOL     OW20812   3.047   3.087   4.138  0.4185  0.1951  0.3592
 6638SOL    HW120813   2.961   3.038   4.151  0.0854  0.9436  1.0345
 6638SOL    HW220814   3.122   3.036   4.181  0.2505 -0.2318  0.1528
 6639SOL     OW20815   6.434   2.243   1.994 -1.0203 -0.3945 -0.2659
 6639SOL    HW120816   6.383   2.204   2.070 -2.1830  2.0533  0.3119
 6639SOL    HW220817   6.440   2.342   2.005  1.6352 -0.2869 -1.6945
 6640SOL     OW20818   0.288   2.578   4.490 -0.3653 -0.4159  0.4834
 6640SOL    HW120819   0.268   2.635   4.410  1.4724 -0.8332 -0.3251
 6640SOL    HW220820   0.352   2.627   4.550  0.4597 -1.1964  0.2663
 6641SOL     OW20821   5.798   3.230   0.531  0.2269  0.3996  0.0352
 6641SOL    HW120822   5.817   3.183   0.444  0.2918 -0.2330  0.3800
 6641SOL    HW220823   5.815   3.328   0.520 -0.7728  0.4886 -0.9563
 6642SOL     OW20824   0.158   5.419   6.843  0.3738 -0.5934 -0.4570
 6642SOL    HW120825   0.253   5.426   6.813  0.5642 -1.9813 -0.2298
 6642SOL    HW220826   0.122   5.329   6.819 -0.4885 -0.5377  0.5562
 6643SOL     OW20827   6.893   6.179   5.673  0.0186 -0.5139  0.3461
 6643SOL    HW120828   6.854   6.269   5.693  1.5715  0.4672 -0.7993
 6643SOL    HW220829   6.954   6.186   5.594 -0.1439 -2.6734 -0.0328
 6644SOL     OW20830   2.282   6.811   3.498 -0.0153  0.0014  0.2477
 6644SOL    HW120831   2.307   6.823   3.402 -0.6019  0.9188  0.1980
 6644SOL    HW220832   2.304   6.894   3.550  3.4562 -1.6138  1.6751
 6645SOL     OW20833   5.407   3.432   6.438  0.0138 -0.7438 -0.2229
 6645SOL    HW120834   5.467   3.506   6.409 -1.3872 -0.3398 -2.2949
 6645SOL    HW220835   5.337   3.468   6.500  1.0379 -0.9521  1.0982
 6646SOL     OW20836   5.395   4.753   5.347  0.1751  0.3114 -0.0247
 6646SOL    HW120837   5.480   4.792   5.382  1.6052 -1.6201 -1.1496
 6646SOL    HW220838   5.399   4.751   5.247 -0.6468 -0.9404 -0.0447
 6647SOL     OW20839   1.982   4.024   6.043 -0.6706  0.8413  0.2592
 6647SOL    HW120840   2.031   3.958   5.986 -0.1112  1.8082 -0.4193
 6647SOL    HW220841   1.983   4.114   5.998  0.0163  1.6942  1.8989
 6648SOL     OW20842   4.290   6.417   5.851  0.1114 -0.5042  0.2193
 6648SOL    HW120843   4.373   6.362   5.865  2.5868  2.3544 -1.8549
 6648SOL    HW220844   4.282   6.483   5.926  0.5760  0.1702 -0.3167
 6649SOL     OW20845   5.903   3.592   6.459 -0.1398 -0.6435 -0.6494
 6649SOL    HW120846   5.862   3.533   6.390 -1.2350 -0.1516 -0.4305
 6649SOL    HW220847   5.846   3.673   6.473  0.0805 -0.7063  0.7999
 6650SOL     OW20848   3.087   1.157   5.548  0.1115 -0.6105 -0.1080
 6650SOL    HW120849   3.106   1.239   5.602  0.3077 -0.0947 -0.9484
 6650SOL    HW220850   3.173   1.107   5.532  0.1428 -0.4570 -0.4261
 6651SOL     OW20851   0.104   1.823   4.114 -0.3643  0.1278  0.4107
 6651SOL    HW120852   0.072   1.881   4.039  0.1358  0.9148  0.7903
 6651SOL    HW220853   0.074   1.862   4.201 -1.6647 -1.2311  0.6113
 6652SOL     OW20854   5.807   5.292   6.098  0.3779  0.0330  0.2091
 6652SOL    HW120855   5.850   5.270   6.185 -0.0184  0.9543  0.6633
 6652SOL    HW220856   5.751   5.375   6.109 -0.4325 -0.3768 -0.6830
 6653SOL     OW20857   4.532   3.537   1.570  0.5721  0.1954 -0.5117
 6653SOL    HW120858   4.497   3.446   1.589  0.8017  0.0552 -0.7505
 6653SOL    HW220859   4.490   3.572   1.486 -0.0754  0.6154 -0.0208
 6654SOL     OW20860   6.116   2.577   4.889  0.0846  0.2798  0.0690
 6654SOL    HW120861   6.168   2.513   4.945  1.7631  1.4908 -0.0294
 6654SOL    HW220862   6.103   2.662   4.940 -0.0242  0.7121 -0.6721
 6655SOL     OW20863   5.996   6.324   2.637  0.1817 -0.2303  1.0455
 6655SOL    HW120864   5.911   6.348   2.684  0.1126  0.5474  0.5300
 6655SOL    HW220865   5.992   6.228   2.609 -1.5302  0.3798 -1.0514
 6656SOL     OW20866   6.492   1.432   2.294  0.2666 -0.0186  0.0406
 6656SOL    HW120867   6.540   1.373   2.229 -0.2935 -3.1499  2.2629
 6656SOL    HW220868   6.557   1.474   2.357  0.7746  2.7660 -2.1121
 6657SOL     OW20869   4.278   1.460   5.309  0.1677 -0.1012 -0.4422
 6657SOL    HW120870   4.246   1.374   5.350 -1.2698  0.3828 -0.4977
 6657SOL    HW220871   4.312   1.520   5.381 -1.0591  0.2047 -0.1009
 6658SOL     OW20872   0.188   2.393   5.468  0.0434  0.0192  0.2747
 6658SOL    HW120873   0.146   2.481   5.447  2.2315  0.7456 -1.5020
 6658SOL    HW220874   0.254   2.405   5.542 -1.3865 -0.7099  1.7318
 6659SOL     OW20875   6.881   6.802   1.140 -0.1135  0.0505 -0.3734
 6659SOL    HW120876   6.980   6.788   1.141  0.0670  1.1910 -1.0340
 6659SOL    HW220877   6.838   6.739   1.205  1.2058  0.6856  1.1839
 6660SOL     OW20878   3.051   1.570   5.141 -0.2608 -0.6774  1.2430
 6660SOL    HW120879   3.127   1.577   5.076 -0.7109 -1.2666  0.6405
 6660SOL    HW220880   3.052   1.649   5.201 -0.1629  0.1781  0.1527
 6661SOL     OW20881   3.404   5.658   4.852  0.2298  0.4114 -0.0551
 6661SOL    HW120882   3.398   5.685   4.756  0.5299 -0.1184 -0.2300
 6661SOL    HW220883   3.500   5.647   4.878  0.1789  1.2029  0.4980
 6662SOL     OW20884   1.646   6.187   0.312  0.2342 -0.0521 -0.3000
 6662SOL    HW120885   1.653   6.225   0.405  1.3579 -1.6353  0.3099
 6662SOL    HW220886   1.690   6.248   0.247 -0.9090  1.2777  0.1098
 6663SOL     OW20887   2.571   2.434   5.547 -0.1579 -0.2719 -0.6868
 6663SOL    HW120888   2.635   2.357   5.544  0.1455 -0.1147  0.8770
 6663SOL    HW220889   2.601   2.505   5.484  0.7911 -0.5265 -0.5328
 6664SOL     OW20890   3.958   5.251   1.909  0.6039 -0.6779 -0.0748
 6664SOL    HW120891   3.956   5.343   1.869  1.4552 -0.2514  0.8358
 6664SOL    HW220892   3.938   5.256   2.007 -1.2544 -1.6915 -0.3490
 6665SOL     OW20893   2.866   0.413   6.367  0.1751  0.2537  0.7454
 6665SOL    HW120894   2.819   0.326   6.381 -1.1813  0.7029 -0.7249
 6665SOL    HW220895   2.881   0.458   6.455 -0.4859 -0.7569  1.3931
 6666SOL     OW20896   0.661   1.301   0.520 -0.2022 -0.0400  0.1823
 6666SOL    HW120897   0.759   1.310   0.502 -0.1223 -2.1146 -0.5899
 6666SOL    HW220898   0.611   1.367   0.464  0.7549  1.5673  1.1391
 6667SOL     OW20899   2.252   5.271   6.746 -0.5499  0.3591 -0.0897
 6667SOL    HW120900   2.291   5.339   6.683  0.3642  0.7785  0.8907
 6667SOL    HW220901   2.325   5.214   6.783 -0.9745  0.5407  1.0808
 6668SOL     OW20902   6.963   1.953   0.271 -0.0159 -0.3806 -0.4994
 6668SOL    HW120903   6.997   2.023   0.209 -1.9117  2.0216  0.9885
 6668SOL    HW220904   6.881   1.910   0.232 -0.8750  0.7295  0.0268
 6669SOL     OW20905   1.818   2.729   3.431 -0.2314 -0.3977  0.9037
 6669SOL    HW120906   1.777   2.761   3.516 -0.9361  0.1856  0.3678
 6669SOL    HW220907   1.916   2.716   3.443 -0.2182  0.3125  1.6196
 6670SOL     OW20908   1.877   2.609   1.123  0.1356  0.5889  0.3850
 6670SOL    HW120909   1.782   2.609   1.091  0.2756  2.6971 -0.2432
 6670SOL    HW220910   1.879   2.631   1.221 -0.0214  0.9582  0.3078
 6671SOL     OW20911   4.734   5.709   6.864 -0.0925  0.4520  0.2252
 6671SOL    HW120912   4.691   5.779   6.920 -2.3186 -0.4575 -0.1910
 6671SOL    HW220913   4.704   5.618   6.896  1.7270 -0.2650 -0.0020
 6672SOL     OW20914   2.036   2.377   0.782  0.1885  0.0643 -0.3083
 6672SOL    HW120915   2.000   2.347   0.871  2.8385 -0.6869  0.6141
 6672SOL    HW220916   2.053   2.297   0.724 -0.1208  0.4383 -0.9213
 6673SOL     OW20917   6.200   3.354   3.527 -0.0407 -0.3005 -0.2658
 6673SOL    HW120918   6.282   3.327   3.478 -0.6559 -1.6812 -0.5887
 6673SOL    HW220919   6.188   3.295   3.608 -0.1871  0.5456  0.3450
 6674SOL     OW20920   6.083   1.590   6.443 -0.5148  0.8030  0.4458
 6674SOL    HW120921   6.131   1.571   6.528 -0.6052  2.3211  0.8623
 6674SOL    HW220922   6.120   1.673   6.401  0.7305 -0.8155 -1.9429
 6675SOL     OW20923   5.560   1.081   2.314  0.4473 -0.5104  0.1003
 6675SOL    HW120924   5.579   1.082   2.412 -0.1412  1.9339  0.2638
 6675SOL    HW220925   5.473   1.128   2.297  0.3013 -1.3188 -1.5658
 6676SOL     OW20926   1.754   4.585   5.289 -0.0001 -0.1168 -0.2040
 6676SOL    HW120927   1.732   4.677   5.320  0.1579 -0.0226 -0.3757
 6676SOL    HW220928   1.681   4.552   5.229  0.8941  0.6648 -1.7604
 6677SOL     OW20929   1.408   3.355   4.648  0.3982  0.2194  0.2925
 6677SOL    HW120930   1.457   3.272   4.674 -0.6095 -0.8909 -1.1969
 6677SOL    HW220931   1.445   3.390   4.562 -0.5826  0.0754 -0.2023
 6678SOL     OW20932   3.909   2.452   0.950 -0.5403 -0.3000  0.1394
 6678SOL    HW120933   3.817   2.472   0.916 -0.3448  0.1026 -0.1760
 6678SOL    HW220934   3.927   2.506   1.032 -1.1160 -1.4849  1.0695
 6679SOL     OW20935   2.984   5.529   3.538 -0.3297  0.0894 -0.4981
 6679SOL    HW120936   2.989   5.473   3.456 -1.4713  0.0995 -0.5898
 6679SOL    HW220937   3.018   5.476   3.616  0.7931  0.0951 -0.9676
 6680SOL     OW20938   5.112   4.164   1.030 -0.4854 -0.3211 -0.4058
 6680SOL    HW120939   5.120   4.260   1.057  0.1635 -0.9149  1.7229
 6680SOL    HW220940   5.179   4.143   0.959  0.4108  0.4752  0.1760
 6681SOL     OW20941   3.413   5.551   6.982  0.2147 -0.9744 -0.3382
 6681SOL    HW120942   3.429   5.575   6.886  1.4303 -0.0845  0.0570
 6681SOL    HW220943   3.324   5.506   6.991  0.1307 -1.1671 -1.8898
 6682SOL     OW20944   1.895   3.484   6.718  0.7834 -0.3114 -0.7385
 6682SOL    HW120945   1.932   3.525   6.634  2.3421 -0.4540 -0.1556
 6682SOL    HW220946   1.856   3.556   6.776 -0.5817 -0.2469 -1.6849
 6683SOL     OW20947   0.185   6.413   5.869 -0.4409  0.2351 -0.0635
 6683SOL    HW120948   0.216   6.323   5.899  1.3962  0.7305 -0.3359
 6683SOL    HW220949   0.099   6.435   5.913  0.5411 -0.4233  2.3522
 6684SOL     OW20950   3.570   0.223   5.539 -0.3759  0.2284 -0.3087
 6684SOL    HW120951   3.662   0.246   5.508  0.2954 -1.5414  0.2186
 6684SOL    HW220952   3.537   0.294   5.601 -0.0946  1.7472 -1.8387
 6685SOL     OW20953   4.364   3.791   0.860 -0.0907  0.2069 -0.0235
 6685SOL    HW120954   4.376   3.850   0.940 -1.5204 -1.5993  1.6275
 6685SOL    HW220955   4.306   3.837   0.793 -1.5473  0.5599  1.4150
 6686SOL     OW20956   4.242   5.350   5.108  0.4138 -0.1329 -0.1232
 6686SOL    HW120957   4.205   5.302   5.029  0.8474  0.7803 -0.8993
 6686SOL    HW220958   4.249   5.448   5.088 -0.2172  0.2418  1.3372
 6687SOL     OW20959   1.417   3.259   6.814 -0.5653  0.1107  0.3543
 6687SOL    HW120960   1.440   3.291   6.906 -1.0858 -1.7656  1.1858
 6687SOL    HW220961   1.326   3.217   6.816 -1.0757  1.0701 -1.2918
 6688SOL     OW20962   4.747   6.637   0.504  0.5817  0.7849  0.3197
 6688SOL    HW120963   4.702   6.597   0.425 -0.3647  2.0724  0.1747
 6688SOL    HW220964   4.686   6.703   0.548  0.1316 -1.4677  3.4939
 6689SOL     OW20965   4.705   3.983   6.273  0.2846  0.1873 -0.4676
 6689SOL    HW120966   4.787   4.013   6.322  0.6853  0.3729 -1.2378
 6689SOL    HW220967   4.731   3.918   6.202 -0.1737  0.6658 -1.0762
 6690SOL     OW20968   6.688   0.660   5.141 -0.2434 -0.0623 -0.0559
 6690SOL    HW120969   6.739   0.632   5.060 -0.5528  1.1995 -0.7179
 6690SOL    HW220970   6.751   0.686   5.214  0.2310  3.3898 -1.5102
 6691SOL     OW20971   2.481   0.626   3.491  0.6779  0.7722 -0.0575
 6691SOL    HW120972   2.566   0.578   3.468  0.6079  1.3089 -1.5732
 6691SOL    HW220973   2.484   0.718   3.451 -0.1666  1.1898  0.8130
 6692SOL     OW20974   4.885   4.833   0.914  0.9256 -0.4376  0.2245
 6692SOL    HW120975   4.797   4.851   0.958  1.3567 -0.8601  1.2974
 6692SOL    HW220976   4.913   4.913   0.860 -0.5790 -0.6806 -0.9752
 6693SOL     OW20977   1.600   1.318   5.739 -0.6632  0.5103  0.0324
 6693SOL    HW120978   1.557   1.249   5.797  0.8862 -0.4548  0.0974
 6693SOL    HW220979   1.662   1.374   5.794 -0.0238  0.3106 -0.4691
 6694SOL     OW20980   3.209   3.812   1.508  0.5361  0.5524  0.1303
 6694SOL    HW120981   3.248   3.791   1.418  0.9491  2.6769 -0.2306
 6694SOL    HW220982   3.111   3.830   1.499  0.5719  0.7375  0.1011
 6695SOL     OW20983   3.333   4.213   6.422  0.4822  0.0303 -0.3928
 6695SOL    HW120984   3.363   4.263   6.340  1.0469 -1.2510 -0.9937
 6695SOL    HW220985   3.405   4.150   6.451 -0.5227 -1.0427 -0.1573
 6696SOL     OW20986   2.948   3.735   5.706 -0.0848  0.0272 -0.6542
 6696SOL    HW120987   2.902   3.757   5.792  1.2627  2.3134 -0.4398
 6696SOL    HW220988   2.915   3.646   5.672 -1.9090 -0.1185  1.2988
 6697SOL     OW20989   5.557   0.480   3.284 -0.2086 -0.8403 -0.2104
 6697SOL    HW120990   5.640   0.460   3.231 -1.3759 -2.3405 -1.5755
 6697SOL    HW220991   5.485   0.510   3.222 -0.5536  1.0961  1.0354
 6698SOL     OW20992   2.028   2.873   1.236 -0.5925 -0.6086 -0.0586
 6698SOL    HW120993   2.123   2.901   1.219  0.4401 -3.0974  1.2174
 6698SOL    HW220994   1.967   2.935   1.186  1.5535  2.2025  0.5180
 6699SOL     OW20995   6.747   5.291   3.641 -0.2491 -0.3781 -0.2479
 6699SOL    HW120996   6.820   5.251   3.585 -0.9109 -0.3224 -1.1820
 6699SOL    HW220997   6.785   5.321   3.728  0.9749  0.1819 -0.9398
 6700SOL     OW20998   4.391   0.064   1.625 -0.6299 -0.3619  0.2379
 6700SOL    HW120999   4.430   0.038   1.537  0.5823 -0.0252  0.6571
 6700SOL    HW221000   4.412   0.160   1.644 -3.0859  0.3345 -0.2508
 6701SOL     OW21001   6.376   1.282   1.089 -0.0939 -0.2936 -0.3640
 6701SOL    HW121002   6.407   1.201   1.140 -0.8701  0.3505  1.2198
 6701SOL    HW221003   6.394   1.269   0.992 -0.5184 -2.5424 -0.2114
 6702SOL     OW21004   5.703   1.928   6.835 -0.1356 -0.1540 -1.1796
 6702SOL    HW121005   5.647   1.866   6.782 -2.0360 -0.3158  0.8816
 6702SOL    HW221006   5.645   1.983   6.896  1.9179 -0.7237  1.5012
 6703SOL     OW21007   6.289   0.760   0.365  0.4875 -0.7390 -0.3534
 6703SOL    HW121008   6.250   0.751   0.457  2.0115  0.4673  0.4565
 6703SOL    HW221009   6.248   0.691   0.305 -0.5546 -1.5514  1.2109
 6704SOL     OW21010   2.166   4.151   6.555 -0.2956  0.6833  0.0966
 6704SOL    HW121011   2.131   4.088   6.486 -1.2951  1.7405 -0.3977
 6704SOL    HW221012   2.128   4.127   6.644 -0.0105  0.0859  0.0610
 6705SOL     OW21013   2.583   2.809   1.636  0.0726  0.1538  0.0778
 6705SOL    HW121014   2.611   2.777   1.546 -2.6259 -0.6120 -0.5865
 6705SOL    HW221015   2.583   2.733   1.700  1.1016  0.5032  0.4994
 6706SOL     OW21016   5.771   4.463   6.258 -0.4600 -0.6187  0.0666
 6706SOL    HW121017   5.832   4.462   6.337  0.9235 -1.2367 -0.9725
 6706SOL    HW221018   5.676   4.475   6.289  0.2143  0.8835  1.6660
 6707SOL     OW21019   5.002   0.370   2.842  0.1395 -0.2730  0.0096
 6707SOL    HW121020   4.970   0.365   2.937 -1.8512 -0.2059 -0.6225
 6707SOL    HW221021   5.102   0.378   2.842  0.3566 -1.9781  2.0456
 6708SOL     OW21022   0.029   3.579   1.117  0.1929  0.4118  0.1379
 6708SOL    HW121023   0.027   3.658   1.179 -1.7387 -0.2548  1.0213
 6708SOL    HW221024  -0.061   3.569   1.074  0.0974 -1.7706  0.7062
 6709SOL     OW21025   1.809   4.288   3.044 -0.4688 -0.0358 -0.4311
 6709SOL    HW121026   1.779   4.193   3.057 -0.3483  0.0860  0.8697
 6709SOL    HW221027   1.773   4.344   3.119  1.0073  0.5760 -0.1511
 6710SOL     OW21028   6.984   2.185   2.160  0.5195 -0.6077  0.3919
 6710SOL    HW121029   6.953   2.140   2.244 -1.0831  0.3289  0.3322
 6710SOL    HW221030   7.040   2.121   2.107  0.2375 -1.7357  1.4146
 6711SOL     OW21031   4.982   5.770   0.087 -0.7422  0.7574  0.0376
 6711SOL    HW121032   4.940   5.813   0.167 -1.0643  1.5419 -0.5510
 6711SOL    HW221033   5.014   5.840   0.023  1.1924  0.1782  0.3100
 6712SOL     OW21034   5.783   4.014   1.235 -0.0501  0.0940 -0.2637
 6712SOL    HW121035   5.692   3.979   1.214  0.5949 -0.7282 -1.8718
 6712SOL    HW221036   5.828   3.955   1.302 -0.1186 -0.4222 -0.6658
 6713SOL     OW21037   3.258   6.600   3.942 -0.2790 -1.0138 -0.1300
 6713SOL    HW121038   3.183   6.636   3.887 -0.2724  1.5162  1.3777
 6713SOL    HW221039   3.223   6.569   4.030  0.3971  0.3207  0.6465
 6714SOL     OW21040   4.245   1.694   1.829  0.6037 -0.2705 -0.0905
 6714SOL    HW121041   4.226   1.782   1.874  1.8603  0.6739 -1.3179
 6714SOL    HW221042   4.175   1.677   1.759  0.4427 -0.1662  0.0442
 6715SOL     OW21043   0.139   5.692   5.404 -0.0379 -0.2190 -0.3093
 6715SOL    HW121044   0.138   5.792   5.403 -0.7979 -0.1943  0.9721
 6715SOL    HW221045   0.090   5.658   5.484  0.8031 -1.6173 -0.3386
 6716SOL     OW21046   3.168   4.016   1.264  0.0996 -0.3307  0.3610
 6716SOL    HW121047   3.133   3.979   1.350 -0.2145 -1.3500 -0.1929
 6716SOL    HW221048   3.098   4.075   1.223 -0.9702 -2.2221 -0.6533
 6717SOL     OW21049   6.703   2.537   6.510 -0.2766  0.1855 -0.3840
 6717SOL    HW121050   6.641   2.615   6.512 -2.2117 -1.2413 -0.8460
 6717SOL    HW221051   6.728   2.517   6.415  0.1505  0.1847 -0.2738
 6718SOL     OW21052   4.766   1.726   6.740 -0.1625  0.0643  0.6099
 6718SOL    HW121053   4.755   1.819   6.775  1.4308 -0.3151  2.2894
 6718SOL    HW221054   4.701   1.710   6.666 -1.6243  1.9407  1.4172
 6719SOL     OW21055   1.010   1.337   6.818  0.2822  0.2161  0.0110
 6719SOL    HW121056   0.942   1.343   6.891  0.2936  0.7252 -0.0195
 6719SOL    HW221057   1.051   1.427   6.802  0.4844  0.0507 -0.4272
 6720SOL     OW21058   0.375   1.856   4.080 -0.1626 -0.0256  0.2992
 6720SOL    HW121059   0.408   1.894   4.165 -0.0427 -2.9953  1.7232
 6720SOL    HW221060   0.283   1.819   4.093  0.0920 -1.0782 -0.6545
 6721SOL     OW21061   3.945   5.107   7.003  0.2488 -0.3138 -0.1223
 6721SOL    HW121062   3.943   5.203   6.976  2.1011 -0.0237  0.6360
 6721SOL    HW221063   4.011   5.058   6.945  2.8347 -0.0905  2.4510
 6722SOL     OW21064   5.097   4.660   2.735  0.0318  0.3608  0.6830
 6722SOL    HW121065   5.005   4.622   2.727 -0.0991  0.3357  1.9705
 6722SOL    HW221066   5.091   4.754   2.769  0.4768  0.3413  0.8293
 6723SOL     OW21067   0.744   5.402   4.398  0.0601  0.4041 -0.6899
 6723SOL    HW121068   0.781   5.312   4.420  1.1501  0.8951 -0.4444
 6723SOL    HW221069   0.816   5.471   4.409 -1.2209  1.5599  0.9901
 6724SOL     OW21070   1.873   3.971   3.735 -0.2566  0.2046 -0.9067
 6724SOL    HW121071   1.844   3.888   3.783  0.2480  0.2461 -0.5218
 6724SOL    HW221072   1.926   3.947   3.654 -1.8562  0.1125 -1.9621
 6725SOL     OW21073   4.771   2.860   3.438  0.9003 -0.6646  0.1344
 6725SOL    HW121074   4.777   2.818   3.348  4.8070  0.1401 -0.1287
 6725SOL    HW221075   4.768   2.960   3.429 -1.0337 -0.5869  0.9377
 6726SOL     OW21076   1.746   2.280   0.881  1.0874 -0.2559 -0.0408
 6726SOL    HW121077   1.727   2.375   0.906  2.4610 -0.3183  1.3787
 6726SOL    HW221078   1.774   2.277   0.785 -0.3830  0.5478 -0.5361
 6727SOL     OW21079   0.131   6.321   6.514  0.2465  0.1535  0.3036
 6727SOL    HW121080   0.043   6.362   6.537  0.4461 -0.3450  2.1673
 6727SOL    HW221081   0.196   6.393   6.491 -0.3624  0.6036 -0.0346
 6728SOL     OW21082   4.986   1.987   6.339 -0.3953  0.0335 -0.3286
 6728SOL    HW121083   5.076   1.958   6.373 -0.2904  2.4267  1.7252
 6728SOL    HW221084   4.928   2.012   6.417 -2.2130  0.3000 -1.7108
 6729SOL     OW21085   5.603   0.056   2.879  0.0646  0.3419  0.3121
 6729SOL    HW121086   5.616   0.152   2.856 -3.7065  0.6952 -0.9746
 6729SOL    HW221087   5.603   0.001   2.796  0.9763 -0.6591  0.9342
 6730SOL     OW21088   5.734   4.032   0.246  0.4495 -0.1572 -0.3904
 6730SOL    HW121089   5.789   4.079   0.315 -0.3685  0.3332 -0.0712
 6730SOL    HW221090   5.794   3.974   0.190  1.3421  0.6340 -0.2727
 6731SOL     OW21091   2.931   6.427   6.993  0.2016  0.0901 -0.4222
 6731SOL    HW121092   2.990   6.346   6.999 -1.4425 -1.2817 -1.9350
 6731SOL    HW221093   2.938   6.466   6.901 -2.8104 -1.4414 -1.4214
 6732SOL     OW21094   6.094   6.103   6.180  0.0765 -0.3552  0.3697
 6732SOL    HW121095   6.177   6.056   6.209 -0.5507 -1.6648  0.1478
 6732SOL    HW221096   6.090   6.194   6.222  1.4104 -0.4332  0.6914
 6733SOL     OW21097   4.991   3.858   1.828  0.3731 -0.4889 -0.4696
 6733SOL    HW121098   4.910   3.821   1.782  0.1545  0.2329 -0.6799
 6733SOL    HW221099   4.983   3.843   1.927  0.7831 -1.9317 -0.6410
 6734SOL     OW21100   0.060   4.048   6.321  0.4889  0.3874 -0.2234
 6734SOL    HW121101   0.034   3.966   6.372 -0.7667  0.5663 -0.5447
 6734SOL    HW221102   0.109   4.022   6.238  0.1352 -0.0312 -0.2987
 6735SOL     OW21103   5.194   1.375   5.410  0.2348  0.0599 -0.1923
 6735SOL    HW121104   5.284   1.362   5.452 -0.5953 -1.7186  1.1469
 6735SOL    HW221105   5.180   1.306   5.339  0.2991  0.9772 -1.1254
 6736SOL     OW21106   5.646   3.246   6.491  0.0673 -0.4029 -0.2863
 6736SOL    HW121107   5.571   3.311   6.508  0.7991  0.9214 -1.8136
 6736SOL    HW221108   5.608   3.157   6.468 -1.0914  0.3893 -1.6055
 6737SOL     OW21109   3.678   2.019   2.291  0.1686  0.0160 -0.4889
 6737SOL    HW121110   3.695   2.092   2.225  0.2664  1.5739  1.1720
 6737SOL    HW221111   3.592   1.972   2.268 -0.9533  1.9694 -0.5174
 6738SOL     OW21112   3.065   6.424   2.601 -0.2454 -0.2423  0.4346
 6738SOL    HW121113   3.041   6.464   2.512 -1.2438 -0.2067  0.7125
 6738SOL    HW221114   2.989   6.435   2.664 -0.1545 -1.6666  0.8355
 6739SOL     OW21115   0.047   1.322   5.356  0.5995 -0.1656 -0.2891
 6739SOL    HW121116   0.098   1.296   5.438  2.6701  1.6078 -0.9032
 6739SOL    HW221117   0.065   1.256   5.283 -1.7154 -2.0783  0.7517
 6740SOL     OW21118   1.893   4.765   1.258  0.7794 -0.3247  0.5713
 6740SOL    HW121119   1.993   4.766   1.261  0.8040  0.2471 -0.2753
 6740SOL    HW221120   1.859   4.858   1.248  0.2025 -0.6162 -0.2678
 6741SOL     OW21121   2.930   2.529   1.423 -0.2696 -0.4035  0.3963
 6741SOL    HW121122   2.832   2.525   1.441 -0.7096  0.0499 -1.6549
 6741SOL    HW221123   2.980   2.502   1.505 -2.0758  0.1670  1.7448
 6742SOL     OW21124   0.065   4.924   0.977  0.4008  0.0087  0.2059
 6742SOL    HW121125   0.020   4.839   1.006  1.4158 -0.1799  1.3259
 6742SOL    HW221126   0.010   5.002   1.005 -0.3462 -0.2587 -0.4801
 6743SOL     OW21127   3.671   4.315   5.983 -0.1242 -0.6510 -0.3806
 6743SOL    HW121128   3.751   4.329   5.925 -0.4299 -0.0963 -0.6837
 6743SOL    HW221129   3.688   4.353   6.073 -1.1862  2.5315 -1.3852
 6744SOL     OW21130   1.034   0.263   6.906 -0.9088  0.0036 -0.0012
 6744SOL    HW121131   1.050   0.182   6.962  1.6103 -0.5257 -1.3231
 6744SOL    HW221132   0.946   0.304   6.930 -0.3051 -0.5632  3.7920
 6745SOL     OW21133   4.722   2.763   3.184  0.2459  0.3731  0.3337
 6745SOL    HW121134   4.627   2.765   3.154 -0.1547 -1.3525  1.3818
 6745SOL    HW221135   4.776   2.710   3.119  0.3396  0.6357  0.1929
 6746SOL     OW21136   1.356   2.697   3.753  0.1807  0.7077 -0.8218
 6746SOL    HW121137   1.290   2.770   3.736  1.8024  2.5219  0.1190
 6746SOL    HW221138   1.442   2.738   3.786  1.0767 -1.6801  0.0145
 6747SOL     OW21139   0.568   6.322   3.997  0.6690  0.0710  0.1742
 6747SOL    HW121140   0.502   6.283   4.062  0.8132 -0.0484  0.2511
 6747SOL    HW221141   0.612   6.401   4.037  1.7078 -0.7685  0.7453
 6748SOL     OW21142   1.472   1.176   3.330  0.3082  0.0909 -0.7454
 6748SOL    HW121143   1.553   1.200   3.383 -0.8671  2.0870  0.2642
 6748SOL    HW221144   1.415   1.257   3.317 -0.8604 -0.9508 -2.6657
 6749SOL     OW21145   4.501   5.531   0.232 -0.1330 -0.4297  0.1793
 6749SOL    HW121146   4.496   5.435   0.258 -0.6649 -0.3742  0.3064
 6749SOL    HW221147   4.472   5.541   0.137 -0.4054 -0.3613  0.2660
 6750SOL     OW21148   3.885   1.105   5.660 -0.0209  0.3651  0.4471
 6750SOL    HW121149   3.842   1.015   5.658  0.5002  0.1126 -2.1025
 6750SOL    HW221150   3.831   1.166   5.719 -0.9696 -1.2950  1.3650
 6751SOL     OW21151   3.869   0.076   6.289 -0.3929 -0.8731  0.8853
 6751SOL    HW121152   3.780   0.114   6.264 -0.4493 -0.4579  1.7061
 6751SOL    HW221153   3.941   0.142   6.266 -0.0160 -2.1293 -2.0252
 6752SOL     OW21154   1.118   4.566   2.374 -0.0825 -0.3623 -0.5115
 6752SOL    HW121155   1.070   4.609   2.450 -0.7339 -1.5339 -0.2380
 6752SOL    HW221156   1.062   4.491   2.337  1.5711 -1.8839 -0.0755
 6753SOL     OW21157   3.460   6.060   6.420 -0.1250  0.2664  0.3022
 6753SOL    HW121158   3.398   6.115   6.475 -0.2560  2.9925 -2.3403
 6753SOL    HW221159   3.542   6.038   6.474 -0.9347  1.3609  2.0600
 6754SOL     OW21160   4.595   0.762   1.402  0.2278 -0.0923  0.1765
 6754SOL    HW121161   4.511   0.770   1.349  0.4256 -2.2170 -0.5537
 6754SOL    HW221162   4.609   0.845   1.455 -2.3373  0.2898  0.3714
 6755SOL     OW21163   3.623   0.338   6.482  0.2699  0.0039  0.3377
 6755SOL    HW121164   3.631   0.336   6.383  0.3290  2.9631  0.2014
 6755SOL    HW221165   3.544   0.393   6.509  1.9191  1.7997  1.8770
 6756SOL     OW21166   2.700   2.718   5.647  0.3603  0.0521 -0.0495
 6756SOL    HW121167   2.713   2.706   5.745  3.9857  0.2307 -0.3677
 6756SOL    HW221168   2.605   2.697   5.622 -0.4669 -0.6964  3.3249
 6757SOL     OW21169   3.556   6.829   3.161 -0.4181 -0.0870 -0.3798
 6757SOL    HW121170   3.525   6.906   3.105 -0.9237 -0.9979 -1.4143
 6757SOL    HW221171   3.654   6.814   3.147 -0.4390  0.0091 -0.6369
 6758SOL     OW21172   5.084   1.851   2.878  0.3587  0.0351 -0.1226
 6758SOL    HW121173   5.018   1.778   2.859  1.6032 -0.9727 -0.6832
 6758SOL    HW221174   5.054   1.935   2.834 -0.9304 -0.2023  0.2545
 6759SOL     OW21175   2.157   3.327   1.484  0.2441  0.1332  0.1993
 6759SOL    HW121176   2.237   3.320   1.545  0.4181  0.7451  0.0441
 6759SOL    HW221177   2.138   3.423   1.465  0.0503 -0.0436 -0.5278
 6760SOL     OW21178   6.958   1.638   0.204  0.1615  0.3068  0.6137
 6760SOL    HW121179   6.876   1.693   0.187  0.3956  0.0063 -1.8196
 6760SOL    HW221180   6.932   1.542   0.213  0.1187  0.3672  1.1320
 6761SOL     OW21181   2.720   6.727   5.272 -0.0842 -0.2652  0.0848
 6761SOL    HW121182   2.779   6.766   5.201 -1.2102  2.2274  0.3973
 6761SOL    HW221183   2.647   6.674   5.230  0.3061 -0.3322 -0.5169
 6762SOL     OW21184   5.218   6.564   6.874  0.6730 -0.1455 -0.6587
 6762SOL    HW121185   5.260   6.651   6.898 -0.6138  0.2916  0.1537
 6762SOL    HW221186   5.125   6.580   6.839  0.5345 -1.1648 -0.8000
 6763SOL     OW21187   5.719   5.738   3.886 -0.0617 -0.1970 -0.0481
 6763SOL    HW121188   5.729   5.696   3.796 -2.9847 -1.0666 -0.0695
 6763SOL    HW221189   5.776   5.690   3.952 -0.1762 -1.5030 -0.8685
 6764SOL     OW21190   2.405   4.377   3.037 -0.2936 -0.0478  0.0372
 6764SOL    HW121191   2.418   4.388   2.938  1.8757  0.1120  0.2801
 6764SOL    HW221192   2.453   4.451   3.085 -1.9115  0.2823  1.2184
 6765SOL     OW21193   0.688   4.742   5.048 -0.2285  0.0675  0.4664
 6765SOL    HW121194   0.761   4.801   5.014 -4.0444  3.5897 -2.9068
 6765SOL    HW221195   0.642   4.786   5.125 -0.1538 -1.0544  1.1769
 6766SOL     OW21196   5.233   0.648   0.571 -0.0036  0.5471 -0.0189
 6766SOL    HW121197   5.148   0.669   0.620 -1.9506 -2.1850 -1.9255
 6766SOL    HW221198   5.298   0.604   0.634 -0.3814  1.7049  1.2165
 6767SOL     OW21199   2.094   1.287   4.072 -0.1436 -0.3220  0.0338
 6767SOL    HW121200   2.064   1.210   4.128  0.8378 -1.3220 -0.7737
 6767SOL    HW221201   2.072   1.372   4.119 -0.6662 -1.0974  1.2505
 6768SOL     OW21202   2.723   6.611   6.526 -0.2017  0.2950 -0.3464
 6768SOL    HW121203   2.715   6.523   6.479 -1.2183  1.0131 -1.5871
 6768SOL    HW221204   2.653   6.674   6.492  0.1026  1.4014  0.9633
 6769SOL     OW21205   1.061   3.639   2.594  0.2377  0.0836 -0.5762
 6769SOL    HW121206   0.974   3.594   2.574 -0.5468  0.9137  0.7539
 6769SOL    HW221207   1.109   3.658   2.509 -0.4691 -1.1772 -1.2858
 6770SOL     OW21208   0.005   1.307   0.978 -0.1219 -0.5299  0.2668
 6770SOL    HW121209   0.072   1.377   1.003  1.5719 -2.1010  0.3530
 6770SOL    HW221210  -0.085   1.349   0.967  0.5160  1.4012  1.8097
 6771SOL     OW21211   4.632   6.975   4.233 -0.0091  0.3709  0.2073
 6771SOL    HW121212   4.554   6.925   4.270  0.2784 -1.4528 -1.5217
 6771SOL    HW221213   4.647   7.058   4.288 -1.2260 -0.8042  2.4458
 6772SOL     OW21214   3.774   6.848   6.372  0.3154 -0.4875  0.2078
 6772SOL    HW121215   3.813   6.937   6.349 -0.5053 -0.0870  0.3217
 6772SOL    HW221216   3.675   6.850   6.357  0.3766 -1.6003 -0.4495
 6773SOL     OW21217   2.995   4.310   0.380  0.8192  0.5776  0.1858
 6773SOL    HW121218   3.005   4.239   0.449  0.9334 -0.6456 -1.0498
 6773SOL    HW221219   2.902   4.309   0.343  1.2983 -0.1241 -1.0619
 6774SOL     OW21220   1.415   1.068   5.472  0.2762  0.7593 -0.5431
 6774SOL    HW121221   1.359   0.987   5.451 -0.1697  0.8097  0.3622
 6774SOL    HW221222   1.512   1.043   5.469  0.1279  0.0290  0.2865
 6775SOL     OW21223   0.215   3.302   0.111  0.0163 -0.3972 -0.3235
 6775SOL    HW121224   0.292   3.329   0.169  0.2137 -2.1209  0.2592
 6775SOL    HW221225   0.173   3.384   0.072  1.2003  0.6668  0.5469
 6776SOL     OW21226   4.559   0.438   4.508  0.4709  0.1354 -0.2295
 6776SOL    HW121227   4.559   0.377   4.587  2.4081 -1.1771 -1.1500
 6776SOL    HW221228   4.465   0.455   4.478 -0.2064 -0.6160  1.3674
 6777SOL     OW21229   3.427   5.659   6.730  0.2268  0.2752  0.1394
 6777SOL    HW121230   3.386   5.735   6.680  0.6561  1.0146  0.8724
 6777SOL    HW221231   3.436   5.580   6.670 -0.7144  0.6261 -0.4935
 6778SOL     OW21232   5.630   6.425   2.332 -0.7867  0.1435 -0.1415
 6778SOL    HW121233   5.689   6.490   2.284 -2.0374  1.3834 -0.1022
 6778SOL    HW221234   5.679   6.340   2.348  0.1542  0.2156 -2.3098
 6779SOL     OW21235   5.220   3.846   6.910 -0.4110  0.1235 -0.4308
 6779SOL    HW121236   5.205   3.889   6.999 -0.2605  1.0810 -0.8568
 6779SOL    HW221237   5.158   3.886   6.842  0.8730  0.8797 -1.2001
 6780SOL     OW21238   1.341   2.541   2.103  0.3387  0.2237  0.2159
 6780SOL    HW121239   1.281   2.613   2.068 -0.6375  0.0191  1.4022
 6780SOL    HW221240   1.396   2.577   2.179 -0.0445 -0.2190  0.7153
 6781SOL     OW21241   6.781   2.694   4.267 -0.0464  0.3768  0.1512
 6781SOL    HW121242   6.691   2.735   4.279 -0.2456 -0.5351  2.1280
 6781SOL    HW221243   6.778   2.597   4.294  1.6993  0.5415  1.0847
 6782SOL     OW21244   6.837   3.171   4.383  0.3521 -0.2686  0.4390
 6782SOL    HW121245   6.746   3.162   4.424 -0.2860  1.3514 -0.5263
 6782SOL    HW221246   6.841   3.117   4.299 -0.1853  0.6297 -0.1910
 6783SOL     OW21247   3.067   5.186   5.645  0.4956 -0.5976 -0.3031
 6783SOL    HW121248   3.074   5.286   5.651  1.2891 -0.7185  1.4064
 6783SOL    HW221249   3.061   5.148   5.737  1.0862 -2.1845 -0.8899
 6784SOL     OW21250   3.769   4.290   0.217 -0.0435 -0.3299  0.7380
 6784SOL    HW121251   3.691   4.290   0.279 -1.5416  0.2679 -1.0832
 6784SOL    HW221252   3.816   4.201   0.224 -0.1009 -0.2623  2.7265
 6785SOL     OW21253   5.149   5.857   2.167 -0.1327  0.2113  0.5315
 6785SOL    HW121254   5.137   5.952   2.196 -3.3979  0.4134 -1.0406
 6785SOL    HW221255   5.097   5.841   2.084  0.8319 -2.8388  0.4009
 6786SOL     OW21256   2.182   3.905   4.538 -0.5894  0.4448  0.0396
 6786SOL    HW121257   2.195   3.916   4.637 -0.7714 -1.3141  0.2781
 6786SOL    HW221258   2.255   3.847   4.501 -0.7519  0.7683 -0.8063
 6787SOL     OW21259   0.932   6.334   3.503 -0.2195  0.7555  0.1793
 6787SOL    HW121260   0.836   6.308   3.501 -0.5677  1.8518  1.2769
 6787SOL    HW221261   0.959   6.354   3.597  1.3334 -0.3794  0.0182
 6788SOL     OW21262   2.134   1.438   0.982  0.4229 -0.2566  0.2684
 6788SOL    HW121263   2.230   1.467   0.975  0.0884  0.8742  0.1440
 6788SOL    HW221264   2.079   1.515   1.013 -0.0150 -1.6931  3.5153
 6789SOL     OW21265   2.212   2.509   2.479 -0.2678  0.0642  0.2847
 6789SOL    HW121266   2.142   2.483   2.545  0.1779  1.6125  1.4205
 6789SOL    HW221267   2.301   2.514   2.525 -0.1785  2.6334 -0.0189
 6790SOL     OW21268   1.597   2.526   2.508  0.5110  0.2040 -0.4284
 6790SOL    HW121269   1.653   2.535   2.425  0.1065 -0.3559 -0.7637
 6790SOL    HW221270   1.501   2.512   2.483 -0.1106  2.9090  0.1303
 6791SOL     OW21271   4.301   4.491   6.797 -0.0119 -0.2514 -0.7057
 6791SOL    HW121272   4.251   4.463   6.879 -0.4295 -0.1197 -0.9154
 6791SOL    HW221273   4.251   4.462   6.715  0.2102 -0.0458 -0.9171
 6792SOL     OW21274   0.513   5.589   1.210 -0.5878  0.0991  0.5261
 6792SOL    HW121275   0.601   5.636   1.209 -0.3175 -0.3711  1.0062
 6792SOL    HW221276   0.528   5.490   1.219 -1.1281 -0.1342 -0.8897
 6793SOL     OW21277   5.001   2.248   1.149  0.5028  0.3992 -0.1147
 6793SOL    HW121278   5.081   2.218   1.200  1.3785 -0.0860 -1.6926
 6793SOL    HW221279   5.028   2.317   1.082 -0.4713  0.5534 -0.3680
 6794SOL     OW21280   3.341   2.868   0.683  0.7254  0.1147  0.3083
 6794SOL    HW121281   3.259   2.864   0.739  0.4525  1.1133  0.0108
 6794SOL    HW221282   3.385   2.958   0.694  1.2276 -0.0459 -0.2827
 6795SOL     OW21283   3.371   4.563   5.623  0.1462 -0.2814  0.0314
 6795SOL    HW121284   3.314   4.549   5.542  1.5658 -0.9998 -0.8731
 6795SOL    HW221285   3.333   4.512   5.700  0.2227 -1.7854 -0.8821
 6796SOL     OW21286   5.879   2.893   5.866 -0.6000  0.2313  0.1729
 6796SOL    HW121287   5.853   2.949   5.944  0.0677  0.6234  0.1243
 6796SOL    HW221288   5.803   2.833   5.840 -1.6300  1.6735 -0.2742
 6797SOL     OW21289   1.673   3.231   2.962 -0.1736  0.1113  0.4441
 6797SOL    HW121290   1.594   3.246   2.902 -0.4796 -0.7708  0.5970
 6797SOL    HW221291   1.736   3.307   2.954 -0.1460 -0.0339 -1.0866
 6798SOL     OW21292   6.251   6.426   2.560 -0.3787 -0.7094 -0.3583
 6798SOL    HW121293   6.233   6.522   2.537 -0.3959 -0.8699 -1.0466
 6798SOL    HW221294   6.168   6.385   2.596 -0.4154 -0.5118 -0.2115
 6799SOL     OW21295   5.658   6.233   3.127 -0.0590  0.0818  0.2422
 6799SOL    HW121296   5.628   6.153   3.179 -2.7342  1.7921  1.5380
 6799SOL    HW221297   5.717   6.290   3.184  0.3425 -0.0360 -0.0485
 6800SOL     OW21298   3.011   5.735   6.338  0.3780  0.1227 -0.4407
 6800SOL    HW121299   2.930   5.727   6.279  0.4522 -1.3427 -0.3870
 6800SOL    HW221300   3.089   5.689   6.294  0.2432 -1.6859  1.0791
 6801SOL     OW21301   6.653   2.017   1.979  0.4421 -0.0502 -0.6316
 6801SOL    HW121302   6.556   2.039   1.977  0.5064  0.2761 -0.2690
 6801SOL    HW221303   6.682   2.003   2.073  0.9672  0.8718 -0.6410
 6802SOL     OW21304   4.681   5.099   2.654  0.2266  0.2579 -0.3602
 6802SOL    HW121305   4.667   5.012   2.608 -0.8389 -0.4647  1.2421
 6802SOL    HW221306   4.776   5.129   2.641 -0.0461  0.1817 -3.0465
 6803SOL     OW21307   5.062   2.748   0.672  0.0448  0.5196  0.3181
 6803SOL    HW121308   4.978   2.757   0.726 -0.4121  0.7185 -0.4173
 6803SOL    HW221309   5.047   2.682   0.598  0.4997  0.6552  0.1034
 6804SOL     OW21310   0.473   1.307   4.484  0.0144  0.2308  0.1698
 6804SOL    HW121311   0.476   1.309   4.384 -0.3321  0.4603  0.1600
 6804SOL    HW221312   0.520   1.388   4.520 -1.3324  1.0474  0.1445
 6805SOL     OW21313   6.197   1.495   6.052 -0.1343 -0.2803 -0.7333
 6805SOL    HW121314   6.285   1.539   6.072  0.1500 -1.2602  0.2708
 6805SOL    HW221315   6.122   1.550   6.089  0.2222 -0.6280  0.5708
 6806SOL     OW21316   4.045   0.332   5.991 -0.6376  1.0730 -0.0715
 6806SOL    HW121317   4.132   0.328   5.941 -0.7856 -0.7375 -0.2619
 6806SOL    HW221318   4.061   0.315   6.088 -0.7821  0.7498 -0.1047
 6807SOL     OW21319   4.435   3.578   6.469  0.0302  0.6536 -0.5491
 6807SOL    HW121320   4.493   3.527   6.405  0.7530  1.1469 -0.2964
 6807SOL    HW221321   4.461   3.674   6.468 -0.3646  0.7698  0.0408
 6808SOL     OW21322   2.196   4.089   3.291 -0.2003  0.0678 -0.0609
 6808SOL    HW121323   2.268   4.128   3.348 -1.2203  1.5975  0.2144
 6808SOL    HW221324   2.107   4.127   3.317 -1.1920 -2.0163 -0.1782
 6809SOL     OW21325   2.290   3.786   5.294 -0.4133  0.0670  0.0651
 6809SOL    HW121326   2.192   3.770   5.292 -0.6750  1.4490  0.2623
 6809SOL    HW221327   2.314   3.855   5.226  0.4522 -0.4050 -0.1168
 6810SOL     OW21328   5.030   0.821   4.497  0.4073 -0.4864  0.2122
 6810SOL    HW121329   4.992   0.768   4.421  0.0815  1.6108 -1.1851
 6810SOL    HW221330   5.118   0.783   4.524  0.8044 -0.9753 -1.6082
 6811SOL     OW21331   6.386   5.161   2.423  0.3413  0.3163 -0.5459
 6811SOL    HW121332   6.358   5.080   2.475 -0.0443  0.6103 -0.2998
 6811SOL    HW221333   6.431   5.131   2.338  2.6260 -0.2057  0.7704
 6812SOL     OW21334   3.994   3.691   4.656  0.0716  0.1383  0.0236
 6812SOL    HW121335   3.926   3.619   4.667  0.7961 -0.6328 -0.4851
 6812SOL    HW221336   4.020   3.698   4.560  0.1770  0.9292  0.1054
 6813SOL     OW21337   4.804   3.406   1.538 -0.6164  0.2984 -0.0582
 6813SOL    HW121338   4.786   3.382   1.443  0.7657 -0.2337 -0.1971
 6813SOL    HW221339   4.787   3.327   1.597  2.1487 -0.5884 -0.3140
 6814SOL     OW21340   3.487   0.768   4.696  0.0502  0.3937 -0.6356
 6814SOL    HW121341   3.501   0.759   4.597  1.2841 -1.0833 -0.3540
 6814SOL    HW221342   3.521   0.687   4.743  0.7723  1.6630  1.1506
 6815SOL     OW21343   1.377   6.815   6.897  0.2084 -0.6936  0.0058
 6815SOL    HW121344   1.283   6.805   6.866  0.4187  0.6317 -1.1830
 6815SOL    HW221345   1.384   6.896   6.956  0.4387 -1.3496  0.9115
 6816SOL     OW21346   5.933   3.770   1.370 -0.1453 -0.1731  0.7647
 6816SOL    HW121347   5.906   3.785   1.465 -0.4470 -0.4455  0.7241
 6816SOL    HW221348   6.015   3.713   1.366  0.7246  1.0321  0.9062
 6817SOL     OW21349   3.454   0.739   0.126 -0.2667  0.2253  0.3291
 6817SOL    HW121350   3.503   0.718   0.041  0.4094  0.1986  0.7180
 6817SOL    HW221351   3.390   0.665   0.147 -0.4436  0.2378 -0.1605
 6818SOL     OW21352   3.446   4.982   2.656 -0.7679 -0.2916  0.0835
 6818SOL    HW121353   3.474   5.078   2.652  2.2223 -0.8103  3.3169
 6818SOL    HW221354   3.359   4.974   2.705 -2.0409  0.7762 -1.8599
 6819SOL     OW21355   3.862   1.285   3.997 -0.1893 -0.2391 -0.4069
 6819SOL    HW121356   3.904   1.374   4.018  1.1395 -0.6787 -1.0867
 6819SOL    HW221357   3.902   1.215   4.055 -4.0830  0.0807  3.1161
 6820SOL     OW21358   1.334   5.651   4.726 -0.0014 -0.4949  0.1681
 6820SOL    HW121359   1.373   5.645   4.634  1.1405 -1.8237  0.7092
 6820SOL    HW221360   1.397   5.609   4.792 -0.8729  0.2889  1.5412
 6821SOL     OW21361   2.797   2.028   4.445 -0.4721  0.6097  0.2757
 6821SOL    HW121362   2.701   2.014   4.420 -0.0991 -0.7935 -0.4934
 6821SOL    HW221363   2.829   2.115   4.407 -0.6046 -0.3410 -2.2259
 6822SOL     OW21364   5.442   3.409   0.508  0.2948  0.6485  0.9680
 6822SOL    HW121365   5.370   3.478   0.517 -0.2679  0.0051  1.4345
 6822SOL    HW221366   5.497   3.408   0.592  0.9877  1.2846  0.5310
 6823SOL     OW21367   2.577   2.557   1.736 -0.3410  0.4414 -0.4328
 6823SOL    HW121368   2.555   2.529   1.642 -2.0062  0.0036  0.0529
 6823SOL    HW221369   2.608   2.478   1.788 -1.4928  0.2133 -0.0583
 6824SOL     OW21370   0.104   3.752   4.607  0.2179 -0.7158  0.0379
 6824SOL    HW121371   0.083   3.660   4.639  0.0522 -0.2068  1.4487
 6824SOL    HW221372   0.025   3.790   4.560 -0.6183 -0.3751  1.6518
 6825SOL     OW21373   6.391   1.351   5.743  0.0715  0.0285 -0.7094
 6825SOL    HW121374   6.437   1.394   5.820  4.7970 -0.9600 -2.5931
 6825SOL    HW221375   6.390   1.415   5.665 -2.0551  0.0549 -0.7118
 6826SOL     OW21376   0.114   3.817   3.973 -0.1168  0.1940  0.0742
 6826SOL    HW121377   0.050   3.768   4.032 -0.0431  0.4671  0.3902
 6826SOL    HW221378   0.206   3.811   4.012  0.0263 -0.0736 -0.3005
 6827SOL     OW21379   3.573   0.055   0.389 -0.0503  0.0852  0.0900
 6827SOL    HW121380   3.512   0.131   0.365  0.9563  0.7232 -0.4776
 6827SOL    HW221381   3.616   0.019   0.306  0.5709 -0.1670  0.5171
 6828SOL     OW21382   3.558   1.824   6.303  0.2438  0.3680  0.2293
 6828SOL    HW121383   3.459   1.834   6.292  0.4575  1.5986 -0.7251
 6828SOL    HW221384   3.577   1.740   6.355 -1.3186  0.5274  1.1362
 6829SOL     OW21385   5.755   2.895   3.010 -0.7428  0.0837 -0.0085
 6829SOL    HW121386   5.741   2.928   2.916  0.5230 -1.3708 -0.7705
 6829SOL    HW221387   5.674   2.844   3.040 -1.4866  1.2661  0.0243
 6830SOL     OW21388   6.700   6.296   4.141  0.1571 -0.2582 -0.0588
 6830SOL    HW121389   6.695   6.198   4.156  1.5735 -0.2091  0.9539
 6830SOL    HW221390   6.692   6.344   4.228  0.4710  0.4645 -0.4157
 6831SOL     OW21391   0.300   4.147   5.145 -0.4571  0.3589  0.2902
 6831SOL    HW121392   0.298   4.138   5.244  1.6806 -2.1381  0.1989
 6831SOL    HW221393   0.395   4.146   5.113 -1.0198  2.4439 -1.7369
 6832SOL     OW21394   2.924   3.905   1.850  0.3419 -0.9813  0.5788
 6832SOL    HW121395   2.959   3.993   1.817  0.4130 -1.1633  0.1670
 6832SOL    HW221396   3.000   3.845   1.874  0.4587 -2.1410 -2.2553
 6833SOL     OW21397   3.165   6.884   0.905  0.2509  0.3182  0.2393
 6833SOL    HW121398   3.197   6.811   0.844 -1.7873  0.8324 -1.5760
 6833SOL    HW221399   3.243   6.931   0.945  1.6934 -0.1163 -1.9041
 6834SOL     OW21400   0.609   6.828   0.311 -0.0926  0.2701 -0.3396
 6834SOL    HW121401   0.510   6.825   0.304 -0.0063  0.0754 -1.7207
 6834SOL    HW221402   0.640   6.754   0.372 -0.7543  0.0308 -0.2831
 6835SOL     OW21403   4.681   4.981   3.331 -0.2136  0.0224  0.2234
 6835SOL    HW121404   4.628   5.056   3.370  2.1458  1.6248  0.5665
 6835SOL    HW221405   4.674   4.984   3.231 -2.1193 -0.9148  0.2783
 6836SOL     OW21406   2.069   6.006   1.314  0.4888 -0.4937  0.4270
 6836SOL    HW121407   1.997   6.074   1.326 -0.4007 -1.2520 -0.4572
 6836SOL    HW221408   2.037   5.918   1.348 -0.1553 -1.5169 -2.5703
 6837SOL     OW21409   1.853   1.694   3.066  0.8676  0.0148  0.1053
 6837SOL    HW121410   1.780   1.737   3.118 -0.1697 -0.8305 -0.6109
 6837SOL    HW221411   1.822   1.676   2.973  1.4837 -1.6431  0.1801
 6838SOL     OW21412   3.856   2.546   1.228 -0.5190 -0.4165  0.6047
 6838SOL    HW121413   3.771   2.529   1.178 -0.4327  2.4262 -0.6951
 6838SOL    HW221414   3.839   2.612   1.301  0.4619 -0.2604  0.7081
 6839SOL     OW21415   4.003   0.698   2.842 -0.2186  0.1944 -0.1703
 6839SOL    HW121416   4.071   0.637   2.882 -0.4692  0.7394  1.1486
 6839SOL    HW221417   4.031   0.725   2.751  0.8697 -0.3274  0.0016
 6840SOL     OW21418   6.019   0.919   5.857  0.4288  0.3075  0.4656
 6840SOL    HW121419   5.936   0.867   5.878  0.6435 -1.3544 -2.2310
 6840SOL    HW221420   6.006   1.015   5.879 -2.1215  0.0339  0.3641
 6841SOL     OW21421   0.704   3.118   5.122 -0.4643 -0.2693  0.4587
 6841SOL    HW121422   0.618   3.077   5.091  0.1193 -1.1510 -0.0479
 6841SOL    HW221423   0.778   3.093   5.059  0.7065 -1.8168  2.3395
 6842SOL     OW21424   4.147   5.189   2.798  0.5964  0.2409  0.1010
 6842SOL    HW121425   4.219   5.218   2.861  1.0934  2.4642 -1.3707
 6842SOL    HW221426   4.189   5.141   2.721  0.1623 -1.0146  0.6263
 6843SOL     OW21427   3.765   5.419   2.131  0.1311 -0.1155 -0.1280
 6843SOL    HW121428   3.794   5.491   2.195 -2.5241 -0.4273  1.5806
 6843SOL    HW221429   3.776   5.330   2.174  0.7940 -0.5633 -1.1835
 6844SOL     OW21430   5.378   0.344   5.204  0.1419 -0.3028 -0.0647
 6844SOL    HW121431   5.392   0.247   5.181  0.9550  0.2953 -2.3560
 6844SOL    HW221432   5.295   0.377   5.161  2.4500  1.2222 -3.8945
 6845SOL     OW21433   6.305   2.361   3.109  0.8918  0.1420  0.2749
 6845SOL    HW121434   6.254   2.432   3.060 -2.2110 -2.0135  0.0754
 6845SOL    HW221435   6.362   2.311   3.045  1.3809  1.0018  0.0149
 6846SOL     OW21436   1.190   2.540   6.299  0.1793  0.4165 -0.5186
 6846SOL    HW121437   1.095   2.542   6.331 -0.2263  0.5012 -1.7000
 6846SOL    HW221438   1.248   2.506   6.373 -0.9420 -0.9274 -0.2016
 6847SOL     OW21439   6.356   1.106   3.509 -0.4582 -0.2298 -0.0902
 6847SOL    HW121440   6.387   1.188   3.558  0.1397 -0.1675 -0.5643
 6847SOL    HW221441   6.360   1.027   3.571 -0.0741 -0.0817  0.0774
 6848SOL     OW21442   0.299   3.709   5.280  0.7058  0.5399  0.6086
 6848SOL    HW121443   0.380   3.651   5.287 -0.2197 -0.8900  0.1007
 6848SOL    HW221444   0.238   3.670   5.211 -2.0113 -0.4797  3.3606
 6849SOL     OW21445   3.767   3.603   5.120 -0.1123 -0.5058  0.0229
 6849SOL    HW121446   3.706   3.682   5.127  0.5380  0.2082 -1.7057
 6849SOL    HW221447   3.712   3.520   5.104 -0.7863 -0.4247  1.6958
 6850SOL     OW21448   6.700   1.603   3.919  0.2534  0.3107 -0.4251
 6850SOL    HW121449   6.666   1.686   3.962  0.8158  1.2955 -1.8126
 6850SOL    HW221450   6.703   1.529   3.987  0.7436  1.6752  1.0943
 6851SOL     OW21451   1.998   3.607   3.209  0.0804 -0.3867 -0.0663
 6851SOL    HW121452   1.901   3.602   3.233 -0.2505 -3.4712 -1.5904
 6851SOL    HW221453   2.021   3.701   3.184 -3.0510  0.1196 -1.5854
 6852SOL     OW21454   6.275   4.006   1.188 -0.0508 -0.1368  0.5445
 6852SOL    HW121455   6.320   4.011   1.277 -0.0674 -1.1747  0.6249
 6852SOL    HW221456   6.220   4.089   1.174  0.3152  0.2475  1.2889
 6853SOL     OW21457   4.567   6.041   6.330  0.1569 -0.9348  0.2004
 6853SOL    HW121458   4.475   6.005   6.314 -0.3553  0.3844  0.0250
 6853SOL    HW221459   4.633   5.966   6.330 -0.9723 -1.9566  0.8134
 6854SOL     OW21460   4.705   5.442   6.128 -0.5275  0.2906 -0.5555
 6854SOL    HW121461   4.640   5.506   6.087 -1.2379  0.5794  0.9669
 6854SOL    HW221462   4.714   5.461   6.226  0.7918 -0.6527 -0.4636
 6855SOL     OW21463   6.060   5.388   1.250 -0.1706  0.3746 -0.5318
 6855SOL    HW121464   6.111   5.376   1.336 -0.3013  1.4676 -0.2892
 6855SOL    HW221465   6.117   5.360   1.173 -0.8608 -2.9722  0.0079
 6856SOL     OW21466   0.397   3.216   0.491 -0.4778  0.1303  0.0312
 6856SOL    HW121467   0.437   3.248   0.577 -0.8986  0.6997  0.0222
 6856SOL    HW221468   0.299   3.201   0.504 -0.3157 -1.0106 -0.0134
 6857SOL     OW21469   2.559   3.833   0.337 -0.4070  0.1442  0.0114
 6857SOL    HW121470   2.567   3.765   0.265 -0.4997  0.4053 -0.2449
 6857SOL    HW221471   2.644   3.887   0.341 -0.1597 -0.2749  0.5066
 6858SOL     OW21472   1.870   3.945   2.738  0.7080  0.7278  0.0744
 6858SOL    HW121473   1.773   3.933   2.713  0.1099  1.0401  2.0619
 6858SOL    HW221474   1.891   4.042   2.745  0.7700  0.6579  0.9942
 6859SOL     OW21475   3.602   0.353   0.328  0.3323  0.3299  0.2667
 6859SOL    HW121476   3.692   0.353   0.283 -0.1489  1.3975 -0.7774
 6859SOL    HW221477   3.607   0.408   0.411  0.9376 -0.6398  0.8828
 6860SOL     OW21478   6.658   0.494   5.982  0.3468 -0.4132 -0.0603
 6860SOL    HW121479   6.675   0.472   6.078 -1.5207 -0.3412  0.3146
 6860SOL    HW221480   6.663   0.593   5.969 -1.6808 -0.2085  0.4778
 6861SOL     OW21481   4.785   2.086   6.517  0.9067  0.0060  0.0605
 6861SOL    HW121482   4.716   2.014   6.508  0.9353 -0.0722  0.4313
 6861SOL    HW221483   4.753   2.153   6.585  0.8930  0.3277 -0.2617
 6862SOL     OW21484   1.577   2.818   3.868 -0.5062  0.0342  0.3427
 6862SOL    HW121485   1.560   2.899   3.924 -0.1076  0.0936  0.3798
 6862SOL    HW221486   1.636   2.842   3.791  0.3766 -0.4036  0.8633
 6863SOL     OW21487   4.111   0.278   6.269  0.5945 -0.0490  0.0477
 6863SOL    HW121488   4.148   0.346   6.332 -0.0258  0.5534 -0.2251
 6863SOL    HW221489   4.175   0.201   6.261  1.5489  0.7358 -0.0343
 6864SOL     OW21490   1.678   2.875   5.799  0.3544  0.1929  0.0224
 6864SOL    HW121491   1.691   2.967   5.836  0.4885  0.3727 -0.4584
 6864SOL    HW221492   1.697   2.876   5.701  1.5831 -0.6175  0.2342
 6865SOL     OW21493   1.953   1.216   1.713  0.1076 -0.5649  0.4724
 6865SOL    HW121494   2.003   1.200   1.798 -1.9015 -0.8680  1.6726
 6865SOL    HW221495   1.874   1.155   1.708 -1.2791  1.1847 -0.3528
 6866SOL     OW21496   2.676   2.784   6.369  0.1316  0.5069  0.5043
 6866SOL    HW121497   2.744   2.857   6.384 -0.0525  0.4378  1.7200
 6866SOL    HW221498   2.590   2.810   6.412 -0.1879 -0.0619  0.2105
 6867SOL     OW21499   3.144   1.238   0.157  0.5209 -0.0465  0.2982
 6867SOL    HW121500   3.139   1.295   0.075  1.0530  0.3789  0.5641
 6867SOL    HW221501   3.211   1.165   0.143 -1.2645 -1.6008 -0.6472
 6868SOL     OW21502   4.245   4.714   3.246  0.0070 -0.4502 -1.0890
 6868SOL    HW121503   4.243   4.737   3.149  0.3737  1.2710 -0.7160
 6868SOL    HW221504   4.309   4.639   3.261  0.6352 -0.1308 -2.0535
 6869SOL     OW21505   1.382   6.159   5.003 -0.1587 -0.8990 -0.0922
 6869SOL    HW121506   1.295   6.183   5.047  1.1378  2.1835  1.1399
 6869SOL    HW221507   1.453   6.153   5.073  1.1532 -0.3906 -1.3373
 6870SOL     OW21508   0.226   1.249   5.859  0.6550 -0.1437 -0.3546
 6870SOL    HW121509   0.165   1.328   5.862  1.2030  0.2745  2.7143
 6870SOL    HW221510   0.222   1.207   5.768 -1.3494  2.0382 -1.3691
 6871SOL     OW21511   5.762   2.402   5.627 -0.0758 -0.2227 -0.2718
 6871SOL    HW121512   5.764   2.353   5.540  0.8763 -1.4539  0.4275
 6871SOL    HW221513   5.693   2.475   5.622  1.3017  1.0521 -2.7316
 6872SOL     OW21514   2.614   4.770   1.852 -0.4279 -0.0377 -0.0737
 6872SOL    HW121515   2.681   4.696   1.862 -1.6553 -1.0831  0.7740
 6872SOL    HW221516   2.602   4.815   1.940 -1.9755 -0.9189  0.2062
 6873SOL     OW21517   6.176   3.483   3.786 -0.4134 -0.4428  0.2360
 6873SOL    HW121518   6.145   3.429   3.864 -1.2520 -0.8222 -0.3387
 6873SOL    HW221519   6.112   3.471   3.710 -0.4238  1.0698 -0.0322
 6874SOL     OW21520   3.533   6.959   2.780  0.0140  0.3988 -0.9534
 6874SOL    HW121521   3.581   6.909   2.708 -2.8761  0.1253 -2.8583
 6874SOL    HW221522   3.440   6.978   2.751 -0.8214  1.7058  2.1446
 6875SOL     OW21523   3.723   1.191   6.482  0.5340 -0.0193 -0.3829
 6875SOL    HW121524   3.698   1.269   6.539 -1.0012 -0.5238 -0.3282
 6875SOL    HW221525   3.813   1.157   6.509  0.8193  1.1522  0.1999
 6876SOL     OW21526   4.070   6.013   4.566  0.3198 -0.6887 -0.0909
 6876SOL    HW121527   4.040   5.988   4.474 -1.1503 -2.1641  0.7236
 6876SOL    HW221528   4.130   5.942   4.602  0.6830 -0.2478  0.1750
 6877SOL     OW21529   1.973   6.413   6.418 -0.3142 -0.4374  0.0638
 6877SOL    HW121530   1.939   6.507   6.405  1.4204  0.3455  0.8641
 6877SOL    HW221531   1.971   6.391   6.515 -0.6238 -1.2176 -0.1158
 6878SOL     OW21532   1.378   1.436   3.195 -0.2962  0.5385 -0.1193
 6878SOL    HW121533   1.439   1.505   3.156 -1.1943  1.3377 -0.1409
 6878SOL    HW221534   1.352   1.371   3.125 -0.2011  0.7354 -0.3388
 6879SOL     OW21535   6.523   1.071   6.366  0.6559 -0.2504  0.1203
 6879SOL    HW121536   6.544   1.134   6.442  1.7266 -1.3515  0.7651
 6879SOL    HW221537   6.462   1.117   6.301  0.4517  1.0369  1.1767
 6880SOL     OW21538   0.977   5.561   5.789  0.3255 -0.7759 -0.6782
 6880SOL    HW121539   0.992   5.659   5.774 -0.5891 -1.0109 -3.7350
 6880SOL    HW221540   0.919   5.548   5.870  0.0043  1.2344 -0.5428
 6881SOL     OW21541   0.148   4.854   0.730 -0.3339 -0.3303  0.1882
 6881SOL    HW121542   0.153   4.845   0.829 -2.5097  3.0054  0.7769
 6881SOL    HW221543   0.079   4.792   0.694  0.0278 -1.1125  0.8275
 6882SOL     OW21544   2.083   5.691   5.690 -0.2648  0.1199 -0.2023
 6882SOL    HW121545   1.993   5.732   5.706  1.0116  2.6732  0.9535
 6882SOL    HW221546   2.132   5.682   5.777  0.1006 -2.6847 -0.5927
 6883SOL     OW21547   5.137   6.367   1.460 -0.0115  0.1443  0.2396
 6883SOL    HW121548   5.123   6.466   1.464  1.0032  0.3007  0.3985
 6883SOL    HW221549   5.188   6.338   1.542  2.0581 -0.0739 -1.0496
 6884SOL     OW21550   2.562   4.732   1.458 -0.0522  0.3226  0.4264
 6884SOL    HW121551   2.533   4.808   1.401 -1.1118  0.7235  1.4547
 6884SOL    HW221552   2.657   4.745   1.486  0.3561  0.3144 -0.8853
 6885SOL     OW21553   4.513   6.298   4.233  0.6377  0.0156  0.2149
 6885SOL    HW121554   4.581   6.235   4.272  1.3578  1.5551  1.5600
 6885SOL    HW221555   4.434   6.246   4.200  0.9658 -1.5427  1.7558
 6886SOL     OW21556   5.144   3.506   1.587  0.5787  0.0486  0.6941
 6886SOL    HW121557   5.183   3.564   1.659 -0.2438 -0.0471  1.2213
 6886SOL    HW221558   5.045   3.504   1.595  0.3599  1.0249 -1.2140
 6887SOL     OW21559   5.855   6.837   5.376  0.9112  0.4627 -0.1731
 6887SOL    HW121560   5.938   6.820   5.429  1.5613  1.2019 -0.9133
 6887SOL    HW221561   5.865   6.798   5.284  0.8155  1.3096 -0.5578
 6888SOL     OW21562   0.334   3.983   1.138 -0.0851  0.1899 -0.3887
 6888SOL    HW121563   0.396   3.905   1.151 -0.0538  0.4091  0.8439
 6888SOL    HW221564   0.240   3.953   1.150 -0.2215 -0.0420 -1.8060
 6889SOL     OW21565   6.693   4.138   5.081  0.5928 -0.1282  0.7055
 6889SOL    HW121566   6.756   4.191   5.025 -0.3592  1.3652  0.9867
 6889SOL    HW221567   6.736   4.052   5.107  1.3504 -0.5418 -1.6582
 6890SOL     OW21568   4.746   4.067   1.888  0.3099  0.2420 -0.0464
 6890SOL    HW121569   4.684   4.094   1.962 -0.9255 -2.3145 -0.0460
 6890SOL    HW221570   4.827   4.023   1.927  0.8261  1.0575 -0.1651
 6891SOL     OW21571   0.499   3.066   5.491  0.4368 -0.4031  0.5238
 6891SOL    HW121572   0.448   3.080   5.406 -0.7847 -0.0855  1.2867
 6891SOL    HW221573   0.526   2.970   5.497  1.4384 -0.2188 -0.6966
 6892SOL     OW21574   6.774   1.118   5.682  0.2838 -0.8531  0.4933
 6892SOL    HW121575   6.764   1.135   5.780 -0.2249  0.6055  0.2074
 6892SOL    HW221576   6.833   1.188   5.641 -1.2135 -0.1711 -0.5880
 6893SOL     OW21577   5.167   1.582   3.234 -0.0758  0.4789 -0.1920
 6893SOL    HW121578   5.132   1.534   3.153  0.8547 -2.1175  0.8111
 6893SOL    HW221579   5.266   1.590   3.226 -0.0934  1.1276  0.2464
 6894SOL     OW21580   5.585   0.432   1.503  1.2250 -0.5506  0.3686
 6894SOL    HW121581   5.576   0.392   1.594  0.9893  1.0857  1.1009
 6894SOL    HW221582   5.655   0.503   1.504  0.3090  0.4071 -0.3812
 6895SOL     OW21583   0.010   3.997   2.178 -0.4899  0.6938 -0.5279
 6895SOL    HW121584  -0.044   3.976   2.259  0.9082 -0.5700  0.1328
 6895SOL    HW221585   0.023   4.096   2.171 -0.4668  0.8151  0.9030
 6896SOL     OW21586   5.737   0.400   5.411  0.1031 -0.4100 -0.1137
 6896SOL    HW121587   5.764   0.357   5.326  0.5152 -1.6728  0.6351
 6896SOL    HW221588   5.818   0.421   5.465 -0.0564  1.5528 -0.5364
 6897SOL     OW21589   4.339   1.931   6.100  0.4123 -0.0281 -0.2059
 6897SOL    HW121590   4.337   2.000   6.027 -1.0579  0.2579  0.0700
 6897SOL    HW221591   4.377   1.846   6.065 -0.4074  0.0606 -1.3680
 6898SOL     OW21592   3.541   0.881   2.354 -0.0077 -0.0483  0.1526
 6898SOL    HW121593   3.608   0.950   2.328 -1.1360  0.9224 -0.2301
 6898SOL    HW221594   3.486   0.914   2.430 -0.2816 -0.6959  0.2460
 6899SOL     OW21595   6.176   6.319   3.048 -0.4778 -0.3184 -0.2431
 6899SOL    HW121596   6.145   6.413   3.034  0.0984 -0.2070 -0.8458
 6899SOL    HW221597   6.104   6.266   3.091 -0.8412  0.3796  0.0301
 6900SOL     OW21598   1.301   4.012   4.478  0.5843  0.0361 -0.8906
 6900SOL    HW121599   1.383   3.964   4.450  0.0653 -1.5684  0.1953
 6900SOL    HW221600   1.316   4.053   4.568 -0.1048 -1.1738 -0.1970
 6901SOL     OW21601   5.485   2.668   6.226  0.8484 -0.4152 -0.5476
 6901SOL    HW121602   5.477   2.764   6.201 -1.2402 -0.1940  0.6422
 6901SOL    HW221603   5.565   2.655   6.284  0.8803  0.7399 -0.3058
 6902SOL     OW21604   4.652   0.747   4.324  0.4176  0.1889 -0.5921
 6902SOL    HW121605   4.679   0.819   4.261 -1.5434  1.0152 -0.5344
 6902SOL    HW221606   4.636   0.786   4.415 -1.6155 -0.0762 -0.7846
 6903SOL     OW21607   0.012   5.327   5.236  0.6112 -0.1723 -0.2640
 6903SOL    HW121608  -0.012   5.331   5.139  0.6936 -0.9182 -0.3225
 6903SOL    HW221609  -0.019   5.410   5.282 -3.5166 -1.6386 -0.0234
 6904SOL     OW21610   6.058   6.917   6.163 -0.5123 -0.2438  0.1160
 6904SOL    HW121611   6.020   6.943   6.252 -0.0819  2.5273 -0.4299
 6904SOL    HW221612   6.157   6.917   6.167 -0.4402  1.4735 -0.6965
 6905SOL     OW21613   4.356   0.690   3.933 -0.5577 -0.0754  0.1458
 6905SOL    HW121614   4.378   0.775   3.980 -0.1785 -0.5048  0.7599
 6905SOL    HW221615   4.409   0.684   3.849  0.5255 -0.3711  0.8280
 6906SOL     OW21616   2.541   1.143   3.771 -0.9734 -0.2896 -0.4163
 6906SOL    HW121617   2.460   1.098   3.808  0.7119 -0.4261  3.5869
 6906SOL    HW221618   2.532   1.242   3.781 -0.6272 -0.3112  0.1463
 6907SOL     OW21619   6.493   3.938   1.020 -0.2625  1.0777 -0.0634
 6907SOL    HW121620   6.423   3.912   1.087 -0.0439  1.4889  0.3282
 6907SOL    HW221621   6.449   3.981   0.941 -0.7789 -1.6050 -1.3431
 6908SOL     OW21622   1.760   5.698   1.207 -0.7187 -0.2736  0.1411
 6908SOL    HW121623   1.705   5.704   1.124  1.3700 -1.6322 -1.4277
 6908SOL    HW221624   1.713   5.642   1.275 -2.2460  0.4863 -0.2574
 6909SOL     OW21625   5.470   5.663   2.487  0.2547  0.4267  0.6098
 6909SOL    HW121626   5.399   5.680   2.418 -0.5036 -0.6203  1.1100
 6909SOL    HW221627   5.553   5.631   2.442  0.3013  1.2965  0.0509
 6910SOL     OW21628   6.902   0.891   2.138  0.2518 -0.2130 -0.1495
 6910SOL    HW121629   6.854   0.860   2.220  0.0175  0.4063 -0.0411
 6910SOL    HW221630   6.844   0.957   2.089  1.2578  1.0882  0.3533
 6911SOL     OW21631   1.613   0.774   0.144  0.1121 -0.4452 -0.1848
 6911SOL    HW121632   1.646   0.856   0.189 -1.7625  0.0902  0.3061
 6911SOL    HW221633   1.689   0.712   0.125  1.6794  1.7206 -1.2820
 6912SOL     OW21634   2.736   3.922   5.796 -0.0399  1.1667  0.1003
 6912SOL    HW121635   2.747   3.939   5.894 -0.6613  0.4363  0.3078
 6912SOL    HW221636   2.673   3.988   5.757 -1.2526  0.3459  0.5894
 6913SOL     OW21637   3.214   7.006   4.755 -0.1712 -0.9991  0.2055
 6913SOL    HW121638   3.224   7.064   4.836 -0.9608  2.5409 -2.0088
 6913SOL    HW221639   3.293   7.016   4.696 -1.2432 -0.5018 -1.1965
 6914SOL     OW21640   2.796   1.758   3.871 -0.0912 -0.1808 -0.3491
 6914SOL    HW121641   2.784   1.675   3.817  0.1174 -0.0951 -0.5303
 6914SOL    HW221642   2.890   1.763   3.905 -0.3380 -0.4582  0.4010
 6915SOL     OW21643   6.140   2.238   1.656 -0.0765 -0.2156 -0.1653
 6915SOL    HW121644   6.067   2.199   1.711  0.8364 -0.5817  0.8290
 6915SOL    HW221645   6.102   2.278   1.573 -1.1197 -2.9310 -1.1105
 6916SOL     OW21646   6.195   6.668   5.976 -0.3703  0.1088 -0.2600
 6916SOL    HW121647   6.161   6.744   5.922  0.5516  0.5447 -0.2587
 6916SOL    HW221648   6.226   6.702   6.065 -2.8637 -0.7465  1.0336
 6917SOL     OW21649   2.413   5.850   0.249  0.3434 -0.4168  0.2655
 6917SOL    HW121650   2.469   5.811   0.322  0.1051 -0.9133  0.1815
 6917SOL    HW221651   2.472   5.872   0.171  0.5022 -0.4571  0.3729
 6918SOL     OW21652   1.929   3.669   6.028  0.2880  0.1517 -0.6982
 6918SOL    HW121653   1.879   3.746   6.068 -0.6204 -0.2381 -1.0580
 6918SOL    HW221654   1.930   3.592   6.091  0.4451  0.1594 -0.6895
 6919SOL     OW21655   4.214   4.681   2.242 -0.2398  0.2206  0.0293
 6919SOL    HW121656   4.196   4.667   2.145 -0.1277  0.5553 -0.0415
 6919SOL    HW221657   4.137   4.729   2.284  0.2777  1.2571 -0.1795
 6920SOL     OW21658   6.983   3.776   4.871  0.0039 -0.0490 -0.8144
 6920SOL    HW121659   7.007   3.808   4.780 -1.2175 -1.3185 -1.6211
 6920SOL    HW221660   7.036   3.827   4.939 -0.3858  2.1841 -2.1014
 6921SOL     OW21661   3.956   6.691   4.591  0.2688  1.0584  0.5029
 6921SOL    HW121662   3.883   6.661   4.529  1.7651 -2.1781  0.0943
 6921SOL    HW221663   3.939   6.653   4.683 -0.2845  3.1893  1.3349
 6922SOL     OW21664   1.679   4.663   6.390 -0.3152 -0.0954 -0.2423
 6922SOL    HW121665   1.620   4.583   6.398 -0.2775 -0.1403 -0.4258
 6922SOL    HW221666   1.684   4.709   6.479  2.5194 -2.3091  0.9145
 6923SOL     OW21667   5.208   0.791   3.303 -0.2363 -0.1099  0.0871
 6923SOL    HW121668   5.182   0.845   3.223  1.2165 -0.6775 -0.7890
 6923SOL    HW221669   5.126   0.772   3.358 -1.2274  0.4168 -1.1626
 6924SOL     OW21670   1.309   5.324   0.027  0.5598 -0.0921  0.2594
 6924SOL    HW121671   1.244   5.400   0.025  1.5061  0.7372  0.0964
 6924SOL    HW221672   1.376   5.339   0.100  1.3470 -0.2598 -0.4117
 6925SOL     OW21673   0.776   0.058   5.292  0.2006 -0.3567  0.8177
 6925SOL    HW121674   0.716   0.129   5.254  0.8017  1.1710  2.5762
 6925SOL    HW221675   0.781  -0.019   5.228 -1.2648  0.7369 -0.7081
 6926SOL     OW21676   2.188   0.648   6.903 -0.0524  0.4859 -0.5882
 6926SOL    HW121677   2.213   0.581   6.972 -1.9587 -1.7680 -1.9791
 6926SOL    HW221678   2.244   0.634   6.821  1.2218  2.2493 -0.1001
 6927SOL     OW21679   1.875   1.692   4.611  0.4945  0.0456 -0.4756
 6927SOL    HW121680   1.914   1.689   4.518  1.5117  0.2945 -0.0746
 6927SOL    HW221681   1.781   1.658   4.609 -0.3348  2.1459 -2.0146
 6928SOL     OW21682   3.758   6.819   0.930 -0.7402  0.1267 -0.3210
 6928SOL    HW121683   3.807   6.752   0.873  0.8055  0.5294  0.4631
 6928SOL    HW221684   3.778   6.911   0.896 -0.7884  0.3080  0.1396
 6929SOL     OW21685   5.999   4.658   2.771 -0.1723 -0.6422 -0.0527
 6929SOL    HW121686   5.994   4.574   2.717  1.8514 -0.5286 -0.5024
 6929SOL    HW221687   6.072   4.716   2.735 -0.7640  0.8051  0.9744
 6930SOL     OW21688   0.667   6.012   2.902 -0.2489  0.1210  0.2286
 6930SOL    HW121689   0.659   6.087   2.837 -2.0724  0.3382  0.6625
 6930SOL    HW221690   0.744   6.029   2.964 -0.3709  1.3928  0.0398
 6931SOL     OW21691   4.316   3.763   6.887 -0.2831  0.3176  0.7305
 6931SOL    HW121692   4.356   3.681   6.847  0.5618  0.6390  0.9111
 6931SOL    HW221693   4.378   3.841   6.875 -1.2024  1.0049  0.2965
 6932SOL     OW21694   2.709   0.245   5.888  0.1669 -0.3812 -0.3253
 6932SOL    HW121695   2.763   0.165   5.862  1.0535  0.3792 -0.8518
 6932SOL    HW221696   2.614   0.232   5.858 -0.0829 -1.9075  0.9727
 6933SOL     OW21697   3.903   5.726   4.892 -0.0793 -0.5077 -0.3083
 6933SOL    HW121698   3.809   5.756   4.876 -0.0779  0.2828  1.0308
 6933SOL    HW221699   3.957   5.803   4.925  0.6238 -1.3478  0.5227
 6934SOL     OW21700   4.665   0.264   6.537 -0.3323  0.2061  0.3082
 6934SOL    HW121701   4.643   0.182   6.484  0.7984 -0.1462  0.3605
 6934SOL    HW221702   4.673   0.240   6.633  1.1419  0.1428  0.1802
 6935SOL     OW21703   5.208   5.239   2.388  0.4939  0.1819 -0.8271
 6935SOL    HW121704   5.145   5.198   2.322  0.1061 -0.9700  0.2347
 6935SOL    HW221705   5.171   5.325   2.421  0.5030  0.5707 -1.7987
 6936SOL     OW21706   1.096   6.971   6.649  0.1153  0.3717  0.5606
 6936SOL    HW121707   1.085   6.885   6.698 -0.5631  0.6800  0.9587
 6936SOL    HW221708   1.193   6.984   6.625  0.1903 -0.5805  0.3317
 6937SOL     OW21709   5.265   4.654   1.102  0.6504  0.3042  0.4524
 6937SOL    HW121710   5.298   4.716   1.031 -1.0347 -0.5840 -1.1942
 6937SOL    HW221711   5.197   4.701   1.159  0.2216  0.3176 -0.0668
 6938SOL     OW21712   1.149   6.235   5.183  0.5460 -0.4591  0.0645
 6938SOL    HW121713   1.156   6.315   5.242 -0.1550 -1.5911  1.7453
 6938SOL    HW221714   1.095   6.164   5.229 -1.8449 -0.6681 -2.7460
 6939SOL     OW21715   1.413   3.556   4.419  0.7705 -0.3805  0.1201
 6939SOL    HW121716   1.470   3.481   4.386 -0.5815 -1.3896 -0.0099
 6939SOL    HW221717   1.465   3.613   4.483  1.9878 -1.0923 -0.2237
 6940SOL     OW21718   0.481   0.648   2.178 -0.5148 -0.3698 -0.1677
 6940SOL    HW121719   0.415   0.573   2.183  0.7114 -1.4964 -0.3136
 6940SOL    HW221720   0.573   0.611   2.174  0.2189  1.1916  1.1114
 6941SOL     OW21721   4.052   3.626   2.016  0.1074  0.4196 -0.1083
 6941SOL    HW121722   4.062   3.533   1.980  0.2260 -0.2513  1.5897
 6941SOL    HW221723   3.956   3.651   2.020  0.1174  0.7283 -1.3881
 6942SOL     OW21724   6.699   5.684   3.706 -0.5966  0.1054  0.3181
 6942SOL    HW121725   6.702   5.678   3.607  2.2951  0.8384  0.2889
 6942SOL    HW221726   6.621   5.740   3.734 -1.2973  0.0962 -1.5139
 6943SOL     OW21727   3.774   4.868   3.911  0.1119 -0.4712  0.7839
 6943SOL    HW121728   3.777   4.863   4.011  1.4191 -1.2267  0.7367
 6943SOL    HW221729   3.867   4.878   3.876 -0.4275  1.0677 -0.3195
 6944SOL     OW21730   2.418   5.633   6.394  0.6711  0.7386  0.4315
 6944SOL    HW121731   2.421   5.730   6.371 -0.7539  0.2825 -2.0648
 6944SOL    HW221732   2.345   5.617   6.460  0.2153  1.2532  0.0601
 6945SOL     OW21733   3.722   3.686   2.335 -0.5793  0.4829 -0.5497
 6945SOL    HW121734   3.739   3.726   2.245 -0.3622 -0.1314 -0.7808
 6945SOL    HW221735   3.678   3.755   2.394 -1.5992  0.5900 -1.4074
 6946SOL     OW21736   6.243   3.610   2.760  0.2335  0.6657  0.0609
 6946SOL    HW121737   6.233   3.529   2.702 -0.8826  0.6947  0.1902
 6946SOL    HW221738   6.306   3.675   2.716  0.0211  0.3475 -0.7311
 6947SOL     OW21739   0.622   3.784   0.032 -0.2158  0.6697 -0.0227
 6947SOL    HW121740   0.632   3.810  -0.064  0.0886 -1.5085 -0.6349
 6947SOL    HW221741   0.599   3.687   0.038 -1.8203  1.1099  2.0772
 6948SOL     OW21742   0.204   5.552   6.292  0.2777  0.6175 -0.8008
 6948SOL    HW121743   0.104   5.550   6.290  0.2777  0.9209 -1.1558
 6948SOL    HW221744   0.240   5.512   6.208  0.4662 -0.1394 -0.3663
 6949SOL     OW21745   3.210   1.910   4.434 -0.5373  0.2237  0.0497
 6949SOL    HW121746   3.248   1.959   4.356  2.1088 -2.1177 -0.2780
 6949SOL    HW221747   3.254   1.940   4.518  0.0167 -0.5144  0.0310
 6950SOL     OW21748   1.810   1.802   5.329  0.2655  0.0839  0.0212
 6950SOL    HW121749   1.758   1.808   5.244  1.1174 -1.6273 -0.6797
 6950SOL    HW221750   1.750   1.820   5.407 -0.9400 -0.0756 -0.8426
 6951SOL     OW21751   1.941   3.225   5.766  0.1398  0.1888  0.4325
 6951SOL    HW121752   1.872   3.225   5.838  1.2443 -1.0847  1.5497
 6951SOL    HW221753   1.902   3.188   5.682 -0.3448 -1.2453  1.2639
 6952SOL     OW21754   5.410   2.591   3.409 -0.3018  0.4967 -0.1845
 6952SOL    HW121755   5.413   2.513   3.472  1.1061  1.4921  1.0400
 6952SOL    HW221756   5.335   2.652   3.435 -0.5503  0.2346 -0.2894
 6953SOL     OW21757   6.458   6.568   1.320  0.0630 -0.5015 -0.0332
 6953SOL    HW121758   6.372   6.582   1.369  0.0366 -1.5564  0.2511
 6953SOL    HW221759   6.530   6.623   1.363 -0.6874  1.3657 -1.0248
 6954SOL     OW21760   0.946   3.248   5.846  0.2358 -0.4116 -0.1487
 6954SOL    HW121761   0.994   3.204   5.770 -0.2463  2.7340 -2.4935
 6954SOL    HW221762   0.848   3.245   5.828 -0.0471 -1.2900  1.4006
 6955SOL     OW21763   4.329   4.853   3.730 -0.9827  0.1329  0.4363
 6955SOL    HW121764   4.306   4.948   3.751 -0.7060  0.0666  1.0610
 6955SOL    HW221765   4.277   4.823   3.650  1.4846  1.8765 -2.0039
 6956SOL     OW21766   0.368   4.017   3.626  0.0041 -0.6427 -0.3931
 6956SOL    HW121767   0.366   3.933   3.680 -1.4959  0.8895  2.1317
 6956SOL    HW221768   0.436   4.079   3.664  0.3579 -0.2874 -1.5760
 6957SOL     OW21769   6.273   4.237   5.377  0.0381 -0.3076 -0.3971
 6957SOL    HW121770   6.362   4.271   5.409 -1.0221  1.2328  1.0967
 6957SOL    HW221771   6.225   4.195   5.454 -1.0675  0.0992 -0.8477
 6958SOL     OW21772   3.393   2.833   0.389  0.0045 -0.9935  0.1074
 6958SOL    HW121773   3.380   2.744   0.347 -1.3759 -1.1566  0.8268
 6958SOL    HW221774   3.376   2.826   0.487  1.2043 -0.2111  0.3841
 6959SOL     OW21775   6.224   2.648   2.142 -0.2434 -0.1062 -0.1381
 6959SOL    HW121776   6.289   2.580   2.106 -0.7079 -1.7229  1.9137
 6959SOL    HW221777   6.265   2.695   2.220 -1.1649 -0.4410  0.5617
 6960SOL     OW21778   6.144   4.228   1.799 -0.0212 -0.9538  0.2790
 6960SOL    HW121779   6.160   4.167   1.877  0.0779 -0.3484  0.7429
 6960SOL    HW221780   6.229   4.277   1.778 -0.0228 -1.1824 -0.2761
 6961SOL     OW21781   5.056   2.973   4.891  0.4407 -0.2572  0.0068
 6961SOL    HW121782   5.142   3.013   4.860  0.6697  0.3653  1.3566
 6961SOL    HW221783   5.073   2.918   4.973 -0.4244 -0.2832  0.1818
 6962SOL     OW21784   3.145   0.049   0.326 -0.0592  0.8731 -0.1976
 6962SOL    HW121785   3.190  -0.031   0.286  0.0091  0.3144  0.9480
 6962SOL    HW221786   3.200   0.130   0.309 -0.2806  0.7487 -1.6398
 6963SOL     OW21787   0.396   1.406   1.886 -0.6470 -0.5770  0.3731
 6963SOL    HW121788   0.456   1.410   1.966 -0.9411 -1.7055  0.6759
 6963SOL    HW221789   0.451   1.387   1.805 -0.4975 -0.8007  0.5248
 6964SOL     OW21790   3.555   0.611   6.647 -0.0453  0.1839  0.5343
 6964SOL    HW121791   3.487   0.685   6.644  0.7455  0.9398  0.9252
 6964SOL    HW221792   3.615   0.618   6.567 -1.3075 -1.3855 -0.6395
 6965SOL     OW21793   1.608   1.424   6.325 -0.6842  0.5263  0.1881
 6965SOL    HW121794   1.577   1.334   6.355 -1.6142  1.5864  2.6860
 6965SOL    HW221795   1.693   1.415   6.273 -0.4193 -1.7378  0.9266
 6966SOL     OW21796   6.006   0.490   0.546 -0.1508  0.4526 -0.1593
 6966SOL    HW121797   5.990   0.409   0.602  0.3115  0.6783  0.3073
 6966SOL    HW221798   5.949   0.486   0.464  0.8801 -1.0297 -0.8420
 6967SOL     OW21799   4.757   0.509   6.722  0.8622 -0.2465 -0.2714
 6967SOL    HW121800   4.716   0.418   6.733  0.5997 -0.1297 -0.2751
 6967SOL    HW221801   4.686   0.579   6.734  1.6012  0.1174  3.2268
 6968SOL     OW21802   2.864   1.318   1.950 -0.5481  0.6346  0.3009
 6968SOL    HW121803   2.796   1.282   2.013  0.3714 -0.9013  0.4786
 6968SOL    HW221804   2.938   1.252   1.940  3.0692  3.7535  3.3084
 6969SOL     OW21805   0.634   4.259   4.193  0.2331  0.0422  0.6278
 6969SOL    HW121806   0.543   4.249   4.153 -0.4034 -1.4258  2.3115
 6969SOL    HW221807   0.699   4.286   4.122 -1.0220 -1.3806 -1.1504
 6970SOL     OW21808   3.056   5.625   3.917 -0.1531 -0.4174  0.2964
 6970SOL    HW121809   3.088   5.647   3.825 -2.8418  1.8004 -0.2435
 6970SOL    HW221810   3.062   5.526   3.931  2.1707 -0.6110 -1.4519
 6971SOL     OW21811   6.202   2.852   1.702  0.0909  0.0644 -0.3902
 6971SOL    HW121812   6.263   2.877   1.628  1.3269 -1.4706  0.0684
 6971SOL    HW221813   6.125   2.799   1.666  0.5207 -0.4077 -0.6243
 6972SOL     OW21814   5.905   1.398   1.827 -0.6042  0.0408 -0.3073
 6972SOL    HW121815   5.973   1.452   1.779 -1.1709  0.6741 -0.4163
 6972SOL    HW221816   5.816   1.409   1.782 -1.8037  2.9144  2.4449
 6973SOL     OW21817   2.396   1.507   3.488 -0.6413 -0.5384  0.3425
 6973SOL    HW121818   2.489   1.537   3.470 -0.8195 -1.1962 -2.0444
 6973SOL    HW221819   2.359   1.557   3.566  1.2920  0.5882  0.5900
 6974SOL     OW21820   3.520   4.130   2.289 -0.0328  0.4166  0.3308
 6974SOL    HW121821   3.496   4.159   2.196 -0.1700  2.6362  1.0091
 6974SOL    HW221822   3.449   4.160   2.352  0.4532 -0.3813  1.2767
 6975SOL     OW21823   2.014   3.458   6.196 -0.7013  0.2565 -0.5365
 6975SOL    HW121824   2.050   3.398   6.268 -1.1416  0.4069 -0.1807
 6975SOL    HW221825   2.084   3.473   6.127 -0.4970 -0.4438 -0.4874
 6976SOL     OW21826   4.576   4.524   5.073  0.2839 -0.5122 -0.0940
 6976SOL    HW121827   4.604   4.448   5.132  0.6778 -0.9859 -0.8623
 6976SOL    HW221828   4.479   4.515   5.050 -0.3246  0.6255  1.8394
 6977SOL     OW21829   3.614   3.708   0.240  0.7960 -0.1970 -0.1955
 6977SOL    HW121830   3.677   3.651   0.294  1.0137 -0.0804 -0.3251
 6977SOL    HW221831   3.664   3.787   0.204  0.8494 -0.7223 -1.2863
 6978SOL     OW21832   0.403   2.466   1.552 -0.3871  1.0065 -0.1106
 6978SOL    HW121833   0.452   2.384   1.581 -0.0845  1.2452  0.0505
 6978SOL    HW221834   0.426   2.486   1.456 -0.0684  1.1889  0.0012
 6979SOL     OW21835   0.297   3.284   1.568  0.2747  0.5566 -0.4209
 6979SOL    HW121836   0.216   3.343   1.575 -0.5570 -0.6627  0.5784
 6979SOL    HW221837   0.373   3.337   1.530 -0.2189  2.4804  1.0950
 6980SOL     OW21838   3.765   4.880   3.323 -0.1059 -0.7220  0.2975
 6980SOL    HW121839   3.690   4.922   3.272 -0.1563 -0.0530  0.8956
 6980SOL    HW221840   3.839   4.855   3.260 -1.2597 -2.4001 -0.4521
 6981SOL     OW21841   0.406   2.815   6.292 -0.1559 -0.3837 -0.8772
 6981SOL    HW121842   0.327   2.833   6.351  0.3548 -1.2614  0.1005
 6981SOL    HW221843   0.467   2.749   6.337  1.1553  0.3014 -1.6011
 6982SOL     OW21844   1.179   6.009   1.834  0.4154  0.0896  0.4150
 6982SOL    HW121845   1.127   6.014   1.749 -0.6586  1.3907  1.1089
 6982SOL    HW221846   1.234   6.092   1.844  0.1493  0.1732  1.2209
 6983SOL     OW21847   6.141   6.940   4.178 -0.5242 -0.2031 -0.5955
 6983SOL    HW121848   6.186   6.858   4.215 -0.5800 -0.1903 -0.4973
 6983SOL    HW221849   6.167   7.019   4.233 -0.7566 -0.2143 -0.4669
 6984SOL     OW21850   1.798   5.056   4.812  0.4819  0.5372 -0.9831
 6984SOL    HW121851   1.883   5.109   4.805  1.1443 -0.6178 -2.2525
 6984SOL    HW221852   1.813   4.964   4.774  0.0929 -1.5498  3.3584
 6985SOL     OW21853   4.168   3.005   1.640 -0.6259  0.0793  0.4376
 6985SOL    HW121854   4.117   3.008   1.555 -1.9764  1.0845  1.2342
 6985SOL    HW221855   4.120   2.948   1.707  1.4218 -2.3628 -0.0158
 6986SOL     OW21856   4.314   6.671   4.772  0.2092  0.0573 -0.0219
 6986SOL    HW121857   4.250   6.607   4.729  2.6241 -2.1872 -0.5350
 6986SOL    HW221858   4.335   6.639   4.865 -0.3950  1.5371  0.6582
 6987SOL     OW21859   6.771   0.455   0.423 -0.5789 -0.1609  0.4218
 6987SOL    HW121860   6.865   0.482   0.442 -0.8198  0.7392  0.3860
 6987SOL    HW221861   6.716   0.536   0.403 -0.9135 -0.8186 -1.5925
 6988SOL     OW21862   1.903   1.473   5.924  0.0693 -0.0328 -0.2550
 6988SOL    HW121863   1.871   1.433   6.010 -2.8395  0.7364 -0.8806
 6988SOL    HW221864   1.879   1.570   5.922 -0.6622 -0.2193 -2.2296
 6989SOL     OW21865   0.290   4.582   1.469  0.0641  0.2970  0.3480
 6989SOL    HW121866   0.254   4.505   1.521 -2.1181  0.1648 -1.2065
 6989SOL    HW221867   0.236   4.663   1.488  1.4982  1.1560  0.9347
 6990SOL     OW21868   2.986   6.702   0.603 -0.2430 -0.0922  0.3870
 6990SOL    HW121869   2.978   6.797   0.573 -1.0058 -0.2972 -0.0796
 6990SOL    HW221870   3.082   6.682   0.624 -0.4566  1.8678  4.1586
 6991SOL     OW21871   5.584   2.772   3.546  0.0670  0.0998 -0.1065
 6991SOL    HW121872   5.512   2.841   3.533  1.0643  0.8513 -2.1105
 6991SOL    HW221873   5.559   2.689   3.496  0.2430  0.1036 -0.2012
 6992SOL     OW21874   6.880   6.032   4.065 -0.5229 -0.4750  0.2824
 6992SOL    HW121875   6.933   6.031   3.981 -1.3712 -2.1198 -0.2614
 6992SOL    HW221876   6.930   5.985   4.138 -1.6809 -3.2435 -0.5834
 6993SOL     OW21877   3.391   2.015   4.619  0.0518  0.4040 -0.1482
 6993SOL    HW121878   3.478   2.030   4.665  0.1471  1.9036 -0.7586
 6993SOL    HW221879   3.403   2.027   4.520 -0.4011 -1.5491 -0.4786
 6994SOL     OW21880   1.055   1.153   3.059 -0.4396  0.4157 -0.0578
 6994SOL    HW121881   1.134   1.195   3.014 -0.6383  0.2183 -0.6106
 6994SOL    HW221882   1.086   1.091   3.130 -0.0586 -0.2236 -0.7614
 6995SOL     OW21883   5.042   5.617   1.810 -0.3634 -0.4802  0.4226
 6995SOL    HW121884   5.088   5.594   1.895 -0.0643 -0.4326  0.2738
 6995SOL    HW221885   4.996   5.705   1.819  1.3059  0.4801 -0.0851
 6996SOL     OW21886   6.428   1.762   7.014  0.2747  0.7202 -0.7661
 6996SOL    HW121887   6.355   1.790   6.951  0.5564  1.4303 -0.7887
 6996SOL    HW221888   6.464   1.673   6.986 -1.5804 -0.3635  0.1132
 6997SOL     OW21889   4.769   0.858   5.563  0.2307  0.2809 -0.7857
 6997SOL    HW121890   4.771   0.916   5.645  0.3000 -0.0732 -0.5364
 6997SOL    HW221891   4.674   0.835   5.541  0.3225 -2.0339  0.9133
 6998SOL     OW21892   5.512   1.535   5.208 -0.1971  0.3604  0.2263
 6998SOL    HW121893   5.441   1.464   5.213  1.1974 -1.0519  0.9298
 6998SOL    HW221894   5.500   1.600   5.283 -0.6267  0.0103  0.4637
 6999SOL     OW21895   0.778   0.806   0.553 -0.1474  0.2908 -0.0729
 6999SOL    HW121896   0.726   0.890   0.565 -0.8610 -0.2412  0.6593
 6999SOL    HW221897   0.837   0.792   0.633 -2.0565 -1.2801  1.1743
 7000SOL     OW21898   2.485   3.927   1.700 -0.2106 -0.0409  0.0805
 7000SOL    HW121899   2.469   4.018   1.660  2.3402  0.9646  1.1255
 7000SOL    HW221900   2.554   3.879   1.645  1.5023  0.3698  1.7652
 7001SOL     OW21901   1.519   2.047   2.966  0.1955 -0.0464  0.0646
 7001SOL    HW121902   1.608   2.041   2.921  0.4210  1.4016  0.2736
 7001SOL    HW221903   1.528   2.098   3.052 -1.1054  1.7737 -0.7955
 7002SOL     OW21904   0.678   4.037   1.633  0.2019  0.1086 -0.7891
 7002SOL    HW121905   0.748   4.105   1.655  0.1127 -0.0028 -0.1584
 7002SOL    HW221906   0.612   4.078   1.570  0.1894  0.5891 -0.4766
 7003SOL     OW21907   0.135   6.748   6.946  0.3873  0.2753  0.2028
 7003SOL    HW121908   0.226   6.769   6.982  0.9772 -0.8001 -0.6028
 7003SOL    HW221909   0.142   6.679   6.874 -1.0200  0.5397 -0.2361
 7004SOL     OW21910   5.864   6.723   1.186 -0.4192  0.2163  0.2962
 7004SOL    HW121911   5.931   6.787   1.148  0.0601  0.2935  1.2415
 7004SOL    HW221912   5.904   6.632   1.191 -0.6048  0.1332  0.2913
 7005SOL     OW21913   4.018   5.116   0.270  0.2273 -0.0163  0.2795
 7005SOL    HW121914   4.017   5.106   0.171 -1.5311  0.9464  0.1650
 7005SOL    HW221915   3.929   5.150   0.302  1.5473  2.2319  1.9137
 7006SOL     OW21916   0.616   6.236   4.370  0.1999 -0.0407  0.2070
 7006SOL    HW121917   0.614   6.329   4.405  3.0532  0.6312 -1.1446
 7006SOL    HW221918   0.686   6.183   4.418 -0.1337 -0.9359 -0.2691
 7007SOL     OW21919   1.106   6.811   0.158  0.4683  1.1799  0.1020
 7007SOL    HW121920   1.143   6.900   0.184  0.5042  0.9363  0.9338
 7007SOL    HW221921   1.006   6.816   0.157  0.4573  1.1108  0.6150
 7008SOL     OW21922   2.118   5.269   3.427 -0.5302 -0.4843 -0.0036
 7008SOL    HW121923   2.153   5.250   3.335 -0.4619 -1.4262  0.2041
 7008SOL    HW221924   2.185   5.238   3.495  0.4411  2.2012  0.3869
 7009SOL     OW21925   6.708   4.482   2.762  0.1631 -0.5920 -0.0063
 7009SOL    HW121926   6.779   4.498   2.692  1.2336 -0.6958  1.0230
 7009SOL    HW221927   6.683   4.385   2.762 -1.4778 -0.2220 -1.7270
 7010SOL     OW21928   2.185   1.893   4.173 -0.1765 -0.2437 -0.3788
 7010SOL    HW121929   2.219   1.854   4.258 -0.8704  0.7654  0.3861
 7010SOL    HW221930   2.260   1.939   4.125  0.0398 -0.0617  0.1266
 7011SOL     OW21931   1.055   6.922   6.039  0.0948 -0.4011 -0.0295
 7011SOL    HW121932   1.063   7.021   6.029  0.3129 -0.4926 -0.7738
 7011SOL    HW221933   0.960   6.898   6.057 -0.4713 -0.2682 -2.5186
 7012SOL     OW21934   3.634   4.975   5.478 -0.0725  0.2102  0.0909
 7012SOL    HW121935   3.660   5.043   5.546 -2.0877 -0.0164  1.1269
 7012SOL    HW221936   3.632   4.884   5.520 -0.0213 -0.1266 -0.6162
 7013SOL     OW21937   3.660   1.942   0.609 -0.6350 -0.4135  0.3512
 7013SOL    HW121938   3.584   1.912   0.553 -0.2630 -1.9276  0.6099
 7013SOL    HW221939   3.744   1.897   0.579 -0.0587  0.2980  0.8369
 7014SOL     OW21940   0.193   3.594   0.456 -1.0317  0.4598  0.4145
 7014SOL    HW121941   0.282   3.548   0.454 -0.2665  1.7263  2.5890
 7014SOL    HW221942   0.189   3.661   0.382 -0.5479 -0.1849 -0.2214
 7015SOL     OW21943   6.777   6.022   0.982 -0.0349  0.4694 -0.7591
 7015SOL    HW121944   6.829   5.936   0.985 -2.0960 -0.8146  1.0829
 7015SOL    HW221945   6.841   6.099   0.973  2.1984 -1.0102  1.1168
 7016SOL     OW21946   2.004   4.799   0.872  0.1401 -0.2628  0.5071
 7016SOL    HW121947   1.948   4.760   0.944 -1.5527 -0.2033 -0.7094
 7016SOL    HW221948   2.075   4.734   0.845 -1.3344 -1.7021 -0.0551
 7017SOL     OW21949   6.640   5.590   0.804  0.3558  0.1006  0.2241
 7017SOL    HW121950   6.730   5.595   0.847 -0.3854  2.7627  1.7290
 7017SOL    HW221951   6.569   5.602   0.874 -1.0496  1.2226 -1.3136
 7018SOL     OW21952   5.974   2.253   4.348 -0.7271 -0.1221  0.2812
 7018SOL    HW121953   5.935   2.338   4.382 -1.4607  0.2609 -1.4093
 7018SOL    HW221954   5.988   2.259   4.249  0.2508 -1.5726  0.2866
 7019SOL     OW21955   2.986   5.475   1.993  0.0071  0.1718 -0.7067
 7019SOL    HW121956   2.915   5.405   2.007 -0.9507  1.2281 -0.1143
 7019SOL    HW221957   2.965   5.528   1.911  1.0993 -0.6404 -1.5386
 7020SOL     OW21958   0.628   2.813   1.599 -0.3379  0.0760  0.6894
 7020SOL    HW121959   0.578   2.830   1.684  1.6457  1.5594  1.6495
 7020SOL    HW221960   0.630   2.897   1.544  1.3409  0.1926  0.8589
 7021SOL     OW21961   0.457   2.624   3.340 -0.4066  0.5191 -0.2142
 7021SOL    HW121962   0.509   2.638   3.425 -0.8209  0.0721  0.1177
 7021SOL    HW221963   0.517   2.639   3.262  1.0805 -2.8516  0.1360
 7022SOL     OW21964   1.136   4.081   1.382 -0.3212  0.2234 -0.1650
 7022SOL    HW121965   1.227   4.056   1.347  0.0175  1.0822  0.0738
 7022SOL    HW221966   1.130   4.181   1.389  0.1015  0.1295  3.3876
 7023SOL     OW21967   6.105   3.975   0.336 -0.1326 -0.6460 -0.2590
 7023SOL    HW121968   6.091   4.004   0.241 -1.2337 -1.6778 -0.4372
 7023SOL    HW221969   6.147   3.885   0.338 -2.1293 -1.6222  0.1587
 7024SOL     OW21970   1.842   5.863   5.373 -0.1053 -0.1002 -0.6508
 7024SOL    HW121971   1.773   5.933   5.389  1.0004  1.4145 -2.1632
 7024SOL    HW221972   1.800   5.785   5.326 -0.6654  1.1532 -2.3132
 7025SOL     OW21973   3.041   6.686   1.060  0.0575 -0.0788 -0.1411
 7025SOL    HW121974   2.971   6.651   0.998  0.7001 -1.2316 -0.2338
 7025SOL    HW221975   3.079   6.770   1.022  0.1314 -0.5315 -1.0972
 7026SOL     OW21976   1.894   3.157   1.239 -0.9372 -0.2206  0.1283
 7026SOL    HW121977   1.829   3.171   1.314  0.7028 -0.3882  1.6541
 7026SOL    HW221978   1.971   3.221   1.249 -2.1192  2.0352 -3.2662
 7027SOL     OW21979   2.383   3.301   1.644  0.7408  0.0258 -0.2691
 7027SOL    HW121980   2.347   3.353   1.722 -1.1570 -0.9098 -0.4726
 7027SOL    HW221981   2.428   3.218   1.678  2.1974  0.8652 -0.0564
 7028SOL     OW21982   3.521   6.642   2.645  0.4490  0.3514 -0.5376
 7028SOL    HW121983   3.480   6.567   2.593  2.6410  0.7042 -2.9500
 7028SOL    HW221984   3.449   6.691   2.695 -1.1604 -2.7119  0.4078
 7029SOL     OW21985   3.336   3.613   1.889  0.5865 -0.3587 -0.4850
 7029SOL    HW121986   3.308   3.697   1.934  1.4217  1.6005 -3.3060
 7029SOL    HW221987   3.255   3.562   1.858  0.0407  0.8257 -1.0695
 7030SOL     OW21988   0.175   6.505   4.907 -0.8190  0.2084 -0.0267
 7030SOL    HW121989   0.196   6.490   5.003  0.1644  1.2282 -0.0665
 7030SOL    HW221990   0.077   6.492   4.892 -1.1027  0.7190  1.2500
 7031SOL     OW21991   4.893   4.880   6.968 -0.1062  0.4835 -0.4947
 7031SOL    HW121992   4.842   4.940   7.030  1.1523  0.9394  0.1302
 7031SOL    HW221993   4.976   4.848   7.012 -0.3960 -1.1921 -1.0815
 7032SOL     OW21994   4.433   5.353   2.712 -0.1990  0.0157  0.4830
 7032SOL    HW121995   4.496   5.283   2.744 -1.2091 -0.1355  2.2856
 7032SOL    HW221996   4.363   5.311   2.654  1.6204  0.2863 -2.1255
 7033SOL     OW21997   5.254   1.589   0.258  0.6816 -0.0972 -0.1953
 7033SOL    HW121998   5.218   1.559   0.346  0.2619  1.1785  0.0930
 7033SOL    HW221999   5.302   1.513   0.213 -0.1478 -1.0954  0.5717
 7034SOL     OW22000   0.512   2.400   2.328 -0.0733  0.1694  0.6967
 7034SOL    HW122001   0.464   2.353   2.254  1.3969  1.8246 -1.4324
 7034SOL    HW222002   0.521   2.338   2.406  0.2739 -2.5041 -1.3079
 7035SOL     OW22003   3.840   3.603   2.585  0.0501  0.2918 -0.5651
 7035SOL    HW122004   3.809   3.595   2.490 -2.5699  0.4254  0.2028
 7035SOL    HW222005   3.920   3.662   2.589  0.8197 -0.5178 -2.7911
 7036SOL     OW22006   6.952   1.764   2.321  0.4154 -0.1497 -0.0905
 7036SOL    HW122007   6.906   1.777   2.233  1.3291  0.4397 -0.4838
 7036SOL    HW222008   7.025   1.696   2.311  0.5046 -0.1040  0.2289
 7037SOL     OW22009   0.011   1.895   6.407  0.0533 -0.4525 -0.4212
 7037SOL    HW122010   0.079   1.853   6.347 -0.0608  0.3918 -1.1583
 7037SOL    HW222011   0.039   1.882   6.503  1.3936  0.0967 -0.7136
 7038SOL     OW22012   0.767   4.250   0.480  0.0240 -0.0301 -0.2365
 7038SOL    HW122013   0.703   4.271   0.406  0.2291  0.0236 -0.3980
 7038SOL    HW222014   0.722   4.267   0.568  0.1368  0.9666 -0.3596
 7039SOL     OW22015   5.958   5.056   1.921 -0.1077  0.3425 -0.1973
 7039SOL    HW122016   5.992   5.145   1.889  0.8228  0.3665  0.7876
 7039SOL    HW222017   6.020   5.020   1.991 -1.2971 -0.3617  0.5390
 7040SOL     OW22018   6.073   2.054   5.381 -0.5136  0.0602 -0.5669
 7040SOL    HW122019   6.006   2.107   5.328 -1.4324  0.5829  1.0387
 7040SOL    HW222020   6.035   2.033   5.471  1.4259  0.2030  0.3318
 7041SOL     OW22021   0.715   0.246   3.753  0.1015  0.0812  0.2913
 7041SOL    HW122022   0.624   0.281   3.735  1.1157  3.3108  0.7573
 7041SOL    HW222023   0.719   0.206   3.845 -1.0112 -0.9479 -0.0874
 7042SOL     OW22024   4.536   6.799   5.725 -0.1817 -0.4574 -0.4679
 7042SOL    HW122025   4.605   6.728   5.744 -2.4709 -2.1271  2.7610
 7042SOL    HW222026   4.545   6.873   5.791 -1.3741 -0.6905 -0.0032
 7043SOL     OW22027   1.251   0.257   0.996  0.0711  0.3794 -0.3906
 7043SOL    HW122028   1.214   0.209   1.075  0.7714 -1.0072 -0.8677
 7043SOL    HW222029   1.176   0.296   0.942 -0.4158  1.2258  0.8603
 7044SOL     OW22030   4.882   0.559   5.350  0.0298 -0.3982 -0.2483
 7044SOL    HW122031   4.784   0.568   5.333  0.0553 -1.7820 -1.2642
 7044SOL    HW222032   4.930   0.549   5.263  1.0322 -0.1592  0.2680
 7045SOL     OW22033   4.397   0.554   2.710 -0.3354 -0.0607 -0.6487
 7045SOL    HW122034   4.436   0.479   2.762  0.6458  0.7008 -0.2528
 7045SOL    HW222035   4.392   0.529   2.613  2.8020  0.4021 -1.0214
 7046SOL     OW22036   2.811   0.527   4.343 -0.7453  0.0238 -0.4034
 7046SOL    HW122037   2.728   0.472   4.352  0.4028 -1.7415 -0.1649
 7046SOL    HW222038   2.852   0.512   4.253 -0.5045  0.6340 -0.4027
 7047SOL     OW22039   1.866   0.168   2.116  0.1869 -0.6786 -0.1101
 7047SOL    HW122040   1.881   0.235   2.189  0.2482 -0.5249 -0.2621
 7047SOL    HW222041   1.853   0.077   2.156 -1.7190 -0.2924  0.2157
 7048SOL     OW22042   6.049   4.903   5.913  0.1806 -0.0968  0.3586
 7048SOL    HW122043   6.072   4.905   5.816  1.4167 -1.6989  0.5795
 7048SOL    HW222044   5.952   4.883   5.924  0.2484 -1.0318 -0.5723
 7049SOL     OW22045   2.577   0.916   6.113  0.0042 -0.0820 -0.2999
 7049SOL    HW122046   2.543   0.980   6.044  1.7150 -1.1771 -2.2741
 7049SOL    HW222047   2.667   0.880   6.085  0.0987 -1.7089  1.7827
 7050SOL     OW22048   1.865   6.662   6.212  0.2662  0.0615  0.4016
 7050SOL    HW122049   1.913   6.672   6.299  0.7420  0.6054  0.0869
 7050SOL    HW222050   1.921   6.608   6.149  0.1743  0.1422  0.2496
 7051SOL     OW22051   2.805   2.287   2.854  0.4708  0.4140 -0.1233
 7051SOL    HW122052   2.784   2.219   2.784 -0.6621  0.5015  0.1070
 7051SOL    HW222053   2.776   2.377   2.822  2.5368  0.9262 -0.6906
 7052SOL     OW22054   6.167   0.996   2.596 -0.2176 -0.0048  0.5620
 7052SOL    HW122055   6.178   0.899   2.577  0.1210  0.3020 -0.8747
 7052SOL    HW222056   6.248   1.046   2.565 -0.8346  0.8681  0.3099
 7053SOL     OW22057   0.108   4.707   3.392 -0.1851  0.0421 -0.4068
 7053SOL    HW122058   0.019   4.703   3.438 -0.4264 -0.4756 -0.9183
 7053SOL    HW222059   0.141   4.802   3.393 -0.7920  0.2590 -0.3146
 7054SOL     OW22060   6.324   0.852   6.674  0.4540 -0.1067  0.2617
 7054SOL    HW122061   6.413   0.879   6.636  0.6440  1.0578  1.4618
 7054SOL    HW222062   6.291   0.771   6.626  1.7615 -0.0635 -0.7817
 7055SOL     OW22063   0.906   0.067   0.782  0.4098 -0.7065 -0.0002
 7055SOL    HW122064   0.908   0.081   0.683  1.6872 -1.1114 -0.0502
 7055SOL    HW222065   0.850  -0.012   0.804 -2.1074  0.9197 -0.1580
 7056SOL     OW22066   1.122   4.289   0.466 -0.0322 -0.4658 -0.0714
 7056SOL    HW122067   1.126   4.377   0.418 -1.1861 -0.2559  0.1780
 7056SOL    HW222068   1.080   4.221   0.406  3.1610 -1.5801 -1.2528
 7057SOL     OW22069   0.842   0.342   3.315  0.0849 -0.2803  0.1529
 7057SOL    HW122070   0.892   0.290   3.384 -0.4555 -2.3217 -0.9204
 7057SOL    HW222071   0.892   0.338   3.228  0.5088  1.8496  0.2291
 7058SOL     OW22072   5.592   4.316   5.856  0.0429 -0.4863 -0.9867
 7058SOL    HW122073   5.587   4.364   5.768  0.3763  0.8024 -0.3329
 7058SOL    HW222074   5.688   4.308   5.884  0.0623 -2.3522 -1.4926
 7059SOL     OW22075   2.176   2.323   3.935  0.3738  0.5729 -0.3902
 7059SOL    HW122076   2.152   2.364   4.023 -2.5591  0.6976 -1.1335
 7059SOL    HW222077   2.094   2.282   3.894  2.2150 -2.0184 -1.7956
 7060SOL     OW22078   3.359   3.372   6.475  0.2385  0.1802  0.3440
 7060SOL    HW122079   3.355   3.289   6.530 -0.7293 -1.0394 -1.4383
 7060SOL    HW222080   3.275   3.379   6.420  0.1222  2.5699  0.7420
 7061SOL     OW22081   2.222   6.787   1.087 -0.2260 -0.2431  0.4821
 7061SOL    HW122082   2.248   6.785   0.990  1.4646 -1.4166  0.9263
 7061SOL    HW222083   2.301   6.810   1.143 -1.1289  0.1720  1.6296
 7062SOL     OW22084   3.842   1.662   4.749  0.0397  0.3853 -0.0652
 7062SOL    HW122085   3.837   1.583   4.689  1.1237  0.4746 -0.2958
 7062SOL    HW222086   3.877   1.635   4.839  2.5185  0.8880 -0.7953
 7063SOL     OW22087   1.351   0.484   1.983  0.1245 -0.1662 -0.2513
 7063SOL    HW122088   1.276   0.521   1.928  1.1134  0.1278 -1.4587
 7063SOL    HW222089   1.373   0.392   1.951  0.2462 -0.2716  0.1322
 7064SOL     OW22090   3.142   0.792   0.298 -0.3936  0.0342  0.2445
 7064SOL    HW122091   3.105   0.884   0.309  1.4556  1.1080 -1.6354
 7064SOL    HW222092   3.154   0.750   0.388  0.8539  2.5689  1.3707
 7065SOL     OW22093   2.806   0.470   2.250  0.0528  0.5627 -0.3326
 7065SOL    HW122094   2.869   0.546   2.263  1.6184 -0.9884  1.8199
 7065SOL    HW222095   2.849   0.385   2.280 -1.6074 -1.2496 -2.6576
 7066SOL     OW22096   5.391   6.287   2.271  0.7553 -0.0845  0.8226
 7066SOL    HW122097   5.463   6.352   2.297  1.5113  0.3961 -2.0529
 7066SOL    HW222098   5.310   6.337   2.241  1.2344 -0.4065 -1.1225
 7067SOL     OW22099   4.146   4.392   5.358  0.0062  0.3441 -0.5489
 7067SOL    HW122100   4.073   4.429   5.302  0.9853  3.1050 -0.1473
 7067SOL    HW222101   4.226   4.371   5.301 -0.7413 -1.8833 -0.8646
 7068SOL     OW22102   6.055   3.818   2.514 -0.5969 -0.0979 -0.1133
 7068SOL    HW122103   6.042   3.786   2.608  2.2610  0.4327  0.5713
 7068SOL    HW222104   6.038   3.743   2.451  0.4901 -1.4243  1.0801
 7069SOL     OW22105   3.797   6.676   5.942 -0.2302 -0.1197 -0.1901
 7069SOL    HW122106   3.810   6.615   5.864 -1.3505  0.3922 -0.7949
 7069SOL    HW222107   3.862   6.652   6.014  0.0422 -1.3444 -0.8212
 7070SOL     OW22108   1.462   2.243   5.990 -0.3695  0.0707  0.2020
 7070SOL    HW122109   1.428   2.161   6.035 -0.7221 -0.3346 -0.7727
 7070SOL    HW222110   1.555   2.227   5.956  0.4381  0.8193  1.9113
 7071SOL     OW22111   3.515   5.985   6.935 -0.2578 -0.5161 -0.4168
 7071SOL    HW122112   3.483   5.944   7.020 -1.7979  0.8512 -0.3084
 7071SOL    HW222113   3.444   5.978   6.865 -0.2552  1.2437 -0.6290
 7072SOL     OW22114   0.863   3.338   4.552  0.1263  0.3336 -0.3322
 7072SOL    HW122115   0.961   3.341   4.569 -0.0483 -0.3176  0.9315
 7072SOL    HW222116   0.814   3.337   4.639 -0.8673 -2.5154 -0.8084
 7073SOL     OW22117   3.968   2.708   5.337 -0.7850 -0.2281  0.0516
 7073SOL    HW122118   4.021   2.788   5.365 -0.4855 -0.6014  0.5746
 7073SOL    HW222119   4.030   2.636   5.306 -0.6816 -1.7103  3.2514
 7074SOL     OW22120   5.215   3.423   4.149  0.0904 -0.2276 -0.1585
 7074SOL    HW122121   5.149   3.373   4.092 -0.0529 -0.8358  0.5213
 7074SOL    HW222122   5.167   3.495   4.200 -0.1885 -1.0837  0.8248
 7075SOL     OW22123   1.313   3.992   1.886  0.3390 -0.4562 -0.2806
 7075SOL    HW122124   1.366   3.930   1.828 -0.6324 -1.3842 -0.2057
 7075SOL    HW222125   1.230   4.020   1.838  0.2311 -0.0743  0.1183
 7076SOL     OW22126   0.224   2.547   0.904  0.1330 -0.3029  0.3355
 7076SOL    HW122127   0.215   2.471   0.839 -0.1447 -1.1587  1.3434
 7076SOL    HW222128   0.155   2.616   0.883 -0.1010 -0.6771 -0.1552
 7077SOL     OW22129   4.801   6.493   1.816 -0.3731  0.1723  0.0566
 7077SOL    HW122130   4.738   6.566   1.794  0.0822  0.5148 -0.1314
 7077SOL    HW222131   4.833   6.449   1.733 -0.7934 -0.3743  0.1776
 7078SOL     OW22132   5.841   1.435   1.283 -0.0437 -0.2747 -0.0308
 7078SOL    HW122133   5.797   1.393   1.204  0.5137  1.5023 -1.3493
 7078SOL    HW222134   5.940   1.419   1.280  0.1811  1.0890 -0.5675
 7079SOL     OW22135   1.619   0.132   4.606 -0.3734  0.2348 -0.1769
 7079SOL    HW122136   1.692   0.165   4.666 -1.9962  2.8812  0.4794
 7079SOL    HW222137   1.560   0.070   4.657  1.9202 -2.9253 -1.0390
 7080SOL     OW22138   2.414   6.914   0.871 -0.4954  0.3453  0.3555
 7080SOL    HW122139   2.376   6.993   0.919 -1.3523  0.2382 -0.1310
 7080SOL    HW222140   2.399   6.924   0.772  1.6804  0.8016  0.0173
 7081SOL     OW22141   3.281   6.512   5.322  0.4218 -0.3342  0.1275
 7081SOL    HW122142   3.340   6.491   5.244  1.4214 -2.4526  1.3642
 7081SOL    HW222143   3.308   6.600   5.361 -0.1947  0.8317 -1.9465
 7082SOL     OW22144   0.857   4.240   1.686 -0.4040 -0.1266  0.0481
 7082SOL    HW122145   0.912   4.317   1.654  0.2509 -0.5963  0.0077
 7082SOL    HW222146   0.796   4.270   1.760  0.0569  0.3654  0.2319
 7083SOL     OW22147   0.603   1.767   3.439 -0.3794 -0.1061  0.9719
 7083SOL    HW122148   0.645   1.847   3.482  1.5945 -0.9315  0.6670
 7083SOL    HW222149   0.613   1.774   3.340 -2.2752  0.3407  0.7575
 7084SOL     OW22150   6.536   4.995   1.432 -0.8414  0.1147 -0.0426
 7084SOL    HW122151   6.542   5.092   1.409  0.0197  0.0740 -0.0320
 7084SOL    HW222152   6.610   4.946   1.385 -2.0321 -0.7468 -1.0846
 7085SOL     OW22153   6.876   2.299   0.909 -0.2223  0.3619  0.0739
 7085SOL    HW122154   6.807   2.229   0.888  1.3908 -0.9912 -1.0207
 7085SOL    HW222155   6.904   2.344   0.824  1.0562  0.0600  0.3200
 7086SOL     OW22156   5.717   0.736   3.190  0.0820 -0.1641  0.6968
 7086SOL    HW122157   5.686   0.672   3.260  0.7689 -0.2875  0.8976
 7086SOL    HW222158   5.730   0.686   3.104 -0.3303 -0.0993  0.5950
 7087SOL     OW22159   6.184   5.333   5.273 -0.3285  0.0372 -0.4501
 7087SOL    HW122160   6.098   5.340   5.323 -0.3939  0.4378 -0.6113
 7087SOL    HW222161   6.223   5.425   5.261 -0.8900  0.0871 -2.1490
 7088SOL     OW22162   5.494   1.777   4.980 -0.1774  0.1822  0.7958
 7088SOL    HW122163   5.506   1.762   5.078 -1.7266  2.1639  1.3692
 7088SOL    HW222164   5.396   1.788   4.960  0.1781  0.6226 -0.8323
 7089SOL     OW22165   4.353   4.854   2.678 -0.0402  0.1117 -0.1891
 7089SOL    HW122166   4.410   4.779   2.712  1.0923  0.9078 -0.2748
 7089SOL    HW222167   4.268   4.857   2.730  0.8307  0.1129  1.3163
 7090SOL     OW22168   5.850   3.653   1.897  0.3872  0.3630  0.0964
 7090SOL    HW122169   5.765   3.664   1.948  0.6031  0.4045  0.4460
 7090SOL    HW222170   5.919   3.716   1.932  0.4238  0.6624 -0.4941
 7091SOL     OW22171   4.825   0.995   4.924  0.1162  0.0051  0.3966
 7091SOL    HW122172   4.741   1.043   4.900 -0.0322 -0.2795  0.3469
 7091SOL    HW222173   4.804   0.902   4.955  0.4128 -0.0780  0.3602
 7092SOL     OW22174   4.174   6.551   6.473  0.1838 -0.5881  0.9970
 7092SOL    HW122175   4.261   6.572   6.517  0.7676  1.1047 -0.8231
 7092SOL    HW222176   4.112   6.629   6.484 -0.7968 -1.3961  1.4404
 7093SOL     OW22177   5.458   4.577   1.292  0.3755  0.7531  0.8588
 7093SOL    HW122178   5.490   4.659   1.340  3.3471  1.5901 -2.1285
 7093SOL    HW222179   5.384   4.602   1.229 -1.1999  0.3323  2.4844
 7094SOL     OW22180   5.358   1.191   5.721  0.0648 -0.5859  0.2440
 7094SOL    HW122181   5.350   1.291   5.715 -1.3256 -0.7122 -0.3583
 7094SOL    HW222182   5.291   1.148   5.661  0.0535 -1.8894  1.1333
 7095SOL     OW22183   2.373   5.562   4.449  0.4219 -0.0341  0.3590
 7095SOL    HW122184   2.337   5.510   4.527  0.6413 -0.8711 -0.0952
 7095SOL    HW222185   2.446   5.623   4.481 -0.8017  1.0874  1.1459
 7096SOL     OW22186   6.907   4.216   6.955  0.0410  0.4521  0.7907
 7096SOL    HW122187   6.969   4.278   7.004 -1.2629  1.3244  1.3823
 7096SOL    HW222188   6.872   4.147   7.018  2.1073 -1.4785 -0.0318
 7097SOL     OW22189   4.443   0.229   3.830  0.0013  0.5762  0.2706
 7097SOL    HW122190   4.357   0.258   3.872 -0.6231  1.1505 -1.3231
 7097SOL    HW222191   4.444   0.256   3.733  1.9701  0.5610  0.2392
 7098SOL     OW22192   2.280   2.867   2.346  0.2022  0.2870 -0.0569
 7098SOL    HW122193   2.270   2.788   2.286 -1.3964 -0.2943  0.9335
 7098SOL    HW222194   2.358   2.922   2.315 -0.1630 -0.3356 -2.2443
 7099SOL     OW22195   4.590   0.738   7.011 -0.3328 -0.5052 -0.7598
 7099SOL    HW122196   4.569   0.717   6.915  1.2579 -0.3277 -1.1698
 7099SOL    HW222197   4.544   0.822   7.038 -0.1827 -0.1423 -1.6125
 7100SOL     OW22198   1.512   3.622   1.137 -0.2938  0.4312 -0.4560
 7100SOL    HW122199   1.575   3.546   1.157  1.1405  1.4552 -0.9366
 7100SOL    HW222200   1.499   3.676   1.220 -3.6806 -1.8914  0.7716
 7101SOL     OW22201   2.045   0.585   4.077 -0.1708 -0.3033 -0.1179
 7101SOL    HW122202   2.134   0.540   4.078 -0.1890 -0.3383  1.1710
 7101SOL    HW222203   1.991   0.549   4.000 -0.1383 -2.4340  0.7655
 7102SOL     OW22204   5.441   0.789   3.460 -0.0086  0.0354  0.3722
 7102SOL    HW122205   5.371   0.759   3.396 -0.5084  0.3719  0.7442
 7102SOL    HW222206   5.403   0.860   3.520  1.4871  2.4938 -1.3810
 7103SOL     OW22207   4.715   4.114   4.352  0.5060  0.0223  0.2652
 7103SOL    HW122208   4.617   4.099   4.367 -0.0457 -0.5157 -3.1054
 7103SOL    HW222209   4.764   4.027   4.360 -0.0215 -0.5717 -2.0696
 7104SOL     OW22210   5.062   2.951   4.630 -0.2759 -0.0856 -0.2412
 7104SOL    HW122211   5.050   2.932   4.727  1.5115 -0.5769 -0.0720
 7104SOL    HW222212   4.975   2.938   4.582 -1.4940  1.3948  1.4495
 7105SOL     OW22213   3.319   2.741   1.059  0.1041 -0.1012  0.4253
 7105SOL    HW122214   3.412   2.778   1.065  0.0698 -0.0063  0.3756
 7105SOL    HW222215   3.259   2.793   1.121 -0.0372  0.2161  0.0259
 7106SOL     OW22216   1.689   2.150   1.844 -0.3527  0.2228  0.4837
 7106SOL    HW122217   1.785   2.176   1.839 -1.2363  4.0220 -0.0385
 7106SOL    HW222218   1.659   2.117   1.754  0.2589 -0.1583  0.4156
 7107SOL     OW22219   2.103   0.686   0.920 -0.0330  0.0251 -0.3072
 7107SOL    HW122220   2.124   0.784   0.919  2.7242 -0.3489  2.9774
 7107SOL    HW222221   2.014   0.672   0.964 -0.5807  1.0016 -1.0487
 7108SOL     OW22222   2.144   6.472   2.137 -0.5910 -0.4856 -0.6647
 7108SOL    HW122223   2.228   6.499   2.090 -0.3204 -0.1101  0.0201
 7108SOL    HW222224   2.071   6.535   2.112  0.0174  0.9077  0.8563
 7109SOL     OW22225   2.787   5.413   5.397 -0.0877 -0.0478  0.1263
 7109SOL    HW122226   2.689   5.395   5.404 -0.2689 -0.8879 -3.0203
 7109SOL    HW222227   2.809   5.498   5.445 -2.3295  0.1275  0.9350
 7110SOL     OW22228   2.914   5.801   5.694 -0.3193  0.0832  0.0322
 7110SOL    HW122229   2.886   5.865   5.624  1.9377 -1.8712 -2.8922
 7110SOL    HW222230   2.858   5.718   5.689 -0.3442  0.0408  0.7741
 7111SOL     OW22231   6.112   2.095   3.906 -0.3177  0.2775  0.3680
 7111SOL    HW122232   6.102   2.011   3.958 -1.9229  0.3162  0.1458
 7111SOL    HW222233   6.085   2.080   3.811  1.4868  0.5065 -0.2256
 7112SOL     OW22234   0.883   3.529   4.917  0.3995 -0.0609 -0.6043
 7112SOL    HW122235   0.884   3.512   5.016 -0.4163 -0.9448 -0.7380
 7112SOL    HW222236   0.976   3.524   4.881  0.6818  0.1022  0.0857
 7113SOL     OW22237   2.611   6.709   4.513  0.2672  0.3251  0.1349
 7113SOL    HW122238   2.515   6.736   4.522  0.2794  0.4312 -0.0487
 7113SOL    HW222239   2.658   6.722   4.601 -0.8657 -3.6777  1.5324
 7114SOL     OW22240   0.157   3.249   6.114 -0.3353 -0.2429 -0.3248
 7114SOL    HW122241   0.154   3.325   6.049 -1.1663  0.7177  0.7972
 7114SOL    HW222242   0.231   3.187   6.089 -0.3358  0.3404 -1.9097
 7115SOL     OW22243   4.738   3.256   6.845 -0.0552 -0.6488 -0.7197
 7115SOL    HW122244   4.834   3.245   6.870 -0.1496  0.1176  0.0138
 7115SOL    HW222245   4.718   3.200   6.764  1.2161 -0.1584 -1.3968
 7116SOL     OW22246   6.152   4.032   5.599 -0.1021  0.1020  0.0995
 7116SOL    HW122247   6.147   4.046   5.698  0.1103 -2.7758  0.6025
 7116SOL    HW222248   6.222   3.964   5.578 -3.0558 -2.7438 -1.5160
 7117SOL     OW22249   2.985   0.711   3.399  0.0757 -0.2482 -0.4152
 7117SOL    HW122250   3.061   0.753   3.449  0.3962 -1.5122  0.2114
 7117SOL    HW222251   2.921   0.782   3.369  1.3289  0.8091 -0.6754
 7118SOL     OW22252   5.999   4.234   6.320  0.3916 -0.0210  0.0849
 7118SOL    HW122253   5.991   4.329   6.350  1.0864  0.0997 -0.0830
 7118SOL    HW222254   5.909   4.199   6.293  0.3826  1.1502 -1.5363
 7119SOL     OW22255   3.437   5.672   4.137  0.1475  0.3363  0.5144
 7119SOL    HW122256   3.513   5.735   4.154  0.6613  0.1943 -1.0630
 7119SOL    HW222257   3.457   5.617   4.055 -1.0197 -0.7203  0.9093
 7120SOL     OW22258   6.476   2.261   2.520 -0.0213  0.0469 -0.3145
 7120SOL    HW122259   6.423   2.346   2.515  0.2807  0.2268 -0.4870
 7120SOL    HW222260   6.416   2.186   2.545  0.1191  0.6911  2.2613
 7121SOL     OW22261   1.745   5.067   3.261  0.1915 -0.4397  0.4113
 7121SOL    HW122262   1.805   5.112   3.194 -0.1787  0.7600  0.8539
 7121SOL    HW222263   1.664   5.032   3.215  0.7434 -1.1708 -0.0306
 7122SOL     OW22264   3.905   3.618   6.559  0.2914  0.0074 -0.0520
 7122SOL    HW122265   3.856   3.532   6.576  0.5285 -0.4272 -1.4154
 7122SOL    HW222266   4.001   3.598   6.539  0.8701  0.7866  1.7449
 7123SOL     OW22267   4.893   3.593   4.146  0.6943 -0.3120  0.3742
 7123SOL    HW122268   4.884   3.624   4.052 -0.2335  1.1214  0.8896
 7123SOL    HW222269   4.861   3.499   4.155  0.7827 -0.4510 -0.7241
 7124SOL     OW22270   3.513   2.113   5.516  0.2374 -0.4476 -0.0045
 7124SOL    HW122271   3.500   2.193   5.576 -1.6520  0.0660 -1.0091
 7124SOL    HW222272   3.443   2.114   5.445  3.0640 -0.3598 -3.0186
 7125SOL     OW22273   2.113   6.546   0.970 -0.2170 -0.0375  1.1054
 7125SOL    HW122274   2.196   6.597   0.949 -0.1180 -0.2457  0.9946
 7125SOL    HW222275   2.132   6.448   0.970 -0.9870 -0.2527 -1.3667
 7126SOL     OW22276   3.278   2.581   6.625 -0.3799  0.4181  0.3886
 7126SOL    HW122277   3.348   2.588   6.696 -0.3657 -2.3510  0.7486
 7126SOL    HW222278   3.319   2.598   6.536  0.1122  1.5984  0.8259
 7127SOL     OW22279   1.061   0.170   6.017 -0.2897 -0.1106 -1.3287
 7127SOL    HW122280   1.091   0.265   6.008 -1.7127  0.7438  1.5854
 7127SOL    HW222281   0.964   0.164   5.994 -0.5385 -0.5566 -0.2263
 7128SOL     OW22282   5.113   3.946   0.677 -0.5290 -0.0116 -0.7839
 7128SOL    HW122283   5.094   4.043   0.667 -0.1884  0.0030 -1.2757
 7128SOL    HW222284   5.041   3.893   0.632 -1.6936 -0.0341  0.9942
 7129SOL     OW22285   6.418   3.435   6.960 -0.6445 -0.2577 -0.3144
 7129SOL    HW122286   6.512   3.433   6.926 -0.3541  0.5315  0.3768
 7129SOL    HW222287   6.365   3.362   6.918  0.1385 -0.3763 -1.1228
 7130SOL     OW22288   4.370   0.140   3.310  0.1585  0.5389 -0.3049
 7130SOL    HW122289   4.299   0.138   3.240  1.0506  1.2261 -1.2585
 7130SOL    HW222290   4.453   0.182   3.273  1.1707 -0.5054  0.6766
 7131SOL     OW22291   4.960   2.611   4.789  0.4848  0.1909  0.8868
 7131SOL    HW122292   4.913   2.650   4.868 -0.3914  0.8512  0.0648
 7131SOL    HW222293   5.055   2.643   4.788  0.1255  1.3247  0.9215
 7132SOL     OW22294   5.136   4.613   4.042 -0.2273  0.4794 -0.2433
 7132SOL    HW122295   5.036   4.608   4.037 -0.2714  1.0835 -0.1044
 7132SOL    HW222296   5.163   4.708   4.057  0.4931  0.7973 -3.0213
 7133SOL     OW22297   5.346   6.636   1.527  0.4809 -0.3409 -0.4344
 7133SOL    HW122298   5.307   6.645   1.436  0.8882  1.2279 -0.4677
 7133SOL    HW222299   5.281   6.670   1.595  1.9949  3.1437 -0.5542
 7134SOL     OW22300   6.691   4.698   5.950  0.1404  0.4802 -0.3200
 7134SOL    HW122301   6.697   4.789   5.990 -0.2272 -0.2272  1.4307
 7134SOL    HW222302   6.749   4.635   6.002 -0.6151 -0.5564 -0.7005
 7135SOL     OW22303   3.204   0.192   6.978 -0.6644  0.0130 -0.0392
 7135SOL    HW122304   3.227   0.185   6.881 -1.6360 -1.0191 -0.2084
 7135SOL    HW222305   3.129   0.257   6.990 -1.2955 -0.6888 -0.1195
 7136SOL     OW22306   0.909   1.102   3.392  0.4041  0.0639 -0.4518
 7136SOL    HW122307   0.924   1.017   3.343  0.2174  0.4315 -1.1536
 7136SOL    HW222308   0.987   1.163   3.377 -0.0710  0.5289 -1.0345
 7137SOL     OW22309   1.263   0.181   2.311  0.2106  0.3255  0.0219
 7137SOL    HW122310   1.215   0.225   2.236 -0.5307 -2.0859 -1.0027
 7137SOL    HW222311   1.204   0.175   2.391 -0.3853 -0.4581 -0.4591
 7138SOL     OW22312   6.572   4.795   1.106  0.4315  0.5736  0.0785
 7138SOL    HW122313   6.619   4.717   1.066  1.7562  1.4050 -0.0232
 7138SOL    HW222314   6.597   4.803   1.203 -0.8824 -0.0008  0.4907
 7139SOL     OW22315   4.592   6.674   1.759  0.7417 -0.0534 -0.4330
 7139SOL    HW122316   4.604   6.766   1.798  0.9252 -0.2509 -0.0126
 7139SOL    HW222317   4.505   6.635   1.792  1.2030 -0.4773  0.3156
 7140SOL     OW22318   0.383   3.946   0.093 -0.5737  0.4412 -0.3101
 7140SOL    HW122319   0.360   3.889   0.172 -0.7893 -0.9507 -1.3338
 7140SOL    HW222320   0.477   3.926   0.064 -0.3367  1.2775 -0.1634
 7141SOL     OW22321   3.927   2.297   6.008  0.4506  0.0391 -0.1277
 7141SOL    HW122322   3.966   2.387   5.988  0.3599 -0.0757 -0.8348
 7141SOL    HW222323   3.828   2.299   5.993  0.2216  0.2143  1.2607
 7142SOL     OW22324   5.292   0.121   6.706  0.2653  0.7473  0.4610
 7142SOL    HW122325   5.258   0.165   6.623  0.6372 -1.2069 -0.7774
 7142SOL    HW222326   5.392   0.128   6.709  0.2086  1.4203  1.1278
 7143SOL     OW22327   2.106   3.735   0.757 -0.3002 -0.2090 -0.5797
 7143SOL    HW122328   2.147   3.645   0.775 -1.4452 -0.6049  0.1774
 7143SOL    HW222329   2.040   3.756   0.829 -0.2130  1.1524 -0.8785
 7144SOL     OW22330   4.436   2.845   5.980  0.2267 -0.1077 -1.1453
 7144SOL    HW122331   4.442   2.944   5.991  1.3082 -0.2183 -0.5964
 7144SOL    HW222332   4.357   2.822   5.923  0.0370  1.0722 -1.3740
 7145SOL     OW22333   0.194   3.352   1.068  0.0761 -0.5802 -0.5582
 7145SOL    HW122334   0.158   3.445   1.068  0.6004 -0.3420  0.7747
 7145SOL    HW222335   0.293   3.355   1.084  0.1171 -1.3642 -0.6240
 7146SOL     OW22336   0.665   0.778   4.220 -0.2492  0.0148 -0.1079
 7146SOL    HW122337   0.590   0.711   4.227 -0.5857  0.3382 -0.5211
 7146SOL    HW222338   0.656   0.846   4.292  0.0717 -0.3614  0.2904
 7147SOL     OW22339   6.023   1.339   4.795 -0.3333 -0.1775  0.1181
 7147SOL    HW122340   6.059   1.394   4.870 -0.4579  1.1130 -0.7235
 7147SOL    HW222341   5.942   1.384   4.757  1.1398  0.5702 -2.3769
 7148SOL     OW22342   4.437   5.601   1.617  0.6685 -0.0271 -0.0564
 7148SOL    HW122343   4.359   5.658   1.594  0.2283 -0.5111  0.2237
 7148SOL    HW222344   4.436   5.579   1.714  0.8563 -0.4777 -0.1504
 7149SOL     OW22345   1.067   4.612   0.069 -0.0063  0.8504 -0.2239
 7149SOL    HW122346   1.032   4.702   0.044  1.0195  1.3660  0.1296
 7149SOL    HW222347   1.093   4.611   0.165 -0.1391  0.1243 -0.1846
 7150SOL     OW22348   4.227   0.463   6.851  0.4965 -0.7031 -0.1114
 7150SOL    HW122349   4.238   0.464   6.752 -0.8960 -1.2466 -0.3028
 7150SOL    HW222350   4.269   0.380   6.888  0.1122 -1.0247 -0.3837
 7151SOL     OW22351   5.978   3.198   1.871 -0.0874 -0.4151 -0.2362
 7151SOL    HW122352   5.973   3.160   1.963  1.4399  0.1479  0.1115
 7151SOL    HW222353   5.980   3.298   1.876 -0.3605 -0.3700 -0.8974
 7152SOL     OW22354   5.591   6.631   4.928 -0.0015  0.0574  0.3452
 7152SOL    HW122355   5.547   6.700   4.869  0.2651  0.6259  0.8034
 7152SOL    HW222356   5.537   6.619   5.011 -1.7260 -2.5270 -1.0285
 7153SOL     OW22357   5.520   5.374   0.503 -0.0182  0.0088  0.0286
 7153SOL    HW122358   5.511   5.436   0.424  0.2284 -0.0677 -0.0628
 7153SOL    HW222359   5.454   5.399   0.573 -1.5019 -1.0500 -0.9341
 7154SOL     OW22360   4.451   4.615   2.801 -0.2339  0.6094  0.6884
 7154SOL    HW122361   4.496   4.599   2.713  0.9533  2.1993  0.9488
 7154SOL    HW222362   4.510   4.582   2.875  0.8762  3.1202  1.0597
 7155SOL     OW22363   1.211   0.766   1.583 -0.0017 -0.6122 -0.2033
 7155SOL    HW122364   1.298   0.719   1.564 -0.4104 -1.8643  0.8878
 7155SOL    HW222365   1.135   0.704   1.562 -0.5638 -0.3377  0.9522
 7156SOL     OW22366   0.152   5.042   6.392 -0.6955 -0.3309  0.5151
 7156SOL    HW122367   0.084   5.090   6.448 -0.6862  0.2851  0.0137
 7156SOL    HW222368   0.107   5.002   6.313 -0.2393  1.6740 -0.8312
 7157SOL     OW22369   6.520   2.316   6.284 -0.2016  0.0778 -0.4983
 7157SOL    HW122370   6.523   2.217   6.277 -0.2454 -0.0221  0.6757
 7157SOL    HW222371   6.528   2.357   6.193  4.4690 -0.8442 -0.7018
 7158SOL     OW22372   5.756   5.958   5.313 -0.1616  0.1165 -0.0241
 7158SOL    HW122373   5.807   5.947   5.228  1.4426  2.0020  0.6052
 7158SOL    HW222374   5.760   5.873   5.366  1.6531 -0.0647 -0.3877
 7159SOL     OW22375   0.194   0.081   3.858  0.2631  0.4236  0.3894
 7159SOL    HW122376   0.208   0.093   3.956 -1.3769  1.4358  0.5250
 7159SOL    HW222377   0.246   0.001   3.827  0.2034 -0.3747  2.2211
 7160SOL     OW22378   4.908   4.651   2.182  0.5989 -0.6616  0.1918
 7160SOL    HW122379   4.873   4.671   2.274  0.4106 -0.5169  0.0887
 7160SOL    HW222380   5.003   4.679   2.175  0.5191 -0.3756  0.2425
 7161SOL     OW22381   3.616   1.378   2.665 -0.5526 -0.3448 -0.4585
 7161SOL    HW122382   3.622   1.439   2.744  0.3279 -1.3038  0.2453
 7161SOL    HW222383   3.521   1.368   2.637 -0.8866 -0.0506  0.5414
 7162SOL     OW22384   0.985   0.496   0.471  0.4314 -0.4986 -0.1668
 7162SOL    HW122385   1.063   0.552   0.444 -1.5533  2.5544 -0.0985
 7162SOL    HW222386   0.953   0.442   0.393 -0.0571  1.6527 -1.5196
 7163SOL     OW22387   6.142   6.052   0.652  0.3063  0.0087 -0.5186
 7163SOL    HW122388   6.115   5.990   0.579  0.2877 -0.3820 -0.1860
 7163SOL    HW222389   6.217   6.012   0.705 -0.2151 -0.0889  0.1739
 7164SOL     OW22390   2.797   0.762   0.650  0.0484 -0.9818  0.1636
 7164SOL    HW122391   2.817   0.803   0.739  2.5292  0.8159 -1.1130
 7164SOL    HW222392   2.872   0.703   0.622  0.4532  0.3234 -1.7098
 7165SOL     OW22393   4.739   2.778   6.526 -0.2840  0.0600 -0.2934
 7165SOL    HW122394   4.820   2.777   6.585  0.5823  0.1035 -1.4473
 7165SOL    HW222395   4.691   2.865   6.536 -0.1586  0.0570  0.3587
 7166SOL     OW22396   0.435   6.444   5.366  0.4900 -0.0775  0.1840
 7166SOL    HW122397   0.482   6.508   5.426 -1.3742 -1.3455  3.2407
 7166SOL    HW222398   0.497   6.369   5.343  1.3469  0.5942  0.2464
 7167SOL     OW22399   6.532   3.590   5.647  0.7436 -0.3119  0.6079
 7167SOL    HW122400   6.590   3.627   5.575 -1.2991  3.1054  0.4579
 7167SOL    HW222401   6.478   3.514   5.611  1.9492 -0.6716 -0.5159
 7168SOL     OW22402   0.099   1.612   0.680  0.7238 -0.3177  0.2440
 7168SOL    HW122403   0.094   1.512   0.675  0.7448 -0.4472  2.2281
 7168SOL    HW222404   0.109   1.649   0.587 -1.2415 -2.0266 -0.7421
 7169SOL     OW22405   2.490   6.008   3.703 -0.1013  0.1363 -0.3513
 7169SOL    HW122406   2.418   5.946   3.734  0.0949 -0.2544 -0.6527
 7169SOL    HW222407   2.562   5.955   3.658  0.2676  0.5440 -0.2542
 7170SOL     OW22408   4.419   1.694   3.130  0.2399 -0.0973 -0.0849
 7170SOL    HW122409   4.494   1.628   3.139  0.0883 -0.5226 -1.6077
 7170SOL    HW222410   4.377   1.710   3.219  3.1967  1.4552  1.1678
 7171SOL     OW22411   0.174   4.381   1.617  0.1032 -0.4827  0.8234
 7171SOL    HW122412   0.087   4.377   1.568  0.1354  0.9912  0.5902
 7171SOL    HW222413   0.222   4.294   1.608 -0.2758 -0.5358 -1.0541
 7172SOL     OW22414   0.958   3.399   3.573 -0.2276 -0.0898  0.3807
 7172SOL    HW122415   0.991   3.378   3.481 -0.0269 -1.1932  0.6830
 7172SOL    HW222416   0.886   3.334   3.598 -0.3340  0.2463  0.9714
 7173SOL     OW22417   4.541   5.443   3.765  0.4765 -0.2975 -0.1668
 7173SOL    HW122418   4.576   5.481   3.850  0.1245  0.3092 -0.2882
 7173SOL    HW222419   4.580   5.352   3.751 -1.0589 -1.3425  1.7153
 7174SOL     OW22420   1.392   2.422   3.551 -0.2158  0.4439 -0.2606
 7174SOL    HW122421   1.305   2.373   3.557  0.3414 -0.5315  0.0048
 7174SOL    HW222422   1.412   2.466   3.639  0.8856 -1.6776  0.6291
 7175SOL     OW22423   5.643   4.402   7.009 -0.0703 -0.2234 -0.6412
 7175SOL    HW122424   5.641   4.377   7.106  1.2283  1.3141 -0.1851
 7175SOL    HW222425   5.628   4.500   6.999 -1.1637 -0.5131 -2.0944
 7176SOL     OW22426   0.271   4.614   5.354 -0.3489 -0.3135  0.2724
 7176SOL    HW122427   0.195   4.675   5.332 -1.9763 -2.0683  0.6981
 7176SOL    HW222428   0.293   4.558   5.274  2.7134  2.2620 -0.8951
 7177SOL     OW22429   0.471   5.202   4.946  0.0396 -0.4512  0.0781
 7177SOL    HW122430   0.372   5.186   4.945 -0.4923  2.2081 -1.8840
 7177SOL    HW222431   0.517   5.126   4.901 -1.0060 -1.9974  1.5008
 7178SOL     OW22432   7.002   5.153   5.684 -0.3110  0.1230  0.8069
 7178SOL    HW122433   7.068   5.153   5.609  0.1648  3.1262  1.0975
 7178SOL    HW222434   6.992   5.246   5.719 -2.8973 -0.6627  2.4074
 7179SOL     OW22435   4.925   3.389   6.576 -0.2734  0.1362  0.3373
 7179SOL    HW122436   5.021   3.405   6.597 -0.0633  0.1333 -0.5779
 7179SOL    HW222437   4.870   3.468   6.604 -0.0085  0.1341  0.8635
 7180SOL     OW22438   0.892   2.477   1.860 -0.0047  0.0723 -0.2850
 7180SOL    HW122439   0.836   2.461   1.778  0.5783  0.5672 -0.7910
 7180SOL    HW222440   0.908   2.391   1.907 -4.2187  0.2075  1.9308
 7181SOL     OW22441   3.564   0.310   0.890 -0.3254  0.4189 -0.0784
 7181SOL    HW122442   3.485   0.352   0.845 -0.1776 -0.0115 -0.7578
 7181SOL    HW222443   3.647   0.330   0.838 -0.3205 -1.1163 -0.7335
 7182SOL     OW22444   4.132   2.088   4.306 -0.0329 -0.2573 -0.4990
 7182SOL    HW122445   4.130   2.124   4.213 -1.7441 -2.5524 -1.4358
 7182SOL    HW222446   4.122   1.989   4.304 -0.5970 -0.3276  2.1659
 7183SOL     OW22447   1.485   6.207   2.332  0.6691 -0.3152  0.8101
 7183SOL    HW122448   1.514   6.116   2.301  2.1729 -0.2232  1.8182
 7183SOL    HW222449   1.559   6.272   2.318  0.3829  0.2974  2.0052
 7184SOL     OW22450   6.925   2.086   1.091  0.3315 -0.4516 -0.2540
 7184SOL    HW122451   6.917   2.171   1.039 -1.6782 -0.8324 -0.6219
 7184SOL    HW222452   7.014   2.084   1.138  0.5590  1.6741 -0.5109
 7185SOL     OW22453   3.475   5.378   3.257 -0.0430  0.2984  0.4601
 7185SOL    HW122454   3.489   5.302   3.193  0.8003  1.1015 -0.3242
 7185SOL    HW222455   3.401   5.437   3.224 -0.7622 -0.2058  1.1183
 7186SOL     OW22456   6.922   2.918   1.837  0.1655 -0.0529 -0.1007
 7186SOL    HW122457   6.966   2.857   1.771  0.4891  0.8473 -0.7321
 7186SOL    HW222458   6.987   2.942   1.909 -0.4453 -1.7511  1.0885
 7187SOL     OW22459   4.129   3.353   3.047  0.0188  0.5135  0.1255
 7187SOL    HW122460   4.133   3.303   2.960 -1.7731 -1.8604  1.2778
 7187SOL    HW222461   4.037   3.345   3.085  0.4188  2.5739  1.6851
 7188SOL     OW22462   3.133   5.574   6.113  0.1452  0.1259 -0.4905
 7188SOL    HW122463   3.229   5.553   6.129  0.0846 -0.4152 -0.8193
 7188SOL    HW222464   3.080   5.489   6.109 -0.4801  0.4404  0.4826
 7189SOL     OW22465   0.557   2.710   0.815 -0.4507  0.0255  0.2176
 7189SOL    HW122466   0.600   2.795   0.843  0.0251 -0.5475  1.2933
 7189SOL    HW222467   0.528   2.659   0.896 -2.1123 -0.1482 -0.4399
 7190SOL     OW22468   3.955   5.347   1.006  0.2532 -0.2962  0.3891
 7190SOL    HW122469   4.042   5.350   0.956 -0.2237 -1.1639 -0.5281
 7190SOL    HW222470   3.961   5.277   1.077  0.2432 -0.4902  0.2003
 7191SOL     OW22471   5.923   4.785   2.456  0.1790  0.1426 -0.2944
 7191SOL    HW122472   5.925   4.841   2.539  0.4463 -2.4457  1.5782
 7191SOL    HW222473   5.834   4.795   2.412 -0.8543 -0.1172  1.6083
 7192SOL     OW22474   2.907   5.037   3.200  0.0916 -0.3902  0.1696
 7192SOL    HW122475   2.848   5.118   3.203 -0.2493 -0.5673 -1.2126
 7192SOL    HW222476   2.883   4.981   3.120 -0.1312 -2.2087  1.4436
 7193SOL     OW22477   6.158   2.414   5.539 -0.1129  0.1285  0.2568
 7193SOL    HW122478   6.136   2.317   5.526  0.9366 -0.0158 -0.6194
 7193SOL    HW222479   6.100   2.452   5.611  0.9076 -1.7016  2.1612
 7194SOL     OW22480   4.453   3.125   6.013 -0.6303 -0.3117 -0.1354
 7194SOL    HW122481   4.497   3.189   5.950 -1.5716 -1.1190 -1.6699
 7194SOL    HW222482   4.437   3.170   6.101  0.3323  0.9792 -0.5880
 7195SOL     OW22483   5.465   3.814   6.180  0.1745  0.4762  0.2686
 7195SOL    HW122484   5.404   3.741   6.147  0.0634  1.2272 -1.2676
 7195SOL    HW222485   5.489   3.874   6.104  1.4234  1.2260  1.2218
 7196SOL     OW22486   2.631   4.923   2.533  0.1146 -0.4947 -0.6273
 7196SOL    HW122487   2.611   4.843   2.590 -0.2290 -0.3424 -0.5339
 7196SOL    HW222488   2.584   4.913   2.445 -0.4649 -0.0882 -0.3685
 7197SOL     OW22489   2.306   4.685   6.986  0.0444  0.1666 -0.8787
 7197SOL    HW122490   2.371   4.643   7.048 -1.3759  1.2799  1.4998
 7197SOL    HW222491   2.352   4.754   6.930  1.0125  0.5593  0.3746
 7198SOL     OW22492   2.716   6.604   1.979 -0.2117 -0.4819  0.1671
 7198SOL    HW122493   2.703   6.514   1.937 -0.2974 -0.4925  0.2170
 7198SOL    HW222494   2.687   6.675   1.914 -0.8963 -0.5182  0.4278
 7199SOL     OW22495   4.501   6.327   2.022  0.0728 -0.4762 -0.8536
 7199SOL    HW122496   4.402   6.316   2.026 -0.3279  2.1752 -1.8007
 7199SOL    HW222497   4.535   6.352   2.113 -0.5926  1.4552 -1.0864
 7200SOL     OW22498   6.532   4.926   0.225  0.2655 -0.9759 -0.4587
 7200SOL    HW122499   6.584   4.883   0.299 -1.2822 -2.3097 -0.0908
 7200SOL    HW222500   6.443   4.883   0.218 -0.8994  1.3669 -0.9435
 7201SOL     OW22501   5.537   6.573   6.251 -0.0144  0.8300  0.1324
 7201SOL    HW122502   5.607   6.508   6.220 -1.4089 -1.1309  0.9157
 7201SOL    HW222503   5.561   6.665   6.219  2.6196  0.1668 -0.0734
 7202SOL     OW22504   5.433   6.206   5.812  0.1247 -0.3118  0.1818
 7202SOL    HW122505   5.528   6.180   5.826  0.2516 -0.5941 -1.0907
 7202SOL    HW222506   5.406   6.273   5.882  1.6677  0.8437 -0.2807
 7203SOL     OW22507   1.675   2.950   1.081 -0.0885 -0.1731 -0.5919
 7203SOL    HW122508   1.691   3.026   1.019 -1.7747 -0.3415 -1.2752
 7203SOL    HW222509   1.726   2.870   1.050  1.1999  0.4711 -0.2169
 7204SOL     OW22510   5.575   6.901   2.661 -0.3422 -0.0722 -0.0382
 7204SOL    HW122511   5.476   6.887   2.660 -0.1771 -1.6053 -2.2058
 7204SOL    HW222512   5.621   6.813   2.678  0.6757  0.5545  0.5925
 7205SOL     OW22513   3.802   1.326   5.189 -0.1785 -0.0999 -0.1603
 7205SOL    HW122514   3.710   1.342   5.153 -0.0010  0.8965 -0.2095
 7205SOL    HW222515   3.816   1.382   5.271 -0.6682 -2.5205  1.6820
 7206SOL     OW22516   2.370   3.077   5.416 -0.3017  0.1855 -0.2984
 7206SOL    HW122517   2.423   3.053   5.335 -0.6917  1.9323 -1.1216
 7206SOL    HW222518   2.304   3.148   5.393 -0.6864  0.4508  1.4650
 7207SOL     OW22519   0.759   2.265   2.874  0.6122  0.3250  0.0739
 7207SOL    HW122520   0.786   2.325   2.799  0.0038  0.8168  0.2470
 7207SOL    HW222521   0.786   2.306   2.961  2.2931 -0.7414  0.1007
 7208SOL     OW22522   3.900   0.703   2.511 -0.3396  0.0500  0.6154
 7208SOL    HW122523   3.951   0.745   2.435  0.6914 -0.2536  1.1204
 7208SOL    HW222524   3.821   0.760   2.533 -1.1233 -0.2681 -1.1946
 7209SOL     OW22525   5.452   1.809   2.284 -0.5490  0.7905 -0.4411
 7209SOL    HW122526   5.434   1.735   2.219  0.5613  0.7605 -0.7335
 7209SOL    HW222527   5.550   1.824   2.292 -0.6891  1.2470  0.7396
 7210SOL     OW22528   3.724   6.567   5.495  0.0972 -0.1415  0.2699
 7210SOL    HW122529   3.659   6.553   5.569 -0.5096  0.1815 -0.1873
 7210SOL    HW222530   3.809   6.519   5.515  0.4416  1.0089  1.8011
 7211SOL     OW22531   5.578   6.237   0.653 -0.3566  0.3180  0.2620
 7211SOL    HW122532   5.526   6.299   0.595  1.3964  2.5192  0.9445
 7211SOL    HW222533   5.629   6.173   0.596 -0.0385  1.2891 -0.5657
 7212SOL     OW22534   0.698   6.901   4.828 -0.2808  0.5213 -0.0119
 7212SOL    HW122535   0.651   6.819   4.796  0.7519  0.1102 -0.5278
 7212SOL    HW222536   0.761   6.933   4.757  0.1987  1.0646  0.6449
 7213SOL     OW22537   4.354   1.567   0.641  0.2197 -0.4798  0.0305
 7213SOL    HW122538   4.437   1.511   0.634 -1.5577 -3.1697 -0.9045
 7213SOL    HW222539   4.368   1.653   0.590  2.6579 -0.4515  0.5892
 7214SOL     OW22540   5.167   2.273   6.139  0.3667 -0.0614  0.0721
 7214SOL    HW122541   5.138   2.179   6.119 -0.9362  0.0618  1.2580
 7214SOL    HW222542   5.246   2.271   6.200  0.5749 -0.3821 -0.2030
 7215SOL     OW22543   0.785   0.232   1.933 -0.8225  0.1662  0.4678
 7215SOL    HW122544   0.754   0.312   1.882 -0.7153  0.4873  0.8995
 7215SOL    HW222545   0.790   0.254   2.030 -0.9070 -0.4022  0.6070
 7216SOL     OW22546   5.065   6.474   5.090  0.4919 -0.5276 -0.4542
 7216SOL    HW122547   5.078   6.550   5.154  1.7008 -1.8526  0.9942
 7216SOL    HW222548   4.990   6.494   5.028  0.5119  1.6432  0.1481
 7217SOL     OW22549   2.271   2.868   2.605 -0.4840  0.5974 -0.6272
 7217SOL    HW122550   2.177   2.856   2.636 -0.2103 -0.4965 -0.1504
 7217SOL    HW222551   2.272   2.878   2.505 -1.0517 -0.2420 -0.7328
 7218SOL     OW22552   1.150   3.481   0.012  0.0285 -0.2823 -0.2043
 7218SOL    HW122553   1.180   3.460   0.105  0.7968  1.0639 -0.1150
 7218SOL    HW222554   1.124   3.577   0.007 -0.6783 -0.5112 -1.2216
 7219SOL     OW22555   1.561   4.531   5.666 -0.0485 -0.4424  0.4016
 7219SOL    HW122556   1.582   4.627   5.646 -1.8239 -0.0554  0.2544
 7219SOL    HW222557   1.540   4.522   5.764 -0.3605 -0.5853  0.3207
 7220SOL     OW22558   6.946   3.408   4.929 -0.1203  0.0952  0.0847
 7220SOL    HW122559   6.970   3.331   4.989  0.5552  0.6230  0.5087
 7220SOL    HW222560   6.889   3.473   4.979 -2.1634 -0.9257 -0.7812
 7221SOL     OW22561   5.033   3.735   5.164 -0.4743  0.1141 -0.0961
 7221SOL    HW122562   5.068   3.811   5.110  0.6440  0.2358  0.7679
 7221SOL    HW222563   4.961   3.688   5.113  0.1462  0.5721 -1.4343
 7222SOL     OW22564   0.064   6.657   3.530 -0.0969  0.0187 -0.0112
 7222SOL    HW122565   0.064   6.560   3.506 -1.8416  0.1501 -0.6706
 7222SOL    HW222566   0.079   6.712   3.448  1.3677  0.3316  0.4316
 7223SOL     OW22567   6.265   3.645   1.919  0.2325  0.6177  0.0922
 7223SOL    HW122568   6.349   3.680   1.962  1.2204 -1.4994 -0.0166
 7223SOL    HW222569   6.287   3.599   1.834 -1.1818  0.8211 -0.4163
 7224SOL     OW22570   5.261   1.533   2.672  0.1087  0.2528 -0.3368
 7224SOL    HW122571   5.324   1.574   2.606  0.7317  0.6745  0.5050
 7224SOL    HW222572   5.312   1.508   2.755 -1.1906  2.6516  1.2740
 7225SOL     OW22573   6.319   5.115   0.786  0.7009 -0.6330  0.2978
 7225SOL    HW122574   6.281   5.199   0.746  0.9424 -0.4446  0.4682
 7225SOL    HW222575   6.377   5.070   0.719  0.4957 -0.7149  0.1733
 7226SOL     OW22576   5.847   2.060   0.953 -0.2267  0.1085  0.0458
 7226SOL    HW122577   5.760   2.052   1.002 -0.2488 -0.1121 -0.0267
 7226SOL    HW222578   5.830   2.050   0.855  0.1984 -2.7035  0.1761
 7227SOL     OW22579   1.460   6.794   1.101  0.4943  0.0779  0.3608
 7227SOL    HW122580   1.556   6.814   1.081 -0.2412  1.5457 -2.2794
 7227SOL    HW222581   1.404   6.872   1.072 -1.5579 -0.9942  1.2612
 7228SOL     OW22582   6.889   4.904   4.109 -0.5531  0.1901  0.3050
 7228SOL    HW122583   6.868   4.914   4.012  0.7574  0.1369 -0.0061
 7228SOL    HW222584   6.855   4.816   4.141 -0.6687  0.0436 -0.2015
 7229SOL     OW22585   5.885   0.119   6.352  0.2351  0.9196  0.8422
 7229SOL    HW122586   5.927   0.196   6.304  0.4949 -0.0405 -0.5394
 7229SOL    HW222587   5.952   0.077   6.413  0.5913  0.8187  0.3896
 7230SOL     OW22588   3.022   5.800   6.025  0.0311 -0.4951 -0.8957
 7230SOL    HW122589   3.089   5.735   6.062  0.8110  0.4936 -0.5250
 7230SOL    HW222590   3.010   5.782   5.927 -1.4133 -2.5796 -0.3869
 7231SOL     OW22591   2.894   1.383   6.302  0.1989  0.3206  0.1985
 7231SOL    HW122592   2.807   1.428   6.280  1.5527  2.7086 -0.7228
 7231SOL    HW222593   2.938   1.355   6.217  2.6102  3.8939  0.0595
 7232SOL     OW22594   5.823   4.718   4.511 -0.0279 -0.1202 -0.8088
 7232SOL    HW122595   5.886   4.644   4.487  0.2455  0.2019 -1.1019
 7232SOL    HW222596   5.757   4.730   4.437  0.8303  0.8899 -1.4405
 7233SOL     OW22597   1.749   1.545   6.992 -0.4767  0.5876  0.1155
 7233SOL    HW122598   1.814   1.478   7.029 -0.6791  0.7622  0.8058
 7233SOL    HW222599   1.656   1.516   7.013 -0.6420  0.1981 -1.1132
 7234SOL     OW22600   3.195   4.937   2.764  0.0286 -0.1253 -0.0560
 7234SOL    HW122601   3.160   4.889   2.684 -0.3769 -0.8547  0.5456
 7234SOL    HW222602   3.132   5.010   2.790 -0.0596 -0.1701 -0.1462
 7235SOL     OW22603   6.490   6.483   1.048  0.4331  0.4822  0.5829
 7235SOL    HW122604   6.523   6.520   1.135  0.2180 -0.0951  0.9120
 7235SOL    HW222605   6.494   6.383   1.050  2.6490  0.4664 -0.9238
 7236SOL     OW22606   0.439   4.033   3.929  0.4596  0.2546  0.4568
 7236SOL    HW122607   0.406   4.046   4.022  2.5620 -3.1659  1.8411
 7236SOL    HW222608   0.397   3.951   3.889 -1.3645  2.2881 -2.2514
 7237SOL     OW22609   4.883   1.589   1.580 -0.1676  0.1548 -0.2013
 7237SOL    HW122610   4.897   1.670   1.636 -0.8661 -0.7002  1.2585
 7237SOL    HW222611   4.886   1.615   1.483  0.4027  1.7706  0.2147
 7238SOL     OW22612   3.611   2.355   5.674  0.3949  0.5846  0.3119
 7238SOL    HW122613   3.661   2.308   5.747 -0.1103  1.5590  1.3371
 7238SOL    HW222614   3.676   2.399   5.612  0.8830 -1.6846 -0.8772
 7239SOL     OW22615   6.960   2.438   1.143  0.2001  0.0159  0.6473
 7239SOL    HW122616   6.969   2.537   1.144  1.1996 -0.0589  1.6213
 7239SOL    HW222617   6.988   2.402   1.054 -1.3914  0.6730 -0.1575
 7240SOL     OW22618   0.209   2.826   5.358  0.7037  0.1670  0.3915
 7240SOL    HW122619   0.207   2.895   5.431 -0.5068  1.6165 -0.9469
 7240SOL    HW222620   0.303   2.795   5.344  0.9577 -0.2001  2.5821
 7241SOL     OW22621   1.995   0.729   2.843  0.3384 -0.5745 -0.0483
 7241SOL    HW122622   1.921   0.694   2.900  1.1526 -2.8402 -0.2930
 7241SOL    HW222623   2.081   0.685   2.869  1.2289  0.4395 -1.1721
 7242SOL     OW22624   0.290   1.391   6.774 -0.0666 -0.2131 -0.4086
 7242SOL    HW122625   0.305   1.296   6.801  0.6080  0.2242  0.8158
 7242SOL    HW222626   0.357   1.418   6.705  1.1867  0.0061  0.8469
 7243SOL     OW22627   0.423   0.064   6.778 -0.0982 -0.5337 -0.0993
 7243SOL    HW122628   0.397   0.098   6.869 -0.2135  0.3693 -0.4604
 7243SOL    HW222629   0.403   0.134   6.709 -0.5658 -1.4386 -0.9015
 7244SOL     OW22630   0.329   6.885   6.269  0.1771 -0.7681  0.2506
 7244SOL    HW122631   0.299   6.959   6.209  1.5619 -0.6468 -0.3357
 7244SOL    HW222632   0.281   6.800   6.244 -1.1682 -0.1712  0.7089
 7245SOL     OW22633   2.376   3.389   1.106 -0.2391 -0.4374  0.2590
 7245SOL    HW122634   2.416   3.343   1.027  0.0184 -1.6525  1.0732
 7245SOL    HW222635   2.348   3.322   1.173 -0.0766  0.5901  1.3912
 7246SOL     OW22636   4.956   0.665   5.575  0.3533 -0.4416 -0.0495
 7246SOL    HW122637   4.944   0.621   5.486  2.1876 -0.4484 -0.3462
 7246SOL    HW222638   4.896   0.745   5.581  1.1191  0.3308 -1.8638
 7247SOL     OW22639   3.666   2.942   3.857 -0.0213 -0.0721 -0.3815
 7247SOL    HW122640   3.652   2.878   3.781 -2.4507  0.7580 -0.7287
 7247SOL    HW222641   3.763   2.944   3.882  0.9253 -0.2606 -3.5759
 7248SOL     OW22642   3.697   1.070   5.231  0.1217 -0.6548  0.4412
 7248SOL    HW122643   3.599   1.075   5.212 -0.0359 -1.4458  0.9966
 7248SOL    HW222644   3.741   1.155   5.202 -0.6052 -0.5844 -0.4935
 7249SOL     OW22645   3.829   5.624   2.374  0.2731  0.0284  0.3806
 7249SOL    HW122646   3.822   5.711   2.422 -0.1748  0.1658  0.0708
 7249SOL    HW222647   3.912   5.577   2.402 -0.6657 -0.5418  2.3587
 7250SOL     OW22648   4.443   7.006   4.902  0.4479 -0.8357 -0.1952
 7250SOL    HW122649   4.485   7.017   4.992  1.5152  1.2612 -0.8922
 7250SOL    HW222650   4.513   6.986   4.834 -0.1826 -1.1251 -0.7732
 7251SOL     OW22651   0.437   6.459   3.344  0.9373  0.3232 -0.4788
 7251SOL    HW122652   0.469   6.460   3.438  0.3442  1.1965 -0.2808
 7251SOL    HW222653   0.489   6.524   3.289  1.4486 -0.3576 -0.8266
 7252SOL     OW22654   3.593   3.899   1.592 -0.2788 -0.9479 -0.5939
 7252SOL    HW122655   3.560   3.805   1.601  1.4080 -1.5150  0.1279
 7252SOL    HW222656   3.684   3.907   1.633  0.3462  0.6106 -2.1318
 7253SOL     OW22657   0.569   4.459   5.280  0.0867  0.0165  0.1784
 7253SOL    HW122658   0.495   4.433   5.218  1.2410 -1.0514 -0.8152
 7253SOL    HW222659   0.581   4.388   5.350 -1.6843  1.5440  2.1772
 7254SOL     OW22660   1.124   4.039   4.078  0.0573  0.2880  0.0766
 7254SOL    HW122661   1.181   3.956   4.072  0.6317  0.6889 -0.1048
 7254SOL    HW222662   1.030   4.013   4.099 -0.0168 -0.4940 -1.1531
 7255SOL     OW22663   5.183   3.322   1.160  0.2135  0.1945 -0.3777
 7255SOL    HW122664   5.190   3.388   1.085  3.6322  0.1363 -0.2603
 7255SOL    HW222665   5.219   3.234   1.130  1.8428  0.2261  1.3387
 7256SOL     OW22666   2.628   1.364   5.635  0.0026 -0.5471  0.0410
 7256SOL    HW122667   2.593   1.312   5.557 -0.1573 -0.6783  0.1999
 7256SOL    HW222668   2.715   1.324   5.665 -0.7603 -1.5503  0.9953
 7257SOL     OW22669   6.893   0.903   5.588  0.9048 -0.1657  0.5751
 7257SOL    HW122670   6.835   0.970   5.634  0.5160 -0.0797 -0.0401
 7257SOL    HW222671   6.921   0.834   5.655  0.9692  0.3704  1.1183
 7258SOL     OW22672   1.166   3.657   3.518 -0.1731 -0.1146 -0.2635
 7258SOL    HW122673   1.087   3.610   3.479 -0.9366 -0.2018  1.3072
 7258SOL    HW222674   1.242   3.592   3.525 -1.1839 -1.1769  1.7817
 7259SOL     OW22675   0.390   3.886   4.885 -0.3480  0.1487  0.2139
 7259SOL    HW122676   0.427   3.822   4.817  1.3913 -0.4780  1.6701
 7259SOL    HW222677   0.409   3.980   4.856 -2.2157  0.0426 -1.5479
 7260SOL     OW22678   6.013   4.884   6.546  0.9448  0.5155 -0.5358
 7260SOL    HW122679   6.089   4.946   6.563  0.9918  0.1626  0.6604
 7260SOL    HW222680   5.931   4.937   6.525  0.7422  1.0708  1.4540
 7261SOL     OW22681   6.537   5.427   0.055  0.4127 -0.0359  0.4952
 7261SOL    HW122682   6.487   5.340   0.053  1.5278 -0.7037  0.7695
 7261SOL    HW222683   6.572   5.443   0.148 -0.5694  1.1855  0.6832
 7262SOL     OW22684   2.539   6.783   6.438 -0.8425 -0.2182 -0.0315
 7262SOL    HW122685   2.576   6.801   6.347  0.5361  1.0672  0.7455
 7262SOL    HW222686   2.439   6.796   6.437 -0.9171 -0.7266 -1.4512
 7263SOL     OW22687   0.843   4.334   5.678  0.3686  0.2534  0.3272
 7263SOL    HW122688   0.781   4.262   5.646  1.0823 -0.3072  0.1842
 7263SOL    HW222689   0.888   4.376   5.599  0.9700 -0.0725  0.4915
 7264SOL     OW22690   4.743   3.249   0.177 -0.3094 -0.3585  0.2678
 7264SOL    HW122691   4.705   3.315   0.112  1.2367 -0.4854 -0.8180
 7264SOL    HW222692   4.842   3.244   0.166 -0.0118 -0.5665  2.5003
 7265SOL     OW22693   1.318   0.514   6.328 -0.2945  0.0143  0.6777
 7265SOL    HW122694   1.401   0.460   6.337  1.4773  2.0698 -1.8512
 7265SOL    HW222695   1.268   0.485   6.246  0.0743  1.3310 -0.0498
 7266SOL     OW22696   0.022   1.346   0.661 -0.1610  0.3548 -0.1357
 7266SOL    HW122697  -0.002   1.292   0.741  0.9313 -0.2409 -0.1814
 7266SOL    HW222698   0.029   1.285   0.581  1.0809  0.5297 -0.1915
 7267SOL     OW22699   0.189   3.913   5.412  0.0379 -0.4598  0.0568
 7267SOL    HW122700   0.208   3.831   5.358 -0.9945  0.2364 -1.4217
 7267SOL    HW222701   0.098   3.905   5.454  0.1139 -0.2523  0.2641
 7268SOL     OW22702   4.453   6.445   5.504 -0.0797 -0.5150  0.1383
 7268SOL    HW122703   4.408   6.356   5.513  0.6720 -0.8920  0.1563
 7268SOL    HW222704   4.542   6.443   5.550 -0.4756  0.5497  1.0057
 7269SOL     OW22705   1.354   5.750   3.630  0.0765  0.0196  0.2713
 7269SOL    HW122706   1.341   5.672   3.569  0.3997  0.2852 -0.1475
 7269SOL    HW222707   1.431   5.805   3.598 -0.2253  0.5821  0.4877
 7270SOL     OW22708   1.278   0.684   3.467  0.4695  0.1689  0.0967
 7270SOL    HW122709   1.216   0.757   3.496  0.1221 -0.7145  1.7268
 7270SOL    HW222710   1.232   0.626   3.400  0.2433  0.6214 -0.1494
 7271SOL     OW22711   2.171   5.824   2.060  0.1234  0.1626  0.4406
 7271SOL    HW122712   2.148   5.787   2.150 -1.5450 -0.8637 -0.3600
 7271SOL    HW222713   2.209   5.915   2.070 -0.9922  0.4794  2.1474
 7272SOL     OW22714   0.477   3.676   1.435  0.4851  0.1929 -0.3909
 7272SOL    HW122715   0.569   3.715   1.434  0.9883 -0.8606  0.9375
 7272SOL    HW222716   0.443   3.675   1.530 -0.5431 -0.2235 -0.7500
 7273SOL     OW22717   6.960   2.475   4.145 -0.1442 -0.5610  0.3660
 7273SOL    HW122718   6.940   2.554   4.203 -1.7497 -0.3619 -0.4011
 7273SOL    HW222719   6.957   2.391   4.199  2.5317 -0.1066  1.4005
 7274SOL     OW22720   0.682   6.338   0.565 -0.1853  0.1179  0.0002
 7274SOL    HW122721   0.749   6.271   0.535 -0.3464  0.0134 -0.1317
 7274SOL    HW222722   0.677   6.338   0.665  0.7742  0.8859  0.0549
 7275SOL     OW22723   0.679   6.797   2.999 -0.1431  0.5538  0.1236
 7275SOL    HW122724   0.765   6.790   3.049  0.0043  0.2297 -0.1751
 7275SOL    HW222725   0.612   6.733   3.038 -0.4193  1.1701  0.6886
 7276SOL     OW22726   6.581   6.085   4.268 -0.6210 -0.3404  0.6525
 7276SOL    HW122727   6.595   6.153   4.340  0.4761 -0.6884  0.7797
 7276SOL    HW222728   6.540   6.003   4.308 -0.5297 -0.3293  0.7680
 7277SOL     OW22729   3.844   1.150   0.075  0.5001 -0.7425 -0.3383
 7277SOL    HW122730   3.920   1.198   0.030  3.0560 -1.4626  2.8255
 7277SOL    HW222731   3.842   1.055   0.044 -0.8972 -0.1210 -2.3523
 7278SOL     OW22732   4.076   3.741   2.972  0.0598  0.1897  0.3303
 7278SOL    HW122733   4.111   3.728   3.065 -2.1944 -1.6158  1.0053
 7278SOL    HW222734   3.982   3.776   2.976  1.1097  3.6741 -1.3930
 7279SOL     OW22735   4.047   0.063   6.509  0.2032 -0.0611  0.4315
 7279SOL    HW122736   4.127   0.026   6.462  0.2029 -0.0625  0.4319
 7279SOL    HW222737   3.975   0.083   6.443 -0.2572 -1.2255  0.5521
 7280SOL     OW22738   4.100   5.956   5.752 -0.3143  0.5800  0.0210
 7280SOL    HW122739   4.166   5.897   5.706 -0.8228  0.4117 -0.5117
 7280SOL    HW222740   4.019   5.902   5.777 -1.1775  1.2040 -1.2794
 7281SOL     OW22741   5.091   0.735   6.009  0.4868 -0.1501  0.0265
 7281SOL    HW122742   5.053   0.670   5.944  0.3315  0.6710 -0.7181
 7281SOL    HW222743   5.140   0.807   5.960 -2.3066  2.2906  0.4911
 7282SOL     OW22744   6.263   6.660   4.272 -0.0774  0.0693  0.0218
 7282SOL    HW122745   6.209   6.660   4.355  0.3738 -0.6314  0.3286
 7282SOL    HW222746   6.358   6.682   4.294 -0.2098  1.2110 -0.4987
 7283SOL     OW22747   3.282   2.141   3.990 -0.1588 -0.6267 -0.5604
 7283SOL    HW122748   3.210   2.102   4.047 -1.5172  1.3004 -0.8736
 7283SOL    HW222749   3.248   2.157   3.898  1.1022 -0.9343 -1.1077
 7284SOL     OW22750   0.529   6.728   3.926 -0.3892  0.0926  0.0988
 7284SOL    HW122751   0.456   6.779   3.971 -0.2779  0.7311 -0.4322
 7284SOL    HW222752   0.554   6.649   3.982 -2.8325 -1.2976 -0.6058
 7285SOL     OW22753   6.287   4.934   2.548  0.2447  0.3577  0.2323
 7285SOL    HW122754   6.226   4.905   2.474  2.3494 -0.4899 -1.2725
 7285SOL    HW222755   6.290   4.863   2.618  0.3470 -0.1127 -0.2405
 7286SOL     OW22756   1.818   2.527   6.844 -0.5404  0.1651 -0.2069
 7286SOL    HW122757   1.875   2.589   6.897 -0.2779  0.9494 -1.3641
 7286SOL    HW222758   1.736   2.575   6.812 -1.4159 -0.6931  0.6573
 7287SOL     OW22759   0.123   2.844   6.906  0.1161 -0.3430  0.3011
 7287SOL    HW122760   0.131   2.772   6.975  1.3180 -1.8304 -1.2906
 7287SOL    HW222761   0.184   2.823   6.829 -1.5821  0.9031 -1.4901
 7288SOL     OW22762   2.827   1.615   6.109  0.4150 -0.2374  0.5444
 7288SOL    HW122763   2.738   1.571   6.122  0.0722 -0.3837 -1.7757
 7288SOL    HW222764   2.816   1.714   6.108 -0.0033 -0.2626 -0.9877
 7289SOL     OW22765   4.916   1.860   4.176  0.2067  0.2553 -0.1249
 7289SOL    HW122766   4.955   1.817   4.257 -0.5776 -1.0773 -0.4164
 7289SOL    HW222767   4.965   1.944   4.156  1.0221  0.1215  1.1759
 7290SOL     OW22768   2.944   1.207   1.634  0.6775  0.4671  0.0089
 7290SOL    HW122769   2.890   1.288   1.657  1.6570  1.8623 -2.2399
 7290SOL    HW222770   2.898   1.126   1.670 -1.7149  1.7726  0.1447
 7291SOL     OW22771   4.391   4.955   6.284 -0.2568  0.0377  0.3385
 7291SOL    HW122772   4.455   5.030   6.266 -0.4961  0.2488  0.3715
 7291SOL    HW222773   4.383   4.898   6.202 -1.4614  1.0871 -0.3143
 7292SOL     OW22774   3.139   0.942   4.385  0.3229 -0.1916 -0.6985
 7292SOL    HW122775   3.193   0.913   4.464  0.2008 -0.5490 -0.7453
 7292SOL    HW222776   3.081   0.866   4.354 -1.1628  0.5374  0.1564
 7293SOL     OW22777   2.207   0.165   5.124 -0.2158 -0.3989 -0.8001
 7293SOL    HW122778   2.278   0.234   5.133 -2.2883  1.6355  1.9548
 7293SOL    HW222779   2.228   0.087   5.183 -0.1501  0.1438 -0.0817
 7294SOL     OW22780   6.872   6.962   5.765  0.4129 -0.4945 -0.1243
 7294SOL    HW122781   6.822   6.887   5.808  0.0866  1.3369  2.9757
 7294SOL    HW222782   6.813   7.008   5.699 -1.5123  0.4963  2.1523
 7295SOL     OW22783   3.325   6.748   0.736  0.2666  0.3434 -0.6516
 7295SOL    HW122784   3.363   6.830   0.694 -0.8595  0.3367 -1.7190
 7295SOL    HW222785   3.391   6.673   0.729  0.8925  0.8784 -0.5706
 7296SOL     OW22786   2.926   0.217   0.612  0.3194 -0.5700 -0.2696
 7296SOL    HW122787   2.913   0.294   0.550  1.7978  0.9087  1.1731
 7296SOL    HW222788   2.837   0.188   0.648 -0.2362  0.7202 -0.5547
 7297SOL     OW22789   4.673   6.960   1.815 -0.3953 -0.0616 -0.4127
 7297SOL    HW122790   4.682   7.046   1.764 -1.1432 -0.0264 -0.4871
 7297SOL    HW222791   4.646   6.979   1.909 -0.1187 -0.1919 -0.3059
 7298SOL     OW22792   5.612   0.036   3.867  0.0056 -0.3167  0.6499
 7298SOL    HW122793   5.689  -0.023   3.892  0.6190  0.8017  1.4548
 7298SOL    HW222794   5.584   0.015   3.773  0.4188 -1.6463  0.7930
 7299SOL     OW22795   6.504   3.273   1.402  0.4207 -0.0232 -0.2012
 7299SOL    HW122796   6.557   3.299   1.483  0.2343  0.9405 -0.3712
 7299SOL    HW222797   6.434   3.207   1.428 -0.0543  0.7514  0.5688
 7300SOL     OW22798   5.713   5.151   1.853 -0.6435 -0.6627  0.1143
 7300SOL    HW122799   5.656   5.070   1.862 -0.3883 -0.9259 -0.5648
 7300SOL    HW222800   5.808   5.128   1.874 -0.6799 -0.3684  0.6306
 7301SOL     OW22801   0.007   2.712   0.814 -0.1389  0.5830 -0.5168
 7301SOL    HW122802  -0.014   2.709   0.717  0.1029  1.2997 -0.5967
 7301SOL    HW222803  -0.043   2.788   0.857 -1.6062 -0.7727  0.2577
 7302SOL     OW22804   6.406   1.500   4.391 -0.4157  0.0139  0.2497
 7302SOL    HW122805   6.418   1.401   4.387 -1.9956 -0.1584 -1.6352
 7302SOL    HW222806   6.311   1.522   4.411 -0.2599  1.1361 -0.1294
 7303SOL     OW22807   3.918   6.339   1.740 -0.0564 -0.3776 -0.3229
 7303SOL    HW122808   3.881   6.429   1.718 -3.6267 -1.9042 -1.2932
 7303SOL    HW222809   3.985   6.312   1.670  0.9755  1.3872 -0.0700
 7304SOL     OW22810   4.200   3.400   6.234  0.3898 -0.0368  0.5315
 7304SOL    HW122811   4.171   3.456   6.312  2.2993 -1.4843  2.3970
 7304SOL    HW222812   4.166   3.442   6.149 -0.7677  2.2598  1.9995
 7305SOL     OW22813   6.258   3.747   0.331 -0.6108  0.6099 -0.1004
 7305SOL    HW122814   6.346   3.711   0.363 -1.6925 -1.9741  0.2362
 7305SOL    HW222815   6.235   3.704   0.244 -1.5752  1.2409 -0.1675
 7306SOL     OW22816   3.439   4.378   1.461  0.3352  0.5499 -0.6220
 7306SOL    HW122817   3.495   4.399   1.381  0.9870 -1.8580 -0.8586
 7306SOL    HW222818   3.433   4.279   1.473  0.9043  0.8010  2.7246
 7307SOL     OW22819   2.221   5.227   0.103 -0.0519 -0.5513  0.4513
 7307SOL    HW122820   2.185   5.171   0.029 -3.5415  0.6845  1.0501
 7307SOL    HW222821   2.321   5.223   0.102 -0.0106 -2.0758 -3.0915
 7308SOL     OW22822   4.697   6.539   4.202  0.0682 -0.2311 -0.1670
 7308SOL    HW122823   4.645   6.453   4.207 -1.2872  0.5268 -0.5642
 7308SOL    HW222824   4.686   6.579   4.112  3.3027 -1.1597 -1.0954
 7309SOL     OW22825   3.463   3.931   0.364 -0.2627 -0.3067 -0.3003
 7309SOL    HW122826   3.468   3.844   0.316 -1.3475  0.5939 -2.1774
 7309SOL    HW222827   3.404   3.922   0.444  0.9934 -1.6727  0.5129
 7310SOL     OW22828   0.408   4.989   2.041  0.5049  0.0632 -0.4021
 7310SOL    HW122829   0.427   4.925   2.116 -1.7495  0.0657  0.2468
 7310SOL    HW222830   0.324   4.962   1.995  0.8077  1.2021 -1.6881
 7311SOL     OW22831   3.949   1.718   3.519 -0.2712 -0.4467  0.0312
 7311SOL    HW122832   3.924   1.761   3.606  0.8067 -0.4545  0.3529
 7311SOL    HW222833   3.945   1.619   3.528  0.4427 -0.4557  0.2544
 7312SOL     OW22834   6.454   1.971   5.447  0.3666  0.0101  0.0825
 7312SOL    HW122835   6.479   2.020   5.363 -1.6289 -1.1070 -1.2513
 7312SOL    HW222836   6.418   2.036   5.514  3.1641  1.1098  0.6516
 7313SOL     OW22837   4.291   3.392   6.994 -0.5141  0.9318 -0.1097
 7313SOL    HW122838   4.264   3.302   7.030 -0.3047  0.5345 -0.9230
 7313SOL    HW222839   4.226   3.420   6.924 -0.6627  1.4898  0.2492
 7314SOL     OW22840   1.133   4.508   4.888  0.3476  0.5030 -0.2106
 7314SOL    HW122841   1.174   4.441   4.826 -1.0640  2.2722 -3.2883
 7314SOL    HW222842   1.083   4.461   4.960  0.7975 -1.7191 -1.2664
 7315SOL     OW22843   4.729   1.504   5.540  0.7860  0.3692 -0.0681
 7315SOL    HW122844   4.664   1.439   5.579  0.7152  1.1790  1.1904
 7315SOL    HW222845   4.733   1.491   5.440 -0.4371 -0.4528 -0.0274
 7316SOL     OW22846   4.085   3.509   4.204  0.6274  0.1551  0.1712
 7316SOL    HW122847   3.994   3.521   4.242 -0.1713 -1.0583 -1.2623
 7316SOL    HW222848   4.145   3.467   4.271  0.0891  0.7576  1.0470
 7317SOL     OW22849   3.852   6.674   3.998 -0.0946  0.0423 -0.1818
 7317SOL    HW122850   3.881   6.698   3.905 -1.0062  0.4553 -0.3677
 7317SOL    HW222851   3.885   6.744   4.062  0.4635 -0.1991 -0.1998
 7318SOL     OW22852   2.437   3.720   0.927  0.4643 -0.1717 -0.6920
 7318SOL    HW122853   2.360   3.729   0.990  1.1719  2.4298 -0.0810
 7318SOL    HW222854   2.404   3.719   0.833 -0.3891 -0.8501 -0.4002
 7319SOL     OW22855   0.535   5.205   6.062 -0.0301  0.4261 -0.0562
 7319SOL    HW122856   0.477   5.151   6.002  0.4793  1.2810 -1.3536
 7319SOL    HW222857   0.483   5.282   6.099 -0.8121 -0.9643  1.9429
 7320SOL     OW22858   7.013   0.286   0.598 -0.4670  0.8155 -0.8612
 7320SOL    HW122859   6.916   0.284   0.626 -0.0526  0.9199  0.7013
 7320SOL    HW222860   7.030   0.367   0.543 -1.0217  1.4768 -0.0919
 7321SOL     OW22861   6.012   2.950   5.628 -0.0146 -0.2324  0.3961
 7321SOL    HW122862   6.019   3.050   5.621 -0.3031 -0.2393  0.0079
 7321SOL    HW222863   5.957   2.926   5.708 -1.3753 -0.0423 -0.4533
 7322SOL     OW22864   2.562   5.302   0.844  0.3013  0.2399 -0.1805
 7322SOL    HW122865   2.647   5.348   0.868  0.0186  1.8939 -2.0106
 7322SOL    HW222866   2.496   5.313   0.918  0.9751  0.9290  0.3322
 7323SOL     OW22867   2.633   5.239   4.881  0.4603  0.0259  0.5708
 7323SOL    HW122868   2.667   5.214   4.972  1.8360  0.4551  0.2030
 7323SOL    HW222869   2.584   5.162   4.841  0.2429 -0.3250  1.4766
 7324SOL     OW22870   5.297   5.533   3.996  0.0357  0.1157  0.3161
 7324SOL    HW122871   5.276   5.620   3.952 -0.1245 -0.2224 -0.2819
 7324SOL    HW222872   5.395   5.512   3.985  0.3927  0.9044  1.7056
 7325SOL     OW22873   2.972   6.918   1.230 -0.1534 -0.0818  0.2828
 7325SOL    HW122874   3.001   6.846   1.168  0.0537 -0.3416  0.6759
 7325SOL    HW222875   2.940   6.997   1.178 -0.2039 -0.3869 -0.1489
 7326SOL     OW22876   4.327   2.335   5.801 -0.0845  0.0875  0.3549
 7326SOL    HW122877   4.418   2.356   5.766  0.7033 -2.4536  0.6719
 7326SOL    HW222878   4.264   2.323   5.724  0.9297 -2.4213 -0.2034
 7327SOL     OW22879   1.772   3.500   5.830 -0.0868  0.2937 -0.2511
 7327SOL    HW122880   1.808   3.587   5.864 -0.5611  1.2870 -2.0872
 7327SOL    HW222881   1.823   3.472   5.749 -0.8938 -0.3441 -0.5622
 7328SOL     OW22882   2.276   6.490   1.497  0.5748 -1.0536 -0.2237
 7328SOL    HW122883   2.265   6.466   1.401  0.7348 -0.4164 -0.4029
 7328SOL    HW222884   2.202   6.552   1.524  1.3453 -0.0748 -0.3246
 7329SOL     OW22885   3.802   3.881   6.551 -0.0668 -0.2366 -0.2809
 7329SOL    HW122886   3.835   3.966   6.509  0.3851 -0.3686 -0.1970
 7329SOL    HW222887   3.869   3.809   6.537 -0.2338 -0.4605  0.0627
 7330SOL     OW22888   4.441   2.920   1.659 -0.3910  0.1494 -0.3744
 7330SOL    HW122889   4.351   2.955   1.637 -0.3514 -0.0406 -0.8426
 7330SOL    HW222890   4.476   2.966   1.741 -1.7831 -1.2147  1.0758
 7331SOL     OW22891   0.354   1.111   6.808 -0.6922 -0.1919 -0.0754
 7331SOL    HW122892   0.257   1.098   6.787 -0.1775 -1.3340 -2.0441
 7331SOL    HW222893   0.385   1.038   6.869 -1.0690  0.2423  0.6537
 7332SOL     OW22894   5.262   6.365   0.037 -0.3210 -0.2082  0.1531
 7332SOL    HW122895   5.252   6.431  -0.038  0.8538 -0.5091 -0.2841
 7332SOL    HW222896   5.175   6.316   0.051 -0.6272  0.0525 -0.8064
 7333SOL     OW22897   1.701   3.976   3.234  0.3885 -0.3341  0.1705
 7333SOL    HW122898   1.764   4.036   3.283  0.0717  0.9481 -0.9390
 7333SOL    HW222899   1.608   4.011   3.243  0.2323 -0.5000 -0.7339
 7334SOL     OW22900   2.825   6.976   3.852 -0.0937 -0.3917 -0.0618
 7334SOL    HW122901   2.893   6.916   3.893  1.1240  0.5473 -0.6247
 7334SOL    HW222902   2.760   7.005   3.922  0.2115 -1.1385  0.5449
 7335SOL     OW22903   3.939   1.176   6.055  0.3052 -0.4853  0.0471
 7335SOL    HW122904   4.033   1.195   6.026  0.2518  0.5589  0.5360
 7335SOL    HW222905   3.933   1.174   6.154 -0.5260  1.3070  0.0613
 7336SOL     OW22906   0.968   6.564   5.797  0.5730  0.2242 -0.5651
 7336SOL    HW122907   1.043   6.579   5.732  1.3707  0.8092  0.4525
 7336SOL    HW222908   0.923   6.651   5.815  1.0322  0.2641  0.4424
 7337SOL     OW22909   5.450   0.859   2.681  0.5936 -0.2278 -0.0401
 7337SOL    HW122910   5.494   0.894   2.598  1.3488 -1.0021  0.0304
 7337SOL    HW222911   5.426   0.763   2.668 -0.5904  0.0207  0.1298
 7338SOL     OW22912   1.174   5.732   0.830 -0.1761  0.0502  0.0180
 7338SOL    HW122913   1.092   5.755   0.883 -0.7608 -2.2620  0.2363
 7338SOL    HW222914   1.150   5.724   0.733  0.2533  1.3105 -0.2136
 7339SOL     OW22915   2.447   5.263   5.193 -0.3578 -0.3174  0.2284
 7339SOL    HW122916   2.544   5.257   5.168 -0.5017 -0.9449 -0.1939
 7339SOL    HW222917   2.440   5.290   5.289  0.2129  0.8736 -0.0447
 7340SOL     OW22918   3.374   0.224   0.222  0.1776  0.7388 -0.4208
 7340SOL    HW122919   3.444   0.295   0.215  1.1590 -0.1713 -0.0863
 7340SOL    HW222920   3.338   0.202   0.131 -0.1069  1.6170 -0.5300
 7341SOL     OW22921   6.198   2.962   0.231  0.1650 -0.0049 -0.3062
 7341SOL    HW122922   6.140   2.978   0.151 -0.1055 -3.5662 -0.9807
 7341SOL    HW222923   6.294   2.976   0.206  0.1679 -1.9809 -1.6534
 7342SOL     OW22924   6.975   4.332   1.852 -0.2371 -0.2367  0.0895
 7342SOL    HW122925   7.044   4.361   1.786  0.4127 -0.8707  0.4743
 7342SOL    HW222926   6.951   4.236   1.836 -1.3181  0.0828 -0.2801
 7343SOL     OW22927   0.420   3.769   0.303 -0.3049  0.1556  0.1589
 7343SOL    HW122928   0.364   3.724   0.234  0.7242  0.7020 -1.0643
 7343SOL    HW222929   0.442   3.704   0.376 -0.7274 -0.6640 -0.4309
 7344SOL     OW22930   3.298   0.851   0.537 -0.0427 -0.1300  0.0875
 7344SOL    HW122931   3.299   0.904   0.622  0.6143  1.4478 -0.8569
 7344SOL    HW222932   3.245   0.900   0.468  0.3669 -0.8394 -0.7455
 7345SOL     OW22933   5.167   6.917   6.817  0.4380 -0.0106 -0.3220
 7345SOL    HW122934   5.203   6.991   6.761 -0.9677  1.4086  0.6009
 7345SOL    HW222935   5.219   6.912   6.903 -0.7372  1.2807  0.5028
 7346SOL     OW22936   2.799   4.138   0.566  0.5439  0.1373 -0.0736
 7346SOL    HW122937   2.748   4.224   0.567  0.6430  0.2537  2.3080
 7346SOL    HW222938   2.891   4.154   0.602  0.5112 -0.9723  0.5596
 7347SOL     OW22939   4.314   0.961   1.703 -0.6631  0.3469 -0.3067
 7347SOL    HW122940   4.325   1.018   1.622 -0.7614 -0.5726 -0.9848
 7347SOL    HW222941   4.233   0.904   1.693 -2.2303  2.0944  1.6168
 7348SOL     OW22942   0.937   5.339   0.565 -0.3365 -0.4291  0.4774
 7348SOL    HW122943   1.012   5.365   0.625 -1.0746  0.3125  1.1101
 7348SOL    HW222944   0.881   5.419   0.544 -1.1171 -1.0104  0.2615
 7349SOL     OW22945   3.366   1.741   3.458  0.1898  0.0158 -0.3213
 7349SOL    HW122946   3.460   1.762   3.487  1.0219 -1.6352 -1.6466
 7349SOL    HW222947   3.317   1.696   3.532  1.9307 -3.1718 -0.9357
 7350SOL     OW22948   4.891   1.578   0.904 -0.2657 -0.1245 -0.0796
 7350SOL    HW122949   4.974   1.632   0.917  0.0406 -0.4945 -0.4748
 7350SOL    HW222950   4.914   1.482   0.896 -0.9263 -0.4979  1.9355
 7351SOL     OW22951   0.537   6.370   3.095  0.8474 -0.0318 -0.2239
 7351SOL    HW122952   0.491   6.297   3.044 -0.9081 -0.3428  1.6979
 7351SOL    HW222953   0.516   6.362   3.192  1.0011  2.7469  0.1128
 7352SOL     OW22954   0.232   3.074   3.465 -0.1173 -0.1069  0.4020
 7352SOL    HW122955   0.211   3.134   3.388  1.3544 -0.8215 -0.6014
 7352SOL    HW222956   0.210   2.979   3.440  0.0766 -0.3107  0.9847
 7353SOL     OW22957   1.124   3.735   4.166  0.0493 -0.2161  0.6104
 7353SOL    HW122958   1.085   3.733   4.258 -0.5039  0.3305  0.3965
 7353SOL    HW222959   1.143   3.641   4.136 -1.2217 -0.5084  0.6746
 7354SOL     OW22960   2.064   0.204   2.998  0.4772  0.1403 -0.7867
 7354SOL    HW122961   2.110   0.195   2.909  0.5340 -0.3691 -0.7088
 7354SOL    HW222962   2.103   0.281   3.048  1.3739 -0.3866 -0.6518
 7355SOL     OW22963   2.506   2.918   0.683  0.1676  0.1179 -0.3668
 7355SOL    HW122964   2.594   2.964   0.686  0.4752 -0.4275 -0.8986
 7355SOL    HW222965   2.501   2.850   0.756 -0.6689  1.6374  1.0527
 7356SOL     OW22966   2.609   4.476   6.370 -0.4775  0.2121 -0.0083
 7356SOL    HW122967   2.594   4.496   6.467  0.6495  3.1215 -0.3299
 7356SOL    HW222968   2.527   4.498   6.318 -1.3487 -2.0681  0.2942
 7357SOL     OW22969   3.294   5.267   2.174  0.1455 -0.0404 -0.5390
 7357SOL    HW122970   3.367   5.322   2.134  0.0822 -0.3413 -1.0929
 7357SOL    HW222971   3.326   5.224   2.258  0.3504  0.4545 -0.3647
 7358SOL     OW22972   3.000   4.730   0.709 -0.6541 -0.2015 -0.2710
 7358SOL    HW122973   2.924   4.788   0.738  0.4994  0.1399  2.2768
 7358SOL    HW222974   3.087   4.773   0.734  0.2783 -2.4409  0.6029
 7359SOL     OW22975   3.003   0.769   4.801  0.3414 -0.2838  0.1086
 7359SOL    HW122976   2.917   0.793   4.758 -1.1006  0.1857  2.9971
 7359SOL    HW222977   3.079   0.796   4.741 -1.4519 -0.3089 -2.3134
 7360SOL     OW22978   3.148   4.044   0.208 -0.2056 -0.4615 -0.7213
 7360SOL    HW122979   3.206   4.118   0.173  3.8157 -3.0165 -0.1514
 7360SOL    HW222980   3.161   3.963   0.151 -2.3709 -1.5652  0.2411
 7361SOL     OW22981   6.307   5.817   4.785 -0.2041  0.2734  0.0440
 7361SOL    HW122982   6.405   5.813   4.767 -0.4712  1.1761 -1.7859
 7361SOL    HW222983   6.263   5.733   4.752 -0.2926  0.6581 -0.8192
 7362SOL     OW22984   2.298   4.828   0.533  0.6917  0.1986 -0.2433
 7362SOL    HW122985   2.390   4.790   0.531  1.1355  1.1237  0.9645
 7362SOL    HW222986   2.258   4.813   0.624  0.2908  1.2010 -0.2378
 7363SOL     OW22987   3.319   0.439   0.855 -0.0806  0.0844  0.7726
 7363SOL    HW122988   3.251   0.386   0.805  0.6123 -0.9708  0.9180
 7363SOL    HW222989   3.314   0.535   0.827 -0.2422 -0.3447 -0.7439
 7364SOL     OW22990   5.307   5.439   0.646 -0.2361  0.9282 -0.8164
 7364SOL    HW122991   5.278   5.527   0.609 -1.5879  1.2027  0.7408
 7364SOL    HW222992   5.314   5.446   0.746  0.7530 -0.4416 -0.7602
 7365SOL     OW22993   6.254   3.560   3.085 -0.1344 -0.2239  0.5931
 7365SOL    HW122994   6.265   3.540   2.987  0.2539  1.6770  0.2010
 7365SOL    HW222995   6.168   3.611   3.099  0.7714  1.2780  0.9099
 7366SOL     OW22996   2.380   6.407   3.012 -0.1015  0.1107 -0.3507
 7366SOL    HW122997   2.349   6.454   3.094 -3.3102 -1.9519 -0.2031
 7366SOL    HW222998   2.327   6.439   2.933 -0.9649 -1.7549 -0.5763
 7367SOL     OW22999   5.429   1.410   0.140 -0.7788  0.1910 -0.1574
 7367SOL    HW123000   5.376   1.367   0.066  1.2597 -0.3940 -1.3466
 7367SOL    HW223001   5.512   1.357   0.156 -1.1047  0.3636  2.5444
 7368SOL     OW23002   3.540   2.941   3.611  0.5266 -0.6328  0.2513
 7368SOL    HW123003   3.471   2.886   3.563 -0.0089 -0.0450  0.3273
 7368SOL    HW223004   3.608   2.975   3.545  0.4086 -0.7283  0.0800
 7369SOL     OW23005   4.889   5.473   1.480  0.7414 -0.7325 -0.7795
 7369SOL    HW123006   4.839   5.546   1.526  0.3400 -1.4653 -0.0063
 7369SOL    HW223007   4.896   5.493   1.383  0.3170  0.1475 -0.6400
 7370SOL     OW23008   3.162   2.006   5.408 -0.1197  0.0002  0.6299
 7370SOL    HW123009   3.205   1.921   5.440  0.0956 -0.4582 -0.7967
 7370SOL    HW223010   3.111   2.048   5.483  0.4201 -0.9736  1.5710
 7371SOL     OW23011   4.718   6.847   2.761 -0.3252  0.5123  0.2613
 7371SOL    HW123012   4.665   6.829   2.844  0.5122  0.0265  0.7116
 7371SOL    HW223013   4.774   6.929   2.774  0.5213 -0.0932  0.5532
 7372SOL     OW23014   5.824   1.575   6.317 -0.1746  0.2229 -0.2211
 7372SOL    HW123015   5.740   1.598   6.366 -0.6063  2.3299 -1.7651
 7372SOL    HW223016   5.902   1.587   6.377 -0.9115 -1.5808  1.1843
 7373SOL     OW23017   1.008   1.923   3.003 -0.2932 -0.4318 -0.0570
 7373SOL    HW123018   1.081   1.987   3.027 -0.5113 -0.6472  1.2367
 7373SOL    HW223019   0.967   1.951   2.916  1.8370 -0.7627 -1.2268
 7374SOL     OW23020   0.913   4.176   6.501  0.1428 -0.3855 -0.6191
 7374SOL    HW123021   0.943   4.081   6.501 -0.1360 -0.4734 -0.7461
 7374SOL    HW223022   0.848   4.191   6.576 -1.7641 -0.9219 -2.0744
 7375SOL     OW23023   2.057   3.572   0.531  0.3378  0.1436 -0.9673
 7375SOL    HW123024   2.036   3.584   0.628 -0.6339 -0.2232 -1.1211
 7375SOL    HW223025   1.973   3.577   0.478  0.9689  1.2750 -1.9036
 7376SOL     OW23026   5.409   6.010   7.009 -0.3324 -0.3858  0.2212
 7376SOL    HW123027   5.501   5.980   7.033  0.0594  1.5052  1.3500
 7376SOL    HW223028   5.403   6.026   6.910  0.2725 -1.3727  0.0222
 7377SOL     OW23029   1.820   6.669   1.375  0.0278 -0.1242  0.2339
 7377SOL    HW123030   1.918   6.664   1.359 -0.1020 -0.4314 -0.4755
 7377SOL    HW223031   1.771   6.621   1.302 -0.6875  0.8914  0.0220
 7378SOL     OW23032   1.866   4.224   4.257 -0.3277 -0.8890 -0.0292
 7378SOL    HW123033   1.798   4.151   4.245  1.2738 -2.2140 -1.6211
 7378SOL    HW223034   1.936   4.194   4.322 -1.0314  0.3239  1.3263
 7379SOL     OW23035   5.910   0.943   3.700 -0.2415  0.3350 -0.4612
 7379SOL    HW123036   5.939   0.862   3.650 -1.4274  0.0951 -0.7867
 7379SOL    HW223037   5.921   1.024   3.643 -0.8998  0.1540 -0.8484
 7380SOL     OW23038   3.648   2.985   2.959  0.7287  0.5775  0.3042
 7380SOL    HW123039   3.647   2.918   2.885  1.2761  0.5661  0.2996
 7380SOL    HW223040   3.613   3.073   2.926  0.8981  0.5515  0.0554
 7381SOL     OW23041   4.918   0.622   1.672 -0.3685  0.0565  0.0196
 7381SOL    HW123042   4.866   0.584   1.748 -1.2001  1.1360  0.0070
 7381SOL    HW223043   4.865   0.612   1.588  0.1651 -0.3278 -0.2764
 7382SOL     OW23044   6.394   3.966   1.442 -0.3580  0.3539  0.0153
 7382SOL    HW123045   6.467   3.995   1.504 -1.4441  1.9796  0.6104
 7382SOL    HW223046   6.317   3.929   1.495 -1.4257  2.0513 -0.2610
 7383SOL     OW23047   1.558   6.755   6.380 -0.2966 -0.2755  0.0265
 7383SOL    HW123048   1.579   6.664   6.344  1.3699  0.1639 -0.1839
 7383SOL    HW223049   1.527   6.747   6.475  0.3531 -1.0237  0.1812
 7384SOL     OW23050   0.269   1.328   6.126  0.7717 -0.1811  0.0491
 7384SOL    HW123051   0.279   1.249   6.187 -0.2220 -0.5553 -0.2429
 7384SOL    HW223052   0.275   1.298   6.031  2.0090  0.3567 -0.0653
 7385SOL     OW23053   6.320   1.752   3.841  0.2233 -0.2227 -0.0896
 7385SOL    HW123054   6.378   1.678   3.808  0.4884  0.4367 -1.1398
 7385SOL    HW223055   6.292   1.733   3.935 -0.6074 -2.1802 -0.6874
 7386SOL     OW23056   6.079   3.412   0.149  0.1120 -0.2509 -0.0363
 7386SOL    HW123057   6.131   3.497   0.140 -0.0763  0.1051  1.8568
 7386SOL    HW223058   6.066   3.371   0.058 -0.2336  1.9889 -1.0541
 7387SOL     OW23059   6.961   5.031   1.962  0.3781  0.1026 -0.1337
 7387SOL    HW123060   6.947   5.067   1.869 -1.2737 -0.4704 -0.1353
 7387SOL    HW223061   6.891   5.066   2.023  1.9598  1.1838  1.1661
 7388SOL     OW23062   2.499   5.853   3.344  0.7396  0.3128  0.4574
 7388SOL    HW123063   2.537   5.769   3.306  0.9277  1.1407 -1.3090
 7388SOL    HW223064   2.399   5.851   3.338  0.6379 -0.4608  1.9921
 7389SOL     OW23065   2.141   1.727   0.443 -0.4948  0.2953  0.3613
 7389SOL    HW123066   2.090   1.651   0.483 -0.9176  0.1289 -0.4752
 7389SOL    HW223067   2.189   1.777   0.515 -1.6666  0.3323  1.1476
 7390SOL     OW23068   5.286   3.423   0.054  0.2829  0.2153  0.4488
 7390SOL    HW123069   5.270   3.350   0.121  2.2895 -1.1538 -0.4643
 7390SOL    HW223070   5.381   3.418   0.022 -0.3924  1.3476 -1.8993
 7391SOL     OW23071   4.062   3.174   3.275 -0.3352 -0.1745  0.1951
 7391SOL    HW123072   4.028   3.129   3.192 -1.0221 -1.4604  1.1311
 7391SOL    HW223073   4.130   3.242   3.250  2.4009 -3.1265 -1.2272
 7392SOL     OW23074   4.848   6.581   0.062 -0.1857 -0.0504 -0.3052
 7392SOL    HW123075   4.828   6.656  -0.001 -1.2530 -2.3148 -2.9106
 7392SOL    HW223076   4.947   6.571   0.071 -0.0215  1.6544  0.1453
 7393SOL     OW23077   5.269   5.670   2.307 -0.2562 -0.3897 -0.2056
 7393SOL    HW123078   5.204   5.616   2.360  0.8375 -1.8950 -0.3325
 7393SOL    HW223079   5.219   5.733   2.247 -1.6489 -2.4237 -1.2870
 7394SOL     OW23080   2.549   2.419   0.391  0.3675  0.3370 -0.6088
 7394SOL    HW123081   2.493   2.436   0.472 -2.7702 -0.3664 -2.4768
 7394SOL    HW223082   2.577   2.323   0.390  0.0588  0.2455 -0.5629
 7395SOL     OW23083   3.200   5.981   5.927 -0.0335 -0.3019  0.2690
 7395SOL    HW123084   3.140   5.953   6.002  3.1747 -0.8308  2.8982
 7395SOL    HW223085   3.232   6.074   5.943  0.2831 -0.2266 -0.7519
 7396SOL     OW23086   2.656   4.868   2.144 -0.7760  0.0099  0.3141
 7396SOL    HW123087   2.604   4.822   2.216  0.5029 -1.6566  0.2306
 7396SOL    HW223088   2.746   4.826   2.136 -0.0985  1.5749 -0.8372
 7397SOL     OW23089   4.749   6.989   5.382 -0.8767  0.1662 -0.0081
 7397SOL    HW123090   4.703   6.915   5.432 -0.9687  1.5972  2.1379
 7397SOL    HW223091   4.848   6.977   5.390 -0.8817  0.8061  1.2415
 7398SOL     OW23092   1.977   5.149   3.133 -0.6325 -0.5996  0.9127
 7398SOL    HW123093   1.973   5.094   3.050 -0.7131  1.0064 -0.1872
 7398SOL    HW223094   2.071   5.176   3.151 -0.7338 -0.2109  0.8558
 7399SOL     OW23095   0.762   1.341   4.418  0.1631 -0.1089 -0.4928
 7399SOL    HW123096   0.785   1.251   4.455 -3.1302  0.3732  3.3745
 7399SOL    HW223097   0.717   1.329   4.329  0.3100 -2.2561 -0.3415
 7400SOL     OW23098   4.186   2.982   5.675  0.6145 -0.1421  0.1126
 7400SOL    HW123099   4.173   2.899   5.729 -2.5529 -0.2641 -0.6186
 7400SOL    HW223100   4.167   3.062   5.731  3.4925  0.1800  0.7677
 7401SOL     OW23101   4.018   1.261   6.332  0.6225 -1.2367 -0.6996
 7401SOL    HW123102   3.975   1.343   6.293  0.4863  0.1517  2.1090
 7401SOL    HW223103   3.960   1.224   6.405  2.2060 -1.8229  0.3174
 7402SOL     OW23104   3.372   5.947   3.624 -0.1807  0.3348 -0.0987
 7402SOL    HW123105   3.302   5.901   3.680  0.0374 -0.7918 -0.7257
 7402SOL    HW223106   3.382   5.898   3.537  1.1783  0.6595 -0.1365
 7403SOL     OW23107   0.513   5.757   2.872 -0.3507 -0.0077 -0.2267
 7403SOL    HW123108   0.575   5.685   2.904 -0.1043  0.2648 -0.0793
 7403SOL    HW223109   0.553   5.847   2.893  0.4862  0.2278 -2.5370
 7404SOL     OW23110   1.462   0.645   1.546 -0.2366  0.1324  0.0844
 7404SOL    HW123111   1.525   0.698   1.489  0.4918 -0.3829  0.3922
 7404SOL    HW223112   1.501   0.635   1.637 -0.6505 -0.4124  0.2017
 7405SOL     OW23113   3.928   6.189   3.172 -0.2726  0.2171 -1.1841
 7405SOL    HW123114   3.911   6.149   3.082  0.4456 -1.8614 -0.4654
 7405SOL    HW223115   3.844   6.188   3.226 -0.5651  0.9265 -1.6118
 7406SOL     OW23116   2.290   2.798   3.928  0.3594  0.5288  0.1577
 7406SOL    HW123117   2.285   2.867   3.856 -0.6488  1.1714  0.8239
 7406SOL    HW223118   2.300   2.843   4.016 -2.0855 -0.0311  0.8069
 7407SOL     OW23119   0.759   0.424   4.726 -0.3055  0.0782  0.4950
 7407SOL    HW123120   0.851   0.429   4.687 -0.5558 -0.2689 -0.1535
 7407SOL    HW223121   0.737   0.511   4.771 -0.0021  0.4831 -0.1264
 7408SOL     OW23122   4.179   6.453   4.747  0.1125 -0.5557  0.2507
 7408SOL    HW123123   4.123   6.421   4.823  1.3761  0.6010  1.7301
 7408SOL    HW223124   4.179   6.384   4.675 -2.9149 -0.7432  0.2832
 7409SOL     OW23125   5.010   5.117   0.125  0.1643  0.0222  0.4765
 7409SOL    HW123126   5.085   5.052   0.120 -1.3004 -1.7044 -0.7539
 7409SOL    HW223127   5.034   5.200   0.075  1.4828 -0.2189  0.6913
 7410SOL     OW23128   5.707   1.226   0.835  0.4231 -0.0857 -1.0238
 7410SOL    HW123129   5.775   1.157   0.860  1.1181  0.0889 -2.3282
 7410SOL    HW223130   5.653   1.193   0.757 -0.9024 -0.1485 -0.1216
 7411SOL     OW23131   3.644   1.385   6.652 -0.4394 -0.0349  0.2025
 7411SOL    HW123132   3.570   1.345   6.707  0.5483 -0.3408  1.3640
 7411SOL    HW223133   3.695   1.450   6.709 -0.5747  1.1295 -0.9643
 7412SOL     OW23134   3.149   0.596   6.169 -0.1055  0.1205 -0.2195
 7412SOL    HW123135   3.191   0.625   6.083 -1.3829  0.5834 -0.7167
 7412SOL    HW223136   3.154   0.496   6.177 -0.6257  0.0055 -1.1966
 7413SOL     OW23137   5.694   5.332   3.141  0.2266 -0.1517 -0.1847
 7413SOL    HW123138   5.678   5.405   3.208 -0.9278 -0.2683 -0.3128
 7413SOL    HW223139   5.792   5.327   3.120  0.5201  0.3569  0.9573
 7414SOL     OW23140   2.697   0.045   5.071 -0.3146 -0.1705  0.1459
 7414SOL    HW123141   2.778  -0.013   5.078  1.0804  1.8648  2.1963
 7414SOL    HW223142   2.615  -0.011   5.087  0.7532 -1.9813 -0.3668
 7415SOL     OW23143   3.143   0.905   4.982  0.5914 -0.8936 -0.5993
 7415SOL    HW123144   3.104   0.835   4.922 -0.3924  0.5531 -1.7086
 7415SOL    HW223145   3.071   0.946   5.038  0.6893  0.8853 -1.7063
 7416SOL     OW23146   6.948   1.360   0.234 -0.8096 -0.1242 -0.3709
 7416SOL    HW123147   6.908   1.294   0.298 -1.6995  0.1537 -0.6226
 7416SOL    HW223148   7.026   1.319   0.188 -0.6197 -0.5841  0.3477
 7417SOL     OW23149   6.542   2.408   0.732  0.1055  0.3422  0.0390
 7417SOL    HW123150   6.561   2.331   0.793 -1.0293 -0.3114 -0.4130
 7417SOL    HW223151   6.601   2.485   0.757 -0.6424  0.2569  2.2706
 7418SOL     OW23152   2.671   1.632   5.237  0.1468  0.3169  0.0799
 7418SOL    HW123153   2.622   1.641   5.324 -0.2220  0.0221 -0.0956
 7418SOL    HW223154   2.763   1.670   5.247  0.1038  0.2991  0.5969
 7419SOL     OW23155   6.180   1.103   4.857 -0.8406  0.0092  0.2018
 7419SOL    HW123156   6.121   1.184   4.857  1.5707  1.8977  0.4843
 7419SOL    HW223157   6.220   1.091   4.767  0.3291  0.3862  0.6427
 7420SOL     OW23158   6.500   1.318   0.561  0.1912  0.1950  0.3376
 7420SOL    HW123159   6.463   1.410   0.566  1.2529  0.7350 -0.9853
 7420SOL    HW223160   6.462   1.271   0.480  0.4196 -0.1676  0.4364
 7421SOL     OW23161   5.925   4.807   0.289  0.2942  0.0427 -0.1144
 7421SOL    HW123162   5.858   4.879   0.306 -0.4637 -0.0058 -2.6113
 7421SOL    HW223163   5.880   4.728   0.249  1.6215 -0.6108 -0.3682
 7422SOL     OW23164   5.763   4.372   1.555 -0.0429  0.4248  0.3313
 7422SOL    HW123165   5.692   4.392   1.623 -1.7549 -4.2410  0.2914
 7422SOL    HW223166   5.817   4.293   1.586  2.5927  1.3876 -1.4893
 7423SOL     OW23167   3.832   3.093   5.648  0.1480 -0.3121 -0.7498
 7423SOL    HW123168   3.794   3.038   5.574  1.2293 -1.2305 -0.6456
 7423SOL    HW223169   3.870   3.034   5.718 -0.4360  0.5541  0.3435
 7424SOL     OW23170   0.599   2.038   3.556 -0.9544 -0.0202 -0.2687
 7424SOL    HW123171   0.676   2.034   3.620 -1.8245 -0.7280  0.7692
 7424SOL    HW223172   0.548   2.123   3.571 -0.5079  0.3505 -0.8140
 7425SOL     OW23173   3.610   6.635   0.784 -0.1213  0.6924 -0.4379
 7425SOL    HW123174   3.648   6.700   0.719 -0.3242  1.2767  0.0168
 7425SOL    HW223175   3.604   6.678   0.875  0.3677 -0.1835  0.0156
 7426SOL     OW23176   2.513   1.972   6.048  0.0231  0.6036 -0.0932
 7426SOL    HW123177   2.485   2.023   5.967 -0.7142  1.3230  0.6116
 7426SOL    HW223178   2.483   2.019   6.130  3.5596  1.6423  0.7773
 7427SOL     OW23179   3.264   0.684   2.136 -0.3120 -0.0078 -0.3425
 7427SOL    HW123180   3.350   0.642   2.165 -0.2072 -1.2931 -2.3481
 7427SOL    HW223181   3.218   0.625   2.070 -2.5507  0.8565  0.3473
 7428SOL     OW23182   6.651   4.645   0.062  0.0604 -0.1674  0.2285
 7428SOL    HW123183   6.569   4.688   0.024  0.0405 -1.3791 -1.1985
 7428SOL    HW223184   6.727   4.710   0.059 -0.6913  0.7857  1.0608
 7429SOL     OW23185   6.739   0.013   1.218  0.5092 -0.1227  0.2551
 7429SOL    HW123186   6.802  -0.064   1.206  0.2795  0.0989 -3.3102
 7429SOL    HW223187   6.645  -0.018   1.202  0.2806  0.6499  0.0561
 7430SOL     OW23188   0.577   3.919   2.162 -0.1303 -1.2624 -0.2555
 7430SOL    HW123189   0.606   3.925   2.067  0.5814  0.0277  0.0256
 7430SOL    HW223190   0.649   3.955   2.221 -1.0630 -0.8980  0.6809
 7431SOL     OW23191   5.732   1.602   2.777 -0.2288  0.2535  0.1591
 7431SOL    HW123192   5.655   1.614   2.840 -0.3371  1.6382 -0.2183
 7431SOL    HW223193   5.697   1.578   2.687 -0.2372  1.0139 -0.0453
 7432SOL     OW23194   1.877   1.035   4.165 -0.0991  0.9958 -0.3477
 7432SOL    HW123195   1.867   1.117   4.220 -0.0868 -0.4973  2.0088
 7432SOL    HW223196   1.789   0.988   4.157  0.3383  0.0209  0.3796
 7433SOL     OW23197   3.346   0.401   6.711 -0.5329  0.2755 -0.0028
 7433SOL    HW123198   3.339   0.484   6.655  1.2822  0.7186  0.3631
 7433SOL    HW223199   3.360   0.322   6.652 -3.2395  0.0146 -0.4267
 7434SOL     OW23200   3.117   5.301   2.516 -0.5185  0.4997 -0.4534
 7434SOL    HW123201   3.193   5.283   2.453 -0.7026  0.2990 -0.6231
 7434SOL    HW223202   3.041   5.240   2.493  0.5345 -1.9820  1.9994
 7435SOL     OW23203   4.826   3.254   2.723 -0.2526 -0.1939 -0.0931
 7435SOL    HW123204   4.787   3.209   2.804 -0.4897  0.7165  0.3056
 7435SOL    HW223205   4.924   3.266   2.736 -0.5427  1.4846  0.8271
 7436SOL     OW23206   4.645   3.050   6.478 -0.3936 -0.1190  0.4109
 7436SOL    HW123207   4.649   3.144   6.512 -2.1878  0.0618  0.2204
 7436SOL    HW223208   4.552   3.029   6.447  0.4029 -1.3437 -1.3438
 7437SOL     OW23209   2.323   0.442   1.589  0.0882  0.3813 -0.4094
 7437SOL    HW123210   2.237   0.424   1.540  0.4907  0.4524 -1.1504
 7437SOL    HW223211   2.364   0.355   1.617 -0.4820  0.3664  0.4031
 7438SOL     OW23212   2.712   1.968   6.480  0.9581 -0.3670  0.0068
 7438SOL    HW123213   2.632   1.954   6.539  1.3161  0.1113  0.6037
 7438SOL    HW223214   2.793   1.928   6.522  1.6483  1.7916  0.8926
 7439SOL     OW23215   6.898   4.588   5.592 -0.2775 -0.2676  0.1566
 7439SOL    HW123216   6.856   4.512   5.544 -0.1824 -0.2272  0.0092
 7439SOL    HW223217   6.984   4.558   5.634  0.2202 -0.0149 -0.6654
 7440SOL     OW23218   5.929   2.201   5.928 -0.4508  0.5901  0.6238
 7440SOL    HW123219   5.907   2.267   6.000 -0.4892  0.4654  0.7259
 7440SOL    HW223220   5.863   2.126   5.930 -0.9812  1.0306 -0.1072
 7441SOL     OW23221   4.876   5.875   0.325  0.2832 -0.3362  0.1260
 7441SOL    HW123222   4.937   5.839   0.396 -0.2845 -0.0417  0.7859
 7441SOL    HW223223   4.892   5.973   0.314 -0.1849 -0.2121  0.4524
 7442SOL     OW23224   0.160   1.541   5.753  0.2065 -0.0977 -0.6800
 7442SOL    HW123225   0.184   1.613   5.687  0.3501  0.1664 -0.3404
 7442SOL    HW223226   0.238   1.525   5.814 -0.1359  0.0730 -0.1955
 7443SOL     OW23227   0.429   0.288   6.178  0.1447  0.0200 -0.0938
 7443SOL    HW123228   0.476   0.236   6.249 -1.6157 -1.4064  0.1257
 7443SOL    HW223229   0.379   0.364   6.219  0.8076  0.4511 -0.0870
 7444SOL     OW23230   0.049   6.384   0.087  0.2253 -0.7252  0.0233
 7444SOL    HW123231   0.131   6.400   0.141 -0.2289 -1.9584  1.1134
 7444SOL    HW223232   0.074   6.345  -0.002  0.8321 -0.5913  0.1304
 7445SOL     OW23233   3.833   5.240   3.325 -0.3529  0.0290  0.2877
 7445SOL    HW123234   3.891   5.216   3.403  2.1731 -0.7303 -1.6841
 7445SOL    HW223235   3.854   5.179   3.248 -3.8010 -0.2575 -0.6219
 7446SOL     OW23236   5.744   5.311   6.559 -0.4585  0.5132  0.2019
 7446SOL    HW123237   5.696   5.396   6.534  1.0612  1.1480 -0.6373
 7446SOL    HW223238   5.755   5.308   6.658 -1.7635  0.5850  0.3773
 7447SOL     OW23239   6.563   6.206   1.352 -0.0610 -0.2688 -0.3183
 7447SOL    HW123240   6.580   6.145   1.429 -2.2902  0.2969  0.7020
 7447SOL    HW223241   6.628   6.282   1.354 -1.1374  0.6833  2.1050
 7448SOL     OW23242   5.788   6.269   0.387  0.1524  0.3211 -0.5074
 7448SOL    HW123243   5.790   6.177   0.425 -1.1102  1.1163  1.7341
 7448SOL    HW223244   5.810   6.266   0.290 -1.0867 -2.4826 -0.8000
 7449SOL     OW23245   6.619   3.840   0.073  1.2837 -0.2985  0.3200
 7449SOL    HW123246   6.573   3.901   0.138 -0.6955  1.0976 -2.2098
 7449SOL    HW223247   6.597   3.745   0.097  1.0879  0.1409  2.0090
 7450SOL     OW23248   4.689   3.760   0.649 -0.4419  0.1676 -0.1843
 7450SOL    HW123249   4.672   3.734   0.553 -1.2704  0.7519 -0.2071
 7450SOL    HW223250   4.642   3.696   0.709  0.6767 -0.6411 -0.1247
 7451SOL     OW23251   4.823   5.309   4.907  0.0625  0.4408  0.4085
 7451SOL    HW123252   4.890   5.242   4.874 -0.4922  0.9621 -2.0135
 7451SOL    HW223253   4.731   5.276   4.887 -0.2470  1.4845  0.0546
 7452SOL     OW23254   3.948   5.927   6.399 -0.2389  0.1414  0.8233
 7452SOL    HW123255   4.003   6.008   6.377  0.2401 -0.7332 -1.4124
 7452SOL    HW223256   3.997   5.872   6.466  0.4573  0.6084  0.7139
 7453SOL     OW23257   4.521   5.211   4.883  1.0729 -0.5006 -0.0485
 7453SOL    HW123258   4.544   5.246   4.793  0.9199 -1.6110 -0.5402
 7453SOL    HW223259   4.516   5.286   4.949  2.1107  0.2079 -0.7633
 7454SOL     OW23260   3.631   1.330   3.634 -0.5580 -0.3252  0.1035
 7454SOL    HW123261   3.539   1.309   3.665  0.0487 -1.3230  1.3183
 7454SOL    HW223262   3.645   1.295   3.541 -1.8293  1.1087 -0.6719
 7455SOL     OW23263   6.862   1.825   1.024 -0.4440  0.3606 -0.4890
 7455SOL    HW123264   6.867   1.925   1.030  0.0122  0.3619 -0.8400
 7455SOL    HW223265   6.811   1.790   1.103  0.1291  0.8147  0.0990
 7456SOL     OW23266   3.617   1.136   4.061  0.6027  0.2757  0.1701
 7456SOL    HW123267   3.548   1.193   4.107  1.1556  0.9122  0.2356
 7456SOL    HW223268   3.706   1.181   4.068  1.4867 -1.6052  2.1007
 7457SOL     OW23269   1.458   4.030   3.860 -0.1197  0.3470 -0.1710
 7457SOL    HW123270   1.449   4.125   3.887 -1.2653  0.2420 -0.1320
 7457SOL    HW223271   1.389   3.975   3.907  1.2817 -0.7072  0.7154
 7458SOL     OW23272   0.575   0.615   4.864  0.5008 -0.0557 -0.2343
 7458SOL    HW123273   0.529   0.561   4.934 -0.3701  2.9157  1.7080
 7458SOL    HW223274   0.515   0.625   4.785 -0.0961 -0.4247  0.1610
 7459SOL     OW23275   5.889   5.728   4.677 -0.0156 -0.7102  0.2525
 7459SOL    HW123276   5.853   5.701   4.766 -0.2448 -1.6248 -0.1068
 7459SOL    HW223277   5.982   5.693   4.666  0.0310 -0.5577  0.1513
 7460SOL     OW23278   5.904   0.719   6.788 -0.1072 -0.4306  0.0033
 7460SOL    HW123279   5.862   0.647   6.734  0.5219 -0.4262 -0.5067
 7460SOL    HW223280   5.979   0.681   6.842  1.1989  0.0598 -1.3772
 7461SOL     OW23281   2.004   5.807   6.710  0.4292 -0.6141  0.0781
 7461SOL    HW123282   1.909   5.810   6.743  0.2365 -0.0434 -0.5154
 7461SOL    HW223283   2.039   5.715   6.721 -0.7253 -1.2351 -1.1639
 7462SOL     OW23284   0.938   4.644   6.068 -0.4163 -0.2242 -0.3108
 7462SOL    HW123285   0.997   4.663   6.147 -0.6271 -0.7403 -0.0250
 7462SOL    HW223286   0.844   4.671   6.089 -0.1113  1.6026 -1.1535
 7463SOL     OW23287   3.523   4.725   5.317  0.0437  0.0793  0.1259
 7463SOL    HW123288   3.572   4.741   5.403  0.2823 -1.0413  0.2179
 7463SOL    HW223289   3.485   4.811   5.284  4.5139  1.7455 -1.4693
 7464SOL     OW23290   6.099   0.298   5.937 -0.5815 -0.8079  0.0645
 7464SOL    HW123291   6.083   0.387   5.894  3.2062 -0.8623 -1.9100
 7464SOL    HW223292   6.071   0.302   6.033 -4.5177  1.0169 -0.9428
 7465SOL     OW23293   0.867   2.738   6.717  0.8792 -0.4361  0.0583
 7465SOL    HW123294   0.774   2.708   6.696  0.7736  0.8013 -1.4599
 7465SOL    HW223295   0.889   2.715   6.812 -0.3106 -2.3223 -0.0574
 7466SOL     OW23296   6.340   2.373   0.537 -0.0821  0.2694  0.2896
 7466SOL    HW123297   6.286   2.458   0.534 -0.7389 -0.1518 -0.7907
 7466SOL    HW223298   6.390   2.368   0.623 -1.9903  0.5676  1.4994
 7467SOL     OW23299   0.832   3.612   3.350 -0.3442  0.4601 -0.1125
 7467SOL    HW123300   0.900   3.684   3.362 -0.5090  0.2099  3.0898
 7467SOL    HW223301   0.878   3.524   3.335  0.0115  0.5189  0.6011
 7468SOL     OW23302   6.113   2.469   6.573 -0.0703  0.1555 -0.0866
 7468SOL    HW123303   6.032   2.423   6.538 -0.2294 -1.1928  1.8409
 7468SOL    HW223304   6.195   2.416   6.548 -0.1173 -0.3783  0.8432
 7469SOL     OW23305   0.403   2.777   0.006  0.8174  0.3342 -0.1185
 7469SOL    HW123306   0.332   2.848   0.012 -1.6251 -1.8437 -1.2478
 7469SOL    HW223307   0.480   2.812  -0.047 -0.3450  2.1296 -0.7461
 7470SOL     OW23308   5.708   2.811   2.220 -0.1246 -0.1669  1.0374
 7470SOL    HW123309   5.687   2.899   2.263  2.2142  0.0998  1.7543
 7470SOL    HW223310   5.803   2.787   2.238  0.5784 -0.7931 -2.7648
 7471SOL     OW23311   4.170   0.293   4.934 -0.2130 -0.3054  0.0354
 7471SOL    HW123312   4.219   0.348   4.866  1.3041  1.2454  2.2266
 7471SOL    HW223313   4.086   0.340   4.961 -0.9057 -1.0055 -0.8323
 7472SOL     OW23314   0.120   2.428   6.902  0.2503  0.1666 -0.3248
 7472SOL    HW123315   0.081   2.491   6.835 -0.9309 -1.2690 -1.0360
 7472SOL    HW223316   0.140   2.478   6.987  0.6357  1.7608 -1.3058
 7473SOL     OW23317   3.016   1.615   4.669 -0.2620 -0.0382 -0.6881
 7473SOL    HW123318   3.041   1.711   4.654  0.1642  0.0706  0.6272
 7473SOL    HW223319   3.079   1.574   4.735 -0.6050 -1.1556 -1.0384
 7474SOL     OW23320   5.346   2.522   0.920  0.5195 -0.3578 -0.4960
 7474SOL    HW123321   5.320   2.559   1.009  0.1155 -1.6033 -0.0744
 7474SOL    HW223322   5.430   2.470   0.928 -0.4273 -1.9469 -0.4405
 7475SOL     OW23323   5.486   3.439   2.710 -0.1193 -0.1065  0.2925
 7475SOL    HW123324   5.461   3.351   2.752 -1.9420 -0.0291 -0.5338
 7475SOL    HW223325   5.507   3.505   2.782  1.0151 -1.1107  0.9354
 7476SOL     OW23326   5.583   0.748   3.711  0.1321  0.1572  0.4884
 7476SOL    HW123327   5.540   0.759   3.621 -0.1808  0.6279  0.6904
 7476SOL    HW223328   5.597   0.838   3.752 -0.3491 -0.0793  1.1948
 7477SOL     OW23329   3.670   1.491   5.669  0.4769 -0.0971  0.1181
 7477SOL    HW123330   3.728   1.434   5.727 -1.5426 -2.4524 -0.0030
 7477SOL    HW223331   3.725   1.529   5.595  2.3676 -0.0046  1.4851
 7478SOL     OW23332   2.071   2.104   6.996  0.5315  0.2536  0.0438
 7478SOL    HW123333   2.004   2.036   6.967  0.8397 -0.0724  0.0764
 7478SOL    HW223334   2.146   2.058   7.043  1.1893  0.5104 -0.7297
 7479SOL     OW23335   5.932   1.608   3.944 -0.1430  0.1395 -0.4144
 7479SOL    HW123336   5.852   1.557   3.913 -0.7239  1.0695 -0.5017
 7479SOL    HW223337   5.963   1.572   4.032 -0.7305 -0.1562 -0.3250
 7480SOL     OW23338   3.070   0.352   2.270 -0.1268  0.2628 -0.1742
 7480SOL    HW123339   3.073   0.280   2.201  0.0985  0.2542 -0.1579
 7480SOL    HW223340   3.159   0.398   2.273  1.5211 -2.5808  3.0866
 7481SOL     OW23341   2.308   4.416   5.988  0.3743 -0.7208  0.0452
 7481SOL    HW123342   2.405   4.442   5.991  0.5190 -1.1421 -0.8120
 7481SOL    HW223343   2.285   4.367   6.072  0.9464 -0.7512  0.1901
 7482SOL     OW23344   4.855   3.531   6.225  0.1159 -0.5018  0.3248
 7482SOL    HW123345   4.846   3.602   6.156  0.1099 -1.4473 -0.6747
 7482SOL    HW223346   4.950   3.503   6.232  0.0758 -0.5950  0.5142
 7483SOL     OW23347   3.788   0.797   5.629 -1.0438 -0.3985  0.3369
 7483SOL    HW123348   3.825   0.774   5.539 -0.8840  0.2019  0.2508
 7483SOL    HW223349   3.700   0.750   5.641 -0.5255 -1.4168  0.3383
 7484SOL     OW23350   2.138   1.716   4.681 -0.6807  0.3677  0.4219
 7484SOL    HW123351   2.149   1.707   4.780  1.0500  1.0236  0.3267
 7484SOL    HW223352   2.050   1.677   4.654 -0.7063 -0.8611  2.0635
 7485SOL     OW23353   3.513   6.952   5.588 -0.2642  0.4221  0.0872
 7485SOL    HW123354   3.434   6.928   5.644  0.1794  0.4984  0.7527
 7485SOL    HW223355   3.512   7.051   5.571 -0.8921  0.2710 -0.8116
 7486SOL     OW23356   4.596   5.138   1.071 -0.7849 -0.6827  0.5791
 7486SOL    HW123357   4.594   5.040   1.055  0.9034 -0.6854  0.2787
 7486SOL    HW223358   4.557   5.158   1.160 -2.3676 -1.4775  0.1063
 7487SOL     OW23359   2.354   5.625   4.993 -0.1380 -0.3042 -0.2466
 7487SOL    HW123360   2.352   5.681   4.909 -0.2623 -1.1074 -0.7912
 7487SOL    HW223361   2.443   5.580   5.001 -0.0310 -0.0144  0.2001
 7488SOL     OW23362   2.502   6.347   3.906  0.0262  0.2172  0.5287
 7488SOL    HW123363   2.469   6.441   3.898 -0.9775  0.2270  3.5714
 7488SOL    HW223364   2.424   6.285   3.918  0.7586 -0.2918  3.6025
 7489SOL     OW23365   4.853   3.959   4.888  0.6923 -0.7967 -0.3016
 7489SOL    HW123366   4.842   3.868   4.849  0.5083 -0.7680 -0.3148
 7489SOL    HW223367   4.949   3.987   4.880  0.5860 -0.6320 -1.0795
 7490SOL     OW23368   3.279   3.618   1.283 -0.2333  0.2889 -0.4617
 7490SOL    HW123369   3.183   3.631   1.305 -0.4210 -0.0184 -1.0802
 7490SOL    HW223370   3.306   3.682   1.210  0.4976  1.6169  0.9153
 7491SOL     OW23371   4.562   4.596   4.780  0.4415  0.0149 -0.3350
 7491SOL    HW123372   4.636   4.652   4.817  2.0434 -1.2735 -1.4444
 7491SOL    HW223373   4.498   4.571   4.854  3.3519 -2.2428  1.6603
 7492SOL     OW23374   0.206   6.945   2.128  0.7629 -0.5090  0.5590
 7492SOL    HW123375   0.246   6.996   2.204  1.3189 -0.3463  0.1663
 7492SOL    HW223376   0.279   6.912   2.068  0.3125  2.4366 -1.9162
 7493SOL     OW23377   5.143   5.931   6.918 -0.4006  0.2046  0.4829
 7493SOL    HW123378   5.161   5.947   6.821 -1.4207  0.7125  0.3730
 7493SOL    HW223379   5.215   5.975   6.972  1.3312 -1.7757 -0.0718
 7494SOL     OW23380   5.566   1.179   3.285  0.4166  0.0016  0.3761
 7494SOL    HW123381   5.628   1.101   3.299  1.1382  0.4339 -0.3197
 7494SOL    HW223382   5.482   1.164   3.338  0.6151 -1.1563  0.4045
 7495SOL     OW23383   2.128   2.964   4.873  0.4694  0.2704 -0.2901
 7495SOL    HW123384   2.195   3.006   4.935  0.0862 -0.1479  0.4189
 7495SOL    HW223385   2.176   2.918   4.798  0.9873 -0.1274  0.2763
 7496SOL     OW23386   6.607   3.302   3.369 -0.0508  0.5634  0.1212
 7496SOL    HW123387   6.575   3.245   3.293  0.0286 -0.0826  0.5689
 7496SOL    HW223388   6.632   3.244   3.447  1.1099  1.1220  0.1916
 7497SOL     OW23389   4.729   0.540   1.467 -0.1601 -0.0768  0.2564
 7497SOL    HW123390   4.659   0.609   1.480 -1.1094 -0.9772  0.0743
 7497SOL    HW223391   4.775   0.555   1.379 -0.2970  0.3715  0.2611
 7498SOL     OW23392   2.276   5.953   1.629  0.0752  0.0772 -0.1494
 7498SOL    HW123393   2.295   5.953   1.531  0.8203 -0.1559 -0.0085
 7498SOL    HW223394   2.356   5.919   1.679 -0.0938  0.7179  0.5818
 7499SOL     OW23395   3.014   0.935   5.757 -0.4483 -0.2176  0.1443
 7499SOL    HW123396   3.014   1.004   5.685 -0.3850  1.6558  1.8528
 7499SOL    HW223397   2.995   0.845   5.717  0.2209  0.6291 -2.2658
 7500SOL     OW23398   5.586   1.597   6.476 -0.7500 -0.1165  0.1397
 7500SOL    HW123399   5.556   1.650   6.555  0.8977 -0.5652  1.1273
 7500SOL    HW223400   5.560   1.501   6.488 -1.1959 -0.0489 -0.2563
 7501SOL     OW23401   5.553   1.838   4.082 -0.3713 -0.2791  0.5943
 7501SOL    HW123402   5.565   1.785   3.998 -0.4596 -1.7467  1.4712
 7501SOL    HW223403   5.602   1.793   4.157 -1.7680 -0.0062  1.7136
 7502SOL     OW23404   5.417   2.120   5.194 -0.0518  0.2347  0.2963
 7502SOL    HW123405   5.334   2.081   5.154 -0.1749  0.6748  0.1198
 7502SOL    HW223406   5.438   2.206   5.149  2.2902 -1.3282 -1.9261
 7503SOL     OW23407   6.867   4.781   1.869 -0.0581 -0.1387  0.2794
 7503SOL    HW123408   6.784   4.760   1.921  0.3974 -1.5881  0.4729
 7503SOL    HW223409   6.915   4.858   1.912 -2.5541  2.4608 -1.2843
 7504SOL     OW23410   6.586   4.761   4.087  0.1232  0.7678 -0.2685
 7504SOL    HW123411   6.648   4.709   4.145  0.4408 -0.3091 -1.5088
 7504SOL    HW223412   6.578   4.716   3.998 -0.5635  2.2017 -0.9748
 7505SOL     OW23413   6.230   6.312   6.419 -0.2498 -0.3544  0.2612
 7505SOL    HW123414   6.163   6.246   6.453  1.4481 -1.6755  1.1907
 7505SOL    HW223415   6.242   6.385   6.487  1.8529 -2.0654  1.8676
 7506SOL     OW23416   5.874   2.990   4.997 -0.4982  0.1652 -0.4511
 7506SOL    HW123417   5.863   2.973   5.095 -0.8174 -0.5452 -0.6023
 7506SOL    HW223418   5.808   3.059   4.967 -0.0531  0.7681 -0.0719
 7507SOL     OW23419   6.908   3.055   0.525 -0.5593  0.3280  0.4190
 7507SOL    HW123420   6.816   3.087   0.546 -1.2798 -1.4322  0.0502
 7507SOL    HW223421   6.914   3.031   0.429  0.3541  0.5594  0.4021
 7508SOL     OW23422   3.167   0.762   6.990  0.3196 -0.1102 -0.6580
 7508SOL    HW123423   3.106   0.823   7.042 -0.1742  0.3123 -1.6983
 7508SOL    HW223424   3.198   0.688   7.049  1.1131  1.2491  0.7114
 7509SOL     OW23425   5.596   4.921   2.417 -0.4334  0.3371 -0.3536
 7509SOL    HW123426   5.626   4.845   2.360  2.2388  0.3135  0.8794
 7509SOL    HW223427   5.576   4.888   2.509  1.1641  1.0910  0.3163
 7510SOL     OW23428   4.853   4.955   2.371 -0.1232 -1.1975 -0.2622
 7510SOL    HW123429   4.758   4.961   2.342 -0.0836 -0.4833 -0.2606
 7510SOL    HW223430   4.867   4.870   2.422 -0.3636 -2.1292 -1.6959
 7511SOL     OW23431   3.553   6.655   4.813  0.3490  0.4982  0.5624
 7511SOL    HW123432   3.519   6.566   4.843 -0.6146  0.6918  0.0788
 7511SOL    HW223433   3.651   6.660   4.828  0.5216 -0.8873 -0.0156
 7512SOL     OW23434   4.357   5.315   6.025  0.3666  0.3494  0.9399
 7512SOL    HW123435   4.405   5.383   6.080  0.1225  0.2528  1.2731
 7512SOL    HW223436   4.292   5.266   6.082 -0.2627  0.6028  0.4469
 7513SOL     OW23437   1.145   0.362   2.152 -0.7975 -0.2417 -0.3252
 7513SOL    HW123438   1.195   0.416   2.085  1.4222  0.0286  1.4496
 7513SOL    HW223439   1.092   0.423   2.212 -1.8376 -0.3987 -1.0620
 7514SOL     OW23440   6.643   2.171   0.855 -0.1097  0.5398  0.1442
 7514SOL    HW123441   6.586   2.115   0.914 -1.5577  2.3036  0.5140
 7514SOL    HW223442   6.654   2.127   0.766 -4.1006  1.1134 -0.8093
 7515SOL     OW23443   2.064   5.982   5.158  0.1499 -0.1561 -0.5752
 7515SOL    HW123444   2.041   5.948   5.249  0.5192 -0.8257 -0.7232
 7515SOL    HW223445   2.017   5.927   5.089  1.7279 -1.2387 -0.8659
 7516SOL     OW23446   1.139   0.061   3.305 -0.4674  0.1463  0.2877
 7516SOL    HW123447   1.119  -0.018   3.363  2.0491 -0.2617  0.7425
 7516SOL    HW223448   1.118   0.039   3.210 -1.4166 -0.4373  0.6240
 7517SOL     OW23449   2.375   2.195   0.489 -0.5129  0.3142 -0.1434
 7517SOL    HW123450   2.431   2.235   0.561  1.1270 -1.0415 -0.6092
 7517SOL    HW223451   2.421   2.204   0.401 -0.6464 -1.4563 -0.4383
 7518SOL     OW23452   3.323   1.111   4.913 -0.1499  0.6225  0.6997
 7518SOL    HW123453   3.299   1.164   4.832  0.0404 -1.5197 -0.8284
 7518SOL    HW223454   3.254   1.041   4.929  1.5811 -1.2765  0.2400
 7519SOL     OW23455   0.267   6.336   5.559 -0.2562  0.0221  0.4163
 7519SOL    HW123456   0.248   6.383   5.645 -2.8627 -0.8102  0.3707
 7519SOL    HW223457   0.303   6.401   5.492  0.6180  0.9268  1.7382
 7520SOL     OW23458   2.229   0.797   1.226  0.1967  0.3055  0.1275
 7520SOL    HW123459   2.209   0.700   1.213 -0.1289  0.0587  2.1459
 7520SOL    HW223460   2.168   0.834   1.296 -0.1394  2.1660 -1.0743
 7521SOL     OW23461   5.596   2.653   0.183  0.4275 -0.4500  0.0182
 7521SOL    HW123462   5.585   2.717   0.107  1.0603 -0.3564 -0.0036
 7521SOL    HW223463   5.653   2.576   0.154 -0.0801 -0.8773  0.1330
 7522SOL     OW23464   6.948   6.923   3.417  0.2256 -0.2452 -0.5703
 7522SOL    HW123465   6.926   6.890   3.509  1.1291  0.2938 -0.1383
 7522SOL    HW223466   7.019   6.993   3.424  0.2038 -0.1026 -1.6777
 7523SOL     OW23467   5.575   2.828   6.991 -0.5186 -0.2710 -0.0758
 7523SOL    HW123468   5.639   2.884   6.938 -0.9059  0.0305 -0.2257
 7523SOL    HW223469   5.500   2.798   6.932  0.0796 -1.5971 -0.2005
 7524SOL     OW23470   6.382   3.099   5.060  0.0400 -0.7077  0.9294
 7524SOL    HW123471   6.359   3.029   5.127 -0.3015  0.3320  1.9280
 7524SOL    HW223472   6.402   3.056   4.972  0.3870 -2.0829  1.6649
 7525SOL     OW23473   1.740   3.311   6.147  0.3774 -0.6303  0.2115
 7525SOL    HW123474   1.674   3.375   6.108 -0.1597 -1.2218  0.1404
 7525SOL    HW223475   1.815   3.362   6.189 -2.8187  0.5160  5.4557
 7526SOL     OW23476   0.926   3.949   0.899 -0.4972 -0.2279 -0.5158
 7526SOL    HW123477   0.943   3.986   0.990 -1.1887 -2.4933  0.6327
 7526SOL    HW223478   0.847   3.995   0.858 -0.4401  0.5206  0.1968
 7527SOL     OW23479   4.325   5.454   3.417 -0.3436 -0.1040 -0.0427
 7527SOL    HW123480   4.419   5.427   3.399  0.5818  1.3294  2.2992
 7527SOL    HW223481   4.296   5.521   3.349  1.2732  1.4283  0.7300
 7528SOL     OW23482   0.616   4.793   0.834  0.4639 -0.1410  0.3253
 7528SOL    HW123483   0.670   4.807   0.751  2.1438 -0.4034  1.3212
 7528SOL    HW223484   0.582   4.881   0.868 -2.1029 -0.2016 -1.7464
 7529SOL     OW23485   6.569   2.397   4.108 -0.5735 -1.1142 -0.3927
 7529SOL    HW123486   6.656   2.391   4.059  0.5320 -2.6201  1.5726
 7529SOL    HW223487   6.546   2.307   4.145 -1.0998 -0.0492  2.0996
 7530SOL     OW23488   0.754   1.719   3.741 -0.4039 -0.2475  0.2041
 7530SOL    HW123489   0.772   1.622   3.725  1.3010 -0.2693  1.9363
 7530SOL    HW223490   0.663   1.729   3.783 -1.7876 -0.7712 -2.4366
 7531SOL     OW23491   5.964   3.268   5.876 -0.2713  0.5382 -0.5234
 7531SOL    HW123492   5.978   3.204   5.800 -0.1510 -0.7675  0.5544
 7531SOL    HW223493   6.040   3.259   5.941 -1.8848 -0.6661  1.3015
 7532SOL     OW23494   4.408   4.799   1.420  0.5695  0.0340 -0.3105
 7532SOL    HW123495   4.333   4.778   1.358  1.5846 -0.1294 -1.5252
 7532SOL    HW223496   4.464   4.872   1.382  2.6459 -1.7450 -0.8507
 7533SOL     OW23497   6.105   6.019   1.838 -0.2862  0.3695  0.3296
 7533SOL    HW123498   6.175   5.956   1.872  1.0868  0.9843 -1.2160
 7533SOL    HW223499   6.032   5.967   1.794  0.9542 -0.1981 -1.1605
 7534SOL     OW23500   2.952   6.921   4.468 -0.0815 -0.2458 -0.1518
 7534SOL    HW123501   2.971   6.823   4.463  2.7908  0.2869 -1.5707
 7534SOL    HW223502   2.927   6.946   4.562 -0.1610 -2.1956  0.3842
 7535SOL     OW23503   1.050   6.542   2.937 -0.2293 -0.0979  0.2876
 7535SOL    HW123504   1.003   6.485   2.870  1.8926 -0.0394 -1.3533
 7535SOL    HW223505   1.134   6.497   2.966  1.3154  1.9291 -0.7697
 7536SOL     OW23506   4.854   0.451   2.612  0.5643 -0.0782 -0.0758
 7536SOL    HW123507   4.923   0.432   2.682 -0.1800 -1.2099  0.3940
 7536SOL    HW223508   4.785   0.514   2.649 -0.3304 -1.3841  0.5869
 7537SOL     OW23509   1.708   6.580   1.795  0.2459  0.3000  1.2950
 7537SOL    HW123510   1.713   6.511   1.724 -1.5448  1.7766 -0.3878
 7537SOL    HW223511   1.785   6.644   1.786  0.0272  0.4787  0.6642
 7538SOL     OW23512   2.293   4.056   0.816 -0.1632  0.1380  0.5791
 7538SOL    HW123513   2.225   4.113   0.863 -0.6091 -1.8116  2.4460
 7538SOL    HW223514   2.249   4.009   0.739  0.4277  2.8775 -1.5872
 7539SOL     OW23515   5.495   0.519   3.866  0.3943 -0.4471  0.0372
 7539SOL    HW123516   5.429   0.536   3.938  0.3931  1.6851 -0.4095
 7539SOL    HW223517   5.528   0.606   3.829  3.4711 -1.3910  0.2584
 7540SOL     OW23518   6.411   2.411   3.350 -0.0611 -0.3744 -0.0911
 7540SOL    HW123519   6.356   2.399   3.268 -4.1569  0.8579  2.1562
 7540SOL    HW223520   6.436   2.508   3.360  2.0892 -0.8069 -0.7129
 7541SOL     OW23521   0.771   4.450   6.481 -0.4761 -0.1295 -0.0378
 7541SOL    HW123522   0.725   4.493   6.559  1.8473  0.7048  0.9435
 7541SOL    HW223523   0.865   4.429   6.505  0.0329 -0.7540 -2.3357
 7542SOL     OW23524   6.512   6.797   5.006  0.0158  0.2842  0.0062
 7542SOL    HW123525   6.418   6.799   5.040  0.0785 -0.2746  0.2284
 7542SOL    HW223526   6.575   6.799   5.084  0.1672 -0.6030 -0.0798
 7543SOL     OW23527   2.571   6.624   1.405 -0.0451 -0.1460  0.4395
 7543SOL    HW123528   2.624   6.708   1.419 -0.2280  0.2890 -1.2541
 7543SOL    HW223529   2.621   6.546   1.441  1.0593  0.4422  0.2151
 7544SOL     OW23530   6.763   1.870   4.335 -0.9989 -0.6462  0.5218
 7544SOL    HW123531   6.766   1.770   4.328  3.5264 -0.6114 -0.7472
 7544SOL    HW223532   6.771   1.911   4.245  2.6237  0.6571  1.2656
 7545SOL     OW23533   1.532   4.871   5.008 -0.7080  0.1776 -0.3389
 7545SOL    HW123534   1.517   4.910   4.917  0.5597 -3.4765 -2.3216
 7545SOL    HW223535   1.492   4.780   5.012  0.1163 -0.1547  2.4766
 7546SOL     OW23536   1.653   4.246   2.644 -0.1988 -0.1867  0.1500
 7546SOL    HW123537   1.753   4.255   2.647 -0.0877 -0.5268 -1.4329
 7546SOL    HW223538   1.612   4.336   2.627  0.1014 -0.4898 -2.6789
 7547SOL     OW23539   3.897   0.315   1.891 -0.4262 -0.5409  0.0191
 7547SOL    HW123540   3.961   0.270   1.828  1.2054  1.1016  0.4113
 7547SOL    HW223541   3.887   0.411   1.865  1.3587  0.5645  2.9299
 7548SOL     OW23542   1.487   3.191   5.113  0.8501 -0.0279  0.0611
 7548SOL    HW123543   1.493   3.289   5.099 -0.8713 -0.1866 -2.7597
 7548SOL    HW223544   1.528   3.144   5.035 -1.2395 -1.4328 -0.2710
 7549SOL     OW23545   4.383   0.043   4.448  0.4372 -0.0813 -0.0918
 7549SOL    HW123546   4.417   0.066   4.539 -0.2144 -1.0453  0.4103
 7549SOL    HW223547   4.393  -0.055   4.432 -0.1434 -0.0421 -0.7720
 7550SOL     OW23548   1.577   6.420   5.023 -0.3771 -0.8055 -0.2113
 7550SOL    HW123549   1.562   6.361   4.943 -1.0442  0.3366 -0.9739
 7550SOL    HW223550   1.656   6.389   5.074  3.6359  1.4344 -4.2910
 7551SOL     OW23551   6.822   3.412   6.370  0.0451 -0.1380  0.6890
 7551SOL    HW123552   6.889   3.486   6.367  0.7146 -0.7380  0.4793
 7551SOL    HW223553   6.848   3.347   6.441 -1.0609  0.3036  1.5281
 7552SOL     OW23554   2.207   0.428   4.852 -0.5528 -0.1554 -0.2539
 7552SOL    HW123555   2.222   0.408   4.756 -0.2101  2.7846 -0.8953
 7552SOL    HW223556   2.283   0.481   4.888 -1.2218 -0.1955  1.3232
 7553SOL     OW23557   5.710   0.472   4.143  0.1945 -0.3864 -0.1553
 7553SOL    HW123558   5.756   0.518   4.067  2.0279  1.0206  1.7017
 7553SOL    HW223559   5.688   0.378   4.116  1.8486 -0.3058 -2.0283
 7554SOL     OW23560   3.019   0.238   1.221  0.1196 -0.2742  0.2295
 7554SOL    HW123561   3.116   0.241   1.245  0.1564 -0.4438  0.1058
 7554SOL    HW223562   3.005   0.174   1.145  0.0081  0.2603 -0.2031
 7555SOL     OW23563   3.830   5.543   5.179  0.4041  0.1016  0.5149
 7555SOL    HW123564   3.737   5.533   5.216  0.9038 -1.1772  1.5180
 7555SOL    HW223565   3.869   5.453   5.164  1.7375  0.6235  0.7430
 7556SOL     OW23566   0.475   5.733   6.376 -0.4903  0.2528 -0.9962
 7556SOL    HW123567   0.440   5.640   6.387  0.5547 -0.0022  0.4214
 7556SOL    HW223568   0.527   5.738   6.290 -0.4254 -0.5247 -1.0150
 7557SOL     OW23569   5.443   0.509   6.553  0.1524 -0.0117 -0.4191
 7557SOL    HW123570   5.457   0.598   6.510 -1.1027  0.3342 -0.1616
 7557SOL    HW223571   5.471   0.436   6.490 -2.6861  0.4092 -2.4134
 7558SOL     OW23572   3.121   0.104   4.500 -0.0312 -0.6253 -0.6731
 7558SOL    HW123573   3.053   0.031   4.492 -0.5520 -0.3897  1.1476
 7558SOL    HW223574   3.212   0.065   4.485 -0.4083 -1.3626 -1.1193
 7559SOL     OW23575   7.011   1.123   6.416  0.5745 -0.3748  0.2602
 7559SOL    HW123576   7.066   1.206   6.410  1.3612 -0.9159 -0.1376
 7559SOL    HW223577   7.043   1.057   6.348  1.9912 -2.1795  2.5429
 7560SOL     OW23578   2.156   1.074   5.354 -0.0052  0.3048  0.3926
 7560SOL    HW123579   2.063   1.049   5.380  0.3554  0.1903  1.6374
 7560SOL    HW223580   2.210   1.095   5.436  0.9330  0.8574 -0.3365
 7561SOL     OW23581   3.516   2.716   0.830  0.3032  0.1405  0.1869
 7561SOL    HW123582   3.537   2.748   0.922 -0.0924 -0.8938  0.6573
 7561SOL    HW223583   3.453   2.780   0.786  0.4580  0.6171  0.6501
 7562SOL     OW23584   2.458   5.426   4.233 -0.4111  0.4310  0.6380
 7562SOL    HW123585   2.376   5.386   4.192 -0.5349  0.8031  0.5182
 7562SOL    HW223586   2.436   5.462   4.323 -0.5996  1.3568  0.2263
 7563SOL     OW23587   3.533   5.244   2.653 -0.7191 -0.4064  1.0898
 7563SOL    HW123588   3.602   5.274   2.588 -0.5576 -1.8998  0.5329
 7563SOL    HW223589   3.543   5.295   2.738  0.2734  0.2556  0.5978
 7564SOL     OW23590   5.601   4.033   6.623 -0.4157  1.5018 -0.5444
 7564SOL    HW123591   5.689   4.077   6.641  1.0540 -1.4928  0.1041
 7564SOL    HW223592   5.595   3.947   6.673 -3.5889  1.3908 -0.8996
 7565SOL     OW23593   0.486   3.900   6.120 -0.3829 -0.0132  0.0582
 7565SOL    HW123594   0.500   3.807   6.156  2.7893 -0.1421 -1.1390
 7565SOL    HW223595   0.390   3.924   6.126 -0.9555 -2.4039  2.7193
 7566SOL     OW23596   3.381   5.693   0.943 -0.0554 -0.2734 -0.3966
 7566SOL    HW123597   3.453   5.630   0.915  0.5189  0.9200 -1.7240
 7566SOL    HW223598   3.295   5.643   0.952  0.7205 -1.5385  0.2503
 7567SOL     OW23599   2.204   0.431   2.241 -0.0697 -0.1671  0.3110
 7567SOL    HW123600   2.166   0.367   2.307 -1.8311  0.3728 -0.1163
 7567SOL    HW223601   2.223   0.518   2.286 -0.6406 -0.0120  0.2627
 7568SOL     OW23602   5.706   4.981   0.336 -0.4253  0.0111 -0.4696
 7568SOL    HW123603   5.660   5.001   0.422 -6.0363 -1.5185 -2.6582
 7568SOL    HW223604   5.704   5.062   0.278  1.0127  0.3177 -0.1153
 7569SOL     OW23605   4.079   3.254   2.764 -0.4077  0.1167  0.2397
 7569SOL    HW123606   4.098   3.270   2.667  0.1531  0.3612  0.3864
 7569SOL    HW223607   3.980   3.255   2.779 -0.6319 -2.2497 -0.7124
 7570SOL     OW23608   1.037   3.077   2.152 -0.1707 -0.1422  0.7859
 7570SOL    HW123609   1.042   3.061   2.054 -0.2807  0.0216  0.7520
 7570SOL    HW223610   1.085   3.004   2.201  1.9299  0.9747  0.5155
 7571SOL     OW23611   5.378   2.548   1.919  0.1591  0.1892  0.0137
 7571SOL    HW123612   5.306   2.616   1.936 -0.6139 -0.8145  0.8628
 7571SOL    HW223613   5.448   2.555   1.990 -0.2995 -0.3763  0.5342
 7572SOL     OW23614   4.187   5.032   3.232 -0.4694 -0.4224 -0.3260
 7572SOL    HW123615   4.251   5.057   3.159  1.3043 -0.9517  0.9851
 7572SOL    HW223616   4.211   5.082   3.316 -0.7761 -1.8004  0.6118
 7573SOL     OW23617   2.578   6.725   5.728 -0.2185 -0.2116 -0.3496
 7573SOL    HW123618   2.558   6.790   5.656 -0.2376  0.0083 -0.1458
 7573SOL    HW223619   2.496   6.708   5.783 -0.0583  0.0779 -0.0129
 7574SOL     OW23620   0.941   4.559   2.953  0.0262 -0.6871  0.1322
 7574SOL    HW123621   0.901   4.476   2.913  0.9061 -1.5565  0.9755
 7574SOL    HW223622   1.020   4.588   2.899 -0.2885 -0.3973 -0.1693
 7575SOL     OW23623   6.141   1.676   0.791 -0.4210  0.3198 -0.1903
 7575SOL    HW123624   6.056   1.695   0.741 -0.8815  1.1742  0.9010
 7575SOL    HW223625   6.120   1.629   0.876  0.2892 -0.2601 -0.3233
 7576SOL     OW23626   4.989   3.190   1.814 -0.1843 -0.5709 -0.7441
 7576SOL    HW123627   5.021   3.268   1.869 -1.1049  0.7680 -2.0160
 7576SOL    HW223628   5.068   3.137   1.783  0.3654 -1.2790  1.6830
 7577SOL     OW23629   0.366   0.746   5.278 -0.4210 -0.0532 -0.1833
 7577SOL    HW123630   0.358   0.839   5.313  0.0695 -0.0399 -0.1052
 7577SOL    HW223631   0.426   0.693   5.338  0.3509 -0.0552 -0.9472
 7578SOL     OW23632   6.372   4.304   2.149 -0.0705 -0.4177  0.5689
 7578SOL    HW123633   6.449   4.297   2.086 -1.0218 -1.6705 -0.4762
 7578SOL    HW223634   6.304   4.366   2.112  0.4136  0.7277  1.5179
 7579SOL     OW23635   1.415   2.988   7.007 -0.3602 -0.2142 -0.1050
 7579SOL    HW123636   1.454   3.075   7.038 -0.2092 -0.0670 -0.7063
 7579SOL    HW223637   1.328   3.005   6.961  0.2785 -0.2420 -1.3540
 7580SOL     OW23638   2.034   4.780   2.844 -0.0068  0.4459  0.1255
 7580SOL    HW123639   2.091   4.736   2.775 -1.4074  0.9254 -1.4310
 7580SOL    HW223640   1.962   4.717   2.873  1.6410 -0.4140  2.6179
 7581SOL     OW23641   6.447   0.045   2.395 -0.2792  0.3311 -0.0526
 7581SOL    HW123642   6.413  -0.035   2.347 -1.3349  0.7573 -0.0297
 7581SOL    HW223643   6.373   0.088   2.447  0.4428  0.8803  0.5530
 7582SOL     OW23644   0.277   1.927   4.772  0.2781 -0.1679 -0.3162
 7582SOL    HW123645   0.309   1.890   4.859 -0.3691  0.3485  0.1501
 7582SOL    HW223646   0.201   1.871   4.738  0.1523 -0.0243 -0.2665
 7583SOL     OW23647   6.630   3.577   2.164  0.2680  0.4433  0.1925
 7583SOL    HW123648   6.676   3.566   2.252  1.3515  1.0447 -0.2797
 7583SOL    HW223649   6.635   3.492   2.112 -1.2724 -0.2482  1.0915
 7584SOL     OW23650   6.918   1.110   3.091 -0.1499  0.1425  0.1325
 7584SOL    HW123651   7.006   1.070   3.118 -1.2685 -2.1368  0.6780
 7584SOL    HW223652   6.923   1.210   3.096  3.0170  0.2104 -1.8563
 7585SOL     OW23653   0.948   2.116   5.865 -0.0031  0.4108  0.4624
 7585SOL    HW123654   0.974   2.036   5.812  1.1285  1.1378 -0.1308
 7585SOL    HW223655   1.029   2.175   5.878 -0.4005  0.6006  2.3790
 7586SOL     OW23656   2.924   4.798   3.362  0.0930  0.2285  0.1642
 7586SOL    HW123657   2.934   4.803   3.462  0.6805 -0.6186  0.1599
 7586SOL    HW223658   2.898   4.887   3.326 -0.0277  0.5641  1.0658
 7587SOL     OW23659   0.156   0.945   2.169 -0.1318 -0.5171 -0.0841
 7587SOL    HW123660   0.200   0.894   2.243  2.1260 -1.5984 -2.0491
 7587SOL    HW223661   0.059   0.920   2.165 -0.0222 -1.4037  1.6785
 7588SOL     OW23662   1.691   2.341   5.860  0.3246 -0.3477 -0.0965
 7588SOL    HW123663   1.737   2.383   5.782  2.1777 -1.2689  0.4439
 7588SOL    HW223664   1.711   2.394   5.942 -3.2716  1.8238 -0.4111
 7589SOL     OW23665   6.683   5.635   1.758  0.4868  0.3677 -0.3802
 7589SOL    HW123666   6.617   5.646   1.833 -0.5771 -1.8856 -0.9058
 7589SOL    HW223667   6.676   5.542   1.721  3.5053  0.2870 -0.9492
 7590SOL     OW23668   6.063   1.319   6.389  0.1755 -0.5808  0.0214
 7590SOL    HW123669   6.073   1.413   6.422 -1.3266 -0.3087 -0.2373
 7590SOL    HW223670   6.022   1.262   6.460 -0.4574 -0.6465 -0.3881
 7591SOL     OW23671   2.831   3.325   6.163 -0.3776  0.5971 -1.1565
 7591SOL    HW123672   2.772   3.246   6.147  1.4905 -0.9470 -0.8068
 7591SOL    HW223673   2.843   3.339   6.261 -1.2554  1.8055 -1.1924
 7592SOL     OW23674   6.587   4.759   2.661 -0.0666  0.3365  0.1489
 7592SOL    HW123675   6.539   4.676   2.634  2.0707 -0.5322 -1.2833
 7592SOL    HW223676   6.613   4.752   2.758 -0.6805 -0.2633  0.2760
 7593SOL     OW23677   6.319   2.096   6.478 -0.8070 -0.3421 -0.0866
 7593SOL    HW123678   6.387   2.062   6.413 -0.3310 -0.3316  0.3944
 7593SOL    HW223679   6.302   2.026   6.548 -0.5850  0.0068  0.3247
 7594SOL     OW23680   0.508   2.764   5.590  0.4418  0.1756  0.3941
 7594SOL    HW123681   0.420   2.747   5.634  0.9787 -1.7562  0.7846
 7594SOL    HW223682   0.501   2.741   5.493 -0.2829  2.9219 -0.3106
 7595SOL     OW23683   1.843   3.623   0.361 -0.2118 -0.1525  0.1839
 7595SOL    HW123684   1.801   3.699   0.312 -1.0205 -0.4037  0.4727
 7595SOL    HW223685   1.883   3.559   0.295  1.1647  0.8835 -0.0404
 7596SOL     OW23686   3.744   1.635   6.832 -0.5936 -0.3468 -0.2774
 7596SOL    HW123687   3.836   1.647   6.869 -0.9277 -0.7406  0.7084
 7596SOL    HW223688   3.694   1.568   6.888 -1.2915 -0.5541 -1.1333
 7597SOL     OW23689   1.613   3.916   5.184 -0.7724  0.2665  0.2801
 7597SOL    HW123690   1.555   3.991   5.215 -0.6398  0.1586  0.8001
 7597SOL    HW223691   1.569   3.870   5.107 -0.2355  1.6778 -0.9006
 7598SOL     OW23692   4.082   0.413   3.445  0.3313 -0.5860 -0.3669
 7598SOL    HW123693   4.003   0.352   3.444 -1.8753  2.0786 -1.1612
 7598SOL    HW223694   4.117   0.423   3.352 -1.3812  1.6595 -0.8751
 7599SOL     OW23695   4.056   2.255   6.518 -0.2353  0.8989 -0.0374
 7599SOL    HW123696   4.122   2.186   6.548 -0.9838  0.2921  0.2484
 7599SOL    HW223697   3.982   2.211   6.467 -2.0666  1.0742  2.2940
 7600SOL     OW23698   6.708   6.063   5.884 -0.1313  0.2771 -0.2694
 7600SOL    HW123699   6.710   6.110   5.972  2.7156 -1.6024  0.8013
 7600SOL    HW223700   6.798   6.070   5.840 -1.3766  0.8852 -2.9584
 7601SOL     OW23701   4.326   6.577   1.399 -0.0787  0.2176  0.1519
 7601SOL    HW123702   4.270   6.659   1.410  0.1447  0.4766 -0.5424
 7601SOL    HW223703   4.422   6.604   1.387  0.2035 -0.2178  1.2868
 7602SOL     OW23704   0.018   0.510   0.415 -0.1016  0.2194 -0.1050
 7602SOL    HW123705   0.079   0.575   0.461 -1.6855  1.1428  0.7696
 7602SOL    HW223706   0.004   0.539   0.320  0.5178  0.1991 -0.2075
 7603SOL     OW23707   3.051   1.544   6.436  0.4066 -0.3740 -0.3458
 7603SOL    HW123708   3.011   1.574   6.523  0.8581  0.9436 -0.5745
 7603SOL    HW223709   2.980   1.501   6.380 -0.7418  1.8392 -0.7196
 7604SOL     OW23710   2.488   3.108   6.493 -0.1102 -0.8033 -0.1825
 7604SOL    HW123711   2.464   3.151   6.405  1.7214  0.0709 -0.3000
 7604SOL    HW223712   2.481   3.009   6.484  0.8392 -0.7748 -1.5915
 7605SOL     OW23713   3.039   6.060   6.233 -0.6532 -0.0832  0.2827
 7605SOL    HW123714   3.042   6.124   6.156 -1.5190 -0.3047  0.0513
 7605SOL    HW223715   2.944   6.040   6.256 -0.4886 -2.6032 -0.7982
 7606SOL     OW23716   5.330   0.350   2.908  0.3226 -0.4981 -0.1989
 7606SOL    HW123717   5.313   0.295   2.826 -1.7651  0.2866 -0.3553
 7606SOL    HW223718   5.350   0.290   2.985  2.5947 -1.2374 -1.2976
 7607SOL     OW23719   1.624   6.028   5.466 -0.6019 -0.9819  0.3643
 7607SOL    HW123720   1.675   6.110   5.492 -0.1610 -0.4826 -1.9261
 7607SOL    HW223721   1.527   6.041   5.490 -0.4871  0.0847  0.3061
 7608SOL     OW23722   0.061   2.215   0.136 -0.1369 -0.0567  0.2489
 7608SOL    HW123723   0.135   2.255   0.190 -0.2171 -0.5375  0.7239
 7608SOL    HW223724  -0.026   2.253   0.167 -0.1276  0.2085 -0.0392
 7609SOL     OW23725   4.615   3.303   6.544 -0.1754  0.4461  0.3290
 7609SOL    HW123726   4.589   3.341   6.455 -0.3021 -1.8882 -0.7198
 7609SOL    HW223727   4.537   3.310   6.607 -1.2146 -0.6800 -0.7669
 7610SOL     OW23728   4.406   6.768   4.395  0.1820  0.0890  0.1380
 7610SOL    HW123729   4.436   6.755   4.300  1.3084  0.5517  0.4081
 7610SOL    HW223730   4.374   6.682   4.433  0.0918 -0.1806 -0.5376
 7611SOL     OW23731   6.237   1.645   1.341 -0.3688  0.4717  0.1681
 7611SOL    HW123732   6.248   1.701   1.259  1.2976 -0.0094  0.0193
 7611SOL    HW223733   6.185   1.563   1.319  0.6665 -0.0029 -0.6149
 7612SOL     OW23734   6.552   1.412   3.230  0.6680  0.2581  0.0656
 7612SOL    HW123735   6.472   1.361   3.198  1.0566  0.2274 -0.8971
 7612SOL    HW223736   6.605   1.443   3.151 -0.5114  3.7651  0.4918
 7613SOL     OW23737   5.885   0.532   4.356 -0.6594 -0.3634  0.1718
 7613SOL    HW123738   5.809   0.523   4.291  0.0861 -2.0315 -0.5339
 7613SOL    HW223739   5.940   0.612   4.332 -0.5607 -0.7893 -1.1083
 7614SOL     OW23740   6.246   4.673   5.955 -0.5593 -0.4330 -0.3668
 7614SOL    HW123741   6.220   4.587   5.910 -2.1942  0.1807 -0.6628
 7614SOL    HW223742   6.166   4.733   5.960  0.4157  0.8387  0.3815
 7615SOL     OW23743   4.921   4.372   5.938  0.2947 -0.4041  0.0019
 7615SOL    HW123744   4.861   4.337   5.866  1.2119  0.2047 -1.0708
 7615SOL    HW223745   5.014   4.340   5.923  0.6704  0.4836  0.4116
 7616SOL     OW23746   1.073   5.791   2.830 -0.5452 -0.9760  0.5952
 7616SOL    HW123747   1.043   5.717   2.770 -0.3463 -0.8265  0.3018
 7616SOL    HW223748   1.153   5.762   2.882  0.0269 -0.7096 -0.1130
 7617SOL     OW23749   6.105   4.418   2.662  0.0537  0.0795 -0.4088
 7617SOL    HW123750   6.071   4.324   2.657 -1.3489  0.5644 -0.3995
 7617SOL    HW223751   6.200   4.418   2.693 -0.7968 -1.1909  2.5132
 7618SOL     OW23752   1.774   3.320   4.750 -0.0499 -0.1155  0.3640
 7618SOL    HW123753   1.761   3.391   4.681  1.2338 -0.2114 -0.0001
 7618SOL    HW223754   1.871   3.299   4.759 -0.2558 -0.6200  1.6985
 7619SOL     OW23755   0.277   1.587   4.175  0.5953 -0.0545  0.4065
 7619SOL    HW123756   0.216   1.614   4.100  0.0786 -1.5241  0.2593
 7619SOL    HW223757   0.247   1.632   4.259 -0.2228 -0.1615  0.1839
 7620SOL     OW23758   3.308   3.719   6.187  0.1636  0.5305 -0.0321
 7620SOL    HW123759   3.213   3.747   6.169  0.9397  3.1349 -0.3909
 7620SOL    HW223760   3.318   3.694   6.283 -0.5396  1.9262  0.4298
 7621SOL     OW23761   0.205   4.147   0.151  0.0252  0.0456  0.7218
 7621SOL    HW123762   0.213   4.150   0.251 -0.1816 -0.3899  0.7537
 7621SOL    HW223763   0.276   4.088   0.113 -0.7269 -0.8883  0.7232
 7622SOL     OW23764   2.706   5.186   1.197 -0.4219 -0.4022  0.6490
 7622SOL    HW123765   2.799   5.200   1.162 -0.9480  1.8118 -0.0593
 7622SOL    HW223766   2.652   5.138   1.128 -0.2431 -0.1593  0.3343
 7623SOL     OW23767   5.270   5.040   3.649  0.1889  0.3616 -0.0544
 7623SOL    HW123768   5.246   4.943   3.659  2.6573 -0.3290  0.0098
 7623SOL    HW223769   5.291   5.078   3.739 -0.6815  0.9573 -0.0907
 7624SOL     OW23770   0.714   4.014   2.797 -0.3931 -0.1402 -0.0437
 7624SOL    HW123771   0.743   3.918   2.791  1.3017  0.3291  0.2008
 7624SOL    HW223772   0.779   4.066   2.852  0.1496  1.6685 -2.2284
 7625SOL     OW23773   3.457   0.148   2.370 -0.6624  0.6856 -0.4205
 7625SOL    HW123774   3.546   0.172   2.409  1.0939  0.4707 -3.8926
 7625SOL    HW223775   3.415   0.229   2.331 -1.3779  0.5287  0.0017
 7626SOL     OW23776   4.718   5.533   0.878 -0.1137  0.3884  0.2384
 7626SOL    HW123777   4.663   5.457   0.846 -0.4241  0.3013  0.9663
 7626SOL    HW223778   4.666   5.588   0.943  0.7287  0.1526  1.1460
 7627SOL     OW23779   6.119   2.980   4.131  0.0149 -0.5866  0.3910
 7627SOL    HW123780   6.136   3.077   4.149  0.7111 -0.8633  1.2323
 7627SOL    HW223781   6.039   2.950   4.183  1.9620 -1.3603  3.0954
 7628SOL     OW23782   4.285   2.407   1.759 -0.2737  0.6852  0.6747
 7628SOL    HW123783   4.365   2.432   1.813  1.3024  1.0402 -1.6564
 7628SOL    HW223784   4.260   2.312   1.777  1.0978  0.3659  0.9974
 7629SOL     OW23785   5.690   2.741   3.816 -0.4349  0.3837  0.2110
 7629SOL    HW123786   5.638   2.756   3.732 -1.1811  1.9035  0.8963
 7629SOL    HW223787   5.654   2.661   3.864 -0.5980  0.0462 -0.4691
 7630SOL     OW23788   2.607   5.559   3.111  0.2024  0.2005  0.0683
 7630SOL    HW123789   2.665   5.596   3.184  1.5092  0.4522 -1.0553
 7630SOL    HW223790   2.614   5.459   3.110 -0.1085  0.1704  0.5064
 7631SOL     OW23791   0.628   1.727   5.807 -0.6567 -0.3528 -0.1273
 7631SOL    HW123792   0.720   1.694   5.828 -0.1443  0.7433 -0.5912
 7631SOL    HW223793   0.590   1.774   5.886 -0.6882 -0.4947 -0.0565
 7632SOL     OW23794   3.696   6.591   6.213  0.2471 -0.4838  0.0536
 7632SOL    HW123795   3.701   6.576   6.114  0.1047  0.8796 -0.1869
 7632SOL    HW223796   3.739   6.679   6.235  0.3884 -0.8335  1.2222
 7633SOL     OW23797   3.787   2.113   2.555 -0.6679  0.0653 -0.7797
 7633SOL    HW123798   3.775   2.103   2.456  2.2136 -0.4140 -1.1764
 7633SOL    HW223799   3.824   2.029   2.593  3.0672  1.7260 -0.2810
 7634SOL     OW23800   0.916   0.964   5.728 -0.3122  0.1309  0.7902
 7634SOL    HW123801   0.865   0.878   5.730 -0.2493  0.0303 -0.8055
 7634SOL    HW223802   0.862   1.033   5.679 -0.0031  0.7721  1.3308
 7635SOL     OW23803   1.894   3.087   6.116  0.1606  0.1823 -0.0816
 7635SOL    HW123804   1.859   3.178   6.095  2.0477  1.2232  1.0369
 7635SOL    HW223805   1.817   3.024   6.130 -1.2670  2.2099  1.7583
 7636SOL     OW23806   2.011   2.817   3.076  0.2121 -0.2278 -0.0200
 7636SOL    HW123807   1.931   2.861   3.036  0.2564 -0.5727 -0.4855
 7636SOL    HW223808   1.990   2.722   3.098  0.4602 -0.2883 -0.0405
 7637SOL     OW23809   1.632   3.373   4.448  0.4336  0.1004  0.0032
 7637SOL    HW123810   1.681   3.287   4.436  0.3451 -0.3630  2.3118
 7637SOL    HW223811   1.696   3.445   4.474  0.2519  0.1718  0.2624
 7638SOL     OW23812   6.616   5.509   0.307  0.1987  0.4684  0.4225
 7638SOL    HW123813   6.700   5.553   0.274  0.0846  1.2974  1.1820
 7638SOL    HW223814   6.637   5.450   0.385  0.2089 -0.0787  0.0104
 7639SOL     OW23815   3.532   6.197   6.113 -0.3133 -0.2166  0.1016
 7639SOL    HW123816   3.567   6.139   6.040 -0.7318 -1.2342  0.6935
 7639SOL    HW223817   3.562   6.162   6.202  2.1368  2.2947  0.4073
 7640SOL     OW23818   3.618   1.152   0.725  0.5043 -0.6779 -0.1547
 7640SOL    HW123819   3.548   1.142   0.796  1.7151 -1.0424  1.0190
 7640SOL    HW223820   3.575   1.188   0.642 -1.0961 -1.0167  0.4801
 7641SOL     OW23821   5.332   2.652   5.995  0.8633 -0.5759 -0.9205
 7641SOL    HW123822   5.384   2.622   6.075  1.4286 -0.2637 -1.1678
 7641SOL    HW223823   5.266   2.581   5.970 -2.2108  0.8632  2.2208
 7642SOL     OW23824   5.125   2.115   4.413 -0.3260  0.5065 -0.2125
 7642SOL    HW123825   5.225   2.121   4.423 -0.1684 -1.8634  0.1746
 7642SOL    HW223826   5.099   2.147   4.322  0.9061  0.2081 -0.6897
 7643SOL     OW23827   3.956   6.399   4.308  0.0136 -0.2381 -0.3924
 7643SOL    HW123828   3.910   6.476   4.353 -0.6308 -0.6764 -0.2793
 7643SOL    HW223829   3.892   6.353   4.246 -0.6353 -2.5466  1.7984
 7644SOL     OW23830   4.026   4.071   6.056 -0.0980  0.0958  0.1436
 7644SOL    HW123831   4.014   4.063   5.957  0.1518  0.6052  0.0689
 7644SOL    HW223832   4.039   3.980   6.095  1.0064 -0.0151 -0.4469
 7645SOL     OW23833   7.008   4.590   6.576  0.1144  0.4808 -0.2136
 7645SOL    HW123834   6.929   4.568   6.633 -0.9355  3.3010 -0.4379
 7645SOL    HW223835   7.089   4.542   6.611 -0.3784  2.2858  3.9458
 7646SOL     OW23836   6.460   0.728   1.497  1.0438  0.3233 -0.2572
 7646SOL    HW123837   6.522   0.711   1.421  0.5378  1.2344 -0.8905
 7646SOL    HW223838   6.509   0.777   1.570  1.6821 -1.0666  0.2706
 7647SOL     OW23839   4.516   1.337   4.840 -0.7396 -0.1468 -0.3037
 7647SOL    HW123840   4.496   1.386   4.925  2.3020  1.7437 -0.5422
 7647SOL    HW223841   4.437   1.342   4.779 -2.7492 -0.9720  2.0514
 7648SOL     OW23842   1.524   0.174   2.393  0.3907 -0.3394 -0.0607
 7648SOL    HW123843   1.435   0.140   2.362  1.1575 -0.7723 -1.9286
 7648SOL    HW223844   1.525   0.274   2.386 -0.4473 -0.2012  1.4505
 7649SOL     OW23845   4.465   5.643   6.602  0.3404 -0.4014  0.0651
 7649SOL    HW123846   4.438   5.669   6.695 -0.4886 -2.4310  0.4608
 7649SOL    HW223847   4.404   5.686   6.536 -0.3376 -0.5122  0.6082
 7650SOL     OW23848   2.618   2.945   1.023  0.4274  0.1534 -0.5754
 7650SOL    HW123849   2.552   3.017   1.000 -2.2088 -1.5685  1.0982
 7650SOL    HW223850   2.638   2.949   1.121  2.2364  0.1180 -0.9155
 7651SOL     OW23851   3.792   6.412   4.061 -0.0072 -0.3792  0.1211
 7651SOL    HW123852   3.796   6.511   4.049 -0.4459 -0.3144  0.4863
 7651SOL    HW223853   3.757   6.370   3.977 -0.6113 -0.1493  0.2515
 7652SOL     OW23854   6.758   0.118   4.301 -0.2494 -0.0108  0.3527
 7652SOL    HW123855   6.792   0.042   4.245  2.5575  0.8250  0.7862
 7652SOL    HW223856   6.776   0.204   4.253 -2.0728  0.4931  0.5210
 7653SOL     OW23857   3.067   0.236   5.128  0.2038 -0.1276  0.6243
 7653SOL    HW123858   3.008   0.253   5.050 -1.0873 -1.1150  1.3500
 7653SOL    HW223859   3.146   0.181   5.099 -0.3194 -0.5701  0.0363
 7654SOL     OW23860   0.710   2.738   1.150 -0.2494 -0.0772  0.5262
 7654SOL    HW123861   0.628   2.692   1.116  0.9282 -2.4102  0.5812
 7654SOL    HW223862   0.726   2.712   1.245  0.1747  0.9347  0.7475
 7655SOL     OW23863   1.750   6.774   5.116  0.1583  0.2602  0.2071
 7655SOL    HW123864   1.771   6.846   5.051  0.9252 -1.1539 -1.1898
 7655SOL    HW223865   1.768   6.806   5.209  2.5295  1.2218 -0.5015
 7656SOL     OW23866   6.399   5.892   0.552 -0.4214  0.5185 -0.1161
 7656SOL    HW123867   6.374   5.935   0.465  1.2222  2.1030  0.1218
 7656SOL    HW223868   6.412   5.794   0.538 -0.8162  0.6382 -1.5007
 7657SOL     OW23869   1.894   2.219   5.626  0.3534 -0.3605 -0.0022
 7657SOL    HW123870   1.888   2.130   5.673  0.5479 -0.8360 -0.8588
 7657SOL    HW223871   1.984   2.259   5.643  1.5175 -1.8450 -2.1988
 7658SOL     OW23872   2.538   6.576   6.728 -0.0902  0.1094  0.5436
 7658SOL    HW123873   2.629   6.589   6.689  0.5517 -0.3788  1.8118
 7658SOL    HW223874   2.515   6.478   6.727 -1.2452  0.3585 -1.1064
 7659SOL     OW23875   4.706   2.009   5.499 -0.1679  0.2109  0.5916
 7659SOL    HW123876   4.685   1.929   5.555 -1.7611  0.1382 -0.0458
 7659SOL    HW223877   4.654   2.088   5.533 -1.0077  0.2135 -0.6210
 7660SOL     OW23878   6.498   6.017   5.015 -0.4842 -0.2025 -0.5118
 7660SOL    HW123879   6.452   6.045   4.931  0.8002  1.5695 -0.6971
 7660SOL    HW223880   6.461   6.068   5.092  1.8956  2.3438 -0.8570
 7661SOL     OW23881   1.544   6.738   3.485  0.5783  0.3592  0.2242
 7661SOL    HW123882   1.569   6.833   3.500 -0.4179  0.8182 -0.8904
 7661SOL    HW223883   1.477   6.732   3.411 -1.4353 -0.9337  2.0289
 7662SOL     OW23884   0.619   5.863   1.424  0.0833 -0.0991 -0.2971
 7662SOL    HW123885   0.680   5.943   1.422 -1.0549  0.7767 -0.7770
 7662SOL    HW223886   0.524   5.894   1.423 -0.3709 -1.4745 -0.5145
 7663SOL     OW23887   0.682   6.200   3.581 -0.4873 -0.1903  0.2437
 7663SOL    HW123888   0.596   6.190   3.631 -0.0109 -0.5698  1.0212
 7663SOL    HW223889   0.679   6.147   3.496 -0.9225 -0.4195  0.4030
 7664SOL     OW23890   4.990   2.564   3.361 -0.6326 -0.1119  0.2200
 7664SOL    HW123891   4.891   2.557   3.368 -1.0309  0.2408 -3.3899
 7664SOL    HW223892   5.030   2.472   3.360 -1.6676 -0.7450 -4.3133
 7665SOL     OW23893   0.776   0.784   5.411  0.1998  0.6378 -0.1994
 7665SOL    HW123894   0.711   0.860   5.413 -0.9171 -0.2732 -0.4402
 7665SOL    HW223895   0.865   0.815   5.444 -0.9799  1.3584  2.6305
 7666SOL     OW23896   6.343   2.916   3.720  0.0960 -0.3218  0.1236
 7666SOL    HW123897   6.365   2.832   3.671  1.1794  0.4296 -0.7276
 7666SOL    HW223898   6.279   2.896   3.794  2.4250 -2.3967  1.7270
 7667SOL     OW23899   4.274   5.175   2.080 -0.5145 -0.4323  0.0351
 7667SOL    HW123900   4.272   5.205   1.985  2.9201  0.3375  0.0736
 7667SOL    HW223901   4.305   5.080   2.084 -1.5635 -0.7724  0.3766
 7668SOL     OW23902   2.774   6.603   0.099  0.2991 -0.5675  0.6232
 7668SOL    HW123903   2.837   6.540   0.052 -2.5487 -1.6296 -2.1494
 7668SOL    HW223904   2.811   6.695   0.097  1.6420 -1.0813 -1.2583
 7669SOL     OW23905   5.135   1.122   0.194 -0.4378 -0.0616 -0.3833
 7669SOL    HW123906   5.182   1.053   0.140  0.4461  0.2582 -0.0587
 7669SOL    HW223907   5.140   1.210   0.147  1.4965  0.5085  0.7622
 7670SOL     OW23908   0.916   6.376   1.186 -0.3560  0.8233  0.7065
 7670SOL    HW123909   0.898   6.441   1.112 -2.6662  0.3880  0.8293
 7670SOL    HW223910   0.832   6.328   1.210  0.9513 -1.1066  1.7023
 7671SOL     OW23911   2.653   0.566   1.330 -0.0480 -0.5699  0.4787
 7671SOL    HW123912   2.588   0.494   1.307  0.5689 -0.9314 -0.1785
 7671SOL    HW223913   2.631   0.648   1.278 -0.5982 -0.3522  1.0392
 7672SOL     OW23914   6.845   0.652   1.114  0.3045 -0.1124  0.0750
 7672SOL    HW123915   6.862   0.565   1.067 -0.1104 -1.3385  2.0319
 7672SOL    HW223916   6.928   0.707   1.116  0.4307 -0.2024 -1.6616
 7673SOL     OW23917   1.521   4.798   4.676 -0.5878 -0.0252  0.1767
 7673SOL    HW123918   1.509   4.893   4.704 -1.5589  0.6429 -2.2152
 7673SOL    HW223919   1.432   4.759   4.651  0.1968 -0.2492 -2.6041
 7674SOL     OW23920   3.772   6.072   3.806  0.0733  0.2478  0.5111
 7674SOL    HW123921   3.772   6.167   3.774  0.9020  0.3157  0.6766
 7674SOL    HW223922   3.866   6.037   3.804 -0.3838 -0.9961 -0.7783
 7675SOL     OW23923   4.460   5.974   2.319  1.0771 -0.2323  0.0398
 7675SOL    HW123924   4.556   5.944   2.324  0.2968 -2.8085  1.5137
 7675SOL    HW223925   4.423   5.951   2.229  1.5716 -0.0884 -0.2079
 7676SOL     OW23926   3.951   4.050   4.928 -0.0212 -0.0203  0.0869
 7676SOL    HW123927   3.958   3.951   4.941  1.3889  0.1061  0.4617
 7676SOL    HW223928   4.042   4.089   4.918 -0.6464  0.9128 -2.8792
 7677SOL     OW23929   0.024   5.934   6.711  0.2285 -0.3310  0.9207
 7677SOL    HW123930   0.072   5.848   6.727  0.6016 -0.2658  0.1718
 7677SOL    HW223931   0.074   5.989   6.643 -0.9488 -0.2994  0.0520
 7678SOL     OW23932   3.394   1.140   5.735 -0.3207  0.3339  0.3482
 7678SOL    HW123933   3.337   1.198   5.676  0.0463 -0.4813 -0.8443
 7678SOL    HW223934   3.439   1.198   5.804  0.2691  1.5388 -0.9886
 7679SOL     OW23935   4.286   5.241   3.024  0.4198 -0.0647 -0.4805
 7679SOL    HW123936   4.223   5.264   3.098  0.2970  0.0838 -0.6290
 7679SOL    HW223937   4.374   5.285   3.040  0.2250  0.4178 -0.6974
 7680SOL     OW23938   1.163   0.062   4.264  0.4936  0.1007 -0.2215
 7680SOL    HW123939   1.115   0.071   4.177 -0.2560 -0.8311  0.0816
 7680SOL    HW223940   1.122   0.123   4.331  0.7490  0.4508 -0.3801
 7681SOL     OW23941   2.525   2.670   0.196  0.2293 -0.8509 -0.2936
 7681SOL    HW123942   2.537   2.573   0.219  0.3523 -0.9798 -0.9000
 7681SOL    HW223943   2.510   2.722   0.281  4.1784 -0.7980  0.5544
 7682SOL     OW23944   3.067   5.057   0.925 -0.0127  0.0705 -0.3863
 7682SOL    HW123945   3.011   4.986   0.881 -0.6430  0.0188  0.4683
 7682SOL    HW223946   3.136   5.090   0.861  0.5398 -1.5865 -0.6765
 7683SOL     OW23947   2.081   3.037   3.263 -0.0897 -0.2654  0.2225
 7683SOL    HW123948   2.039   2.958   3.216 -1.1876  0.0144  0.6921
 7683SOL    HW223949   2.126   3.095   3.196 -0.9833 -0.2670 -0.4001
 7684SOL     OW23950   5.236   3.605   0.572 -0.0533 -0.3474 -0.5278
 7684SOL    HW123951   5.226   3.598   0.473 -0.2295 -1.5268 -0.4435
 7684SOL    HW223952   5.176   3.677   0.607 -0.3718 -0.2714 -1.2168
 7685SOL     OW23953   2.447   6.343   1.681  0.3740 -0.3524 -0.5598
 7685SOL    HW123954   2.402   6.400   1.612  1.0685 -0.1766 -0.8730
 7685SOL    HW223955   2.543   6.330   1.656  0.6360 -0.2790  0.3723
 7686SOL     OW23956   0.524   1.006   5.159  0.0574  0.4019 -0.2954
 7686SOL    HW123957   0.518   1.040   5.065 -0.6656 -0.9380 -0.7591
 7686SOL    HW223958   0.432   0.997   5.197  0.2217 -0.8331 -0.1395
 7687SOL     OW23959   6.681   2.892   5.451 -0.7724 -0.1249 -0.0951
 7687SOL    HW123960   6.664   2.817   5.387 -0.4934 -0.4392  0.1916
 7687SOL    HW223961   6.597   2.912   5.502 -1.1901  0.6019 -1.0438
 7688SOL     OW23962   0.255   3.711   1.259 -0.0082 -0.5318 -0.2455
 7688SOL    HW123963   0.342   3.689   1.303 -0.3436  0.2178  0.8402
 7688SOL    HW223964   0.254   3.675   1.166  2.1347  0.8686 -0.8744
 7689SOL     OW23965   5.252   0.212   1.472 -0.3423  0.1288 -0.0283
 7689SOL    HW123966   5.251   0.312   1.481 -2.6298  0.1895 -0.4177
 7689SOL    HW223967   5.242   0.187   1.376  1.6628 -0.5264 -0.1182
 7690SOL     OW23968   5.757   4.159   2.965  0.0564 -0.3179  0.4555
 7690SOL    HW123969   5.745   4.180   2.868  0.1644 -0.6115  0.3781
 7690SOL    HW223970   5.697   4.217   3.020 -0.6940 -0.8124  0.1572
 7691SOL     OW23971   5.869   2.186   3.344  0.4975  0.5880  0.0579
 7691SOL    HW123972   5.906   2.169   3.253 -2.8375 -3.4469 -0.8809
 7691SOL    HW223973   5.908   2.122   3.409 -1.5146 -0.8584 -0.0519
 7692SOL     OW23974   2.211   6.258   2.387  0.9315 -0.2112 -0.0590
 7692SOL    HW123975   2.283   6.279   2.321  0.5392  0.5220 -0.2633
 7692SOL    HW223976   2.146   6.194   2.348 -0.6700  2.0694 -1.3431
 7693SOL     OW23977   3.189   1.560   1.091  0.3887  0.1650  0.1951
 7693SOL    HW123978   3.249   1.485   1.121 -0.0014 -0.9588 -1.6322
 7693SOL    HW223979   3.236   1.647   1.102  1.6529 -0.5356  0.5108
 7694SOL     OW23980   3.776   1.811   3.247  0.4938 -0.0642 -0.3136
 7694SOL    HW123981   3.719   1.786   3.169  0.3153 -0.7594  0.0331
 7694SOL    HW223982   3.842   1.738   3.265  2.6768  1.4347 -1.7769
 7695SOL     OW23983   5.134   5.410   3.298 -0.1556 -0.6095  0.2570
 7695SOL    HW123984   5.128   5.484   3.364 -1.6308  0.0086 -0.5326
 7695SOL    HW223985   5.180   5.443   3.215  1.8122 -1.4179  0.9584
 7696SOL     OW23986   1.568   0.404   0.259 -0.4118  0.1620 -0.0482
 7696SOL    HW123987   1.574   0.408   0.159  1.1585  0.5104  0.0437
 7696SOL    HW223988   1.529   0.316   0.286 -2.0903  0.5602 -0.9798
 7697SOL     OW23989   5.981   4.016   2.881  0.3452  0.2805 -0.5889
 7697SOL    HW123990   5.893   4.055   2.909  1.3423  1.7690  0.6120
 7697SOL    HW223991   6.037   4.086   2.837  1.0690 -0.5653 -1.0423
 7698SOL     OW23992   4.889   2.531   1.679  0.1361 -0.0861 -0.0160
 7698SOL    HW123993   4.938   2.487   1.755 -0.2458  0.6475  0.6773
 7698SOL    HW223994   4.883   2.630   1.696  0.2335  0.1177 -1.1177
 7699SOL     OW23995   4.787   5.451   5.669  0.1647 -0.3768  0.0665
 7699SOL    HW123996   4.720   5.381   5.645 -1.6114  1.5405 -0.8747
 7699SOL    HW223997   4.808   5.505   5.587  1.3182  0.3422  0.8227
 7700SOL     OW23998   6.707   5.125   2.069 -0.0867 -0.0738  0.8135
 7700SOL    HW123999   6.729   5.221   2.053  0.3554 -0.1911  0.7009
 7700SOL    HW224000   6.654   5.090   1.992  0.1988 -0.0581  0.6070
 7701SOL     OW24001   3.161   1.704   5.625  0.1789  0.2267  0.1100
 7701SOL    HW124002   3.256   1.676   5.637 -0.0695 -0.4271  0.5719
 7701SOL    HW224003   3.137   1.770   5.697  0.6587  1.3919 -0.7720
 7702SOL     OW24004   6.006   0.194   4.984 -0.1680  0.2722  0.2070
 7702SOL    HW124005   6.086   0.133   4.974 -1.3629 -1.0857 -1.9953
 7702SOL    HW224006   6.025   0.281   4.938  0.5279  0.5171  0.9266
 7703SOL     OW24007   0.922   4.933   0.912 -0.0640  0.2776 -0.4872
 7703SOL    HW124008   0.857   4.994   0.867 -0.0400  0.4470 -0.2928
 7703SOL    HW224009   1.012   4.943   0.868 -0.2967 -0.3892 -1.1443
 7704SOL     OW24010   1.597   1.966   5.900 -0.2407  0.2244  0.0619
 7704SOL    HW124011   1.551   2.025   5.833  1.1944  0.5849 -0.6288
 7704SOL    HW224012   1.677   2.012   5.938 -0.7864 -0.1464  1.7506
 7705SOL     OW24013   1.673   4.769   6.646 -0.3070 -0.5837 -0.0218
 7705SOL    HW124014   1.669   4.869   6.657 -1.2597 -0.6724  0.5344
 7705SOL    HW224015   1.750   4.733   6.698 -0.4202 -0.2145  0.4109
 7706SOL     OW24016   2.903   3.986   0.934 -0.7529 -0.1628 -0.2869
 7706SOL    HW124017   2.863   3.916   0.875 -1.9377 -0.6844  1.0893
 7706SOL    HW224018   2.848   4.069   0.930 -0.8783 -0.2234  0.1216
 7707SOL     OW24019   5.772   5.154   5.509  0.0028 -0.0098  0.5254
 7707SOL    HW124020   5.815   5.070   5.477  1.0520  0.8617 -0.4964
 7707SOL    HW224021   5.814   5.182   5.595  0.3229 -0.0428  0.3824
 7708SOL     OW24022   2.085   0.907   1.431 -0.0750  0.2300 -0.1199
 7708SOL    HW124023   2.024   0.829   1.451 -2.2950  2.0756  0.7538
 7708SOL    HW224024   2.142   0.926   1.511  0.1838 -0.2284 -0.1902
 7709SOL     OW24025   5.987   2.768   2.256  0.0546 -0.9457 -0.6759
 7709SOL    HW124026   6.006   2.841   2.191  0.7631 -1.5853 -1.2142
 7709SOL    HW224027   6.069   2.712   2.269  0.3765 -0.0224  1.8649
 7710SOL     OW24028   6.117   3.320   4.008  0.3026 -0.2921  0.2728
 7710SOL    HW124029   6.118   3.305   4.106 -0.8579 -2.3349  0.0224
 7710SOL    HW224030   6.028   3.291   3.970  1.4654 -1.6219 -1.6399
 7711SOL     OW24031   2.656   6.435   3.643 -0.2980  0.0858 -0.0484
 7711SOL    HW124032   2.613   6.420   3.732  0.8460  0.0337  0.5117
 7711SOL    HW224033   2.721   6.511   3.649  0.2813 -0.3477 -0.6551
 7712SOL     OW24034   1.950   3.354   5.084  0.8212 -0.4583 -0.9837
 7712SOL    HW124035   1.933   3.256   5.089  0.2843 -0.3658 -0.8565
 7712SOL    HW224036   1.868   3.403   5.114  1.9594  0.0135  1.6575
 7713SOL     OW24037   0.714   5.097   0.087 -0.3519  0.0629  0.2330
 7713SOL    HW124038   0.761   5.141   0.164 -2.0433  0.5748  1.0330
 7713SOL    HW224039   0.623   5.138   0.076 -0.8584 -1.2802 -0.8654
 7714SOL     OW24040   4.119   1.512   5.584 -0.4942  0.0549 -0.2667
 7714SOL    HW124041   4.060   1.454   5.529 -1.1597  0.0829  0.4002
 7714SOL    HW224042   4.082   1.520   5.677  1.9475 -2.2063  1.0508
 7715SOL     OW24043   3.898   5.359   5.490  0.3381 -0.4498 -0.2167
 7715SOL    HW124044   3.846   5.441   5.514  1.7815  1.1720 -2.2418
 7715SOL    HW224045   3.858   5.317   5.408  0.3628 -1.0633  0.0784
 7716SOL     OW24046   3.495   1.477   0.289 -0.0200  0.1585  0.0914
 7716SOL    HW124047   3.403   1.479   0.328 -1.1624  1.3967 -2.4720
 7716SOL    HW224048   3.514   1.385   0.253 -0.6850  0.1727 -0.3124
 7717SOL     OW24049   2.622   1.576   6.532  0.1440 -0.5561  0.0465
 7717SOL    HW124050   2.701   1.637   6.529  0.3616 -0.8311  0.1297
 7717SOL    HW224051   2.601   1.543   6.440 -0.8414  0.7411 -0.2188
 7718SOL     OW24052   6.977   4.587   2.622 -0.0040  0.3516  0.1253
 7718SOL    HW124053   6.953   4.677   2.583 -0.6081  1.1759  2.2577
 7718SOL    HW224054   7.017   4.600   2.713 -0.6926 -1.5810  0.7424
 7719SOL     OW24055   0.723   0.105   6.763 -0.0439 -0.0150 -0.1918
 7719SOL    HW124056   0.634   0.086   6.804  1.0628 -1.3719  1.8070
 7719SOL    HW224057   0.776   0.020   6.757  1.4209  0.8748 -0.5104
 7720SOL     OW24058   4.982   0.549   5.823 -0.3210 -0.2059  0.9311
 7720SOL    HW124059   4.984   0.603   5.739 -0.0306 -0.4559  0.7785
 7720SOL    HW224060   4.895   0.500   5.829 -0.4004 -0.0788  0.8501
 7721SOL     OW24061   6.147   5.144   2.686  0.3163  0.0315  0.0583
 7721SOL    HW124062   6.175   5.158   2.781  0.9869  3.0056 -0.5001
 7721SOL    HW224063   6.213   5.083   2.641  0.5167 -0.6504  1.2288
 7722SOL     OW24064   0.154   5.931   4.928 -0.1046 -0.2898 -0.1438
 7722SOL    HW124065   0.054   5.938   4.923 -0.3161 -2.0552  0.9102
 7722SOL    HW224066   0.188   5.991   5.001 -0.7054 -1.6818  1.3342
 7723SOL     OW24067   4.175   5.242   6.749  0.3006  0.0942 -0.3863
 7723SOL    HW124068   4.271   5.226   6.773  0.5956 -0.0306 -1.5831
 7723SOL    HW224069   4.170   5.273   6.654 -0.8549  0.0802 -0.3355
 7724SOL     OW24070   6.196   4.629   0.067  0.2462  0.1252  0.1639
 7724SOL    HW124071   6.242   4.624  -0.022 -2.1875  1.9709 -1.3353
 7724SOL    HW224072   6.103   4.594   0.059 -0.4223  1.4107  1.6542
 7725SOL     OW24073   5.262   2.777   3.551  0.6487  0.1618  0.6052
 7725SOL    HW124074   5.297   2.865   3.518 -1.1359  0.7046  0.0159
 7725SOL    HW224075   5.175   2.793   3.599  0.1601 -1.2995  0.2425
 7726SOL     OW24076   2.217   1.839   2.160 -0.6779 -0.6201 -0.0840
 7726SOL    HW124077   2.146   1.784   2.114 -0.4913 -1.0708  0.1540
 7726SOL    HW224078   2.244   1.793   2.245 -0.9651  0.1650  0.4469
 7727SOL     OW24079   6.910   1.340   1.516  0.1522  0.1284  0.2134
 7727SOL    HW124080   6.970   1.303   1.586  0.5433  0.1279 -0.1186
 7727SOL    HW224081   6.960   1.350   1.430 -0.2058  0.5201  0.0415
 7728SOL     OW24082   3.886   5.588   6.021 -0.0630  0.7292 -0.1450
 7728SOL    HW124083   3.936   5.655   6.077  2.9509 -1.5058  0.0847
 7728SOL    HW224084   3.899   5.497   6.060 -1.9366 -0.3248 -1.8517
 7729SOL     OW24085   3.543   0.596   2.262 -0.3461 -0.1047 -0.2818
 7729SOL    HW124086   3.603   0.545   2.324  0.1639  0.0412 -0.6514
 7729SOL    HW224087   3.533   0.690   2.295  0.0513  0.0171 -0.5003
 7730SOL     OW24088   6.266   3.432   6.207  0.5011  0.5537  0.1242
 7730SOL    HW124089   6.233   3.450   6.299 -3.0028  0.9283 -1.0627
 7730SOL    HW224090   6.353   3.382   6.212  0.9949  1.5134  3.5418
 7731SOL     OW24091   0.100   6.915   5.737  0.6861 -0.1584 -0.4831
 7731SOL    HW124092   0.114   6.874   5.647 -1.3400  0.3226 -1.0800
 7731SOL    HW224093   0.003   6.935   5.749  1.2591  2.2087  0.7662
 7732SOL     OW24094   2.991   2.206   6.639 -0.5578 -0.2432  0.2275
 7732SOL    HW124095   2.986   2.142   6.563  0.7833  1.6796 -1.5815
 7732SOL    HW224096   3.059   2.174   6.706  1.8301  0.3306 -1.7857
 7733SOL     OW24097   3.615   4.609   1.004 -0.9890 -0.6104  0.1642
 7733SOL    HW124098   3.607   4.667   0.923  0.1004 -1.0366 -0.2774
 7733SOL    HW224099   3.688   4.643   1.063 -0.2337 -1.5955 -0.1743
 7734SOL     OW24100   3.362   4.096   4.418 -0.0981  0.0698  0.2794
 7734SOL    HW124101   3.433   4.150   4.371 -0.5636  0.6555  0.2408
 7734SOL    HW224102   3.359   4.122   4.514 -0.4034  0.1973  0.2354
 7735SOL     OW24103   1.372   4.730   0.438 -0.1693  0.5416 -0.2908
 7735SOL    HW124104   1.409   4.707   0.529 -2.4106  0.7397  0.7251
 7735SOL    HW224105   1.276   4.755   0.446 -1.2594 -2.1349 -3.0585
 7736SOL     OW24106   1.345   1.649   1.508  0.1851 -0.5306  0.3200
 7736SOL    HW124107   1.361   1.676   1.413 -0.8227  2.4012  0.8656
 7736SOL    HW224108   1.424   1.600   1.542  0.9693 -0.8172 -1.7357
 7737SOL     OW24109   5.685   4.824   6.320  0.4867  0.2136  0.3571
 7737SOL    HW124110   5.601   4.824   6.265  0.9765 -1.4855 -0.4746
 7737SOL    HW224111   5.677   4.892   6.393 -0.9631  1.1898 -0.6486
 7738SOL     OW24112   2.349   6.847   4.517 -0.0330 -0.4921  0.0994
 7738SOL    HW124113   2.254   6.872   4.538 -0.1401  0.9969 -1.8912
 7738SOL    HW224114   2.405   6.930   4.512  0.8577 -1.1362 -1.1011
 7739SOL     OW24115   1.454   2.100   6.396  1.4376 -0.3727  0.2338
 7739SOL    HW124116   1.480   2.008   6.426  0.1882 -0.8488 -0.0574
 7739SOL    HW224117   1.418   2.095   6.303  1.8103  0.5002  0.0351
 7740SOL     OW24118   2.798   1.711   4.763 -0.0050 -0.6890  0.8069
 7740SOL    HW124119   2.802   1.809   4.743 -1.3819 -1.0900 -1.9943
 7740SOL    HW224120   2.881   1.666   4.729  0.2940 -0.5948  1.4107
 7741SOL     OW24121   6.199   4.471   5.161  0.0031  0.0737  0.5472
 7741SOL    HW124122   6.283   4.419   5.154  0.9257  1.5171  0.4699
 7741SOL    HW224123   6.150   4.444   5.244  0.8501 -0.3390  0.9195
 7742SOL     OW24124   6.865   2.563   3.884  0.8063  0.3885  0.4366
 7742SOL    HW124125   6.877   2.594   3.978  0.2675 -0.0738  0.6661
 7742SOL    HW224126   6.835   2.468   3.884  2.0100 -0.0102 -0.2466
 7743SOL     OW24127   2.425   6.445   5.520 -0.1663 -0.4093  0.4306
 7743SOL    HW124128   2.454   6.493   5.603  1.6969  0.8251 -0.8468
 7743SOL    HW224129   2.345   6.490   5.482  0.1698  0.2641  0.5078
 7744SOL     OW24130   6.787   4.907   3.868 -0.5352 -0.8260  0.5598
 7744SOL    HW124131   6.810   4.815   3.839 -0.4551 -0.6152 -0.0531
 7744SOL    HW224132   6.688   4.920   3.863 -0.7387 -1.4288  2.3019
 7745SOL     OW24133   2.731   1.130   6.629 -0.0721  0.0751  0.4336
 7745SOL    HW124134   2.793   1.090   6.562 -1.2062 -0.6038 -0.2350
 7745SOL    HW224135   2.710   1.062   6.700  0.2043  0.4164  0.8508
 7746SOL     OW24136   5.631   6.851   1.311 -0.5646 -0.5051  0.0070
 7746SOL    HW124137   5.650   6.809   1.400 -1.4125 -2.0078 -0.4787
 7746SOL    HW224138   5.705   6.828   1.247 -0.1606  0.2322  0.1955
 7747SOL     OW24139   6.123   6.874   1.110 -0.6273 -0.2478  0.1060
 7747SOL    HW124140   6.153   6.793   1.060  2.5805  0.4508  0.6742
 7747SOL    HW224141   6.154   6.869   1.204  0.4446  1.9553 -0.0539
 7748SOL     OW24142   4.266   0.223   4.665 -0.2480  0.2081  0.4386
 7748SOL    HW124143   4.277   0.148   4.600  0.8600  1.2769 -0.6908
 7748SOL    HW224144   4.171   0.253   4.667 -0.1279  0.8942 -1.6374
 7749SOL     OW24145   3.553   2.848   2.721 -0.0891 -0.2035 -0.2720
 7749SOL    HW124146   3.615   2.770   2.721 -0.1380 -0.2464 -0.8746
 7749SOL    HW224147   3.570   2.904   2.639 -2.6327 -1.6468 -1.9181
 7750SOL     OW24148   4.766   4.300   5.485  0.3779  0.0537  0.2165
 7750SOL    HW124149   4.798   4.283   5.578  1.2257  1.9796  0.3461
 7750SOL    HW224150   4.743   4.214   5.440  0.4093 -0.9401  2.0396
 7751SOL     OW24151   0.749   2.792   5.397  0.6941 -0.4240  0.0490
 7751SOL    HW124152   0.813   2.785   5.321  0.4925  1.0779 -0.2711
 7751SOL    HW224153   0.799   2.817   5.480  0.8976 -1.9564  0.4327
 7752SOL     OW24154   4.967   4.523   1.802  0.6006  0.5407 -0.3960
 7752SOL    HW124155   4.978   4.504   1.704 -1.7873  1.4208 -0.9186
 7752SOL    HW224156   4.907   4.454   1.843  0.2165  1.1221  0.0383
 7753SOL     OW24157   2.300   1.854   6.317  0.1657  0.6570  0.0657
 7753SOL    HW124158   2.264   1.829   6.406  0.5395  1.7088  0.5275
 7753SOL    HW224159   2.337   1.947   6.321 -0.5614  1.0404 -1.3919
 7754SOL     OW24160   6.752   2.614   0.813 -0.1070  0.3697 -0.0886
 7754SOL    HW124161   6.851   2.616   0.830  0.1259 -2.5692 -0.4540
 7754SOL    HW224162   6.716   2.707   0.810  2.4760  1.4906  0.9686
 7755SOL     OW24163   1.457   5.579   6.333 -0.1741  0.1336 -0.1139
 7755SOL    HW124164   1.456   5.533   6.243  0.1371 -0.2506  0.0747
 7755SOL    HW224165   1.525   5.535   6.391 -1.3066 -0.4908  0.7663
 7756SOL     OW24166   3.890   0.683   4.069 -0.6908 -0.4360 -0.2853
 7756SOL    HW124167   3.839   0.682   4.155 -0.1425  0.4191  0.0549
 7756SOL    HW224168   3.833   0.643   3.997 -1.2103 -1.0260  0.4336
 7757SOL     OW24169   4.968   2.335   5.766  0.4498  0.0355 -0.1452
 7757SOL    HW124170   4.932   2.428   5.758  0.0789  0.0013  0.9984
 7757SOL    HW224171   4.900   2.270   5.732  1.1501  0.2192 -2.0338
 7758SOL     OW24172   3.495   1.303   5.938 -0.5951  0.5861  0.3938
 7758SOL    HW124173   3.424   1.372   5.934 -1.7893 -0.6139  0.2410
 7758SOL    HW224174   3.496   1.262   6.029 -0.7733 -0.0748  0.1044
 7759SOL     OW24175   6.100   0.788   4.564  0.5595  0.3402 -0.1000
 7759SOL    HW124176   6.196   0.770   4.583  0.8326  0.0387 -1.6856
 7759SOL    HW224177   6.082   0.778   4.466 -1.3651 -0.8975  0.3241
 7760SOL     OW24178   4.307   1.550   4.206  0.0218  0.7436 -0.6032
 7760SOL    HW124179   4.282   1.454   4.214  1.8584  0.3698  1.4983
 7760SOL    HW224180   4.394   1.558   4.158 -1.5705  1.6714 -3.5744
 7761SOL     OW24181   5.459   1.433   0.744 -0.0056 -0.6189  0.9714
 7761SOL    HW124182   5.453   1.334   0.758 -1.0727 -0.5748  0.9288
 7761SOL    HW224183   5.467   1.479   0.832  1.0791 -0.7722  0.9572
 7762SOL     OW24184   2.625   2.773   1.383  0.2557 -0.4063  0.0141
 7762SOL    HW124185   2.707   2.717   1.374 -1.0850 -2.4328 -0.3354
 7762SOL    HW224186   2.556   2.743   1.316 -0.3963  2.0144 -0.5257
 7763SOL     OW24187   4.085   1.675   0.773  0.3030  0.3334 -0.0405
 7763SOL    HW124188   4.153   1.748   0.775  1.7425 -0.9736  0.2339
 7763SOL    HW224189   4.122   1.595   0.725 -0.9837 -0.4611  0.2249
 7764SOL     OW24190   3.420   3.486   3.761 -0.1843  0.3712  0.4654
 7764SOL    HW124191   3.397   3.582   3.749  2.0337  0.7014 -1.7889
 7764SOL    HW224192   3.518   3.472   3.746 -0.3144 -2.1647  1.4044
 7765SOL     OW24193   5.187   2.418   2.757 -0.7339  0.6568  0.2419
 7765SOL    HW124194   5.207   2.364   2.839 -3.9011 -0.0764  0.6829
 7765SOL    HW224195   5.205   2.514   2.776  3.8596  0.0958 -0.1640
 7766SOL     OW24196   6.683   2.943   6.247 -0.3345  0.4966 -0.4702
 7766SOL    HW124197   6.732   3.030   6.253 -0.7718  0.6191  2.1270
 7766SOL    HW224198   6.732   2.883   6.183  2.0357  1.3768  0.3851
 7767SOL     OW24199   5.867   3.576   4.928  0.1705 -0.1153  0.3888
 7767SOL    HW124200   5.866   3.669   4.966 -2.0981 -0.5297  1.5149
 7767SOL    HW224201   5.894   3.579   4.832  4.1563  1.2000  1.3440
 7768SOL     OW24202   2.262   6.099   0.231  0.2438  0.5261 -0.0927
 7768SOL    HW124203   2.180   6.106   0.289  1.4952  1.3661  1.6345
 7768SOL    HW224204   2.287   6.002   0.223 -1.1533  0.2040 -1.0404
 7769SOL     OW24205   6.032   0.204   3.772 -0.0804 -0.0550  0.2891
 7769SOL    HW124206   5.986   0.146   3.839  2.2531  0.0039  2.0760
 7769SOL    HW224207   5.964   0.246   3.712 -2.4074  0.4540  3.0647
 7770SOL     OW24208   3.290   1.103   1.460  0.2644  0.1288  0.4499
 7770SOL    HW124209   3.255   1.120   1.552 -1.4234  0.1823 -0.1566
 7770SOL    HW224210   3.276   1.007   1.436  0.3442  0.2003  0.1125
 7771SOL     OW24211   1.354   1.840   5.318 -0.6793 -0.1896  0.1587
 7771SOL    HW124212   1.259   1.855   5.289 -0.8822 -1.5148  0.0582
 7771SOL    HW224213   1.398   1.777   5.254  0.2436  0.3445  0.2640
 7772SOL     OW24214   6.394   1.678   6.192  0.2960 -0.6471 -0.2382
 7772SOL    HW124215   6.411   1.629   6.277 -0.8044  1.3460  1.1904
 7772SOL    HW224216   6.475   1.731   6.167  0.2214 -0.3427  0.1739
 7773SOL     OW24217   5.460   5.176   6.452 -0.0284 -0.1288 -0.6106
 7773SOL    HW124218   5.472   5.253   6.516 -2.5436  0.9119 -1.2709
 7773SOL    HW224219   5.495   5.202   6.362  1.1365 -0.6307 -0.3247
 7774SOL     OW24220   3.781   0.765   1.610  0.2129 -0.5205 -0.3438
 7774SOL    HW124221   3.691   0.805   1.592  0.2987  0.3111  0.9769
 7774SOL    HW224222   3.850   0.837   1.610  0.7931 -1.0620 -0.6744
 7775SOL     OW24223   0.817   5.753   1.644  0.4303  0.2241  0.5924
 7775SOL    HW124224   0.787   5.838   1.600  0.5798  0.5582  1.1312
 7775SOL    HW224225   0.740   5.713   1.694 -0.0358 -0.7051 -0.7948
 7776SOL     OW24226   3.928   4.268   6.244  0.5757  0.1296 -0.2936
 7776SOL    HW124227   3.838   4.310   6.241 -0.3994 -1.5518  2.1640
 7776SOL    HW224228   3.934   4.197   6.174 -0.6687 -0.8258  0.5163
 7777SOL     OW24229   6.165   2.239   6.279 -0.2029  0.0363  0.2979
 7777SOL    HW124230   6.200   2.202   6.365  2.0679  0.3519 -0.4231
 7777SOL    HW224231   6.205   2.189   6.203 -3.3917 -1.3267 -0.6787
 7778SOL     OW24232   5.879   1.413   3.647  0.4134  0.0717 -0.4694
 7778SOL    HW124233   5.850   1.464   3.567  2.5480 -1.2119 -2.1731
 7778SOL    HW224234   5.904   1.320   3.620 -0.8656 -1.1257  2.0829
 7779SOL     OW24235   4.482   4.243   5.689 -0.8618  1.0374 -0.5833
 7779SOL    HW124236   4.466   4.307   5.614 -1.2726  1.3110 -0.2685
 7779SOL    HW224237   4.420   4.165   5.680 -1.1413  1.2283 -0.3550
 7780SOL     OW24238   1.669   5.804   3.211  0.3648  0.3260  0.0625
 7780SOL    HW124239   1.658   5.823   3.114 -2.7599  1.8608  0.5676
 7780SOL    HW224240   1.695   5.888   3.259 -1.8672  0.5811  0.9434
 7781SOL     OW24241   2.227   4.626   5.631  0.1401  0.2736 -0.3545
 7781SOL    HW124242   2.268   4.602   5.543 -0.7087  1.0374 -0.9759
 7781SOL    HW224243   2.213   4.543   5.685  1.9396 -0.0637 -0.3544
 7782SOL     OW24244   4.934   3.178   0.617  0.6856 -0.1406 -0.2621
 7782SOL    HW124245   4.860   3.112   0.605  0.4903 -0.4685  2.2691
 7782SOL    HW224246   4.987   3.155   0.699  2.2996  1.3010 -0.8380
 7783SOL     OW24247   4.240   0.224   0.070  0.0462  0.1961  0.5776
 7783SOL    HW124248   4.176   0.297   0.093  1.1582  1.7807 -1.0821
 7783SOL    HW224249   4.196   0.135   0.086 -2.7762  1.1838 -0.9399
 7784SOL     OW24250   0.113   4.087   0.751  0.0248 -0.1281 -0.0894
 7784SOL    HW124251   0.145   3.996   0.727 -1.0105 -0.1745 -1.4283
 7784SOL    HW224252   0.018   4.082   0.780  0.5567  0.2725  1.8467
 7785SOL     OW24253   1.608   5.064   5.899 -0.9503  0.3502  0.3221
 7785SOL    HW124254   1.704   5.051   5.874 -0.7094  0.4035  1.1921
 7785SOL    HW224255   1.602   5.129   5.975 -1.8698  2.7835 -1.6897
 7786SOL     OW24256   3.812   2.988   4.715  0.2998 -0.2048 -0.2479
 7786SOL    HW124257   3.824   2.976   4.616 -1.2523  0.5313 -0.5661
 7786SOL    HW224258   3.738   2.929   4.747  0.3587  0.0366  0.3455
 7787SOL     OW24259   4.084   2.024   0.702 -0.2451 -0.0125  0.2322
 7787SOL    HW124260   4.037   2.068   0.779 -0.0767  0.0345  0.3084
 7787SOL    HW224261   4.167   1.980   0.735 -1.1217 -1.5885  0.4084
 7788SOL     OW24262   1.165   2.419   6.994  0.1812  0.0026  0.2807
 7788SOL    HW124263   1.088   2.484   6.989  1.3003  1.2869 -1.7852
 7788SOL    HW224264   1.132   2.328   6.971 -0.5388  0.7930 -2.1861
 7789SOL     OW24265   6.696   1.382   0.727  0.8769 -0.0274  0.6346
 7789SOL    HW124266   6.624   1.382   0.658  0.2345  0.2639  1.2930
 7789SOL    HW224267   6.785   1.385   0.682  0.5834 -2.5876 -0.2707
 7790SOL     OW24268   2.005   2.772   2.666  0.2723 -0.5489 -0.6126
 7790SOL    HW124269   1.926   2.819   2.705  1.3583  0.9843 -0.1563
 7790SOL    HW224270   2.020   2.685   2.714  1.6929  1.3522  2.6925
 7791SOL     OW24271   6.710   4.953   6.032  0.1208 -0.0599  0.0120
 7791SOL    HW124272   6.716   5.051   6.018  0.6981  0.0032  0.6498
 7791SOL    HW224273   6.738   4.930   6.125 -1.0382 -0.7279  0.2219
 7792SOL     OW24274   6.662   5.734   6.330 -0.1754 -0.4246 -0.0532
 7792SOL    HW124275   6.566   5.706   6.325 -0.3403  0.2616 -1.0594
 7792SOL    HW224276   6.674   5.822   6.284  0.9166 -0.4316  0.1791
 7793SOL     OW24277   1.247   5.811   6.540 -0.4558  0.6036  0.2733
 7793SOL    HW124278   1.183   5.803   6.464 -0.2406  1.0965  0.0401
 7793SOL    HW224279   1.208   5.765   6.620 -0.5691 -0.1379 -0.1957
 7794SOL     OW24280   6.333   3.709   3.775  0.0821  0.6670 -0.2864
 7794SOL    HW124281   6.338   3.734   3.872  2.4722 -2.5900  0.5948
 7794SOL    HW224282   6.276   3.628   3.764  1.0628  0.0934 -1.3678
 7795SOL     OW24283   0.925   4.540   5.466 -0.4576 -0.1228 -0.4340
 7795SOL    HW124284   1.000   4.605   5.481 -0.6432  0.2528 -1.1059
 7795SOL    HW224285   0.905   4.533   5.368  0.5727 -2.3549 -0.5541
 7796SOL     OW24286   4.173   3.555   1.610  0.0749  0.2356  0.1118
 7796SOL    HW124287   4.152   3.575   1.514  0.9081  1.7380  0.2076
 7796SOL    HW224288   4.175   3.456   1.625  0.3892 -0.0242 -1.5174
 7797SOL     OW24289   0.725   0.064   3.000 -0.3026  0.4511 -0.7299
 7797SOL    HW124290   0.807   0.033   2.952 -0.6896 -0.7702 -0.6302
 7797SOL    HW224291   0.697  -0.005   3.066 -0.5642  1.5070  0.3138
 7798SOL     OW24292   5.326   3.824   5.319 -0.0443 -0.5119  0.4812
 7798SOL    HW124293   5.284   3.733   5.308 -1.1293  0.0838 -0.5322
 7798SOL    HW224294   5.307   3.858   5.411 -1.0259 -0.6463  0.3411
 7799SOL     OW24295   4.388   5.678   2.360 -0.0228 -0.3212 -0.3748
 7799SOL    HW124296   4.396   5.771   2.323 -0.4495 -0.6974 -1.4737
 7799SOL    HW224297   4.320   5.676   2.433 -0.4510  0.1177 -0.7570
 7800SOL     OW24298   6.465   5.676   1.992  0.2441  0.2520  0.4041
 7800SOL    HW124299   6.465   5.576   1.998  0.6622  0.1689 -0.7213
 7800SOL    HW224300   6.533   5.713   2.054 -0.0055 -0.1470  0.9271
 7801SOL     OW24301   3.432   3.165   5.511  0.0617  0.0694  0.0360
 7801SOL    HW124302   3.392   3.239   5.457  0.0278  1.3388  1.7050
 7801SOL    HW224303   3.416   3.078   5.466  0.1241  1.0621 -2.0092
 7802SOL     OW24304   0.132   3.695   6.567 -0.4100 -0.1172  0.2845
 7802SOL    HW124305   0.092   3.786   6.553  1.2960  0.6846  0.4557
 7802SOL    HW224306   0.215   3.686   6.513  0.1365 -1.1052  1.2450
 7803SOL     OW24307   4.301   2.646   5.611 -0.2998 -0.5635 -0.2990
 7803SOL    HW124308   4.330   2.736   5.577  3.2030 -1.5606 -0.2928
 7803SOL    HW224309   4.278   2.587   5.533  1.0379 -0.7520 -0.5753
 7804SOL     OW24310   4.682   1.400   4.449 -0.2449 -0.3984  0.2693
 7804SOL    HW124311   4.715   1.431   4.538 -0.8953 -2.4213  1.2779
 7804SOL    HW224312   4.718   1.460   4.377 -1.5752  2.7114  2.0256
 7805SOL     OW24313   4.534   3.553   0.801  0.4023 -0.7853  0.4544
 7805SOL    HW124314   4.472   3.498   0.745 -1.2773 -1.2855  2.6760
 7805SOL    HW224315   4.483   3.628   0.844  1.7222 -0.1585  0.9919
 7806SOL     OW24316   5.584   2.914   2.010  0.4963  0.1870  0.4591
 7806SOL    HW124317   5.635   2.851   2.069  0.3780  0.2471  0.6264
 7806SOL    HW224318   5.552   2.991   2.064 -1.7788 -0.9725  0.9044
 7807SOL     OW24319   0.967   3.990   5.609 -0.0078  0.6166 -0.1307
 7807SOL    HW124320   0.991   3.948   5.521 -0.2157  0.5310 -0.1473
 7807SOL    HW224321   1.012   3.940   5.683 -0.3159  0.3178 -0.1449
 7808SOL     OW24322   6.413   1.635   4.128 -0.6750  0.3053  0.3638
 7808SOL    HW124323   6.384   1.560   4.070  0.0757 -0.4863  0.9905
 7808SOL    HW224324   6.395   1.612   4.224  0.6180  0.4229  0.6498
 7809SOL     OW24325   2.877   6.843   0.074  0.1768 -0.0266  0.2340
 7809SOL    HW124326   2.870   6.931   0.122  2.1045  1.6325 -2.2785
 7809SOL    HW224327   2.972   6.827   0.047 -0.2725 -2.5049 -0.1882
 7810SOL     OW24328   3.518   1.799   0.449  0.0449 -0.1914  0.2468
 7810SOL    HW124329   3.488   1.809   0.354 -0.0985  0.7036  0.3830
 7810SOL    HW224330   3.439   1.784   0.508  0.1309 -0.7094  0.2377
 7811SOL     OW24331   6.163   4.031   5.887 -0.3215 -0.5393  0.4410
 7811SOL    HW124332   6.192   3.947   5.932  0.9070 -0.2646  0.2052
 7811SOL    HW224333   6.087   4.072   5.938  2.1958  0.7679  3.5078
 7812SOL     OW24334   0.660   1.517   5.109 -0.5784  0.3436 -0.8596
 7812SOL    HW124335   0.636   1.512   5.206  1.2960  1.2770 -0.3029
 7812SOL    HW224336   0.638   1.430   5.065 -1.1172 -0.2232  0.4696
 7813SOL     OW24337   5.742   2.774   0.383 -0.2416 -0.0633 -0.2844
 7813SOL    HW124338   5.680   2.713   0.333  0.2629 -2.0462  1.3901
 7813SOL    HW224339   5.704   2.795   0.473  1.4910 -1.4072  0.8291
 7814SOL     OW24340   1.871   2.884   2.407 -0.3561 -0.0802 -0.4636
 7814SOL    HW124341   1.924   2.937   2.341 -1.4387 -1.4082 -2.5151
 7814SOL    HW224342   1.932   2.826   2.460  0.5715  1.2465 -0.0178
 7815SOL     OW24343   6.518   2.779   6.447  0.2272  0.5371  0.2221
 7815SOL    HW124344   6.552   2.848   6.382 -1.6035  0.6506 -0.6760
 7815SOL    HW224345   6.456   2.823   6.512  0.1634 -0.0193  0.5420
 7816SOL     OW24346   5.646   4.691   6.886 -0.4411 -0.6023 -0.0172
 7816SOL    HW124347   5.714   4.637   6.836  0.2876 -0.9719  1.3150
 7816SOL    HW224348   5.554   4.665   6.855 -0.0190 -0.5732 -1.3703
 7817SOL     OW24349   6.729   3.158   5.315  0.4904  0.0546 -0.5293
 7817SOL    HW124350   6.653   3.203   5.268  0.2179 -0.1962 -0.3245
 7817SOL    HW224351   6.706   3.063   5.334  1.2501 -0.3236 -1.4045
 7818SOL     OW24352   5.353   2.017   4.164  0.4214 -0.0556 -0.4180
 7818SOL    HW124353   5.372   2.115   4.165 -0.0511  0.0579  1.4905
 7818SOL    HW224354   5.432   1.968   4.128  1.1307  0.9498 -0.2805
 7819SOL     OW24355   2.861   0.567   0.223  0.1048  0.1593  0.2984
 7819SOL    HW124356   2.776   0.528   0.188 -0.0064 -0.2016  0.9553
 7819SOL    HW224357   2.840   0.646   0.281  0.2808  0.6863 -0.3432
 7820SOL     OW24358   0.143   5.975   5.651  0.0202 -0.2397  0.7895
 7820SOL    HW124359   0.104   6.056   5.695 -0.3777 -0.9362  1.7543
 7820SOL    HW224360   0.153   5.992   5.553 -2.3816  0.1148  0.5332
 7821SOL     OW24361   2.905   6.592   1.704 -0.1125  0.3144 -0.2306
 7821SOL    HW124362   2.903   6.689   1.680 -1.0461 -0.0716 -1.8936
 7821SOL    HW224363   2.900   6.582   1.803 -2.1877  1.9308 -0.1112
 7822SOL     OW24364   0.728   6.537   4.086  0.1546  0.6288 -0.0060
 7822SOL    HW124365   0.821   6.524   4.051  0.5738  1.8900  0.5738
 7822SOL    HW224366   0.727   6.613   4.150 -1.2541  0.5099  0.1487
 7823SOL     OW24367   1.356   4.477   5.375 -0.0563  0.4781  0.1045
 7823SOL    HW124368   1.395   4.448   5.288  1.9602  1.0132  0.7833
 7823SOL    HW224369   1.323   4.397   5.426  0.8736 -0.0889 -0.1695
 7824SOL     OW24370   0.967   4.384   5.937  0.1463  0.3910  0.0251
 7824SOL    HW124371   0.936   4.461   5.993  0.1119 -0.9032  1.8421
 7824SOL    HW224372   0.911   4.379   5.854 -1.7288  0.6251  1.2382
 7825SOL     OW24373   2.500   1.098   1.018  0.3784 -0.6932  0.1450
 7825SOL    HW124374   2.402   1.106   1.037  0.1522 -2.1763 -0.3295
 7825SOL    HW224375   2.541   1.190   1.020 -0.8362 -0.1293  1.2071
 7826SOL     OW24376   6.635   3.569   4.224 -0.6198  0.0122  0.4812
 7826SOL    HW124377   6.591   3.498   4.280 -0.4294 -0.3159  0.2156
 7826SOL    HW224378   6.669   3.528   4.140  2.7196 -0.3765  1.8492
 7827SOL     OW24379   6.040   4.554   2.380 -0.0554 -0.1131  0.4516
 7827SOL    HW124380   6.038   4.486   2.453 -1.6063 -0.9952 -0.3610
 7827SOL    HW224381   5.985   4.634   2.407  0.2808  0.0465  0.6760
 7828SOL     OW24382   1.349   5.209   6.594 -0.3331  0.1450  0.2300
 7828SOL    HW124383   1.318   5.270   6.521  0.9601  2.2553  1.3322
 7828SOL    HW224384   1.439   5.172   6.571 -0.4006 -0.0369  0.2627
 7829SOL     OW24385   4.023   4.272   0.980  0.0242 -0.0258  0.3458
 7829SOL    HW124386   4.083   4.314   1.048  1.1858 -0.8619 -0.1282
 7829SOL    HW224387   3.952   4.219   1.026  0.7856 -0.5720  0.9125
 7830SOL     OW24388   0.179   6.175   4.761 -0.2989  0.1027  0.4249
 7830SOL    HW124389   0.170   6.196   4.858 -0.7769  1.0604  0.1867
 7830SOL    HW224390   0.255   6.111   4.747  1.5446  1.9963  1.1688
 7831SOL     OW24391   1.567   0.361   6.962  0.1500  0.1743  0.0156
 7831SOL    HW124392   1.612   0.450   6.965  0.5243 -0.0425  1.4492
 7831SOL    HW224393   1.618   0.299   6.902  1.1541  0.2534  0.7751
 7832SOL     OW24394   0.346   0.636   5.028 -0.0140  0.2847  0.2150
 7832SOL    HW124395   0.301   0.706   4.972  1.4560  1.2737  0.1796
 7832SOL    HW224396   0.385   0.679   5.110  1.0809 -0.4329  0.0970
 7833SOL     OW24397   2.737   0.117   3.657 -0.2870  0.0449 -0.5078
 7833SOL    HW124398   2.724   0.090   3.561 -0.9808 -0.8691 -0.1779
 7833SOL    HW224399   2.776   0.040   3.708 -0.4849  0.3183  0.0610
 7834SOL     OW24400   1.421   4.131   4.723 -0.6162 -0.2225 -0.4414
 7834SOL    HW124401   1.490   4.068   4.759 -0.5597  1.6573  3.2303
 7834SOL    HW224402   1.465   4.194   4.659  0.8462  0.1127  0.8257
 7835SOL     OW24403   4.740   4.283   5.093  0.0970  0.0220  0.5471
 7835SOL    HW124404   4.653   4.261   5.137 -0.6783  0.7503 -0.5583
 7835SOL    HW224405   4.811   4.222   5.126  0.1248  1.9028  4.5229
 7836SOL     OW24406   2.758   3.284   5.696 -0.1975 -0.8316  0.0813
 7836SOL    HW124407   2.727   3.204   5.645 -0.3527  0.2256 -1.5545
 7836SOL    HW224408   2.698   3.299   5.775 -0.9521 -1.5747 -0.3357
 7837SOL     OW24409   6.278   0.565   2.166  0.0814  0.2818 -0.6156
 7837SOL    HW124410   6.301   0.470   2.144 -1.1078 -0.7091  1.9192
 7837SOL    HW224411   6.194   0.590   2.118  0.0378 -0.1955 -0.7985
 7838SOL     OW24412   2.869   5.790   1.357 -0.7236 -0.0314 -0.1105
 7838SOL    HW124413   2.811   5.820   1.433 -0.6626 -0.3020  0.0439
 7838SOL    HW224414   2.910   5.869   1.313 -1.1557  0.1588 -0.1740
 7839SOL     OW24415   5.002   2.555   6.257 -0.2085 -0.4472  0.4892
 7839SOL    HW124416   4.916   2.606   6.264 -1.0559 -1.2108 -2.7895
 7839SOL    HW224417   4.983   2.457   6.247  0.7828 -0.4617 -2.3129
 7840SOL     OW24418   2.482   1.943   4.710  0.0411 -0.2458 -0.7358
 7840SOL    HW124419   2.517   2.035   4.691 -1.3056  0.0433 -2.1258
 7840SOL    HW224420   2.439   1.942   4.800  5.3961 -1.2548  2.1940
 7841SOL     OW24421   4.751   3.540   6.802 -0.1553  0.6560 -0.4134
 7841SOL    HW124422   4.654   3.562   6.791  0.0056  2.2650  1.0258
 7841SOL    HW224423   4.761   3.441   6.817 -1.6048  0.5216 -0.2048
 7842SOL     OW24424   1.248   0.368   0.348  0.5547  0.6226  0.2276
 7842SOL    HW124425   1.262   0.463   0.375  0.3446  0.6292  0.3123
 7842SOL    HW224426   1.330   0.315   0.369  0.1357  0.4728  1.5278
 7843SOL     OW24427   0.625   5.567   1.765 -0.1602 -0.2198 -0.1879
 7843SOL    HW124428   0.703   5.544   1.822  0.0555 -3.1813 -1.4673
 7843SOL    HW224429   0.588   5.483   1.725 -1.5013  1.5004 -2.8185
 7844SOL     OW24430   1.412   5.715   0.402  0.0811  0.4877  0.0902
 7844SOL    HW124431   1.483   5.783   0.421  1.0011 -0.3821 -0.1500
 7844SOL    HW224432   1.334   5.759   0.360  0.4325  1.4871  0.4527
 7845SOL     OW24433   1.534   2.448   1.867 -0.4828 -0.8925 -0.1492
 7845SOL    HW124434   1.630   2.423   1.864 -0.3825 -0.4907 -0.3118
 7845SOL    HW224435   1.514   2.492   1.955 -0.0331  0.9358 -0.9203
 7846SOL     OW24436   1.102   0.911   0.040  0.3589  0.1709  0.4862
 7846SOL    HW124437   1.187   0.859   0.040 -0.1856 -0.7457  0.2654
 7846SOL    HW224438   1.056   0.900  -0.048 -0.8734 -0.8551  1.2326
 7847SOL     OW24439   6.174   4.662   4.960 -0.3637 -0.1211 -0.0612
 7847SOL    HW124440   6.184   4.588   5.026 -1.7844  0.8112  1.2686
 7847SOL    HW224441   6.262   4.679   4.915  0.4460 -1.3075  1.0093
 7848SOL     OW24442   4.610   4.869   0.998 -0.1298  0.2058  0.7591
 7848SOL    HW124443   4.589   4.812   0.919  0.7324 -0.3828  0.9424
 7848SOL    HW224444   4.593   4.816   1.082 -0.5566  0.6590  0.9637
 7849SOL     OW24445   0.684   3.520   6.154  0.1512 -0.4060 -0.0250
 7849SOL    HW124446   0.769   3.539   6.203  0.8655 -1.6628 -0.7080
 7849SOL    HW224447   0.688   3.428   6.115 -0.3649  0.5427 -2.4767
 7850SOL     OW24448   6.882   0.475   3.827 -0.3730 -0.0272  0.3249
 7850SOL    HW124449   6.941   0.555   3.841 -0.5636  0.1268  0.2524
 7850SOL    HW224450   6.792   0.506   3.797  0.0424 -0.3682 -1.3175
 7851SOL     OW24451   2.417   3.078   0.293  0.4548  0.3937  0.0595
 7851SOL    HW124452   2.513   3.054   0.310  0.7401  0.8492 -0.8294
 7851SOL    HW224453   2.381   3.021   0.219 -0.0664 -0.0054  0.6145
 7852SOL     OW24454   2.067   0.875   0.025 -0.2916  0.4299  0.0223
 7852SOL    HW124455   2.019   0.857   0.111 -1.9525 -1.2328 -1.1719
 7852SOL    HW224456   2.103   0.790  -0.012  1.4295  1.2914 -0.3837
 7853SOL     OW24457   3.877   2.283   1.351  0.1170 -0.2261  0.1867
 7853SOL    HW124458   3.849   2.247   1.261  0.4942  1.2324 -0.5326
 7853SOL    HW224459   3.861   2.381   1.354  3.5394  0.4452  0.3523
 7854SOL     OW24460   3.106   1.705   2.810 -0.1556 -0.0644 -0.2150
 7854SOL    HW124461   3.149   1.794   2.825  0.1212  0.1777 -2.1416
 7854SOL    HW224462   3.010   1.709   2.837  0.3754  0.1482  1.7362
 7855SOL     OW24463   5.534   5.654   5.071  0.2688  0.2531  0.0868
 7855SOL    HW124464   5.530   5.733   5.009  0.5070 -0.9426 -1.5252
 7855SOL    HW224465   5.444   5.609   5.072  1.1077 -1.7222 -2.2099
 7856SOL     OW24466   0.652   5.688   6.762  0.5400  0.3293 -0.5281
 7856SOL    HW124467   0.620   5.697   6.857 -0.6542 -0.3146 -0.8515
 7856SOL    HW224468   0.741   5.641   6.762 -0.3308 -1.4346  0.1886
 7857SOL     OW24469   5.622   6.637   5.762 -0.0110 -0.0914 -0.3623
 7857SOL    HW124470   5.547   6.660   5.699 -0.3494  1.4799  0.5789
 7857SOL    HW224471   5.688   6.712   5.765  0.1141 -0.2303  0.9795
 7858SOL     OW24472   5.926   3.917   0.077  0.1501 -0.3076 -0.2345
 7858SOL    HW124473   5.994   3.988   0.059 -0.6442  0.8612  1.1811
 7858SOL    HW224474   5.926   3.851   0.002  0.9297  1.1653 -1.5872
 7859SOL     OW24475   4.794   2.915   2.468 -0.5491  0.3628 -0.6682
 7859SOL    HW124476   4.840   2.863   2.540  1.3263  0.7548 -1.5111
 7859SOL    HW224477   4.764   3.003   2.504 -2.5109 -0.6660  0.4067
 7860SOL     OW24478   2.299   2.732   1.613 -0.4375  0.7558 -0.0321
 7860SOL    HW124479   2.264   2.727   1.707  0.1121  0.3694  0.1617
 7860SOL    HW224480   2.397   2.752   1.616  0.3369 -2.4630 -0.3841
 7861SOL     OW24481   3.412   6.791   1.243  0.4388 -0.3490  0.1469
 7861SOL    HW124482   3.418   6.691   1.246 -0.4758 -0.4881 -1.6574
 7861SOL    HW224483   3.456   6.825   1.160 -0.1330  0.6755  0.2439
 7862SOL     OW24484   1.076   5.503   0.012  0.0311  0.1319  0.5537
 7862SOL    HW124485   1.037   5.593   0.033  0.9478  0.4769  0.7884
 7862SOL    HW224486   1.018   5.432   0.053  0.9534  0.7369  3.0778
 7863SOL     OW24487   0.871   4.888   4.954  0.3951  0.0320  0.2810
 7863SOL    HW124488   0.879   4.951   5.031  1.6462  1.5259 -1.0061
 7863SOL    HW224489   0.956   4.888   4.901 -0.2138 -1.4122 -0.7733
 7864SOL     OW24490   3.424   6.986   3.739  0.0546  0.4189  0.1720
 7864SOL    HW124491   3.361   7.057   3.707 -1.1151 -0.9207 -0.5987
 7864SOL    HW224492   3.483   6.957   3.663 -2.6656 -2.7006 -0.9767
 7865SOL     OW24493   4.686   5.379   4.146 -0.4181  0.0874 -0.1701
 7865SOL    HW124494   4.769   5.327   4.165 -0.0259  1.4132  2.0151
 7865SOL    HW224495   4.708   5.475   4.132 -1.3850  0.1152 -1.7995
 7866SOL     OW24496   2.084   0.054   0.523 -0.0469  0.2378 -0.2074
 7866SOL    HW124497   1.985   0.051   0.535 -0.0340  1.5590  0.5184
 7866SOL    HW224498   2.119  -0.037   0.503 -1.4327 -0.2004 -0.7057
 7867SOL     OW24499   4.560   5.357   0.710  0.2385 -0.2155  0.3666
 7867SOL    HW124500   4.502   5.278   0.732 -0.0375 -0.0110  0.3862
 7867SOL    HW224501   4.589   5.353   0.615  1.0310 -0.8504  0.6244
 7868SOL     OW24502   4.322   0.209   0.742 -0.3663 -0.3666 -0.1820
 7868SOL    HW124503   4.366   0.265   0.672  1.1337 -0.8285  0.3540
 7868SOL    HW224504   4.228   0.241   0.756  0.7297  2.8400  0.9286
 7869SOL     OW24505   6.866   3.426   5.369  0.2975  0.2792 -0.6486
 7869SOL    HW124506   6.937   3.378   5.420 -1.0266  0.2340  1.2554
 7869SOL    HW224507   6.809   3.360   5.320  0.8958  0.2435 -1.3186
 7870SOL     OW24508   6.006   0.691   2.100 -0.2827  0.1429 -0.5678
 7870SOL    HW124509   6.030   0.674   2.004 -1.3637 -0.2256 -0.7939
 7870SOL    HW224510   5.906   0.685   2.111 -0.1641  0.0177  0.6101
 7871SOL     OW24511   3.273   6.354   2.012 -0.1644  0.2129  0.0123
 7871SOL    HW124512   3.177   6.367   1.989 -0.1765  1.6200  0.7118
 7871SOL    HW224513   3.287   6.263   2.051 -1.0112 -0.3740 -1.0083
 7872SOL     OW24514   5.536   6.383   1.663 -0.5119  0.1209 -0.0972
 7872SOL    HW124515   5.447   6.421   1.636 -0.1181 -0.5769 -2.6795
 7872SOL    HW224516   5.545   6.291   1.625  1.5278  0.3872 -0.3751
 7873SOL     OW24517   3.689   3.575   6.238 -0.3598 -0.5602 -0.6507
 7873SOL    HW124518   3.658   3.504   6.174  0.6587  0.5404 -2.4674
 7873SOL    HW224519   3.612   3.608   6.291 -1.2668 -1.4979 -1.3472
 7874SOL     OW24520   6.055   2.893   6.713  0.3027  0.4204 -0.3282
 7874SOL    HW124521   6.059   2.940   6.801  0.7710  0.9737 -0.6370
 7874SOL    HW224522   6.052   2.961   6.639 -0.9962 -0.0181 -0.7178
 7875SOL     OW24523   5.521   5.965   6.420  0.4260  0.0868 -0.0131
 7875SOL    HW124524   5.491   5.896   6.486  1.4803 -0.6783 -0.3008
 7875SOL    HW224525   5.441   6.006   6.377 -0.2554  0.1128  1.2400
 7876SOL     OW24526   0.705   0.997   3.600 -0.0639  0.4928 -0.5375
 7876SOL    HW124527   0.774   0.949   3.654 -0.6578 -0.4682 -0.6204
 7876SOL    HW224528   0.738   1.089   3.578  0.3252  0.8107  1.1954
 7877SOL     OW24529   0.810   3.145   2.287 -0.1371  0.4194 -0.8298
 7877SOL    HW124530   0.780   3.233   2.250 -0.1614  0.0097 -1.8230
 7877SOL    HW224531   0.896   3.118   2.243 -0.5207 -0.4035 -1.1034
 7878SOL     OW24532   2.003   6.969   1.036  0.3921 -0.0450 -0.3814
 7878SOL    HW124533   2.002   7.066   1.059  0.1291 -0.3770  1.1171
 7878SOL    HW224534   2.092   6.929   1.060  0.7538 -0.0501 -1.6469
 7879SOL     OW24535   2.708   5.283   1.606 -0.0489  0.3221  0.1624
 7879SOL    HW124536   2.747   5.193   1.584 -1.5067 -0.3804  0.3862
 7879SOL    HW224537   2.627   5.299   1.550 -0.5661  0.9352  1.0723
 7880SOL     OW24538   1.993   4.129   0.879 -0.0057  0.5071  0.1359
 7880SOL    HW124539   1.983   4.135   0.779 -0.8722  0.1590  0.1887
 7880SOL    HW224540   1.945   4.048   0.912 -1.4269  1.6569  1.0349
 7881SOL     OW24541   4.803   1.685   3.380  0.0098 -0.3350  0.4517
 7881SOL    HW124542   4.766   1.666   3.471  0.3761  1.2913  0.9711
 7881SOL    HW224543   4.743   1.645   3.311 -0.6017 -1.0717  1.3873
 7882SOL     OW24544   0.411   3.140   6.964  0.0780 -0.3803 -0.1142
 7882SOL    HW124545   0.325   3.189   6.979  0.1672 -0.5270  1.0084
 7882SOL    HW224546   0.470   3.194   6.904 -1.6003 -1.2695 -2.7486
 7883SOL     OW24547   0.482   6.814   3.350  0.1386 -0.6503  0.1083
 7883SOL    HW124548   0.511   6.774   3.264  0.1355 -2.4059  0.8631
 7883SOL    HW224549   0.515   6.758   3.426 -0.3153  0.5356  1.2328
 7884SOL     OW24550   0.346   5.061   5.918  0.0976 -0.4430  0.1114
 7884SOL    HW124551   0.342   5.069   5.819  1.6330 -2.9260 -0.2415
 7884SOL    HW224552   0.270   5.111   5.959 -0.2047  1.1785 -2.2414
 7885SOL     OW24553   6.301   6.811   6.815  0.7274 -0.3674  0.0882
 7885SOL    HW124554   6.348   6.726   6.837  0.2857 -0.8966 -0.9383
 7885SOL    HW224555   6.355   6.861   6.747  0.7934  0.0022  0.4065
 7886SOL     OW24556   6.338   4.298   0.692  0.2559 -0.1546 -0.1371
 7886SOL    HW124557   6.270   4.355   0.739 -1.4133 -2.2193  0.1072
 7886SOL    HW224558   6.424   4.349   0.684  0.1826  0.9331  3.7232
 7887SOL     OW24559   3.369   1.702   2.371 -0.5503 -0.1571 -0.1533
 7887SOL    HW124560   3.303   1.716   2.297 -0.3318  0.7584 -0.1903
 7887SOL    HW224561   3.382   1.789   2.420 -0.3417 -0.6446  0.6605
 7888SOL     OW24562   4.735   4.260   4.112  0.5051  0.2832 -0.8322
 7888SOL    HW124563   4.758   4.190   4.043 -1.5873 -1.2658 -0.0596
 7888SOL    HW224564   4.740   4.219   4.203  0.6006  1.5648 -0.2495
 7889SOL     OW24565   0.207   6.826   3.353  0.0741 -0.4372 -0.2478
 7889SOL    HW124566   0.305   6.805   3.342  0.1518 -0.1966 -0.0211
 7889SOL    HW224567   0.195   6.890   3.428 -0.2284 -0.2014 -0.4945
 7890SOL     OW24568   1.144   5.332   2.180 -0.0871  0.2589 -0.3894
 7890SOL    HW124569   1.062   5.276   2.168  0.3002 -0.5701  0.7427
 7890SOL    HW224570   1.138   5.412   2.120 -1.7638  0.2634 -0.2609
 7891SOL     OW24571   0.444   6.145   2.976  0.5921  0.6372  0.3898
 7891SOL    HW124572   0.433   6.151   2.876 -0.5170 -1.6445  0.3033
 7891SOL    HW224573   0.508   6.071   2.997 -0.0465  0.3653  1.3974
 7892SOL     OW24574   2.649   4.785   4.032  0.5084  0.6513 -0.6358
 7892SOL    HW124575   2.632   4.881   4.056 -0.5977  0.5170 -0.7898
 7892SOL    HW224576   2.622   4.727   4.109 -1.4848  0.3207 -1.5071
 7893SOL     OW24577   6.003   5.271   2.242  0.0703  0.1155  0.7993
 7893SOL    HW124578   6.064   5.346   2.267 -0.5276  1.1373 -0.6983
 7893SOL    HW224579   5.917   5.280   2.294  0.1561  0.2167  0.9243
 7894SOL     OW24580   2.920   6.872   1.681 -0.0507  0.7366 -0.1954
 7894SOL    HW124581   2.905   6.873   1.780  0.3775  0.8923 -0.1301
 7894SOL    HW224582   3.003   6.922   1.659  0.9356 -0.9302 -0.4578
 7895SOL     OW24583   2.155   1.782   5.898  0.0330  0.6519  0.1644
 7895SOL    HW124584   2.233   1.721   5.891 -0.1629  0.1949  1.6379
 7895SOL    HW224585   2.105   1.764   5.983 -2.8190 -0.4051 -1.5908
 7896SOL     OW24586   4.147   2.958   1.024 -0.1653 -0.0458 -0.5180
 7896SOL    HW124587   4.143   2.914   1.113 -0.5338  0.7364 -0.1363
 7896SOL    HW224588   4.054   2.974   0.990 -0.0410 -1.7188 -1.7565
 7897SOL     OW24589   4.019   3.797   2.577 -0.5178 -0.4588 -0.0231
 7897SOL    HW124590   4.062   3.807   2.487 -1.5312 -1.2046 -0.6007
 7897SOL    HW224591   4.091   3.782   2.646  0.2431 -0.2503 -0.7525
 7898SOL     OW24592   0.105   0.427   6.336 -0.1597  0.1139 -0.8686
 7898SOL    HW124593   0.128   0.519   6.369  0.0391  0.7069 -2.5158
 7898SOL    HW224594   0.080   0.433   6.239 -0.8243 -1.4898 -0.8186
 7899SOL     OW24595   2.987   1.009   2.226  0.6718  0.1563  0.1278
 7899SOL    HW124596   2.953   0.966   2.309  0.0318 -0.6421 -0.5283
 7899SOL    HW224597   2.980   0.944   2.150 -1.1115  1.6612 -1.0744
 7900SOL     OW24598   2.931   5.266   0.134  0.0331  0.4292 -0.0434
 7900SOL    HW124599   2.989   5.187   0.154  0.0670  0.6588  0.7836
 7900SOL    HW224600   2.873   5.285   0.213 -0.3814  0.8852 -0.4543
 7901SOL     OW24601   5.175   4.241   2.768 -0.1742  0.1354  0.1481
 7901SOL    HW124602   5.227   4.318   2.732  1.7481 -1.0819  0.1672
 7901SOL    HW224603   5.147   4.181   2.693  1.2509 -0.8466  0.3562
 7902SOL     OW24604   5.222   6.514   5.847 -0.3784  0.7267 -0.1214
 7902SOL    HW124605   5.224   6.583   5.774  0.1591  1.2570  0.3854
 7902SOL    HW224606   5.309   6.515   5.896 -0.7425  0.3839  0.5412
 7903SOL     OW24607   0.767   6.913   2.583  0.0488  0.3169  0.1475
 7903SOL    HW124608   0.686   6.953   2.626  0.2297  1.6370 -0.6743
 7903SOL    HW224609   0.763   6.928   2.484  1.7826  1.3576  0.1889
 7904SOL     OW24610   6.927   2.276   5.648 -0.1944  0.0590  0.2322
 7904SOL    HW124611   6.902   2.363   5.605  1.0384  0.6914  0.7336
 7904SOL    HW224612   6.873   2.202   5.609 -0.9132  0.9815 -0.5602
 7905SOL     OW24613   2.447   1.935   1.046 -0.3500 -0.0691  0.5711
 7905SOL    HW124614   2.418   1.997   0.973  3.9310 -0.0604 -1.4204
 7905SOL    HW224615   2.400   1.847   1.035 -2.1241  0.9088 -0.1737
 7906SOL     OW24616   2.707   5.710   6.445  0.2346 -0.4154 -0.2590
 7906SOL    HW124617   2.751   5.712   6.356  0.8457 -0.9207  0.0226
 7906SOL    HW224618   2.614   5.673   6.436  0.2625 -0.3746 -0.6928
 7907SOL     OW24619   1.955   1.089   2.548  0.3775 -0.1074  0.2133
 7907SOL    HW124620   1.891   1.144   2.496  0.9666  1.8952  1.5035
 7907SOL    HW224621   1.981   1.137   2.632  0.0430 -2.8579  2.0435
 7908SOL     OW24622   0.104   1.160   3.998  0.0304 -0.3438  0.1003
 7908SOL    HW124623   0.039   1.233   4.019 -0.4389 -1.2972  2.2394
 7908SOL    HW224624   0.188   1.199   3.961  0.1132  1.3892  1.9634
 7909SOL     OW24625   1.579   5.726   3.470 -0.1372  0.2334  0.2785
 7909SOL    HW124626   1.616   5.635   3.493  1.8317  1.4166  2.2668
 7909SOL    HW224627   1.605   5.750   3.377  1.1234 -0.4494  0.4297
 7910SOL     OW24628   6.773   2.762   6.065 -0.3079  0.2952  0.1452
 7910SOL    HW124629   6.873   2.755   6.066 -0.3425 -0.2510  1.3792
 7910SOL    HW224630   6.740   2.745   5.973  0.5499 -2.8455  0.3169
 7911SOL     OW24631   5.259   5.662   0.519 -0.1931 -0.0212 -0.4155
 7911SOL    HW124632   5.182   5.726   0.515  0.7548  1.1175 -1.4959
 7911SOL    HW224633   5.273   5.621   0.428 -0.6417 -1.6239  0.2091
 7912SOL     OW24634   6.227   4.172   4.763 -0.2629  0.0132  0.3454
 7912SOL    HW124635   6.171   4.252   4.785  0.0515  0.1161  0.7865
 7912SOL    HW224636   6.248   4.172   4.665 -0.3721  0.4029  0.3193
 7913SOL     OW24637   1.228   4.849   6.364 -0.4479 -0.4545 -0.0435
 7913SOL    HW124638   1.167   4.928   6.371  0.2405  0.1938 -0.9790
 7913SOL    HW224639   1.298   4.855   6.435 -0.4080 -0.2081 -0.0997
 7914SOL     OW24640   6.660   3.291   2.122  0.0841  0.7527  0.0293
 7914SOL    HW124641   6.627   3.280   2.028 -1.7720 -1.0042  0.8016
 7914SOL    HW224642   6.751   3.251   2.131  0.5661  1.5319 -1.1285
 7915SOL     OW24643   4.237   1.786   3.591  0.3098 -0.8027  0.4147
 7915SOL    HW124644   4.139   1.782   3.569  0.4804 -0.9905 -0.3165
 7915SOL    HW224645   4.248   1.829   3.681 -0.3538  0.9113 -0.2679
 7916SOL     OW24646   3.179   3.421   3.189  0.0161 -0.1845 -0.1206
 7916SOL    HW124647   3.206   3.390   3.280  0.3429  0.0858 -0.1210
 7916SOL    HW224648   3.203   3.351   3.121 -2.8319 -1.6778  0.2892
 7917SOL     OW24649   3.128   3.237   4.808 -0.4242 -0.5401 -0.0743
 7917SOL    HW124650   3.039   3.267   4.841 -1.7197 -3.6244 -0.4149
 7917SOL    HW224651   3.150   3.284   4.722 -2.9983 -1.4716 -1.3611
 7918SOL     OW24652   4.063   1.685   1.629 -0.2271 -0.6630  0.0542
 7918SOL    HW124653   3.987   1.624   1.650 -1.2073  0.4058 -0.3140
 7918SOL    HW224654   4.118   1.646   1.555 -1.2432 -0.7751 -0.6539
 7919SOL     OW24655   0.056   2.674   1.695  0.2966  0.0916  0.4445
 7919SOL    HW124656  -0.017   2.654   1.761  0.1304  0.8882  0.5100
 7919SOL    HW224657   0.019   2.667   1.602  0.4031 -0.5305  0.4455
 7920SOL     OW24658   0.616   6.347   6.679  0.1891  0.1615  0.3458
 7920SOL    HW124659   0.641   6.252   6.661 -0.5890  0.1881 -1.0327
 7920SOL    HW224660   0.543   6.350   6.746 -1.0942 -0.3629 -0.9767
 7921SOL     OW24661   1.907   5.029   3.702  0.6420 -0.3515 -0.3398
 7921SOL    HW124662   1.865   5.065   3.619  1.7927  1.3299 -0.2531
 7921SOL    HW224663   1.965   4.951   3.680  0.6849 -0.1203 -1.0721
 7922SOL     OW24664   1.680   1.687   3.859  0.2092 -0.0131 -0.7601
 7922SOL    HW124665   1.635   1.746   3.792  1.8350  1.2391 -0.8269
 7922SOL    HW224666   1.776   1.676   3.834  0.4912 -0.7610  0.5529
 7923SOL     OW24667   0.963   3.257   0.402  0.1336  0.1125  0.8256
 7923SOL    HW124668   0.924   3.208   0.324 -0.4889  3.5905 -1.2765
 7923SOL    HW224669   0.894   3.267   0.473 -0.3879 -0.2383  0.3761
 7924SOL     OW24670   2.605   1.663   3.055 -0.0612 -0.0928  0.2235
 7924SOL    HW124671   2.621   1.605   2.975  0.0813 -1.4268  1.1672
 7924SOL    HW224672   2.691   1.679   3.103 -0.4274 -1.1138  1.2671
 7925SOL     OW24673   2.242   2.294   6.344  0.1574 -0.2863 -0.1608
 7925SOL    HW124674   2.278   2.377   6.302  0.8392 -0.1435  0.6777
 7925SOL    HW224675   2.169   2.318   6.408  0.5760 -0.2889  0.3268
 7926SOL     OW24676   4.368   6.096   0.714 -0.0912  0.5749 -0.0200
 7926SOL    HW124677   4.363   6.121   0.811  4.1968 -0.2928  0.6311
 7926SOL    HW224678   4.409   6.170   0.662  0.0182  0.0489 -0.7025
 7927SOL     OW24679   5.799   5.623   4.926 -0.2611 -0.1746 -0.0405
 7927SOL    HW124680   5.814   5.524   4.923  0.3882 -0.0882  0.1361
 7927SOL    HW224681   5.709   5.642   4.964  0.5149 -0.6484  2.1751
 7928SOL     OW24682   0.488   4.663   1.203 -0.7078  0.1015 -0.0444
 7928SOL    HW124683   0.530   4.608   1.131 -0.3776 -1.7384  1.4908
 7928SOL    HW224684   0.439   4.740   1.161  0.4925 -0.1886 -2.1312
 7929SOL     OW24685   3.065   3.190   5.316 -0.3079  0.6070  0.1967
 7929SOL    HW124686   3.023   3.268   5.270 -0.0423  0.7094  0.1326
 7929SOL    HW224687   3.086   3.214   5.410  0.3612  0.8196 -0.0025
 7930SOL     OW24688   3.370   4.943   2.335 -0.1490 -0.4140  0.5577
 7930SOL    HW124689   3.291   4.883   2.350  0.6990 -2.0049 -1.0678
 7930SOL    HW224690   3.453   4.898   2.367  0.2815  0.7565  1.1635
 7931SOL     OW24691   2.703   2.945   5.898  0.0431  0.0563  0.0270
 7931SOL    HW124692   2.654   2.860   5.914 -1.8557  1.0172 -0.3231
 7931SOL    HW224693   2.665   3.017   5.955 -1.5886  1.7070 -2.8672
 7932SOL     OW24694   1.100   2.019   1.239  0.5526 -0.3869  0.4402
 7932SOL    HW124695   1.029   2.074   1.195 -0.4244 -1.3111  0.8147
 7932SOL    HW224696   1.181   2.075   1.253  0.0584  0.5759 -0.3973
 7933SOL     OW24697   1.565   5.897   5.001 -0.5016 -0.4686 -0.0969
 7933SOL    HW124698   1.506   5.916   4.922 -1.7604 -1.7923  0.4895
 7933SOL    HW224699   1.538   5.956   5.077 -1.5331 -1.4962  0.3656
 7934SOL     OW24700   4.460   1.679   6.578  0.2925  0.5886  0.5437
 7934SOL    HW124701   4.518   1.615   6.627  0.0394 -0.6827 -0.7420
 7934SOL    HW224702   4.452   1.651   6.482 -1.6158  1.2801  0.4398
 7935SOL     OW24703   4.699   5.817   2.344  0.0738  0.2671 -0.3515
 7935SOL    HW124704   4.671   5.780   2.433  1.0674  1.2914  0.4269
 7935SOL    HW224705   4.733   5.743   2.286 -1.3202 -0.5346 -0.1985
 7936SOL     OW24706   5.237   6.281   1.720  0.3361 -0.1827  0.4689
 7936SOL    HW124707   5.232   6.182   1.703  2.0415 -0.1216 -0.5715
 7936SOL    HW224708   5.302   6.299   1.794  2.4704  0.2857 -1.4063
 7937SOL     OW24709   5.778   2.966   0.181  0.3364  0.1590  0.2730
 7937SOL    HW124710   5.761   2.893   0.248 -0.5076 -0.5057 -0.6404
 7937SOL    HW224711   5.813   2.926   0.096  0.8768  0.9427  0.1124
 7938SOL     OW24712   6.519   5.434   3.642  0.2944  0.1245  0.2739
 7938SOL    HW124713   6.595   5.369   3.640 -0.5293 -0.9155 -2.9586
 7938SOL    HW224714   6.546   5.520   3.598 -0.2515 -0.1322 -0.5988
 7939SOL     OW24715   6.718   3.949   3.449  0.3955  0.1350  0.6580
 7939SOL    HW124716   6.698   3.983   3.541 -0.1579 -0.3851  0.7374
 7939SOL    HW224717   6.633   3.929   3.402  0.6911 -0.0822  0.2132
 7940SOL     OW24718   2.499   3.504   6.188  0.3535 -0.2608  0.0429
 7940SOL    HW124719   2.514   3.577   6.255  0.6490 -2.3471  2.3634
 7940SOL    HW224720   2.426   3.532   6.125 -0.4365  1.5302  1.6308
 7941SOL     OW24721   0.855   6.665   6.927  0.0420  0.3400 -0.3393
 7941SOL    HW124722   0.857   6.719   7.011 -0.0902 -0.2075  0.0172
 7941SOL    HW224723   0.764   6.671   6.886  0.5243  1.8609 -1.2794
 7942SOL     OW24724   6.806   0.279   2.976 -0.1443 -0.1606 -0.4100
 7942SOL    HW124725   6.763   0.190   2.994 -0.9796  0.4795  0.8810
 7942SOL    HW224726   6.829   0.323   3.063  2.8289 -0.2931 -1.0204
 7943SOL     OW24727   6.949   2.925   5.618 -0.1362  0.1754 -0.2526
 7943SOL    HW124728   7.008   2.989   5.665 -0.7770  0.3591  0.3131
 7943SOL    HW224729   6.879   2.975   5.567 -1.8595 -0.0436  1.7583
 7944SOL     OW24730   0.376   1.267   0.720  0.0984  0.1991 -0.1462
 7944SOL    HW124731   0.288   1.233   0.753  1.0975 -2.6497 -0.1289
 7944SOL    HW224732   0.410   1.206   0.649  1.3582  2.1498 -1.2941
 7945SOL     OW24733   6.530   6.996   6.169 -0.4263  0.5570  0.0243
 7945SOL    HW124734   6.532   7.062   6.094  0.0333  1.8605  1.1271
 7945SOL    HW224735   6.587   6.917   6.147  0.3952  1.3190 -0.6500
 7946SOL     OW24736   3.526   1.575   6.461  0.4866  0.4338 -0.3209
 7946SOL    HW124737   3.589   1.520   6.516  0.4200  0.3039 -0.3745
 7946SOL    HW224738   3.434   1.570   6.500  0.5595  0.8343 -0.0903
 7947SOL     OW24739   3.403   0.111   6.238 -0.0416  0.0192 -0.3478
 7947SOL    HW124740   3.494   0.151   6.243 -0.6230  1.3397  0.1157
 7947SOL    HW224741   3.368   0.121   6.145 -0.2776  0.8436 -0.1801
 7948SOL     OW24742   1.230   3.472   4.170  0.0245  0.0520  0.0725
 7948SOL    HW124743   1.298   3.427   4.111 -0.4077 -1.5502  0.7560
 7948SOL    HW224744   1.274   3.503   4.254  0.0960 -0.1093  0.0944
 7949SOL     OW24745   6.814   3.647   4.428  0.1139 -0.6846 -0.0623
 7949SOL    HW124746   6.825   3.557   4.470 -0.8648 -0.0169  1.7430
 7949SOL    HW224747   6.750   3.641   4.352 -1.0794 -1.2783  0.9562
 7950SOL     OW24748   2.780   6.755   3.423  0.0670 -0.3844  0.3490
 7950SOL    HW124749   2.780   6.678   3.359 -2.0193 -0.2692  0.1283
 7950SOL    HW224750   2.846   6.824   3.392 -0.6633 -0.4744 -1.5448
 7951SOL     OW24751   1.752   3.168   0.965 -0.3696 -0.4535  1.0030
 7951SOL    HW124752   1.826   3.179   0.899 -1.4019 -0.6509 -0.2020
 7951SOL    HW224753   1.790   3.174   1.058  0.7974  1.7421  0.4341
 7952SOL     OW24754   4.560   4.729   0.767 -0.1997 -0.6224 -0.5915
 7952SOL    HW124755   4.525   4.754   0.676  1.5424  0.1703 -1.0860
 7952SOL    HW224756   4.604   4.639   0.762  1.2628  0.0788 -0.9508
 7953SOL     OW24757   1.834   4.278   6.959 -0.0630  0.2242 -0.3039
 7953SOL    HW124758   1.743   4.236   6.948 -0.0802  0.4810 -1.2352
 7953SOL    HW224759   1.888   4.224   7.024 -0.8442  0.0129  0.1822
 7954SOL     OW24760   5.647   4.729   3.470  0.0923 -0.4368 -0.2784
 7954SOL    HW124761   5.679   4.732   3.376  1.2741 -1.2397  0.0651
 7954SOL    HW224762   5.565   4.672   3.477  0.0975 -0.5048 -0.7943
 7955SOL     OW24763   6.768   6.911   6.574 -0.2108  0.5028 -0.3921
 7955SOL    HW124764   6.735   6.864   6.493  0.9136  2.1354 -1.8909
 7955SOL    HW224765   6.865   6.934   6.562  0.2536 -0.0454  1.8398
 7956SOL     OW24766   4.879   4.794   3.060  0.2836 -0.1978 -0.9234
 7956SOL    HW124767   4.927   4.749   3.136 -1.8569  0.8621  1.1663
 7956SOL    HW224768   4.946   4.840   3.001  1.9269  0.8590  1.5970
 7957SOL     OW24769   5.702   1.892   2.257  0.2580  0.1870 -0.1321
 7957SOL    HW124770   5.673   1.940   2.174 -1.0079 -1.3737 -0.6242
 7957SOL    HW224771   5.779   1.832   2.236  0.5530  0.4927  0.0523
 7958SOL     OW24772   2.317   4.315   2.732 -0.1117  0.2442 -0.2839
 7958SOL    HW124773   2.302   4.225   2.772  3.9796 -0.0850  0.9407
 7958SOL    HW224774   2.318   4.308   2.632  1.3204 -1.3512 -0.1857
 7959SOL     OW24775   3.641   4.760   0.786 -0.5558 -0.1538 -0.3224
 7959SOL    HW124776   3.648   4.859   0.786 -0.5393 -0.0532  3.0625
 7959SOL    HW224777   3.696   4.723   0.711  0.5821  2.3134 -0.8063
 7960SOL     OW24778   0.995   2.965   6.705  0.3971  0.4820 -0.3008
 7960SOL    HW124779   0.971   2.992   6.612 -1.1421  1.0661  0.2384
 7960SOL    HW224780   0.954   2.876   6.726 -0.3954  0.9652  0.2483
 7961SOL     OW24781   2.182   0.516   1.161 -0.6471  0.1987  0.1961
 7961SOL    HW124782   2.273   0.486   1.133 -1.2136 -2.7074  1.1131
 7961SOL    HW224783   2.121   0.516   1.081 -0.5203 -0.8581  0.0735
 7962SOL     OW24784   2.234   0.832   2.116 -0.1708  0.3007 -0.5383
 7962SOL    HW124785   2.230   0.764   2.190  0.3245 -1.0708 -1.7151
 7962SOL    HW224786   2.298   0.800   2.046 -0.8738  1.4073 -1.7174
 7963SOL     OW24787   6.866   0.436   6.961 -0.2550 -0.2395  0.2443
 7963SOL    HW124788   6.926   0.377   7.015  2.2844  1.8336 -0.0953
 7963SOL    HW224789   6.779   0.448   7.008  0.4565 -1.4952  1.9813
 7964SOL     OW24790   6.538   3.595   3.296 -0.5721 -0.1603  0.6359
 7964SOL    HW124791   6.553   3.497   3.303 -0.6434 -0.0616  2.7842
 7964SOL    HW224792   6.447   3.618   3.332 -0.7507  0.6605 -0.2847
 7965SOL     OW24793   2.767   1.557   0.274 -0.5887  0.4162  0.1114
 7965SOL    HW124794   2.861   1.545   0.244 -0.3457  0.6150  0.7634
 7965SOL    HW224795   2.710   1.485   0.236 -0.9443  2.3252 -3.3216
 7966SOL     OW24796   0.321   3.329   5.106 -0.6981  0.0511  0.0539
 7966SOL    HW124797   0.237   3.383   5.110 -0.5670  0.3260 -0.8571
 7966SOL    HW224798   0.351   3.320   5.011  0.3105 -0.0432  0.3735
 7967SOL     OW24799   1.413   1.845   4.806  0.2998  0.5857  0.3374
 7967SOL    HW124800   1.358   1.902   4.868  1.5380  1.3923  0.7423
 7967SOL    HW224801   1.496   1.895   4.781  0.0639  0.0576 -1.5880
 7968SOL     OW24802   2.135   0.172   1.460 -0.3229 -0.3732 -0.3100
 7968SOL    HW124803   2.099   0.168   1.553  0.4102 -1.3100 -0.0543
 7968SOL    HW224804   2.089   0.104   1.403  0.5329 -1.0966 -0.1544
 7969SOL     OW24805   5.093   1.678   4.312  0.6647  0.4791  0.0129
 7969SOL    HW124806   5.182   1.723   4.322  0.7930  0.4115 -0.7156
 7969SOL    HW224807   5.052   1.664   4.402  0.8646  1.5583  0.2915
 7970SOL     OW24808   1.007   4.148   4.702  0.1625 -0.0427 -0.2359
 7970SOL    HW124809   0.986   4.065   4.652  1.8923 -0.8128  0.2697
 7970SOL    HW224810   0.964   4.144   4.793  2.5452 -1.7730  0.9320
 7971SOL     OW24811   2.764   0.885   3.001  0.5844 -0.3111  0.4504
 7971SOL    HW124812   2.809   0.848   2.919  2.0211  0.2914  0.9254
 7971SOL    HW224813   2.669   0.908   2.980  1.3363  1.3108 -1.5144
 7972SOL     OW24814   4.604   4.860   1.628 -0.3796 -0.9213 -0.0506
 7972SOL    HW124815   4.662   4.937   1.602 -1.3797 -0.3385 -0.6287
 7972SOL    HW224816   4.599   4.795   1.553  0.1186 -1.3563  0.2805
 7973SOL     OW24817   5.327   3.123   1.547  0.2215 -0.3538  0.0064
 7973SOL    HW124818   5.406   3.178   1.518 -0.3702  0.0484 -0.8938
 7973SOL    HW224819   5.243   3.168   1.518 -0.3123 -1.3161  0.0165
 7974SOL     OW24820   0.786   5.387   3.175 -0.3098 -0.6885 -0.0571
 7974SOL    HW124821   0.827   5.336   3.100  0.0823 -2.8984  1.5655
 7974SOL    HW224822   0.854   5.401   3.247 -0.7567  1.1042  0.0788
 7975SOL     OW24823   1.761   1.115   3.014  0.4876 -0.0881 -0.7134
 7975SOL    HW124824   1.719   1.027   2.992 -0.7395  0.5825 -1.1662
 7975SOL    HW224825   1.861   1.106   3.015  0.3576 -1.6360  0.0018
 7976SOL     OW24826   1.212   1.205   0.162 -0.3666 -0.2414  0.0300
 7976SOL    HW124827   1.205   1.178   0.066 -1.4817 -3.5658  0.8962
 7976SOL    HW224828   1.144   1.276   0.182  0.6569  1.3582 -1.7854
 7977SOL     OW24829   4.140   5.550   0.704 -0.7431 -0.7308 -0.1648
 7977SOL    HW124830   4.187   5.583   0.786  0.5539 -1.5223 -0.5523
 7977SOL    HW224831   4.172   5.602   0.625  0.5548 -2.1557 -0.6265
 7978SOL     OW24832   3.938   1.136   4.635 -0.3782 -0.4101 -0.0464
 7978SOL    HW124833   3.840   1.121   4.620 -0.7959 -0.4537  2.3577
 7978SOL    HW224834   3.951   1.200   4.710  1.4574 -0.3238 -0.3971
 7979SOL     OW24835   5.469   5.385   4.560  0.8414 -0.3911 -0.7708
 7979SOL    HW124836   5.464   5.458   4.628  1.1652 -0.6101 -0.5056
 7979SOL    HW224837   5.523   5.309   4.598  1.2700 -0.3978 -1.3777
 7980SOL     OW24838   2.755   1.168   2.186  0.1367 -0.1011 -0.4000
 7980SOL    HW124839   2.798   1.253   2.216  0.9882 -1.2225  1.7534
 7980SOL    HW224840   2.823   1.094   2.188 -1.1580 -1.3190  0.1678
 7981SOL     OW24841   0.053   5.183   2.300 -0.2910 -0.0111  0.1133
 7981SOL    HW124842  -0.039   5.184   2.261 -0.6430  0.3382  0.9284
 7981SOL    HW224843   0.078   5.090   2.326 -0.7928  0.0296  0.7561
 7982SOL     OW24844   0.340   2.965   0.830 -1.0691 -0.2063 -0.1070
 7982SOL    HW124845   0.438   2.947   0.824 -0.4922  2.5706 -0.5077
 7982SOL    HW224846   0.294   2.927   0.750  0.0417  0.2696 -1.0083
 7983SOL     OW24847   5.393   2.350   6.953  0.0275  0.4715  0.0589
 7983SOL    HW124848   5.483   2.324   6.988  0.0385  0.8115  0.2824
 7983SOL    HW224849   5.404   2.405   6.871 -0.0008 -0.4282 -0.5580
 7984SOL     OW24850   4.946   1.840   1.719 -0.8049 -0.0621  0.7593
 7984SOL    HW124851   4.938   1.939   1.720 -1.1295 -0.0664 -0.5508
 7984SOL    HW224852   4.888   1.801   1.791 -1.1468  0.6535  0.8727
 7985SOL     OW24853   1.407   0.637   0.776  0.6061  0.1205  0.0292
 7985SOL    HW124854   1.413   0.725   0.728  0.1260 -0.9204 -2.0719
 7985SOL    HW224855   1.314   0.624   0.810  0.1491 -0.3746 -1.3554
 7986SOL     OW24856   4.984   5.504   0.716 -0.2681 -0.7094 -0.3694
 7986SOL    HW124857   4.995   5.413   0.676 -0.8207 -0.9490  0.0032
 7986SOL    HW224858   4.897   5.508   0.765  0.7140 -0.7026  1.4749
 7987SOL     OW24859   2.740   3.081   6.867  0.1112 -0.3023 -0.4677
 7987SOL    HW124860   2.775   3.055   6.957  1.5425  0.1154 -0.8869
 7987SOL    HW224861   2.718   2.999   6.815  1.6554 -0.6301 -0.6405
 7988SOL     OW24862   1.976   6.849   4.789  0.2103 -0.5745 -0.1125
 7988SOL    HW124863   2.016   6.759   4.805  1.2692 -0.3406 -1.2730
 7988SOL    HW224864   2.037   6.920   4.823 -0.8774 -0.2761  1.3127
 7989SOL     OW24865   1.711   2.880   0.520 -0.0330 -0.2396  0.6314
 7989SOL    HW124866   1.648   2.942   0.566 -1.4673 -1.0879 -0.0939
 7989SOL    HW224867   1.692   2.880   0.422 -0.4255 -2.1169  0.6483
 7990SOL     OW24868   0.961   4.903   4.372 -0.6382 -0.8268 -0.3819
 7990SOL    HW124869   1.059   4.887   4.361  0.3925  1.4157  3.5543
 7990SOL    HW224870   0.934   4.880   4.465 -3.3216  0.7641 -0.6726
 7991SOL     OW24871   1.111   1.191   5.174 -0.0826 -0.2296 -0.3706
 7991SOL    HW124872   1.061   1.233   5.099  0.0253  1.4334  0.4345
 7991SOL    HW224873   1.200   1.236   5.184  0.4808 -1.3668 -0.1163
 7992SOL     OW24874   2.355   1.706   1.417  0.0525 -0.3845  0.2558
 7992SOL    HW124875   2.407   1.630   1.380 -0.8007 -0.9137  0.1026
 7992SOL    HW224876   2.387   1.726   1.510  1.5443  0.3201 -0.3936
 7993SOL     OW24877   2.939   5.281   4.966  0.1798 -0.6102 -0.3068
 7993SOL    HW124878   2.954   5.192   4.924 -0.5115 -0.2524 -1.3830
 7993SOL    HW224879   2.971   5.353   4.904  0.5891 -0.1046  0.4749
 7994SOL     OW24880   5.551   0.932   4.548 -0.7533  0.0749 -0.2997
 7994SOL    HW124881   5.631   0.961   4.600  0.2198 -1.0581 -1.1137
 7994SOL    HW224882   5.540   0.833   4.555 -2.2940  0.2447  0.0589
 7995SOL     OW24883   5.068   1.047   0.810  0.0231 -0.0665  0.4149
 7995SOL    HW124884   5.002   1.051   0.735  2.3934 -0.7419 -1.8473
 7995SOL    HW224885   5.057   0.961   0.860  0.5526 -1.1504 -1.2884
 7996SOL     OW24886   5.008   2.269   0.175 -0.9499  0.4657  0.2889
 7996SOL    HW124887   4.940   2.332   0.211 -1.2434 -1.2903  3.2106
 7996SOL    HW224888   5.097   2.288   0.217 -1.2952 -1.6373  2.2242
 7997SOL     OW24889   4.652   3.974   1.139  0.1858  0.9162  0.4401
 7997SOL    HW124890   4.703   4.013   1.216  1.3410  0.2077  0.0552
 7997SOL    HW224891   4.697   3.890   1.108 -0.6093  0.8661 -0.6329
 7998SOL     OW24892   5.862   6.286   0.115  0.5548  0.3893  0.0871
 7998SOL    HW124893   5.849   6.360   0.050  0.5854  1.1349  0.9097
 7998SOL    HW224894   5.888   6.202   0.066 -1.3553  0.3956 -1.0380
 7999SOL     OW24895   3.189   1.751   5.976 -0.0519 -0.0284  0.3940
 7999SOL    HW124896   3.198   1.848   5.955  0.0028  0.4478  2.3972
 7999SOL    HW224897   3.234   1.732   6.064  0.7563 -2.0545 -0.3966
 8000SOL     OW24898   6.742   0.727   0.363  0.7820 -0.0575 -0.5002
 8000SOL    HW124899   6.827   0.779   0.367  0.6747  0.1914 -1.3665
 8000SOL    HW224900   6.665   0.789   0.371  0.5839  0.2640 -3.6301
 8001SOL     OW24901   2.106   5.616   1.218  0.3617 -0.1030 -0.1363
 8001SOL    HW124902   2.105   5.665   1.305  1.5075 -0.7787  0.2797
 8001SOL    HW224903   2.197   5.621   1.177  0.2905 -1.2150 -0.4644
 8002SOL     OW24904   5.282   2.737   6.919  0.1676  0.2438  0.4200
 8002SOL    HW124905   5.292   2.833   6.945 -1.2994  1.5743 -3.2354
 8002SOL    HW224906   5.225   2.689   6.985 -1.2345  2.5942  0.9962
 8003SOL     OW24907   5.248   4.280   4.738  0.2491  0.3875 -0.0202
 8003SOL    HW124908   5.328   4.242   4.785 -0.7036  0.2404  1.5633
 8003SOL    HW224909   5.173   4.214   4.740 -0.9165  1.6706  1.3535
 8004SOL     OW24910   0.715   5.456   4.043 -0.4193 -0.3431  0.1222
 8004SOL    HW124911   0.779   5.488   3.973  0.1543 -0.4950  0.5704
 8004SOL    HW224912   0.742   5.365   4.075  0.3570  0.4124  1.7634
 8005SOL     OW24913   3.052   0.008   5.300 -0.0478 -0.2276 -0.3635
 8005SOL    HW124914   3.052   0.086   5.238  0.9070  1.1484  1.3081
 8005SOL    HW224915   3.092   0.034   5.388 -2.4351 -1.7526  1.2998
 8006SOL     OW24916   5.561   4.345   2.052  0.2265 -0.3135 -0.0827
 8006SOL    HW124917   5.642   4.287   2.048 -0.2695 -1.0699  0.4289
 8006SOL    HW224918   5.529   4.364   1.959 -0.5987 -2.3432 -0.2670
 8007SOL     OW24919   0.151   0.011   1.538  0.1758  0.3494 -0.4310
 8007SOL    HW124920   0.101   0.070   1.474  2.6425  1.6966 -1.2484
 8007SOL    HW224921   0.188   0.067   1.612  0.0767 -0.7059  0.4444
 8008SOL     OW24922   6.323   5.205   6.904  0.2276  0.0477  0.4176
 8008SOL    HW124923   6.391   5.208   6.831 -0.8102 -0.0014 -0.5774
 8008SOL    HW224924   6.358   5.149   6.979  0.7223 -1.1791 -0.6854
 8009SOL     OW24925   6.271   6.579   3.858 -0.6737 -0.1012  0.4284
 8009SOL    HW124926   6.367   6.555   3.842 -0.1530  2.0603 -0.0412
 8009SOL    HW224927   6.242   6.546   3.947  0.7709 -0.0908  0.9228
 8010SOL     OW24928   3.106   2.225   4.423  0.7050  0.2720 -0.2226
 8010SOL    HW124929   3.029   2.274   4.381  0.8480 -0.7223 -1.7294
 8010SOL    HW224930   3.087   2.211   4.520  0.9707  3.8483  0.4870
 8011SOL     OW24931   2.530   3.935   6.894  0.4922  0.3814 -0.8947
 8011SOL    HW124932   2.588   3.860   6.860 -0.4609 -0.7432 -0.1139
 8011SOL    HW224933   2.579   3.986   6.964  0.5083 -0.6475 -0.1376
 8012SOL     OW24934   1.804   6.874   5.369  0.0857 -0.0459 -0.3678
 8012SOL    HW124935   1.705   6.868   5.361 -0.0498  1.1369  0.2904
 8012SOL    HW224936   1.829   6.945   5.435  1.3425 -1.3406  0.6258
 8013SOL     OW24937   0.824   0.064   1.664  0.3143 -0.5290 -0.4014
 8013SOL    HW124938   0.801   0.113   1.748 -0.8584  1.6348 -1.8764
 8013SOL    HW224939   0.795  -0.031   1.672  0.1626 -0.3495  1.6032
 8014SOL     OW24940   1.168   1.068   0.631  0.2254  0.1416 -0.2011
 8014SOL    HW124941   1.179   1.067   0.531 -0.5418 -0.7144 -0.2886
 8014SOL    HW224942   1.090   1.011   0.656  0.8659 -0.2489  0.9550
 8015SOL     OW24943   1.027   2.814   1.287 -0.0416 -0.1672 -0.1255
 8015SOL    HW124944   1.119   2.852   1.277 -0.0041 -0.2527 -0.1084
 8015SOL    HW224945   1.033   2.714   1.296 -0.0047 -0.0383  1.6565
 8016SOL     OW24946   3.252   5.184   1.212 -0.2299  0.3893  0.2927
 8016SOL    HW124947   3.198   5.190   1.296 -0.1551  0.6735  0.3246
 8016SOL    HW224948   3.318   5.109   1.220  0.9586  1.4684  1.2063
 8017SOL     OW24949   0.036   3.393   3.901 -0.1563 -0.1480 -0.1558
 8017SOL    HW124950   0.125   3.348   3.899 -0.1077 -0.1100  0.9125
 8017SOL    HW224951  -0.027   3.339   3.957 -0.4568  0.4634  0.0931
 8018SOL     OW24952   5.053   2.302   3.325 -0.3331  0.0076 -0.4110
 8018SOL    HW124953   5.038   2.253   3.239 -2.7474 -0.5462  0.2551
 8018SOL    HW224954   5.104   2.244   3.388 -1.5304 -0.9644 -0.3002
 8019SOL     OW24955   3.470   0.171   1.481 -0.6408  0.3187 -0.7634
 8019SOL    HW124956   3.522   0.086   1.470  0.2345  0.9658 -1.7955
 8019SOL    HW224957   3.466   0.195   1.578 -1.2375 -1.0962 -0.4216
 8020SOL     OW24958   6.378   0.141   0.420 -0.0223  0.0954  0.6874
 8020SOL    HW124959   6.323   0.220   0.448  2.9286  2.1769  1.1181
 8020SOL    HW224960   6.433   0.165   0.340  0.2171 -1.9087  0.2047
 8021SOL     OW24961   0.775   2.651   2.596  0.1510 -0.0455  0.0862
 8021SOL    HW124962   0.849   2.693   2.649 -2.2137  2.6560  1.5626
 8021SOL    HW224963   0.741   2.717   2.529  0.6341 -2.1168 -2.3167
 8022SOL     OW24964   6.761   4.393   3.923  0.7780  0.2713 -0.6530
 8022SOL    HW124965   6.850   4.365   3.957  0.4038  0.8427  0.9128
 8022SOL    HW224966   6.691   4.330   3.957  0.3555  1.0160 -0.1142
 8023SOL     OW24967   5.755   5.712   0.282 -0.1256  0.6569 -0.1476
 8023SOL    HW124968   5.737   5.724   0.380 -0.2564 -1.2606  0.1084
 8023SOL    HW224969   5.853   5.711   0.266 -0.0613 -0.5530  0.2194
 8024SOL     OW24970   3.786   6.788   5.158 -0.6687 -0.5742  0.5835
 8024SOL    HW124971   3.792   6.808   5.256 -1.6452 -4.0445  1.4650
 8024SOL    HW224972   3.865   6.734   5.130 -0.2208  0.6715 -0.6943
 8025SOL     OW24973   4.585   6.805   0.637  0.3634 -0.1673  0.2887
 8025SOL    HW124974   4.530   6.885   0.612  0.4002 -0.3737 -0.4490
 8025SOL    HW224975   4.581   6.793   0.737  0.6511  0.9623  0.4530
 8026SOL     OW24976   4.494   0.741   5.505  0.4827  0.5223  0.2981
 8026SOL    HW124977   4.555   0.665   5.481 -1.0573 -0.9709  0.8912
 8026SOL    HW224978   4.415   0.742   5.443  0.3384  1.4773  0.4777
 8027SOL     OW24979   3.681   4.473   5.303  0.0666  0.0203  0.0041
 8027SOL    HW124980   3.611   4.528   5.257 -0.0222 -1.7363 -2.1487
 8027SOL    HW224981   3.753   4.533   5.336 -1.8337  1.7627  1.2215
 8028SOL     OW24982   5.952   5.109   1.232 -0.9733  0.3305 -0.1409
 8028SOL    HW124983   5.902   5.192   1.207 -1.1596  1.2516  2.9199
 8028SOL    HW224984   5.935   5.087   1.328  0.8322 -2.0230 -0.2742
 8029SOL     OW24985   4.720   4.909   6.590  0.1299  0.4521  0.3577
 8029SOL    HW124986   4.810   4.869   6.609 -0.5948 -0.8404  1.2426
 8029SOL    HW224987   4.649   4.843   6.614 -1.0383  0.6976 -2.0975
 8030SOL     OW24988   0.196   2.359   2.451 -0.0116 -0.2840  0.2676
 8030SOL    HW124989   0.130   2.378   2.378  0.2466 -0.1224  0.0727
 8030SOL    HW224990   0.241   2.445   2.477  0.5078 -0.4791  0.0228
 8031SOL     OW24991   5.326   6.430   6.383 -0.2755 -0.4607 -0.2120
 8031SOL    HW124992   5.411   6.458   6.340  0.3566 -0.0492  1.2436
 8031SOL    HW224993   5.278   6.365   6.324  0.6401 -0.0713 -1.4152
 8032SOL     OW24994   5.371   4.855   4.521 -0.3278 -0.1903  0.1406
 8032SOL    HW124995   5.437   4.821   4.589 -0.3216 -0.4082  0.0261
 8032SOL    HW224996   5.360   4.787   4.449  1.7967  1.1619 -1.5915
 8033SOL     OW24997   6.155   3.600   1.422  0.1091  0.5407 -0.0053
 8033SOL    HW124998   6.133   3.520   1.367 -1.2620  1.0747 -0.2827
 8033SOL    HW224999   6.253   3.617   1.419  0.3384 -0.7891 -0.4012
 8034SOL     OW25000   6.357   2.376   6.514 -0.2441  0.0566 -0.0600
 8034SOL    HW125001   6.334   2.280   6.530 -0.1927  0.2908  1.6329
 8034SOL    HW225002   6.418   2.382   6.435 -0.6160 -1.2467 -0.4830
 8035SOL     OW25003   4.802   4.941   0.501  0.3879  0.1312  0.4765
 8035SOL    HW125004   4.828   4.870   0.436 -0.4711  0.4934 -0.2904
 8035SOL    HW225005   4.883   4.994   0.526  1.0798 -1.2286  1.2335
 8036SOL     OW25006   3.113   5.125   6.833  0.1004 -0.3381 -0.1591
 8036SOL    HW125007   3.105   5.037   6.785 -0.2105  0.1511 -1.0213
 8036SOL    HW225008   3.194   5.124   6.891 -0.5600 -1.6448  0.7996
 8037SOL     OW25009   3.391   2.634   6.389 -0.3086 -0.1221  0.1048
 8037SOL    HW125010   3.479   2.603   6.353 -0.0342 -1.0749  1.5043
 8037SOL    HW225011   3.338   2.675   6.315  0.4542 -1.4254 -1.2349
 8038SOL     OW25012   6.084   0.477   3.876 -0.3367  0.8765  0.0445
 8038SOL    HW125013   6.063   0.392   3.828  1.8684  0.8124 -0.9208
 8038SOL    HW225014   5.999   0.527   3.895 -1.6724 -1.4250  0.4795
 8039SOL     OW25015   0.243   6.521   4.138 -0.4309  0.0093  0.2890
 8039SOL    HW125016   0.280   6.607   4.105  1.1274 -1.0705 -0.9393
 8039SOL    HW225017   0.231   6.458   4.061  0.5103 -1.5877  1.3813
 8040SOL     OW25018   6.629   6.728   6.097  0.2013  0.2910 -0.3920
 8040SOL    HW125019   6.603   6.653   6.158 -0.7359  0.7564 -0.2059
 8040SOL    HW225020   6.612   6.700   6.002  4.6958 -1.7307 -0.8735
 8041SOL     OW25021   1.603   1.085   6.795 -0.2702  0.4763  0.0204
 8041SOL    HW125022   1.653   1.046   6.872 -0.1692 -1.0513 -0.7765
 8041SOL    HW225023   1.662   1.149   6.747  0.1645  0.3586  0.3829
 8042SOL     OW25024   3.051   2.653   6.797 -0.0641 -0.4158 -0.1317
 8042SOL    HW125025   3.093   2.589   6.732  0.8380  0.5853 -0.5695
 8042SOL    HW225026   3.093   2.743   6.786 -1.1604  0.2027  0.6257
 8043SOL     OW25027   1.692   0.963   0.816 -0.4645  0.5637 -0.2297
 8043SOL    HW125028   1.716   1.060   0.819 -1.6039  0.8332  0.5495
 8043SOL    HW225029   1.601   0.950   0.854 -0.2222 -0.8541 -0.0926
 8044SOL     OW25030   3.966   4.272   0.508 -1.0650 -0.2081  0.7042
 8044SOL    HW125031   3.905   4.201   0.471 -1.7195  0.2467  0.8971
 8044SOL    HW225032   3.960   4.272   0.608 -1.2731  0.3009  0.6914
 8045SOL     OW25033   5.934   2.652   3.672  0.6922  0.3394  0.2213
 8045SOL    HW125034   5.957   2.569   3.722 -0.6305 -1.0417 -1.3514
 8045SOL    HW225035   5.845   2.686   3.703  0.4954  0.2609 -0.2603
 8046SOL     OW25036   5.366   5.465   6.280 -0.3179  0.2200 -0.1352
 8046SOL    HW125037   5.455   5.473   6.235 -0.3540 -1.1747 -0.4867
 8046SOL    HW225038   5.300   5.427   6.215 -0.6886 -0.6053  0.7210
 8047SOL     OW25039   1.515   6.296   3.435 -0.3720  0.1511 -0.1626
 8047SOL    HW125040   1.418   6.309   3.453 -0.4479 -0.9229  0.2990
 8047SOL    HW225041   1.562   6.274   3.521  0.1592  0.0286 -0.4789
 8048SOL     OW25042   5.829   0.087   4.555  0.3016  0.2271  0.4070
 8048SOL    HW125043   5.887   0.154   4.509  0.5473  1.9598  3.0226
 8048SOL    HW225044   5.885   0.008   4.582  0.7609  0.4875  0.2309
 8049SOL     OW25045   2.078   6.053   3.347 -0.4874  0.0557  0.0855
 8049SOL    HW125046   2.091   6.091   3.256  3.0830  0.4366  0.5832
 8049SOL    HW225047   2.078   6.127   3.415 -0.0444 -0.3966  0.5924
 8050SOL     OW25048   0.450   2.919   1.774  0.2998 -0.0325  0.6185
 8050SOL    HW125049   0.484   2.864   1.850  0.7335 -0.2730  0.2606
 8050SOL    HW225050   0.387   2.864   1.718 -1.4659  0.7012  1.8098
 8051SOL     OW25051   2.416   2.520   3.684  0.0513  0.1661 -0.5047
 8051SOL    HW125052   2.506   2.479   3.698  0.1464  0.0633 -1.3671
 8051SOL    HW225053   2.427   2.616   3.657 -0.0570 -0.1072 -1.5461
 8052SOL     OW25054   3.025   1.054   3.435 -0.0388 -0.2473  0.2761
 8052SOL    HW125055   3.094   0.988   3.467 -0.5138 -0.5164  0.7692
 8052SOL    HW225056   3.031   1.137   3.490 -0.1777 -0.3142  0.3936
 8053SOL     OW25057   5.013   3.764   0.185 -0.3137 -0.1906  0.2307
 8053SOL    HW125058   4.940   3.710   0.143 -1.7491  0.7768  1.4223
 8053SOL    HW225059   5.057   3.710   0.257 -0.6336 -0.3583  0.2995
 8054SOL     OW25060   0.210   6.405   5.182  0.0848 -0.1482  0.0720
 8054SOL    HW125061   0.162   6.478   5.231 -0.2765 -0.6088  0.4121
 8054SOL    HW225062   0.305   6.400   5.214 -0.1760 -0.5207  0.8314
 8055SOL     OW25063   1.954   6.942   3.291 -0.2298  0.3894 -0.1070
 8055SOL    HW125064   1.966   6.953   3.390 -0.8643  1.1076 -0.1019
 8055SOL    HW225065   1.859   6.920   3.272  0.1800 -1.2131 -0.4568
 8056SOL     OW25066   4.033   2.165   2.693 -0.3360  0.5143  0.1778
 8056SOL    HW125067   4.091   2.202   2.621 -0.2261  0.1430  0.0755
 8056SOL    HW225068   3.939   2.158   2.660  0.1361 -2.1305 -0.8828
 8057SOL     OW25069   2.756   0.076   2.601  0.2906  0.9235 -0.1424
 8057SOL    HW125070   2.698   0.086   2.521  1.0692 -0.4623 -0.9092
 8057SOL    HW225071   2.743  -0.014   2.641  0.5749  1.2729  0.7716
 8058SOL     OW25072   1.246   0.813   3.821 -0.2813 -0.2963  0.2257
 8058SOL    HW125073   1.207   0.858   3.740  0.0473 -1.8090 -0.8081
 8058SOL    HW225074   1.343   0.837   3.828  0.0453 -1.2723 -0.6750
 8059SOL     OW25075   0.889   2.201   3.470 -0.3560  0.1078 -0.2131
 8059SOL    HW125076   0.858   2.127   3.410 -1.1999 -0.4008  0.7999
 8059SOL    HW225077   0.821   2.274   3.470  1.1616  1.6329 -2.3678
 8060SOL     OW25078   0.377   3.643   6.405 -0.4457 -0.0158  0.6147
 8060SOL    HW125079   0.363   3.544   6.408 -1.7123  0.1514  0.6626
 8060SOL    HW225080   0.381   3.673   6.310  1.4364 -0.2838  0.5679
 8061SOL     OW25081   4.289   5.111   2.579  0.1218 -0.3623  0.1109
 8061SOL    HW125082   4.273   5.127   2.481 -1.3860 -0.1292  0.3760
 8061SOL    HW225083   4.304   5.013   2.594  1.4931 -0.2715 -0.4760
 8062SOL     OW25084   0.916   1.885   1.402  0.3703 -0.2608 -0.3380
 8062SOL    HW125085   0.986   1.934   1.350 -0.4318  2.1199  0.6882
 8062SOL    HW225086   0.960   1.830   1.474  1.3454 -1.9416 -2.1071
 8063SOL     OW25087   4.408   2.128   5.406  0.6073  1.2797 -0.1120
 8063SOL    HW125088   4.347   2.147   5.328 -1.5186  0.5265  1.2820
 8063SOL    HW225089   4.435   2.031   5.404  0.3854  1.2118  0.2028
 8064SOL     OW25090   6.387   3.120   5.364  0.2818  0.1243 -0.2389
 8064SOL    HW125091   6.288   3.131   5.360  0.1716  0.3279  1.9580
 8064SOL    HW225092   6.409   3.023   5.376  0.3945  0.0141 -1.2532
 8065SOL     OW25093   3.774   0.692   6.002 -0.4423 -0.4964 -0.1009
 8065SOL    HW125094   3.680   0.707   5.970 -0.5237 -0.6006  0.0888
 8065SOL    HW225095   3.807   0.774   6.048 -0.0641 -0.0768 -1.0800
 8066SOL     OW25096   0.082   6.839   0.363 -0.2071  0.2215  0.7783
 8066SOL    HW125097  -0.012   6.826   0.331 -0.2971 -0.7333  1.3840
 8066SOL    HW225098   0.086   6.917   0.426 -0.0620  2.0145 -1.3279
 8067SOL     OW25099   3.641   6.007   3.008 -0.1101  0.0893 -0.0942
 8067SOL    HW125100   3.644   6.083   3.072 -0.8475 -1.5269  1.9653
 8067SOL    HW225101   3.575   5.939   3.039  1.0389 -1.7524 -1.4431
 8068SOL     OW25102   6.617   3.910   1.632  0.0594  0.1729  0.2478
 8068SOL    HW125103   6.665   3.823   1.644  0.9115  0.8907  2.5308
 8068SOL    HW225104   6.669   3.970   1.571 -1.3591 -1.4115 -2.7613
 8069SOL     OW25105   6.489   6.150   1.995  0.1081  0.4272  0.8861
 8069SOL    HW125106   6.421   6.160   2.067  0.9592 -0.1211  1.7858
 8069SOL    HW225107   6.573   6.112   2.033  0.2215 -0.9046 -0.5918
 8070SOL     OW25108   3.102   0.719   2.832 -0.1399  0.0013  0.9040
 8070SOL    HW125109   3.032   0.781   2.797  1.0285  0.8055 -0.0712
 8070SOL    HW225110   3.161   0.767   2.896  0.7745 -0.0687  0.1395
 8071SOL     OW25111   0.354   4.809   0.540 -0.1870 -0.1238  0.4708
 8071SOL    HW125112   0.321   4.714   0.534 -0.4136 -0.0105 -0.1367
 8071SOL    HW225113   0.289   4.863   0.595 -1.5477  0.3099 -1.4694
 8072SOL     OW25114   3.018   0.232   3.766  0.2366  0.0878  0.1005
 8072SOL    HW125115   2.959   0.175   3.710 -0.1798 -0.4221  1.0459
 8072SOL    HW225116   2.965   0.308   3.805  0.4730  0.3072  0.0033
 8073SOL     OW25117   6.411   1.387   4.773 -0.5151 -0.1123  0.4229
 8073SOL    HW125118   6.363   1.369   4.687 -0.3760  0.5980  0.1856
 8073SOL    HW225119   6.410   1.485   4.791  4.0840  0.5405 -1.5728
 8074SOL     OW25120   3.191   4.406   0.167 -0.4259  0.2209  0.0215
 8074SOL    HW125121   3.124   4.367   0.230 -1.3901 -0.8551 -1.6178
 8074SOL    HW225122   3.157   4.399   0.073  1.4940  0.7007 -0.7530
 8075SOL     OW25123   5.060   1.178   3.556  0.0294 -0.1913 -0.0884
 8075SOL    HW125124   5.097   1.254   3.503 -0.0830 -0.6277 -0.8131
 8075SOL    HW225125   5.098   1.179   3.648  0.7676  0.1745 -0.3910
 8076SOL     OW25126   4.206   3.276   1.635 -0.5035 -0.2522 -0.9070
 8076SOL    HW125127   4.182   3.179   1.644  1.2750 -0.7125 -0.8027
 8076SOL    HW225128   4.297   3.284   1.595 -1.0421  1.4244 -1.8618
 8077SOL     OW25129   6.008   0.878   4.818  0.6903  0.5531  0.3105
 8077SOL    HW125130   6.080   0.920   4.873  0.4052  0.7005  0.5709
 8077SOL    HW225131   6.046   0.852   4.729  0.9057  1.1983  0.2113
 8078SOL     OW25132   6.405   2.007   0.944 -0.5291  0.1725 -0.2819
 8078SOL    HW125133   6.368   2.081   1.000 -1.7182 -0.3801 -0.3276
 8078SOL    HW225134   6.334   1.970   0.885  0.1577 -0.7347 -0.5729
 8079SOL     OW25135   2.940   1.804   6.318  0.0169  0.1993 -0.5324
 8079SOL    HW125136   2.883   1.838   6.243 -0.2439 -0.3322 -0.5817
 8079SOL    HW225137   2.961   1.707   6.303 -1.5566 -0.4212  0.9875
 8080SOL     OW25138   4.135   5.348   1.443  0.4835 -0.2196  0.3376
 8080SOL    HW125139   4.143   5.407   1.363 -2.5567 -1.7738 -1.2874
 8080SOL    HW225140   4.076   5.392   1.511  0.4510 -0.2186  0.3088
 8081SOL     OW25141   5.585   2.444   5.171 -0.0809  0.1583 -0.7344
 8081SOL    HW125142   5.486   2.456   5.181  0.1533  0.5667  1.4388
 8081SOL    HW225143   5.632   2.527   5.199  0.8976  0.2024 -2.3662
 8082SOL     OW25144   0.991   3.517   5.996 -0.2218 -0.3973 -0.1290
 8082SOL    HW125145   0.998   3.513   6.095 -0.5510  0.5317 -0.0491
 8082SOL    HW225146   0.998   3.425   5.957 -1.2113 -0.9030  0.8364
 8083SOL     OW25147   0.804   2.838   4.309  0.1542 -0.1391 -0.5289
 8083SOL    HW125148   0.815   2.884   4.220  0.5771 -1.2742 -1.0799
 8083SOL    HW225149   0.838   2.745   4.302 -1.7631 -0.9419  0.2337
 8084SOL     OW25150   0.054   1.925   6.951  0.4688  0.1472  0.6394
 8084SOL    HW125151  -0.018   1.867   6.912  0.8451  0.3176 -0.3541
 8084SOL    HW225152   0.113   1.870   7.011  0.0153 -0.1842  0.7812
 8085SOL     OW25153   3.764   4.271   1.291 -0.4606 -0.3072 -0.2015
 8085SOL    HW125154   3.841   4.238   1.346 -1.8287 -0.4487  1.7217
 8085SOL    HW225155   3.727   4.354   1.331 -1.5452 -0.4357 -0.8957
 8086SOL     OW25156   1.538   0.646   0.428  0.0534  0.8019  0.1688
 8086SOL    HW125157   1.621   0.684   0.471  0.1843 -1.6212  2.2584
 8086SOL    HW225158   1.562   0.564   0.376 -0.5395  2.2112 -2.5049
 8087SOL     OW25159   1.578   4.824   0.620 -0.0602 -1.1732  0.2576
 8087SOL    HW125160   1.561   4.844   0.717 -0.1300 -1.6268  0.3420
 8087SOL    HW225161   1.676   4.822   0.603 -0.0523 -0.3180  0.1490
 8088SOL     OW25162   5.009   1.200   4.054 -0.1995  0.7124  0.5462
 8088SOL    HW125163   5.089   1.142   4.074  1.2669  2.4215 -0.0806
 8088SOL    HW225164   5.023   1.290   4.095 -1.4601  1.2916 -0.2595
 8089SOL     OW25165   6.766   2.055   5.040 -0.0056  0.5026 -0.0872
 8089SOL    HW125166   6.823   2.086   4.964  0.1559  0.5129  0.0397
 8089SOL    HW225167   6.670   2.054   5.010  0.3779 -4.2666 -2.0131
 8090SOL     OW25168   4.443   1.488   5.070  0.0271 -0.7931  0.2722
 8090SOL    HW125169   4.529   1.538   5.080 -0.1724 -0.4270  0.1760
 8090SOL    HW225170   4.408   1.463   5.161  0.6353 -1.6385  0.2805
 8091SOL     OW25171   1.626   3.079   4.880  0.0995 -0.9675  0.0700
 8091SOL    HW125172   1.702   3.117   4.827  0.3548 -1.3934  0.1323
 8091SOL    HW225173   1.628   2.979   4.875 -0.1495 -0.9949  0.5053
 8092SOL     OW25174   6.154   2.328   5.001  0.4920 -0.3547  0.0230
 8092SOL    HW125175   6.201   2.289   4.922  0.8989  1.7193 -0.8085
 8092SOL    HW225176   6.191   2.288   5.085  1.8072 -0.7623 -0.7335
 8093SOL     OW25177   6.166   5.732   1.527 -0.1839  0.2531 -0.6948
 8093SOL    HW125178   6.174   5.693   1.435  1.2155  0.8823 -0.8591
 8093SOL    HW225179   6.254   5.727   1.573 -0.0287  2.8333 -0.5696
 8094SOL     OW25180   0.059   2.001   5.115  0.2105 -1.0448 -0.0189
 8094SOL    HW125181   0.124   1.939   5.158 -0.9103 -1.8997  0.4949
 8094SOL    HW225182  -0.022   2.010   5.173 -0.2884 -0.2802 -0.8026
 8095SOL     OW25183   6.836   4.252   4.871  0.4935  0.2458  0.5079
 8095SOL    HW125184   6.804   4.340   4.835  2.8852  1.3997  1.0560
 8095SOL    HW225185   6.933   4.241   4.852  0.1633 -2.5344  0.0464
 8096SOL     OW25186   2.762   6.898   1.455 -0.3396  0.3315 -0.5759
 8096SOL    HW125187   2.829   6.889   1.382 -0.1756  0.2914 -0.4228
 8096SOL    HW225188   2.805   6.875   1.543 -0.5115  0.4622 -0.4565
 8097SOL     OW25189   4.471   6.341   3.592 -0.0895  0.2731 -0.0138
 8097SOL    HW125190   4.482   6.434   3.557 -0.6363  0.4395  0.2421
 8097SOL    HW225191   4.468   6.344   3.692  0.8782 -0.1332  0.0366
 8098SOL     OW25192   0.717   2.416   3.639  0.1913  0.3528  0.6539
 8098SOL    HW125193   0.699   2.335   3.695  1.3581 -0.0075  0.5390
 8098SOL    HW225194   0.687   2.398   3.545  0.5064  0.0041  0.6116
 8099SOL     OW25195   2.528   0.444   4.268  0.0788 -0.0082 -0.1815
 8099SOL    HW125196   2.470   0.379   4.218 -3.1638  1.3166  1.5736
 8099SOL    HW225197   2.553   0.519   4.207 -0.7250 -0.2401 -0.8241
 8100SOL     OW25198   5.743   6.709   6.587  0.1172 -0.0800  0.0923
 8100SOL    HW125199   5.773   6.614   6.596  0.4576 -0.2483 -2.1107
 8100SOL    HW225200   5.643   6.712   6.585  0.0797 -0.2569  1.1616
 8101SOL     OW25201   0.597   4.288   2.408  0.6623 -0.5843 -0.0977
 8101SOL    HW125202   0.637   4.259   2.321  2.1451 -0.7904  0.6197
 8101SOL    HW225203   0.549   4.375   2.396 -0.2895 -1.2611 -1.3896
 8102SOL     OW25204   6.815   0.854   4.826  0.1474 -0.0280 -0.7032
 8102SOL    HW125205   6.751   0.912   4.877  1.0275  0.1600  0.2350
 8102SOL    HW225206   6.875   0.911   4.770  0.7690 -0.0248 -0.0639
 8103SOL     OW25207   2.050   3.096   4.300  0.0332 -0.2454 -0.2612
 8103SOL    HW125208   2.026   3.009   4.343  2.0837 -0.3475  0.7601
 8103SOL    HW225209   2.068   3.165   4.370 -1.2449  0.9663 -1.0499
 8104SOL     OW25210   3.450   1.220   4.586 -0.1718 -0.2921  0.0065
 8104SOL    HW125211   3.393   1.246   4.508 -0.1398  1.7976  0.6195
 8104SOL    HW225212   3.410   1.255   4.671  1.4074  0.2813  0.5666
 8105SOL     OW25213   1.844   2.471   1.878 -0.6670  0.1831 -0.0317
 8105SOL    HW125214   1.876   2.526   1.956 -0.3946  0.2394 -0.1817
 8105SOL    HW225215   1.875   2.513   1.793 -1.2481  0.3019 -0.1862
 8106SOL     OW25216   6.414   4.035   0.198 -0.0948  0.8413  0.0800
 8106SOL    HW125217   6.399   4.054   0.295  0.1435 -0.0906  0.3132
 8106SOL    HW225218   6.353   3.961   0.170  1.3346 -0.3682  0.0671
 8107SOL     OW25219   1.421   5.393   5.221  0.2994 -0.0995 -0.5208
 8107SOL    HW125220   1.508   5.350   5.197 -0.1028 -0.8085 -0.7161
 8107SOL    HW225221   1.416   5.404   5.320 -0.2425 -1.9354 -0.3104
 8108SOL     OW25222   3.854   0.749   6.746 -0.3419  0.1463 -0.0357
 8108SOL    HW125223   3.767   0.718   6.782 -0.0759 -0.7610 -0.1416
 8108SOL    HW225224   3.854   0.738   6.646  1.0394 -3.0296  0.1963
 8109SOL     OW25225   6.321   4.340   5.662 -0.5109  0.5088 -0.5808
 8109SOL    HW125226   6.377   4.403   5.714  0.5561 -0.6265 -0.2925
 8109SOL    HW225227   6.231   4.332   5.704  0.2156 -0.1380  0.9446
 8110SOL     OW25228   1.884   4.633   6.768  0.1364 -0.2478 -0.0227
 8110SOL    HW125229   1.826   4.553   6.753  0.2266 -0.3259  0.0462
 8110SOL    HW225230   1.949   4.641   6.692  0.0588 -0.1805 -0.0820
 8111SOL     OW25231   3.574   5.846   3.878  0.5484  0.7349 -0.0223
 8111SOL    HW125232   3.638   5.915   3.845 -0.7209  1.0315 -2.0719
 8111SOL    HW225233   3.483   5.864   3.840 -0.3202 -0.8049  1.1945
 8112SOL     OW25234   4.682   3.088   5.623  0.3314  0.3733 -0.5455
 8112SOL    HW125235   4.654   3.183   5.607  1.0809  0.7822  0.4900
 8112SOL    HW225236   4.711   3.077   5.718 -0.6053 -1.1183 -0.3967
 8113SOL     OW25237   2.959   1.906   6.975  0.3052 -0.3034 -0.5519
 8113SOL    HW125238   2.909   1.927   7.059  1.7254 -0.5825  0.3988
 8113SOL    HW225239   2.904   1.846   6.917 -0.5699 -0.3671  0.3282
 8114SOL     OW25240   2.551   4.958   1.662 -0.1508 -0.7592 -0.0604
 8114SOL    HW125241   2.611   4.939   1.583 -1.1058 -2.0816 -0.5051
 8114SOL    HW225242   2.563   4.886   1.731  0.1294 -0.0117  0.6782
 8115SOL     OW25243   3.408   2.401   1.359 -0.1809  0.1695 -0.0267
 8115SOL    HW125244   3.390   2.422   1.263  0.8917  1.5234  0.0336
 8115SOL    HW225245   3.440   2.483   1.405 -1.8910 -0.1302  1.8254
 8116SOL     OW25246   5.118   3.480   6.329  0.3802 -0.4722 -0.0248
 8116SOL    HW125247   5.158   3.398   6.370  2.0714  0.6173  0.6701
 8116SOL    HW225248   5.061   3.526   6.397 -1.1541 -1.4121 -0.6417
 8117SOL     OW25249   2.430   3.541   5.427 -0.4697  0.0607  0.1046
 8117SOL    HW125250   2.380   3.609   5.374 -1.6177 -0.4449  0.4890
 8117SOL    HW225251   2.516   3.580   5.461 -1.3262  1.4819  0.7304
 8118SOL     OW25252   0.154   1.075   3.193 -0.2168  0.1885  0.4587
 8118SOL    HW125253   0.222   1.139   3.228 -0.4152  0.3932  0.4705
 8118SOL    HW225254   0.197   1.013   3.128 -0.4325  1.6907 -1.2000
 8119SOL     OW25255   2.428   1.478   2.678 -0.1814 -0.0786 -0.5448
 8119SOL    HW125256   2.375   1.562   2.689  0.6579  0.5995 -1.3968
 8119SOL    HW225257   2.383   1.403   2.726 -2.1113  0.3624 -1.5463
 8120SOL     OW25258   5.269   5.276   2.080 -0.2057 -0.2513 -0.2053
 8120SOL    HW125259   5.224   5.296   2.167  0.9238 -0.9433  0.5723
 8120SOL    HW225260   5.367   5.263   2.096 -0.1176 -1.2988 -1.4293
 8121SOL     OW25261   6.766   5.466   2.305  0.8726 -0.4135 -0.1077
 8121SOL    HW125262   6.693   5.524   2.340  1.4178  1.5955 -2.0489
 8121SOL    HW225263   6.853   5.516   2.306  1.5119 -1.4211 -1.2119
 8122SOL     OW25264   6.554   4.252   0.959 -0.5588  0.1166 -0.0457
 8122SOL    HW125265   6.500   4.187   0.906 -0.1621 -0.2668  0.0187
 8122SOL    HW225266   6.645   4.214   0.977 -0.4878  0.4867  0.4037
 8123SOL     OW25267   2.343   5.286   6.453 -0.7000  0.2934 -0.3679
 8123SOL    HW125268   2.381   5.322   6.368 -2.3828 -1.2761 -1.8839
 8123SOL    HW225269   2.399   5.209   6.484 -0.3254  0.5917 -0.3047
 8124SOL     OW25270   2.455   5.329   0.347  0.4441  0.1632 -0.3793
 8124SOL    HW125271   2.407   5.242   0.357 -0.7178  1.0559  3.7647
 8124SOL    HW225272   2.400   5.391   0.290 -0.3971 -0.7289 -0.5577
 8125SOL     OW25273   5.135   5.921   4.843 -0.3831 -0.1400 -0.0584
 8125SOL    HW125274   5.219   5.961   4.808 -0.5973  0.6058  0.2780
 8125SOL    HW225275   5.057   5.961   4.795 -0.7100  1.1851  1.5040
 8126SOL     OW25276   6.151   4.327   1.468 -0.2420 -0.0029  0.1417
 8126SOL    HW125277   6.102   4.400   1.514  0.4808  0.1508  0.6767
 8126SOL    HW225278   6.104   4.240   1.483 -2.2464  0.5527 -2.1168
 8127SOL     OW25279   5.458   6.995   1.174  0.1716  0.0456 -0.2696
 8127SOL    HW125280   5.473   6.966   1.080 -2.2616 -2.5660  0.0067
 8127SOL    HW225281   5.519   6.944   1.234 -0.0186 -0.1665 -0.2539
 8128SOL     OW25282   2.552   3.247   5.955  0.0274  0.0856  0.0765
 8128SOL    HW125283   2.475   3.197   5.914  1.2049 -0.0846 -2.0493
 8128SOL    HW225284   2.554   3.340   5.920 -0.7979  0.9941  2.2760
 8129SOL     OW25285   3.968   6.932   0.067 -0.3198 -0.0060  0.1118
 8129SOL    HW125286   4.050   6.908   0.118  0.4744 -0.8914 -1.4909
 8129SOL    HW225287   3.994   6.961  -0.026 -1.8398 -0.9276 -0.6437
 8130SOL     OW25288   1.070   2.284   0.669  0.0384 -0.4107  0.4510
 8130SOL    HW125289   1.099   2.189   0.682  0.4499 -0.2466  0.7801
 8130SOL    HW225290   0.995   2.288   0.604  0.7069 -0.8645 -0.3634
 8131SOL     OW25291   2.172   2.097   2.228 -0.6431 -0.1495  0.1867
 8131SOL    HW125292   2.219   2.009   2.235 -0.3026 -0.0618 -0.8199
 8131SOL    HW225293   2.184   2.148   2.313 -1.0293 -1.1584  0.8591
 8132SOL     OW25294   6.981   6.074   1.881  0.1516  0.1724 -0.0412
 8132SOL    HW125295   7.014   6.007   1.814  1.5628  1.3330 -0.5597
 8132SOL    HW225296   6.904   6.035   1.931  0.7501 -1.7430 -0.5018
 8133SOL     OW25297   0.525   5.760   2.179  0.7200  0.0217 -0.3173
 8133SOL    HW125298   0.456   5.831   2.193  0.2083 -0.2071 -1.5422
 8133SOL    HW225299   0.616   5.799   2.192  0.4485  0.9216 -0.9914
 8134SOL     OW25300   3.448   1.662   1.351 -0.2225  0.1010  0.0433
 8134SOL    HW125301   3.369   1.631   1.405 -0.4959  1.7384  0.6411
 8134SOL    HW225302   3.495   1.736   1.399  1.2736 -0.3633 -0.6447
 8135SOL     OW25303   3.133   6.211   2.755 -0.3878 -0.2750  0.0709
 8135SOL    HW125304   3.106   6.117   2.732  3.0145 -0.8325 -2.4828
 8135SOL    HW225305   3.106   6.272   2.680  2.6363 -0.4304 -1.3085
 8136SOL     OW25306   2.545   0.138   0.024  0.2059 -0.2477 -0.6250
 8136SOL    HW125307   2.585   0.052   0.057  0.5107 -0.3474 -1.2463
 8136SOL    HW225308   2.618   0.199  -0.005  0.0250  0.4556  0.3550
 8137SOL     OW25309   3.556   3.164   5.798  0.0275 -0.4908  0.4057
 8137SOL    HW125310   3.569   3.129   5.891 -1.1606  2.3211  1.7240
 8137SOL    HW225311   3.462   3.148   5.770 -0.1188  0.2981  0.4383
 8138SOL     OW25312   5.440   1.448   5.524  0.2745 -0.6342  0.3718
 8138SOL    HW125313   5.496   1.525   5.496 -1.1826  0.2428 -0.2192
 8138SOL    HW225314   5.425   1.451   5.623  1.8715 -1.3264  0.6706
 8139SOL     OW25315   2.398   1.191   6.928  0.1271 -0.2876 -0.3417
 8139SOL    HW125316   2.379   1.280   6.889 -0.0036  0.3551  1.1190
 8139SOL    HW225317   2.322   1.163   6.988  1.4435  0.0106  1.5611
 8140SOL     OW25318   3.932   0.837   2.258  0.1954  0.5019  0.0269
 8140SOL    HW125319   3.849   0.890   2.272  0.2580  0.3900  0.8556
 8140SOL    HW225320   3.934   0.802   2.164 -1.1203 -0.2285  0.2470
 8141SOL     OW25321   5.098   2.382   4.868 -0.5182  0.1746 -0.3761
 8141SOL    HW125322   5.127   2.317   4.798 -1.4719  0.0592 -0.6713
 8141SOL    HW225323   5.050   2.459   4.825  3.1591  2.7303 -0.4300
 8142SOL     OW25324   3.648   6.896   6.059 -0.3481  0.3295  0.2344
 8142SOL    HW125325   3.718   6.825   6.046 -0.7138  0.0143 -0.0512
 8142SOL    HW225326   3.670   6.975   6.003  0.9360  1.1103  1.7649
 8143SOL     OW25327   5.418   5.534   1.430 -0.0288  0.0541 -0.5052
 8143SOL    HW125328   5.405   5.548   1.528 -0.3793  0.9965 -0.6710
 8143SOL    HW225329   5.328   5.529   1.386  0.0389  2.8357 -1.1717
 8144SOL     OW25330   1.014   0.132   5.225 -0.2456 -0.1829  0.0587
 8144SOL    HW125331   1.025   0.231   5.219 -0.1870 -0.1081  1.1389
 8144SOL    HW225332   0.919   0.109   5.246 -0.3609 -0.3926 -0.6439
 8145SOL     OW25333   2.792   5.661   5.443  0.2752 -0.2289  0.0743
 8145SOL    HW125334   2.754   5.679   5.534 -1.5468 -1.1697 -0.4538
 8145SOL    HW225335   2.746   5.719   5.375  2.7944  1.7258 -0.1055
 8146SOL     OW25336   0.522   0.467   5.988 -0.1698 -0.1613  0.1138
 8146SOL    HW125337   0.527   0.400   6.062 -1.3237 -0.4023 -0.0019
 8146SOL    HW225338   0.484   0.424   5.906 -0.0908  0.4186 -0.2347
 8147SOL     OW25339   1.985   0.303   3.897  0.3141  0.2257  0.5694
 8147SOL    HW125340   1.936   0.290   3.811  0.3430  3.4114 -0.0466
 8147SOL    HW225341   1.921   0.296   3.973 -1.0451  3.2242 -0.1555
 8148SOL     OW25342   6.169   6.357   1.175 -0.7638 -0.4313 -0.4016
 8148SOL    HW125343   6.182   6.337   1.078 -0.8511  0.8177 -0.6858
 8148SOL    HW225344   6.212   6.285   1.230 -1.1667 -1.4252 -1.3535
 8149SOL     OW25345   0.177   1.347   4.848  0.2830 -0.2435 -0.3542
 8149SOL    HW125346   0.080   1.345   4.872  0.6844 -2.5726  1.4466
 8149SOL    HW225347   0.189   1.390   4.759 -2.3007  0.7571 -0.2926
 8150SOL     OW25348   0.408   5.492   6.741  0.4638 -0.3226  0.3863
 8150SOL    HW125349   0.458   5.578   6.729  0.7837 -0.5981 -0.2921
 8150SOL    HW225350   0.472   5.417   6.756  0.2314 -0.5915  0.0520
 8151SOL     OW25351   4.617   6.790   2.291 -0.1008 -0.1384  0.3524
 8151SOL    HW125352   4.702   6.738   2.290 -0.5760 -0.9256  0.0471
 8151SOL    HW225353   4.635   6.884   2.260  0.3436 -0.8109 -1.6101
 8152SOL     OW25354   3.773   2.162   4.066  0.1591 -0.1410  0.4365
 8152SOL    HW125355   3.677   2.132   4.069  1.0822 -3.5511  0.1888
 8152SOL    HW225356   3.806   2.179   4.159 -0.2262 -0.6692  0.6730
 8153SOL     OW25357   0.802   1.410   6.979 -0.1766 -0.2675  0.6287
 8153SOL    HW125358   0.744   1.358   6.917 -0.8936  1.0728  0.1514
 8153SOL    HW225359   0.751   1.489   7.014  1.4279  1.1139 -0.0307
 8154SOL     OW25360   4.872   1.841   4.873 -0.1757 -0.7268 -0.0541
 8154SOL    HW125361   4.785   1.795   4.854 -0.2812 -1.4173  1.9190
 8154SOL    HW225362   4.855   1.932   4.911  0.0337  0.1568 -1.9107
 8155SOL     OW25363   2.024   4.129   6.785 -0.1285  0.2175  0.4314
 8155SOL    HW125364   2.019   4.033   6.813  0.7647  0.6013  1.9722
 8155SOL    HW225365   1.960   4.183   6.840 -0.0520  0.6367  0.1090
 8156SOL     OW25366   6.738   4.965   0.010  0.2534  0.5438  0.0781
 8156SOL    HW125367   6.809   5.033   0.027  2.8361 -1.8827 -0.1977
 8156SOL    HW225368   6.681   4.955   0.092  1.7544  0.9213  1.2201
 8157SOL     OW25369   5.122   2.468   5.952  0.1941 -0.2413 -0.1241
 8157SOL    HW125370   5.121   2.405   6.030 -0.5208 -1.0144 -0.7255
 8157SOL    HW225371   5.083   2.421   5.872 -0.6723  1.0870 -0.5060
 8158SOL     OW25372   6.468   5.199   5.868  0.3647  0.7970 -0.0577
 8158SOL    HW125373   6.464   5.299   5.870  0.2388  0.7773  1.1812
 8158SOL    HW225374   6.562   5.169   5.887  0.4104  0.6714 -0.4631
 8159SOL     OW25375   3.184   6.874   4.156  0.3768 -0.5007 -0.0353
 8159SOL    HW125376   3.256   6.928   4.112 -0.1142 -0.4896 -0.8419
 8159SOL    HW225377   3.108   6.861   4.092  1.4552 -4.1924 -0.8106
 8160SOL     OW25378   4.932   2.979   2.026  0.7060 -0.2108  0.1502
 8160SOL    HW125379   4.835   2.953   2.029  0.9656 -1.2599 -0.0150
 8160SOL    HW225380   4.945   3.051   1.958  0.0429 -0.0700  0.1638
 8161SOL     OW25381   1.109   0.685   1.002 -0.1955 -0.6199 -0.2911
 8161SOL    HW125382   1.044   0.632   1.057  0.4530  0.1230  1.2709
 8161SOL    HW225383   1.100   0.660   0.906 -0.8677 -2.5108  0.2246
 8162SOL     OW25384   6.141   4.702   6.379  0.2394  0.8780  0.3335
 8162SOL    HW125385   6.113   4.789   6.419  0.4392  0.8933  0.4430
 8162SOL    HW225386   6.063   4.640   6.375  0.2478  0.8282  0.8665
 8163SOL     OW25387   3.463   5.307   4.648  0.3229 -0.0000 -0.1804
 8163SOL    HW125388   3.379   5.348   4.683 -0.4193 -2.0967  0.6662
 8163SOL    HW225389   3.453   5.207   4.647  1.4277 -0.2072 -3.6107
 8164SOL     OW25390   6.260   3.659   6.598 -0.6448 -0.0419 -0.3623
 8164SOL    HW125391   6.231   3.590   6.531 -2.4048  1.4603 -1.2460
 8164SOL    HW225392   6.181   3.712   6.626  0.7895  2.2299 -0.4245
 8165SOL     OW25393   1.881   0.858   5.180  0.3592  0.2012  0.2317
 8165SOL    HW125394   1.818   0.936   5.183 -1.3000 -1.1063  0.7268
 8165SOL    HW225395   1.832   0.776   5.151  1.9524 -0.7757  0.1882
 8166SOL     OW25396   1.631   0.485   2.814  0.3770 -0.5099  0.2436
 8166SOL    HW125397   1.616   0.400   2.865  0.4423 -0.4523  0.3596
 8166SOL    HW225398   1.557   0.498   2.748  1.8397 -2.1745 -1.8691
 8167SOL     OW25399   2.571   2.467   2.779  0.2720 -0.0314 -0.3684
 8167SOL    HW125400   2.507   2.541   2.800 -0.0526 -0.2566 -0.5544
 8167SOL    HW225401   2.579   2.457   2.679  0.4838 -0.1031 -0.3453
 8168SOL     OW25402   0.797   6.972   1.382  0.3008  0.0187 -0.2093
 8168SOL    HW125403   0.866   6.900   1.370  0.4534 -0.0218  0.8060
 8168SOL    HW225404   0.817   7.024   1.466  0.1058  1.1475 -0.8389
 8169SOL     OW25405   4.630   4.442   6.957 -0.1814  0.6955  0.2424
 8169SOL    HW125406   4.530   4.440   6.951 -0.1632  0.9863 -0.2992
 8169SOL    HW225407   4.661   4.537   6.958  0.0656  0.6075  0.9534
 8170SOL     OW25408   5.196   3.553   3.274 -0.0210 -0.1210  0.0629
 8170SOL    HW125409   5.241   3.624   3.220  1.7724 -0.6250  0.8469
 8170SOL    HW225410   5.207   3.464   3.229 -0.2609 -0.2470  0.2499
 8171SOL     OW25411   0.858   0.538   2.332  0.1669  0.1222  0.1454
 8171SOL    HW125412   0.867   0.637   2.323  1.2684  0.1378  1.1601
 8171SOL    HW225413   0.944   0.499   2.364 -0.1510 -1.2147 -0.5323
 8172SOL     OW25414   3.297   4.096   2.099 -0.5443 -0.1464 -0.0005
 8172SOL    HW125415   3.317   4.026   2.167 -2.4279 -0.4884  0.2404
 8172SOL    HW225416   3.236   4.165   2.138 -1.1714 -0.0232 -1.1489
 8173SOL     OW25417   4.937   0.829   2.526  0.9731 -0.3637 -0.1926
 8173SOL    HW125418   4.909   0.925   2.526 -0.8935 -0.8496 -1.6683
 8173SOL    HW225419   4.942   0.796   2.620 -1.0050  0.4756  0.2463
 8174SOL     OW25420   3.262   6.697   3.370 -0.4530  0.0933  0.4173
 8174SOL    HW125421   3.345   6.752   3.373 -0.0965 -0.4598  0.7357
 8174SOL    HW225422   3.258   6.638   3.451 -1.4988  0.6111  0.7677
 8175SOL     OW25423   3.281   2.106   6.597  0.0803 -0.1824  0.0080
 8175SOL    HW125424   3.317   2.123   6.506  0.0547 -1.0734 -0.1784
 8175SOL    HW225425   3.356   2.104   6.663  0.1876 -0.2959 -0.1154
 8176SOL     OW25426   3.309   3.911   2.296 -0.0256  0.4405  0.2059
 8176SOL    HW125427   3.216   3.914   2.332 -0.4548  0.4748 -0.8963
 8176SOL    HW225428   3.337   3.817   2.281 -0.3626  0.4774 -0.6819
 8177SOL     OW25429   3.945   1.049   2.022 -0.1703  0.5593  0.4666
 8177SOL    HW125430   3.992   1.066   2.109  0.7975 -0.7756  0.2245
 8177SOL    HW225431   3.847   1.061   2.035  0.1404  2.8295  1.1245
 8178SOL     OW25432   1.891   6.715   2.189  0.7806 -0.2216  0.0533
 8178SOL    HW125433   1.792   6.710   2.199  0.5474 -0.8169 -2.0507
 8178SOL    HW225434   1.933   6.726   2.279 -1.1528 -0.4540  1.0414
 8179SOL     OW25435   0.405   0.416   4.504  0.1705  0.0178  0.2137
 8179SOL    HW125436   0.339   0.467   4.559  0.1781  1.8341 -1.3757
 8179SOL    HW225437   0.425   0.329   4.549 -2.0281  0.1346  1.5637
 8180SOL     OW25438   3.494   3.603   5.374 -0.8267  0.3714  0.7351
 8180SOL    HW125439   3.563   3.675   5.373 -1.3405  0.8804 -0.5700
 8180SOL    HW225440   3.403   3.644   5.382 -1.0072 -0.3067  2.7416
 8181SOL     OW25441   0.666   0.468   1.161  0.3404 -0.1566 -0.4211
 8181SOL    HW125442   0.575   0.431   1.181  1.0998 -1.0371  1.5788
 8181SOL    HW225443   0.663   0.567   1.165 -0.0723 -0.2234  1.9912
 8182SOL     OW25444   3.983   3.106   3.519 -0.2353 -0.0903  0.2058
 8182SOL    HW125445   4.034   3.163   3.584 -0.4796 -1.8426  2.0055
 8182SOL    HW225446   4.017   3.124   3.427  1.7916  0.7338  1.0509
 8183SOL     OW25447   0.655   7.004   6.038 -0.3472  0.0262  0.2904
 8183SOL    HW125448   0.713   6.995   6.119  0.1106 -1.4059 -0.1778
 8183SOL    HW225449   0.687   7.080   5.983  1.4958 -1.0931 -0.2554
 8184SOL     OW25450   6.993   5.648   4.484 -0.0127  0.0111  0.3513
 8184SOL    HW125451   6.923   5.648   4.412 -1.1971 -0.0199  1.4757
 8184SOL    HW225452   7.015   5.554   4.508  0.4429  0.0208 -0.0118
 8185SOL     OW25453   1.077   6.778   4.776 -0.0032 -0.6341 -0.0447
 8185SOL    HW125454   1.165   6.798   4.821  0.1441 -0.8945 -0.2145
 8185SOL    HW225455   1.025   6.863   4.766  0.8534 -0.2162 -1.2480
 8186SOL     OW25456   6.468   6.955   6.608 -0.1808 -0.3205  0.7670
 8186SOL    HW125457   6.449   6.988   6.515  2.4256 -0.1736  0.2018
 8186SOL    HW225458   6.567   6.955   6.623 -0.5412 -0.3414  3.5754
 8187SOL     OW25459   0.828   0.973   4.122  0.3811 -0.2757  0.0533
 8187SOL    HW125460   0.775   0.890   4.141 -1.5490  0.5942 -1.2339
 8187SOL    HW225461   0.768   1.052   4.126  1.9606  0.9689  0.1393
 8188SOL     OW25462   2.200   3.602   1.192  0.1082  0.1498 -0.2856
 8188SOL    HW125463   2.264   3.533   1.157  0.4363  0.3356 -0.0509
 8188SOL    HW225464   2.117   3.601   1.136  1.1658  1.3912 -1.9584
 8189SOL     OW25465   6.301   5.207   3.249  0.1442  0.4431 -0.2323
 8189SOL    HW125466   6.236   5.274   3.213 -1.1710 -0.7061 -0.0809
 8189SOL    HW225467   6.314   5.224   3.347  1.0691  1.4392 -0.5034
 8190SOL     OW25468   5.941   2.914   1.088  0.1771  0.3085  0.2363
 8190SOL    HW125469   5.978   2.869   1.170  0.1123  2.6305  1.6321
 8190SOL    HW225470   5.844   2.932   1.101  0.2722  1.1335 -0.1151
 8191SOL     OW25471   2.405   5.048   0.358  0.1476  0.3510  0.4552
 8191SOL    HW125472   2.344   4.974   0.330  0.2836  1.2853 -2.6960
 8191SOL    HW225473   2.498   5.013   0.366  0.1662  0.0894 -0.7495
 8192SOL     OW25474   0.695   4.783   1.321  0.6482 -0.2055  0.1835
 8192SOL    HW125475   0.623   4.717   1.303  1.6470 -1.2806 -0.0072
 8192SOL    HW225476   0.694   4.854   1.250 -1.4698  0.9607  1.2839
 8193SOL     OW25477   0.310   5.473   4.596 -0.4257 -0.5429  0.6224
 8193SOL    HW125478   0.243   5.437   4.660 -0.2457 -0.1382  1.0545
 8193SOL    HW225479   0.284   5.451   4.502 -1.9487  0.8591  0.6714
 8194SOL     OW25480   6.287   5.262   2.120  0.7763  0.2158  0.2915
 8194SOL    HW125481   6.266   5.280   2.216 -1.3298  0.7766 -0.2229
 8194SOL    HW225482   6.240   5.179   2.091  0.6280  0.5682 -0.4881
 8195SOL     OW25483   6.565   5.626   2.364  0.2082  0.2785 -0.0154
 8195SOL    HW125484   6.507   5.689   2.311 -0.3390 -1.1017 -1.1111
 8195SOL    HW225485   6.510   5.582   2.435 -0.0284 -0.7682 -0.8278
 8196SOL     OW25486   4.577   4.533   2.548  0.0171  0.1682  0.8695
 8196SOL    HW125487   4.484   4.564   2.531  0.1473 -0.1428 -0.5543
 8196SOL    HW225488   4.575   4.442   2.589 -0.3175  1.0895  3.0271
 8197SOL     OW25489   4.530   1.557   3.771 -0.4381 -0.3619  0.2720
 8197SOL    HW125490   4.553   1.471   3.816 -0.4804 -0.1180  0.7744
 8197SOL    HW225491   4.470   1.610   3.831 -0.0922  0.1846  0.1403
 8198SOL     OW25492   2.150   4.380   0.140  0.6478  0.5501  0.0424
 8198SOL    HW125493   2.086   4.309   0.110 -0.7579  1.7329  0.0899
 8198SOL    HW225494   2.243   4.353   0.119  0.2251 -1.6572  0.7820
 8199SOL     OW25495   0.072   3.790   0.606 -0.1490 -0.6527 -0.2261
 8199SOL    HW125496   0.131   3.722   0.562 -0.8018 -0.3121 -1.6466
 8199SOL    HW225497  -0.019   3.787   0.566 -0.4442  0.4606  0.3246
 8200SOL     OW25498   5.362   5.386   6.667  0.3338 -0.2462 -0.2952
 8200SOL    HW125499   5.423   5.446   6.717 -0.6866 -0.0505  0.7544
 8200SOL    HW225500   5.355   5.298   6.713 -0.6735 -0.0389 -0.0160
 8201SOL     OW25501   4.926   2.280   6.299  0.4501  0.1464  0.5630
 8201SOL    HW125502   4.966   2.189   6.309 -0.6952 -0.3520  0.6881
 8201SOL    HW225503   4.876   2.286   6.213 -0.8862  0.0998  1.3111
 8202SOL     OW25504   6.221   5.339   0.673 -0.1558  0.0453 -0.3042
 8202SOL    HW125505   6.145   5.393   0.638 -0.3914 -0.8663 -1.2705
 8202SOL    HW225506   6.252   5.275   0.602 -3.1363 -4.6667  2.1130
 8203SOL     OW25507   2.807   3.758   6.456  0.0520 -0.6948  0.3450
 8203SOL    HW125508   2.879   3.818   6.422 -0.0162 -2.0850 -2.4664
 8203SOL    HW225509   2.835   3.662   6.447 -2.6185 -1.3723 -2.3607
 8204SOL     OW25510   3.408   5.394   6.257 -0.5343  0.2638 -0.1615
 8204SOL    HW125511   3.488   5.353   6.214 -1.2583 -1.2575 -0.1300
 8204SOL    HW225512   3.425   5.491   6.274  0.9441  0.1728 -0.9752
 8205SOL     OW25513   5.810   4.316   5.997  0.6270  0.1989  0.4356
 8205SOL    HW125514   5.897   4.365   5.988 -0.5644  2.3165 -0.2722
 8205SOL    HW225515   5.775   4.327   6.089 -1.3049  3.8876 -0.5471
 8206SOL     OW25516   2.393   0.267   2.398  0.0456  0.1977  0.1525
 8206SOL    HW125517   2.414   0.256   2.301 -1.4868  0.0700 -0.1844
 8206SOL    HW225518   2.410   0.362   2.425 -2.9858  1.2551 -1.1987
 8207SOL     OW25519   3.513   3.760   4.618  0.0779  0.4650 -0.6335
 8207SOL    HW125520   3.515   3.806   4.530 -0.4224 -0.2581 -1.0287
 8207SOL    HW225521   3.500   3.661   4.605  1.5682  0.1291  0.1743
 8208SOL     OW25522   4.485   0.021   0.565  0.0114 -0.0977 -0.5114
 8208SOL    HW125523   4.550   0.066   0.627 -0.3177 -0.2207 -0.0721
 8208SOL    HW225524   4.447   0.089   0.503 -1.3857  0.4934  0.9333
 8209SOL     OW25525   6.957   3.817   3.534 -0.2429 -0.0286  0.0794
 8209SOL    HW125526   6.865   3.830   3.496 -0.7387 -2.8394  0.0532
 8209SOL    HW225527   6.951   3.758   3.614  1.5188  0.1207  0.3594
 8210SOL     OW25528   0.740   2.111   0.410  0.4942 -0.1467 -0.4950
 8210SOL    HW125529   0.739   2.149   0.502  0.8678 -0.8322 -0.2026
 8210SOL    HW225530   0.815   2.150   0.358 -0.1787  0.8168 -0.7639
 8211SOL     OW25531   2.460   4.296   1.344  0.6373  0.6545 -0.4323
 8211SOL    HW125532   2.499   4.299   1.436 -0.9460  1.4564  0.2640
 8211SOL    HW225533   2.383   4.231   1.343  0.0942  1.2970 -0.9472
 8212SOL     OW25534   2.535   2.484   2.301 -0.1612 -0.5741 -0.4966
 8212SOL    HW125535   2.555   2.423   2.224  0.9977 -1.1009  0.1897
 8212SOL    HW225536   2.464   2.549   2.275  0.0747 -0.8659 -1.9424
 8213SOL     OW25537   6.524   6.551   6.268 -0.1091 -0.1716 -0.4921
 8213SOL    HW125538   6.484   6.463   6.243 -1.6022  0.6106 -0.9883
 8213SOL    HW225539   6.488   6.579   6.357  1.4866 -0.7109  0.3577
 8214SOL     OW25540   5.525   2.846   2.803 -0.2452  0.3868 -0.5214
 8214SOL    HW125541   5.496   2.840   2.708 -0.3007  0.4721 -0.5099
 8214SOL    HW225542   5.614   2.893   2.808 -1.0215  1.9267 -0.3957
 8215SOL     OW25543   3.342   1.782   1.130 -0.3992  0.1389  0.0079
 8215SOL    HW125544   3.373   1.726   1.208 -1.2394 -1.0984 -0.5107
 8215SOL    HW225545   3.357   1.878   1.151 -0.5098 -0.1621  1.6786
 8216SOL     OW25546   5.331   3.236   5.391  0.0658  0.1742  0.3822
 8216SOL    HW125547   5.290   3.165   5.448 -0.8134  1.7703  1.8248
 8216SOL    HW225548   5.316   3.325   5.433  0.1227  1.3557 -1.9598
 8217SOL     OW25549   3.049   6.144   5.351  0.5525  0.1706  0.1569
 8217SOL    HW125550   3.123   6.129   5.417  0.0342  2.8640  1.5422
 8217SOL    HW225551   2.966   6.100   5.384  1.2842 -2.1711 -0.9870
 8218SOL     OW25552   4.345   0.793   1.253 -0.2078  0.6634 -0.0197
 8218SOL    HW125553   4.387   0.878   1.220  1.3830 -0.7562 -1.8945
 8218SOL    HW225554   4.326   0.801   1.350  0.4614  2.9474 -0.0242
 8219SOL     OW25555   5.942   3.735   6.864  0.0535 -0.5086  0.1146
 8219SOL    HW125556   5.965   3.797   6.788 -1.0909  0.6330  0.6623
 8219SOL    HW225557   5.919   3.645   6.828 -0.6731  0.0725 -0.9273
 8220SOL     OW25558   4.093   3.735   2.316  0.1785 -0.9737  0.2525
 8220SOL    HW125559   4.106   3.742   2.217 -0.4618 -1.0536  0.1583
 8220SOL    HW225560   4.028   3.662   2.336  0.6643 -1.2769  0.7653
 8221SOL     OW25561   6.035   2.915   2.783 -0.5924  0.1614 -0.3486
 8221SOL    HW125562   6.071   3.007   2.778 -1.0669  0.3273 -0.8473
 8221SOL    HW225563   6.094   2.852   2.733  0.6795 -0.1372  1.4081
 8222SOL     OW25564   4.928   3.453   0.619  0.2753  0.6462 -0.0111
 8222SOL    HW125565   4.967   3.501   0.698 -0.7471  1.4277  0.0452
 8222SOL    HW225566   4.907   3.359   0.644 -3.3350  1.7388  1.8895
 8223SOL     OW25567   1.816   3.700   0.834  0.0682  0.2501 -0.1342
 8223SOL    HW125568   1.780   3.733   0.746  0.7155  0.3262 -0.3757
 8223SOL    HW225569   1.819   3.776   0.899  0.1085  0.3209 -0.2174
 8224SOL     OW25570   1.503   3.514   3.247  0.5295  0.1003  0.0055
 8224SOL    HW125571   1.599   3.487   3.258  0.4411  0.0802  0.7784
 8224SOL    HW225572   1.481   3.518   3.150  1.3378  0.1848 -0.1830
 8225SOL     OW25573   4.317   4.864   1.739  0.2731  0.1081  0.5696
 8225SOL    HW125574   4.242   4.929   1.731  0.2542  0.1111  0.7659
 8225SOL    HW225575   4.384   4.880   1.666  0.1694  0.2168  0.4986
 8226SOL     OW25576   3.792   0.107   1.164 -0.7435  0.4942 -0.1202
 8226SOL    HW125577   3.747   0.107   1.075 -1.7754 -1.8125  0.3208
 8226SOL    HW225578   3.876   0.161   1.159 -1.6329  1.8260 -1.9918
 8227SOL     OW25579   6.635   5.646   2.763 -0.6036 -0.5040 -0.1565
 8227SOL    HW125580   6.656   5.549   2.774  0.9423 -0.1705  0.1412
 8227SOL    HW225581   6.721   5.697   2.749 -1.3419  0.8700  0.1351
 8228SOL     OW25582   5.757   2.150   1.448 -0.1929  0.3077 -0.1984
 8228SOL    HW125583   5.817   2.071   1.461 -0.7782  0.0151  0.8228
 8228SOL    HW225584   5.803   2.218   1.390  1.2794  0.2595  0.8704
 8229SOL     OW25585   6.901   4.193   5.302 -0.1903  0.3941 -0.0785
 8229SOL    HW125586   6.826   4.173   5.239 -0.9628 -0.3118  1.0376
 8229SOL    HW225587   6.945   4.108   5.329  0.1748  0.6947  0.2839
 8230SOL     OW25588   4.049   6.228   2.712 -0.1204 -0.3923 -0.8029
 8230SOL    HW125589   4.099   6.315   2.705 -1.2891  0.2122 -2.0717
 8230SOL    HW225590   4.025   6.195   2.621 -2.8508 -0.1300 -0.2859
 8231SOL     OW25591   2.545   5.722   6.039  0.1607 -0.1186 -0.0447
 8231SOL    HW125592   2.567   5.628   6.016  0.3531  0.1314 -0.9241
 8231SOL    HW225593   2.448   5.740   6.019  0.0446 -0.2210  0.4281
 8232SOL     OW25594   2.884   0.945   0.877  0.2623  0.2814 -0.3156
 8232SOL    HW125595   2.862   1.038   0.848  0.0141  0.2892 -0.1172
 8232SOL    HW225596   2.956   0.947   0.946 -1.5016  0.5569  1.6131
 8233SOL     OW25597   0.004   4.325   6.278 -0.0594  0.5470 -0.3136
 8233SOL    HW125598  -0.053   4.269   6.338 -0.7621  0.1770 -1.2881
 8233SOL    HW225599   0.089   4.276   6.259 -0.8847 -0.4929 -1.5773
 8234SOL     OW25600   1.419   3.007   4.027  0.2726  0.4860  0.8011
 8234SOL    HW125601   1.394   2.948   4.104 -0.2444  0.9055  0.9580
 8234SOL    HW225602   1.336   3.045   3.986  0.5116 -0.0828 -0.2458
 8235SOL     OW25603   5.043   1.693   0.575  0.7648 -0.3944  0.3739
 8235SOL    HW125604   4.956   1.654   0.544  0.9030 -0.0900 -0.4203
 8235SOL    HW225605   5.030   1.789   0.598  1.0132 -0.1809 -0.3427
 8236SOL     OW25606   6.057   3.310   6.901  0.0229 -0.0263  0.0138
 8236SOL    HW125607   5.972   3.303   6.850  0.1804 -2.7683 -0.0199
 8236SOL    HW225608   6.132   3.332   6.839 -0.2861 -0.0269 -0.3590
 8237SOL     OW25609   2.030   5.270   4.852 -0.1620  0.1851  0.2136
 8237SOL    HW125610   2.054   5.315   4.938 -0.3888 -0.0272  0.3927
 8237SOL    HW225611   2.081   5.184   4.844 -0.1919  0.1714  0.1706
 8238SOL     OW25612   6.249   0.686   5.804  0.4481  0.5285  0.2636
 8238SOL    HW125613   6.313   0.691   5.726 -1.1634  0.7596 -1.1041
 8238SOL    HW225614   6.205   0.775   5.816 -1.5965 -0.3069 -0.5982
 8239SOL     OW25615   5.848   3.086   6.053  0.4693 -0.0214 -0.3335
 8239SOL    HW125616   5.899   3.049   6.131 -0.1758 -2.3099 -0.9180
 8239SOL    HW225617   5.897   3.165   6.016  1.1709  0.6726  1.9035
 8240SOL     OW25618   3.286   3.933   3.408  0.1773  0.1805  0.1007
 8240SOL    HW125619   3.227   3.910   3.485  2.2594 -0.3875  1.6105
 8240SOL    HW225620   3.354   3.861   3.396  0.4646  0.7123 -1.7232
 8241SOL     OW25621   3.700   5.734   0.597  0.5364  0.0604  0.3392
 8241SOL    HW125622   3.738   5.642   0.600  0.6987  0.1449  2.2316
 8241SOL    HW225623   3.749   5.792   0.663 -0.3311  1.1841  0.0152
 8242SOL     OW25624   2.174   4.589   4.537  0.6415  0.1946 -0.0101
 8242SOL    HW125625   2.183   4.491   4.555  4.5460  0.5657  0.9395
 8242SOL    HW225626   2.170   4.639   4.623 -1.7168  0.9425 -0.4830
 8243SOL     OW25627   5.840   4.054   5.521 -0.1722 -0.0449  0.4838
 8243SOL    HW125628   5.762   4.115   5.518 -0.5960 -0.5627 -2.1212
 8243SOL    HW225629   5.925   4.107   5.526 -0.6110  0.6039  1.1313
 8244SOL     OW25630   2.558   6.136   4.897  0.2257 -0.0217 -0.8985
 8244SOL    HW125631   2.467   6.162   4.862 -0.2284 -2.7496 -1.9417
 8244SOL    HW225632   2.616   6.218   4.900 -2.0791  1.7313 -0.6340
 8245SOL     OW25633   4.776   4.239   2.198  0.1398  0.0306 -0.3172
 8245SOL    HW125634   4.694   4.253   2.143  0.2068 -0.8762 -0.6646
 8245SOL    HW225635   4.847   4.304   2.171  0.0216 -0.1229 -1.0062
 8246SOL     OW25636   5.535   2.952   6.200  0.2543  0.0846 -0.9540
 8246SOL    HW125637   5.632   2.930   6.215  0.7103 -0.4169 -3.9790
 8246SOL    HW225638   5.528   3.024   6.131 -1.5425  1.0675  0.1874
 8247SOL     OW25639   1.478   4.872   6.954  0.4451 -0.3654  0.4187
 8247SOL    HW125640   1.478   4.972   6.956 -0.4845 -0.2717 -1.7909
 8247SOL    HW225641   1.449   4.838   7.044  0.1346  1.3438  1.0142
 8248SOL     OW25642   0.500   5.445   2.724 -0.4961 -0.0790 -0.0454
 8248SOL    HW125643   0.482   5.374   2.657  1.1582 -0.7811  0.2141
 8248SOL    HW225644   0.445   5.526   2.703 -2.5716 -1.4572 -0.2314
 8249SOL     OW25645   0.987   5.066   1.416  0.6595 -0.0345  0.6202
 8249SOL    HW125646   0.991   5.156   1.460 -1.8164 -0.7124  2.4685
 8249SOL    HW225647   0.905   5.018   1.447  0.3611 -1.8244 -2.5654
 8250SOL     OW25648   3.753   3.408   3.382  0.2291 -0.1504  0.2827
 8250SOL    HW125649   3.662   3.369   3.366  0.4362 -0.2314 -0.7682
 8250SOL    HW225650   3.749   3.507   3.373  0.5548 -0.2605 -1.5350
 8251SOL     OW25651   5.334   6.929   3.366  0.0880  0.1756 -0.3687
 8251SOL    HW125652   5.333   6.903   3.269 -1.5501  0.5571 -0.4803
 8251SOL    HW225653   5.265   7.000   3.382  0.5160  0.2976  1.0420
 8252SOL     OW25654   1.056   5.558   5.010  0.2607  0.1572  0.6614
 8252SOL    HW125655   1.142   5.604   5.032  0.0455  2.0625 -1.9211
 8252SOL    HW225656   1.075   5.474   4.959  0.6128  0.8001 -0.2847
 8253SOL     OW25657   1.995   2.358   0.072  0.0043  0.6727  0.2853
 8253SOL    HW125658   2.068   2.298   0.037 -0.3757  1.2345 -1.5904
 8253SOL    HW225659   2.021   2.394   0.161  0.9975 -0.9324  0.6730
 8254SOL     OW25660   5.536   5.342   4.080 -0.1939 -0.5662 -0.0435
 8254SOL    HW125661   5.525   5.303   3.989  0.7141 -1.6764  0.2944
 8254SOL    HW225662   5.628   5.322   4.114 -0.4314  0.0482  1.0226
 8255SOL     OW25663   5.955   4.695   3.552  0.3565 -0.3605  0.0382
 8255SOL    HW125664   5.981   4.791   3.548 -0.2257 -0.1980  0.1008
 8255SOL    HW225665   5.857   4.687   3.574  0.6056 -0.9852  0.9733
 8256SOL     OW25666   4.188   1.958   1.985 -0.0548  0.5467 -0.2440
 8256SOL    HW125667   4.167   2.014   2.066  1.3127 -0.7932  1.1063
 8256SOL    HW225668   4.103   1.931   1.940 -0.8312  1.6613  0.5132
 8257SOL     OW25669   5.571   4.503   4.675 -0.4171 -0.1366  0.2307
 8257SOL    HW125670   5.541   4.445   4.599  0.5998 -0.4718  0.0638
 8257SOL    HW225671   5.559   4.453   4.761 -2.4213  0.5805  0.4154
 8258SOL     OW25672   5.250   3.002   0.751  0.2191 -0.0168 -0.1835
 8258SOL    HW125673   5.313   2.928   0.772 -0.6174 -0.8488 -0.5463
 8258SOL    HW225674   5.183   2.971   0.684 -1.9335  0.1180  1.7657
 8259SOL     OW25675   4.989   1.337   0.825  0.0494  0.3067  0.5232
 8259SOL    HW125676   5.034   1.248   0.817 -1.6565 -0.7314  1.7254
 8259SOL    HW225677   4.934   1.354   0.744  0.0485  0.0608  0.4722
 8260SOL     OW25678   4.288   5.060   5.143  0.2823  0.3699 -0.2641
 8260SOL    HW125679   4.260   5.148   5.105 -0.4678  0.1302 -0.3004
 8260SOL    HW225680   4.215   4.993   5.126  0.0515  0.1856  1.3190
 8261SOL     OW25681   0.640   2.537   2.032  0.1124 -0.2173 -0.7092
 8261SOL    HW125682   0.631   2.442   2.062 -0.1560  0.5362  1.8197
 8261SOL    HW225683   0.695   2.540   1.948  2.2336 -2.4426  0.4549
 8262SOL     OW25684   1.108   3.350   2.521  0.1158 -1.0072  0.1246
 8262SOL    HW125685   1.103   3.437   2.471 -0.6648 -1.7775 -1.2031
 8262SOL    HW225686   1.141   3.367   2.614 -1.1980  0.8785  0.3144
 8263SOL     OW25687   5.928   1.364   6.165 -0.0266 -0.3449  0.2046
 8263SOL    HW125688   5.992   1.324   6.231  0.6486 -1.2127 -0.9279
 8263SOL    HW225689   5.888   1.447   6.203  0.6738 -0.5798  1.5169
 8264SOL     OW25690   1.094   3.807   3.728 -0.3558  0.1001 -0.2390
 8264SOL    HW125691   1.126   3.732   3.669 -0.3062 -0.7472  0.8395
 8264SOL    HW225692   1.007   3.781   3.770  1.3600 -0.9428  2.9713
 8265SOL     OW25693   2.595   0.879   1.836 -0.1001 -0.0330  0.0017
 8265SOL    HW125694   2.564   0.805   1.777  0.5348 -1.4223  1.3409
 8265SOL    HW225695   2.516   0.936   1.861 -0.5533 -0.0904 -1.2308
 8266SOL     OW25696   1.501   2.705   3.047  0.2455  0.0170  0.2314
 8266SOL    HW125697   1.524   2.703   3.145  1.5422 -0.9892 -0.0590
 8266SOL    HW225698   1.563   2.644   2.998  0.5738  1.6256 -1.4221
 8267SOL     OW25699   6.738   1.997   1.726 -0.3143 -0.2506  0.4790
 8267SOL    HW125700   6.725   2.011   1.824 -1.4423 -0.7255  0.4187
 8267SOL    HW225701   6.681   2.061   1.675 -0.5829 -0.7472  0.1483
 8268SOL     OW25702   2.043   4.637   6.540  0.8615 -0.4116  0.1586
 8268SOL    HW125703   2.065   4.717   6.486 -1.2436 -1.1123 -1.9008
 8268SOL    HW225704   2.097   4.559   6.509  0.9911 -0.4015  0.3529
 8269SOL     OW25705   4.498   4.310   6.455  0.6428 -0.4451 -0.0977
 8269SOL    HW125706   4.549   4.307   6.541 -1.9288  3.8194  1.9076
 8269SOL    HW225707   4.533   4.384   6.397  0.8216 -1.7477 -1.7532
 8270SOL     OW25708   2.406   6.324   4.521 -0.6771  0.2182 -0.0887
 8270SOL    HW125709   2.403   6.251   4.452 -1.3822 -0.2641  0.4365
 8270SOL    HW225710   2.376   6.410   4.480 -1.3437 -0.1215 -0.3268
 8271SOL     OW25711   0.589   1.768   2.491  0.3419 -0.7790 -0.0639
 8271SOL    HW125712   0.595   1.697   2.561  1.1956  0.0813  0.7610
 8271SOL    HW225713   0.639   1.849   2.521 -1.1964  0.4427 -0.6693
 8272SOL     OW25714   5.673   0.924   3.385 -0.3887  0.6598 -0.4991
 8272SOL    HW125715   5.585   0.890   3.418 -0.9392  1.5617 -1.0142
 8272SOL    HW225716   5.726   0.848   3.348 -0.9193  0.1007 -0.1314
 8273SOL     OW25717   1.137   6.864   3.536  0.1545 -0.3580  0.6167
 8273SOL    HW125718   1.062   6.799   3.524 -0.4143  0.3292  0.3316
 8273SOL    HW225719   1.217   6.834   3.483 -0.3835 -0.3812 -0.2023
 8274SOL     OW25720   5.598   1.433   3.199 -0.3762 -0.3222 -0.3405
 8274SOL    HW125721   5.603   1.352   3.258  0.5178 -0.2921 -0.3605
 8274SOL    HW225722   5.543   1.504   3.243 -0.4801 -0.6375  0.0403
 8275SOL     OW25723   5.739   3.484   6.248  0.5013  0.4415  0.0601
 8275SOL    HW125724   5.663   3.430   6.212 -0.8756  1.2395  1.6107
 8275SOL    HW225725   5.768   3.551   6.180 -0.6531  0.5545 -0.3444
 8276SOL     OW25726   1.288   0.367   4.801 -0.1331  0.4240 -0.2948
 8276SOL    HW125727   1.299   0.275   4.838 -0.8586  0.8590  1.0745
 8276SOL    HW225728   1.372   0.419   4.816 -0.0363  0.2521 -0.2394
 8277SOL     OW25729   6.131   1.528   1.737 -0.4782  0.1199 -0.8513
 8277SOL    HW125730   6.132   1.627   1.751 -0.1920  0.4279 -2.7264
 8277SOL    HW225731   6.222   1.497   1.711 -0.3836 -0.7925  0.4562
 8278SOL     OW25732   0.771   3.970   0.167 -0.1809  0.3232 -0.5708
 8278SOL    HW125733   0.710   3.905   0.120  2.1891 -1.2018 -1.7343
 8278SOL    HW225734   0.843   4.000   0.105  2.2159 -0.5684  1.5867
 8279SOL     OW25735   1.273   6.711   5.282  0.6825  0.3061  0.2540
 8279SOL    HW125736   1.285   6.686   5.186  1.0363  0.1654  0.3347
 8279SOL    HW225737   1.269   6.628   5.338 -1.9444  0.2395  0.1121
 8280SOL     OW25738   2.559   1.117   0.441  0.1380 -0.3977  0.0282
 8280SOL    HW125739   2.503   1.049   0.393 -2.3843  1.8097 -0.3992
 8280SOL    HW225740   2.503   1.197   0.462  3.6165  3.1564 -2.6035
 8281SOL     OW25741   4.096   4.960   0.956 -0.0480  0.3719 -0.0844
 8281SOL    HW125742   4.163   4.895   0.921 -0.9060 -0.9151  0.6082
 8281SOL    HW225743   4.027   4.979   0.885 -1.9917 -2.5091  0.8585
 8282SOL     OW25744   0.671   4.136   5.115 -0.1048  0.2045  0.8623
 8282SOL    HW125745   0.619   4.197   5.054  0.6854  0.7807  0.7559
 8282SOL    HW225746   0.681   4.047   5.070  1.4659  0.9653 -0.4033
 8283SOL     OW25747   2.686   2.357   5.259 -0.1410  0.0361 -0.2989
 8283SOL    HW125748   2.784   2.346   5.277  0.1821  1.7768 -0.8031
 8283SOL    HW225749   2.654   2.282   5.202  0.5588 -1.3300  1.0359
 8284SOL     OW25750   6.977   5.192   3.115 -0.1854 -0.6079 -0.6939
 8284SOL    HW125751   7.045   5.210   3.186  1.6687 -2.0438 -1.9930
 8284SOL    HW225752   6.953   5.095   3.117 -1.0782 -0.4026 -1.2235
 8285SOL     OW25753   4.129   3.561   2.751 -0.3610 -0.1437 -0.3062
 8285SOL    HW125754   4.120   3.644   2.806 -0.3052 -0.4318  0.1477
 8285SOL    HW225755   4.204   3.505   2.788  0.1692  0.0060 -1.1319
 8286SOL     OW25756   1.065   4.329   6.351 -0.0629  0.1263  0.3183
 8286SOL    HW125757   1.006   4.286   6.419 -0.1752  1.1069  0.8547
 8286SOL    HW225758   1.157   4.338   6.389 -0.2173  1.0204  0.4894
 8287SOL     OW25759   2.869   6.529   5.077  0.8550 -0.1442 -0.3137
 8287SOL    HW125760   2.785   6.502   5.124  0.7074 -1.7691 -1.4221
 8287SOL    HW225761   2.948   6.500   5.131  0.6932 -0.0108 -0.0039
 8288SOL     OW25762   1.403   2.736   4.442  0.3283  0.3812  0.1857
 8288SOL    HW125763   1.491   2.724   4.489  1.5688 -1.2650 -2.3436
 8288SOL    HW225764   1.359   2.647   4.431  0.0011  0.7277 -1.5288
 8289SOL     OW25765   0.881   6.236   0.271 -0.1494 -0.3866 -0.1324
 8289SOL    HW125766   0.858   6.327   0.239  1.5666  0.8736  1.9171
 8289SOL    HW225767   0.900   6.239   0.370 -0.5608 -3.0797  0.1148
 8290SOL     OW25768   0.355   2.962   0.450 -0.5223 -0.1911 -0.1640
 8290SOL    HW125769   0.439   2.920   0.416 -0.8544 -2.1715  1.3189
 8290SOL    HW225770   0.368   3.061   0.456  1.0183 -0.2455 -1.7651
 8291SOL     OW25771   3.554   1.458   1.738 -0.0121  0.3304 -0.0848
 8291SOL    HW125772   3.526   1.550   1.767  0.6776  0.8245 -0.9505
 8291SOL    HW225773   3.514   1.439   1.649  0.3135  0.0135 -0.1618
 8292SOL     OW25774   2.189   6.461   5.155  0.3229  0.1072  0.0529
 8292SOL    HW125775   2.190   6.368   5.192 -1.1235  0.3435  0.7564
 8292SOL    HW225776   2.097   6.498   5.161 -0.0580  0.2261 -3.7322
 8293SOL     OW25777   5.778   6.825   6.911  0.1390  0.2117  0.1265
 8293SOL    HW125778   5.742   6.904   6.860 -0.5925  1.7526  2.8089
 8293SOL    HW225779   5.703   6.764   6.935 -0.6697  2.3259  3.8615
 8294SOL     OW25780   6.885   3.896   0.395  0.3574  0.2647 -0.5659
 8294SOL    HW125781   6.883   3.800   0.423  1.0951  0.5050  0.3506
 8294SOL    HW225782   6.936   3.905   0.310  0.6506 -0.0990 -0.4292
 8295SOL     OW25783   6.893   3.738   6.766  0.0281  0.2825 -0.1471
 8295SOL    HW125784   6.923   3.782   6.681  0.0348 -0.1310 -0.3606
 8295SOL    HW225785   6.943   3.652   6.778 -0.2352  0.1641  0.0931
 8296SOL     OW25786   1.359   4.790   5.702  0.7433  0.4022  0.5186
 8296SOL    HW125787   1.314   4.759   5.786  1.5496  1.0502  1.2105
 8296SOL    HW225788   1.458   4.776   5.710  0.8495  0.6371 -0.2579
 8297SOL     OW25789   1.984   4.811   3.345  0.3267  0.2760 -0.4839
 8297SOL    HW125790   2.016   4.870   3.271  0.0757 -0.6269 -1.3343
 8297SOL    HW225791   2.019   4.845   3.432  3.6705 -0.6589 -1.3125
 8298SOL     OW25792   4.744   2.835   4.112  0.2891  0.0732  0.1798
 8298SOL    HW125793   4.839   2.819   4.084 -0.1417  2.3092 -3.1051
 8298SOL    HW225794   4.683   2.780   4.056 -0.4552 -0.5744  1.5706
 8299SOL     OW25795   5.200   4.230   1.576 -0.2883  0.0665  0.5537
 8299SOL    HW125796   5.138   4.257   1.501 -0.7635  2.3405  1.6579
 8299SOL    HW225797   5.148   4.179   1.644 -1.0461  2.0042  1.4968
 8300SOL     OW25798   6.873   4.728   3.209  0.4340 -0.3997  0.0937
 8300SOL    HW125799   6.875   4.798   3.281  2.3723  0.2391 -0.5314
 8300SOL    HW225800   6.878   4.637   3.251  0.3444 -0.0863  0.8008
 8301SOL     OW25801   2.783   0.253   5.259 -0.7669  0.0874 -0.0832
 8301SOL    HW125802   2.870   0.207   5.277 -0.3091  1.0997  0.3791
 8301SOL    HW225803   2.744   0.219   5.174 -0.4220 -1.1113  0.2187
 8302SOL     OW25804   5.711   4.497   5.473 -0.0513  0.2656  0.2664
 8302SOL    HW125805   5.734   4.570   5.538 -0.7586 -0.3946  1.2765
 8302SOL    HW225806   5.686   4.539   5.385  0.0730  1.2167  0.6645
 8303SOL     OW25807   0.768   0.950   6.906 -0.2770 -0.5191  0.5588
 8303SOL    HW125808   0.804   0.943   6.813 -0.6957 -0.0822  0.3566
 8303SOL    HW225809   0.814   1.025   6.954 -0.8030 -0.0492  0.3450
 8304SOL     OW25810   0.473   2.041   0.663 -0.0791 -0.0809  0.6723
 8304SOL    HW125811   0.410   1.980   0.711  0.0503  1.3332  2.7295
 8304SOL    HW225812   0.557   2.050   0.715  0.2878  1.1065 -0.0870
 8305SOL     OW25813   3.571   4.894   3.525  0.0648 -0.1783  0.5763
 8305SOL    HW125814   3.581   4.994   3.519 -2.9813  0.2471  1.1341
 8305SOL    HW225815   3.614   4.851   3.446  0.9929  1.5965  0.0607
 8306SOL     OW25816   2.379   1.025   1.946 -0.5074 -0.5871  0.1029
 8306SOL    HW125817   2.330   1.022   2.033  2.3511 -0.1784  1.8573
 8306SOL    HW225818   2.372   1.117   1.907  0.8566  0.2153  1.6326
 8307SOL     OW25819   3.201   5.161   0.673 -0.6571 -0.3111  0.5075
 8307SOL    HW125820   3.116   5.175   0.622  0.4780  1.9819 -0.9183
 8307SOL    HW225821   3.263   5.105   0.619 -0.5622 -0.3979  0.7075
 8308SOL     OW25822   2.524   0.191   3.264  0.6030  0.2498  0.2048
 8308SOL    HW125823   2.562   0.236   3.344 -0.2169 -1.5164  1.6575
 8308SOL    HW225824   2.569   0.102   3.250 -0.9256 -0.5579  0.2084
 8309SOL     OW25825   5.877   6.554   2.210 -0.0025 -0.3178  0.7065
 8309SOL    HW125826   5.909   6.523   2.120 -0.4148  0.9882  0.0882
 8309SOL    HW225827   5.914   6.645   2.229 -1.3639  0.1818  1.0652
 8310SOL     OW25828   5.346   3.640   5.098  0.3990  0.1458  0.0543
 8310SOL    HW125829   5.442   3.612   5.091  0.4719  0.4320 -0.1037
 8310SOL    HW225830   5.288   3.559   5.102  0.5357 -0.0415 -1.3152
 8311SOL     OW25831   6.447   3.074   0.294  0.2281 -0.9253 -0.1343
 8311SOL    HW125832   6.468   3.008   0.366  0.2441 -0.6815  0.0856
 8311SOL    HW225833   6.374   3.135   0.325 -0.1928 -1.2075 -0.5610
 8312SOL     OW25834   3.347   4.703   0.545 -0.4273 -0.1396 -1.2273
 8312SOL    HW125835   3.290   4.622   0.536 -0.4080 -0.2691 -0.2940
 8312SOL    HW225836   3.321   4.753   0.628  0.2368  0.2584 -1.2531
 8313SOL     OW25837   4.368   6.313   1.516  0.3920  0.2073  0.4774
 8313SOL    HW125838   4.453   6.265   1.494  0.0344 -0.5355  0.6750
 8313SOL    HW225839   4.366   6.401   1.468  0.7860 -0.2493 -0.3975
 8314SOL     OW25840   0.606   0.098   4.959 -0.0443 -0.5011 -0.2960
 8314SOL    HW125841   0.634   0.016   4.910 -1.3106 -0.0938 -1.7987
 8314SOL    HW225842   0.507   0.109   4.951 -0.0112  0.6976  0.6377
 8315SOL     OW25843   5.150   6.232   6.645  0.4660 -0.1631  0.4700
 8315SOL    HW125844   5.187   6.144   6.672  0.7496 -0.4418 -0.7406
 8315SOL    HW225845   5.221   6.302   6.655  0.6802 -0.3269  0.1379
 8316SOL     OW25846   2.530   4.166   6.230 -0.0093  0.5594 -0.0110
 8316SOL    HW125847   2.450   4.226   6.232 -0.2519  0.2145  0.7527
 8316SOL    HW225848   2.613   4.222   6.224 -0.2621  0.9439  0.0317
 8317SOL     OW25849   3.531   5.944   2.672  0.1715 -0.0435 -0.2671
 8317SOL    HW125850   3.551   6.025   2.727 -0.5034  0.0434 -0.1370
 8317SOL    HW225851   3.597   5.871   2.694 -1.4734 -0.8582  2.4538
 8318SOL     OW25852   3.439   0.505   4.983 -0.4651  0.0684 -0.2736
 8318SOL    HW125853   3.530   0.488   5.021  0.4343  1.3673 -1.7148
 8318SOL    HW225854   3.369   0.482   5.051  1.0002  1.0401  1.6381
 8319SOL     OW25855   2.950   1.878   4.302  0.0027 -0.6022  0.5017
 8319SOL    HW125856   2.891   1.947   4.342  1.1507  0.5869  0.1979
 8319SOL    HW225857   3.015   1.846   4.371  0.3726 -0.3610  0.2665
 8320SOL     OW25858   2.805   5.954   0.794  0.4103  0.1575 -0.4968
 8320SOL    HW125859   2.835   6.011   0.870  0.8214  1.8051 -1.8382
 8320SOL    HW225860   2.711   5.979   0.768  0.6907  0.4267 -1.2705
 8321SOL     OW25861   5.868   1.774   1.885 -0.2872  0.2530 -0.4865
 8321SOL    HW125862   5.841   1.858   1.932  3.5812  1.2168  0.3362
 8321SOL    HW225863   5.848   1.696   1.944  0.7001  1.1000  1.0374
 8322SOL     OW25864   4.329   4.857   0.230  0.2236 -0.4137  0.0754
 8322SOL    HW125865   4.264   4.863   0.154 -0.0801  2.6467  0.4694
 8322SOL    HW225866   4.280   4.866   0.317  0.9103 -0.7497  0.5044
 8323SOL     OW25867   0.084   1.683   1.726  0.7999  0.0114 -0.2805
 8323SOL    HW125868   0.152   1.687   1.652  1.0787  0.5881 -0.0018
 8323SOL    HW225869   0.130   1.667   1.813  0.6513  1.0066 -0.0083
 8324SOL     OW25870   0.883   0.739   3.249  0.2115 -0.0115 -0.4885
 8324SOL    HW125871   0.939   0.719   3.168  0.2131  1.5106 -0.8776
 8324SOL    HW225872   0.788   0.719   3.228  0.4831 -2.1395  0.0186
 8325SOL     OW25873   2.418   4.162   5.347  0.3455 -0.4038  0.9131
 8325SOL    HW125874   2.407   4.091   5.277 -0.0122  1.3651 -0.9251
 8325SOL    HW225875   2.515   4.175   5.365  0.6242  0.6635 -1.0321
 8326SOL     OW25876   4.913   3.739   6.041  0.2669 -0.5025 -0.0711
 8326SOL    HW125877   4.912   3.785   5.952  0.0693  0.3903  0.3765
 8326SOL    HW225878   4.949   3.802   6.111  0.7613 -1.3123  0.4179
 8327SOL     OW25879   5.293   2.545   5.038  0.2130  0.2551  0.0204
 8327SOL    HW125880   5.375   2.561   4.983 -0.0753 -0.6890 -0.6912
 8327SOL    HW225881   5.213   2.535   4.979 -0.3278  0.5141  0.6784
 8328SOL     OW25882   2.060   3.275   4.502 -0.1480 -0.2003 -0.6372
 8328SOL    HW125883   2.106   3.364   4.501 -0.5997  0.0371 -0.4131
 8328SOL    HW225884   2.037   3.251   4.597 -1.6145  0.2677 -0.8565
 8329SOL     OW25885   2.566   4.657   5.132  0.3379 -0.4004  0.0276
 8329SOL    HW125886   2.602   4.665   5.225  0.1431 -0.3727  0.1029
 8329SOL    HW225887   2.641   4.655   5.067  0.5757 -2.3239  0.3046
 8330SOL     OW25888   1.298   5.522   1.178  0.1563  1.0703  0.2236
 8330SOL    HW125889   1.326   5.554   1.087  1.1119  0.3120  0.2461
 8330SOL    HW225890   1.367   5.460   1.215 -1.2841 -0.4412  0.5027
 8331SOL     OW25891   2.696   6.850   0.458  0.1340 -0.1844  0.0762
 8331SOL    HW125892   2.785   6.895   0.459  1.2873 -2.3561  0.0978
 8331SOL    HW225893   2.703   6.761   0.413 -2.1659 -0.1827 -0.4368
 8332SOL     OW25894   4.954   5.884   3.299  0.1712 -0.0017 -0.4242
 8332SOL    HW125895   5.031   5.906   3.239 -0.2553 -1.5757 -1.6131
 8332SOL    HW225896   4.872   5.933   3.269  0.7969  2.2554  1.2841
 8333SOL     OW25897   0.806   6.208   3.827  0.0124  0.0943  0.0294
 8333SOL    HW125898   0.803   6.114   3.859 -0.2168  0.5236  1.3076
 8333SOL    HW225899   0.772   6.212   3.732 -0.4414 -1.0281  0.1325
 8334SOL     OW25900   0.081   0.747   3.294 -0.0881 -0.1580 -0.0133
 8334SOL    HW125901   0.167   0.741   3.345 -0.4122 -1.4457  0.4279
 8334SOL    HW225902   0.012   0.793   3.350  0.5282  1.7582 -0.7287
 8335SOL     OW25903   6.344   2.231   4.808 -0.0344  0.1264 -0.0908
 8335SOL    HW125904   6.347   2.267   4.715 -0.7814  1.2552  0.3019
 8335SOL    HW225905   6.407   2.282   4.866  0.9090 -0.9893 -0.0888
 8336SOL     OW25906   1.234   0.714   2.520 -0.8684 -0.2527  0.1125
 8336SOL    HW125907   1.260   0.762   2.436  1.7149 -0.5009  0.6652
 8336SOL    HW225908   1.173   0.771   2.575  1.5601  2.2236  0.4584
 8337SOL     OW25909   6.751   0.261   0.609  0.3151  0.3602  0.0106
 8337SOL    HW125910   6.698   0.176   0.600  3.0527 -1.6197  1.1968
 8337SOL    HW225911   6.760   0.305   0.519  0.1481 -1.4654 -0.9406
 8338SOL     OW25912   2.771   5.565   5.729  0.5265 -0.1154 -0.3076
 8338SOL    HW125913   2.782   5.481   5.781  0.6465 -0.4276 -0.8310
 8338SOL    HW225914   2.680   5.567   5.688 -0.3394  1.0450  1.5083
 8339SOL     OW25915   5.524   7.013   3.570  0.1845  0.6422  0.3571
 8339SOL    HW125916   5.529   7.110   3.547 -1.1452  0.6313 -0.0945
 8339SOL    HW225917   5.493   6.961   3.490  0.2203 -0.0636  0.7876
 8340SOL     OW25918   5.045   4.166   0.356  0.1462  0.0747  0.4971
 8340SOL    HW125919   4.963   4.109   0.358 -1.1651  1.8472  0.1573
 8340SOL    HW225920   5.072   4.188   0.450  0.0653 -0.2659  0.6035
 8341SOL     OW25921   1.879   1.909   0.512  0.2149  0.1737 -0.3124
 8341SOL    HW125922   1.797   1.859   0.486  0.9061 -1.5895  0.7604
 8341SOL    HW225923   1.944   1.908   0.435 -0.3578  0.7548 -0.8207
 8342SOL     OW25924   5.672   6.776   2.189  0.1354  0.0703  0.0962
 8342SOL    HW125925   5.733   6.851   2.213  0.2861  0.0971 -0.3582
 8342SOL    HW225926   5.722   6.689   2.197  0.2031  0.0842 -0.1793
 8343SOL     OW25927   5.827   4.548   5.054  0.2836 -0.4416  0.4917
 8343SOL    HW125928   5.920   4.516   5.070  0.7285  0.0430 -0.9756
 8343SOL    HW225929   5.807   4.544   4.956 -0.8007  0.6232  0.6503
 8344SOL     OW25930   5.898   6.481   4.754 -0.4154  0.4591  0.1732
 8344SOL    HW125931   5.941   6.399   4.791 -0.6652 -0.0966 -0.7360
 8344SOL    HW225932   5.926   6.560   4.808 -0.4700 -0.2612  1.3015
 8345SOL     OW25933   4.495   0.335   4.767  0.3061 -0.5436 -0.3627
 8345SOL    HW125934   4.545   0.277   4.831  1.6297 -0.0920 -0.9479
 8345SOL    HW225935   4.409   0.291   4.740  0.1594 -1.1296  1.0193
 8346SOL     OW25936   5.255   4.538   0.712 -0.2517  0.2492 -0.3514
 8346SOL    HW125937   5.288   4.511   0.802  1.4726  2.1533 -0.3268
 8346SOL    HW225938   5.164   4.579   0.720  0.4418  1.6543  0.7689
 8347SOL     OW25939   2.920   5.174   2.400  0.6708  0.1869 -0.4011
 8347SOL    HW125940   2.943   5.188   2.304  1.0669 -2.3585 -0.7596
 8347SOL    HW225941   2.921   5.076   2.420 -0.0183  0.6186  2.0656
 8348SOL     OW25942   1.030   0.299   0.863 -0.1529  0.0438 -0.6790
 8348SOL    HW125943   0.998   0.213   0.821 -0.8946  0.5161 -1.1004
 8348SOL    HW225944   0.980   0.376   0.824 -2.5706  0.3587  2.6030
 8349SOL     OW25945   5.320   4.270   2.350 -0.6234  0.0823 -0.7619
 8349SOL    HW125946   5.235   4.218   2.342  0.8686 -2.6612 -0.0368
 8349SOL    HW225947   5.392   4.211   2.386  1.4785  2.4659 -0.7807
 8350SOL     OW25948   5.239   0.175   3.726  0.2260 -0.5578 -0.0050
 8350SOL    HW125949   5.309   0.242   3.699 -0.5843  0.4521  0.3194
 8350SOL    HW225950   5.270   0.126   3.807  1.7994 -2.1921 -1.5159
 8351SOL     OW25951   1.354   5.657   3.083  0.1741 -0.7047 -0.0142
 8351SOL    HW125952   1.364   5.562   3.055  0.2660 -0.3132 -1.3763
 8351SOL    HW225953   1.440   5.706   3.067 -0.3367 -0.0427 -0.8063
 8352SOL     OW25954   3.767   0.144   2.675 -0.3068 -0.0082  0.5263
 8352SOL    HW125955   3.788   0.076   2.746  0.6757 -0.7822 -0.4669
 8352SOL    HW225956   3.719   0.221   2.716 -3.2308 -2.1075  1.4248
 8353SOL     OW25957   1.839   4.433   0.741  0.3639  0.1684  0.3543
 8353SOL    HW125958   1.820   4.399   0.833 -0.2403 -0.8772 -0.1468
 8353SOL    HW225959   1.758   4.479   0.705  0.2018 -0.4717 -0.1091
 8354SOL     OW25960   2.716   0.513   1.602  0.0051 -0.2875  0.3565
 8354SOL    HW125961   2.788   0.583   1.603 -0.2383 -0.0370  0.7281
 8354SOL    HW225962   2.673   0.511   1.512 -1.3159  1.4428  0.8874
 8355SOL     OW25963   2.849   0.458   0.492 -0.5816 -0.4640 -0.1604
 8355SOL    HW125964   2.756   0.479   0.522 -0.3542  0.4799 -0.0791
 8355SOL    HW225965   2.866   0.504   0.405 -0.2340 -0.7402 -0.2358
 8356SOL     OW25966   3.669   3.747   6.740  0.5459 -0.0386 -0.3326
 8356SOL    HW125967   3.720   3.795   6.668 -0.0838 -0.0818 -0.8165
 8356SOL    HW225968   3.731   3.725   6.815  0.9465  1.1325 -0.2944
 8357SOL     OW25969   3.742   5.931   2.023 -0.8216 -0.1661  0.4365
 8357SOL    HW125970   3.704   6.020   1.998 -2.1038 -0.9040 -0.3771
 8357SOL    HW225971   3.672   5.860   2.010  0.6894 -1.5372 -0.7276
 8358SOL     OW25972   2.354   3.085   0.546 -0.2953  0.1628  0.6717
 8358SOL    HW125973   2.424   3.024   0.584  0.4057  0.1350 -0.6055
 8358SOL    HW225974   2.368   3.093   0.447 -2.7173 -0.6790  0.1951
 8359SOL     OW25975   5.061   4.000   2.627 -0.3353  0.5471  0.1402
 8359SOL    HW125976   4.985   4.022   2.564  0.4602  1.7697 -0.4452
 8359SOL    HW225977   5.140   3.970   2.574  0.3198  1.5104  0.5457
 8360SOL     OW25978   5.386   6.868   3.771 -0.3136 -0.0240  0.6972
 8360SOL    HW125979   5.383   6.774   3.737 -0.0187 -0.7363  2.5172
 8360SOL    HW225980   5.417   6.929   3.698  0.7278 -1.5234 -0.1684
 8361SOL     OW25981   2.625   6.837   1.839 -0.7484  0.1500 -0.4227
 8361SOL    HW125982   2.626   6.903   1.914  0.5619 -0.0311 -0.2615
 8361SOL    HW225983   2.654   6.882   1.755 -1.0860  0.0780 -0.5778
 8362SOL     OW25984   3.712   2.146   1.115 -0.1142 -0.1457 -0.1454
 8362SOL    HW125985   3.755   2.063   1.150  1.2820  0.3765 -0.5527
 8362SOL    HW225986   3.678   2.129   1.022  0.7981 -0.0956 -0.5056
 8363SOL     OW25987   6.514   3.304   1.142  0.4405  0.5846 -0.5450
 8363SOL    HW125988   6.602   3.275   1.105  0.1469 -1.0892  0.0033
 8363SOL    HW225989   6.509   3.280   1.239 -1.9855 -2.8569 -1.3275
 8364SOL     OW25990   6.884   5.341   5.009 -0.4240 -0.1797  0.0792
 8364SOL    HW125991   6.880   5.340   4.909 -1.8024  0.8418  0.1040
 8364SOL    HW225992   6.792   5.333   5.047  0.1541 -1.6020  1.3141
 8365SOL     OW25993   3.925   2.896   5.826 -0.0803  0.7315  0.0437
 8365SOL    HW125994   3.883   2.860   5.910 -2.2238 -1.7859 -1.9478
 8365SOL    HW225995   3.999   2.836   5.798 -0.9060  0.2158 -1.0804
 8366SOL     OW25996   1.965   5.402   0.998  0.1763 -0.0166  0.2314
 8366SOL    HW125997   2.022   5.341   0.943 -0.1147 -0.3207  0.2586
 8366SOL    HW225998   2.010   5.490   1.008  0.4079 -0.0869 -0.1716
 8367SOL     OW25999   6.051   3.384   4.672 -0.3465 -0.2978 -0.9304
 8367SOL    HW126000   5.971   3.442   4.657  0.9062  1.8468  0.1967
 8367SOL    HW226001   6.039   3.332   4.756  0.3249  1.7632  0.5082
 8368SOL     OW26002   0.709   6.531   6.501 -0.5572 -0.2102  0.9379
 8368SOL    HW126003   0.711   6.457   6.568  1.3907  0.0493  1.2220
 8368SOL    HW226004   0.791   6.527   6.443  0.1528  2.2576  1.6121
 8369SOL     OW26005   3.679   6.370   1.205 -0.4678 -0.1309 -0.5313
 8369SOL    HW126006   3.777   6.386   1.190 -0.1349 -0.9105  0.6756
 8369SOL    HW226007   3.634   6.355   1.117  0.1712  1.8522 -1.2650
 8370SOL     OW26008   2.724   0.250   1.010  0.4197  0.2538 -0.2106
 8370SOL    HW126009   2.739   0.156   0.980 -0.5069  0.4857 -1.5035
 8370SOL    HW226010   2.805   0.305   0.990  0.6977 -0.1139 -0.1057
 8371SOL     OW26011   2.872   0.651   6.233 -0.2838  0.2661 -0.1579
 8371SOL    HW126012   2.970   0.650   6.213  0.2847  4.5198  1.2525
 8371SOL    HW226013   2.844   0.561   6.265  2.9027 -1.3802 -1.4974
 8372SOL     OW26014   6.211   3.114   0.845  0.6125  0.1564 -0.2365
 8372SOL    HW126015   6.213   3.176   0.766 -0.4691 -0.9888 -1.1967
 8372SOL    HW226016   6.136   3.141   0.906 -0.2238 -0.5373 -0.9453
 8373SOL     OW26017   0.703   0.297   4.185  0.1820  0.4574 -0.4170
 8373SOL    HW126018   0.683   0.200   4.169 -2.5731  0.6325  1.1993
 8373SOL    HW226019   0.659   0.352   4.113 -0.2957  0.5969 -0.0234
 8374SOL     OW26020   0.468   1.621   5.307 -0.3994 -0.5805 -0.2090
 8374SOL    HW126021   0.483   1.534   5.354 -0.0234 -1.0106 -1.1034
 8374SOL    HW226022   0.488   1.696   5.370  0.5761 -1.1419  0.1815
 8375SOL     OW26023   4.694   1.162   6.210 -0.1666  0.0429 -0.0840
 8375SOL    HW126024   4.764   1.143   6.142 -0.2244  1.8973 -0.7299
 8375SOL    HW226025   4.606   1.126   6.179 -0.2662  1.2062 -1.2051
 8376SOL     OW26026   4.918   5.306   1.840  0.2483 -0.8054  0.0877
 8376SOL    HW126027   4.879   5.220   1.810  1.5755 -1.1122 -0.8782
 8376SOL    HW226028   4.860   5.382   1.809 -0.0188 -1.2758 -0.5952
 8377SOL     OW26029   2.972   4.685   1.181  0.2600  0.6205  0.1802
 8377SOL    HW126030   2.998   4.779   1.206 -1.9532  0.9198  1.6583
 8377SOL    HW226031   2.966   4.629   1.263  1.9489 -0.9844 -0.7274
 8378SOL     OW26032   5.834   2.323   2.241  0.1634  0.1456 -0.3602
 8378SOL    HW126033   5.756   2.279   2.198  0.9429 -0.7245 -0.9208
 8378SOL    HW226034   5.813   2.345   2.336 -1.0230  0.6364 -0.7246
 8379SOL     OW26035   3.640   1.525   4.008  0.1066 -0.3657 -0.3239
 8379SOL    HW126036   3.547   1.523   3.972 -0.4682 -1.2514  1.1307
 8379SOL    HW226037   3.700   1.472   3.947 -0.1299  0.8815 -1.7027
 8380SOL     OW26038   5.653   5.951   4.058 -0.3874 -0.2895  0.3138
 8380SOL    HW126039   5.556   5.976   4.050 -0.1394  0.8678  0.7828
 8380SOL    HW226040   5.681   5.902   3.976 -1.4723 -0.9869  0.3430
 8381SOL     OW26041   1.074   6.536   3.404  0.0938  0.3770 -0.1287
 8381SOL    HW126042   1.039   6.588   3.482 -0.0620  0.1475 -0.0406
 8381SOL    HW226043   1.033   6.444   3.405 -1.5435  1.0150 -1.6278
 8382SOL     OW26044   1.688   4.804   1.455 -0.1270 -0.1273 -0.3251
 8382SOL    HW126045   1.756   4.767   1.391  0.4518  0.7225 -0.2186
 8382SOL    HW226046   1.604   4.827   1.405 -0.5891 -1.7723 -0.3560
 8383SOL     OW26047   3.794   6.627   4.370  0.2939  0.5288 -0.1172
 8383SOL    HW126048   3.774   6.611   4.274  0.4853 -1.0198  0.0715
 8383SOL    HW226049   3.713   6.662   4.416  0.1812  1.2126 -0.8212
 8384SOL     OW26050   1.245   6.435   6.782 -0.2329  0.1022 -0.3112
 8384SOL    HW126051   1.256   6.379   6.700 -0.8578 -0.3287 -0.1062
 8384SOL    HW226052   1.156   6.417   6.824  0.3830 -0.2546  0.8994
 8385SOL     OW26053   5.520   1.466   3.584  0.2071 -0.0015 -0.0766
 8385SOL    HW126054   5.591   1.532   3.561 -1.0061  0.5000 -2.7251
 8385SOL    HW226055   5.559   1.374   3.583  1.1031  0.3682 -0.0383
 8386SOL     OW26056   6.565   4.455   0.609 -0.4236  0.0736  0.1622
 8386SOL    HW126057   6.555   4.550   0.641 -1.0474 -0.3659  1.3424
 8386SOL    HW226058   6.658   4.424   0.625  0.1277  0.8514 -1.3298
 8387SOL     OW26059   2.216   2.158   1.670  0.5440  0.4443 -0.2679
 8387SOL    HW126060   2.209   2.165   1.769  0.7695 -0.3683 -0.1817
 8387SOL    HW226061   2.126   2.171   1.628  0.4167  0.6091  0.0571
 8388SOL     OW26062   1.182   6.769   2.402  0.0242  0.4250  0.2730
 8388SOL    HW126063   1.150   6.759   2.496 -0.5020  3.8525  0.5945
 8388SOL    HW226064   1.277   6.802   2.403 -0.2486  1.2538 -0.3592
 8389SOL     OW26065   5.451   1.261   2.770 -0.5982 -0.1657  0.9294
 8389SOL    HW126066   5.518   1.335   2.765 -1.7335  0.8859  0.4913
 8389SOL    HW226067   5.439   1.232   2.865 -1.1912  1.2514  1.3140
 8390SOL     OW26068   6.398   2.492   0.235  0.2975 -0.1535  0.3852
 8390SOL    HW126069   6.329   2.427   0.267  0.6480 -0.8420 -0.2378
 8390SOL    HW226070   6.447   2.454   0.157  0.4338  0.9079 -0.0685
 8391SOL     OW26071   1.062   5.948   1.146  0.3622 -0.1438  0.5877
 8391SOL    HW126072   1.094   6.039   1.117  2.1721 -0.8342  0.2779
 8391SOL    HW226073   1.134   5.902   1.198 -0.6622 -1.2785  1.0575
 8392SOL     OW26074   3.609   2.824   4.847  0.3828 -0.0692  0.4956
 8392SOL    HW126075   3.614   2.850   4.944 -0.3618  0.4543  0.4041
 8392SOL    HW226076   3.640   2.730   4.836  1.5282  0.2150  1.0868
 8393SOL     OW26077   3.632   1.813   3.484  0.0722 -0.1065 -0.2259
 8393SOL    HW126078   3.666   1.727   3.523  1.2344  0.6463  0.4713
 8393SOL    HW226079   3.676   1.829   3.396 -0.9277 -0.7280 -0.8537
 8394SOL     OW26080   5.802   3.222   0.115 -0.5608  0.4155 -0.4268
 8394SOL    HW126081   5.888   3.257   0.151 -0.5839  1.9866 -1.7946
 8394SOL    HW226082   5.783   3.132   0.156  0.4115  1.1720  1.8450
 8395SOL     OW26083   1.836   0.948   6.925  0.6745 -0.1239 -0.4423
 8395SOL    HW126084   1.921   0.900   6.945  1.3530  0.4943 -1.7343
 8395SOL    HW226085   1.818   1.016   6.997  1.8496  0.4919 -0.7110
 8396SOL     OW26086   4.753   4.940   3.784 -0.0991 -0.3782 -0.5997
 8396SOL    HW126087   4.817   4.918   3.710  2.7434 -1.2278  1.8996
 8396SOL    HW226088   4.714   4.855   3.821 -0.2665 -0.1010 -0.1324
 8397SOL     OW26089   4.850   5.301   2.219 -0.3404 -0.2885 -0.2385
 8397SOL    HW126090   4.816   5.311   2.313 -0.5566  0.9649 -0.4259
 8397SOL    HW226091   4.787   5.242   2.167 -1.2390  0.4979 -0.0766
 8398SOL     OW26092   6.630   1.958   6.973  0.1441  0.4393 -0.5812
 8398SOL    HW126093   6.631   1.993   6.879  0.2439 -0.7876 -1.0588
 8398SOL    HW226094   6.538   1.923   6.994 -0.4585  2.4942  0.5008
 8399SOL     OW26095   0.646   5.722   5.560 -0.1180 -0.4194  0.2256
 8399SOL    HW126096   0.583   5.759   5.492  2.0930 -0.3675 -1.9567
 8399SOL    HW226097   0.610   5.638   5.598 -2.3869  0.6600  0.6104
 8400SOL     OW26098   6.377   6.608   3.252 -0.0098  0.5076 -0.1306
 8400SOL    HW126099   6.420   6.564   3.173 -0.8382  1.0014 -0.8783
 8400SOL    HW226100   6.419   6.697   3.269 -0.3836  0.7596 -0.5294
 8401SOL     OW26101   0.737   0.828   4.800  0.2823  0.0228  0.0175
 8401SOL    HW126102   0.748   0.858   4.895 -2.2079 -0.4098  0.5150
 8401SOL    HW226103   0.671   0.753   4.796  0.4171 -0.0372 -2.0445
 8402SOL     OW26104   3.492   6.707   0.080 -0.0653  0.1764 -0.1716
 8402SOL    HW126105   3.481   6.802   0.053 -1.2489  0.0768 -0.0978
 8402SOL    HW226106   3.572   6.667   0.034 -0.7279  0.6297 -1.7634
 8403SOL     OW26107   6.514   4.396   6.317 -0.3492  0.2684  0.1009
 8403SOL    HW126108   6.527   4.398   6.416 -0.9949  0.9441  0.1797
 8403SOL    HW226109   6.492   4.488   6.284  1.5120  0.4135 -0.9107
 8404SOL     OW26110   2.290   4.322   1.076  0.1202  0.0857  0.1330
 8404SOL    HW126111   2.262   4.232   1.108  1.0425 -0.1144  0.4048
 8404SOL    HW226112   2.346   4.367   1.146  1.4476 -0.0103 -0.8312
 8405SOL     OW26113   3.443   6.960   4.026  0.0242 -0.2829 -0.4182
 8405SOL    HW126114   3.509   6.897   4.066  0.1636 -0.6309 -1.1849
 8405SOL    HW226115   3.439   6.946   3.927  0.2620  1.0990 -0.6397
 8406SOL     OW26116   0.393   2.209   0.316 -0.1335 -0.3511  0.1922
 8406SOL    HW126117   0.327   2.271   0.359  2.3035  0.8476  2.4250
 8406SOL    HW226118   0.395   2.123   0.367 -1.3049 -1.1780 -1.0763
 8407SOL     OW26119   4.971   0.286   3.726 -0.6142  0.4916  0.1235
 8407SOL    HW126120   5.055   0.233   3.741  0.0575 -0.0433 -4.1923
 8407SOL    HW226121   4.892   0.224   3.729 -0.0827 -0.4183 -2.3107
 8408SOL     OW26122   4.117   2.310   1.498  0.4634 -0.3616  0.0593
 8408SOL    HW126123   4.026   2.294   1.458  0.2292 -0.3364  0.5736
 8408SOL    HW226124   4.133   2.244   1.571  0.9073 -0.4339 -0.0992
 8409SOL     OW26125   4.201   1.200   2.902  0.1950 -0.5296  0.7505
 8409SOL    HW126126   4.273   1.162   2.844  0.7666  0.2822  0.9169
 8409SOL    HW226127   4.169   1.129   2.965  0.8058 -0.9208  0.6365
 8410SOL     OW26128   6.388   1.562   0.713 -0.4804 -0.3029 -0.2493
 8410SOL    HW126129   6.313   1.591   0.773  0.4526  0.3114  0.6369
 8410SOL    HW226130   6.475   1.595   0.749  0.0347  0.9490 -2.4720
 8411SOL     OW26131   5.945   5.442   0.660 -0.2497 -0.3391  0.4550
 8411SOL    HW126132   6.008   5.520   0.655 -2.6278  1.6715  0.0937
 8411SOL    HW226133   5.872   5.462   0.725 -1.4315 -1.8960 -0.3237
 8412SOL     OW26134   1.239   0.914   1.844  0.2231  0.0210  0.2973
 8412SOL    HW126135   1.330   0.956   1.843  0.3685 -0.2043 -1.8594
 8412SOL    HW226136   1.232   0.850   1.767 -1.5777 -0.3794  0.7634
 8413SOL     OW26137   3.283   4.599   5.325 -0.1904  0.2799  1.0773
 8413SOL    HW126138   3.218   4.657   5.277  0.3196  0.8526  1.0691
 8413SOL    HW226139   3.373   4.643   5.327  0.3167 -0.6969  0.7033
 8414SOL     OW26140   3.080   0.590   1.709  0.1272 -0.5337  0.0012
 8414SOL    HW126141   3.078   0.497   1.670  1.0090 -0.6632  0.2415
 8414SOL    HW226142   3.015   0.647   1.660  1.9732 -0.3803 -2.5384
 8415SOL     OW26143   4.785   1.055   6.451  0.9743  0.3640  0.0583
 8415SOL    HW126144   4.753   1.074   6.358  0.6342 -1.6345 -0.2874
 8415SOL    HW226145   4.875   1.011   6.447  0.0072 -1.8115  0.4673
 8416SOL     OW26146   1.347   3.069   5.308  0.2532  0.5501  0.3570
 8416SOL    HW126147   1.269   3.129   5.327  1.3820  1.6581  1.7232
 8416SOL    HW226148   1.392   3.098   5.224  0.3552  1.1709  0.6209
 8417SOL     OW26149   1.706   3.478   1.494 -0.3006  0.0358 -0.0137
 8417SOL    HW126150   1.665   3.388   1.482  0.7345 -0.4214 -0.2603
 8417SOL    HW226151   1.772   3.494   1.421 -0.1585  0.8129  0.2759
 8418SOL     OW26152   1.275   5.015   1.454  0.0315 -0.3629 -0.5704
 8418SOL    HW126153   1.300   4.939   1.514  0.8811  0.7055  0.4989
 8418SOL    HW226154   1.175   5.021   1.447 -0.1001 -0.4969  0.8042
 8419SOL     OW26155   2.835   0.840   5.466 -0.3213  0.3895 -0.0749
 8419SOL    HW126156   2.922   0.794   5.449 -0.7402 -0.9521  1.2114
 8419SOL    HW226157   2.764   0.798   5.410 -0.6643 -0.4291  0.9473
 8420SOL     OW26158   4.555   1.890   3.011 -0.6015  0.1372 -0.4688
 8420SOL    HW126159   4.510   1.805   3.037  0.6214 -0.9904 -1.8510
 8420SOL    HW226160   4.648   1.892   3.048 -0.6756  0.9535 -0.3066
 8421SOL     OW26161   5.135   0.089   0.879  0.0238  0.1655  0.1363
 8421SOL    HW126162   5.052   0.059   0.926 -0.8081 -0.0295 -1.4069
 8421SOL    HW226163   5.134   0.055   0.785  1.0260  1.6316 -0.4272
 8422SOL     OW26164   3.993   2.180   4.544 -0.1828 -0.2057 -0.3633
 8422SOL    HW126165   4.065   2.228   4.593  1.0237 -0.6383 -1.6585
 8422SOL    HW226166   4.028   2.146   4.457 -1.2035 -2.7051  0.0951
 8423SOL     OW26167   5.254   6.763   6.360 -0.4527 -0.4705 -0.4394
 8423SOL    HW126168   5.205   6.809   6.285  0.8273 -0.2084 -1.1325
 8423SOL    HW226169   5.285   6.673   6.331  0.7012 -0.0717 -0.4932
 8424SOL     OW26170   3.560   6.162   5.702  0.0777 -0.4603 -0.1835
 8424SOL    HW126171   3.522   6.119   5.784  0.1827  0.6791  0.4773
 8424SOL    HW226172   3.619   6.096   5.654 -2.1908 -2.0925 -0.9157
 8425SOL     OW26173   3.488   4.087   1.837  0.7611 -0.5436 -0.3714
 8425SOL    HW126174   3.526   4.178   1.820  0.8733 -0.7517 -1.2650
 8425SOL    HW226175   3.417   4.093   1.907  0.2392  0.3605 -0.9596
 8426SOL     OW26176   4.132   3.368   1.935  0.1002 -0.5024 -0.3087
 8426SOL    HW126177   4.133   3.338   2.031  0.4791  0.1275 -0.1118
 8426SOL    HW226178   4.209   3.326   1.887 -0.1571 -0.9096 -0.3662
 8427SOL     OW26179   2.956   3.776   3.004  0.8965  0.4384  0.2922
 8427SOL    HW126180   3.018   3.725   2.944  0.6976  1.2939 -0.6720
 8427SOL    HW226181   3.005   3.853   3.044  0.6449  0.7058  0.0857
 8428SOL     OW26182   4.106   0.937   2.412  0.5046  0.0285 -0.0233
 8428SOL    HW126183   4.045   0.893   2.347 -0.4453  1.4909 -0.1830
 8428SOL    HW226184   4.053   0.971   2.490  1.6092 -1.6749  1.5557
 8429SOL     OW26185   1.796   6.313   5.169  0.0933 -0.2370 -0.4783
 8429SOL    HW126186   1.854   6.394   5.179  0.8365 -0.8842  0.6397
 8429SOL    HW226187   1.817   6.267   5.083 -1.0403  1.2781 -1.6121
 8430SOL     OW26188   4.758   0.718   4.892 -0.0147  0.3369 -0.3559
 8430SOL    HW126189   4.772   0.719   4.793  0.6124 -1.6303 -0.3428
 8430SOL    HW226190   4.732   0.625   4.920  0.0957  0.7991  1.3590
 8431SOL     OW26191   2.885   4.080   6.017 -0.0047  0.3704  0.8924
 8431SOL    HW126192   2.862   4.015   6.089 -0.5976 -1.0090 -0.4753
 8431SOL    HW226193   2.978   4.063   5.985  0.4413  1.3163  1.6600
 8432SOL     OW26194   6.145   6.558   5.168  0.7343 -0.2523 -0.2216
 8432SOL    HW126195   6.049   6.579   5.185  1.1189  0.4834  1.1746
 8432SOL    HW226196   6.154   6.462   5.140 -0.6026  0.2435 -2.5621
 8433SOL     OW26197   3.780   0.892   0.019  0.5029  0.2061 -0.1061
 8433SOL    HW126198   3.696   0.854  -0.020  0.7074 -0.2927 -0.0718
 8433SOL    HW226199   3.855   0.828   0.003  1.4480  1.7886 -2.4498
 8434SOL     OW26200   2.573   5.150   3.808  0.3301  0.2453  0.8244
 8434SOL    HW126201   2.500   5.211   3.839  1.1819  0.9099  1.5760
 8434SOL    HW226202   2.631   5.199   3.743 -0.7294 -0.7500 -0.9641
 8435SOL     OW26203   6.669   2.075   2.566  0.3446 -0.1247 -0.1182
 8435SOL    HW126204   6.723   2.107   2.644 -0.4015  0.8841  0.0081
 8435SOL    HW226205   6.597   2.142   2.546 -0.9377 -1.4751 -0.2038
 8436SOL     OW26206   2.418   4.147   6.630  0.2697 -0.1591  0.2566
 8436SOL    HW126207   2.319   4.154   6.635  0.3060 -0.3239  3.9590
 8436SOL    HW226208   2.444   4.084   6.557 -2.3104 -0.1761 -0.7277
 8437SOL     OW26209   3.140   5.956   1.601 -0.0558 -0.0037  0.0900
 8437SOL    HW126210   3.206   5.988   1.533  0.7975 -1.0370  0.4030
 8437SOL    HW226211   3.151   5.857   1.614 -1.9721 -0.2916 -0.1645
 8438SOL     OW26212   1.314   3.483   0.990  0.1230 -0.4295 -0.1928
 8438SOL    HW126213   1.375   3.409   0.962  2.6786  1.4375  0.1099
 8438SOL    HW226214   1.367   3.554   1.036 -2.5036  0.8333  1.0953
 8439SOL     OW26215   5.097   3.229   2.746 -0.3944 -0.1150  0.2078
 8439SOL    HW126216   5.153   3.219   2.663 -1.6786  1.6456 -0.9454
 8439SOL    HW226217   5.076   3.139   2.782 -0.0277 -0.9593 -1.5426
 8440SOL     OW26218   0.057   1.628   3.012 -1.0133 -0.4903 -0.5729
 8440SOL    HW126219  -0.035   1.661   3.034 -0.4874  0.3860  0.4255
 8440SOL    HW226220   0.116   1.707   2.992  0.6727 -0.5515  3.3573
 8441SOL     OW26221   1.159   3.384   6.213 -0.1098 -0.3163 -0.1179
 8441SOL    HW126222   1.224   3.427   6.275 -0.8745 -0.2704  0.6782
 8441SOL    HW226223   1.167   3.285   6.218  0.2226 -0.3044 -0.3833
 8442SOL     OW26224   2.833   2.481   0.313 -0.3256 -0.4746  0.6188
 8442SOL    HW126225   2.739   2.460   0.341 -0.9426  0.5631 -0.6135
 8442SOL    HW226226   2.859   2.423   0.236 -0.7027  0.6253 -0.3621
 8443SOL     OW26227   1.280   4.983   2.317  0.1259 -0.2360 -0.0379
 8443SOL    HW126228   1.329   4.913   2.370  3.5819  1.0254 -1.2719
 8443SOL    HW226229   1.305   4.975   2.221 -2.8402  0.0859 -0.9290
 8444SOL     OW26230   3.521   5.956   5.159  0.2571 -0.4194  0.2386
 8444SOL    HW126231   3.476   5.954   5.070 -1.4930 -2.3504  1.0649
 8444SOL    HW226232   3.552   5.864   5.182  1.7849  0.2859  1.1123
 8445SOL     OW26233   6.206   5.885   6.349 -0.0043 -0.6008  0.2124
 8445SOL    HW126234   6.218   5.790   6.321 -0.4433 -0.4893 -0.3754
 8445SOL    HW226235   6.281   5.912   6.409  0.6374 -1.0316 -0.3789
 8446SOL     OW26236   4.511   6.797   2.951 -0.5246  0.4701  0.1541
 8446SOL    HW126237   4.447   6.756   2.886  0.9009 -0.4638 -0.7111
 8446SOL    HW226238   4.489   6.766   3.044  0.1264 -1.8690 -0.4046
 8447SOL     OW26239   6.634   1.920   3.149  0.8587  0.2146 -0.4146
 8447SOL    HW126240   6.642   1.990   3.220 -0.1411 -0.8433  0.7872
 8447SOL    HW226241   6.537   1.909   3.123  1.2614  1.1816 -2.6152
 8448SOL     OW26242   3.305   5.683   4.373  0.4532 -0.5086 -0.0008
 8448SOL    HW126243   3.296   5.775   4.411  1.3361 -0.2981 -0.2869
 8448SOL    HW226244   3.335   5.688   4.278 -0.2660 -1.0743 -0.2630
 8449SOL     OW26245   0.057   2.443   3.190  0.1954  1.0459 -0.2487
 8449SOL    HW126246   0.072   2.401   3.101  0.2455  0.7440 -0.1023
 8449SOL    HW226247  -0.003   2.383   3.245  1.2882  0.5320  0.4239
 8450SOL     OW26248   0.790   2.252   0.041 -0.2212 -0.0157  0.2782
 8450SOL    HW126249   0.803   2.316  -0.035  1.5184  1.0934  1.4307
 8450SOL    HW226250   0.766   2.303   0.123  0.7956 -0.8524  1.1291
 8451SOL     OW26251   4.148   3.486   2.470 -0.1841 -0.8557 -0.1907
 8451SOL    HW126252   4.130   3.539   2.554 -0.8738  0.4970 -1.1499
 8451SOL    HW226253   4.199   3.544   2.406 -1.3711 -1.1890 -1.4595
 8452SOL     OW26254   1.833   1.812   6.293  0.0682 -0.2169  0.1945
 8452SOL    HW126255   1.781   1.896   6.307  0.6493  0.0693  0.6972
 8452SOL    HW226256   1.883   1.789   6.377 -0.1018 -1.0799  0.0709
 8453SOL     OW26257   1.566   6.951   0.468 -0.2799  0.0002  0.1832
 8453SOL    HW126258   1.520   6.867   0.438  0.7846 -0.7285  0.5172
 8453SOL    HW226259   1.510   6.997   0.537 -0.3806 -1.0316  0.8128
 8454SOL     OW26260   4.468   0.025   0.871  0.3395 -0.7436 -0.1201
 8454SOL    HW126261   4.413   0.084   0.812  0.0509 -1.3173 -0.4407
 8454SOL    HW226262   4.537   0.079   0.918  0.1962 -0.1840 -0.5435
 8455SOL     OW26263   0.563   6.481   1.368 -0.0505  0.3386 -0.1843
 8455SOL    HW126264   0.569   6.566   1.420 -0.5728 -0.3806  1.1114
 8455SOL    HW226265   0.494   6.422   1.409 -1.2569  0.1431 -2.3674
 8456SOL     OW26266   5.032   6.852   2.396  0.6922  0.7335 -0.8100
 8456SOL    HW126267   4.952   6.906   2.422 -0.6799 -1.8898  0.8980
 8456SOL    HW226268   5.014   6.807   2.309 -0.4093 -0.9906  0.2453
 8457SOL     OW26269   4.686   5.629   3.613 -0.1555 -0.2683 -0.4777
 8457SOL    HW126270   4.783   5.620   3.637 -0.1951  3.3143  1.8044
 8457SOL    HW226271   4.634   5.556   3.656  1.2447 -0.8535  0.2867
 8458SOL     OW26272   1.896   5.767   0.133  0.2434  0.8782  0.2098
 8458SOL    HW126273   1.982   5.778   0.083 -0.2357  1.2886 -0.5516
 8458SOL    HW226274   1.819   5.778   0.069 -0.3721  0.3738  0.8502
 8459SOL     OW26275   0.349   5.722   2.485 -0.3056 -0.4026 -0.1549
 8459SOL    HW126276   0.336   5.705   2.583 -0.6718  0.6564  0.0007
 8459SOL    HW226277   0.381   5.639   2.440  1.0208 -0.5986  1.0686
 8460SOL     OW26278   3.237   3.318   2.173  0.5034 -0.0678 -0.2627
 8460SOL    HW126279   3.283   3.400   2.205  0.0014 -0.0056  0.3258
 8460SOL    HW226280   3.142   3.341   2.148  0.1103 -0.6055  0.6779
 8461SOL     OW26281   6.770   4.135   6.222 -1.0456 -0.5745  0.1515
 8461SOL    HW126282   6.855   4.119   6.273 -0.7365 -0.6084 -0.3666
 8461SOL    HW226283   6.711   4.196   6.275 -0.5935 -0.3541  0.4130
 8462SOL     OW26284   3.371   1.850   1.680  0.6597  0.0990  0.0700
 8462SOL    HW126285   3.404   1.787   1.610 -1.3249 -1.0135  0.0498
 8462SOL    HW226286   3.404   1.942   1.661  0.8409 -0.3283 -1.8571
 8463SOL     OW26287   6.411   0.313   1.471  0.5727 -0.5669 -0.3954
 8463SOL    HW126288   6.465   0.229   1.483  1.0918 -0.1605  0.1722
 8463SOL    HW226289   6.466   0.392   1.497 -1.2685 -0.3278  3.6363
 8464SOL     OW26290   6.629   1.386   4.055  0.5986  0.2022 -0.0033
 8464SOL    HW126291   6.550   1.344   4.011 -1.7678  3.2726  0.9855
 8464SOL    HW226292   6.645   1.341   4.144  0.0363 -0.4746 -0.2338
 8465SOL     OW26293   1.357   5.990   6.703  0.1333  0.1205  0.3307
 8465SOL    HW126294   1.313   6.077   6.680 -2.7168 -0.1163  3.9398
 8465SOL    HW226295   1.335   5.922   6.633 -0.7189  1.3841 -0.6853
 8466SOL     OW26296   1.461   7.007   3.181 -0.7216  0.1664 -0.0617
 8466SOL    HW126297   1.434   7.086   3.236 -1.5945 -0.3704  0.2997
 8466SOL    HW226298   1.421   6.924   3.220  0.0409 -0.4359 -0.5382
 8467SOL     OW26299   1.092   5.912   1.591 -0.2511  0.0621 -0.0664
 8467SOL    HW126300   1.154   5.938   1.517 -2.8085 -0.4818 -2.5605
 8467SOL    HW226301   1.054   5.821   1.573 -0.0562 -0.6405  2.6124
 8468SOL     OW26302   6.874   3.782   6.138  0.4336  0.1355 -0.1654
 8468SOL    HW126303   6.779   3.813   6.146  0.6895  0.7394  0.6929
 8468SOL    HW226304   6.899   3.731   6.220  0.9417  0.2469 -0.2496
 8469SOL     OW26305   5.993   1.706   0.151 -0.2131 -0.1211 -0.2088
 8469SOL    HW126306   5.893   1.711   0.148 -0.1626  0.5874 -1.6840
 8469SOL    HW226307   6.027   1.657   0.070  0.5724 -2.2881  1.3360
 8470SOL     OW26308   3.394   1.585   6.826 -0.3228 -0.1760  0.3280
 8470SOL    HW126309   3.364   1.561   6.733 -1.0835  0.5347  0.3833
 8470SOL    HW226310   3.441   1.673   6.823 -1.5570  0.5072  0.8275
 8471SOL     OW26311   2.694   2.988   5.379 -0.2634  0.1443  0.2304
 8471SOL    HW126312   2.624   2.984   5.307 -0.3729 -0.9896  0.3731
 8471SOL    HW226313   2.669   3.056   5.447 -1.6761 -0.8396  0.7243
 8472SOL     OW26314   1.361   5.657   1.400  0.1073  0.1452  0.4232
 8472SOL    HW126315   1.323   5.595   1.331 -3.4920  1.9290  0.6152
 8472SOL    HW226316   1.356   5.613   1.490 -1.4936  0.2828  0.4242
 8473SOL     OW26317   5.473   5.735   6.864  0.3415 -0.3817 -0.3791
 8473SOL    HW126318   5.383   5.694   6.853  0.4594 -0.8343  0.2876
 8473SOL    HW226319   5.487   5.761   6.959  0.7520  0.0876 -0.5595
 8474SOL     OW26320   3.978   6.553   6.133 -1.0318 -0.3054 -0.1601
 8474SOL    HW126321   3.993   6.455   6.143 -2.9630 -0.4330  2.6776
 8474SOL    HW226322   4.061   6.602   6.159 -0.7337 -1.1770  0.5945
 8475SOL     OW26323   6.315   0.232   3.512 -0.9651 -0.2106  0.1511
 8475SOL    HW126324   6.354   0.217   3.603 -2.1469  1.6629  1.0375
 8475SOL    HW226325   6.286   0.145   3.473  2.1576 -1.4325  0.2735
 8476SOL     OW26326   4.831   0.032   2.375  0.5919  0.0750 -0.2538
 8476SOL    HW126327   4.879   0.118   2.359 -0.2641  0.8382  1.0896
 8476SOL    HW226328   4.741   0.051   2.416  0.5108 -1.4686  0.3570
 8477SOL     OW26329   2.080   2.309   5.191 -0.1440 -0.2521  0.1089
 8477SOL    HW126330   1.998   2.350   5.231 -1.5753 -1.8726 -1.0371
 8477SOL    HW226331   2.090   2.214   5.223  0.8062 -0.3605 -0.4447
 8478SOL     OW26332   2.650   2.393   0.871  0.1797  0.1107 -0.4658
 8478SOL    HW126333   2.728   2.378   0.810 -1.3866 -4.6600 -1.7097
 8478SOL    HW226334   2.662   2.339   0.954 -2.0002 -1.3038 -1.0056
 8479SOL     OW26335   5.100   6.592   1.690 -0.1639 -0.0258 -0.0018
 8479SOL    HW126336   5.130   6.613   1.783  1.4763  0.0351 -0.5041
 8479SOL    HW226337   5.062   6.499   1.687  3.6194 -1.7678  0.0359
 8480SOL     OW26338   1.667   1.344   2.673 -0.1452  0.7761 -0.1285
 8480SOL    HW126339   1.669   1.440   2.702 -1.0221 -0.1601  3.7219
 8480SOL    HW226340   1.620   1.290   2.743  1.9355 -2.7690 -1.2241
 8481SOL     OW26341   4.983   0.522   5.088  0.2665  0.2852  0.3611
 8481SOL    HW126342   4.888   0.539   5.061  0.9334  2.2109 -0.9989
 8481SOL    HW226343   5.040   0.599   5.059  2.4263 -1.2653  0.2797
 8482SOL     OW26344   6.687   0.351   1.572 -0.0485 -0.3987  0.2968
 8482SOL    HW126345   6.755   0.410   1.614 -0.6105 -0.3325  1.1362
 8482SOL    HW226346   6.732   0.274   1.527  0.5721 -0.4788  1.0337
 8483SOL     OW26347   4.111   5.710   2.189  0.1091  0.1354 -0.2545
 8483SOL    HW126348   4.139   5.702   2.284 -0.7361  1.7810  0.1652
 8483SOL    HW226349   4.108   5.619   2.147  0.8771 -0.5638  1.1542
 8484SOL     OW26350   2.016   3.771   5.305  0.4546  0.2894 -0.4910
 8484SOL    HW126351   2.025   3.856   5.254 -0.5650 -0.8781 -2.7750
 8484SOL    HW226352   1.920   3.755   5.327  0.7893  0.3479  1.0752
 8485SOL     OW26353   3.057   2.634   6.411 -0.4043  0.0783 -0.3139
 8485SOL    HW126354   3.081   2.626   6.315 -1.5945  0.0522 -0.6267
 8485SOL    HW226355   3.102   2.714   6.450  0.7107 -0.3521 -0.6758
 8486SOL     OW26356   2.126   0.308   0.923  1.0766  0.4063 -0.5867
 8486SOL    HW126357   2.061   0.301   0.999  2.8276  3.0778  1.3643
 8486SOL    HW226358   2.079   0.292   0.837 -1.3831 -1.0659  0.9118
 8487SOL     OW26359   4.309   5.941   6.274 -0.5580  0.1407  0.3076
 8487SOL    HW126360   4.259   5.989   6.346  1.6176  1.0338  1.3121
 8487SOL    HW226361   4.309   5.843   6.294 -0.9539  0.2523  0.8831
 8488SOL     OW26362   0.591   5.434   5.648 -0.1769  0.3069  0.5461
 8488SOL    HW126363   0.508   5.381   5.628 -0.5056  1.3202 -0.9126
 8488SOL    HW226364   0.671   5.375   5.634 -0.4418  0.4771 -2.5976
 8489SOL     OW26365   3.330   0.058   5.971 -0.1182  0.5746  0.1034
 8489SOL    HW126366   3.414   0.011   5.999 -0.1774  0.6472  0.4119
 8489SOL    HW226367   3.353   0.138   5.916 -0.0592 -0.4781 -1.4468
 8490SOL     OW26368   4.921   4.441   2.725  0.2631  0.0753  0.1595
 8490SOL    HW126369   4.960   4.409   2.639 -0.4499  0.8188 -0.4567
 8490SOL    HW226370   4.981   4.415   2.801  0.4871 -1.3291 -0.4624
 8491SOL     OW26371   6.560   0.172   0.203  0.3268 -0.1041  0.0622
 8491SOL    HW126372   6.612   0.256   0.191 -0.0676  0.0384 -0.7246
 8491SOL    HW226373   6.613   0.094   0.169 -0.0481  0.0701 -0.9640
 8492SOL     OW26374   5.873   2.413   3.916  0.6328  0.5375 -0.2567
 8492SOL    HW126375   5.951   2.388   3.974 -0.6115  0.8803  1.6599
 8492SOL    HW226376   5.887   2.375   3.824  2.9047  0.3616  0.0878
 8493SOL     OW26377   3.858   0.379   0.676  0.0477  0.2564 -0.2312
 8493SOL    HW126378   3.779   0.437   0.696 -0.9388 -0.9916 -0.3746
 8493SOL    HW226379   3.897   0.405   0.588 -0.1151  0.9718 -0.0974
 8494SOL     OW26380   2.059   6.929   1.369  0.0069 -0.6315  0.5971
 8494SOL    HW126381   2.098   6.837   1.357 -0.2242 -0.4590 -1.9268
 8494SOL    HW226382   1.960   6.924   1.367 -0.0120 -0.3592  0.8117
 8495SOL     OW26383   6.161   5.471   6.642  1.1252 -0.2957 -0.3842
 8495SOL    HW126384   6.215   5.555   6.646  1.6877 -0.6823  0.3704
 8495SOL    HW226385   6.123   5.451   6.733 -0.5789  0.1415 -0.9610
 8496SOL     OW26386   0.775   1.149   5.587  0.0471  0.0975 -0.5571
 8496SOL    HW126387   0.797   1.238   5.549 -1.6270  0.9123  0.2647
 8496SOL    HW226388   0.710   1.102   5.527  1.8349 -1.1610 -1.6266
 8497SOL     OW26389   4.294   1.773   2.436 -0.0464  0.0782  0.1892
 8497SOL    HW126390   4.362   1.800   2.368  0.9132 -0.0124  1.0752
 8497SOL    HW226391   4.214   1.833   2.430  0.4092  0.6398 -0.4127
 8498SOL     OW26392   6.716   1.673   1.248  0.8476  0.2969  0.2543
 8498SOL    HW126393   6.720   1.575   1.267  0.7109  0.3056  0.3256
 8498SOL    HW226394   6.630   1.710   1.281  0.9678  0.4723  0.3739
 8499SOL     OW26395   5.768   5.330   2.068 -0.1873 -0.1141  0.7746
 8499SOL    HW126396   5.737   5.293   1.980 -0.0672  2.6162 -0.5193
 8499SOL    HW226397   5.846   5.277   2.102 -1.1738 -2.1302  0.0313
 8500SOL     OW26398   1.038   1.269   4.904 -0.0469 -0.3515 -0.3532
 8500SOL    HW126399   1.011   1.365   4.913 -2.3433 -1.0254  0.7381
 8500SOL    HW226400   1.064   1.251   4.809 -0.3928  1.1462 -0.7665
 8501SOL     OW26401   3.581   2.867   5.114 -0.3828  0.3502  0.3113
 8501SOL    HW126402   3.630   2.833   5.195 -0.6093  1.8363  1.1155
 8501SOL    HW226403   3.556   2.962   5.129 -2.3902  0.0152 -0.6122
 8502SOL     OW26404   6.289   6.560   0.069  0.4326  0.1517 -0.2641
 8502SOL    HW126405   6.194   6.571   0.096  0.6352  2.2130 -0.2265
 8502SOL    HW226406   6.348   6.608   0.135  1.2388  1.5839 -1.9572
 8503SOL     OW26407   3.571   5.167   3.487  0.5220  0.0165 -0.1181
 8503SOL    HW126408   3.582   5.219   3.401 -2.1193 -0.6637 -0.9394
 8503SOL    HW226409   3.488   5.197   3.533  0.8841 -1.0148  1.2373
 8504SOL     OW26410   6.762   6.932   1.906 -0.1122  0.1070  0.6460
 8504SOL    HW126411   6.752   6.895   1.999 -1.4405 -0.8582  0.1558
 8504SOL    HW226412   6.687   6.898   1.849  0.6158  0.7850 -0.7586
 8505SOL     OW26413   3.652   1.852   4.020 -0.0246 -0.0600 -0.1587
 8505SOL    HW126414   3.724   1.897   3.967  0.5499 -0.3973  0.3233
 8505SOL    HW226415   3.685   1.765   4.054 -0.0233  0.5849  1.5944
 8506SOL     OW26416   5.808   5.788   6.936 -0.1002 -0.6394  0.2163
 8506SOL    HW126417   5.783   5.806   6.841 -0.0508  1.7613  0.5837
 8506SOL    HW226418   5.891   5.733   6.939 -1.6975 -3.3337 -1.0460
 8507SOL     OW26419   3.136   1.924   3.536  0.4237  0.0312  0.8446
 8507SOL    HW126420   3.183   1.902   3.622  2.5802  0.0651 -0.2539
 8507SOL    HW226421   3.154   2.019   3.511 -1.0344  0.3315  0.8273
 8508SOL     OW26422   2.342   3.956   0.264 -0.1165 -0.2624  0.1526
 8508SOL    HW126423   2.401   3.890   0.310  0.5075  0.3750  0.2891
 8508SOL    HW226424   2.385   4.046   0.267 -2.2583  0.7952  2.5466
 8509SOL     OW26425   6.146   2.509   2.923 -0.4887 -0.2419  0.3185
 8509SOL    HW126426   6.223   2.532   2.863  1.3971 -0.7570  2.3896
 8509SOL    HW226427   6.114   2.592   2.969 -1.9873  0.1668 -1.3543
 8510SOL     OW26428   6.669   6.278   3.545  0.6896 -0.8292 -0.5374
 8510SOL    HW126429   6.669   6.357   3.607  1.7299 -1.2801  0.0449
 8510SOL    HW226430   6.746   6.285   3.482 -0.0424 -0.6624 -1.4428
 8511SOL     OW26431   0.355   5.801   1.126  0.3840 -0.1493  0.4089
 8511SOL    HW126432   0.433   5.859   1.104  0.2801  0.8481  2.4791
 8511SOL    HW226433   0.385   5.727   1.186 -0.0330 -0.5501  0.1287
 8512SOL     OW26434   4.874   3.555   0.333  0.6344  0.3582  0.0404
 8512SOL    HW126435   4.799   3.528   0.393  0.0561  1.0544 -0.3512
 8512SOL    HW226436   4.953   3.495   0.348 -0.5098 -1.3940 -0.6469
 8513SOL     OW26437   6.862   4.036   0.833  0.3884 -0.2337  0.5824
 8513SOL    HW126438   6.825   4.071   0.747  0.8435 -1.1196  0.0074
 8513SOL    HW226439   6.847   3.937   0.838 -0.3714 -0.0630  1.9096
 8514SOL     OW26440   2.397   3.324   5.614  0.3482 -0.5017  0.1216
 8514SOL    HW126441   2.459   3.248   5.631  2.2678  1.1261  0.8020
 8514SOL    HW226442   2.437   3.384   5.545  0.5884  1.6448  2.0056
 8515SOL     OW26443   3.552   1.887   1.469  1.1083 -0.3459  0.2525
 8515SOL    HW126444   3.549   1.984   1.444 -1.9681  0.1189  1.8967
 8515SOL    HW226445   3.635   1.868   1.521  2.5055  0.9817 -1.3463
 8516SOL     OW26446   0.899   3.913   6.431  1.0664  0.1674  0.0123
 8516SOL    HW126447   0.957   3.854   6.376  0.0489 -1.4535  0.5866
 8516SOL    HW226448   0.810   3.924   6.386  0.3212 -0.9497  1.1503
 8517SOL     OW26449   0.513   2.983   4.969  0.2106 -0.4259  0.0482
 8517SOL    HW126450   0.513   2.982   4.869  0.5646 -0.8423  0.0517
 8517SOL    HW226451   0.424   3.015   5.002  0.1284 -0.1857 -0.3974
 8518SOL     OW26452   2.916   5.509   0.446 -0.0526  0.3954  0.0610
 8518SOL    HW126453   2.905   5.592   0.501 -2.1151  0.9594 -1.0629
 8518SOL    HW226454   2.833   5.454   0.453  0.2155 -0.2217 -1.3290
 8519SOL     OW26455   0.804   5.385   6.883  0.3070  0.0482 -0.5479
 8519SOL    HW126456   0.813   5.422   6.976 -0.9877 -0.8155 -0.0497
 8519SOL    HW226457   0.850   5.296   6.879  0.1557 -0.0242 -0.6691
 8520SOL     OW26458   1.153   2.399   6.619 -0.3379  0.1399 -0.1426
 8520SOL    HW126459   1.205   2.318   6.646  0.6163  0.9327  0.4742
 8520SOL    HW226460   1.206   2.481   6.639 -0.7631  0.8916 -1.9115
 8521SOL     OW26461   1.806   0.045   4.360  0.2454  0.0662  0.1579
 8521SOL    HW126462   1.781  -0.052   4.355 -2.3759  0.7117 -0.4470
 8521SOL    HW226463   1.771   0.084   4.446  2.1914  0.2961  0.9026
 8522SOL     OW26464   5.598   2.006   1.064 -0.2214  0.2993  0.1923
 8522SOL    HW126465   5.506   2.040   1.046  0.7630  3.3085  0.2844
 8522SOL    HW226466   5.604   1.975   1.159 -0.9111  1.0151  0.4835
 8523SOL     OW26467   2.788   1.474   1.621 -0.7769  0.2251 -0.0887
 8523SOL    HW126468   2.814   1.540   1.692  1.5432 -0.7626  0.0614
 8523SOL    HW226469   2.783   1.521   1.533  0.9112  0.6390  0.0003
 8524SOL     OW26470   3.162   5.723   3.664  0.2727  0.0708  0.1593
 8524SOL    HW126471   3.249   5.674   3.665  0.5463  0.4383 -1.5967
 8524SOL    HW226472   3.096   5.672   3.610 -0.0631  0.6357  0.0238
 8525SOL     OW26473   6.781   1.826   3.573  0.1263 -0.0636 -0.1265
 8525SOL    HW126474   6.830   1.877   3.503  0.4705 -0.6211 -0.2963
 8525SOL    HW226475   6.709   1.771   3.530  0.8077 -0.9631 -0.1312
 8526SOL     OW26476   0.680   5.018   5.583 -0.7803  0.3958  0.9089
 8526SOL    HW126477   0.689   4.956   5.660 -0.2233 -0.4258  0.1941
 8526SOL    HW226478   0.720   5.107   5.606  0.8126 -0.3195  1.0436
 8527SOL     OW26479   1.540   0.534   4.552 -0.3977 -0.6832  0.1320
 8527SOL    HW126480   1.532   0.531   4.651 -0.9038 -0.1327  0.1168
 8527SOL    HW226481   1.592   0.616   4.526 -0.2562 -0.8323 -0.0586
 8528SOL     OW26482   6.023   6.630   0.179  0.8196  0.5853  0.1111
 8528SOL    HW126483   5.924   6.618   0.175  0.6709  1.9214 -3.3251
 8528SOL    HW226484   6.045   6.727   0.189  1.6238  0.8219 -2.9059
 8529SOL     OW26485   0.872   5.028   6.482  0.1162 -0.5088 -0.4366
 8529SOL    HW126486   0.905   5.122   6.490  1.2432 -0.7607 -1.6094
 8529SOL    HW226487   0.779   5.022   6.516 -0.3410  1.2513 -1.2607
 8530SOL     OW26488   3.675   3.905   1.953 -0.5382 -0.1016  0.2120
 8530SOL    HW126489   3.628   3.982   1.911  1.9068  1.0887 -0.5380
 8530SOL    HW226490   3.723   3.936   2.036  1.7935 -0.3426 -0.9623
 8531SOL     OW26491   6.625   6.707   2.310 -0.3065  0.1270 -0.1371
 8531SOL    HW126492   6.534   6.745   2.294 -0.3243  0.8907  1.4922
 8531SOL    HW226493   6.616   6.617   2.353 -0.3024  0.1135 -0.1643
 8532SOL     OW26494   1.318   6.851   4.600 -0.3543  0.4776  0.2170
 8532SOL    HW126495   1.253   6.777   4.585 -0.4962  0.0112  2.6657
 8532SOL    HW226496   1.280   6.936   4.564 -1.5521 -0.0931  0.0728
 8533SOL     OW26497   2.663   6.389   4.356  0.1998  0.2764  0.4625
 8533SOL    HW126498   2.741   6.438   4.394 -0.3940  0.8287  0.9888
 8533SOL    HW226499   2.595   6.373   4.427 -0.9088  1.2693 -0.3284
 8534SOL     OW26500   1.916   3.473   1.288 -0.2864  0.1894 -0.2655
 8534SOL    HW126501   1.949   3.536   1.358  2.1879 -0.4287 -0.7797
 8534SOL    HW226502   1.931   3.513   1.197  0.7136 -0.8300 -0.5715
 8535SOL     OW26503   6.890   0.410   0.971  0.4826 -0.0724  0.5200
 8535SOL    HW126504   6.982   0.386   0.943  1.1363  0.5980  1.9881
 8535SOL    HW226505   6.852   0.337   1.027 -0.0583 -0.5342 -0.4265
 8536SOL     OW26506   2.772   1.709   4.189  0.2125  0.9186  0.1710
 8536SOL    HW126507   2.753   1.709   4.091  0.9279 -3.0042 -0.1462
 8536SOL    HW226508   2.864   1.746   4.206  1.5251 -1.4771 -1.1777
 8537SOL     OW26509   6.690   0.651   2.543  0.3741 -0.2022 -0.9815
 8537SOL    HW126510   6.633   0.648   2.461 -1.5498 -0.0406  0.2869
 8537SOL    HW226511   6.683   0.564   2.592  0.1123  0.3045 -0.0983
 8538SOL     OW26512   1.026   1.008   1.234  0.0242  0.3814 -0.0083
 8538SOL    HW126513   0.952   0.965   1.285  1.3435 -1.5183  0.4118
 8538SOL    HW226514   0.988   1.067   1.163 -1.8612  1.4938  1.8224
 8539SOL     OW26515   6.107   2.867   1.981  0.5404 -0.4612  0.2112
 8539SOL    HW126516   6.161   2.894   1.902  1.3693  1.0145  1.2269
 8539SOL    HW226517   6.145   2.784   2.022  0.8134 -0.5615 -0.2527
 8540SOL     OW26518   3.706   0.398   6.904 -0.2488 -0.2952 -0.0246
 8540SOL    HW126519   3.695   0.412   6.806  1.9159  0.5323 -0.2017
 8540SOL    HW226520   3.802   0.413   6.930 -0.8588  0.0421  2.2950
 8541SOL     OW26521   6.818   3.144   2.486  0.2355  0.0126 -0.0032
 8541SOL    HW126522   6.913   3.171   2.469 -0.1792  0.7493 -1.2960
 8541SOL    HW226523   6.790   3.076   2.418 -0.2302 -0.0218  0.2191
 8542SOL     OW26524   2.711   4.299   5.339  0.4978  0.5787 -0.0410
 8542SOL    HW126525   2.721   4.386   5.291 -0.3655  0.4352 -0.5097
 8542SOL    HW226526   2.792   4.282   5.394  0.7876  1.5600 -0.1365
 8543SOL     OW26527   5.334   1.637   6.024 -0.5548  0.4779  0.0454
 8543SOL    HW126528   5.242   1.645   6.064  0.4427 -0.6761  2.7820
 8543SOL    HW226529   5.371   1.728   6.009 -0.9901  1.0191  1.9250
 8544SOL     OW26530   5.725   1.638   3.497  0.1119  0.3314 -0.0545
 8544SOL    HW126531   5.716   1.720   3.553  0.3374  1.0216 -1.0006
 8544SOL    HW226532   5.789   1.655   3.422  0.6966 -0.9301  0.1271
 8545SOL     OW26533   3.375   0.280   5.823 -0.0372  0.6416  0.0959
 8545SOL    HW126534   3.445   0.350   5.812  1.6590 -0.9655  0.3219
 8545SOL    HW226535   3.285   0.324   5.824  0.8559  2.6562 -1.2046
 8546SOL     OW26536   6.409   3.016   6.847 -1.2462 -0.1648  0.4741
 8546SOL    HW126537   6.495   3.061   6.872 -1.6319  0.6487  0.3928
 8546SOL    HW226538   6.402   2.928   6.893 -0.1403 -0.4736  0.0905
 8547SOL     OW26539   1.578   2.775   3.322  0.8834  0.0792 -0.0166
 8547SOL    HW126540   1.672   2.754   3.350  0.2999  0.3709  2.3415
 8547SOL    HW226541   1.518   2.699   3.347  0.2613  0.5154 -0.1500
 8548SOL     OW26542   6.432   2.928   6.156 -0.3418  0.1690  0.6715
 8548SOL    HW126543   6.526   2.942   6.188 -1.0127 -0.8029  3.4229
 8548SOL    HW226544   6.418   2.832   6.136 -0.9336  0.1907  0.9700
 8549SOL     OW26545   6.373   3.316   2.906 -0.5899  0.0601  0.2891
 8549SOL    HW126546   6.431   3.397   2.900  0.1740 -0.2825  2.2343
 8549SOL    HW226547   6.428   3.237   2.932 -1.3482 -1.0915 -1.4124
 8550SOL     OW26548   0.512   4.268   4.958  0.7356  0.5929 -0.2804
 8550SOL    HW126549   0.548   4.360   4.945  0.1639  0.7872 -0.5039
 8550SOL    HW226550   0.481   4.231   4.870 -1.7155  1.3123  0.2154
 8551SOL     OW26551   1.637   6.496   6.279 -0.0344  0.0382  0.2788
 8551SOL    HW126552   1.705   6.474   6.208 -1.6321 -1.0629 -0.9949
 8551SOL    HW226553   1.631   6.421   6.344 -0.1382  0.0709  0.3071
 8552SOL     OW26554   2.831   0.229   4.457  0.2479 -0.5159 -0.2424
 8552SOL    HW126555   2.878   0.194   4.538 -2.1028  0.5215  1.6753
 8552SOL    HW226556   2.898   0.274   4.397  2.0660 -1.3841  1.0326
 8553SOL     OW26557   6.370   5.592   6.368 -0.0146 -1.1883 -0.1679
 8553SOL    HW126558   6.317   5.589   6.284 -0.2963 -0.9181  0.0008
 8553SOL    HW226559   6.310   5.614   6.445  0.0775 -2.2863  0.2411
 8554SOL     OW26560   5.050   4.799   1.170  0.4080  0.2955 -0.0740
 8554SOL    HW126561   4.982   4.805   1.097  1.7748  0.2808 -1.4053
 8554SOL    HW226562   5.106   4.882   1.169  1.1542 -0.1952  0.2159
 8555SOL     OW26563   2.386   1.536   4.808 -0.0565 -0.5152 -0.7882
 8555SOL    HW126564   2.439   1.589   4.741 -0.7293  0.2220 -0.7540
 8555SOL    HW226565   2.417   1.557   4.900 -1.4858  1.2254 -0.6465
 8556SOL     OW26566   6.230   0.223   0.798  0.8082 -0.0887 -0.1191
 8556SOL    HW126567   6.231   0.130   0.834  0.5449 -0.0352  0.0261
 8556SOL    HW226568   6.266   0.286   0.868  0.3847  0.0025  0.0221
 8557SOL     OW26569   5.129   1.190   1.508 -0.2894  0.1281 -0.5980
 8557SOL    HW126570   5.219   1.215   1.471 -0.6998  2.3786 -0.2069
 8557SOL    HW226571   5.059   1.206   1.439 -0.5055 -0.9576 -0.6585
 8558SOL     OW26572   2.019   2.606   2.063  0.5768  0.5045  0.8421
 8558SOL    HW126573   1.981   2.698   2.074 -0.3903  0.1764  0.3591
 8558SOL    HW226574   2.009   2.556   2.150 -0.9575  0.1273  0.4802
 8559SOL     OW26575   2.031   1.332   4.773  0.0184  0.0133 -0.0766
 8559SOL    HW126576   2.117   1.359   4.728  0.4651  0.8565  1.2340
 8559SOL    HW226577   2.034   1.235   4.796  1.1447  0.3018  1.0623
 8560SOL     OW26578   0.446   3.637   6.135 -0.0041 -0.3012  0.7120
 8560SOL    HW126579   0.428   3.639   6.037 -1.8435 -1.1884  0.9755
 8560SOL    HW226580   0.525   3.578   6.154  0.0566 -0.5261 -0.2042
 8561SOL     OW26581   5.519   0.330   0.022  0.5170 -0.2272  0.0220
 8561SOL    HW126582   5.536   0.380  -0.063 -1.5996  0.2199 -0.1868
 8561SOL    HW226583   5.427   0.349   0.054  1.0156 -0.9842  2.0476
 8562SOL     OW26584   4.376   2.101   3.920 -0.2965  0.6458 -0.1076
 8562SOL    HW126585   4.416   2.123   4.009 -1.1728  0.4853  0.3430
 8562SOL    HW226586   4.448   2.072   3.857  0.2567  0.0152  0.7795
 8563SOL     OW26587   2.096   3.092   0.642  0.0771 -0.2431 -0.3189
 8563SOL    HW126588   2.098   3.009   0.697  1.3739 -0.0646 -0.0499
 8563SOL    HW226589   2.189   3.114   0.613 -0.1279  1.5256  0.2351
 8564SOL     OW26590   2.223   6.035   4.432 -0.0016 -0.6151 -0.7226
 8564SOL    HW126591   2.313   6.073   4.413 -0.2771 -0.2244 -1.2802
 8564SOL    HW226592   2.228   5.935   4.434  0.1023 -0.6825 -2.6553
 8565SOL     OW26593   3.341   1.132   2.960  0.0470 -0.6305 -0.3940
 8565SOL    HW126594   3.280   1.157   3.035  0.6932 -0.2347  0.0098
 8565SOL    HW226595   3.328   1.195   2.883  1.5730  0.9356  0.5678
 8566SOL     OW26596   3.043   4.827   4.281 -0.7981 -0.3929  0.2854
 8566SOL    HW126597   2.969   4.777   4.327 -0.0932 -0.5535  1.3022
 8566SOL    HW226598   3.019   4.923   4.274 -1.6941 -0.6689 -0.6766
 8567SOL     OW26599   5.272   5.973   1.609  0.2302  0.1605  0.2027
 8567SOL    HW126600   5.192   5.918   1.586 -0.4354  0.5843  1.4239
 8567SOL    HW226601   5.316   5.935   1.691  0.5398  0.6764  0.2788
 8568SOL     OW26602   4.973   0.874   1.562  0.2755 -0.1789 -0.0304
 8568SOL    HW126603   4.939   0.796   1.616  1.2947 -0.6356 -0.0291
 8568SOL    HW226604   4.938   0.959   1.601 -0.2615 -0.5920  0.4071
 8569SOL     OW26605   1.876   1.848   4.836  0.2821 -0.0134 -0.3887
 8569SOL    HW126606   1.914   1.940   4.827  0.8444 -0.1925  0.0991
 8569SOL    HW226607   1.875   1.803   4.747 -1.2519  0.9339 -0.8996
 8570SOL     OW26608   0.350   3.076   6.476  0.6785  0.3503  0.2195
 8570SOL    HW126609   0.408   3.154   6.500  0.5946  0.5907 -0.3564
 8570SOL    HW226610   0.384   3.032   6.393  0.3771  0.1350  0.2058
 8571SOL     OW26611   2.221   4.416   6.484 -0.4921  0.5895 -0.2747
 8571SOL    HW126612   2.272   4.449   6.564 -2.5002  2.1175  0.4649
 8571SOL    HW226613   2.199   4.319   6.497  1.6632  0.0284 -0.3784
 8572SOL     OW26614   3.411   3.968   5.307  0.1220  1.1250 -0.0559
 8572SOL    HW126615   3.332   3.930   5.259  0.2694 -2.0790  1.9906
 8572SOL    HW226616   3.385   3.997   5.399  1.1484  0.8296  0.3451
 8573SOL     OW26617   1.519   4.547   5.955 -0.1793 -0.1400  0.6348
 8573SOL    HW126618   1.478   4.467   5.999 -0.1578 -0.9792 -0.8022
 8573SOL    HW226619   1.509   4.627   6.014 -4.4616 -0.1269  0.2129
 8574SOL     OW26620   0.621   4.364   4.456 -0.5820 -0.2312  0.1108
 8574SOL    HW126621   0.570   4.448   4.477 -0.2121  0.3447 -1.1911
 8574SOL    HW226622   0.600   4.334   4.363 -0.0242 -1.0833  0.2518
 8575SOL     OW26623   3.146   3.840   5.595 -0.3019 -0.4515  0.3428
 8575SOL    HW126624   3.175   3.903   5.667  1.5581 -1.5824  0.6444
 8575SOL    HW226625   3.068   3.788   5.627 -1.3191  1.0431  0.4192
 8576SOL     OW26626   2.059   0.496   5.360  0.0185 -0.1144  0.5371
 8576SOL    HW126627   2.033   0.519   5.266  1.5984  1.2832  0.3859
 8576SOL    HW226628   2.107   0.408   5.360  1.0043  0.4005 -0.1696
 8577SOL     OW26629   6.470   4.369   3.059  0.3657 -0.1668 -0.1044
 8577SOL    HW126630   6.563   4.397   3.081  0.3097 -0.6523  0.8245
 8577SOL    HW226631   6.405   4.428   3.106  0.2127 -0.2325 -0.2326
 8578SOL     OW26632   4.320   2.116   0.434  0.1976 -0.0848  0.3879
 8578SOL    HW126633   4.334   2.028   0.389 -0.2752  0.0547 -0.0441
 8578SOL    HW226634   4.226   2.146   0.420  0.4288  0.6242  0.2857
 8579SOL     OW26635   6.480   5.012   2.189  0.4019 -0.3436 -0.4870
 8579SOL    HW126636   6.428   4.968   2.116  1.2414 -0.0178 -1.3049
 8579SOL    HW226637   6.564   5.052   2.151  0.7657 -0.0045  0.6249
 8580SOL     OW26638   0.879   5.148   6.754 -0.2738 -0.2780 -0.0101
 8580SOL    HW126639   0.916   5.060   6.723 -0.5049 -0.6133  0.6600
 8580SOL    HW226640   0.851   5.201   6.674 -1.0289 -1.2037 -0.3836
 8581SOL     OW26641   3.653   3.375   6.075  0.5596  0.9730 -0.2379
 8581SOL    HW126642   3.696   3.416   5.994  1.6627  1.5134  0.6103
 8581SOL    HW226643   3.691   3.284   6.091  1.1624  1.3181  0.3192
 8582SOL     OW26644   1.887   6.595   0.203 -0.5818  0.0875  0.0382
 8582SOL    HW126645   1.827   6.667   0.236 -0.5971  0.0460  0.1021
 8582SOL    HW226646   1.983   6.624   0.212 -0.6018  0.3370 -0.4889
 8583SOL     OW26647   5.007   5.191   2.950  0.3095  0.0874 -0.1873
 8583SOL    HW126648   5.086   5.251   2.940 -0.0458  0.5902 -0.0020
 8583SOL    HW226649   4.932   5.224   2.892  0.3507 -0.5997 -0.6563
 8584SOL     OW26650   0.554   6.184   5.332 -0.1659 -0.1291  0.0932
 8584SOL    HW126651   0.650   6.202   5.353  0.2211 -0.4138 -1.3292
 8584SOL    HW226652   0.507   6.155   5.415  0.0582  3.6066  1.7122
 8585SOL     OW26653   1.517   2.107   0.959 -0.0910 -0.0381 -0.2365
 8585SOL    HW126654   1.459   2.175   1.003  0.0535  0.1818 -0.3903
 8585SOL    HW226655   1.605   2.147   0.936 -0.4203  0.0488 -1.3822
 8586SOL     OW26656   4.529   5.273   4.357  0.2162  0.0943  0.2546
 8586SOL    HW126657   4.591   5.302   4.285  1.1188 -0.5713  0.7384
 8586SOL    HW226658   4.521   5.173   4.356 -0.1706  0.1185  0.7339
 8587SOL     OW26659   6.541   0.494   1.897  0.3911 -0.3930  0.6866
 8587SOL    HW126660   6.468   0.534   1.841  2.6300  1.1364 -1.3440
 8587SOL    HW226661   6.548   0.396   1.879  1.5355  0.1536 -2.5023
 8588SOL     OW26662   3.841   1.551   6.449  0.1304  0.5814  0.1441
 8588SOL    HW126663   3.791   1.636   6.467  1.5948  1.2262  1.3723
 8588SOL    HW226664   3.868   1.509   6.536 -0.9102 -1.3897 -0.4219
 8589SOL     OW26665   4.663   2.434   3.505 -0.0784 -0.5661  0.0513
 8589SOL    HW126666   4.735   2.364   3.505  0.6004  0.1139  0.7595
 8589SOL    HW226667   4.589   2.405   3.445  0.5604 -1.5135 -0.3059
 8590SOL     OW26668   4.737   4.212   4.829  0.3105  0.2782  0.5878
 8590SOL    HW126669   4.781   4.124   4.813  0.3354  0.5200 -0.8554
 8590SOL    HW226670   4.721   4.225   4.927  0.0118 -1.4509  0.7905
 8591SOL     OW26671   1.963   3.715   2.610 -0.4834  0.1890  0.0544
 8591SOL    HW126672   1.887   3.651   2.601 -1.1486  0.9154  0.2805
 8591SOL    HW226673   1.933   3.792   2.667  0.3075  0.6677 -0.1717
 8592SOL     OW26674   6.271   0.408   0.468  0.6877 -0.0250 -0.4325
 8592SOL    HW126675   6.344   0.434   0.531 -1.0844  0.4916  1.5318
 8592SOL    HW226676   6.183   0.439   0.504 -0.8307 -2.8946 -1.3311
 8593SOL     OW26677   0.083   4.548   3.141  0.3312 -0.6659 -0.4162
 8593SOL    HW126678   0.002   4.489   3.140  0.8870 -1.5203  1.5344
 8593SOL    HW226679   0.078   4.610   3.220  0.2138  1.3339 -1.9036
 8594SOL     OW26680   3.640   3.714   3.706  0.0531 -0.4132  0.3172
 8594SOL    HW126681   3.676   3.628   3.742  1.2221 -0.0431  0.0845
 8594SOL    HW226682   3.673   3.726   3.612 -1.0634 -0.2689 -0.0619
 8595SOL     OW26683   1.469   4.590   1.518  0.5881 -0.4587  0.2255
 8595SOL    HW126684   1.539   4.604   1.588  0.0921  1.5493  0.3717
 8595SOL    HW226685   1.446   4.493   1.513 -0.2146 -0.5726  3.6950
 8596SOL     OW26686   6.005   4.344   3.297 -0.0359  0.2559  0.4075
 8596SOL    HW126687   5.913   4.358   3.261 -0.2159 -0.8415  0.4072
 8596SOL    HW226688   6.050   4.272   3.245  1.6826  2.2995 -1.1044
 8597SOL     OW26689   2.668   0.488   0.736 -0.2790 -0.2226  0.1743
 8597SOL    HW126690   2.573   0.517   0.742 -0.7033 -1.6142  0.5350
 8597SOL    HW226691   2.725   0.547   0.795 -1.0934 -0.1109  0.8635
 8598SOL     OW26692   6.646   2.793   1.378 -0.4889 -0.2561 -0.2869
 8598SOL    HW126693   6.647   2.693   1.388 -0.6127 -0.2400 -0.1201
 8598SOL    HW226694   6.708   2.833   1.445 -3.0288  0.0011  2.0880
 8599SOL     OW26695   1.155   3.350   5.518  0.0275  0.0055  0.7166
 8599SOL    HW126696   1.146   3.259   5.559 -2.0690  0.0487  0.4875
 8599SOL    HW226697   1.125   3.419   5.585 -0.4628  0.3372  0.1585
 8600SOL     OW26698   1.018   2.500   4.565 -0.1054 -0.4007 -0.2848
 8600SOL    HW126699   1.111   2.468   4.547 -0.4005 -1.0928 -0.6029
 8600SOL    HW226700   1.011   2.531   4.659  0.5173 -0.0930 -0.3361
 8601SOL     OW26701   0.468   0.183   4.599 -0.1029  0.0233  0.1969
 8601SOL    HW126702   0.564   0.170   4.577 -0.4754  1.2473 -2.5561
 8601SOL    HW226703   0.420   0.095   4.592  0.8979 -0.8117  2.6388
 8602SOL     OW26704   6.939   5.787   3.135  0.3672  0.5659 -0.4023
 8602SOL    HW126705   6.904   5.875   3.167  0.7331  0.1226  1.3144
 8602SOL    HW226706   6.868   5.717   3.142  1.0215  0.0268  1.4971
 8603SOL     OW26707   4.412   3.769   1.678  0.1640  0.1680  0.2572
 8603SOL    HW126708   4.327   3.805   1.715  0.8108  1.3115  0.6940
 8603SOL    HW226709   4.407   3.670   1.672 -0.4843  0.0545  2.1336
 8604SOL     OW26710   6.604   2.271   3.150  0.2564 -0.0205 -0.0403
 8604SOL    HW126711   6.561   2.299   3.236  1.3965 -0.7436  0.7996
 8604SOL    HW226712   6.658   2.347   3.114 -1.1120  0.6633 -0.7469
 8605SOL     OW26713   2.114   6.605   5.799 -0.6826  0.8407  0.0913
 8605SOL    HW126714   2.171   6.665   5.855 -2.0517  0.6844  1.7309
 8605SOL    HW226715   2.139   6.616   5.703  2.0113  0.8458  0.6977
 8606SOL     OW26716   4.212   4.804   4.503 -0.0971 -0.2006  0.3468
 8606SOL    HW126717   4.301   4.778   4.540  0.1211 -0.3677 -0.2853
 8606SOL    HW226718   4.177   4.730   4.446  0.5599  0.8729 -1.5239
 8607SOL     OW26719   3.593   6.374   0.894  0.1585  0.3607  0.6449
 8607SOL    HW126720   3.652   6.299   0.865 -1.9345 -1.0031 -0.2498
 8607SOL    HW226721   3.622   6.459   0.849 -0.2293 -0.8279 -1.9777
 8608SOL     OW26722   4.675   6.620   2.597  0.0476  0.5537  0.2662
 8608SOL    HW126723   4.749   6.610   2.530  0.3819  2.8631  0.1964
 8608SOL    HW226724   4.684   6.708   2.643 -0.7757 -0.5345  2.6604
 8609SOL     OW26725   5.880   6.451   6.598  0.5897 -0.2783 -0.5298
 8609SOL    HW126726   5.819   6.381   6.635  1.4734 -0.1686  1.2431
 8609SOL    HW226727   5.937   6.411   6.527  0.4137 -1.1121 -0.2169
 8610SOL     OW26728   6.031   0.681   5.401  0.2747  0.8514  0.0909
 8610SOL    HW126729   5.953   0.683   5.338  0.6388  1.0795 -0.3516
 8610SOL    HW226730   6.112   0.719   5.356  0.2817  2.0073  1.0449
 8611SOL     OW26731   0.858   2.381   2.640  0.2905 -0.0661 -0.5270
 8611SOL    HW126732   0.955   2.399   2.658  0.3738 -0.3226 -0.7177
 8611SOL    HW226733   0.809   2.468   2.635  0.4088  0.0414  0.1187
 8612SOL     OW26734   4.470   2.472   4.017 -0.1985  0.1683  0.3155
 8612SOL    HW126735   4.493   2.453   4.112  0.7730 -2.8203 -0.4042
 8612SOL    HW226736   4.392   2.415   3.989 -0.6255  1.1795 -0.6319
 8613SOL     OW26737   1.881   0.333   1.561  0.1265 -0.2889 -0.2069
 8613SOL    HW126738   1.842   0.349   1.652 -1.9626  0.9019 -1.2295
 8613SOL    HW226739   1.942   0.409   1.537 -2.3944  1.5254 -1.2829
 8614SOL     OW26740   0.969   2.643   2.940  0.2019 -0.2374  0.2576
 8614SOL    HW126741   1.041   2.629   3.008  1.5621  0.0154 -1.0570
 8614SOL    HW226742   0.880   2.645   2.985  1.0227 -0.3582  1.9726
 8615SOL     OW26743   6.466   1.586   6.418 -0.3439 -0.3365 -0.3765
 8615SOL    HW126744   6.474   1.637   6.504 -0.0637  0.4212 -0.8442
 8615SOL    HW226745   6.451   1.490   6.439  0.2687 -0.2566  0.5310
 8616SOL     OW26746   3.002   3.048   0.653  0.0112  0.1978  0.2522
 8616SOL    HW126747   2.998   3.148   0.656 -0.6988  0.1933 -0.1607
 8616SOL    HW226748   3.045   3.014   0.736 -0.9434  0.8021  1.0221
 8617SOL     OW26749   6.180   3.874   0.948  0.5941 -1.0536  0.2771
 8617SOL    HW126750   6.089   3.832   0.951 -0.3758  0.9261  0.1745
 8617SOL    HW226751   6.187   3.944   1.019  1.0042  0.7465 -1.4641
 8618SOL     OW26752   4.001   1.505   4.069 -0.2662  0.7104 -0.0265
 8618SOL    HW126753   3.988   1.521   4.167  1.7872 -0.5389  0.5236
 8618SOL    HW226754   4.033   1.588   4.026  0.2600  0.8865  0.6806
 8619SOL     OW26755   4.089   6.154   6.354 -0.1832 -0.0513  0.0745
 8619SOL    HW126756   4.017   6.221   6.371 -0.9373 -0.6270 -0.7556
 8619SOL    HW226757   4.171   6.200   6.320 -1.4872  0.3215 -2.9515
 8620SOL     OW26758   6.299   4.938   4.379 -0.1352  0.3227 -0.2964
 8620SOL    HW126759   6.202   4.942   4.352 -0.5616  0.2277  1.1511
 8620SOL    HW226760   6.353   4.990   4.314 -1.1970  0.6469 -0.9577
 8621SOL     OW26761   4.332   0.818   3.584  0.0939 -0.5632  0.0360
 8621SOL    HW126762   4.422   0.814   3.543 -0.8098 -1.5337 -1.9892
 8621SOL    HW226763   4.313   0.912   3.615  0.5946  0.4217 -2.4377
 8622SOL     OW26764   5.058   5.386   3.698 -0.1192  0.5215 -0.3147
 8622SOL    HW126765   5.072   5.300   3.649 -1.0547  0.1498  0.0484
 8622SOL    HW226766   5.052   5.461   3.632 -4.0293 -0.2747 -1.1381
 8623SOL     OW26767   4.886   2.536   2.962 -0.7831 -0.2199  0.1573
 8623SOL    HW126768   4.883   2.440   2.991 -1.6114  0.0082  0.8313
 8623SOL    HW226769   4.795   2.566   2.936 -0.5001  0.3583 -0.1907
 8624SOL     OW26770   0.052   2.746   2.875 -0.3861  0.5174 -0.7763
 8624SOL    HW126771   0.111   2.703   2.806 -0.9241  0.1936 -1.0408
 8624SOL    HW226772  -0.000   2.820   2.833  2.6434  3.5062  0.2641
 8625SOL     OW26773   4.087   1.013   0.117  0.0068  0.6756 -0.5755
 8625SOL    HW126774   4.135   1.030   0.203 -0.6854 -2.5622  0.5921
 8625SOL    HW226775   4.010   1.077   0.109  1.5444  2.7037 -0.1278
 8626SOL     OW26776   3.646   3.625   2.777  0.0500  0.8861 -0.2621
 8626SOL    HW126777   3.673   3.619   2.680 -0.8483 -1.2307 -0.4590
 8626SOL    HW226778   3.709   3.570   2.832 -1.5117 -1.0059 -0.2254
 8627SOL     OW26779   2.890   0.028   5.882  0.2837  1.0517  0.0397
 8627SOL    HW126780   2.959   0.061   5.947  0.2704 -1.0608  1.2198
 8627SOL    HW226781   2.859  -0.063   5.910 -2.7922  1.7824 -0.6257
 8628SOL     OW26782   5.828   1.485   0.792 -0.3626  0.7019  0.1236
 8628SOL    HW126783   5.852   1.388   0.797 -1.5404  0.4027  0.4543
 8628SOL    HW226784   5.805   1.508   0.697 -3.7344 -0.3456  0.5508
 8629SOL     OW26785   6.975   6.270   3.098  0.6556 -0.5947  0.2182
 8629SOL    HW126786   6.986   6.351   3.156 -0.1579 -0.8715  0.7697
 8629SOL    HW226787   7.045   6.202   3.122 -1.5429 -2.0428  3.1907
 8630SOL     OW26788   6.613   2.448   3.653  0.1101  0.4556 -0.3133
 8630SOL    HW126789   6.664   2.402   3.725  0.3716 -0.7375 -1.2279
 8630SOL    HW226790   6.667   2.449   3.569 -1.5856 -1.5120 -1.5294
 8631SOL     OW26791   2.376   0.065   4.286  0.1757 -0.1761  0.3119
 8631SOL    HW126792   2.277   0.050   4.290  0.2809 -0.6637  1.2811
 8631SOL    HW226793   2.395   0.143   4.226 -0.5789 -1.9492 -2.4543
 8632SOL     OW26794   1.982   0.511   3.529  0.0822 -0.4210 -0.0267
 8632SOL    HW126795   2.079   0.488   3.531  0.4557  1.0219  2.5879
 8632SOL    HW226796   1.930   0.439   3.575 -0.2002 -1.3979 -1.7886
 8633SOL     OW26797   5.812   0.411   2.141  0.4186 -0.1234 -0.3762
 8633SOL    HW126798   5.885   0.403   2.209 -1.2447  1.7206  1.7735
 8633SOL    HW226799   5.752   0.331   2.147  0.4293 -0.0959  0.1418
 8634SOL     OW26800   5.618   5.813   1.660 -0.1218  0.3846 -0.1414
 8634SOL    HW126801   5.647   5.729   1.706 -2.3439 -0.4783 -0.1781
 8634SOL    HW226802   5.539   5.852   1.708 -0.3809  1.3335 -1.2810
 8635SOL     OW26803   0.038   3.333   5.565  0.3568 -0.4639 -0.0876
 8635SOL    HW126804   0.093   3.416   5.555 -0.2248 -0.1422 -0.7798
 8635SOL    HW226805  -0.044   3.353   5.619 -0.6242 -0.1260 -1.6038
 8636SOL     OW26806   1.106   5.392   0.767  0.2342  0.0924  0.5608
 8636SOL    HW126807   1.199   5.374   0.802  0.3413  0.6600  0.5832
 8636SOL    HW226808   1.051   5.431   0.841  0.2916  0.7573  0.2545
 8637SOL     OW26809   0.704   1.316   5.936  0.1009  0.4046  0.0830
 8637SOL    HW126810   0.759   1.359   5.864 -0.5509  0.1760 -0.5782
 8637SOL    HW226811   0.659   1.387   5.990  0.5631  0.5794  0.2405
 8638SOL     OW26812   4.947   4.779   0.312 -0.3014  0.0091  0.1402
 8638SOL    HW126813   5.037   4.749   0.283  0.3030 -1.2946  3.0330
 8638SOL    HW226814   4.879   4.752   0.243  1.2413 -0.6833 -1.1819
 8639SOL     OW26815   5.297   1.922   3.564 -1.0009 -0.5111 -0.5990
 8639SOL    HW126816   5.265   1.860   3.636 -1.8154 -0.2153 -0.7012
 8639SOL    HW226817   5.375   1.881   3.517  0.2944 -0.2407  1.1804
 8640SOL     OW26818   3.866   4.696   1.080 -0.4099  0.4171  0.1275
 8640SOL    HW126819   3.921   4.755   1.022  1.2582 -2.0823 -1.0369
 8640SOL    HW226820   3.923   4.658   1.153 -1.5399  0.5612  1.1276
 8641SOL     OW26821   0.480   3.573   4.461  0.2931  0.2012 -0.1208
 8641SOL    HW126822   0.560   3.552   4.404 -0.9208  0.3810 -1.9666
 8641SOL    HW226823   0.428   3.647   4.420 -1.0066 -0.1206  0.8821
 8642SOL     OW26824   4.979   1.173   1.074  0.4515  0.1826  0.0128
 8642SOL    HW126825   4.979   1.239   0.998 -0.8192  1.9308  1.4495
 8642SOL    HW226826   5.073   1.156   1.103  0.9641 -0.4731 -1.8554
 8643SOL     OW26827   4.334   0.447   2.450 -0.4286 -0.1724  0.4310
 8643SOL    HW126828   4.236   0.461   2.463 -0.7986 -1.5012 -0.5985
 8643SOL    HW226829   4.349   0.358   2.406  1.0211  1.1445 -1.9793
 8644SOL     OW26830   6.166   3.888   5.057  0.0330 -0.2791  0.0406
 8644SOL    HW126831   6.094   3.861   5.122  0.6977 -0.2993  0.7866
 8644SOL    HW226832   6.165   3.987   5.045 -0.6649 -0.3528 -0.6206
 8645SOL     OW26833   0.120   3.147   2.509 -0.1430  0.5931 -0.2990
 8645SOL    HW126834   0.182   3.121   2.436  2.3687 -0.3506  1.9845
 8645SOL    HW226835   0.104   3.246   2.506 -0.3979  0.5258 -2.2611
 8646SOL     OW26836   5.738   0.130   0.892  0.3548 -0.6093 -0.1916
 8646SOL    HW126837   5.790   0.063   0.838 -0.2543 -2.4508  1.3587
 8646SOL    HW226838   5.784   0.143   0.980 -1.4509 -1.8875  1.0048
 8647SOL     OW26839   5.131   4.231   0.609  0.8705  0.3859  0.2520
 8647SOL    HW126840   5.068   4.276   0.672 -1.2680 -2.8075  0.5801
 8647SOL    HW226841   5.223   4.230   0.650  0.3127  1.5573  1.6313
 8648SOL     OW26842   6.848   0.439   4.947  0.1864 -0.1193  0.1769
 8648SOL    HW126843   6.875   0.342   4.939 -0.4052 -0.2666 -0.0457
 8648SOL    HW226844   6.931   0.495   4.954  0.6612 -0.3866 -2.4150
 8649SOL     OW26845   0.624   2.404   4.343  0.5301  0.2223 -0.3215
 8649SOL    HW126846   0.718   2.435   4.327  1.6514 -3.2220 -1.2862
 8649SOL    HW226847   0.615   2.373   4.438  0.8425 -0.7747 -0.6052
 8650SOL     OW26848   1.224   4.242   6.735  0.7347  0.3911  0.4253
 8650SOL    HW126849   1.212   4.152   6.693  0.2233  1.0950 -0.9765
 8650SOL    HW226850   1.314   4.279   6.711 -0.0051  1.2939 -1.0845
 8651SOL     OW26851   4.177   3.763   1.815  0.2696  0.2815 -0.1675
 8651SOL    HW126852   4.143   3.729   1.902 -0.3790 -0.1429 -0.5792
 8651SOL    HW226853   4.160   3.696   1.743 -0.3473  1.1299 -0.8528
 8652SOL     OW26854   6.786   1.245   5.385 -0.8993  0.6465 -0.4910
 8652SOL    HW126855   6.879   1.282   5.386 -0.4423 -0.4619  0.7013
 8652SOL    HW226856   6.727   1.300   5.445 -0.4565  0.0428  0.5183
 8653SOL     OW26857   6.363   4.662   3.807 -0.4274 -0.2560 -0.0170
 8653SOL    HW126858   6.457   4.629   3.812  0.4284  2.0287  0.2075
 8653SOL    HW226859   6.327   4.672   3.900 -0.3143  0.3328 -0.0302
 8654SOL     OW26860   4.199   5.675   0.129 -0.0182  0.4382  0.2806
 8654SOL    HW126861   4.099   5.673   0.125 -0.1126  0.1008  1.8691
 8654SOL    HW226862   4.227   5.728   0.210  1.0573 -0.5154  0.5543
 8655SOL     OW26863   0.001   5.579   2.337  0.3197  0.1675 -0.3884
 8655SOL    HW126864   0.020   5.659   2.394 -0.9818  1.1404 -1.2797
 8655SOL    HW226865   0.036   5.497   2.383  0.6026  1.0826  1.1066
 8656SOL     OW26866   6.943   3.123   1.461 -0.0016 -0.3044  0.5751
 8656SOL    HW126867   6.960   3.184   1.384 -0.8168  0.4290  0.9597
 8656SOL    HW226868   7.022   3.063   1.474  0.2166 -0.3255 -0.7118
 8657SOL     OW26869   1.862   5.085   2.022  0.1266 -0.1530 -0.6109
 8657SOL    HW126870   1.778   5.032   2.036 -0.1144  0.3228 -0.2432
 8657SOL    HW226871   1.896   5.069   1.929  0.0236 -0.9034 -0.5290
 8658SOL     OW26872   0.291   0.449   0.250 -0.0499  0.1087  0.0983
 8658SOL    HW126873   0.263   0.544   0.237  0.3934 -0.0129 -2.2399
 8658SOL    HW226874   0.210   0.390   0.247 -0.0666  0.1150 -2.6615
 8659SOL     OW26875   4.188   0.150   3.094 -0.3584 -0.0370 -0.4125
 8659SOL    HW126876   4.090   0.145   3.111 -0.0959  0.8067  1.5661
 8659SOL    HW226877   4.205   0.139   2.996 -2.4016 -0.2544 -0.7900
 8660SOL     OW26878   3.953   4.899   5.426  0.1463  0.1619  0.1009
 8660SOL    HW126879   3.985   4.923   5.518  1.5780 -0.0001 -0.3364
 8660SOL    HW226880   3.978   4.972   5.362  0.0636 -0.1961 -0.3473
 8661SOL     OW26881   5.435   3.172   2.769 -0.2117 -0.1961 -0.2984
 8661SOL    HW126882   5.347   3.129   2.748 -1.5406  2.1349  0.1459
 8661SOL    HW226883   5.460   3.152   2.864 -0.7864 -0.0598 -0.1129
 8662SOL     OW26884   1.124   1.876   6.963 -0.0996 -0.1768 -0.5412
 8662SOL    HW126885   1.201   1.814   6.981 -1.4537 -2.1498 -1.2349
 8662SOL    HW226886   1.101   1.873   6.866  0.7729  2.7152 -0.9616
 8663SOL     OW26887   1.556   5.122   0.243  0.1250 -0.1205 -0.6897
 8663SOL    HW126888   1.548   5.198   0.309 -2.2708 -1.3171  0.5605
 8663SOL    HW226889   1.634   5.138   0.183 -1.3534  4.3977 -1.8512
 8664SOL     OW26890   6.646   4.205   2.713  0.2255 -0.2236 -0.2288
 8664SOL    HW126891   6.554   4.235   2.737  0.4995 -0.0084  0.5993
 8664SOL    HW226892   6.661   4.217   2.615 -0.9052 -1.0517 -0.5218
 8665SOL     OW26893   6.264   5.603   3.714  0.1640 -0.4001 -0.1642
 8665SOL    HW126894   6.353   5.570   3.682  0.8219  1.2781 -0.1712
 8665SOL    HW226895   6.278   5.663   3.793 -0.9450  0.1362 -0.3593
 8666SOL     OW26896   6.521   5.754   5.904  0.1506 -0.5034 -0.0575
 8666SOL    HW126897   6.556   5.758   5.811 -1.1563  1.0548 -0.5397
 8666SOL    HW226898   6.523   5.846   5.944  0.6010 -1.1245  1.4440
 8667SOL     OW26899   4.704   2.204   3.320 -0.1994  0.3875  0.0288
 8667SOL    HW126900   4.795   2.163   3.324  0.2356  1.4121  1.7905
 8667SOL    HW226901   4.637   2.140   3.356 -0.2380 -0.4318 -1.4157
 8668SOL     OW26902   5.684   0.879   0.606  0.1189  0.3693  0.0127
 8668SOL    HW126903   5.780   0.902   0.591  0.5615 -0.4824  1.3655
 8668SOL    HW226904   5.658   0.804   0.544 -0.1268  1.5553 -1.3840
 8669SOL     OW26905   4.567   0.240   6.156 -0.3891  0.3336 -0.3026
 8669SOL    HW126906   4.534   0.245   6.250 -1.0507 -1.5991 -0.3950
 8669SOL    HW226907   4.666   0.257   6.154 -0.4668  0.9513  0.6492
 8670SOL     OW26908   5.080   2.955   2.787 -0.2469 -0.3313 -0.1165
 8670SOL    HW126909   5.139   2.918   2.715  1.5365  0.2905  0.9850
 8670SOL    HW226910   5.073   2.889   2.861 -2.4940 -1.1865 -0.9992
 8671SOL     OW26911   5.245   4.672   1.499 -0.7948  0.6840  0.3046
 8671SOL    HW126912   5.259   4.580   1.461 -3.2342  0.5770 -0.5185
 8671SOL    HW226913   5.162   4.712   1.460 -0.3158  2.8944  1.3621
 8672SOL     OW26914   6.180   5.942   5.665 -0.1434  0.0097  0.1024
 8672SOL    HW126915   6.190   5.878   5.741 -0.6298 -1.7608 -1.2340
 8672SOL    HW226916   6.259   6.002   5.661  1.6785 -2.2418 -0.0793
 8673SOL     OW26917   5.456   2.844   0.977 -0.3139 -0.2403  0.0603
 8673SOL    HW126918   5.418   2.794   0.899  0.7332 -1.5656  0.3432
 8673SOL    HW226919   5.418   2.807   1.062  0.2566 -0.3752  0.2621
 8674SOL     OW26920   0.925   1.207   3.716 -1.0078  0.2355 -1.0394
 8674SOL    HW126921   0.975   1.230   3.633 -1.3422  0.3749 -1.2028
 8674SOL    HW226922   0.989   1.174   3.786 -0.5463  1.3954 -0.8852
 8675SOL     OW26923   3.118   2.832   1.623 -0.1272 -0.3338  0.5438
 8675SOL    HW126924   3.069   2.757   1.666 -0.8009  0.5639  1.3674
 8675SOL    HW226925   3.217   2.815   1.629 -0.1908 -3.2803 -3.0980
 8676SOL     OW26926   5.287   1.520   3.798  0.0524 -0.1079 -0.2446
 8676SOL    HW126927   5.212   1.457   3.779 -0.5417  0.4601  0.2034
 8676SOL    HW226928   5.356   1.512   3.725  0.2198 -1.5936  0.0336
 8677SOL     OW26929   2.506   4.529   4.042  0.5945  0.4884 -0.3208
 8677SOL    HW126930   2.408   4.536   4.061  0.3350 -0.8428 -1.0393
 8677SOL    HW226931   2.557   4.541   4.127 -0.3453 -1.4646  0.5897
 8678SOL     OW26932   1.499   3.099   0.362 -0.5352  0.1788  0.1356
 8678SOL    HW126933   1.510   3.115   0.460 -0.9729 -0.4101  0.2810
 8678SOL    HW226934   1.559   3.024   0.333 -0.6966  0.0916  0.0264
 8679SOL     OW26935   6.985   3.146   5.371 -0.1092  0.3561 -0.6636
 8679SOL    HW126936   6.886   3.158   5.384  0.0729  0.5102  0.7819
 8679SOL    HW226937   7.034   3.191   5.446  1.0037 -0.7471 -0.6909
 8680SOL     OW26938   1.077   3.811   6.216 -0.1679  0.2558 -0.4582
 8680SOL    HW126939   1.157   3.776   6.168  2.0024  1.9609  1.6443
 8680SOL    HW226940   1.053   3.901   6.179  0.7998  1.0603  0.7823
 8681SOL     OW26941   2.785   4.027   0.315 -0.2334  0.0576  0.0432
 8681SOL    HW126942   2.793   4.060   0.409  0.1945 -1.0129  0.4024
 8681SOL    HW226943   2.872   3.988   0.286 -1.0179 -1.8168  0.0875
 8682SOL     OW26944   6.768   6.082   2.084 -0.5420 -0.1023  0.3068
 8682SOL    HW126945   6.788   6.179   2.072  2.9445 -0.8956 -2.1195
 8682SOL    HW226946   6.824   6.045   2.158 -0.8725 -0.5031  0.3636
 8683SOL     OW26947   4.379   5.067   5.675  0.3449 -0.1976 -0.2348
 8683SOL    HW126948   4.342   5.062   5.582 -1.8081  1.3946  0.4466
 8683SOL    HW226949   4.372   5.161   5.709  0.9506 -0.7694  1.5970
 8684SOL     OW26950   1.197   1.963   4.957  0.3516 -0.0511 -0.6190
 8684SOL    HW126951   1.179   1.929   5.049 -1.2531  1.3006 -0.3781
 8684SOL    HW226952   1.130   1.924   4.893  0.6074  0.0727 -0.9676
 8685SOL     OW26953   6.454   2.280   5.968  0.1643 -0.0114  0.7725
 8685SOL    HW126954   6.374   2.236   6.007 -1.6043  0.0536 -2.4530
 8685SOL    HW226955   6.449   2.379   5.983  0.0681 -0.0999  1.3094
 8686SOL     OW26956   6.234   0.361   0.007 -0.1854  0.3639 -0.3403
 8686SOL    HW126957   6.167   0.334   0.075  0.9386  1.5210  1.3116
 8686SOL    HW226958   6.300   0.287  -0.007  0.2414  0.5264  0.7211
 8687SOL     OW26959   3.934   0.135   3.187 -0.2235  0.4001  0.3385
 8687SOL    HW126960   3.923   0.072   3.264 -2.5270  1.7271  1.2011
 8687SOL    HW226961   3.868   0.113   3.116 -0.0788  0.9657  0.0192
 8688SOL     OW26962   1.150   6.259   1.214  0.0850  0.0650  0.0399
 8688SOL    HW126963   1.065   6.310   1.206  0.6790  1.3085  1.3329
 8688SOL    HW226964   1.220   6.316   1.256  1.5701 -0.9456 -0.9412
 8689SOL     OW26965   4.372   5.197   0.065 -0.1671 -0.5353 -0.8903
 8689SOL    HW126966   4.413   5.118   0.022  0.2975 -1.6093  1.3640
 8689SOL    HW226967   4.443   5.251   0.111 -0.5976  0.6938 -1.6262
 8690SOL     OW26968   1.751   1.438   1.490 -0.4865  0.1389  0.4217
 8690SOL    HW126969   1.673   1.441   1.554 -1.1171  3.3816 -0.3005
 8690SOL    HW226970   1.836   1.430   1.542 -1.0113  2.2044  1.7511
 8691SOL     OW26971   5.201   1.231   6.182  0.0640 -0.7414 -0.2266
 8691SOL    HW126972   5.276   1.292   6.154 -0.5158  0.3136  0.4383
 8691SOL    HW226973   5.200   1.224   6.281 -0.7734 -0.6740 -0.2269
 8692SOL     OW26974   0.061   2.340   2.921 -0.1308  0.4102  0.0946
 8692SOL    HW126975   0.015   2.392   2.848 -1.7144 -1.0912 -0.0428
 8692SOL    HW226976   0.106   2.260   2.882 -0.9225 -0.3634  0.7209
 8693SOL     OW26977   4.181   3.821   0.641  0.7132  0.7532 -0.4401
 8693SOL    HW126978   4.211   3.912   0.611  0.1197  0.4301 -2.1210
 8693SOL    HW226979   4.103   3.792   0.586 -2.6746  1.4233  3.5613
 8694SOL     OW26980   2.730   0.014   0.855  0.4847  0.1263  0.2269
 8694SOL    HW126981   2.718   0.096   0.800  1.3297 -0.5903 -1.0816
 8694SOL    HW226982   2.656  -0.051   0.834 -0.0733  0.4641  1.1130
 8695SOL     OW26983   4.052   3.382   5.358  0.0762  0.3810  0.0392
 8695SOL    HW126984   4.024   3.450   5.425  0.1683  0.8445 -0.3905
 8695SOL    HW226985   4.055   3.423   5.267 -0.6836 -0.4097 -0.3605
 8696SOL     OW26986   0.912   5.088   6.126 -0.2551  0.1155  0.3091
 8696SOL    HW126987   0.835   5.082   6.190 -0.5888  1.4448  0.0529
 8696SOL    HW226988   0.877   5.105   6.034  0.3782  3.0335  0.5231
 8697SOL     OW26989   3.888   5.225   5.899 -0.0383 -0.0552 -0.0837
 8697SOL    HW126990   3.919   5.165   5.973 -0.3839 -0.0487  0.0654
 8697SOL    HW226991   3.966   5.278   5.865 -0.2685  1.6265  1.7971
 8698SOL     OW26992   5.940   4.948   5.445  0.5679 -0.3645  0.1483
 8698SOL    HW126993   5.993   4.946   5.360  0.7909  0.2909  0.2677
 8698SOL    HW226994   5.971   4.875   5.505  2.3027  0.8294  0.7839
 8699SOL     OW26995   3.045   0.685   4.360  0.0766  0.4612  0.9541
 8699SOL    HW126996   2.967   0.623   4.369 -0.2507  0.6231 -0.4878
 8699SOL    HW226997   3.122   0.650   4.412 -0.1717 -1.0515  0.3571
 8700SOL     OW26998   3.923   0.194   4.674 -0.4383 -0.3165 -0.1769
 8700SOL    HW126999   3.870   0.229   4.751  0.7438 -1.5168  1.2590
 8700SOL    HW227000   3.956   0.102   4.695  0.4082 -0.4554 -1.9015
 8701SOL     OW27001   0.199   6.616   3.131  0.4714  0.1189  0.2980
 8701SOL    HW127002   0.168   6.681   3.200 -1.2506 -1.2439  0.9048
 8701SOL    HW227003   0.145   6.628   3.047  0.5340 -0.1261  0.2202
 8702SOL     OW27004   4.821   6.539   0.777 -0.5117 -0.5278  0.5160
 8702SOL    HW127005   4.801   6.557   0.681  1.7533 -1.4312 -0.1877
 8702SOL    HW227006   4.872   6.615   0.815  0.4249 -1.0707  0.3762
 8703SOL     OW27007   0.334   3.177   2.346 -0.0664  0.6656  0.0380
 8703SOL    HW127008   0.373   3.265   2.318 -0.7415  1.1902  0.7155
 8703SOL    HW227009   0.383   3.103   2.300  1.6560  1.2940  0.7727
 8704SOL     OW27010   5.693   3.102   3.211  0.2118 -0.1181  0.4984
 8704SOL    HW127011   5.717   3.049   3.292 -0.5149 -1.6022 -0.2103
 8704SOL    HW227012   5.731   3.057   3.130 -2.1850 -0.8293 -0.3357
 8705SOL     OW27013   1.918   6.425   3.175  0.5109  0.3499  0.2623
 8705SOL    HW127014   1.820   6.435   3.194  0.3068  0.3136 -0.7070
 8705SOL    HW227015   1.970   6.476   3.243 -0.1412 -0.3052  1.2764
 8706SOL     OW27016   3.577   0.317   1.708 -0.1914  0.2833 -0.0090
 8706SOL    HW127017   3.619   0.408   1.707 -0.6367  0.5009 -1.4224
 8706SOL    HW227018   3.647   0.247   1.697 -0.0939  0.6097 -1.6606
 8707SOL     OW27019   5.164   3.198   6.401  0.2390 -0.7276  0.3344
 8707SOL    HW127020   5.071   3.203   6.362  0.3616 -1.9006 -0.1245
 8707SOL    HW227021   5.182   3.105   6.432  1.3032 -0.5199  0.3500
 8708SOL     OW27022   1.948   1.658   2.642  0.7468  0.1299 -0.0821
 8708SOL    HW127023   1.985   1.751   2.647 -0.0156  0.3784  2.8210
 8708SOL    HW227024   1.946   1.628   2.547  3.5876  1.9937 -0.8437
 8709SOL     OW27025   5.233   4.133   6.341  0.5290  0.3041 -0.0695
 8709SOL    HW127026   5.245   4.144   6.242 -0.0447 -3.5677 -0.7372
 8709SOL    HW227027   5.310   4.083   6.379 -1.8473 -3.6805  0.1026
 8710SOL     OW27028   2.137   5.160   5.853  1.0938  0.1551  0.5282
 8710SOL    HW127029   2.157   5.068   5.821  2.2190  0.8623 -0.9249
 8710SOL    HW227030   2.208   5.191   5.915  1.9494  0.8311 -0.7369
 8711SOL     OW27031   2.560   1.691   4.629  0.2883  0.6067 -0.4542
 8711SOL    HW127032   2.654   1.695   4.663  0.4113  3.1463 -0.9205
 8711SOL    HW227033   2.514   1.778   4.647 -1.3626  0.1145 -1.9931
 8712SOL     OW27034   3.511   6.854   1.018  0.6394 -0.1875 -0.1102
 8712SOL    HW127035   3.463   6.919   0.960  0.4033  0.9859  1.3312
 8712SOL    HW227036   3.608   6.850   0.992  0.1801 -1.1372 -1.7936
 8713SOL     OW27037   4.888   5.677   3.135  0.3702 -0.0995 -0.0347
 8713SOL    HW127038   4.987   5.670   3.128  0.4260 -0.7526  1.1192
 8713SOL    HW227039   4.864   5.742   3.207 -0.0229 -0.3053  0.0257
 8714SOL     OW27040   2.138   0.025   3.808 -0.5208  0.2562  0.0001
 8714SOL    HW127041   2.094   0.055   3.893  0.2391 -1.5628  1.0881
 8714SOL    HW227042   2.101  -0.063   3.781 -0.6849  0.7786 -1.5498
 8715SOL     OW27043   6.158   0.711   0.601 -0.1829  0.4389 -0.0402
 8715SOL    HW127044   6.169   0.740   0.696  0.2290 -1.0174  0.3782
 8715SOL    HW227045   6.118   0.619   0.598 -0.9376  0.7669 -1.3040
 8716SOL     OW27046   0.330   6.087   1.779  0.5667 -0.2555 -0.0651
 8716SOL    HW127047   0.405   6.141   1.740  0.5834  0.3728  0.8067
 8716SOL    HW227048   0.366   6.029   1.852  0.1237  0.4440  0.7235
 8717SOL     OW27049   2.693   4.926   5.419 -0.0108  0.2026 -0.0741
 8717SOL    HW127050   2.756   5.001   5.440 -1.5446  0.5313  4.7025
 8717SOL    HW227051   2.605   4.945   5.463 -1.4729 -3.0371 -1.3164
 8718SOL     OW27052   1.325   3.453   6.442  0.4417 -0.3795  0.1727
 8718SOL    HW127053   1.277   3.368   6.466  0.8018 -0.4746  0.5671
 8718SOL    HW227054   1.395   3.472   6.511  0.4301  0.1870  0.0321
 8719SOL     OW27055   6.241   2.101   4.300  0.2514  0.4310  0.3217
 8719SOL    HW127056   6.240   2.009   4.339 -1.3714  0.6367  0.8587
 8719SOL    HW227057   6.151   2.144   4.314  0.4881  1.5371 -1.2591
 8720SOL     OW27058   2.861   3.514   5.601  0.2729  0.0257  0.2480
 8720SOL    HW127059   2.805   3.451   5.654 -1.3496  0.9858 -0.2561
 8720SOL    HW227060   2.804   3.589   5.567  1.2674 -0.3606 -2.5551
 8721SOL     OW27061   0.391   2.037   6.225  0.1711  0.0455 -0.0417
 8721SOL    HW127062   0.402   1.997   6.316 -0.5470 -2.9679 -1.1508
 8721SOL    HW227063   0.297   2.025   6.194  0.7888 -0.5919 -1.8296
 8722SOL     OW27064   4.064   3.507   6.846  0.6548  0.0476 -0.1240
 8722SOL    HW127065   4.004   3.442   6.800  0.1628 -1.0098  1.8914
 8722SOL    HW227066   4.052   3.597   6.805 -2.3217 -0.1065  0.1338
 8723SOL     OW27067   0.767   5.815   0.338  0.5632 -0.3045  0.2455
 8723SOL    HW127068   0.668   5.805   0.350  0.4167 -1.0126 -1.3586
 8723SOL    HW227069   0.812   5.804   0.427 -0.7763  0.0100  1.0024
 8724SOL     OW27070   6.600   5.868   0.084  0.9472 -0.3399 -0.1156
 8724SOL    HW127071   6.656   5.786   0.091  2.6616  0.8685  1.8031
 8724SOL    HW227072   6.637   5.928   0.013 -1.4475 -1.9339 -2.8809
 8725SOL     OW27073   3.684   6.046   5.943  0.7016 -0.6929  0.2649
 8725SOL    HW127074   3.746   6.095   5.881 -0.2072  1.2141  0.7935
 8725SOL    HW227075   3.686   5.949   5.921  0.2231 -0.1090 -2.9880
 8726SOL     OW27076   0.965   0.876   0.742 -0.0565 -0.1199  0.2830
 8726SOL    HW127077   0.906   0.827   0.806  1.0628  1.0169  2.2704
 8726SOL    HW227078   1.045   0.911   0.790  1.6004 -0.4303 -2.0437
 8727SOL     OW27079   0.395   5.854   0.719  0.1345  0.0893 -0.0677
 8727SOL    HW127080   0.379   5.907   0.802  1.6253 -0.1028  0.3799
 8727SOL    HW227081   0.486   5.875   0.683 -0.6871  0.5925 -1.9962
 8728SOL     OW27082   2.085   4.876   6.402  0.4964 -0.2144 -0.0338
 8728SOL    HW127083   2.037   4.875   6.314 -0.0195  1.1302  0.2061
 8728SOL    HW227084   2.034   4.932   6.468  1.7644  0.2589  0.5973
 8729SOL     OW27085   5.005   6.886   5.443 -0.1779  0.0513  0.3083
 8729SOL    HW127086   5.079   6.954   5.438 -1.1018  1.3222  2.6052
 8729SOL    HW227087   5.030   6.815   5.510  0.2038 -1.2354 -1.1211
 8730SOL     OW27088   1.244   4.297   2.579  0.2324  0.4587  0.7004
 8730SOL    HW127089   1.146   4.320   2.579  0.1919  0.3235 -0.0239
 8730SOL    HW227090   1.295   4.371   2.624 -0.1111  0.9846  0.2454
 8731SOL     OW27091   0.612   1.315   3.324  0.2505 -0.0042  0.5151
 8731SOL    HW127092   0.666   1.335   3.242 -0.9090  2.3047  0.2471
 8731SOL    HW227093   0.641   1.375   3.398 -1.6916  1.0653  0.4519
 8732SOL     OW27094   6.678   6.406   2.282 -0.1338 -0.3035  0.4394
 8732SOL    HW127095   6.759   6.402   2.340 -1.2016 -1.7752  1.9216
 8732SOL    HW227096   6.703   6.441   2.192  1.8570  0.6632  1.3043
 8733SOL     OW27097   5.959   0.718   6.333  0.2580  0.3210  0.7467
 8733SOL    HW127098   5.870   0.709   6.379  0.9000  1.3089  2.2660
 8733SOL    HW227099   5.995   0.810   6.349  1.3794  0.0722 -0.2100
 8734SOL     OW27100   4.588   0.407   1.119 -0.0286 -0.6906 -0.9889
 8734SOL    HW127101   4.652   0.474   1.080 -1.8582  2.4180  0.9481
 8734SOL    HW227102   4.507   0.401   1.062 -0.7264  0.3405 -0.1379
 8735SOL     OW27103   5.953   4.582   6.089 -0.3278 -0.3154  0.2099
 8735SOL    HW127104   5.887   4.540   6.151 -0.1236 -1.0888 -0.0815
 8735SOL    HW227105   6.011   4.646   6.140 -1.9755  1.2007  0.2626
 8736SOL     OW27106   1.836   3.707   4.728 -0.7549 -0.2957  0.4316
 8736SOL    HW127107   1.788   3.678   4.811 -1.7999 -0.0468 -0.0689
 8736SOL    HW227108   1.933   3.682   4.735 -1.4239 -3.2459  0.3302
 8737SOL     OW27109   3.841   6.334   6.307 -0.0287 -0.1177  0.0613
 8737SOL    HW127110   3.782   6.320   6.387  0.0122 -0.3599  0.0498
 8737SOL    HW227111   3.816   6.419   6.261 -0.4600 -0.2927 -0.0264
 8738SOL     OW27112   1.042   4.011   3.553 -0.1079 -0.4062 -0.5717
 8738SOL    HW127113   1.015   3.966   3.468 -0.7801  0.1829 -0.6812
 8738SOL    HW227114   1.052   3.943   3.626 -0.9019 -0.7578 -0.7844
 8739SOL     OW27115   2.226   4.305   4.558 -0.2504 -0.5168  0.6136
 8739SOL    HW127116   2.308   4.308   4.501 -0.4313 -1.3044  0.3086
 8739SOL    HW227117   2.250   4.270   4.649  0.2030  1.5202  1.3419
 8740SOL     OW27118   6.988   5.302   6.063  0.2084  0.0091 -0.0067
 8740SOL    HW127119   6.962   5.378   6.123  0.9876 -0.4299  0.9165
 8740SOL    HW227120   7.050   5.241   6.113  0.2914 -0.7543 -1.0338
 8741SOL     OW27121   1.444   2.383   1.599 -0.0833  0.3011 -0.1051
 8741SOL    HW127122   1.474   2.404   1.692  1.1613  0.6178 -0.5700
 8741SOL    HW227123   1.499   2.434   1.533 -0.4900 -0.4496 -1.0509
 8742SOL     OW27124   2.854   4.508   0.749  0.0161 -0.4156 -0.3865
 8742SOL    HW127125   2.914   4.587   0.734 -0.0438 -0.2512  0.1979
 8742SOL    HW227126   2.885   4.458   0.830 -0.4950 -0.4603 -0.2119
 8743SOL     OW27127   2.328   6.049   2.076 -0.6004  0.0070  0.1748
 8743SOL    HW127128   2.347   6.126   2.137  0.6710 -0.0818 -0.0959
 8743SOL    HW227129   2.344   6.077   1.982 -0.3389 -0.5355  0.0603
 8744SOL     OW27130   1.263   3.428   5.916  0.6526  0.5538  0.7650
 8744SOL    HW127131   1.233   3.335   5.936 -0.7780  0.7756 -0.2265
 8744SOL    HW227132   1.208   3.493   5.969  0.1250  0.9259 -0.2251
 8745SOL     OW27133   6.229   2.625   5.809 -0.4570  0.2544 -0.2064
 8745SOL    HW127134   6.160   2.564   5.770 -0.0396  1.3875 -2.9583
 8745SOL    HW227135   6.313   2.573   5.826 -1.3878 -0.7724  1.6252
 8746SOL     OW27136   4.822   3.074   4.777  0.2976  0.4042  0.0286
 8746SOL    HW127137   4.915   3.084   4.812  1.1258 -3.2101 -0.7000
 8746SOL    HW227138   4.782   3.165   4.762  3.1823  2.0804  1.5690
 8747SOL     OW27139   1.815   1.060   5.821 -0.3159 -0.5180 -0.0764
 8747SOL    HW127140   1.887   0.995   5.797 -0.7339 -0.7046 -0.8783
 8747SOL    HW227141   1.825   1.143   5.766  0.3973  0.2360  1.1644
 8748SOL     OW27142   2.407   6.743   6.921  0.3368 -0.1282 -0.7387
 8748SOL    HW127143   2.375   6.814   6.858 -3.4247 -0.8566  0.1224
 8748SOL    HW227144   2.458   6.674   6.870  1.6300  1.6945 -2.0568
 8749SOL     OW27145   4.406   0.342   3.562 -0.6869 -0.4741  0.4754
 8749SOL    HW127146   4.310   0.369   3.568 -0.2956  1.6318 -1.4120
 8749SOL    HW227147   4.416   0.271   3.492 -0.5747  1.5293 -1.6720
 8750SOL     OW27148   0.342   0.388   5.143  0.1539 -0.3150 -0.8042
 8750SOL    HW127149   0.260   0.345   5.105  0.9588 -0.4012 -2.5355
 8750SOL    HW227150   0.357   0.477   5.100  0.7990 -0.1616 -0.2863
 8751SOL     OW27151   0.149   4.777   2.769 -0.2687  0.4489 -0.2231
 8751SOL    HW127152   0.186   4.791   2.677 -0.2570  0.8184 -0.1618
 8751SOL    HW227153   0.179   4.688   2.803  0.8111  0.8640 -0.0575
 8752SOL     OW27154   1.315   0.877   6.494 -0.0331  0.6298  0.2616
 8752SOL    HW127155   1.358   0.810   6.434 -0.2126  1.2396 -0.5612
 8752SOL    HW227156   1.219   0.889   6.468  0.1533  1.6327  0.0267
 8753SOL     OW27157   5.538   3.012   4.111 -0.3818 -0.3282  0.0448
 8753SOL    HW127158   5.543   2.913   4.103  2.7081 -0.2761  0.2879
 8753SOL    HW227159   5.611   3.054   4.057 -0.3522  1.7075  1.5433
 8754SOL     OW27160   2.961   0.982   6.869 -0.1889  0.3610  0.7698
 8754SOL    HW127161   2.929   1.015   6.958 -1.4070  1.5035 -0.0503
 8754SOL    HW227162   2.918   0.894   6.848 -1.6666  1.1416  0.3704
 8755SOL     OW27163   2.561   3.026   1.284  0.0975 -0.3601  0.2211
 8755SOL    HW127164   2.584   3.118   1.318 -1.7985  0.2555 -0.0207
 8755SOL    HW227165   2.599   2.958   1.346  1.3470  0.5844  0.5417
 8756SOL     OW27166   2.386   6.770   5.392 -0.4525  0.2189  0.5011
 8756SOL    HW127167   2.461   6.801   5.451 -0.7157 -1.0727  1.5797
 8756SOL    HW227168   2.402   6.800   5.298  0.8150  0.9475  0.9249
 8757SOL     OW27169   3.900   5.895   2.252  0.1694  0.4123 -0.9211
 8757SOL    HW127170   3.851   5.888   2.164  1.6681 -1.0577 -1.6880
 8757SOL    HW227171   3.979   5.834   2.251  0.7344  1.0412  1.1472
 8758SOL     OW27172   4.414   6.040   2.798 -0.2697 -0.2931 -0.3031
 8758SOL    HW127173   4.430   5.971   2.868  0.1612  0.8636  0.7821
 8758SOL    HW227174   4.493   6.046   2.737 -0.9639 -1.8553 -1.4344
 8759SOL     OW27175   5.654   0.670   0.391  0.2515  0.1107 -0.4625
 8759SOL    HW127176   5.744   0.638   0.361  0.4780 -1.4223  1.6564
 8759SOL    HW227177   5.591   0.593   0.395 -0.3165  0.6127  0.8680
 8760SOL     OW27178   2.127   4.560   1.039 -0.0747  0.8315  0.5768
 8760SOL    HW127179   2.133   4.635   1.104 -3.1242  1.8614 -0.1315
 8760SOL    HW227180   2.172   4.479   1.076  0.3082  2.0383  2.9071
 8761SOL     OW27181   5.455   6.146   1.489  0.0724  0.3741 -0.6894
 8761SOL    HW127182   5.426   6.191   1.404 -0.3069 -1.6010 -1.6849
 8761SOL    HW227183   5.378   6.096   1.528  0.2846  1.1466  0.7870
 8762SOL     OW27184   2.511   4.951   1.279  0.6956  0.2941 -0.2006
 8762SOL    HW127185   2.436   4.982   1.338  1.1406  0.7692  0.1261
 8762SOL    HW227186   2.498   4.989   1.187  1.7638  2.3847  0.4324
 8763SOL     OW27187   0.061   1.115   6.700 -0.0914  0.0810  0.4013
 8763SOL    HW127188  -0.020   1.164   6.733 -0.4576  0.3729 -0.8588
 8763SOL    HW227189   0.076   1.137   6.604  0.0606 -1.8483 -0.0697
 8764SOL     OW27190   3.286   1.849   6.272 -0.4329 -0.3119  0.2157
 8764SOL    HW127191   3.243   1.762   6.249 -0.9499  0.4886 -2.1157
 8764SOL    HW227192   3.242   1.923   6.220 -0.3596  1.4569  2.5028
 8765SOL     OW27193   5.918   0.946   3.014  0.0787  0.0625 -0.4042
 8765SOL    HW127194   5.967   0.987   2.938  0.4509  1.2779  0.4648
 8765SOL    HW227195   5.836   0.900   2.980  1.1921 -1.0257 -1.7396
 8766SOL     OW27196   2.064   4.912   2.114  0.1216  0.4117 -0.4280
 8766SOL    HW127197   1.993   4.964   2.066  0.2056 -0.5870 -1.6673
 8766SOL    HW227198   2.020   4.843   2.172  0.0592 -0.4385 -1.4605
 8767SOL     OW27199   4.451   0.441   6.559  0.4850 -0.2616 -0.4681
 8767SOL    HW127200   4.498   0.463   6.473  0.8240  1.8348  0.1969
 8767SOL    HW227201   4.490   0.357   6.597  0.5304 -1.0672 -2.1744
 8768SOL     OW27202   1.885   5.485   0.267  0.2274 -0.2293 -0.0244
 8768SOL    HW127203   1.869   5.584   0.273 -0.1793 -0.2170 -1.0831
 8768SOL    HW227204   1.934   5.465   0.182 -1.8344 -1.1731 -1.0588
 8769SOL     OW27205   0.071   1.743   0.426 -0.2165 -0.3278  0.3648
 8769SOL    HW127206   0.037   1.662   0.379 -2.2209  1.0285 -0.6741
 8769SOL    HW227207   0.025   1.825   0.390  0.6153  1.1324  2.3988
 8770SOL     OW27208   1.248   3.443   2.117 -0.2745  0.5663 -0.0958
 8770SOL    HW127209   1.283   3.536   2.111 -0.1526  0.5697  0.6230
 8770SOL    HW227210   1.324   3.380   2.134 -0.2930  0.2743 -1.0186
 8771SOL     OW27211   3.700   4.182   4.997 -0.2429 -0.6853  0.1073
 8771SOL    HW127212   3.656   4.204   4.910 -0.7858 -0.3045  0.4712
 8771SOL    HW227213   3.778   4.122   4.980  1.0322  1.1636 -0.8716
 8772SOL     OW27214   1.098   0.695   6.200  0.5718 -0.2998 -0.3686
 8772SOL    HW127215   1.193   0.670   6.218  0.7207  0.4482 -0.1104
 8772SOL    HW227216   1.090   0.728   6.106  0.4713 -0.7924 -0.5403
 8773SOL     OW27217   2.773   1.799   2.718 -0.1049 -0.1266 -0.3265
 8773SOL    HW127218   2.857   1.837   2.678  0.2492  1.8255  2.0618
 8773SOL    HW227219   2.707   1.873   2.734 -0.8089 -1.0430  1.2375
 8774SOL     OW27220   2.415   0.186   5.909 -0.5987  0.1594  0.6291
 8774SOL    HW127221   2.339   0.195   5.844 -1.3374 -0.4265  1.3924
 8774SOL    HW227222   2.406   0.256   5.980  0.4097  1.0309 -0.0734
 8775SOL     OW27223   5.852   4.777   5.190 -0.2819 -0.2799  0.6107
 8775SOL    HW127224   5.832   4.693   5.139  0.0612 -1.0202  1.6727
 8775SOL    HW227225   5.947   4.777   5.220 -0.5766 -0.0373  1.5793
 8776SOL     OW27226   1.858   2.350   4.407  0.5297  0.0505 -0.1508
 8776SOL    HW127227   1.814   2.438   4.387  0.4481  0.3245  1.1441
 8776SOL    HW227228   1.823   2.280   4.344 -0.1606  0.7297 -0.5342
 8777SOL     OW27229   6.882   5.454   0.925 -0.2854  0.1782  0.7035
 8777SOL    HW127230   6.970   5.424   0.960  1.3160  1.4083 -1.9339
 8777SOL    HW227231   6.867   5.415   0.834 -1.9046  0.9739  0.5843
 8778SOL     OW27232   6.765   2.420   3.421  0.7946 -0.3588  0.1726
 8778SOL    HW127233   6.763   2.458   3.329  0.0218 -0.5191  0.1143
 8778SOL    HW227234   6.857   2.430   3.460  0.3299  2.8352  0.6901
 8779SOL     OW27235   2.198   4.612   3.032 -0.4446 -0.1246 -0.4127
 8779SOL    HW127236   2.256   4.539   3.069 -0.2171  0.4561  0.3906
 8779SOL    HW227237   2.109   4.609   3.077 -0.1939  0.5318  0.1438
 8780SOL     OW27238   6.568   0.667   6.315 -0.0584  0.6203 -0.0495
 8780SOL    HW127239   6.505   0.671   6.237  0.0328 -2.1963 -0.3867
 8780SOL    HW227240   6.525   0.613   6.388  1.6726 -0.8576 -0.0640
 8781SOL     OW27241   2.977   2.900   1.404  0.1663 -0.4306 -0.1398
 8781SOL    HW127242   3.016   2.881   1.494  1.6245  0.4956 -0.5323
 8781SOL    HW227243   2.911   2.975   1.412  0.1040 -0.5162  0.1911
 8782SOL     OW27244   4.916   2.340   4.608 -0.1163  0.7580 -0.5046
 8782SOL    HW127245   4.877   2.249   4.622  0.5467  0.5273 -0.0701
 8782SOL    HW227246   4.898   2.396   4.689  0.7772  0.5208 -0.1292
 8783SOL     OW27247   5.711   4.512   0.692 -0.1610 -0.5858 -0.1857
 8783SOL    HW127248   5.616   4.529   0.668  0.0599  1.0892 -0.0266
 8783SOL    HW227249   5.750   4.594   0.735  1.7927 -0.6213 -1.7171
 8784SOL     OW27250   4.827   3.999   0.715  0.2682  0.1965 -0.3455
 8784SOL    HW127251   4.856   4.041   0.801 -0.3936  0.8492 -0.4350
 8784SOL    HW227252   4.764   3.924   0.734 -0.5751  0.9043 -0.2816
 8785SOL     OW27253   3.642   4.457   6.546 -0.3214 -0.0648  0.4165
 8785SOL    HW127254   3.709   4.404   6.599  1.7653  0.5727 -1.4330
 8785SOL    HW227255   3.632   4.417   6.455  0.6961  2.1517 -0.7548
 8786SOL     OW27256   2.375   5.249   6.008  0.5124 -0.1948  0.1320
 8786SOL    HW127257   2.408   5.163   5.970 -1.6765 -0.4292 -1.4352
 8786SOL    HW227258   2.291   5.233   6.060  0.2746  0.9397  0.1294
 8787SOL     OW27259   2.069   3.037   0.277 -0.4356  0.5123 -0.5110
 8787SOL    HW127260   1.976   3.048   0.312 -0.6503  0.8747 -1.1573
 8787SOL    HW227261   2.134   3.032   0.353 -1.0329 -0.2566 -0.0424
 8788SOL     OW27262   1.862   2.445   5.291  0.1949  0.1567  0.0688
 8788SOL    HW127263   1.810   2.526   5.264 -0.2530 -0.5153 -1.1782
 8788SOL    HW227264   1.806   2.388   5.351 -0.6483 -0.6754 -1.4471
 8789SOL     OW27265   1.585   1.318   1.693  0.8954 -0.5298 -0.1736
 8789SOL    HW127266   1.509   1.269   1.649 -0.3344  0.2114  1.0378
 8789SOL    HW227267   1.613   1.268   1.775 -0.6391  0.9089  1.2989
 8790SOL     OW27268   3.943   2.183   0.905 -0.0053 -0.6746  0.7113
 8790SOL    HW127269   3.936   2.275   0.943  0.3185  0.2596 -1.3313
 8790SOL    HW227270   3.976   2.120   0.975  1.1899  1.0511  1.7761
 8791SOL     OW27271   4.672   4.952   5.391  0.6030  0.1290  0.0564
 8791SOL    HW127272   4.768   4.979   5.382  0.4475  0.6289 -0.1398
 8791SOL    HW227273   4.615   5.015   5.339  0.1068  0.2406  0.7162
 8792SOL     OW27274   4.253   5.101   1.412  0.2940  0.8034 -0.7302
 8792SOL    HW127275   4.344   5.101   1.370  1.3246  1.0187  1.3916
 8792SOL    HW227276   4.227   5.195   1.434 -0.1246  0.6736 -0.6711
 8793SOL     OW27277   1.442   4.840   2.466 -0.0117 -0.0433  0.2041
 8793SOL    HW127278   1.390   4.827   2.550  0.0969 -1.4721  0.0794
 8793SOL    HW227279   1.505   4.763   2.453  0.7426  0.6855 -0.6434
 8794SOL     OW27280   2.533   5.352   1.395 -0.8265 -0.5255  0.4065
 8794SOL    HW127281   2.557   5.449   1.390 -0.3763 -0.4553  2.9494
 8794SOL    HW227282   2.570   5.304   1.315 -0.6586  1.2810 -0.6509
 8795SOL     OW27283   2.928   6.352   4.587 -0.5607  0.0222  0.4871
 8795SOL    HW127284   2.873   6.420   4.538  0.6830 -0.5433 -1.8293
 8795SOL    HW227285   3.016   6.392   4.613 -0.6015 -0.1428  0.8855
 8796SOL     OW27286   3.610   0.540   3.412  0.4057 -0.1100 -0.3113
 8796SOL    HW127287   3.539   0.600   3.376  0.5795  0.3377  0.0850
 8796SOL    HW227288   3.700   0.571   3.378  0.5603  0.2592  0.4215
 8797SOL     OW27289   0.266   4.612   6.313 -0.6966  0.1756  0.3867
 8797SOL    HW127290   0.283   4.586   6.218  0.8332 -1.6411  1.0707
 8797SOL    HW227291   0.172   4.643   6.323 -2.4122 -3.8577 -0.9508
 8798SOL     OW27292   2.078   3.392   6.925 -0.2603  0.0852  0.8481
 8798SOL    HW127293   2.163   3.425   6.883 -0.1425 -0.0421  0.9849
 8798SOL    HW227294   2.007   3.384   6.855 -0.2632  0.5305  0.7937
 8799SOL     OW27295   3.219   1.404   3.548  0.0661  0.0182  0.6108
 8799SOL    HW127296   3.122   1.400   3.570 -0.2581 -0.3713 -0.7735
 8799SOL    HW227297   3.263   1.475   3.603 -1.1367  0.6671  0.7687
 8800SOL     OW27298   4.402   2.939   6.417 -0.3653  0.3145 -0.1646
 8800SOL    HW127299   4.426   2.873   6.346 -1.1193  1.3257 -1.3973
 8800SOL    HW227300   4.308   2.923   6.448  0.0695 -0.3464  0.9141
 8801SOL     OW27301   3.677   6.980   0.177 -0.3858 -0.3860 -0.1463
 8801SOL    HW127302   3.602   6.990   0.110  0.5565  1.0886 -1.0517
 8801SOL    HW227303   3.760   6.950   0.129 -0.3356 -1.8685  0.8259
 8802SOL     OW27304   1.587   5.930   2.311 -0.1465 -0.0697 -0.1857
 8802SOL    HW127305   1.670   5.924   2.256  0.1654 -0.4862  0.3220
 8802SOL    HW227306   1.609   5.908   2.406 -0.6622  0.7095  0.1204
 8803SOL     OW27307   4.992   5.899   3.868  0.2305  0.4680  0.2206
 8803SOL    HW127308   4.992   5.801   3.848 -2.3994  0.3686  0.3660
 8803SOL    HW227309   4.987   5.951   3.783  0.2666  0.4401  0.2017
 8804SOL     OW27310   3.176   6.239   3.022  1.1952  0.2452  0.2499
 8804SOL    HW127311   3.198   6.146   3.052  1.3231 -0.2165 -1.1941
 8804SOL    HW227312   3.179   6.244   2.923 -1.5780  1.0735  0.1049
 8805SOL     OW27313   5.977   0.282   4.411 -0.1492  0.0866  0.3847
 8805SOL    HW127314   5.975   0.379   4.388  0.8617 -0.4123 -2.0611
 8805SOL    HW227315   6.069   0.246   4.397 -0.9827 -1.6949 -0.9230
 8806SOL     OW27316   4.493   4.888   5.146 -0.0072  0.2150 -0.5690
 8806SOL    HW127317   4.504   4.890   5.047 -0.9395 -0.4834 -0.6971
 8806SOL    HW227318   4.424   4.955   5.173  0.4199  0.5758 -0.3624
 8807SOL     OW27319   2.080   3.775   6.590 -0.5597  0.4740 -0.1566
 8807SOL    HW127320   2.173   3.761   6.558 -0.8821  1.1435 -1.4583
 8807SOL    HW227321   2.081   3.806   6.685  0.5150  0.0606 -0.0260
 8808SOL     OW27322   4.583   2.545   2.247  0.2977  0.3499  0.4491
 8808SOL    HW127323   4.545   2.522   2.158 -2.2940 -0.9059  1.7622
 8808SOL    HW227324   4.630   2.633   2.242 -2.0905  1.6266 -1.5973
 8809SOL     OW27325   5.089   4.133   5.837 -0.6004 -0.0858  0.1091
 8809SOL    HW127326   5.006   4.079   5.849  1.0530 -2.6115  0.7782
 8809SOL    HW227327   5.110   4.141   5.740 -0.3893 -1.4703  0.0236
 8810SOL     OW27328   6.003   0.742   3.546 -0.0757  0.3050  0.0422
 8810SOL    HW127329   5.977   0.762   3.451 -3.3150 -0.0036  0.7616
 8810SOL    HW227330   6.081   0.679   3.547  0.8836  1.3236 -2.3513
 8811SOL     OW27331   0.402   0.380   1.808 -0.1230  0.6986 -0.5578
 8811SOL    HW127332   0.335   0.364   1.736  0.2606 -0.5368 -0.6694
 8811SOL    HW227333   0.401   0.302   1.871  1.6331  0.3726 -0.9051
 8812SOL     OW27334   1.349   1.411   3.491 -0.0566 -0.5289  0.9979
 8812SOL    HW127335   1.356   1.468   3.410 -0.9813 -0.5313  0.8995
 8812SOL    HW227336   1.440   1.386   3.523  0.3278 -1.8153 -0.9515
 8813SOL     OW27337   0.567   5.876   6.590  0.0493  0.0194  0.1064
 8813SOL    HW127338   0.582   5.802   6.656 -1.1860  0.1431  0.5547
 8813SOL    HW227339   0.534   5.837   6.504 -3.0540  0.1127  1.1060
 8814SOL     OW27340   6.859   6.859   0.670 -0.1995 -0.0258 -0.0093
 8814SOL    HW127341   6.791   6.803   0.623 -0.6937 -0.1780  0.8629
 8814SOL    HW227342   6.818   6.901   0.751  0.8679 -0.5084  0.8123
 8815SOL     OW27343   5.709   6.742   4.004  0.3972 -0.2624 -0.2087
 8815SOL    HW127344   5.615   6.726   4.036  0.8390 -2.5679  0.0609
 8815SOL    HW227345   5.756   6.801   4.070 -0.3597 -0.4549  0.5296
 8816SOL     OW27346   0.179   4.007   1.716 -0.1779  0.6429 -0.1465
 8816SOL    HW127347   0.174   3.943   1.639  1.4270  1.9705 -1.4489
 8816SOL    HW227348   0.261   3.989   1.769  0.1131  1.3736 -0.3296
 8817SOL     OW27349   0.553   3.613   5.265  0.8739 -0.1018 -0.2138
 8817SOL    HW127350   0.577   3.516   5.266  1.5299  0.0521  1.0381
 8817SOL    HW227351   0.617   3.664   5.323 -1.2757  0.6237  1.6649
 8818SOL     OW27352   6.753   3.625   4.945 -0.1734  0.0825  0.0915
 8818SOL    HW127353   6.661   3.660   4.930  0.6477  1.8578 -1.1718
 8818SOL    HW227354   6.819   3.684   4.899  1.5643 -1.4938  0.4364
 8819SOL     OW27355   6.831   0.310   4.636 -0.3504 -0.1498  0.1679
 8819SOL    HW127356   6.789   0.219   4.633 -0.0588 -0.3026  0.6775
 8819SOL    HW227357   6.856   0.333   4.730 -0.7696  0.6215  0.1073
 8820SOL     OW27358   1.110   2.080   1.636 -0.0110  0.6707  0.0782
 8820SOL    HW127359   1.175   2.008   1.608 -0.5902  0.1521  0.0495
 8820SOL    HW227360   1.156   2.143   1.699  0.3237 -0.1093  0.6392
 8821SOL     OW27361   0.484   5.866   6.064  0.2514 -0.1133 -0.2502
 8821SOL    HW127362   0.388   5.843   6.083  0.4070 -1.1688 -0.6606
 8821SOL    HW227363   0.506   5.954   6.106 -0.4232 -0.6545  1.3284
 8822SOL     OW27364   2.625   1.504   4.018 -0.2100  0.8412 -1.0311
 8822SOL    HW127365   2.567   1.521   4.098 -0.5644 -1.0014 -0.8577
 8822SOL    HW227366   2.719   1.489   4.048 -0.5392 -0.9885 -0.7903
 8823SOL     OW27367   2.728   4.324   6.671 -0.4401  0.4562 -0.6041
 8823SOL    HW127368   2.637   4.317   6.629  0.1520 -0.1575 -1.8118
 8823SOL    HW227369   2.781   4.394   6.625  0.9710 -1.6598 -2.4207
 8824SOL     OW27370   4.568   5.019   0.385 -0.3293  0.0595  0.1846
 8824SOL    HW127371   4.501   4.946   0.374 -0.0732 -0.0385 -0.8781
 8824SOL    HW227372   4.651   4.982   0.429 -0.2164 -0.2851 -0.3102
 8825SOL     OW27373   0.899   4.080   5.883 -0.0395  0.6783 -0.4965
 8825SOL    HW127374   0.931   4.129   5.802 -2.0813 -0.6738 -2.2245
 8825SOL    HW227375   0.898   3.982   5.866  1.6300  0.1191  2.0375
 8826SOL     OW27376   5.120   0.726   1.842  0.3392 -0.0293 -0.1873
 8826SOL    HW127377   5.041   0.675   1.807 -0.4541 -1.3630  3.0949
 8826SOL    HW227378   5.094   0.822   1.856  0.0800  0.0779 -1.3258
 8827SOL     OW27379   6.887   0.796   3.481 -0.2721 -0.5796 -0.5826
 8827SOL    HW127380   6.789   0.804   3.499  0.0610  1.0376  0.6868
 8827SOL    HW227381   6.931   0.747   3.557  0.2565  0.9534  0.1311
 8828SOL     OW27382   3.285   5.441   2.721  0.1978 -0.3442  0.3088
 8828SOL    HW127383   3.380   5.416   2.744  0.3797 -0.0848 -0.1509
 8828SOL    HW227384   3.252   5.382   2.647 -0.1186 -0.6549  0.6925
 8829SOL     OW27385   6.699   1.420   1.323  0.1047 -0.0300  0.5468
 8829SOL    HW127386   6.607   1.386   1.343  0.2262 -0.0997  1.0192
 8829SOL    HW227387   6.764   1.377   1.387  0.6655 -1.0165 -0.6451
 8830SOL     OW27388   6.995   2.322   5.936 -1.0691  0.3138 -0.6073
 8830SOL    HW127389   6.974   2.297   5.842 -0.0104 -2.5648 -0.1781
 8830SOL    HW227390   6.944   2.262   5.999  0.0859  0.5388  0.5872
 8831SOL     OW27391   6.281   0.280   1.829 -0.3699 -0.5814  0.1452
 8831SOL    HW127392   6.294   0.350   1.759 -1.3571  0.9370  1.3869
 8831SOL    HW227393   6.309   0.191   1.794  0.4221  0.3383 -1.6856
 8832SOL     OW27394   5.219   1.114   1.178  0.2825 -0.2147 -0.4056
 8832SOL    HW127395   5.304   1.165   1.191  0.0536 -0.0721  0.6037
 8832SOL    HW227396   5.238   1.016   1.181  0.0741 -0.2266  2.5463
 8833SOL     OW27397   4.697   5.175   6.920 -0.1931 -0.1115  0.1092
 8833SOL    HW127398   4.681   5.103   6.987  1.8703  1.0904  2.0071
 8833SOL    HW227399   4.783   5.159   6.873  0.1463  0.9466  0.3485
 8834SOL     OW27400   6.490   2.950   5.688  0.0108  0.3611  0.0188
 8834SOL    HW127401   6.486   2.990   5.779  0.4519 -1.1841  0.7574
 8834SOL    HW227402   6.399   2.917   5.662  0.0941 -0.1649  0.3734
 8835SOL     OW27403   1.635   4.795   1.740  0.5049 -0.1204 -0.2294
 8835SOL    HW127404   1.679   4.708   1.763  1.3349  0.1636 -0.6638
 8835SOL    HW227405   1.648   4.813   1.642 -0.1096  0.2459 -0.2459
 8836SOL     OW27406   3.680   1.024   1.978 -0.3783  0.0123  0.0123
 8836SOL    HW127407   3.642   1.114   1.955 -1.7628 -1.0352 -2.1985
 8836SOL    HW227408   3.616   0.975   2.037  0.4713  0.5068  1.3877
 8837SOL     OW27409   1.514   3.208   1.353  0.3177 -0.4893 -0.6315
 8837SOL    HW127410   1.436   3.263   1.382  0.6809  0.8065 -2.0058
 8837SOL    HW227411   1.522   3.127   1.413 -2.7122 -1.2635 -1.1222
 8838SOL     OW27412   0.454   6.090   1.228 -0.1310  0.0401 -0.4513
 8838SOL    HW127413   0.398   6.173   1.221 -2.5772 -1.5341 -0.5298
 8838SOL    HW227414   0.428   6.039   1.310  0.1031 -1.4970 -1.2981
 8839SOL     OW27415   5.791   6.831   5.795 -0.8890  0.7227  0.0588
 8839SOL    HW127416   5.793   6.930   5.780 -0.1793  0.9569  1.5031
 8839SOL    HW227417   5.812   6.812   5.891  2.3771 -0.9596 -0.8446
 8840SOL     OW27418   4.715   0.286   1.585  0.5942  0.1571 -0.3802
 8840SOL    HW127419   4.802   0.236   1.581  1.8809  2.0064  1.7012
 8840SOL    HW227420   4.729   0.379   1.550 -1.0395 -0.0261 -1.6362
 8841SOL     OW27421   3.964   6.744   2.501  0.0096  0.1808 -0.6674
 8841SOL    HW127422   4.024   6.709   2.429  0.2001 -1.9726  0.4403
 8841SOL    HW227423   3.871   6.710   2.486 -0.2354  0.8211 -0.6173
 8842SOL     OW27424   1.736   1.763   2.346  0.2239 -0.1576 -0.7404
 8842SOL    HW127425   1.706   1.843   2.295 -0.4707  0.9353  1.2755
 8842SOL    HW227426   1.670   1.689   2.333 -1.9200  1.2616  1.2952
 8843SOL     OW27427   1.810   3.189   3.363 -0.2992  0.1172  0.5524
 8843SOL    HW127428   1.899   3.146   3.344  0.1305  0.8963  0.7613
 8843SOL    HW227429   1.766   3.141   3.439  0.6651  0.6843  1.5032
 8844SOL     OW27430   6.237   2.621   1.318 -0.1802  0.1794  0.5400
 8844SOL    HW127431   6.324   2.572   1.326 -0.8549 -1.0754  0.5261
 8844SOL    HW227432   6.247   2.697   1.253  0.7035 -0.4249 -0.0540
 8845SOL     OW27433   5.522   3.029   0.290  0.5795  0.0117  0.1897
 8845SOL    HW127434   5.607   3.009   0.243  0.4936 -2.6046  0.9365
 8845SOL    HW227435   5.540   3.047   0.387  0.2788 -1.5595  0.5735
 8846SOL     OW27436   4.588   6.156   4.824 -0.3062 -0.2778 -0.1357
 8846SOL    HW127437   4.584   6.254   4.808  0.7551  0.0002  1.1050
 8846SOL    HW227438   4.660   6.136   4.891 -0.1706 -1.9479 -0.7254
 8847SOL     OW27439   1.480   2.232   5.198 -0.5351 -0.2454 -0.5526
 8847SOL    HW127440   1.547   2.257   5.267 -0.9332 -0.8329  0.0588
 8847SOL    HW227441   1.390   2.220   5.241 -1.1394  0.9465 -1.4173
 8848SOL     OW27442   6.641   0.859   1.682 -0.0446 -0.0129  0.4187
 8848SOL    HW127443   6.732   0.899   1.692  0.9593 -2.5317  2.7841
 8848SOL    HW227444   6.594   0.861   1.770 -2.4852  1.4705 -0.8170
 8849SOL     OW27445   3.769   6.551   0.308  0.1453  0.3443  0.2824
 8849SOL    HW127446   3.813   6.465   0.332  1.9624  1.4576  1.1634
 8849SOL    HW227447   3.801   6.581   0.219 -0.3199  0.2244  0.0727
 8850SOL     OW27448   4.236   6.694   1.052 -0.4846 -0.1658  0.1390
 8850SOL    HW127449   4.212   6.741   1.136 -0.8071 -0.2330  0.0841
 8850SOL    HW227450   4.221   6.596   1.063  3.0092 -0.7197  1.3153
 8851SOL     OW27451   2.613   2.392   2.049 -0.5680  0.2195 -0.7191
 8851SOL    HW127452   2.705   2.389   2.088 -1.7926 -0.4554  2.4474
 8851SOL    HW227453   2.612   2.344   1.961  1.7064 -1.6706  0.1806
 8852SOL     OW27454   1.198   4.299   5.512 -0.1830  0.0947  0.2670
 8852SOL    HW127455   1.120   4.332   5.458  0.0334  2.7146  1.3911
 8852SOL    HW227456   1.165   4.268   5.601 -0.0883 -0.3081  0.1642
 8853SOL     OW27457   5.604   6.756   3.205  0.2315 -0.7247 -0.0729
 8853SOL    HW127458   5.610   6.853   3.181 -1.1433 -0.4649  0.5650
 8853SOL    HW227459   5.636   6.743   3.299  2.2066 -1.2130 -0.7468
 8854SOL     OW27460   0.533   2.839   4.424  0.1455  0.3229 -0.1790
 8854SOL    HW127461   0.516   2.937   4.412  1.4907  0.5409 -0.5780
 8854SOL    HW227462   0.619   2.815   4.377  0.8103 -0.6678  1.4773
 8855SOL     OW27463   5.870   4.773   1.563 -0.0239  0.4853  0.5702
 8855SOL    HW127464   5.959   4.746   1.599  0.2804 -0.1197 -0.5814
 8855SOL    HW227465   5.799   4.717   1.605  0.3597 -0.4720 -0.0055
 8856SOL     OW27466   5.384   2.069   4.861 -0.0343  0.3861 -0.1566
 8856SOL    HW127467   5.431   2.004   4.801 -1.4188  1.0722 -2.0688
 8856SOL    HW227468   5.432   2.157   4.859  0.7346  0.0196  0.9259
 8857SOL     OW27469   6.792   2.027   6.351  0.2057 -0.2817 -0.4049
 8857SOL    HW127470   6.879   1.977   6.346 -0.0977 -0.7584 -1.0980
 8857SOL    HW227471   6.804   2.118   6.312  0.5698 -0.0769  0.1652
 8858SOL     OW27472   0.030   5.386   4.523 -0.0751 -0.2358 -0.1856
 8858SOL    HW127473   0.086   5.346   4.452  0.6783 -2.4187  1.5321
 8858SOL    HW227474  -0.066   5.365   4.506 -0.1172  0.8122 -1.4425
 8859SOL     OW27475   0.853   6.234   2.305  0.2570 -0.7390 -0.4920
 8859SOL    HW127476   0.855   6.150   2.360 -0.3803 -1.1756 -1.1208
 8859SOL    HW227477   0.883   6.311   2.361  0.2640 -1.2856  0.2714
 8860SOL     OW27478   2.282   4.585   4.266 -0.0408  0.2739  0.0494
 8860SOL    HW127479   2.236   4.602   4.353  2.2977 -0.4211  1.5433
 8860SOL    HW227480   2.274   4.666   4.207 -0.5786  1.2795  1.4424
 8861SOL     OW27481   4.676   2.958   1.309 -0.2404  0.3735  0.2430
 8861SOL    HW127482   4.682   2.891   1.235  4.0971 -0.3437  0.9584
 8861SOL    HW227483   4.675   3.050   1.270  0.1818 -0.0283 -0.7587
 8862SOL     OW27484   5.255   5.042   4.361 -0.1118  0.7060 -0.0861
 8862SOL    HW127485   5.331   5.009   4.418  0.5094 -0.1014 -1.3264
 8862SOL    HW227486   5.272   5.137   4.336  1.9261 -0.1643 -2.4853
 8863SOL     OW27487   0.834   4.673   0.994 -0.1460  0.4253 -0.9473
 8863SOL    HW127488   0.886   4.757   0.980 -1.1349  1.0681 -0.8045
 8863SOL    HW227489   0.737   4.690   0.980 -0.5652 -0.2594  0.8730
 8864SOL     OW27490   6.394   2.685   3.360  0.3474  0.2154  0.0668
 8864SOL    HW127491   6.314   2.695   3.419 -0.0195  1.1596 -0.5664
 8864SOL    HW227492   6.397   2.761   3.294 -0.3989 -1.8034 -2.4933
 8865SOL     OW27493   2.234   0.222   0.345 -0.1756  0.3026  0.1094
 8865SOL    HW127494   2.170   0.295   0.320 -0.2584  0.6604  1.2711
 8865SOL    HW227495   2.186   0.152   0.398  0.0230 -0.3265 -0.5327
 8866SOL     OW27496   0.011   0.233   2.818  0.4718  0.2538 -0.0484
 8866SOL    HW127497  -0.008   0.271   2.727  0.3162 -0.7010 -0.4385
 8866SOL    HW227498  -0.074   0.230   2.871 -0.2925 -2.5522 -1.2239
 8867SOL     OW27499   5.950   1.099   2.442  0.3443 -0.6545 -0.1450
 8867SOL    HW127500   6.019   1.079   2.512  1.3603  2.6460 -0.0525
 8867SOL    HW227501   5.960   1.193   2.411 -3.2470 -0.4869 -1.2258
 8868SOL     OW27502   0.319   2.135   2.844 -0.4500 -0.6106  0.4330
 8868SOL    HW127503   0.411   2.120   2.879 -0.2538  0.6661  0.5028
 8868SOL    HW227504   0.321   2.131   2.744 -0.1136  0.4039  0.3871
 8869SOL     OW27505   3.028   0.609   2.607  0.5699 -0.0273  0.5353
 8869SOL    HW127506   3.086   0.645   2.681  1.2180 -2.1200  1.1172
 8869SOL    HW227507   3.038   0.666   2.526 -0.7202  2.7854  2.2151
 8870SOL     OW27508   1.170   6.213   6.593 -0.0560 -0.4561 -0.6889
 8870SOL    HW127509   1.102   6.286   6.595 -1.0219 -1.3175 -1.1554
 8870SOL    HW227510   1.194   6.193   6.498  0.8755 -0.1529 -0.5295
 8871SOL     OW27511   5.633   6.087   1.097  0.5102  0.0244 -0.2809
 8871SOL    HW127512   5.599   5.993   1.090 -1.3150  0.4924  1.3961
 8871SOL    HW227513   5.557   6.148   1.119  2.0631  1.4942  1.3166
 8872SOL     OW27514   7.009   0.033   4.486  0.2076  0.4632 -0.3652
 8872SOL    HW127515   7.006  -0.046   4.547  2.6275  1.1235  0.7339
 8872SOL    HW227516   6.917   0.053   4.453 -1.0527 -0.5104  2.2842
 8873SOL     OW27517   1.672   3.671   4.130  0.1759 -0.2183 -0.6060
 8873SOL    HW127518   1.584   3.661   4.083  0.4079 -0.1740 -1.0617
 8873SOL    HW227519   1.696   3.584   4.173  0.3516 -0.5158 -1.2836
 8874SOL     OW27520   2.008   4.201   1.353 -0.0553 -0.3288  0.2069
 8874SOL    HW127521   1.994   4.102   1.354  1.1828 -0.5181  0.2086
 8874SOL    HW227522   1.926   4.247   1.386 -0.3188 -1.3967  1.0838
 8875SOL     OW27523   0.372   4.249   4.434 -0.1326  0.3872 -0.7628
 8875SOL    HW127524   0.448   4.299   4.477 -0.9447 -0.5993  2.0342
 8875SOL    HW227525   0.289   4.261   4.489 -0.6161 -3.1537 -0.5104
 8876SOL     OW27526   4.065   5.147   1.166 -0.2409  0.3100  0.4062
 8876SOL    HW127527   4.135   5.171   1.233 -0.1501  0.8423  0.1237
 8876SOL    HW227528   4.107   5.101   1.088 -0.2595  0.2740  0.4172
 8877SOL     OW27529   1.994   5.006   1.801 -0.0582 -0.2277 -0.1545
 8877SOL    HW127530   2.084   4.966   1.819 -0.3032  0.8463  5.0924
 8877SOL    HW227531   2.005   5.086   1.742  2.7833  0.8430  1.6010
 8878SOL     OW27532   6.444   3.519   0.405 -0.3980 -0.0010 -0.4835
 8878SOL    HW127533   6.464   3.521   0.503 -1.0497  0.3690 -0.3503
 8878SOL    HW227534   6.497   3.447   0.361  0.3368  0.2113  0.0420
 8879SOL     OW27535   5.799   3.121   4.050  0.5009  0.2842 -0.4050
 8879SOL    HW127536   5.833   3.060   4.121 -1.3935 -0.1564  0.1745
 8879SOL    HW227537   5.840   3.212   4.060  5.3174 -1.2939 -2.7341
 8880SOL     OW27538   1.701   1.617   2.800 -0.4148 -0.2659 -0.2164
 8880SOL    HW127539   1.743   1.631   2.710 -0.1820 -0.3211 -0.1173
 8880SOL    HW227540   1.628   1.684   2.814 -1.2491 -0.9869 -0.9355
 8881SOL     OW27541   2.457   6.177   2.608  0.1076  0.0349 -0.9499
 8881SOL    HW127542   2.457   6.276   2.594  1.3932  0.1004 -0.6020
 8881SOL    HW227543   2.524   6.154   2.679 -1.0244 -0.9733 -0.1801
 8882SOL     OW27544   3.381   0.413   1.927  0.0671  0.2986  0.0555
 8882SOL    HW127545   3.369   0.510   1.910 -1.8211  0.1180  0.1873
 8882SOL    HW227546   3.439   0.374   1.855 -0.3682  1.2395 -0.8299
 8883SOL     OW27547   0.597   1.092   1.379  0.0234  0.1862 -0.0479
 8883SOL    HW127548   0.503   1.076   1.410 -0.5306  0.8697 -1.2982
 8883SOL    HW227549   0.655   1.111   1.458 -1.7439  4.0592  0.5383
 8884SOL     OW27550   3.585   2.755   6.108  0.0158  0.6189 -0.3597
 8884SOL    HW127551   3.613   2.769   6.013  1.0358  0.6454 -0.0686
 8884SOL    HW227552   3.489   2.725   6.110  0.4114 -0.8969 -1.4932
 8885SOL     OW27553   5.847   6.225   2.353  0.0576 -0.0090  0.2120
 8885SOL    HW127554   5.910   6.190   2.283 -1.2097  0.2656 -1.0939
 8885SOL    HW227555   5.805   6.148   2.401 -0.8511 -0.2710 -0.9622
 8886SOL     OW27556   5.265   6.763   0.963  0.4956 -0.2841  0.5695
 8886SOL    HW127557   5.173   6.780   0.927 -0.0403 -0.1150  1.9226
 8886SOL    HW227558   5.312   6.850   0.974 -0.3759 -0.0206  2.7805
 8887SOL     OW27559   2.551   1.580   1.991 -0.0423  0.0394  0.0334
 8887SOL    HW127560   2.549   1.516   2.067 -2.0159 -1.2983 -1.0616
 8887SOL    HW227561   2.626   1.557   1.929 -0.6524 -1.1737 -0.2788
 8888SOL     OW27562   3.507   0.599   4.158  0.2298  0.7977 -0.2616
 8888SOL    HW127563   3.469   0.509   4.138 -0.8229  1.1663  0.0356
 8888SOL    HW227564   3.474   0.665   4.090  2.5028  0.6333 -1.6515
 8889SOL     OW27565   2.802   3.102   0.150 -0.7735  0.0258  0.1939
 8889SOL    HW127566   2.804   3.160   0.232  2.3351 -0.2265  0.3959
 8889SOL    HW227567   2.741   3.024   0.166 -1.3815  0.7600  1.6727
 8890SOL     OW27568   1.585   5.393   0.308  0.6947  0.2166  0.3496
 8890SOL    HW127569   1.680   5.420   0.323  0.9943 -0.0232 -0.9836
 8890SOL    HW227570   1.551   5.437   0.225 -0.2753  0.0749  0.6585
 8891SOL     OW27571   5.191   4.219   5.589  0.4287 -0.2884  0.3610
 8891SOL    HW127572   5.179   4.307   5.634  1.7056  0.5490 -0.8790
 8891SOL    HW227573   5.117   4.205   5.523 -0.0015 -0.3546  0.8474
 8892SOL     OW27574   2.291   6.356   0.031  0.3065 -0.0041  0.4715
 8892SOL    HW127575   2.379   6.401   0.048 -0.0719  0.9645 -0.0444
 8892SOL    HW227576   2.282   6.276   0.090 -0.0780  2.0107  3.3576
 8893SOL     OW27577   1.103   3.718   5.427  0.2106  0.3234  0.0819
 8893SOL    HW127578   1.056   3.659   5.493  1.3277  0.7600  1.2995
 8893SOL    HW227579   1.181   3.670   5.387 -0.7039 -0.0919 -1.2909
 8894SOL     OW27580   6.608   4.392   0.116  0.1559  0.0256  0.1808
 8894SOL    HW127581   6.610   4.481   0.069  0.7431  0.1390  0.4181
 8894SOL    HW227582   6.566   4.324   0.055 -0.6032  0.5314  0.1238
 8895SOL     OW27583   6.992   3.340   2.236  0.7458  0.4788  0.2698
 8895SOL    HW127584   6.926   3.351   2.310 -0.7986  1.8957 -1.2433
 8895SOL    HW227585   7.071   3.399   2.254  0.3071  0.9466  0.6942
 8896SOL     OW27586   1.558   0.765   3.542  0.3967  0.2200 -0.7009
 8896SOL    HW127587   1.640   0.758   3.485  1.7414  0.7740  1.0787
 8896SOL    HW227588   1.535   0.675   3.579 -0.3158 -0.0890 -1.8499
 8897SOL     OW27589   0.222   4.785   4.298  0.0412 -0.2772  0.0263
 8897SOL    HW127590   0.160   4.862   4.310 -0.1576 -0.4283 -0.0279
 8897SOL    HW227591   0.312   4.808   4.335  0.1054  0.1399 -0.3930
 8898SOL     OW27592   6.144   4.849   1.198 -0.5305 -0.2153 -0.4118
 8898SOL    HW127593   6.067   4.873   1.140 -2.3141  2.6814  2.7948
 8898SOL    HW227594   6.229   4.868   1.149 -1.8123 -0.7701 -3.0284
 8899SOL     OW27595   2.811   5.043   1.455 -0.0864  0.4950  0.2678
 8899SOL    HW127596   2.751   5.067   1.378 -0.0381 -1.7848 -0.5418
 8899SOL    HW227597   2.905   5.065   1.431 -0.0532 -0.3561 -0.4018
 8900SOL     OW27598   3.785   2.187   6.720 -0.4200  0.6747 -0.0560
 8900SOL    HW127599   3.806   2.108   6.778  1.8135  1.7940  0.7614
 8900SOL    HW227600   3.817   2.169   6.627  0.1619  0.6532  0.1469
 8901SOL     OW27601   0.913   5.833   5.231  0.6280  0.4817 -0.5114
 8901SOL    HW127602   0.908   5.776   5.314 -0.6684  1.4634  0.1222
 8901SOL    HW227603   0.880   5.781   5.153  1.9152 -0.4781 -0.4637
 8902SOL     OW27604   0.768   3.988   1.301  0.0100 -0.2122 -0.0832
 8902SOL    HW127605   0.771   4.082   1.336  1.5971 -0.6651  1.1194
 8902SOL    HW227606   0.742   3.926   1.375  0.8964 -0.9252 -0.3533
 8903SOL     OW27607   0.641   0.802   1.797  0.0280  0.0460 -0.8059
 8903SOL    HW127608   0.653   0.730   1.728  0.0702 -1.0542  0.3250
 8903SOL    HW227609   0.567   0.778   1.858  1.0453  0.1933  0.5384
 8904SOL     OW27610   4.600   2.487   1.963  0.0587  0.4401  0.1092
 8904SOL    HW127611   4.683   2.431   1.960  0.4574  0.9054  1.6423
 8904SOL    HW227612   4.620   2.578   1.928 -0.8936 -0.6164 -3.6072
 8905SOL     OW27613   1.250   3.825   2.686 -0.1535  0.3918  0.2155
 8905SOL    HW127614   1.218   3.905   2.737  1.3735  0.1244  1.6713
 8905SOL    HW227615   1.172   3.764   2.668 -0.8912  0.8994  1.4945
 8906SOL     OW27616   0.562   1.820   6.039  0.0237  0.1685 -0.1033
 8906SOL    HW127617   0.488   1.859   6.094 -0.9420 -0.4297 -0.9498
 8906SOL    HW227618   0.619   1.894   6.004  1.0744  0.5376  2.2138
 8907SOL     OW27619   2.338   2.967   5.826  0.0782  0.5145 -0.0525
 8907SOL    HW127620   2.261   3.020   5.862  0.8810  1.1934  0.7096
 8907SOL    HW227621   2.330   2.872   5.856 -1.3147  0.2017 -1.3383
 8908SOL     OW27622   2.720   6.213   6.684  0.0321  0.6214 -0.3839
 8908SOL    HW127623   2.725   6.138   6.751 -0.1561 -0.7820 -1.8961
 8908SOL    HW227624   2.625   6.228   6.657 -0.1550  2.6022  1.1496
 8909SOL     OW27625   2.504   5.970   2.412 -0.7100 -0.5543 -0.0471
 8909SOL    HW127626   2.542   6.011   2.329 -1.0371 -1.6530 -0.7653
 8909SOL    HW227627   2.492   6.040   2.481 -0.8012  0.4719 -1.0698
 8910SOL     OW27628   1.294   1.865   5.637 -0.1250  0.0649  0.3182
 8910SOL    HW127629   1.301   1.829   5.544  2.0311 -1.0691  0.8271
 8910SOL    HW227630   1.358   1.942   5.647 -0.0567 -0.0694  0.9421
 8911SOL     OW27631   5.485   2.174   5.963  0.3068  0.1001 -0.3145
 8911SOL    HW127632   5.455   2.232   5.888  1.1847 -0.4342 -1.1028
 8911SOL    HW227633   5.582   2.150   5.950  0.6177  0.4226  1.2620
 8912SOL     OW27634   3.775   3.980   3.885  0.9151 -0.4510 -0.0235
 8912SOL    HW127635   3.758   3.962   3.982 -1.9965 -1.0198 -0.5282
 8912SOL    HW227636   3.694   4.022   3.844  2.6587  1.3465 -1.9149
 8913SOL     OW27637   4.470   1.017   1.181 -0.1372 -0.3295  0.5656
 8913SOL    HW127638   4.406   1.072   1.126 -0.7853 -0.8068  0.8351
 8913SOL    HW227639   4.562   1.027   1.143 -0.1331  1.3745  0.9175
 8914SOL     OW27640   4.242   5.766   5.593 -0.1030 -0.1058 -0.8752
 8914SOL    HW127641   4.212   5.755   5.499  1.4504  1.7558 -1.6645
 8914SOL    HW227642   4.194   5.701   5.652 -2.3491 -0.1959 -2.6671
 8915SOL     OW27643   3.274   2.144   3.469  0.4786  0.3597  0.2189
 8915SOL    HW127644   3.369   2.148   3.438  0.5891  0.2247  0.5366
 8915SOL    HW227645   3.214   2.165   3.392  0.8502  3.4317  0.6392
 8916SOL     OW27646   6.604   6.389   1.849  0.0315 -0.6316  0.2352
 8916SOL    HW127647   6.545   6.437   1.784  0.2624  1.1458  1.2618
 8916SOL    HW227648   6.546   6.339   1.914 -0.2916 -0.2731  0.2297
 8917SOL     OW27649   5.515   3.877   1.332 -0.1356  0.0464  0.3458
 8917SOL    HW127650   5.548   3.794   1.286 -1.3210 -0.4285  0.3313
 8917SOL    HW227651   5.442   3.918   1.278  0.8695  1.4806  0.0249
 8918SOL     OW27652   1.720   5.070   1.683  0.7820 -0.3638  0.2678
 8918SOL    HW127653   1.681   4.986   1.721 -0.9741  1.5853  3.1924
 8918SOL    HW227654   1.814   5.082   1.717  1.0344 -1.0996 -0.1507
 8919SOL     OW27655   0.075   2.003   3.200  0.0022 -0.0770  0.0294
 8919SOL    HW127656   0.149   1.949   3.240  2.1118  2.3547 -0.3652
 8919SOL    HW227657  -0.010   1.985   3.250  0.8834 -2.6136  0.7925
 8920SOL     OW27658   2.356   1.620   6.901 -0.2748 -0.1334 -0.5148
 8920SOL    HW127659   2.434   1.675   6.931  0.5705 -0.5670 -1.8101
 8920SOL    HW227660   2.332   1.555   6.973  0.5964 -0.0194 -0.1064
 8921SOL     OW27661   1.342   2.666   1.819 -0.8796 -0.1351 -0.2564
 8921SOL    HW127662   1.279   2.636   1.748  0.2261 -2.3702 -0.3649
 8921SOL    HW227663   1.400   2.590   1.847 -1.5003  0.5092  3.3408
 8922SOL     OW27664   2.037   5.610   4.175 -0.3371  0.3052  0.3425
 8922SOL    HW127665   1.992   5.686   4.223  0.3038 -0.7148  2.6923
 8922SOL    HW227666   1.968   5.542   4.150 -0.4802  0.0490  1.3976
 8923SOL     OW27667   2.049   2.610   4.245 -0.1338 -0.3855 -0.0574
 8923SOL    HW127668   1.992   2.676   4.295 -0.3511 -0.0898 -0.6791
 8923SOL    HW227669   2.000   2.578   4.165 -0.5177 -2.2627  0.8907
 8924SOL     OW27670   0.495   0.545   4.255 -0.1963  0.1937  0.0679
 8924SOL    HW127671   0.473   0.483   4.330 -0.2547  0.2518  0.0988
 8924SOL    HW227672   0.527   0.493   4.176  0.1428  0.1499  0.2313
 8925SOL     OW27673   1.015   0.898   5.494  0.3477 -0.0549  0.2453
 8925SOL    HW127674   0.987   0.943   5.579 -0.0889  0.8287 -0.3530
 8925SOL    HW227675   1.115   0.897   5.488  0.3634  1.6509 -0.1363
 8926SOL     OW27676   0.297   3.585   6.781  0.4069 -0.1929  0.1193
 8926SOL    HW127677   0.297   3.662   6.844  0.0475 -0.2047  0.1375
 8926SOL    HW227678   0.246   3.609   6.698 -5.0029 -2.1457  2.3705
 8927SOL     OW27679   0.768   4.601   5.778 -0.8012 -0.0611  0.4498
 8927SOL    HW127680   0.786   4.511   5.738  0.8282  0.5653 -0.3391
 8927SOL    HW227681   0.692   4.594   5.843  0.1514 -2.2729  1.4349
 8928SOL     OW27682   6.952   6.978   6.195 -0.4385  0.0671  0.1088
 8928SOL    HW127683   6.923   6.939   6.282  0.0390 -0.2455  0.1322
 8928SOL    HW227684   6.941   6.910   6.122  0.7044 -0.2417  0.2056
 8929SOL     OW27685   6.778   0.723   4.406  0.1192  0.2866  0.5320
 8929SOL    HW127686   6.749   0.628   4.411 -0.3535  0.4435  0.9395
 8929SOL    HW227687   6.876   0.729   4.423  0.5054 -0.3013 -1.3679
 8930SOL     OW27688   2.619   4.270   1.566 -0.3900  0.2374  0.4607
 8930SOL    HW127689   2.696   4.213   1.537 -1.1608 -0.7143  0.2279
 8930SOL    HW227690   2.654   4.356   1.604  0.7235  0.5632 -1.1980
 8931SOL     OW27691   4.012   5.021   1.531 -0.7934 -0.5516  0.5302
 8931SOL    HW127692   3.947   4.969   1.476 -1.1585 -2.2492  2.4378
 8931SOL    HW227693   4.096   5.037   1.478 -0.1851 -4.1878  0.1431
 8932SOL     OW27694   2.504   3.079   1.707  0.1176 -0.3817  0.7467
 8932SOL    HW127695   2.502   2.988   1.665 -0.4700 -1.3131  2.7174
 8932SOL    HW227696   2.591   3.091   1.754  0.8823  0.7689 -0.8537
 8933SOL     OW27697   3.645   0.352   5.176 -0.0299  0.7338 -0.0365
 8933SOL    HW127698   3.648   0.253   5.163  0.8703  0.5017  1.6947
 8933SOL    HW227699   3.733   0.391   5.148  0.3275  0.7700  1.0858
 8934SOL     OW27700   1.338   0.412   2.808 -0.2145  0.3030 -0.6239
 8934SOL    HW127701   1.361   0.439   2.715  1.9163  0.2057 -0.1763
 8934SOL    HW227702   1.325   0.314   2.812 -0.4349  0.3229 -0.8470
 8935SOL     OW27703   6.433   6.661   6.489 -0.4811  0.0530  0.1138
 8935SOL    HW127704   6.342   6.629   6.513  0.1651 -1.0940  1.0961
 8935SOL    HW227705   6.459   6.736   6.550  0.2969 -1.4299  1.6697
 8936SOL     OW27706   6.501   3.914   5.958  0.0653  1.0688  0.3298
 8936SOL    HW127707   6.521   4.011   5.963  1.7743  0.6898  1.8854
 8936SOL    HW227708   6.586   3.862   5.949 -0.5843 -0.3847  1.8697
 8937SOL     OW27709   1.221   2.169   5.281  0.5366  0.0594  0.3032
 8937SOL    HW127710   1.187   2.219   5.360 -0.8351  0.3940 -0.4738
 8937SOL    HW227711   1.179   2.078   5.278  1.4346 -0.3859  0.5498
 8938SOL     OW27712   4.780   5.065   1.541 -0.4595 -0.5712 -0.3167
 8938SOL    HW127713   4.789   5.164   1.547  0.3948 -0.3879 -2.9958
 8938SOL    HW227714   4.867   5.026   1.511 -1.6873 -1.6621 -2.7728
 8939SOL     OW27715   5.853   3.521   5.837 -0.3359  0.2241 -0.8916
 8939SOL    HW127716   5.896   3.557   5.754  1.7067  0.7055  0.3203
 8939SOL    HW227717   5.897   3.435   5.863 -1.1045 -0.0347 -0.4134
 8940SOL     OW27718   3.192   5.404   0.009 -0.3975 -0.2239  0.6045
 8940SOL    HW127719   3.159   5.455   0.088  1.2026  0.0128  1.1546
 8940SOL    HW227720   3.129   5.329  -0.011 -2.0141  1.0628  0.6707
 8941SOL     OW27721   4.640   2.375   0.893  0.2548  0.8784 -0.3240
 8941SOL    HW127722   4.625   2.398   0.797  3.5696  1.3843 -0.8320
 8941SOL    HW227723   4.711   2.306   0.900 -0.0870  0.6802  1.7932
 8942SOL     OW27724   2.615   1.499   6.247  0.2219  0.3783 -0.8150
 8942SOL    HW127725   2.595   1.414   6.197  1.3203  0.1378 -0.8806
 8942SOL    HW227726   2.549   1.569   6.221 -0.7046 -0.4606 -0.7566
 8943SOL     OW27727   5.007   4.617   0.772 -0.9552  0.9214  0.1124
 8943SOL    HW127728   4.960   4.687   0.827 -0.7395 -1.2357  3.3358
 8943SOL    HW227729   4.962   4.529   0.785  1.2680 -0.3538 -0.3576
 8944SOL     OW27730   3.374   6.864   6.683  0.1253 -0.1680 -0.6396
 8944SOL    HW127731   3.415   6.778   6.712  2.1251  0.8339 -0.3258
 8944SOL    HW227732   3.437   6.913   6.623 -0.7530  1.3066 -0.4278
 8945SOL     OW27733   2.131   0.255   2.015 -0.5073 -0.2301  0.3286
 8945SOL    HW127734   2.168   0.321   2.080 -0.6942  0.6555 -0.4314
 8945SOL    HW227735   2.045   0.217   2.050 -1.2878  1.2094  0.0581
 8946SOL     OW27736   3.884   0.535   5.194  0.2562  0.0139 -0.3775
 8946SOL    HW127737   3.917   0.453   5.241  0.6016 -0.4455 -1.3950
 8946SOL    HW227738   3.846   0.599   5.261 -0.0073 -0.9653  0.4265
 8947SOL     OW27739   3.899   3.003   6.588 -0.2174  0.0055  0.5285
 8947SOL    HW127740   3.880   3.043   6.678  0.9318 -0.3576  0.9526
 8947SOL    HW227741   3.812   2.983   6.542 -0.8444  2.4391  0.5154
 8948SOL     OW27742   5.817   5.658   3.631 -0.8919 -0.2078 -0.4980
 8948SOL    HW127743   5.817   5.742   3.578  1.0523  0.5890  0.6349
 8948SOL    HW227744   5.898   5.604   3.608 -0.6658 -0.4283  0.7167
 8949SOL     OW27745   1.694   5.426   5.679 -0.7122 -0.2121 -0.3604
 8949SOL    HW127746   1.792   5.445   5.685 -0.8855  1.2192 -1.5519
 8949SOL    HW227747   1.681   5.328   5.664  0.7508 -0.0883 -3.1676
 8950SOL     OW27748   5.714   3.541   6.688 -0.0508  0.4670  0.2774
 8950SOL    HW127749   5.654   3.574   6.761 -0.4594  0.5327 -0.0833
 8950SOL    HW227750   5.667   3.549   6.600  0.1396 -0.3335  0.0947
 8951SOL     OW27751   3.038   6.566   5.584 -0.3181 -1.1570 -0.4171
 8951SOL    HW127752   3.089   6.495   5.632  0.9795  0.1122  0.1731
 8951SOL    HW227753   3.087   6.592   5.501 -0.3378 -0.3760 -0.1892
 8952SOL     OW27754   6.235   5.234   2.919 -0.3692  0.4561 -0.4427
 8952SOL    HW127755   6.335   5.234   2.920 -0.3429 -1.5234 -0.3170
 8952SOL    HW227756   6.200   5.198   3.005 -1.2027  0.8402 -0.6056
 8953SOL     OW27757   4.095   3.836   6.202 -0.4196  0.0837  0.3411
 8953SOL    HW127758   4.031   3.760   6.217 -1.4705  1.0233  0.8117
 8953SOL    HW227759   4.103   3.890   6.286 -0.0559  0.7544 -0.1117
 8954SOL     OW27760   1.954   4.669   5.557 -0.4157  0.4761 -0.2060
 8954SOL    HW127761   1.902   4.585   5.574 -1.3805  0.9253 -0.8983
 8954SOL    HW227762   2.052   4.649   5.565 -0.6434 -0.6141  0.0513
 8955SOL     OW27763   6.051   1.075   2.837 -0.0290  0.1344  0.1012
 8955SOL    HW127764   6.088   1.071   2.744  0.7359  0.5017  0.3819
 8955SOL    HW227765   6.020   1.168   2.857  0.4244  0.2130  0.4447
 8956SOL     OW27766   1.296   0.388   3.863 -0.1506  0.1101  0.0749
 8956SOL    HW127767   1.204   0.402   3.899  0.2533  0.8546  0.8496
 8956SOL    HW227768   1.338   0.310   3.908 -0.6476 -0.6855 -0.7962
 8957SOL     OW27769   1.776   0.448   6.606 -0.5041  0.0611  0.1202
 8957SOL    HW127770   1.761   0.533   6.657  2.2734 -0.5141  2.1363
 8957SOL    HW227771   1.866   0.411   6.630 -0.3775 -1.9280 -2.9599
 8958SOL     OW27772   2.642   5.962   4.714 -0.4417  0.1130 -0.1918
 8958SOL    HW127773   2.593   6.016   4.783  0.7316  0.2472  0.5853
 8958SOL    HW227774   2.707   6.022   4.666 -0.4506 -0.2226 -0.6219
 8959SOL     OW27775   4.598   6.149   5.726 -0.0240 -0.2429 -0.4724
 8959SOL    HW127776   4.503   6.143   5.758  0.3709 -0.0192  0.7998
 8959SOL    HW227777   4.624   6.061   5.686 -0.7767 -0.2953 -0.8753
 8960SOL     OW27778   4.084   6.387   0.556  0.0402  0.4848 -0.1872
 8960SOL    HW127779   4.157   6.445   0.593 -0.1786  0.7755 -0.2106
 8960SOL    HW227780   4.019   6.365   0.629  0.5941 -0.4705  0.0395
 8961SOL     OW27781   0.866   2.527   4.330  0.1872  0.7795  0.6072
 8961SOL    HW127782   0.916   2.451   4.289 -0.9992 -0.2113  0.9398
 8961SOL    HW227783   0.911   2.554   4.415  1.1977  1.1496 -0.0256
 8962SOL     OW27784   4.615   6.967   5.132 -0.3902 -0.0997 -0.0759
 8962SOL    HW127785   4.653   6.971   5.225 -0.6136 -0.0115  0.0136
 8962SOL    HW227786   4.628   6.876   5.094 -1.6976 -0.6209  0.6452
 8963SOL     OW27787   6.631   1.165   3.041  0.4393 -0.2781 -0.0130
 8963SOL    HW127788   6.723   1.126   3.033 -0.2568 -2.0384  0.2997
 8963SOL    HW227789   6.630   1.254   2.995  2.1276 -0.5018 -0.5831
 8964SOL     OW27790   1.340   1.813   3.027  0.0703  0.6406  0.0274
 8964SOL    HW127791   1.411   1.750   3.059 -0.5909 -0.0985  0.0747
 8964SOL    HW227792   1.382   1.896   2.992  0.9395  0.3532  0.3761
 8965SOL     OW27793   2.220   4.751   0.266 -0.5514 -0.5130 -0.1475
 8965SOL    HW127794   2.312   4.714   0.248 -0.1567 -0.5451  1.7782
 8965SOL    HW227795   2.211   4.774   0.362 -2.9153 -1.4604 -0.0579
 8966SOL     OW27796   4.850   2.324   4.239  0.4339  0.1587 -0.2314
 8966SOL    HW127797   4.926   2.360   4.293  2.6936 -1.8727 -1.7856
 8966SOL    HW227798   4.825   2.234   4.273  0.4104 -0.2121 -1.1822
 8967SOL     OW27799   3.842   1.091   0.598 -0.4397  0.3875 -0.1998
 8967SOL    HW127800   3.756   1.107   0.648 -1.1153 -2.3640 -0.3019
 8967SOL    HW227801   3.919   1.104   0.660 -1.0618  0.7804  0.5160
 8968SOL     OW27802   6.477   5.616   4.569  0.0861 -0.9665 -0.0127
 8968SOL    HW127803   6.392   5.563   4.576 -1.0983  1.0163  1.7613
 8968SOL    HW227804   6.546   5.575   4.629 -1.1407 -0.0661  2.1429
 8969SOL     OW27805   6.200   5.944   4.497  0.2317  0.6309  0.1624
 8969SOL    HW127806   6.218   5.903   4.586  2.1195 -0.7900 -0.8074
 8969SOL    HW227807   6.102   5.936   4.476 -0.1855  0.7254  1.9560
 8970SOL     OW27808   3.226   2.083   0.741 -0.7489  0.0549 -0.1918
 8970SOL    HW127809   3.285   2.056   0.817  0.8496  0.2180 -1.3175
 8970SOL    HW227810   3.201   2.180   0.752  0.9104  0.5700 -0.7334
 8971SOL     OW27811   2.793   4.788   1.597  0.5171  0.6430  0.2452
 8971SOL    HW127812   2.832   4.869   1.554  0.5443  0.9298  0.8096
 8971SOL    HW227813   2.849   4.761   1.676  1.3250 -0.7530 -0.7367
 8972SOL     OW27814   5.574   0.100   4.548  0.3269  0.2645  0.1645
 8972SOL    HW127815   5.673   0.110   4.553  0.2432  1.1832  0.3352
 8972SOL    HW227816   5.535   0.182   4.504 -0.2903 -0.4279 -0.6069
 8973SOL     OW27817   3.114   3.345   6.269 -0.4004  0.3520  0.3686
 8973SOL    HW127818   3.133   3.247   6.275 -2.0407  0.0251  0.4632
 8973SOL    HW227819   3.147   3.379   6.181 -1.6815 -0.7262 -0.5593
 8974SOL     OW27820   1.971   1.984   3.046 -0.2532 -0.1605 -0.1025
 8974SOL    HW127821   1.979   1.885   3.035 -2.4444 -0.5232  0.9914
 8974SOL    HW227822   1.931   2.005   3.135  1.0600  1.7937  0.0998
 8975SOL     OW27823   4.982   0.203   5.706 -0.5860 -0.6075  0.0453
 8975SOL    HW127824   5.077   0.172   5.718 -1.3381 -3.2579 -0.2932
 8975SOL    HW227825   4.963   0.215   5.609 -0.3500  0.9375  0.1629
 8976SOL     OW27826   2.028   5.564   3.684  0.6545 -0.1868 -0.2652
 8976SOL    HW127827   2.125   5.574   3.661  0.5319  0.8326 -0.4085
 8976SOL    HW227828   1.974   5.627   3.628 -0.4105 -2.5535 -2.0591
 8977SOL     OW27829   5.941   2.216   1.220 -0.4267 -0.5956  0.1932
 8977SOL    HW127830   5.978   2.124   1.213 -2.2079 -1.2748 -1.1307
 8977SOL    HW227831   5.981   2.274   1.148 -0.3916 -0.7442  0.0932
 8978SOL     OW27832   6.901   4.243   2.291  0.1725 -0.0919  0.0164
 8978SOL    HW127833   6.823   4.181   2.295  1.1581 -1.4362 -0.5964
 8978SOL    HW227834   6.942   4.251   2.382 -1.2563  1.4744  0.5841
 8979SOL     OW27835   0.323   3.000   4.025 -0.1532  0.9630 -0.1458
 8979SOL    HW127836   0.378   2.979   4.106 -1.4942  0.8828  0.7819
 8979SOL    HW227837   0.226   2.993   4.049 -0.5729  1.5941 -1.6004
 8980SOL     OW27838   3.809   3.199   1.653  0.0328 -0.5936 -0.3088
 8980SOL    HW127839   3.722   3.240   1.678 -0.4740 -1.9209  0.2036
 8980SOL    HW227840   3.866   3.189   1.734  0.2030 -0.7684 -0.4501
 8981SOL     OW27841   2.708   2.168   5.688  0.7811 -0.3754  0.7227
 8981SOL    HW127842   2.646   2.112   5.633  2.2214 -0.0863 -1.3090
 8981SOL    HW227843   2.691   2.150   5.785 -2.0349 -0.7327  0.2742
 8982SOL     OW27844   2.820   5.404   6.641 -0.5176  0.3652 -0.0410
 8982SOL    HW127845   2.882   5.481   6.626 -0.7987  0.3634 -1.2721
 8982SOL    HW227846   2.827   5.340   6.565 -3.2505  1.2012 -1.1054
 8983SOL     OW27847   4.815   4.013   6.973 -0.2545  0.3138  0.1884
 8983SOL    HW127848   4.861   3.927   6.953 -0.9965  0.4549 -2.4228
 8983SOL    HW227849   4.769   4.007   7.062 -0.2761 -1.9692  0.0642
 8984SOL     OW27850   0.856   2.068   1.733 -0.6529  0.3689 -0.3898
 8984SOL    HW127851   0.813   2.055   1.644 -0.9294  1.4220 -0.4277
 8984SOL    HW227852   0.955   2.080   1.721 -0.6986  0.5770 -0.5633
 8985SOL     OW27853   3.547   3.049   6.355  0.4610  0.6107  0.2500
 8985SOL    HW127854   3.606   2.977   6.393  1.7060  0.2828 -2.1246
 8985SOL    HW227855   3.593   3.137   6.364  0.2503  0.6962  0.5020
 8986SOL     OW27856   2.491   6.236   1.344  0.3038 -0.0883  0.0261
 8986SOL    HW127857   2.541   6.152   1.364 -0.2454 -0.5783 -0.6045
 8986SOL    HW227858   2.414   6.245   1.409  0.8215  0.3371  0.5896
 8987SOL     OW27859   0.014   6.622   2.937 -0.1425 -0.1897  0.1466
 8987SOL    HW127860  -0.004   6.663   2.847 -0.7688  0.7187  0.6654
 8987SOL    HW227861  -0.070   6.584   2.974  0.3665 -1.7121 -0.1748
 8988SOL     OW27862   1.893   3.107   5.514  0.2171  0.0764 -0.0186
 8988SOL    HW127863   1.831   3.171   5.469  0.5228 -0.6458 -1.5137
 8988SOL    HW227864   1.851   3.016   5.518  0.9508 -0.2992 -0.5715
 8989SOL     OW27865   2.299   2.012   5.828 -0.0855  0.4263  0.2054
 8989SOL    HW127866   2.262   1.919   5.828 -0.0783  0.3993  1.5203
 8989SOL    HW227867   2.257   2.064   5.903 -0.6641  1.7317 -0.9839
 8990SOL     OW27868   0.148   3.256   3.251 -0.1691  0.5428  0.0200
 8990SOL    HW127869   0.147   3.343   3.201  1.1298  0.6212  0.0936
 8990SOL    HW227870   0.057   3.215   3.247 -0.4111  1.1287 -1.3902
 8991SOL     OW27871   1.492   2.072   3.276  0.0788 -0.3467  0.2451
 8991SOL    HW127872   1.406   2.038   3.313  0.3854 -2.3223 -0.7213
 8991SOL    HW227873   1.535   2.133   3.343 -2.8869  2.2341  0.0101
 8992SOL     OW27874   6.535   2.793   0.754 -0.3348 -0.4767  0.1115
 8992SOL    HW127875   6.473   2.717   0.734  0.6847 -1.9474  2.1130
 8992SOL    HW227876   6.522   2.821   0.849  0.2982  0.9378 -0.2020
 8993SOL     OW27877   5.212   2.350   0.578 -0.4911 -0.3885  0.0457
 8993SOL    HW127878   5.195   2.406   0.497 -1.7090  0.2838  0.7226
 8993SOL    HW227879   5.291   2.385   0.627 -0.7903  0.2941  0.0571
 8994SOL     OW27880   6.999   0.506   4.266 -0.3104 -0.2127 -0.2053
 8994SOL    HW127881   7.032   0.486   4.359 -0.2286 -1.6204 -0.5106
 8994SOL    HW227882   6.997   0.421   4.213 -1.6054  0.3547 -1.1054
 8995SOL     OW27883   1.217   0.717   6.829 -0.0243 -0.0942  0.0814
 8995SOL    HW127884   1.259   0.717   6.920 -2.3156 -0.2795  1.2202
 8995SOL    HW227885   1.253   0.793   6.776  1.2374  0.1265  1.1946
 8996SOL     OW27886   5.521   4.602   5.745  0.8697  0.0024  0.1687
 8996SOL    HW127887   5.532   4.629   5.649  1.5236 -0.2064  0.1795
 8996SOL    HW227888   5.611   4.601   5.790  0.8594 -1.8957  0.2345
 8997SOL     OW27889   5.475   4.564   3.180 -0.5914  0.0475  0.4393
 8997SOL    HW127890   5.458   4.564   3.278 -2.1532 -1.5876  0.2191
 8997SOL    HW227891   5.389   4.573   3.131  0.2723  1.9943 -0.8159
 8998SOL     OW27892   6.459   3.355   4.292  0.0820  0.6611  0.3963
 8998SOL    HW127893   6.369   3.396   4.281 -0.3438 -0.5620 -1.0443
 8998SOL    HW227894   6.459   3.263   4.251  2.0401  0.7350  0.1416
 8999SOL     OW27895   3.976   5.404   6.873  0.3017 -0.1125 -0.1367
 8999SOL    HW127896   4.068   5.374   6.850  0.0185 -0.2948 -1.0973
 8999SOL    HW227897   3.927   5.428   6.789 -0.7442 -0.6751  0.2850
 9000SOL     OW27898   0.816   3.809   3.753  0.2411 -0.1180 -0.1841
 9000SOL    HW127899   0.803   3.881   3.821 -0.3548 -0.9963  0.6438
 9000SOL    HW227900   0.769   3.835   3.668  0.0333  0.4667  0.1015
 9001SOL     OW27901   1.412   5.557   1.910 -0.0442 -0.1871  0.2974
 9001SOL    HW127902   1.402   5.654   1.932  1.0433  0.5582 -2.1556
 9001SOL    HW227903   1.501   5.524   1.943 -0.7298 -0.6243  1.8236
 9002SOL     OW27904   6.935   6.013   0.395  0.4036  0.0265  0.0785
 9002SOL    HW127905   6.928   6.050   0.488  0.3093 -3.2724  1.5082
 9002SOL    HW227906   6.845   6.015   0.352  0.1726  0.3059  0.5623
 9003SOL     OW27907   5.750   6.530   0.306 -0.0238  1.2150  0.3814
 9003SOL    HW127908   5.755   6.437   0.343  1.9829  0.6257 -1.2154
 9003SOL    HW227909   5.670   6.538   0.247  0.3210  0.1747 -0.2539
 9004SOL     OW27910   4.942   5.866   1.918 -0.9271  0.1262  0.2026
 9004SOL    HW127911   4.939   5.965   1.913  2.0179  0.4016  1.7942
 9004SOL    HW227912   4.880   5.834   1.991 -1.0653  0.8743  0.4179
 9005SOL     OW27913   4.714   1.624   4.281 -0.5633 -0.1125 -0.3727
 9005SOL    HW127914   4.728   1.699   4.346  0.3290 -0.9796  0.4742
 9005SOL    HW227915   4.774   1.638   4.202  0.2743 -0.3834  0.1992
 9006SOL     OW27916   3.683   4.395   6.260  0.0957  0.0973 -0.1621
 9006SOL    HW127917   3.586   4.383   6.239  0.5703 -0.6016 -2.0996
 9006SOL    HW227918   3.706   4.492   6.258 -0.2699  0.1687 -1.1171
 9007SOL     OW27919   1.853   6.940   2.985  0.6389 -0.0436 -0.0796
 9007SOL    HW127920   1.916   7.013   3.009  1.0825 -0.1625 -0.8414
 9007SOL    HW227921   1.880   6.900   2.897  0.1338 -0.8154  0.1044
 9008SOL     OW27922   6.953   5.472   0.015  0.8042  0.9755 -0.2617
 9008SOL    HW127923   7.044   5.474  -0.027  0.0610  1.7230 -1.9279
 9008SOL    HW227924   6.908   5.385  -0.009  0.1658  1.6368 -1.5475
 9009SOL     OW27925   2.434   4.570   1.271  0.2710 -0.1398  0.1743
 9009SOL    HW127926   2.430   4.481   1.316 -0.2626  0.2549  0.9314
 9009SOL    HW227927   2.515   4.619   1.302  2.5416 -1.6560 -2.8042
 9010SOL     OW27928   2.649   5.938   4.104  0.0432  0.3900 -0.3257
 9010SOL    HW127929   2.714   5.907   4.034 -0.0251  0.9763 -0.6599
 9010SOL    HW227930   2.673   6.031   4.132 -0.0834  0.2504  0.2505
 9011SOL     OW27931   2.250   1.661   3.310  0.2018 -0.6274 -0.4015
 9011SOL    HW127932   2.296   1.589   3.362  0.6865 -1.5741 -2.0784
 9011SOL    HW227933   2.317   1.710   3.254 -0.3414  0.2355 -0.3254
 9012SOL     OW27934   0.731   1.063   0.641  0.0041  0.1962  0.1287
 9012SOL    HW127935   0.722   1.162   0.645  0.4320  0.2686 -0.5160
 9012SOL    HW227936   0.818   1.035   0.682 -0.9179 -0.0788  1.9629
 9013SOL     OW27937   6.660   0.472   4.468  0.8838 -0.6425  0.0634
 9013SOL    HW127938   6.649   0.413   4.388 -0.4112 -0.6050  0.1984
 9013SOL    HW227939   6.708   0.422   4.540  0.5245 -1.2585 -0.1186
 9014SOL     OW27940   5.253   3.679   4.811  0.7824 -0.2534 -0.4117
 9014SOL    HW127941   5.292   3.661   4.901 -0.0849 -1.4035 -0.2518
 9014SOL    HW227942   5.308   3.634   4.741  0.3064 -1.0864 -0.2658
 9015SOL     OW27943   3.249   0.432   0.409  0.0851  0.0689 -0.2980
 9015SOL    HW127944   3.319   0.448   0.478  0.1230  0.1844 -0.3626
 9015SOL    HW227945   3.278   0.358   0.348  1.0219  1.3327 -1.4799
 9016SOL     OW27946   4.368   5.860   4.514  0.0926  0.2026 -0.4311
 9016SOL    HW127947   4.326   5.840   4.602  0.7218  0.9375  0.0536
 9016SOL    HW227948   4.376   5.959   4.503  2.4215  0.0947 -0.1367
 9017SOL     OW27949   1.839   4.920   5.540 -0.2954  0.4186 -0.8143
 9017SOL    HW127950   1.855   4.963   5.451 -0.5270  1.0775 -0.5519
 9017SOL    HW227951   1.875   4.827   5.541 -0.2284  0.4376 -1.5708
 9018SOL     OW27952   4.248   6.649   6.086  0.1922  0.2781 -0.4572
 9018SOL    HW127953   4.246   6.682   5.992  1.3583 -1.9910 -1.3747
 9018SOL    HW227954   4.298   6.714   6.144 -1.1717  2.0593 -1.1893
 9019SOL     OW27955   0.933   4.539   4.668 -0.7500 -0.5081 -0.2557
 9019SOL    HW127956   0.953   4.501   4.758 -0.3669 -1.6682 -0.8074
 9019SOL    HW227957   0.928   4.464   4.601  3.0825  0.5671 -1.9865
 9020SOL     OW27958   4.343   6.074   4.931 -0.5083  0.7548  0.2366
 9020SOL    HW127959   4.355   6.041   5.024 -0.5032 -0.6815 -0.2455
 9020SOL    HW227960   4.428   6.114   4.898 -0.4217  0.9824  0.7339
 9021SOL     OW27961   0.785   2.640   4.048  0.3778  0.4133  0.0553
 9021SOL    HW127962   0.859   2.579   4.018  1.6591  1.7362  0.4463
 9021SOL    HW227963   0.712   2.585   4.089  1.1769 -0.9198 -0.2447
 9022SOL     OW27964   4.442   1.953   2.224  0.6343 -0.3201  0.5603
 9022SOL    HW127965   4.471   2.046   2.249 -0.3028 -0.1480  1.0524
 9022SOL    HW227966   4.394   1.956   2.136  1.6973 -0.5394 -0.0417
 9023SOL     OW27967   1.079   4.673   0.813  0.0254  0.3883 -0.7777
 9023SOL    HW127968   0.998   4.687   0.758 -0.6856  1.1294  0.4161
 9023SOL    HW227969   1.126   4.760   0.827  1.4828 -0.1365 -2.0909
 9024SOL     OW27970   1.739   5.734   6.827  0.6680  0.4914 -0.2927
 9024SOL    HW127971   1.697   5.686   6.750 -0.5041  0.1151  0.5649
 9024SOL    HW227972   1.668   5.764   6.891  1.7393 -2.0364  2.3102
 9025SOL     OW27973   1.141   0.529   1.788  0.5205 -0.1269  0.1276
 9025SOL    HW127974   1.052   0.542   1.746  0.9453  2.5587 -0.1625
 9025SOL    HW227975   1.193   0.460   1.738 -2.2516 -3.8437  1.9314
 9026SOL     OW27976   6.663   3.620   6.849 -0.0325 -0.1770 -0.1878
 9026SOL    HW127977   6.709   3.544   6.894  0.7634  0.0222 -0.6388
 9026SOL    HW227978   6.730   3.692   6.829 -0.4745 -0.0314 -1.1876
 9027SOL     OW27979   0.651   4.829   3.203 -0.2407 -0.0570 -0.5520
 9027SOL    HW127980   0.717   4.776   3.256  1.6187 -0.5712 -3.1699
 9027SOL    HW227981   0.578   4.769   3.170 -0.6650 -0.0015  0.2550
 9028SOL     OW27982   2.002   5.477   0.028 -0.5353 -0.2791  0.3938
 9028SOL    HW127983   2.074   5.546   0.038 -1.2199  0.4135  0.5497
 9028SOL    HW227984   2.042   5.394  -0.010  0.2485  0.2875 -0.0561
 9029SOL     OW27985   3.647   6.185   4.500  0.0034 -0.2659 -0.4707
 9029SOL    HW127986   3.738   6.220   4.522  0.1862 -0.7727 -0.4070
 9029SOL    HW227987   3.587   6.193   4.579  0.6708 -2.1279  0.2672
 9030SOL     OW27988   2.241   0.781   3.463 -1.0101 -0.0362  0.1147
 9030SOL    HW127989   2.226   0.773   3.561 -1.0760  0.7459  0.1764
 9030SOL    HW227990   2.308   0.713   3.434  1.2984  1.5787  1.2569
 9031SOL     OW27991   6.593   5.960   4.010 -0.2523 -0.5572  0.7990
 9031SOL    HW127992   6.692   5.973   4.020 -0.0060 -2.1775  0.6518
 9031SOL    HW227993   6.549   5.971   4.100  0.1138 -0.3570  0.9571
 9032SOL     OW27994   5.021   3.067   0.862 -0.2593  0.4114 -0.0374
 9032SOL    HW127995   5.120   3.056   0.864 -0.2971 -1.4368 -2.6577
 9032SOL    HW227996   4.977   2.978   0.871 -1.8131  1.3146  2.3099
 9033SOL     OW27997   1.370   0.782   3.080 -0.2556 -0.1950  0.0051
 9033SOL    HW127998   1.371   0.825   3.171 -2.6621 -0.2143  0.1031
 9033SOL    HW227999   1.385   0.684   3.089 -0.5246 -0.2030  0.3912
 9034SOL     OW28000   4.195   6.928   4.817  0.1536 -0.1598 -0.2743
 9034SOL    HW128001   4.279   6.979   4.835 -0.1037  0.5562 -1.0248
 9034SOL    HW228002   4.215   6.830   4.819  0.6623 -0.0440  1.1512
 9035SOL     OW28003   1.778   5.597   5.268  0.2318  0.3437 -0.1656
 9035SOL    HW128004   1.865   5.552   5.284 -0.3728 -0.5913  0.6219
 9035SOL    HW228005   1.742   5.571   5.178  0.6904  0.6302 -0.4353
 9036SOL     OW28006   6.711   6.286   5.345  0.1445 -0.3222 -0.3380
 9036SOL    HW128007   6.809   6.277   5.325 -0.2414 -2.1787 -1.7034
 9036SOL    HW228008   6.658   6.273   5.261 -1.2878  0.8520  0.3374
 9037SOL     OW28009   6.374   1.554   0.439  0.0696  0.3619 -0.0977
 9037SOL    HW128010   6.384   1.541   0.538  1.4095  0.1656 -0.2336
 9037SOL    HW228011   6.278   1.545   0.414 -0.5431  1.9857  1.3981
 9038SOL     OW28012   4.915   2.990   6.136  0.4533  0.7129  0.4940
 9038SOL    HW128013   4.988   2.945   6.187 -1.7957 -0.6532  2.7625
 9038SOL    HW228014   4.892   3.077   6.181 -0.1804  0.5023  0.5861
 9039SOL     OW28015   4.417   5.596   4.759  0.4509  0.0178 -0.0429
 9039SOL    HW128016   4.454   5.553   4.841  0.1529 -1.7552 -0.7996
 9039SOL    HW228017   4.492   5.638   4.707  0.7524  0.4067  0.6898
 9040SOL     OW28018   1.845   2.928   0.799 -0.2788 -0.4962  0.1902
 9040SOL    HW128019   1.789   2.857   0.758 -1.0842  0.3038 -0.1137
 9040SOL    HW228020   1.818   3.018   0.764  2.5837 -0.1967 -1.6398
 9041SOL     OW28021   0.484   1.801   3.805 -0.1747  0.0269 -0.3246
 9041SOL    HW128022   0.442   1.829   3.891 -1.2525  1.4556 -1.2735
 9041SOL    HW228023   0.480   1.876   3.740 -0.1844 -1.3037 -1.9244
 9042SOL     OW28024   5.836   6.446   6.902  0.1698 -0.0842  0.0316
 9042SOL    HW128025   5.831   6.405   6.811 -1.9473 -0.7076  0.3771
 9042SOL    HW228026   5.895   6.527   6.898  0.3412 -0.2441 -1.8285
 9043SOL     OW28027   3.288   2.494   1.736  0.5886  0.5193  0.1432
 9043SOL    HW128028   3.382   2.478   1.705  0.4990 -0.2498  0.2502
 9043SOL    HW228029   3.233   2.412   1.719 -1.1844  2.2748 -3.8666
 9044SOL     OW28030   3.065   0.617   0.554 -0.0793 -0.0998  0.3949
 9044SOL    HW128031   3.157   0.597   0.520 -0.5624 -0.3236 -0.8443
 9044SOL    HW228032   3.015   0.532   0.569  0.2540 -0.0308  2.1508
 9045SOL     OW28033   2.863   0.472   3.812  0.4109 -0.8820  0.0035
 9045SOL    HW128034   2.848   0.570   3.795  0.5142 -0.5713  1.5908
 9045SOL    HW228035   2.775   0.425   3.817  0.3687 -0.9660 -1.1412
 9046SOL     OW28036   3.784   3.244   2.681  0.7059  0.0110 -0.7985
 9046SOL    HW128037   3.816   3.276   2.592  3.2123  2.6350  0.8448
 9046SOL    HW228038   3.729   3.315   2.725 -0.1637 -1.0734 -0.0692
 9047SOL     OW28039   1.963   4.893   6.148  0.1292 -0.5369  0.1901
 9047SOL    HW128040   1.870   4.856   6.144 -0.3922  0.8454 -1.4084
 9047SOL    HW228041   2.009   4.875   6.061  0.8200  0.1391  0.4111
 9048SOL     OW28042   0.295   3.451   4.582 -0.0040  0.2979  0.5306
 9048SOL    HW128043   0.239   3.444   4.499  1.2100  1.9361 -0.4732
 9048SOL    HW228044   0.387   3.481   4.559  0.3906  0.7572  2.4783
 9049SOL     OW28045   0.715   5.955   4.467  0.4117 -0.0819 -0.1694
 9049SOL    HW128046   0.619   5.950   4.440  0.2298 -1.0535  0.5959
 9049SOL    HW228047   0.764   5.877   4.428  1.2015  1.0878 -1.6380
 9050SOL     OW28048   0.345   4.877   1.057  0.0832 -0.2809 -0.8105
 9050SOL    HW128049   0.402   4.920   0.987  5.1739  2.7625  4.3057
 9050SOL    HW228050   0.264   4.933   1.072  1.8130  2.4160 -0.6880
 9051SOL     OW28051   2.296   1.978   0.111  0.2355  0.2806 -0.4338
 9051SOL    HW128052   2.322   2.072   0.135  1.3077 -0.1392  0.1152
 9051SOL    HW228053   2.297   1.922   0.194 -0.6116 -0.1847 -0.7228
 9052SOL     OW28054   1.755   2.797   6.204  0.0531  0.7239  0.3104
 9052SOL    HW128055   1.854   2.803   6.216 -0.0911  2.9489  0.9122
 9052SOL    HW228056   1.710   2.816   6.291 -0.9699 -3.0762  0.7824
 9053SOL     OW28057   1.227   5.863   0.247  0.0493 -0.2368 -0.0524
 9053SOL    HW128058   1.259   5.818   0.163 -1.2292 -0.2589 -0.5538
 9053SOL    HW228059   1.249   5.960   0.243  0.7315 -0.3803 -0.0218
 9054SOL     OW28060   1.509   6.008   3.610 -0.2979  0.1361  0.5428
 9054SOL    HW128061   1.564   5.961   3.541  0.5139 -1.1421  1.9959
 9054SOL    HW228062   1.542   6.102   3.622  1.8334 -0.6813  1.5740
 9055SOL     OW28063   6.594   1.084   5.479  0.5559 -0.1205 -0.1952
 9055SOL    HW128064   6.640   1.087   5.568 -0.5409  1.4546  0.3564
 9055SOL    HW228065   6.633   1.154   5.420  0.3610 -0.2612 -0.4903
 9056SOL     OW28066   4.889   2.038   4.575  0.7019  0.2026  0.3601
 9056SOL    HW128067   4.910   1.950   4.618 -0.5277  0.8423  2.3969
 9056SOL    HW228068   4.958   2.058   4.506  1.7288 -1.7606  0.7340
 9057SOL     OW28069   4.889   0.034   4.426 -0.5940 -0.2878 -0.3698
 9057SOL    HW128070   4.879  -0.051   4.373 -0.4755 -0.6302  0.1454
 9057SOL    HW228071   4.807   0.090   4.414 -0.7684 -0.5763 -0.5460
 9058SOL     OW28072   1.578   5.284   4.862  0.0140 -0.4948 -0.1281
 9058SOL    HW128073   1.493   5.331   4.838 -0.0343 -1.1332 -1.2993
 9058SOL    HW228074   1.645   5.298   4.789  0.3829 -1.2851  0.0454
 9059SOL     OW28075   2.264   0.396   3.611  0.2327  0.0929 -0.7127
 9059SOL    HW128076   2.343   0.447   3.577  0.5137  0.4141  0.3860
 9059SOL    HW228077   2.248   0.317   3.552 -0.0915  1.3076 -2.3534
 9060SOL     OW28078   4.842   4.017   5.895 -0.3807  0.3348 -0.3401
 9060SOL    HW128079   4.821   3.982   5.986 -1.1852  1.2524 -0.1607
 9060SOL    HW228080   4.779   3.977   5.829  0.2021 -0.3297 -0.5020
 9061SOL     OW28081   2.070   5.586   3.364 -0.1163 -0.3302 -0.0754
 9061SOL    HW128082   1.982   5.588   3.317  0.4260  0.8174 -1.1167
 9061SOL    HW228083   2.081   5.499   3.410 -1.4124 -0.8430 -0.6799
 9062SOL     OW28084   1.607   5.877   1.881  0.2983  0.5338 -0.2782
 9062SOL    HW128085   1.646   5.866   1.972 -1.4183  0.3245  0.4629
 9062SOL    HW228086   1.644   5.960   1.839  2.7608 -0.4771 -0.3255
 9063SOL     OW28087   2.336   2.961   1.182 -0.0287 -0.4029 -0.4767
 9063SOL    HW128088   2.354   2.883   1.121 -0.0827 -0.2076 -0.7465
 9063SOL    HW228089   2.420   2.988   1.227 -0.1192 -0.9699  0.0437
 9064SOL     OW28090   3.403   3.682   6.737  0.1804 -0.1842 -0.1307
 9064SOL    HW128091   3.390   3.606   6.800 -0.5044  0.5037  0.5833
 9064SOL    HW228092   3.499   3.710   6.737  0.0093  0.5165  1.4686
 9065SOL     OW28093   3.589   6.155   2.002 -0.3544  0.2054 -0.6239
 9065SOL    HW128094   3.502   6.122   1.967 -1.1852  1.2438  0.3642
 9065SOL    HW228095   3.600   6.252   1.977 -1.2892  1.1822  2.4019
 9066SOL     OW28096   4.599   6.658   1.466 -0.2892 -0.2692 -0.6664
 9066SOL    HW128097   4.595   6.664   1.565 -0.1417  1.1625 -0.7293
 9066SOL    HW228098   4.686   6.617   1.438  0.0445  0.1465 -0.2312
 9067SOL     OW28099   6.393   5.767   2.689  0.3957 -0.4279  0.4191
 9067SOL    HW128100   6.365   5.799   2.780 -0.5248 -1.8942  0.6748
 9067SOL    HW228101   6.481   5.720   2.696 -0.7270 -2.5677  1.0164
 9068SOL     OW28102   1.652   5.312   0.975 -0.0735  0.3980 -0.2051
 9068SOL    HW128103   1.635   5.232   0.917  2.1838 -0.5770  0.3621
 9068SOL    HW228104   1.722   5.370   0.933 -0.0643  0.8845  0.4575
 9069SOL     OW28105   3.080   2.971   6.850 -0.0867 -0.3902 -0.5018
 9069SOL    HW128106   3.178   2.956   6.865 -0.6079 -1.6450  2.4083
 9069SOL    HW228107   3.043   3.026   6.925 -1.6057  0.2327 -1.6490
 9070SOL     OW28108   1.723   4.303   5.335 -0.2162  0.0187  0.2450
 9070SOL    HW128109   1.773   4.374   5.384 -0.2562  0.5886 -0.5287
 9070SOL    HW228110   1.770   4.216   5.346  0.9083  0.5267 -0.3997
 9071SOL     OW28111   5.090   4.808   0.607  0.2476 -0.1914 -0.5929
 9071SOL    HW128112   5.040   4.834   0.524 -0.8628  3.0850  0.9095
 9071SOL    HW228113   5.041   4.735   0.654 -1.5382  0.8440 -0.7323
 9072SOL     OW28114   3.577   4.774   1.587  0.5687  0.6694  0.1588
 9072SOL    HW128115   3.569   4.714   1.667 -0.7667  1.0709  0.3525
 9072SOL    HW228116   3.555   4.868   1.614  1.8775  1.1406 -0.3122
 9073SOL     OW28117   1.019   1.411   0.138  0.2146  0.9042  0.1815
 9073SOL    HW128118   1.075   1.493   0.152 -0.1892  1.0089  1.2619
 9073SOL    HW228119   0.940   1.433   0.081  0.1882  1.2348  0.3465
 9074SOL     OW28120   1.410   1.363   6.771 -0.2648  0.4518 -0.0481
 9074SOL    HW128121   1.380   1.446   6.723  0.9051  0.7059 -0.3553
 9074SOL    HW228122   1.433   1.292   6.705  0.4357  0.4811  0.1616
 9075SOL     OW28123   5.340   2.121   1.765  0.2863  1.2531  0.2532
 9075SOL    HW128124   5.303   2.032   1.791 -1.1193  2.0765  1.2136
 9075SOL    HW228125   5.324   2.187   1.838 -0.7286  2.8344 -1.2891
 9076SOL     OW28126   2.361   0.983   6.707  0.1423  0.1848  0.1760
 9076SOL    HW128127   2.457   0.958   6.697 -0.1717 -0.9385 -0.0536
 9076SOL    HW228128   2.354   1.060   6.772  1.0868 -0.5833  1.2320
 9077SOL     OW28129   3.652   6.174   3.251 -0.4914 -0.0805  0.3230
 9077SOL    HW128130   3.618   6.171   3.345 -0.5719  2.7739  0.4759
 9077SOL    HW228131   3.621   6.258   3.206  1.6511 -0.0891 -1.3978
 9078SOL     OW28132   6.461   3.086   5.932 -0.2590  0.4523 -0.4486
 9078SOL    HW128133   6.467   3.186   5.929 -0.6387  0.4694 -0.7288
 9078SOL    HW228134   6.458   3.056   6.027 -0.4952  0.7329 -0.3644
 9079SOL     OW28135   0.193   1.473   4.569 -0.0393 -0.3542  0.4084
 9079SOL    HW128136   0.240   1.560   4.555 -0.1370 -0.4183 -0.3694
 9079SOL    HW228137   0.242   1.401   4.520 -1.1364 -0.3639 -0.7250
 9080SOL     OW28138   2.765   1.842   3.279 -0.0694 -0.5342 -0.2508
 9080SOL    HW128139   2.782   1.840   3.180  2.9486  1.4733  0.1078
 9080SOL    HW228140   2.842   1.801   3.327 -0.6699  0.1144  1.3190
 9081SOL     OW28141   5.140   0.373   3.246 -0.3798 -0.1701 -0.0828
 9081SOL    HW128142   5.222   0.343   3.198 -0.7308  0.5204 -1.1660
 9081SOL    HW228143   5.120   0.468   3.221 -2.3790 -0.8053 -1.1117
 9082SOL     OW28144   2.388   0.589   2.013  0.1558  0.4971  0.2924
 9082SOL    HW128145   2.474   0.599   2.064 -1.0486  0.4032  2.4567
 9082SOL    HW228146   2.339   0.509   2.046 -0.7252  0.4726 -1.0129
 9083SOL     OW28147   5.690   4.986   3.072 -0.2933 -0.2256 -0.1013
 9083SOL    HW128148   5.640   4.902   3.049 -0.3021 -0.4234  0.6215
 9083SOL    HW228149   5.660   5.019   3.161  0.7043 -0.2313  0.2488
 9084SOL     OW28150   2.996   3.858   2.411 -0.1919 -0.2440 -0.2094
 9084SOL    HW128151   2.919   3.919   2.394  0.1189  0.1461 -0.2204
 9084SOL    HW228152   3.018   3.858   2.508  1.1127  1.2621 -0.4572
 9085SOL     OW28153   1.778   3.775   0.578 -0.0113 -0.0866  0.6229
 9085SOL    HW128154   1.845   3.822   0.521 -1.2413  0.1184 -0.7072
 9085SOL    HW228155   1.717   3.721   0.520 -1.5067  0.3665  1.7174
 9086SOL     OW28156   2.025   4.138   0.171 -0.4742 -0.0703  0.0887
 9086SOL    HW128157   2.084   4.152   0.251 -0.1122  0.0442 -0.1932
 9086SOL    HW228158   1.996   4.042   0.168  1.7472 -0.7889 -1.1177
 9087SOL     OW28159   6.473   2.121   2.281  0.6306 -0.1097  0.1730
 9087SOL    HW128160   6.473   2.169   2.369 -0.9151 -0.3690  0.3369
 9087SOL    HW228161   6.379   2.113   2.247  0.7306 -3.2143  0.2887
 9088SOL     OW28162   5.774   3.838   3.359  0.1749 -0.3775  0.4602
 9088SOL    HW128163   5.769   3.907   3.287 -0.5080 -0.3572  0.5216
 9088SOL    HW228164   5.716   3.760   3.334  1.3776 -1.1848  0.1241
 9089SOL     OW28165   3.901   1.553   4.989 -0.0451 -0.4368 -0.0863
 9089SOL    HW128166   3.868   1.485   5.054 -1.5244  1.3908  1.1842
 9089SOL    HW228167   3.959   1.620   5.037 -1.2958  1.0400 -0.5466
 9090SOL     OW28168   5.858   2.943   4.252  0.6036 -0.5521 -0.1022
 9090SOL    HW128169   5.818   2.852   4.263 -1.1678  0.0668 -0.9878
 9090SOL    HW228170   5.877   2.983   4.342 -0.1196 -1.1757  0.3369
 9091SOL     OW28171   5.109   3.047   0.436  1.0259 -0.0235  1.1533
 9091SOL    HW128172   5.031   3.100   0.469 -1.5976 -2.0905 -1.2160
 9091SOL    HW228173   5.183   3.109   0.411 -1.8621  2.6960 -1.5716
 9092SOL     OW28174   0.409   5.252   5.557  0.4034  0.0929 -0.5661
 9092SOL    HW128175   0.443   5.173   5.507  0.6694 -1.6579  2.1728
 9092SOL    HW228176   0.312   5.240   5.577  0.7948 -0.3989  1.2334
 9093SOL     OW28177   2.405   6.636   3.861  0.6237  0.4707 -0.4978
 9093SOL    HW128178   2.321   6.610   3.814  0.0029  0.0806  0.7664
 9093SOL    HW228179   2.447   6.713   3.814 -0.1542  0.3320 -1.4602
 9094SOL     OW28180   2.222   3.894   0.551 -0.7369  0.2566  0.3587
 9094SOL    HW128181   2.193   3.893   0.455  0.5278  0.6228 -0.0508
 9094SOL    HW228182   2.181   3.817   0.599 -2.4757  0.8327 -0.1295
 9095SOL     OW28183   0.355   6.475   0.019  0.0777  0.4038  0.5451
 9095SOL    HW128184   0.317   6.487   0.111  1.6338  3.6179  0.8977
 9095SOL    HW228185   0.455   6.479   0.024  0.2055  0.1607 -1.2730
 9096SOL     OW28186   6.688   5.645   3.461  0.4709  0.6724 -0.1989
 9096SOL    HW128187   6.733   5.567   3.417 -0.4088 -0.1052  0.2456
 9096SOL    HW228188   6.624   5.687   3.397 -0.3461 -0.0703  0.1142
 9097SOL     OW28189   3.150   3.083   2.973  0.3743 -0.3243  0.0632
 9097SOL    HW128190   3.213   3.117   3.043  0.7411 -1.1727  0.1578
 9097SOL    HW228191   3.186   2.998   2.934 -1.2293 -1.4631  0.9245
 9098SOL     OW28192   2.865   5.130   3.929  0.2188  0.4735  0.1969
 9098SOL    HW128193   2.891   5.195   3.857 -2.0011  2.5339  1.1383
 9098SOL    HW228194   2.832   5.045   3.887 -0.1611  1.2834 -1.2009
 9099SOL     OW28195   3.431   0.022   0.866  0.3064  0.0384  0.5437
 9099SOL    HW128196   3.450   0.112   0.904  2.9043 -0.4713  0.6362
 9099SOL    HW228197   3.415   0.030   0.767  0.1781  0.6370  0.6108
 9100SOL     OW28198   1.471   5.349   4.172  0.0322  0.0117 -0.2709
 9100SOL    HW128199   1.555   5.296   4.188  0.8643  1.6666  1.1452
 9100SOL    HW228200   1.432   5.377   4.259 -0.9546  0.8511 -0.9574
 9101SOL     OW28201   0.298   1.680   1.547  0.1193  0.1025  0.0863
 9101SOL    HW128202   0.331   1.762   1.500 -0.3192 -0.8076 -1.8944
 9101SOL    HW228203   0.368   1.609   1.545 -0.0483 -0.0800  0.4962
 9102SOL     OW28204   2.494   0.237   3.771  0.0718  0.1213 -0.0164
 9102SOL    HW128205   2.537   0.293   3.842  0.8338 -0.7542  0.2282
 9102SOL    HW228206   2.550   0.156   3.754 -0.7041 -0.2634 -0.7960
 9103SOL     OW28207   4.950   0.624   3.529 -0.7213  0.2296  0.7345
 9103SOL    HW128208   4.944   0.699   3.595  0.5215  0.1750  0.9291
 9103SOL    HW228209   5.029   0.566   3.551  0.4250  0.8487 -1.4420
 9104SOL     OW28210   5.438   2.061   5.617  0.0464 -0.1051 -0.2290
 9104SOL    HW128211   5.496   2.115   5.556  0.1394  0.1600  0.0913
 9104SOL    HW228212   5.356   2.114   5.640 -0.3282 -0.4852 -0.6929
 9105SOL     OW28213   3.628   0.592   0.781  0.5248  0.1295 -0.3010
 9105SOL    HW128214   3.686   0.666   0.747  0.2714  0.0032 -1.0331
 9105SOL    HW228215   3.635   0.587   0.881 -0.3681  1.9140 -0.1090
 9106SOL     OW28216   3.781   2.581   5.876 -0.4935  0.7755 -0.3850
 9106SOL    HW128217   3.841   2.556   5.800  1.3608 -0.0503  1.2800
 9106SOL    HW228218   3.725   2.503   5.902 -1.9121  1.3586 -1.5073
 9107SOL     OW28219   3.045   0.006   2.616  0.2557 -0.4358 -0.5279
 9107SOL    HW128220   2.968   0.068   2.629  0.4453 -0.4076  0.6311
 9107SOL    HW228221   3.119   0.053   2.568  0.5667  0.4022  0.7141
 9108SOL     OW28222   5.173   1.401   4.265 -0.2581  0.2620 -0.4523
 9108SOL    HW128223   5.244   1.386   4.196  0.0435 -1.3344  0.1591
 9108SOL    HW228224   5.146   1.497   4.265 -0.2039  0.3280 -2.7127
 9109SOL     OW28225   5.255   5.036   0.634  0.0848 -0.3631 -0.6096
 9109SOL    HW128226   5.255   5.068   0.728  1.7153 -1.4356 -0.1942
 9109SOL    HW228227   5.214   4.945   0.629  1.3726 -0.9701 -0.6372
 9110SOL     OW28228   0.963   6.405   6.843  0.5691  0.6799  0.1590
 9110SOL    HW128229   0.917   6.378   6.758  0.2513 -1.0270  0.8403
 9110SOL    HW228230   0.922   6.489   6.878  1.9390  2.5393 -2.3238
 9111SOL     OW28231   6.499   3.271   5.553 -0.0638 -0.1614 -0.7804
 9111SOL    HW128232   6.454   3.202   5.496 -0.3535  0.0367 -0.7942
 9111SOL    HW228233   6.563   3.226   5.615 -0.3912 -0.4661 -0.6572
 9112SOL     OW28234   7.002   4.639   1.019  0.6343  0.3008 -0.1776
 9112SOL    HW128235   6.949   4.604   0.942 -1.6402 -2.8307  2.5509
 9112SOL    HW228236   7.086   4.586   1.029  1.3725  1.2784 -0.8937
 9113SOL     OW28237   4.961   6.723   2.865  0.3248 -0.1757  0.2259
 9113SOL    HW128238   5.014   6.805   2.888 -0.7703  1.3055 -2.2123
 9113SOL    HW228239   4.880   6.749   2.814 -0.0530 -2.8144 -0.6619
 9114SOL     OW28240   6.415   0.493   0.237  0.4156  0.7585  0.5379
 9114SOL    HW128241   6.382   0.460   0.326  2.2039  0.1576  1.0149
 9114SOL    HW228242   6.336   0.509   0.177 -0.7334 -0.9114  1.4958
 9115SOL     OW28243   5.859   4.151   3.991 -0.2729  0.4898 -0.3821
 9115SOL    HW128244   5.846   4.205   4.075  2.1816  1.2758 -0.4440
 9115SOL    HW228245   5.772   4.145   3.942 -1.3579  1.5425  1.3066
 9116SOL     OW28246   0.364   4.903   4.826  0.5203  0.4350 -0.5838
 9116SOL    HW128247   0.359   4.889   4.925  0.2799 -0.7875 -0.7402
 9116SOL    HW228248   0.459   4.895   4.796  0.6018  0.8726 -0.4449
 9117SOL     OW28249   3.221   5.949   1.203  0.3285  0.6386 -0.0726
 9117SOL    HW128250   3.254   5.855   1.211 -0.0669  0.3644 -1.4759
 9117SOL    HW228251   3.253   5.989   1.117 -0.3249  1.4510  0.0446
 9118SOL     OW28252   5.517   4.830   1.415 -0.4381 -0.2976  0.2505
 9118SOL    HW128253   5.503   4.907   1.477  1.2932 -1.9829  2.9270
 9118SOL    HW228254   5.541   4.865   1.324 -1.8645  2.2705  0.7547
 9119SOL     OW28255   3.250   2.065   5.869  0.5415  0.7999  0.7672
 9119SOL    HW128256   3.307   2.143   5.844  1.2559 -0.1061 -0.4862
 9119SOL    HW228257   3.158   2.078   5.832  0.7752  0.8547  0.1981
 9120SOL     OW28258   6.208   4.170   5.096 -0.5602  0.5825 -0.2476
 9120SOL    HW128259   6.140   4.188   5.024 -2.0234 -1.3897  0.5358
 9120SOL    HW228260   6.200   4.240   5.168 -2.3541 -0.0132  0.1903
 9121SOL     OW28261   5.852   2.124   7.008 -0.2061  0.4105 -0.0846
 9121SOL    HW128262   5.806   2.062   6.944 -1.6906  1.4889 -0.1420
 9121SOL    HW228263   5.861   2.080   7.097 -2.6656  0.5892  0.3257
 9122SOL     OW28264   0.758   1.522   0.741 -0.7777 -0.4778 -0.3878
 9122SOL    HW128265   0.681   1.470   0.778 -0.8647  0.4472  0.8098
 9122SOL    HW228266   0.832   1.524   0.808  0.0795 -0.8715 -1.3010
 9123SOL     OW28267   0.542   5.445   3.432  0.6198 -0.2670 -0.0082
 9123SOL    HW128268   0.574   5.510   3.501  0.6024 -0.9546  0.6568
 9123SOL    HW228269   0.535   5.492   3.344 -1.5249  1.2176  0.8740
 9124SOL     OW28270   4.476   6.424   0.187  0.3305  0.0027  0.3859
 9124SOL    HW128271   4.434   6.412   0.097  1.3127  2.0650 -0.4220
 9124SOL    HW228272   4.429   6.367   0.254 -0.0624 -2.0701 -1.5085
 9125SOL     OW28273   2.795   5.301   2.050  0.4087  0.4920  0.2401
 9125SOL    HW128274   2.872   5.274   2.108  0.5929  0.1417 -0.1541
 9125SOL    HW228275   2.718   5.240   2.066 -0.1652  1.4894  1.4000
 9126SOL     OW28276   5.251   6.727   0.341 -0.1367 -0.3102 -0.3507
 9126SOL    HW128277   5.288   6.820   0.341 -2.2592  0.6317  1.5615
 9126SOL    HW228278   5.308   6.669   0.399 -0.2093  0.4671  0.5278
 9127SOL     OW28279   0.673   3.309   5.785 -0.3953 -0.2255 -0.0762
 9127SOL    HW128280   0.627   3.229   5.823  1.4014 -1.3262 -0.0947
 9127SOL    HW228281   0.637   3.329   5.694 -1.2440 -0.6522  0.1615
 9128SOL     OW28282   5.109   4.072   6.766  0.0122 -0.1825  0.1401
 9128SOL    HW128283   5.066   4.129   6.836  0.7333  2.4452 -1.4180
 9128SOL    HW228284   5.202   4.104   6.749 -0.4785 -0.0148 -2.7227
 9129SOL     OW28285   2.526   0.976   2.209 -0.0051 -0.4889 -0.2664
 9129SOL    HW128286   2.587   1.055   2.215 -0.9676  0.4232 -1.9406
 9129SOL    HW228287   2.504   0.957   2.114 -2.6695 -0.5335  0.2902
 9130SOL     OW28288   3.781   4.077   5.558 -0.3411  0.2458 -0.8628
 9130SOL    HW128289   3.736   4.019   5.625  0.9362 -0.6572 -0.7555
 9130SOL    HW228290   3.714   4.107   5.489 -1.1241 -0.9160 -0.6265
 9131SOL     OW28291   0.451   3.356   1.122 -0.2744 -0.3318 -0.1086
 9131SOL    HW128292   0.542   3.393   1.140 -0.6967  0.5223  0.3523
 9131SOL    HW228293   0.455   3.256   1.121  0.8315 -0.2984 -1.0479
 9132SOL     OW28294   1.389   3.007   3.670  0.0837 -0.3227 -0.4211
 9132SOL    HW128295   1.379   3.064   3.588  1.0349  0.0991 -0.2542
 9132SOL    HW228296   1.298   2.979   3.702 -0.2690 -1.6482 -2.4030
 9133SOL     OW28297   0.060   0.052   6.890  0.5372  0.2380  0.1087
 9133SOL    HW128298   0.154   0.082   6.906  0.2338 -0.1620  3.4157
 9133SOL    HW228299   0.059  -0.042   6.858  1.2403  0.4294 -0.5038
 9134SOL     OW28300   4.203   5.671   5.338  0.3751 -0.8681 -0.0671
 9134SOL    HW128301   4.274   5.681   5.267 -0.0661 -1.5977 -0.6276
 9134SOL    HW228302   4.115   5.698   5.300  0.1435 -1.2084  0.2299
 9135SOL     OW28303   0.979   3.799   2.155 -0.1964  0.4332 -0.0140
 9135SOL    HW128304   1.078   3.815   2.162 -0.1920  0.1529  0.6082
 9135SOL    HW228305   0.951   3.805   2.059  0.7186 -1.1341 -0.4081
 9136SOL     OW28306   6.915   6.045   0.680 -0.3112  0.4429  0.3703
 9136SOL    HW128307   6.905   6.143   0.699 -0.4989  0.4335  0.3313
 9136SOL    HW228308   6.903   5.993   0.764 -0.4155  0.4432  0.3568
 9137SOL     OW28309   6.731   4.957   6.476 -0.2039 -0.0962  0.3561
 9137SOL    HW128310   6.681   5.044   6.477 -1.4937 -0.7337 -1.8720
 9137SOL    HW228311   6.749   4.928   6.570 -4.5059 -0.0472  1.4075
 9138SOL     OW28312   6.969   5.154   4.213  0.0847 -0.3240  0.0544
 9138SOL    HW128313   6.943   5.068   4.168 -1.0903 -0.0951  0.2644
 9138SOL    HW228314   6.940   5.151   4.309  0.2580  0.2062  0.1248
 9139SOL     OW28315   0.073   0.267   0.878 -0.1419 -0.6063  0.7014
 9139SOL    HW128316   0.067   0.264   0.778 -0.9909 -0.4919  0.7446
 9139SOL    HW228317   0.050   0.177   0.915 -0.8438 -0.3780  0.8355
 9140SOL     OW28318   0.120   4.205   2.772  0.1418  0.1138  0.0135
 9140SOL    HW128319   0.183   4.273   2.809 -0.1607  0.6637 -0.4651
 9140SOL    HW228320   0.132   4.118   2.821 -1.2360  1.1694  2.4144
 9141SOL     OW28321   5.651   4.205   3.372 -0.5013 -0.2159 -0.4301
 9141SOL    HW128322   5.582   4.135   3.353 -0.7790 -0.4299  1.2671
 9141SOL    HW228323   5.644   4.235   3.467 -1.0706  2.8677 -1.3222
 9142SOL     OW28324   2.130   0.370   3.211  0.5219 -0.0109  0.0968
 9142SOL    HW128325   2.221   0.411   3.219  0.4212 -0.1562  3.0613
 9142SOL    HW228326   2.061   0.442   3.204  0.7589  0.1093 -1.3901
 9143SOL     OW28327   6.986   2.716   1.153  0.2929  0.2238  0.3887
 9143SOL    HW128328   6.925   2.759   1.087 -0.1259 -0.4343  0.3402
 9143SOL    HW228329   7.079   2.749   1.138  0.1100  0.5209 -0.1453
 9144SOL     OW28330   1.040   5.207   5.762  0.3629  0.7744 -0.1416
 9144SOL    HW128331   0.943   5.228   5.763  0.0168 -0.3540 -2.3928
 9144SOL    HW228332   1.065   5.169   5.672  2.7006  0.2189  0.6610
 9145SOL     OW28333   2.702   6.936   6.586  0.1883  0.2914  0.1085
 9145SOL    HW128334   2.734   6.911   6.677  2.9972  0.3898 -0.7591
 9145SOL    HW228335   2.678   6.853   6.536  0.9993  0.0195  0.1504
 9146SOL     OW28336   6.832   0.801   5.342  0.5605 -0.2262 -1.0003
 9146SOL    HW128337   6.908   0.773   5.283  2.0026  2.6905 -0.7006
 9146SOL    HW228338   6.868   0.840   5.427 -1.1430  2.4376 -1.3976
 9147SOL     OW28339   4.296   6.862   0.490  1.0341 -0.1667 -0.1337
 9147SOL    HW128340   4.336   6.790   0.432  1.9691  0.2143  0.0219
 9147SOL    HW228341   4.369   6.907   0.541  0.2325 -0.4133  1.2594
 9148SOL     OW28342   3.429   4.900   0.131 -0.3288 -0.0728 -0.3851
 9148SOL    HW128343   3.524   4.885   0.101  0.2205  0.5092  0.9899
 9148SOL    HW228344   3.367   4.854   0.068  0.7829  0.7439 -2.1555
 9149SOL     OW28345   1.253   3.419   0.664  0.1799  0.3252 -0.8192
 9149SOL    HW128346   1.189   3.495   0.672 -1.0183 -0.5216 -2.0988
 9149SOL    HW228347   1.298   3.405   0.753 -1.8128  0.5852  0.3021
 9150SOL     OW28348   3.112   5.079   0.198  0.0884 -0.0423  0.1826
 9150SOL    HW128349   3.193   5.099   0.142 -1.2646 -0.3715 -1.9771
 9150SOL    HW228350   3.110   4.982   0.221  0.5156  0.0466  0.6158
 9151SOL     OW28351   1.506   3.998   3.600 -0.8227  0.5061  0.0388
 9151SOL    HW128352   1.500   3.997   3.700 -1.6633  1.4805  0.0085
 9151SOL    HW228353   1.557   4.078   3.570 -0.8521  0.3889 -0.3328
 9152SOL     OW28354   1.337   6.280   1.783  0.0143 -0.3191  0.4316
 9152SOL    HW128355   1.276   6.301   1.707  0.4168 -0.5228  0.0427
 9152SOL    HW228356   1.356   6.362   1.835 -1.3018 -0.4184  1.0944
 9153SOL     OW28357   1.934   2.080   0.975  0.0606 -0.3258 -0.1541
 9153SOL    HW128358   1.944   2.108   1.070  1.4824  1.2940 -0.7147
 9153SOL    HW228359   1.855   2.125   0.934  0.0574 -0.1947 -0.0035
 9154SOL     OW28360   5.454   4.647   1.997 -0.0192 -0.0457 -0.4154
 9154SOL    HW128361   5.452   4.675   2.093  0.6850  1.8382 -0.9143
 9154SOL    HW228362   5.366   4.604   1.974  0.2996 -1.8519  1.3914
 9155SOL     OW28363   1.561   0.742   2.219 -0.8071  0.1503 -0.3768
 9155SOL    HW128364   1.650   0.726   2.260 -0.8288  0.2078 -0.3057
 9155SOL    HW228365   1.495   0.677   2.257 -0.9490  0.5525  0.0924
 9156SOL     OW28366   0.754   4.754   5.468 -0.1998  0.4501  0.2690
 9156SOL    HW128367   0.790   4.847   5.474  0.3790  0.2077  0.6679
 9156SOL    HW228368   0.810   4.693   5.524 -0.8188 -0.0673  0.3437
 9157SOL     OW28369   1.920   4.384   6.292 -0.0118 -0.0584 -0.1465
 9157SOL    HW128370   1.942   4.437   6.374  0.8161  0.4474 -0.6686
 9157SOL    HW228371   1.981   4.413   6.217 -1.0651 -0.1705 -1.0693
 9158SOL     OW28372   1.876   2.094   3.307  0.1216  0.3783  0.0267
 9158SOL    HW128373   1.907   2.019   3.364 -0.7618  1.6669  2.3421
 9158SOL    HW228374   1.916   2.180   3.339 -1.3163  1.3011 -0.5206
 9159SOL     OW28375   0.958   1.514   3.389 -0.7503  0.1769  0.4763
 9159SOL    HW128376   0.877   1.477   3.433 -0.9543 -0.0988 -0.1205
 9159SOL    HW228377   0.939   1.531   3.292 -0.0407 -0.0791  0.2828
 9160SOL     OW28378   1.240   2.798   0.386  0.1661 -0.1778 -0.1537
 9160SOL    HW128379   1.216   2.882   0.338 -1.2719 -0.1884  0.4918
 9160SOL    HW228380   1.323   2.759   0.347 -0.0894  0.6492 -1.5763
 9161SOL     OW28381   5.027   3.489   3.762  0.1704  0.8250  0.0832
 9161SOL    HW128382   4.978   3.407   3.731  1.6018 -0.1609  0.3508
 9161SOL    HW228383   5.084   3.525   3.688  1.3588  0.1662  0.6497
 9162SOL     OW28384   5.579   3.044   1.760  0.0206  0.2211 -0.0472
 9162SOL    HW128385   5.506   3.112   1.748  0.7978  1.3299  1.1821
 9162SOL    HW228386   5.566   2.996   1.846  1.4857  1.4748  0.9450
 9163SOL     OW28387   0.309   2.918   2.787  0.3072  0.5340 -0.6256
 9163SOL    HW128388   0.259   2.952   2.866 -1.3520 -0.2909 -1.2814
 9163SOL    HW228389   0.265   2.950   2.703  0.9136 -0.1682 -1.2207
 9164SOL     OW28390   4.054   1.779   3.027 -0.2090  0.0211 -0.5987
 9164SOL    HW128391   4.019   1.729   3.106 -0.2540  2.5130  1.0710
 9164SOL    HW228392   3.995   1.764   2.949 -0.5535 -1.9733 -0.0048
 9165SOL     OW28393   6.069   4.921   0.732 -0.2273 -0.4321  0.3533
 9165SOL    HW128394   6.155   4.948   0.776 -0.2471  2.8458 -1.3288
 9165SOL    HW228395   6.006   4.999   0.732 -1.7810 -1.5983 -1.8008
 9166SOL     OW28396   3.409   5.142   1.915 -0.4440  0.5411  0.4714
 9166SOL    HW128397   3.441   5.212   1.978  1.4424  0.8902 -0.7681
 9166SOL    HW228398   3.375   5.064   1.966  1.3430  0.6541  1.9445
 9167SOL     OW28399   1.214   4.307   4.733 -0.0062  0.0356 -0.6588
 9167SOL    HW128400   1.300   4.258   4.744  1.0837  1.8493 -0.6135
 9167SOL    HW228401   1.139   4.242   4.725  1.1772 -1.5870  0.7171
 9168SOL     OW28402   2.153   1.137   0.084  0.1063 -0.1165  0.1967
 9168SOL    HW128403   2.138   1.042   0.055 -0.5022  0.4343 -1.4423
 9168SOL    HW228404   2.121   1.199   0.012  0.4504  1.3457  1.2515
 9169SOL     OW28405   5.713   3.995   0.542 -0.0008  0.5982 -0.3385
 9169SOL    HW128406   5.666   3.926   0.487 -0.9656 -1.3146  2.6796
 9169SOL    HW228407   5.811   3.975   0.542 -0.1264 -0.0471 -0.4783
 9170SOL     OW28408   0.983   0.091   4.040 -0.2966 -0.2954 -0.0470
 9170SOL    HW128409   1.028   0.041   3.966 -0.8639  0.2663 -0.7850
 9170SOL    HW228410   0.943   0.175   4.004  0.1402  0.4159  1.0617
 9171SOL     OW28411   3.849   6.280   5.121  0.0932 -0.1990  0.3115
 9171SOL    HW128412   3.805   6.307   5.035  0.0820 -0.1533  0.3320
 9171SOL    HW228413   3.800   6.322   5.198  0.4075  0.1623  0.3138
 9172SOL     OW28414   5.798   1.096   5.540 -0.1382  0.2022 -0.4516
 9172SOL    HW128415   5.865   1.130   5.474 -1.2948 -0.9194 -2.2656
 9172SOL    HW228416   5.800   0.996   5.541 -2.6264  0.0656 -1.5364
 9173SOL     OW28417   5.343   4.193   6.674 -0.2234 -0.1042 -0.4339
 9173SOL    HW128418   5.420   4.133   6.653 -0.9419 -0.5474 -1.9259
 9173SOL    HW228419   5.336   4.264   6.604  0.5492  1.7344  1.2480
 9174SOL     OW28420   4.441   4.944   7.003 -0.1440  0.0867 -0.6005
 9174SOL    HW128421   4.386   4.901   6.931 -1.2261 -0.5808  0.5710
 9174SOL    HW228422   4.419   4.901   7.091  0.3429  1.6033  0.2936
 9175SOL     OW28423   4.096   0.973   1.044 -0.6152 -0.2141  0.2097
 9175SOL    HW128424   4.135   0.884   1.070  1.7512  0.9470  0.9362
 9175SOL    HW228425   4.127   0.998   0.953 -0.4849  0.2750  0.3827
 9176SOL     OW28426   2.178   6.516   2.809 -0.0821  0.0881 -0.2909
 9176SOL    HW128427   2.203   6.612   2.812  0.3063  0.0602 -1.7385
 9176SOL    HW228428   2.116   6.495   2.884  1.1149  1.0774  1.0171
 9177SOL     OW28429   6.733   6.067   2.650 -0.5823  0.0650 -0.1514
 9177SOL    HW128430   6.725   6.010   2.731  1.6804  1.3792  1.1113
 9177SOL    HW228431   6.738   6.009   2.568  1.9627 -1.6321  1.0912
 9178SOL     OW28432   1.091   3.887   0.525 -0.2925 -0.3934  0.2882
 9178SOL    HW128433   1.056   3.956   0.461  1.1686 -1.6244 -1.9676
 9178SOL    HW228434   1.025   3.813   0.534 -0.8336  0.1438  0.8350
 9179SOL     OW28435   5.379   5.367   0.936  0.1271  0.6815  0.6186
 9179SOL    HW128436   5.337   5.448   0.978 -1.2906 -1.2515  3.2225
 9179SOL    HW228437   5.446   5.328   0.999  0.5188 -0.3827 -0.4272
 9180SOL     OW28438   1.556   2.008   4.603 -0.3417 -0.2206 -0.4387
 9180SOL    HW128439   1.577   2.086   4.662 -1.9701 -0.6329  0.7788
 9180SOL    HW228440   1.640   1.965   4.572  0.6344 -0.4069  2.1948
 9181SOL     OW28441   1.543   1.603   2.044  0.5631 -0.2304  0.2529
 9181SOL    HW128442   1.475   1.675   2.028  0.1390 -0.7417 -0.2742
 9181SOL    HW228443   1.529   1.564   2.135 -0.6296 -1.1377 -0.2861
 9182SOL     OW28444   5.606   0.660   1.767  0.5979 -0.6989  0.1540
 9182SOL    HW128445   5.597   0.560   1.760 -1.8575 -0.6600  1.5637
 9182SOL    HW228446   5.517   0.702   1.750  1.1117  1.1116  1.6384
 9183SOL     OW28447   1.179   0.663   4.859  0.2674  0.0041 -0.4535
 9183SOL    HW128448   1.231   0.700   4.935  0.2077 -2.5411  0.9445
 9183SOL    HW228449   1.206   0.568   4.843 -2.8545 -0.9881 -0.5874
 9184SOL     OW28450   6.763   6.214   6.417 -0.6732 -0.5951  0.7248
 9184SOL    HW128451   6.808   6.292   6.460  1.0478 -1.0342 -0.2138
 9184SOL    HW228452   6.769   6.134   6.476 -0.8022 -0.4912  0.8784
 9185SOL     OW28453   0.831   3.545   3.780 -0.1057 -0.5071  0.0732
 9185SOL    HW128454   0.800   3.636   3.752 -1.8645 -1.2225 -0.3905
 9185SOL    HW228455   0.874   3.499   3.703 -1.1822 -0.8775 -0.3246
 9186SOL     OW28456   5.462   6.446   0.200 -0.1383 -0.6861 -0.2561
 9186SOL    HW128457   5.451   6.387   0.280  2.0550 -2.8536 -1.4293
 9186SOL    HW228458   5.393   6.424   0.132 -0.7769 -0.2093  0.2204
 9187SOL     OW28459   5.136   2.744   1.541 -0.7569  0.5459  0.0614
 9187SOL    HW128460   5.129   2.723   1.639 -0.5414 -1.5253 -0.3423
 9187SOL    HW228461   5.075   2.821   1.520 -0.7402  1.0967  1.8210
 9188SOL     OW28462   0.017   2.635   1.420 -0.0418 -0.2822  0.0128
 9188SOL    HW128463   0.104   2.683   1.427  1.3126 -2.4612 -0.7615
 9188SOL    HW228464  -0.018   2.644   1.327  0.6087 -1.3556 -0.3552
 9189SOL     OW28465   4.261   1.403   0.882  0.5957 -0.1501  0.1556
 9189SOL    HW128466   4.167   1.387   0.850  0.0678 -0.2505  1.6860
 9189SOL    HW228467   4.310   1.455   0.813  0.1226 -2.0014 -1.6750
 9190SOL     OW28468   2.778   6.945   6.855 -0.2656 -0.4796  0.4622
 9190SOL    HW128469   2.798   7.040   6.880  1.9247 -0.0868 -2.2682
 9190SOL    HW228470   2.843   6.884   6.900  0.9585 -0.2173 -0.9038
 9191SOL     OW28471   4.078   1.941   2.451 -0.0848 -0.0053 -0.1221
 9191SOL    HW128472   4.102   2.033   2.479 -0.3676 -0.0780  0.3587
 9191SOL    HW228473   4.022   1.897   2.521 -3.9928  1.0907 -2.2607
 9192SOL     OW28474   3.961   4.916   2.524 -0.4443  0.7609 -0.2981
 9192SOL    HW128475   3.961   4.913   2.425 -1.7048 -0.0741 -0.2962
 9192SOL    HW228476   3.942   5.010   2.554 -0.9468  0.8456 -0.8575
 9193SOL     OW28477   3.442   3.624   1.605  0.7496 -0.0715  0.1646
 9193SOL    HW128478   3.402   3.620   1.697  2.0663  0.2755  0.7812
 9193SOL    HW228479   3.369   3.631   1.537 -0.2145  1.7167  1.3046
 9194SOL     OW28480   1.612   6.261   3.686  0.3814  0.0602 -0.5944
 9194SOL    HW128481   1.702   6.248   3.727  0.8138  0.7564 -1.2936
 9194SOL    HW228482   1.561   6.330   3.738  1.2793  1.6267 -1.7012
 9195SOL     OW28483   1.080   3.051   3.352  0.2020  0.2613  0.0819
 9195SOL    HW128484   1.002   3.103   3.317  0.8304 -0.1670 -2.1214
 9195SOL    HW228485   1.049   2.988   3.423 -1.9610 -1.5042 -2.2446
 9196SOL     OW28486   6.676   6.573   4.347  0.5452 -0.4881  0.9949
 9196SOL    HW128487   6.595   6.518   4.328 -0.7255  1.5461  0.2104
 9196SOL    HW228488   6.649   6.664   4.375  2.4544  1.2409 -2.1570
 9197SOL     OW28489   0.849   2.407   6.842  0.2467  0.3254  0.2402
 9197SOL    HW128490   0.870   2.424   6.746  0.1844  0.0741  0.1834
 9197SOL    HW228491   0.808   2.489   6.882 -1.6963 -0.2335 -0.4887
 9198SOL     OW28492   5.468   4.084   5.941 -0.1669  0.4114 -0.0162
 9198SOL    HW128493   5.503   4.171   5.907  0.8618  0.3527  0.7900
 9198SOL    HW228494   5.521   4.009   5.901  0.1398  0.2715  0.6325
 9199SOL     OW28495   0.862   4.668   0.598  0.1545  0.0674 -0.3233
 9199SOL    HW128496   0.795   4.710   0.538 -0.4061 -2.1067 -1.3199
 9199SOL    HW228497   0.815   4.610   0.665  0.7890  2.0673  2.0197
 9200SOL     OW28498   4.287   6.419   1.189 -0.4369  0.0460  0.0364
 9200SOL    HW128499   4.380   6.403   1.156 -1.1445 -1.7541 -1.2887
 9200SOL    HW228500   4.290   6.465   1.278  1.7027  0.1011 -0.0177
 9201SOL     OW28501   6.412   3.051   2.128 -0.3895 -0.1231 -0.0263
 9201SOL    HW128502   6.444   3.129   2.181  1.9743 -0.3033 -1.0278
 9201SOL    HW228503   6.400   2.972   2.188 -0.0207  0.2859  0.5935
 9202SOL     OW28504   1.708   6.393   4.180 -0.7865 -0.1105  0.0332
 9202SOL    HW128505   1.658   6.307   4.177 -1.2681  0.1759 -0.2161
 9202SOL    HW228506   1.771   6.392   4.258  0.9280 -1.6295 -1.2933
 9203SOL     OW28507   4.253   1.891   0.300  0.2520  0.4349  0.0542
 9203SOL    HW128508   4.162   1.932   0.290  0.3336  0.2718 -1.7782
 9203SOL    HW228509   4.260   1.810   0.242  1.4925  0.2990  0.3517
 9204SOL     OW28510   6.434   3.301   2.271 -0.3387  0.3986 -0.6317
 9204SOL    HW128511   6.511   3.303   2.207  1.1608 -1.6845  0.9761
 9204SOL    HW228512   6.450   3.365   2.346 -1.4189  1.7847 -1.5312
 9205SOL     OW28513   3.939   3.097   0.057  0.1868  0.2837 -0.4504
 9205SOL    HW128514   3.865   3.147   0.103 -0.7801 -0.4322 -1.1618
 9205SOL    HW228515   4.025   3.147   0.067 -0.2429  0.7833  1.0127
 9206SOL     OW28516   6.589   6.508   5.839  0.0378  0.3895  0.7077
 9206SOL    HW128517   6.652   6.467   5.904  1.6038 -0.8905 -1.4580
 9206SOL    HW228518   6.604   6.468   5.748 -3.7993  0.1319 -0.0060
 9207SOL     OW28519   6.057   5.695   6.934 -0.0622  0.0530  0.5459
 9207SOL    HW128520   6.086   5.789   6.916 -0.4754 -0.1822 -1.7403
 9207SOL    HW228521   6.135   5.641   6.966  1.6673 -0.0142 -3.2339
 9208SOL     OW28522   6.816   4.545   1.267  0.1693  0.0381 -0.2691
 9208SOL    HW128523   6.740   4.511   1.211 -0.6656  0.9451  0.2848
 9208SOL    HW228524   6.886   4.475   1.274 -0.6913 -0.8826 -0.6555
 9209SOL     OW28525   5.101   5.268   5.520 -0.4115 -0.0483 -0.2951
 9209SOL    HW128526   5.077   5.177   5.554  0.8719 -0.2387  0.1648
 9209SOL    HW228527   5.031   5.300   5.456 -2.8231  0.2245  2.3088
 9210SOL     OW28528   0.872   0.112   0.159 -0.1500  0.0504  0.1194
 9210SOL    HW128529   0.941   0.185   0.157  0.8442 -0.8711 -1.8000
 9210SOL    HW228530   0.811   0.126   0.236  3.3355 -0.1254  3.2105
 9211SOL     OW28531   5.024   6.734   0.801 -0.3632  0.7028  0.0241
 9211SOL    HW128532   5.040   6.690   0.712  0.2281  1.5489 -0.2916
 9211SOL    HW228533   4.992   6.827   0.787 -1.5074  0.4307  0.6975
 9212SOL     OW28534   6.885   3.883   4.546  0.2847 -0.1717  0.6648
 9212SOL    HW128535   6.826   3.921   4.618  1.4412  2.2132  0.4432
 9212SOL    HW228536   6.848   3.795   4.516 -3.1356  1.1341  0.5910
 9213SOL     OW28537   6.830   0.436   6.203  0.1873  0.0298 -0.1785
 9213SOL    HW128538   6.884   0.416   6.285 -1.5476  0.5680  1.1395
 9213SOL    HW228539   6.857   0.525   6.166  0.2732  0.2481  0.4006
 9214SOL     OW28540   1.887   4.465   4.132  0.3209 -0.7095  0.0026
 9214SOL    HW128541   1.879   4.376   4.176  0.7478 -0.5710  0.3718
 9214SOL    HW228542   1.893   4.536   4.203  1.6362 -0.5365 -0.2546
 9215SOL     OW28543   0.484   5.350   4.300 -0.0519 -0.2188 -0.0724
 9215SOL    HW128544   0.579   5.376   4.319  0.5444 -1.5556 -1.0586
 9215SOL    HW228545   0.469   5.351   4.201 -0.7242 -1.1455  0.0118
 9216SOL     OW28546   1.941   6.485   2.604  0.0408 -0.0968 -0.1379
 9216SOL    HW128547   1.950   6.554   2.531  0.7441 -0.4172 -0.3599
 9216SOL    HW228548   2.031   6.455   2.632 -0.2629 -0.7934  0.0950
 9217SOL     OW28549   3.486   1.134   6.164 -0.1339 -0.1380 -0.1863
 9217SOL    HW128550   3.419   1.094   6.226  1.2950 -0.3058  1.3065
 9217SOL    HW228551   3.566   1.075   6.158  0.4170  0.6528 -0.9529
 9218SOL     OW28552   4.820   6.021   5.904 -0.0817 -0.6478 -0.1884
 9218SOL    HW128553   4.730   6.051   5.937 -0.5388  1.0381 -2.7108
 9218SOL    HW228554   4.848   6.078   5.827  3.3681 -0.8788  0.7358
 9219SOL     OW28555   4.156   2.730   5.832 -0.2189  0.0928  0.1030
 9219SOL    HW128556   4.109   2.658   5.883 -0.4727  0.5725  0.5491
 9219SOL    HW228557   4.201   2.690   5.752  0.6993 -0.7790  1.0289
 9220SOL     OW28558   6.515   0.323   3.340 -0.3569 -0.1567 -0.5952
 9220SOL    HW128559   6.593   0.375   3.373 -0.6510  1.5270 -2.3786
 9220SOL    HW228560   6.457   0.296   3.417  1.1742 -0.1610  0.5991
 9221SOL     OW28561   1.904   0.630   4.302 -0.5359 -0.3894 -0.3052
 9221SOL    HW128562   1.962   0.627   4.221 -0.9743  2.2974 -0.8149
 9221SOL    HW228563   1.811   0.604   4.278 -0.2107 -1.8012 -0.1266
 9222SOL     OW28564   0.842   6.034   2.002 -0.2009  0.0022  0.8173
 9222SOL    HW128565   0.868   5.947   1.960 -1.3152  0.7749 -1.6701
 9222SOL    HW228566   0.924   6.087   2.022  0.4022 -0.7373  0.3701
 9223SOL     OW28567   5.635   3.720   4.092 -0.1524  0.2486  0.1918
 9223SOL    HW128568   5.615   3.795   4.029 -1.1979  0.6287  0.9444
 9223SOL    HW228569   5.723   3.679   4.068 -0.1130  0.9562 -0.9498
 9224SOL     OW28570   1.690   6.391   1.191  0.9383 -0.0463 -0.2677
 9224SOL    HW128571   1.752   6.463   1.158  2.9444 -2.2388 -1.5952
 9224SOL    HW228572   1.611   6.385   1.130  0.9561  0.7491 -0.3809
 9225SOL     OW28573   6.544   6.811   3.399 -0.2300  0.3047  0.1755
 9225SOL    HW128574   6.629   6.859   3.380  0.0310 -0.3992 -0.5012
 9225SOL    HW228575   6.473   6.844   3.337  0.0586 -0.4511 -0.5832
 9226SOL     OW28576   0.466   4.701   3.602 -0.2390  0.1904  0.0406
 9226SOL    HW128577   0.557   4.716   3.562  0.0660 -0.3661  0.5176
 9226SOL    HW228578   0.447   4.773   3.668  1.1854 -1.3392  2.2549
 9227SOL     OW28579   3.391   2.885   1.371 -0.0212 -0.5770 -0.0193
 9227SOL    HW128580   3.368   2.972   1.414 -0.1118 -0.6109  0.0005
 9227SOL    HW228581   3.309   2.844   1.332  0.0311 -0.6271 -0.0771
 9228SOL     OW28582   4.082   3.745   4.910  0.0721  0.4627  0.4696
 9228SOL    HW128583   4.052   3.704   4.824  0.1427 -1.5230  1.3498
 9228SOL    HW228584   4.178   3.720   4.927 -0.1073  0.3858  1.4026
 9229SOL     OW28585   0.716   0.285   0.948  0.3755 -0.1244  0.3876
 9229SOL    HW128586   0.736   0.370   0.997  2.1379 -1.0628  1.3596
 9229SOL    HW228587   0.801   0.239   0.924 -0.5558 -2.1422  0.7622
 9230SOL     OW28588   4.062   0.422   4.659  0.4012 -0.1923  0.2945
 9230SOL    HW128589   4.003   0.477   4.717  0.2254 -1.3124  1.2222
 9230SOL    HW228590   4.015   0.337   4.634  1.1030 -0.4861 -0.0806
 9231SOL     OW28591   4.445   5.042   2.890 -0.0317  0.0053  0.1612
 9231SOL    HW128592   4.372   5.097   2.932 -0.2263  0.2166 -0.4417
 9231SOL    HW228593   4.409   4.996   2.808  0.5881  0.3553 -0.3190
 9232SOL     OW28594   6.958   5.379   1.822 -0.5963  0.0397 -0.2879
 9232SOL    HW128595   6.937   5.298   1.768 -0.9400 -0.3226  0.3819
 9232SOL    HW228596   6.889   5.391   1.894  1.3433 -1.0920  1.8932
 9233SOL     OW28597   5.940   1.957   6.335 -0.1779 -0.6540 -0.0785
 9233SOL    HW128598   5.930   2.052   6.364 -0.1384 -0.6947  0.0716
 9233SOL    HW228599   6.038   1.936   6.324 -0.0378 -1.2225  1.7872
 9234SOL     OW28600   5.386   2.691   6.492  0.6342 -0.4185  0.4598
 9234SOL    HW128601   5.416   2.675   6.398 -1.2382  1.1326 -0.4811
 9234SOL    HW228602   5.296   2.650   6.506 -0.7880  2.3629  0.3381
 9235SOL     OW28603   0.802   2.461   1.603  0.3482  0.1323  0.8074
 9235SOL    HW128604   0.739   2.490   1.532  2.0632 -0.3349 -0.9924
 9235SOL    HW228605   0.854   2.382   1.572  2.2801  0.8864  1.9107
 9236SOL     OW28606   3.629   2.819   5.821 -0.4517  0.1821  0.4320
 9236SOL    HW128607   3.592   2.820   5.728 -0.1570  0.4279  0.3150
 9236SOL    HW228608   3.708   2.759   5.825 -0.4761  0.1562  0.5283
 9237SOL     OW28609   6.227   6.549   5.440 -0.7370  0.2698 -0.4671
 9237SOL    HW128610   6.175   6.609   5.501  0.5767  0.7277  0.2278
 9237SOL    HW228611   6.200   6.567   5.346 -2.7875 -0.4348 -0.0767
 9238SOL     OW28612   1.293   1.601   4.885  0.2195 -0.0111  0.3836
 9238SOL    HW128613   1.332   1.688   4.854 -0.3503  0.3065  0.5562
 9238SOL    HW228614   1.306   1.532   4.814 -0.7362  0.6160 -0.4292
 9239SOL     OW28615   0.981   6.454   0.727 -0.5945  0.1611 -0.2936
 9239SOL    HW128616   1.067   6.468   0.777 -0.6261 -0.9217  0.0900
 9239SOL    HW228617   0.977   6.517   0.650 -0.0367  1.1003  0.4216
 9240SOL     OW28618   2.956   2.210   5.944 -0.3430  0.3769  0.1441
 9240SOL    HW128619   2.983   2.304   5.961  0.0866  0.7188 -2.1323
 9240SOL    HW228620   2.856   2.202   5.952 -0.4549  1.2048 -0.3200
 9241SOL     OW28621   5.695   6.599   0.847  0.3909 -0.4037 -0.1615
 9241SOL    HW128622   5.684   6.535   0.924  3.6604  0.1057  0.9244
 9241SOL    HW228623   5.755   6.558   0.779 -1.6528 -0.4288 -2.0328
 9242SOL     OW28624   5.248   1.303   7.006  0.3268  0.1779  0.3705
 9242SOL    HW128625   5.156   1.331   6.977  0.5597  0.6988  0.1316
 9242SOL    HW228626   5.272   1.217   6.961 -0.7980 -1.0039  1.8725
 9243SOL     OW28627   6.586   5.742   6.667 -0.0040 -0.1103  0.2592
 9243SOL    HW128628   6.597   5.644   6.650  0.9033 -0.3599  2.0469
 9243SOL    HW228629   6.675   5.786   6.669 -0.0307  0.0122  3.2533
 9244SOL     OW28630   1.500   6.676   5.064 -0.1247  0.2680  0.3228
 9244SOL    HW128631   1.578   6.726   5.101  0.5406 -1.0062  0.6937
 9244SOL    HW228632   1.525   6.580   5.051 -1.8379 -0.3160  1.0857
 9245SOL     OW28633   0.797   4.613   2.701  0.0311  0.2956  0.3185
 9245SOL    HW128634   0.889   4.613   2.741  0.2063 -0.1254 -0.0802
 9245SOL    HW228635   0.778   4.704   2.662  1.4684 -0.3931 -2.2524
 9246SOL     OW28636   4.323   2.657   6.688  0.4556  0.2754  0.2444
 9246SOL    HW128637   4.392   2.625   6.753  0.5739  1.0527  0.5073
 9246SOL    HW228638   4.283   2.578   6.641  2.1063 -0.1325 -0.5341
 9247SOL     OW28639   3.932   6.064   0.159  0.2087 -0.2162  0.0004
 9247SOL    HW128640   3.837   6.040   0.142 -0.6376  3.3166 -1.2139
 9247SOL    HW228641   3.949   6.068   0.258 -1.3584  0.5212  0.2687
 9248SOL     OW28642   1.674   6.677   0.718 -0.1814 -0.1717 -0.4168
 9248SOL    HW128643   1.643   6.661   0.624 -0.2224 -0.9748 -0.2795
 9248SOL    HW228644   1.701   6.772   0.729 -0.6025  0.0333 -1.1196
 9249SOL     OW28645   3.151   2.374   6.442 -0.1709 -0.2587 -0.2591
 9249SOL    HW128646   3.077   2.319   6.482 -0.3267 -0.1548 -0.4033
 9249SOL    HW228647   3.154   2.463   6.487 -0.9043  0.1815 -1.0588
 9250SOL     OW28648   1.229   4.379   1.639 -0.1194  0.2868  0.4706
 9250SOL    HW128649   1.252   4.406   1.733 -0.3295  2.8711 -0.1371
 9250SOL    HW228650   1.139   4.415   1.615 -0.3155 -0.8310 -0.5617
 9251SOL     OW28651   4.706   0.190   0.727  0.2116 -0.0955  0.1523
 9251SOL    HW128652   4.770   0.114   0.713 -0.6851 -0.7026 -0.7132
 9251SOL    HW228653   4.664   0.182   0.817  1.4034  0.3703  0.7827
 9252SOL     OW28654   6.417   2.476   5.085 -0.5856 -0.6729  0.1911
 9252SOL    HW128655   6.415   2.454   5.182  0.9470  0.7007  0.5807
 9252SOL    HW228656   6.479   2.413   5.037 -1.2049 -1.2360  0.1069
 9253SOL     OW28657   3.275   6.310   4.417 -0.5748 -0.0660 -0.5922
 9253SOL    HW128658   3.201   6.243   4.407 -0.4019 -0.7396  1.9895
 9253SOL    HW228659   3.362   6.266   4.397 -0.7039  0.3390 -2.1875
 9254SOL     OW28660   4.993   4.178   2.956 -0.1968  0.0090  0.5149
 9254SOL    HW128661   5.042   4.219   3.033 -2.1550 -0.1220  1.8991
 9254SOL    HW228662   5.042   4.198   2.871  2.3157 -0.2957  1.8082
 9255SOL     OW28663   1.938   3.988   1.821 -0.0756  0.6719  0.0916
 9255SOL    HW128664   1.898   3.946   1.902 -0.4828 -1.9207 -1.3649
 9255SOL    HW228665   1.879   3.973   1.742  1.8994  0.1006 -1.3648
 9256SOL     OW28666   1.220   0.088   5.735 -0.5719  0.6220 -0.2086
 9256SOL    HW128667   1.223   0.136   5.647  0.3954  0.0996 -0.4759
 9256SOL    HW228668   1.234   0.154   5.809  0.2597  0.8355 -0.5435
 9257SOL     OW28669   6.410   6.053   5.612 -0.0014  0.2667  0.2673
 9257SOL    HW128670   6.490   6.018   5.563 -2.5572 -0.1104 -4.1963
 9257SOL    HW228671   6.395   6.149   5.588 -1.4657  0.0262  0.1175
 9258SOL     OW28672   6.960   2.040   2.935 -0.0757  0.4274  0.0785
 9258SOL    HW128673   7.026   2.012   2.865 -1.1573 -2.2726  0.0031
 9258SOL    HW228674   7.001   2.028   3.025 -0.2298 -0.6350  0.0161
 9259SOL     OW28675   1.422   3.939   6.825 -0.2190 -0.0013  0.0405
 9259SOL    HW128676   1.432   3.843   6.800  1.7361  0.4606 -1.1892
 9259SOL    HW228677   1.369   3.986   6.754 -1.1969 -0.1597  0.6542
 9260SOL     OW28678   6.547   4.185   5.582 -0.5691 -0.4917 -0.0758
 9260SOL    HW128679   6.484   4.250   5.625  0.6423  0.2091  0.6791
 9260SOL    HW228680   6.524   4.093   5.612  0.0125 -0.0589  1.8344
 9261SOL     OW28681   1.914   4.602   1.669 -0.0129  0.4925 -0.0101
 9261SOL    HW128682   1.966   4.610   1.585 -0.3822  0.9825 -0.1969
 9261SOL    HW228683   1.973   4.621   1.747  0.0893  1.0488 -0.2204
 9262SOL     OW28684   0.443   6.141   5.586  0.2975 -0.3525  0.2498
 9262SOL    HW128685   0.457   6.145   5.685 -0.6862  0.4133  0.3810
 9262SOL    HW228686   0.380   6.214   5.559  0.4790 -0.6180 -0.9292
 9263SOL     OW28687   1.319   2.815   2.870  0.0252  0.3521 -0.6819
 9263SOL    HW128688   1.363   2.762   2.942  0.5794  1.1368 -0.4299
 9263SOL    HW228689   1.235   2.857   2.906 -1.2188 -1.4922 -1.2805
 9264SOL     OW28690   5.411   3.592   5.889 -0.2048  0.2725 -0.2464
 9264SOL    HW128691   5.374   3.584   5.981  0.2339  2.4319  0.1789
 9264SOL    HW228692   5.338   3.580   5.822 -0.5956 -0.9528  0.3713
 9265SOL     OW28693   6.444   1.036   1.172  0.3982  0.0513  0.4577
 9265SOL    HW128694   6.449   0.991   1.083 -0.0335  0.5069  0.2063
 9265SOL    HW228695   6.381   0.985   1.231 -0.6857  0.7538 -0.0781
 9266SOL     OW28696   5.270   5.580   1.066 -0.2399  0.3616 -0.2921
 9266SOL    HW128697   5.230   5.625   0.986 -1.1836  0.3596  0.1582
 9266SOL    HW228698   5.285   5.648   1.138 -1.2742  0.0485  0.2372
 9267SOL     OW28699   0.487   0.689   4.544  0.4206  0.0812  0.1699
 9267SOL    HW128700   0.395   0.728   4.544 -0.1127 -1.1236  1.1662
 9267SOL    HW228701   0.485   0.598   4.501  1.5097  0.7847 -1.4839
 9268SOL     OW28702   5.593   6.903   1.763  0.4354  0.0046 -0.5935
 9268SOL    HW128703   5.556   6.942   1.678 -0.6797  0.1770 -0.0508
 9268SOL    HW228704   5.524   6.910   1.835  0.3580 -2.5487 -0.3403
 9269SOL     OW28705   1.939   6.676   0.771 -0.1502  0.2769  0.3751
 9269SOL    HW128706   1.987   6.617   0.836  0.1065 -1.1912 -1.0602
 9269SOL    HW228707   1.840   6.660   0.777 -0.1487  0.3672  0.6172
 9270SOL     OW28708   1.723   6.786   4.383 -0.4825  0.1627 -0.3235
 9270SOL    HW128709   1.662   6.765   4.460 -0.7402  0.1537 -0.5289
 9270SOL    HW228710   1.781   6.707   4.363 -0.6991  0.0234 -0.4001
 9271SOL     OW28711   0.794   0.336   0.014  0.2704 -0.3164  0.7548
 9271SOL    HW128712   0.789   0.240   0.043 -0.8544  0.1164  2.1353
 9271SOL    HW228713   0.717   0.386   0.053  1.2465  1.3144  0.6906
 9272SOL     OW28714   6.002   1.823   5.602  0.6055 -0.8605  0.2569
 9272SOL    HW128715   6.083   1.790   5.553 -1.1218  0.5096 -3.9412
 9272SOL    HW228716   5.920   1.778   5.565 -0.9465  1.2558  0.9412
 9273SOL     OW28717   5.011   3.030   3.377  0.3066 -0.0273 -0.1217
 9273SOL    HW128718   5.088   3.074   3.424  0.6931  0.3246 -1.0606
 9273SOL    HW228719   4.939   3.098   3.361  0.5549  0.0800 -0.8271
 9274SOL     OW28720   0.336   1.232   3.287  0.6772  0.0001 -0.6228
 9274SOL    HW128721   0.427   1.249   3.325  0.3731  2.0543 -0.6859
 9274SOL    HW228722   0.273   1.304   3.318 -0.5074 -0.3949 -1.9956
 9275SOL     OW28723   2.943   2.227   1.449  0.2610  0.0541 -0.0837
 9275SOL    HW128724   2.938   2.316   1.404  0.4837  0.2896  0.3525
 9275SOL    HW228725   2.974   2.158   1.383  0.2774  0.3344 -0.3711
 9276SOL     OW28726   1.562   4.269   1.102 -0.2789 -0.1506  0.0640
 9276SOL    HW128727   1.526   4.183   1.065 -2.0749  1.1944 -1.5523
 9276SOL    HW228728   1.648   4.292   1.056 -0.5711 -0.3523 -0.5906
 9277SOL     OW28729   2.556   5.367   2.343 -0.0745 -0.8070  0.4708
 9277SOL    HW128730   2.502   5.451   2.346  0.8113 -0.1042 -1.5918
 9277SOL    HW228731   2.506   5.297   2.292  1.3050  0.2299 -2.5328
 9278SOL     OW28732   1.540   0.308   4.122  0.0012  0.4161 -0.0792
 9278SOL    HW128733   1.493   0.245   4.060 -0.9782  0.3482  0.6910
 9278SOL    HW228734   1.474   0.343   4.189  1.3544 -0.9909  2.1350
 9279SOL     OW28735   3.758   5.313   2.501  0.2398  0.4980 -0.6378
 9279SOL    HW128736   3.764   5.410   2.480 -1.2291  1.1254  1.5740
 9279SOL    HW228737   3.804   5.294   2.588 -0.7917 -0.5170 -0.2867
 9280SOL     OW28738   1.387   5.371   3.039  0.0804 -0.2360 -0.0350
 9280SOL    HW128739   1.470   5.343   2.991  0.6120  1.8889 -0.4633
 9280SOL    HW228740   1.384   5.329   3.129  1.2638 -0.8850 -0.2849
 9281SOL     OW28741   1.379   6.728   0.465 -0.6032 -0.4707 -0.0640
 9281SOL    HW128742   1.319   6.648   0.458  0.4686 -1.2316 -0.6322
 9281SOL    HW228743   1.330   6.801   0.514 -1.3076 -1.7386  1.2087
 9282SOL     OW28744   6.947   1.485   4.547 -0.3804  0.3244  0.5527
 9282SOL    HW128745   7.040   1.510   4.571 -1.1176  2.2638  1.5602
 9282SOL    HW228746   6.906   1.434   4.623 -0.6030  0.7490  0.7202
 9283SOL     OW28747   5.744   6.221   6.659  0.2273 -0.7331  0.0206
 9283SOL    HW128748   5.730   6.140   6.602 -2.2749  0.8345 -1.8512
 9283SOL    HW228749   5.664   6.233   6.719  0.6581  0.2144  0.4183
 9284SOL     OW28750   2.823   6.221   0.170 -0.5848  0.2956  0.5073
 9284SOL    HW128751   2.810   6.310   0.125  0.3936  1.0607  1.6596
 9284SOL    HW228752   2.801   6.229   0.267 -0.4080 -0.7055  0.6398
 9285SOL     OW28753   5.017   5.453   2.067  0.1023  0.7358  0.5067
 9285SOL    HW128754   5.021   5.404   1.980  0.7374  1.3070  0.2039
 9285SOL    HW228755   4.941   5.417   2.122  0.2543 -0.2567  0.1016
 9286SOL     OW28756   6.434   4.390   1.385  0.0457 -0.7237 -0.4002
 9286SOL    HW128757   6.419   4.410   1.289  0.1063  1.2638 -0.0387
 9286SOL    HW228758   6.376   4.450   1.441  0.1092 -1.7457  0.8092
 9287SOL     OW28759   3.697   4.503   1.408 -0.2473 -0.0251  0.1756
 9287SOL    HW128760   3.740   4.500   1.498 -0.4453  0.4559  0.2896
 9287SOL    HW228761   3.619   4.565   1.410  0.2494  0.6575 -0.5369
 9288SOL     OW28762   4.777   6.427   3.849 -0.2278 -0.3771  0.6007
 9288SOL    HW128763   4.807   6.515   3.885 -1.4301  0.1391  0.3887
 9288SOL    HW228764   4.851   6.360   3.859  1.2216  0.9769 -0.5283
 9289SOL     OW28765   5.145   4.349   3.118  0.1094  0.1185  0.1811
 9289SOL    HW128766   5.223   4.408   3.100  1.1876 -0.8763  1.3978
 9289SOL    HW228767   5.069   4.403   3.153 -0.0678  1.2235 -1.8149
 9290SOL     OW28768   4.505   0.505   1.858 -0.2092  0.2560 -0.1248
 9290SOL    HW128769   4.442   0.496   1.935  0.4007 -0.0342  0.3487
 9290SOL    HW228770   4.487   0.591   1.810  0.0484  0.9217  0.9324
 9291SOL     OW28771   2.064   4.235   5.308  0.2129 -0.0270  0.0708
 9291SOL    HW128772   2.156   4.222   5.270  0.0634  0.4599 -0.4803
 9291SOL    HW228773   2.032   4.327   5.287 -0.4514 -0.2343  0.1447
 9292SOL     OW28774   1.284   1.403   1.699  0.3318  0.4217  0.5383
 9292SOL    HW128775   1.219   1.400   1.774  1.5003  0.1962  1.5682
 9292SOL    HW228776   1.348   1.479   1.712 -0.4295  1.4078 -1.0958
 9293SOL     OW28777   5.227   0.140   1.204  0.7314 -0.1513 -0.1441
 9293SOL    HW128778   5.151   0.078   1.182  0.5989 -0.3665  0.8627
 9293SOL    HW228779   5.314   0.092   1.193  0.5820 -1.1397  2.3352
 9294SOL     OW28780   5.275   6.075   6.326 -0.8091 -0.2345 -0.1661
 9294SOL    HW128781   5.199   6.019   6.356 -1.3688 -1.2311 -3.1087
 9294SOL    HW228782   5.240   6.156   6.278 -0.0355 -0.1936 -0.6817
 9295SOL     OW28783   3.942   1.584   2.106 -1.0235 -0.4101 -0.0561
 9295SOL    HW128784   3.958   1.675   2.145 -1.0722 -0.3760 -0.1154
 9295SOL    HW228785   3.992   1.516   2.160  1.3197 -0.0579 -1.6651
 9296SOL     OW28786   2.397   2.043   6.794 -0.0867  0.8559 -1.0400
 9296SOL    HW128787   2.414   2.119   6.856 -1.5409  1.7892 -1.7272
 9296SOL    HW228788   2.310   2.000   6.818  1.0457 -1.1159 -0.1898
 9297SOL     OW28789   0.481   4.190   1.998  0.1684 -0.2423  0.3496
 9297SOL    HW128790   0.404   4.236   2.044  0.1791 -0.3751  0.5008
 9297SOL    HW228791   0.530   4.134   2.065  1.4714  1.2200  0.6754
 9298SOL     OW28792   0.784   3.509   1.026  0.4848  0.1831  0.4655
 9298SOL    HW128793   0.784   3.605   1.053 -0.3316  1.1470 -2.5936
 9298SOL    HW228794   0.877   3.473   1.030  1.1544  1.7438 -0.3761
 9299SOL     OW28795   4.421   2.425   2.710  0.5540 -0.0070  0.2060
 9299SOL    HW128796   4.370   2.357   2.762 -0.6179  0.0185 -0.8565
 9299SOL    HW228797   4.376   2.440   2.622  0.6483  2.2954  0.4968
 9300SOL     OW28798   1.524   1.173   6.377  0.0221 -0.5464  0.5055
 9300SOL    HW128799   1.593   1.104   6.402  1.8824  1.1905  0.3878
 9300SOL    HW228800   1.434   1.130   6.376  1.0637 -2.9125  0.6989
 9301SOL     OW28801   1.328   2.308   2.258 -0.4581  0.1469 -0.0766
 9301SOL    HW128802   1.307   2.231   2.197  1.3739  0.4580 -1.1910
 9301SOL    HW228803   1.328   2.393   2.206  2.6867  0.2416 -0.1165
 9302SOL     OW28804   4.148   5.267   3.955  0.0921 -0.2868 -0.2438
 9302SOL    HW128805   4.203   5.197   3.909 -1.5171 -0.4429 -2.0637
 9302SOL    HW228806   4.122   5.337   3.889  0.5271  1.3493  1.2474
 9303SOL     OW28807   1.540   3.312   0.904 -0.3057 -0.8920 -0.0355
 9303SOL    HW128808   1.580   3.392   0.859 -1.9069  0.6259  1.0662
 9303SOL    HW228809   1.612   3.258   0.947  0.7823  0.2648 -0.3315
 9304SOL     OW28810   6.456   5.928   6.490 -0.0528  0.1003  0.3791
 9304SOL    HW128811   6.537   5.884   6.530 -0.1621  0.9817  1.6426
 9304SOL    HW228812   6.447   6.021   6.526 -1.0371  0.3971 -0.5671
 9305SOL     OW28813   0.628   2.047   2.587  0.0274 -0.1937  0.0382
 9305SOL    HW128814   0.621   1.981   2.662 -1.7486 -0.6619 -0.5116
 9305SOL    HW228815   0.538   2.082   2.564  0.3714 -0.8609 -2.6044
 9306SOL     OW28816   6.012   6.133   2.077 -0.7278  1.0456 -0.0826
 9306SOL    HW128817   6.004   6.084   1.990 -1.3473  2.9731 -1.1794
 9306SOL    HW228818   6.107   6.128   2.109  0.2299  2.5618 -2.3517
 9307SOL     OW28819   2.031   2.433   2.267  0.1009 -0.4277 -0.0901
 9307SOL    HW128820   1.979   2.348   2.275 -1.6701  0.6958  1.0524
 9307SOL    HW228821   2.094   2.441   2.344 -1.2054  0.1968  0.9560
 9308SOL     OW28822   3.417   4.003   7.003 -0.1497  0.1126  0.0471
 9308SOL    HW128823   3.342   3.940   7.026  0.1759 -0.4347 -0.3609
 9308SOL    HW228824   3.398   4.093   7.043 -0.5271 -0.2943  0.8091
 9309SOL     OW28825   2.971   5.031   4.865  0.1706  0.1224 -0.6336
 9309SOL    HW128826   2.901   4.979   4.913  0.8310  0.6357  0.9229
 9309SOL    HW228827   2.946   5.039   4.768 -0.5441 -2.0184 -0.6705
 9310SOL     OW28828   6.608   6.006   5.431  0.0032 -0.3416  0.5222
 9310SOL    HW128829   6.687   6.067   5.436  0.6063 -1.1790  1.7584
 9310SOL    HW228830   6.621   5.942   5.355  0.2307 -0.0849  0.3437
 9311SOL     OW28831   4.029   4.468   0.323  0.4820  0.3166 -0.4470
 9311SOL    HW128832   3.979   4.390   0.359  0.6265  0.4024 -0.0618
 9311SOL    HW228833   4.114   4.436   0.281 -0.3795  0.0460 -2.0625
 9312SOL     OW28834   6.912   3.119   3.002  0.3486 -0.4122  0.2645
 9312SOL    HW128835   6.900   3.132   3.100  0.3574 -0.4004  0.2640
 9312SOL    HW228836   7.006   3.092   2.983 -0.0131 -1.8896  0.4165
 9313SOL     OW28837   0.634   1.696   1.822 -0.3535 -0.3988 -0.0191
 9313SOL    HW128838   0.622   1.633   1.900 -2.8378 -0.3657 -0.2872
 9313SOL    HW228839   0.545   1.713   1.780  0.3291  2.7691 -0.4125
 9314SOL     OW28840   6.731   2.950   2.291 -0.0610 -0.0430  0.0332
 9314SOL    HW128841   6.810   2.891   2.308  0.9817  0.5911 -2.1662
 9314SOL    HW228842   6.752   3.013   2.216 -2.5467  0.3856 -0.4011
 9315SOL     OW28843   4.967   6.117   4.712 -0.5607 -0.7669  0.2829
 9315SOL    HW128844   5.012   6.197   4.752  0.6223 -1.3069  0.0841
 9315SOL    HW228845   4.868   6.122   4.728 -0.3357 -0.0093  1.5537
 9316SOL     OW28846   4.466   3.938   0.353 -0.1727  0.0568 -0.2399
 9316SOL    HW128847   4.463   3.844   0.388  0.3619  1.0112  2.6040
 9316SOL    HW228848   4.380   3.984   0.373 -0.4727  0.1832 -1.7235
 9317SOL     OW28849   3.678   6.911   2.552  0.0483  0.3648 -0.2743
 9317SOL    HW128850   3.723   6.835   2.598 -2.2382 -0.3710  0.9025
 9317SOL    HW228851   3.688   6.994   2.607 -1.4689 -0.1988  0.9234
 9318SOL     OW28852   4.846   5.399   3.385  0.2229 -0.4228  0.1631
 9318SOL    HW128853   4.932   5.354   3.409  0.5356 -0.3208 -0.7327
 9318SOL    HW228854   4.835   5.399   3.286 -0.4459  0.2437  0.2297
 9319SOL     OW28855   5.605   2.391   0.910  0.5376 -0.7059  0.2587
 9319SOL    HW128856   5.702   2.377   0.924  1.0774  1.1907 -1.0699
 9319SOL    HW228857   5.584   2.384   0.812 -0.4233  0.0941  0.3831
 9320SOL     OW28858   4.590   1.756   1.232 -0.2127 -0.4719 -0.3242
 9320SOL    HW128859   4.663   1.705   1.278  2.3479  1.6357 -1.7330
 9320SOL    HW228860   4.571   1.840   1.283  0.6898  0.5343 -1.5722
 9321SOL     OW28861   5.692   2.015   2.941  0.7538  0.2309 -0.0843
 9321SOL    HW128862   5.709   2.112   2.960 -1.3858  0.8947 -1.2668
 9321SOL    HW228863   5.728   1.992   2.850  1.2105 -0.0842  0.1721
 9322SOL     OW28864   5.859   4.059   6.713 -0.5297 -0.0422 -0.2088
 9322SOL    HW128865   5.793   4.072   6.787 -1.1297 -0.6213 -0.6269
 9322SOL    HW228866   5.912   4.143   6.700  0.6241 -0.3893  1.8392
 9323SOL     OW28867   0.802   3.069   5.563  0.8254 -0.1575  0.1620
 9323SOL    HW128868   0.748   3.047   5.482  0.7270  1.6699 -0.3170
 9323SOL    HW228869   0.753   3.041   5.645 -0.3453  0.4175 -0.3224
 9324SOL     OW28870   0.920   3.487   1.334  0.0730  0.1070  0.3433
 9324SOL    HW128871   0.996   3.506   1.271  2.0697 -0.5274  2.4285
 9324SOL    HW228872   0.878   3.573   1.363  0.5027  0.5147 -0.2307
 9325SOL     OW28873   2.154   2.542   2.856  0.0529  0.0294 -0.3079
 9325SOL    HW128874   2.237   2.598   2.865 -0.6853  1.1653 -0.4315
 9325SOL    HW228875   2.138   2.492   2.941 -0.4876  1.7229  0.6267
 9326SOL     OW28876   4.573   6.447   5.934 -0.8159  0.4287  0.3082
 9326SOL    HW128877   4.635   6.403   5.999 -0.6218 -0.3865 -0.3995
 9326SOL    HW228878   4.626   6.504   5.871 -0.7141 -0.5742 -0.5405
 9327SOL     OW28879   1.240   1.982   3.320  0.2619  0.4535 -0.0002
 9327SOL    HW128880   1.245   1.896   3.269 -2.6186 -0.1761  0.5923
 9327SOL    HW228881   1.148   2.021   3.310  1.4297  3.4378 -0.1266
 9328SOL     OW28882   0.387   1.107   2.288 -0.6284  0.2927 -0.2152
 9328SOL    HW128883   0.380   1.072   2.381  1.8021 -2.7706 -1.0220
 9328SOL    HW228884   0.296   1.105   2.245 -1.3804 -0.4569  1.3288
 9329SOL     OW28885   0.224   6.644   6.162 -0.1171  0.3632 -0.1631
 9329SOL    HW128886   0.305   6.597   6.197 -1.0099 -1.1856 -0.0807
 9329SOL    HW228887   0.239   6.670   6.067  1.0159  1.4539  0.2912
 9330SOL     OW28888   0.736   6.575   1.910  0.0274 -0.2823  0.6082
 9330SOL    HW128889   0.778   6.581   2.000  0.7498 -0.0770  0.2570
 9330SOL    HW228890   0.718   6.479   1.888 -0.0719 -0.3375  0.9289
 9331SOL     OW28891   2.437   6.247   5.323 -0.3088 -0.3465  0.8095
 9331SOL    HW128892   2.344   6.218   5.301 -0.0549 -0.4144 -0.2321
 9331SOL    HW228893   2.436   6.303   5.405 -1.3457  0.0960  0.5069
 9332SOL     OW28894   6.066   6.327   0.602 -0.1292 -0.1680 -0.2577
 9332SOL    HW128895   6.109   6.365   0.520 -0.6287 -1.4739 -1.1657
 9332SOL    HW228896   6.048   6.230   0.587  0.0772 -0.5077  1.5471
 9333SOL     OW28897   1.156   5.896   2.568 -0.0305 -0.2382  0.1505
 9333SOL    HW128898   1.192   5.812   2.527 -0.8037 -0.1607 -0.7067
 9333SOL    HW228899   1.134   5.878   2.664  1.7185 -0.4383  0.5547
 9334SOL     OW28900   6.768   5.528   6.079 -0.1661 -0.4208  0.4679
 9334SOL    HW128901   6.759   5.627   6.087 -0.8967 -0.3715 -0.7572
 9334SOL    HW228902   6.753   5.501   5.984  0.5040 -1.6606  0.6992
 9335SOL     OW28903   1.195   3.640   2.379  0.6081 -0.0367  0.1887
 9335SOL    HW128904   1.249   3.723   2.365 -0.1768  0.4360 -0.1142
 9335SOL    HW228905   1.185   3.592   2.292  0.6618 -0.1995  0.2720
 9336SOL     OW28906   4.513   6.921   3.349 -0.4969  0.3492  0.2846
 9336SOL    HW128907   4.439   6.989   3.345  0.4090  1.3270 -0.2631
 9336SOL    HW228908   4.477   6.831   3.323 -0.9403  1.3086 -2.7643
 9337SOL     OW28909   4.137   2.048   4.821  0.4871  0.4635 -0.1274
 9337SOL    HW128910   4.051   2.060   4.772  0.9980 -0.8914 -1.4312
 9337SOL    HW228911   4.119   2.039   4.919 -0.6012  2.7390 -0.0668
 9338SOL     OW28912   3.317   6.341   0.961 -0.0847 -0.2969  0.3049
 9338SOL    HW128913   3.339   6.384   1.049  0.4831  0.2616 -0.0952
 9338SOL    HW228914   3.398   6.340   0.903 -0.4161 -0.7912 -0.1651
 9339SOL     OW28915   1.122   2.306   5.588  0.4780  0.4954 -0.5232
 9339SOL    HW128916   1.126   2.317   5.688  2.1024 -1.6610 -0.2775
 9339SOL    HW228917   1.203   2.348   5.547  0.2452  0.6384 -0.8292
 9340SOL     OW28918   2.392   5.366   1.028 -0.7145  0.7157  0.2939
 9340SOL    HW128919   2.387   5.436   1.100 -2.4084 -0.8093  1.7680
 9340SOL    HW228920   2.360   5.279   1.065  0.3944 -0.6416 -1.7607
 9341SOL     OW28921   3.510   5.419   2.052 -0.6222  0.4882  0.2008
 9341SOL    HW128922   3.486   5.514   2.071 -0.5103  0.3325  1.1690
 9341SOL    HW228923   3.609   5.407   2.061 -0.5946  0.3575 -0.2630
 9342SOL     OW28924   1.697   0.989   5.422  0.1276  0.5554 -0.3146
 9342SOL    HW128925   1.784   0.949   5.454  0.1998  1.8657  1.2296
 9342SOL    HW228926   1.715   1.077   5.379 -0.3872  0.5426 -0.5575
 9343SOL     OW28927   5.203   4.006   2.198  0.4108  0.6788  0.1928
 9343SOL    HW128928   5.290   4.051   2.177  0.5845  0.8547  1.2292
 9343SOL    HW228929   5.209   3.962   2.288 -0.4231  0.2974  0.0749
 9344SOL     OW28930   5.565   6.929   0.414 -0.1996 -0.2891  0.4964
 9344SOL    HW128931   5.564   6.835   0.380 -0.6082 -0.1522  0.1137
 9344SOL    HW228932   5.478   6.973   0.392  0.2038  0.3608  0.1508
 9345SOL     OW28933   6.949   5.677   6.480 -0.9837  0.1921 -0.2014
 9345SOL    HW128934   6.989   5.769   6.481 -0.0923 -0.1767 -0.9202
 9345SOL    HW228935   6.849   5.685   6.480 -0.9190  1.1671 -0.3757
 9346SOL     OW28936   4.376   1.146   3.560  0.2893 -0.3591 -0.1656
 9346SOL    HW128937   4.451   1.090   3.597 -0.4658 -0.4565  1.2776
 9346SOL    HW228938   4.296   1.137   3.619  0.5162  3.2800  0.9675
 9347SOL     OW28939   3.643   5.553   2.564 -0.6894 -0.5790  0.2896
 9347SOL    HW128940   3.680   5.631   2.615  0.0476 -0.9921  0.4065
 9347SOL    HW228941   3.671   5.560   2.468 -1.1921 -0.3481  0.1603
 9348SOL     OW28942   2.366   4.620   1.979  0.3774  0.2786  0.4721
 9348SOL    HW128943   2.404   4.533   2.010 -0.7886 -0.0356  1.0789
 9348SOL    HW228944   2.424   4.657   1.906  0.3752 -1.4697 -0.4795
 9349SOL     OW28945   0.237   5.127   1.502 -0.0853  0.4244 -0.1947
 9349SOL    HW128946   0.179   5.138   1.422 -1.2857  1.1446  0.7519
 9349SOL    HW228947   0.247   5.214   1.549 -0.7989 -0.3039  1.3726
 9350SOL     OW28948   5.191   0.741   6.959  0.5607  0.0553 -0.0009
 9350SOL    HW128949   5.283   0.710   6.935  0.6244  1.6353 -2.0578
 9350SOL    HW228950   5.124   0.679   6.920  0.7246 -0.4572  0.5175
 9351SOL     OW28951   3.170   5.909   5.665 -0.4947 -0.8228  0.2171
 9351SOL    HW128952   3.187   5.946   5.757 -1.0896 -0.3180  0.1314
 9351SOL    HW228953   3.089   5.850   5.668 -1.9605  1.0372 -0.4140
 9352SOL     OW28954   3.767   2.870   0.092 -0.1783 -0.3311  0.0283
 9352SOL    HW128955   3.714   2.857   0.008  1.1068 -1.7470 -0.6078
 9352SOL    HW228956   3.820   2.955   0.085 -2.0045  0.9237  0.5333
 9353SOL     OW28957   1.211   3.989   2.142  0.3334 -0.5251  0.0704
 9353SOL    HW128958   1.265   4.055   2.193  2.1094 -1.8836  0.0729
 9353SOL    HW228959   1.235   3.994   2.045 -1.6993  0.8103 -0.4128
 9354SOL     OW28960   6.664   2.998   1.123  0.1738 -0.1484  0.8056
 9354SOL    HW128961   6.665   2.977   1.220 -0.5027  1.8110  1.2818
 9354SOL    HW228962   6.570   3.012   1.092  0.4692  0.4823  0.1596
 9355SOL     OW28963   1.833   0.766   1.086  0.2978  0.0391  0.6441
 9355SOL    HW128964   1.752   0.728   1.040  0.2857  0.2882  0.4510
 9355SOL    HW228965   1.839   0.730   1.179 -1.1021  1.4536  1.3329
 9356SOL     OW28966   3.928   0.921   3.243  0.4319 -0.0970 -0.1581
 9356SOL    HW128967   3.900   0.916   3.339  0.0388  0.6560 -0.2232
 9356SOL    HW228968   3.979   1.006   3.228  3.2181 -1.5904  0.0617
 9357SOL     OW28969   2.300   4.466   6.755  0.2180 -0.5808  0.0238
 9357SOL    HW128970   2.263   4.530   6.822 -2.9998 -1.7088 -0.5215
 9357SOL    HW228971   2.335   4.385   6.801 -2.3810 -1.5499  0.4412
 9358SOL     OW28972   6.320   5.093   4.105  0.0071  1.1639  0.1974
 9358SOL    HW128973   6.297   5.191   4.102  1.6636  1.7251  2.6462
 9358SOL    HW228974   6.261   5.043   4.041 -1.0526  3.7027 -0.9604
 9359SOL     OW28975   3.015   4.298   5.239 -0.2536  0.6932 -0.4274
 9359SOL    HW128976   2.985   4.383   5.196  1.6059  1.8716  0.4897
 9359SOL    HW228977   2.987   4.298   5.335 -0.7390 -0.0037 -0.5626
 9360SOL     OW28978   1.467   1.271   0.009  0.2864  0.3236  0.1589
 9360SOL    HW128979   1.395   1.227   0.063  0.6598  1.3490  1.5477
 9360SOL    HW228980   1.436   1.280  -0.085 -0.8748 -0.4410  0.4365
 9361SOL     OW28981   2.023   6.137   2.860 -0.2631 -0.0112 -0.0902
 9361SOL    HW128982   2.045   6.178   2.948 -0.0062  1.6948 -0.9164
 9361SOL    HW228983   2.082   6.177   2.789  0.4813 -2.2927 -0.8676
 9362SOL     OW28984   2.548   2.574   4.204  0.4674 -0.2597  0.0454
 9362SOL    HW128985   2.496   2.648   4.246  1.6090  0.1980  0.7119
 9362SOL    HW228986   2.499   2.538   4.125 -0.6351  0.4369  0.3983
 9363SOL     OW28987   0.849   5.177   0.786  0.5962  0.5280  0.7375
 9363SOL    HW128988   0.856   5.240   0.864 -0.2453  0.8101  0.5895
 9363SOL    HW228989   0.898   5.217   0.708 -0.0495  1.0831  0.6024
 9364SOL     OW28990   6.505   5.390   1.987 -1.0726 -0.0415  0.0751
 9364SOL    HW128991   6.443   5.336   2.044 -2.9200  2.5742  0.7279
 9364SOL    HW228992   6.479   5.381   1.891 -1.7027  0.0504  0.2322
 9365SOL     OW28993   3.021   2.074   5.149  0.0042 -0.1671 -0.7907
 9365SOL    HW128994   3.079   2.043   5.224 -2.0462  0.7871  1.2869
 9365SOL    HW228995   3.074   2.134   5.089  1.7508 -1.1255 -0.2901
 9366SOL     OW28996   2.408   2.109   0.816  0.3295 -0.1559 -0.2465
 9366SOL    HW128997   2.395   2.208   0.822 -1.4143 -0.2847 -1.3912
 9366SOL    HW228998   2.319   2.064   0.813  1.0558 -1.5867 -2.3836
 9367SOL     OW28999   5.085   1.342   3.800  0.6207 -0.0139 -0.4911
 9367SOL    HW129000   5.069   1.262   3.858  0.8007  0.3724  0.0963
 9367SOL    HW229001   5.002   1.398   3.797  0.6441  0.0189 -0.5291
 9368SOL     OW29002   6.078   4.587   1.258 -0.0708 -1.1487  0.4361
 9368SOL    HW129003   6.081   4.685   1.276 -2.2707 -0.7657 -0.9164
 9368SOL    HW229004   6.026   4.541   1.330 -2.8570 -0.6054 -1.0759
 9369SOL     OW29005   1.814   1.776   5.866 -0.2105 -0.1636 -0.0670
 9369SOL    HW129006   1.891   1.817   5.818 -0.3566 -0.2448 -0.3700
 9369SOL    HW229007   1.758   1.848   5.906  0.3943 -0.1249  0.7408
 9370SOL     OW29008   4.809   5.993   1.375  0.1651  0.2516  0.2835
 9370SOL    HW129009   4.892   6.049   1.369  0.3243  0.0610  0.6472
 9370SOL    HW229010   4.798   5.960   1.469  0.1626 -0.4534  0.0402
 9371SOL     OW29011   1.407   5.958   6.317  0.1217 -0.1280  0.2284
 9371SOL    HW129012   1.405   5.929   6.221 -1.7872 -1.0891  0.5070
 9371SOL    HW229013   1.385   5.880   6.376 -0.7795  0.9091  1.3084
 9372SOL     OW29014   6.976   5.162   1.044  0.1016  0.2357 -0.4768
 9372SOL    HW129015   7.075   5.179   1.038  0.2338  0.5012  1.6524
 9372SOL    HW229016   6.926   5.248   1.038  0.3795  0.8637  3.5068
 9373SOL     OW29017   6.383   2.410   5.350  0.1045 -0.6296  0.2731
 9373SOL    HW129018   6.335   2.405   5.438 -0.2228  0.0763  0.1392
 9373SOL    HW229019   6.470   2.456   5.363 -0.9529  1.6434 -0.1601
 9374SOL     OW29020   4.376   5.514   0.845  1.1454 -0.4058  0.1157
 9374SOL    HW129021   4.419   5.589   0.895  2.1487  0.0864 -1.3840
 9374SOL    HW229022   4.446   5.467   0.790  0.0736 -0.7755 -0.9728
 9375SOL     OW29023   6.030   5.969   3.859  0.1900 -0.0656  0.8252
 9375SOL    HW129024   6.080   6.054   3.841 -0.5541  0.6304  1.9182
 9375SOL    HW229025   5.975   5.945   3.779  0.0181  0.7539  0.6897
 9376SOL     OW29026   3.186   3.871   1.971 -0.2437 -0.4720 -0.5202
 9376SOL    HW129027   3.231   3.879   1.882 -0.8987  0.5598 -0.7833
 9376SOL    HW229028   3.197   3.957   2.021 -1.8547 -0.1991 -0.5851
 9377SOL     OW29029   0.207   4.724   3.783 -0.6223  0.1164 -0.0224
 9377SOL    HW129030   0.294   4.760   3.815 -0.1111 -0.6176 -0.5460
 9377SOL    HW229031   0.134   4.790   3.800  0.5109  2.1490 -2.4629
 9378SOL     OW29032   3.013   4.738   6.823  0.9005  0.0160  0.4013
 9378SOL    HW129033   2.913   4.739   6.828  0.9300  0.1326  1.1331
 9378SOL    HW229034   3.042   4.747   6.728  0.1963 -2.0604 -0.0625
 9379SOL     OW29035   3.723   5.276   4.840 -0.0486 -0.5333 -0.3513
 9379SOL    HW129036   3.730   5.177   4.839  2.3865 -0.4186 -1.1906
 9379SOL    HW229037   3.763   5.314   4.757 -1.1458  1.1560 -0.1676
 9380SOL     OW29038   5.888   6.678   6.353  0.0431  0.0777  0.2099
 9380SOL    HW129039   5.835   6.693   6.436  1.0637 -1.0290  1.1022
 9380SOL    HW229040   5.873   6.585   6.320  1.5954 -0.3678  0.6509
 9381SOL     OW29041   5.797   0.615   1.505 -0.0721 -0.5318  0.0547
 9381SOL    HW129042   5.769   0.661   1.590  1.1382 -0.0850  0.2264
 9381SOL    HW229043   5.794   0.681   1.430  0.8001 -0.3871  0.1352
 9382SOL     OW29044   1.360   4.930   2.042  0.2619 -0.0086  0.7074
 9382SOL    HW129045   1.338   5.018   1.999  0.1270 -0.7369 -0.7843
 9382SOL    HW229046   1.456   4.908   2.026  0.2338 -0.2463  0.8684
 9383SOL     OW29047   0.636   3.965   5.863 -0.1490 -0.4056 -0.6237
 9383SOL    HW129048   0.594   3.930   5.947  1.3140  0.6390  0.6050
 9383SOL    HW229049   0.727   4.001   5.884  0.1042  0.2335 -2.6146
 9384SOL     OW29050   2.117   1.191   1.947  0.3331  0.3368  0.1244
 9384SOL    HW129051   2.120   1.190   2.047 -0.2500 -0.9204  0.1446
 9384SOL    HW229052   2.207   1.218   1.912  0.9499 -0.5091  0.9901
 9385SOL     OW29053   5.125   6.543   2.725  0.2844 -0.2994 -0.1077
 9385SOL    HW129054   5.079   6.593   2.798  1.0227  0.2661 -0.0220
 9385SOL    HW229055   5.209   6.501   2.760  1.8018  1.7755 -1.0883
 9386SOL     OW29056   3.229   1.327   4.771  0.4109 -0.0166 -0.4699
 9386SOL    HW129057   3.250   1.402   4.708  0.6620 -0.1353 -0.5292
 9386SOL    HW229058   3.166   1.360   4.842  3.0264  1.1988  1.4627
 9387SOL     OW29059   2.622   4.070   0.101  0.2782 -0.0231 -0.1586
 9387SOL    HW129060   2.537   4.112   0.134 -0.1526 -1.1316  0.1945
 9387SOL    HW229061   2.686   4.060   0.176 -0.0253 -0.9395 -0.0119
 9388SOL     OW29062   6.674   0.489   0.132  0.2277  0.4239  0.3501
 9388SOL    HW129063   6.747   0.497   0.200 -0.8575 -1.0652  1.7593
 9388SOL    HW229064   6.585   0.493   0.177 -0.5314 -0.1262 -1.0302
 9389SOL     OW29065   2.837   1.574   3.244 -0.7001  0.1262 -0.2139
 9389SOL    HW129066   2.874   1.607   3.331 -1.4868 -1.3624  0.7201
 9389SOL    HW229067   2.895   1.606   3.169  0.5659  0.6002  0.9324
 9390SOL     OW29068   4.511   0.306   2.185 -0.1028  0.4324  0.3686
 9390SOL    HW129069   4.565   0.383   2.220 -0.8977  1.3010 -0.2860
 9390SOL    HW229070   4.422   0.339   2.153  0.8165 -0.1794 -3.1444
 9391SOL     OW29071   5.537   2.372   6.152 -0.6817  0.1836 -0.4058
 9391SOL    HW129072   5.477   2.410   6.223  1.1774 -0.8207  1.8362
 9391SOL    HW229073   5.486   2.303   6.100 -1.7464 -0.0043  0.8230
 9392SOL     OW29074   1.123   0.937   3.608 -0.5684 -0.2568 -0.1158
 9392SOL    HW129075   1.039   0.885   3.595 -0.9821  0.5929 -0.9821
 9392SOL    HW229076   1.113   1.028   3.567  1.5656 -0.9106 -2.3250
 9393SOL     OW29077   5.140   2.029   6.036  0.3000  0.2192 -0.1594
 9393SOL    HW129078   5.076   1.956   6.062 -0.9323  0.7501 -1.5204
 9393SOL    HW229079   5.226   1.989   6.006 -0.9845 -0.8869 -2.6712
 9394SOL     OW29080   0.400   0.159   0.444 -0.2903  0.2269 -0.2908
 9394SOL    HW129081   0.442   0.246   0.418 -0.2889  0.3767  0.2169
 9394SOL    HW229082   0.367   0.164   0.538  1.6724 -1.0190  0.5339
 9395SOL     OW29083   2.568   1.559   1.264 -0.4830 -0.2337 -0.2206
 9395SOL    HW129084   2.500   1.529   1.197 -0.4359  0.4906 -0.6053
 9395SOL    HW229085   2.560   1.504   1.347  0.8539 -2.5928 -1.5499
 9396SOL     OW29086   1.613   1.723   3.516 -0.3356 -0.0997 -0.3567
 9396SOL    HW129087   1.526   1.691   3.555  0.0041  0.0659  0.5519
 9396SOL    HW229088   1.669   1.644   3.490 -0.8998 -0.2089 -1.2997
 9397SOL     OW29089   1.125   1.331   1.894 -0.2210  0.2657  0.4622
 9397SOL    HW129090   1.215   1.302   1.924  0.0248  1.1554  0.5893
 9397SOL    HW229091   1.062   1.253   1.900  1.4366 -1.7382 -3.7409
 9398SOL     OW29092   0.910   2.534   0.457 -0.0971 -0.1772 -0.1695
 9398SOL    HW129093   0.949   2.606   0.514  1.2907 -1.5077  0.6484
 9398SOL    HW229094   0.984   2.477   0.421 -1.0877 -0.5297 -1.7243
 9399SOL     OW29095   0.070   1.181   2.382 -0.2331  0.1090  0.0133
 9399SOL    HW129096   0.048   1.152   2.289 -0.8528  2.7264 -0.7428
 9399SOL    HW229097   0.020   1.124   2.447 -1.3782 -0.5071 -1.3397
 9400SOL     OW29098   5.482   1.843   3.024 -0.1510  0.0396 -0.0085
 9400SOL    HW129099   5.553   1.897   2.978 -0.8680  1.1455  0.1221
 9400SOL    HW229100   5.407   1.904   3.051  0.1323 -0.6075  2.4161
 9401SOL     OW29101   4.266   0.072   2.387  0.0067  0.9360  0.6428
 9401SOL    HW129102   4.178   0.044   2.424 -0.0783 -2.5351 -1.6367
 9401SOL    HW229103   4.334   0.001   2.405  1.1151  1.3334 -1.5655
 9402SOL     OW29104   1.765   3.854   6.171 -0.1004  0.1199  0.5175
 9402SOL    HW129105   1.666   3.869   6.167 -0.5368 -1.7347  2.2838
 9402SOL    HW229106   1.812   3.942   6.180 -1.4613  1.1150 -1.3967
 9403SOL     OW29107   5.369   0.970   3.647 -0.4928  0.2756  0.0566
 9403SOL    HW129108   5.454   1.005   3.686  0.3387 -2.0398  0.4770
 9403SOL    HW229109   5.319   0.918   3.716 -1.2828 -0.0390 -0.7324
 9404SOL     OW29110   2.103   3.612   3.941 -0.3758 -0.0384  0.5968
 9404SOL    HW129111   2.123   3.517   3.966  1.5824  0.4490  1.0031
 9404SOL    HW229112   2.032   3.648   4.002  1.6747 -0.0463  3.1779
 9405SOL     OW29113   0.190   1.030   0.711  0.6747 -0.0652  0.1428
 9405SOL    HW129114   0.132   1.075   0.644 -0.1470 -1.1052  0.1318
 9405SOL    HW229115   0.199   0.933   0.688  1.6766 -0.1069  0.6593
 9406SOL     OW29116   0.403   1.645   3.597  0.5345 -0.2913  0.1596
 9406SOL    HW129117   0.430   1.718   3.534  2.4066 -0.5814  0.5467
 9406SOL    HW229118   0.431   1.670   3.690  0.4458 -1.1225  0.4172
 9407SOL     OW29119   3.342   5.955   4.245  0.9743  0.8351 -0.7724
 9407SOL    HW129120   3.391   6.039   4.270  0.9115  1.0581 -1.3903
 9407SOL    HW229121   3.260   5.979   4.192  0.1207  0.4760  0.3408
 9408SOL     OW29122   3.355   2.060   1.158  0.1384 -0.2308  0.2873
 9408SOL    HW129123   3.411   2.134   1.197  2.4428 -2.2219  0.9875
 9408SOL    HW229124   3.373   2.053   1.060  0.0991  0.0034  0.2635
 9409SOL     OW29125   1.447   2.448   3.911 -0.3887  0.0829  0.2400
 9409SOL    HW129126   1.393   2.366   3.897 -0.2565 -0.1894  1.2441
 9409SOL    HW229127   1.407   2.524   3.859 -1.9764 -0.0056  1.2651
 9410SOL     OW29128   4.777   0.226   1.847 -0.0625  0.6438  0.1903
 9410SOL    HW129129   4.735   0.293   1.908  1.0138 -0.1090  1.8386
 9410SOL    HW229130   4.770   0.257   1.752 -1.8864  1.8080  0.6556
 9411SOL     OW29131   4.002   3.989   1.813  0.1281 -0.0207 -0.3021
 9411SOL    HW129132   3.930   3.981   1.744  0.2793  0.9179 -0.5816
 9411SOL    HW229133   4.061   3.909   1.809 -1.5561 -1.3919  0.7201
 9412SOL     OW29134   6.385   2.497   2.776 -0.3440  0.5802 -0.0419
 9412SOL    HW129135   6.386   2.510   2.677 -1.3438  0.5343 -0.0736
 9412SOL    HW229136   6.425   2.409   2.798 -0.1497  0.5734 -0.4091
 9413SOL     OW29137   3.361   5.539   3.674  0.0401  0.5817  0.0028
 9413SOL    HW129138   3.413   5.538   3.760 -0.2212  0.0246  0.1573
 9413SOL    HW229139   3.318   5.451   3.660  1.8553 -0.1008 -1.7984
 9414SOL     OW29140   2.728   0.506   2.589  0.2108 -0.5671 -0.4333
 9414SOL    HW129141   2.814   0.540   2.553 -0.5921  0.6285 -1.2816
 9414SOL    HW229142   2.733   0.407   2.599  1.4609 -0.5863 -1.0584
 9415SOL     OW29143   2.062   6.927   0.779  0.3537  0.0219 -0.1423
 9415SOL    HW129144   2.026   6.835   0.761  0.4780  0.2988 -2.0176
 9415SOL    HW229145   2.054   6.947   0.877  0.1009 -1.8773  0.2746
 9416SOL     OW29146   0.994   1.545   1.259 -0.0459  0.0662 -0.0992
 9416SOL    HW129147   1.040   1.492   1.330  1.7920  0.8401 -0.6521
 9416SOL    HW229148   1.038   1.635   1.252 -1.6038  0.8056 -0.7459
 9417SOL     OW29149   0.056   1.016   3.745  0.0967 -0.1349  0.1792
 9417SOL    HW129150   0.092   1.052   3.659  0.5210 -2.0311 -0.4915
 9417SOL    HW229151   0.092   1.070   3.822  1.4463  0.2829 -0.7063
 9418SOL     OW29152   4.217   5.343   0.965 -0.4069 -0.0832 -0.0003
 9418SOL    HW129153   4.251   5.252   0.940 -0.4463 -0.1741  0.2790
 9418SOL    HW229154   4.275   5.412   0.923  0.7447 -0.2291  1.2831
 9419SOL     OW29155   4.252   6.274   4.073 -0.1056 -0.0930 -0.6418
 9419SOL    HW129156   4.201   6.342   4.021 -1.1857 -0.3349  0.0469
 9419SOL    HW229157   4.323   6.233   4.016  1.0974  2.1361 -0.8343
 9420SOL     OW29158   1.357   1.152   4.128 -0.6077 -0.3868  0.9779
 9420SOL    HW129159   1.422   1.181   4.058  0.5426  0.7168  2.4434
 9420SOL    HW229160   1.265   1.150   4.089 -0.2163  1.6375 -0.2009
 9421SOL     OW29161   1.352   5.446   3.955  0.5320  0.1802 -0.1002
 9421SOL    HW129162   1.377   5.540   3.933 -0.9624  1.0270  1.5166
 9421SOL    HW229163   1.406   5.415   4.033 -0.4511  0.5186  0.7460
 9422SOL     OW29164   3.660   2.090   5.032  0.2663  0.0131 -0.0860
 9422SOL    HW129165   3.673   2.138   5.119  0.5432 -0.2658  0.0277
 9422SOL    HW229166   3.563   2.092   5.007 -0.0860 -1.2608  1.0316
 9423SOL     OW29167   4.908   0.648   4.330  0.2978  0.4275 -0.7354
 9423SOL    HW129168   4.893   0.559   4.373  1.7723 -0.4070 -1.9161
 9423SOL    HW229169   4.819   0.693   4.318 -0.3860 -0.3875  0.8212
 9424SOL     OW29170   1.645   4.487   4.959  0.3719  0.3351  0.7349
 9424SOL    HW129171   1.557   4.535   4.969 -1.0158 -2.0436  0.7805
 9424SOL    HW229172   1.684   4.507   4.869 -0.2913  1.3092  0.6498
 9425SOL     OW29173   6.351   4.622   1.994 -0.0656  0.2005 -0.2684
 9425SOL    HW129174   6.432   4.653   2.044  0.0874 -0.7155  0.0686
 9425SOL    HW229175   6.292   4.568   2.055  0.1510 -0.9845 -1.0591
 9426SOL     OW29176   5.531   6.308   6.807  0.1192  0.3865  0.1593
 9426SOL    HW129177   5.468   6.353   6.743 -0.5941 -0.5464  0.1938
 9426SOL    HW229178   5.485   6.294   6.894  0.6726  0.4983  0.4699
 9427SOL     OW29179   2.725   4.574   5.613  0.4692 -0.5157  0.3717
 9427SOL    HW129180   2.806   4.528   5.650  0.8440 -0.3706 -0.2490
 9427SOL    HW229181   2.735   4.583   5.513 -0.4587 -0.7872  0.2530
 9428SOL     OW29182   4.811   5.642   2.168 -0.6321 -0.2908  0.7576
 9428SOL    HW129183   4.875   5.581   2.121  1.0250  1.2527  0.9049
 9428SOL    HW229184   4.717   5.615   2.145  0.0247 -2.5348  0.4144
 9429SOL     OW29185   6.561   2.943   2.804  0.2765  0.1049  0.8215
 9429SOL    HW129186   6.541   3.024   2.749 -1.4348 -0.6549  0.2615
 9429SOL    HW229187   6.657   2.944   2.831  1.1355  0.6522 -1.9341
 9430SOL     OW29188   6.603   5.625   1.252 -0.5128  0.1280 -0.2851
 9430SOL    HW129189   6.610   5.558   1.326  0.3777 -0.2426 -0.6922
 9430SOL    HW229190   6.525   5.601   1.193 -1.2083  0.4082  0.4917
 9431SOL     OW29191   6.494   4.190   5.980  0.2764 -0.0337  0.2174
 9431SOL    HW129192   6.421   4.167   6.044  0.1713  0.7282  0.3882
 9431SOL    HW229193   6.496   4.290   5.968  0.2892 -0.1643 -0.9585
 9432SOL     OW29194   5.069   6.179   2.322 -0.7920  0.4375  0.3028
 9432SOL    HW129195   5.104   6.206   2.411 -2.5462  1.0136  0.8435
 9432SOL    HW229196   5.087   6.251   2.255 -1.3942  0.9609  0.6976
 9433SOL     OW29197   3.489   5.491   3.903 -0.7984 -0.2480  0.0509
 9433SOL    HW129198   3.502   5.394   3.919 -0.4719 -0.0666  0.9429
 9433SOL    HW229199   3.578   5.535   3.890 -1.0382 -0.4231 -2.6726
 9434SOL     OW29200   5.205   2.224   4.665  0.0687  0.9868  0.2351
 9434SOL    HW129201   5.250   2.149   4.712  0.0390  2.0393  2.0590
 9434SOL    HW229202   5.241   2.232   4.572  0.5489 -0.8160  0.2278
 9435SOL     OW29203   3.501   2.154   6.747  0.3361 -0.5403 -0.4744
 9435SOL    HW129204   3.592   2.180   6.715 -0.2899 -0.4527 -2.3258
 9435SOL    HW229205   3.481   2.201   6.833  1.9476 -0.4328 -0.1195
 9436SOL     OW29206   3.185   3.070   5.079  0.4713  0.2226 -0.1241
 9436SOL    HW129207   3.173   3.120   4.994  0.1754  0.1440 -0.1290
 9436SOL    HW229208   3.143   3.120   5.154  0.5967  0.2165 -0.0501
 9437SOL     OW29209   0.405   5.758   5.192  0.4827  0.0057 -0.1469
 9437SOL    HW129210   0.364   5.667   5.192  0.5126 -0.0100 -0.4858
 9437SOL    HW229211   0.415   5.791   5.286 -1.7821  0.6713 -0.0816
 9438SOL     OW29212   5.153   6.032   2.867  0.1367 -0.2557 -0.3756
 9438SOL    HW129213   5.187   6.124   2.885  0.2171  0.0630 -2.0486
 9438SOL    HW229214   5.219   5.965   2.900  0.1798  0.2745  0.6531
 9439SOL     OW29215   1.653   2.994   2.577  0.0296  0.0998 -0.2712
 9439SOL    HW129216   1.724   2.976   2.509 -0.5857  0.8729 -1.1505
 9439SOL    HW229217   1.613   2.908   2.608  1.9513 -0.4070  0.9274
 9440SOL     OW29218   3.666   6.091   2.294  0.0463 -0.0481 -0.4627
 9440SOL    HW129219   3.755   6.074   2.252 -0.5464  0.1309 -1.8696
 9440SOL    HW229220   3.597   6.100   2.222 -0.9049  0.9885  0.5418
 9441SOL     OW29221   2.558   4.507   5.964  0.0574 -0.0455 -0.0350
 9441SOL    HW129222   2.556   4.568   5.885  0.9146  0.8525  0.6111
 9441SOL    HW229223   2.639   4.449   5.960 -0.1998 -0.3994 -0.1090
 9442SOL     OW29224   0.047   1.187   1.708 -0.6220  0.2982 -0.1497
 9442SOL    HW129225   0.033   1.201   1.806  0.7617  0.9004 -0.0053
 9442SOL    HW229226   0.143   1.204   1.686 -1.1913  1.6553 -1.8597
 9443SOL     OW29227   1.386   1.194   1.547 -0.1489  0.0887 -0.5663
 9443SOL    HW129228   1.328   1.269   1.579 -1.9711 -1.1287 -0.8800
 9443SOL    HW229229   1.391   1.196   1.447  0.6350  0.3773 -0.5260
 9444SOL     OW29230   2.482   5.448   4.751  0.0596  0.0809 -0.3641
 9444SOL    HW129231   2.546   5.379   4.783 -1.8689 -2.1350 -0.9982
 9444SOL    HW229232   2.531   5.515   4.695  2.3069  0.3448  1.7685
 9445SOL     OW29233   3.491   1.762   3.805  0.4706  0.5346  0.2301
 9445SOL    HW129234   3.438   1.835   3.763 -1.2257  0.2195  1.6999
 9445SOL    HW229235   3.515   1.788   3.899 -0.1557 -0.7405  0.7702
 9446SOL     OW29236   4.393   5.137   0.778  0.3099 -0.3393 -0.0798
 9446SOL    HW129237   4.328   5.091   0.718 -1.0001  0.3519  0.7616
 9446SOL    HW229238   4.395   5.091   0.867  0.0724  0.3324  0.2821
 9447SOL     OW29239   5.020   1.184   2.717  0.1181  0.0965  0.0254
 9447SOL    HW129240   5.024   1.118   2.792  0.7601  0.2226  0.1152
 9447SOL    HW229241   4.959   1.151   2.646 -0.2768 -0.1582  0.4795
 9448SOL     OW29242   6.139   0.612   0.200 -0.4034  1.0424  0.0546
 9448SOL    HW129243   6.093   0.634   0.114 -1.6767  0.1371  0.4789
 9448SOL    HW229244   6.075   0.566   0.261  0.4201  1.8468  1.5731
 9449SOL     OW29245   5.947   6.299   5.900  0.1526 -0.2769  0.6083
 9449SOL    HW129246   5.984   6.318   5.809  0.8600  0.0248  0.9471
 9449SOL    HW229247   5.970   6.205   5.926  1.3590  0.1276  1.1094
 9450SOL     OW29248   1.199   4.682   5.497  0.3611 -0.7546  0.3538
 9450SOL    HW129249   1.243   4.724   5.577  1.3926 -0.9379 -0.1031
 9450SOL    HW229250   1.254   4.605   5.466  1.0416  0.4645 -1.6863
 9451SOL     OW29251   2.717   3.704   5.453 -0.1191  0.0130 -0.0206
 9451SOL    HW129252   2.693   3.732   5.361  1.0503 -0.1485 -0.3971
 9451SOL    HW229253   2.748   3.783   5.506  1.5269 -0.2410 -0.5449
 9452SOL     OW29254   1.897   5.033   0.848 -0.0765 -1.0608 -0.8767
 9452SOL    HW129255   1.799   5.026   0.831 -0.6250  0.2900  1.3381
 9452SOL    HW229256   1.934   4.943   0.867 -1.5615 -1.2808  1.2982
 9453SOL     OW29257   2.418   6.804   1.282  0.2967 -0.3122  0.6532
 9453SOL    HW129258   2.447   6.724   1.335 -0.0380  0.1483  1.5520
 9453SOL    HW229259   2.406   6.882   1.344 -0.8168  0.0520  0.0038
 9454SOL     OW29260   2.683   2.615   5.334  0.2989 -0.4708  0.2815
 9454SOL    HW129261   2.678   2.522   5.296 -0.0346 -0.4891  0.3635
 9454SOL    HW229262   2.597   2.663   5.316 -0.2425 -0.8049  1.8397
 9455SOL     OW29263   0.217   0.602   1.014  0.1191 -0.4400  0.0786
 9455SOL    HW129264   0.191   0.672   1.080  1.4325  0.1440 -0.0001
 9455SOL    HW229265   0.142   0.588   0.949  0.0468  1.3282 -0.2752
 9456SOL     OW29266   2.133   3.283   0.987  0.1129  0.0083 -0.6287
 9456SOL    HW129267   2.072   3.207   0.961  1.9723 -1.4952 -0.8169
 9456SOL    HW229268   2.175   3.262   1.076  0.8996  0.6571 -0.8411
 9457SOL     OW29269   6.800   4.127   6.518 -0.5180 -0.0688  0.5128
 9457SOL    HW129270   6.853   4.177   6.587 -1.5771  0.7596  0.7523
 9457SOL    HW229271   6.703   4.130   6.542 -0.7339 -1.1953 -0.1429
 9458SOL     OW29272   0.833   1.065   2.694 -0.1254  0.9002 -0.0749
 9458SOL    HW129273   0.758   1.031   2.753  0.1065  1.0866  0.3332
 9458SOL    HW229274   0.812   1.043   2.599 -1.6256  2.6167 -0.1917
 9459SOL     OW29275   3.860   0.365   0.215  0.2120 -0.6977  0.1209
 9459SOL    HW129276   3.870   0.274   0.255 -1.7919 -1.2071 -0.4206
 9459SOL    HW229277   3.915   0.371   0.131  0.2211 -1.4775  0.0653
 9460SOL     OW29278   0.886   3.523   5.213  0.2468 -0.7794 -0.0999
 9460SOL    HW129279   0.860   3.593   5.279  1.2352 -0.1109 -0.4012
 9460SOL    HW229280   0.864   3.432   5.249  0.4446 -0.4019  0.9869
 9461SOL     OW29281   2.415   1.934   2.773  0.0675  0.7933  0.2486
 9461SOL    HW129282   2.408   1.843   2.814  2.6318  0.1475 -0.5080
 9461SOL    HW229283   2.333   1.987   2.792 -1.2573 -1.4866  1.1811
 9462SOL     OW29284   2.167   3.850   3.139 -0.3023  0.1708  0.0687
 9462SOL    HW129285   2.239   3.793   3.178 -1.2885 -1.0644  0.1363
 9462SOL    HW229286   2.164   3.937   3.189  0.6750 -0.0304  0.5159
 9463SOL     OW29287   5.468   4.057   4.374 -0.1815 -0.4255 -0.0154
 9463SOL    HW129288   5.524   4.111   4.311 -0.4054 -1.7626 -1.4078
 9463SOL    HW229289   5.411   3.993   4.322 -1.7231 -0.3208  1.4705
 9464SOL     OW29290   5.123   1.015   5.882  0.2069 -0.1336 -0.6143
 9464SOL    HW129291   5.203   1.038   5.939  0.4489 -1.0237 -0.5848
 9464SOL    HW229292   5.148   1.022   5.785 -0.3453  1.8900 -0.6683
 9465SOL     OW29293   4.641   0.626   3.833  0.2941 -0.2769  0.3147
 9465SOL    HW129294   4.656   0.718   3.796  0.0520 -0.8046 -1.1949
 9465SOL    HW229295   4.729   0.582   3.849  0.4215  0.4659  1.7438
 9466SOL     OW29296   3.812   1.981   6.908  0.5139 -0.5334 -0.4363
 9466SOL    HW129297   3.740   1.960   6.973 -0.3390 -0.0599 -1.2032
 9466SOL    HW229298   3.901   1.962   6.949 -0.0496 -1.3439  0.4427
 9467SOL     OW29299   0.980   4.060   1.137  0.0059  0.1983 -0.0237
 9467SOL    HW129300   1.045   4.073   1.211  0.5921  2.5274 -0.8668
 9467SOL    HW229301   0.887   4.064   1.173  0.2870  0.9904  0.6584
 9468SOL     OW29302   6.843   1.392   4.322  0.6489  0.3129 -0.3033
 9468SOL    HW129303   6.869   1.295   4.325 -0.9546 -0.1157  1.6481
 9468SOL    HW229304   6.893   1.441   4.393 -0.1148  0.4881  0.1120
 9469SOL     OW29305   1.681   5.462   1.867 -0.1222  0.0533  0.0290
 9469SOL    HW129306   1.743   5.488   1.941  0.8164 -0.3504 -0.5824
 9469SOL    HW229307   1.724   5.483   1.779 -0.7780 -0.4162 -0.4159
 9470SOL     OW29308   0.105   2.316   1.409  0.5265  0.1720 -0.8167
 9470SOL    HW129309   0.133   2.344   1.501  0.3825  0.1799 -0.7756
 9470SOL    HW229310   0.041   2.383   1.372  0.1482 -0.1255 -0.7018
 9471SOL     OW29311   1.005   2.557   6.061 -0.6664  0.4636  0.3498
 9471SOL    HW129312   1.042   2.464   6.051 -1.3257 -0.0668  2.4585
 9471SOL    HW229313   1.069   2.613   6.112 -0.9163  0.7554  0.3450
 9472SOL     OW29314   6.774   1.223   3.815  0.1212  0.3704 -0.2019
 9472SOL    HW129315   6.788   1.125   3.823  2.0462  0.4490 -1.9123
 9472SOL    HW229316   6.778   1.265   3.906  1.4334 -0.8750  0.3429
 9473SOL     OW29317   1.895   2.581   6.575  0.4702  0.4539 -0.0288
 9473SOL    HW129318   1.858   2.527   6.500  0.8983  0.9975 -0.6490
 9473SOL    HW229319   1.861   2.546   6.662  1.7964 -1.6997 -0.2872
 9474SOL     OW29320   5.211   5.967   5.467  0.5011  0.5240  0.1954
 9474SOL    HW129321   5.247   5.893   5.410 -0.0419 -1.6444  2.4387
 9474SOL    HW229322   5.250   5.958   5.559 -1.5616  1.4443  1.2106
 9475SOL     OW29323   2.691   2.303   1.803  0.3189 -0.2880 -1.0383
 9475SOL    HW129324   2.779   2.342   1.829  1.3476 -3.5122  0.8733
 9475SOL    HW229325   2.697   2.265   1.711  0.3496  0.9696 -1.5725
 9476SOL     OW29326   4.389   3.305   6.719  0.0817 -0.4035 -0.6284
 9476SOL    HW129327   4.404   3.229   6.784 -1.4422 -0.4248 -0.2592
 9476SOL    HW229328   4.312   3.283   6.660  0.1884  0.4981 -1.1164
 9477SOL     OW29329   1.622   2.861   0.257 -0.2025  0.6328  0.3067
 9477SOL    HW129330   1.533   2.823   0.231 -0.4031 -1.1498  3.0809
 9477SOL    HW229331   1.692   2.830   0.193 -1.3496  1.0373 -1.2008
 9478SOL     OW29332   6.039   4.758   5.619  0.1535 -0.7382 -0.2315
 9478SOL    HW129333   6.126   4.801   5.642  0.4356 -0.3717 -1.8311
 9478SOL    HW229334   6.054   4.661   5.598 -0.0445 -0.9826  0.6950
 9479SOL     OW29335   5.496   6.697   4.206 -0.2270  0.6404 -0.7683
 9479SOL    HW129336   5.530   6.772   4.263  0.2263  0.3798 -0.6924
 9479SOL    HW229337   5.473   6.620   4.265 -3.4062  1.6519 -0.4925
 9480SOL     OW29338   0.245   3.375   6.375 -0.0759  0.3354 -0.2137
 9480SOL    HW129339   0.336   3.371   6.416  0.2142  1.2554 -0.7446
 9480SOL    HW229340   0.242   3.315   6.295 -0.2103 -0.3696  0.3140
 9481SOL     OW29341   0.624   2.377   5.078 -0.0688  0.1596 -0.7636
 9481SOL    HW129342   0.547   2.423   5.122  0.7717 -0.4736  1.4994
 9481SOL    HW229343   0.590   2.297   5.029 -0.9863  0.5241 -0.7468
 9482SOL     OW29344   5.156   2.128   3.513  0.5958 -0.4247 -0.2664
 9482SOL    HW129345   5.130   2.160   3.605  1.0503 -0.9704  0.0539
 9482SOL    HW229346   5.222   2.054   3.521  2.4003  1.0449 -1.0736
 9483SOL     OW29347   0.464   0.615   0.581  0.0441 -0.2847 -0.1708
 9483SOL    HW129348   0.530   0.629   0.508 -0.2517 -0.8971 -0.5564
 9483SOL    HW229349   0.481   0.526   0.625  1.7021  0.9998  2.0489
 9484SOL     OW29350   5.924   1.664   4.466 -0.4736 -0.0800  0.2425
 9484SOL    HW129351   5.891   1.575   4.434 -1.7169  0.3166  0.3578
 9484SOL    HW229352   5.856   1.704   4.527  1.3010 -0.2674  2.4447
 9485SOL     OW29353   1.010   6.574   1.668 -0.3207  0.0668 -0.1326
 9485SOL    HW129354   1.109   6.569   1.657 -0.3260 -0.2649 -0.0530
 9485SOL    HW229355   0.986   6.566   1.764 -0.3580  1.4637 -0.0038
 9486SOL     OW29356   3.033   2.184   2.483 -0.0292 -0.5205 -0.4195
 9486SOL    HW129357   3.054   2.162   2.388  1.5405  0.3681 -0.3219
 9486SOL    HW229358   3.117   2.180   2.538 -0.2325  2.2070  0.2367
 9487SOL     OW29359   3.431   2.870   3.992  0.2069  0.0282  0.0449
 9487SOL    HW129360   3.438   2.879   4.091  0.9562 -1.4901  0.1669
 9487SOL    HW229361   3.522   2.861   3.953 -0.1447 -1.3053 -0.5418
 9488SOL     OW29362   1.304   0.098   3.649  0.2266  0.2536  0.4598
 9488SOL    HW129363   1.278   0.161   3.576 -1.2126  0.8490  1.4559
 9488SOL    HW229364   1.236   0.025   3.658  0.6422 -0.0971  0.8988
 9489SOL     OW29365   1.432   6.518   5.402 -0.1294 -0.4178  0.4267
 9489SOL    HW129366   1.500   6.566   5.347  0.9579 -1.5229  0.7679
 9489SOL    HW229367   1.477   6.466   5.475 -1.2046 -2.2461 -0.1360
 9490SOL     OW29368   4.877   2.527   2.288 -0.3217  0.3031  0.4758
 9490SOL    HW129369   4.867   2.550   2.385  5.2708  2.6186  0.8680
 9490SOL    HW229370   4.854   2.607   2.232  1.0742  0.6424  0.3494
 9491SOL     OW29371   4.758   0.210   0.363  0.6087 -0.2721  0.1836
 9491SOL    HW129372   4.782   0.304   0.336  1.6839 -0.8993 -1.2378
 9491SOL    HW229373   4.666   0.188   0.330  1.2064 -0.4125 -1.5256
 9492SOL     OW29374   2.580   6.205   6.992  0.1456 -0.4663 -0.4928
 9492SOL    HW129375   2.675   6.177   6.985  0.5569  0.1367  1.7744
 9492SOL    HW229376   2.526   6.129   7.029  0.6710  0.4944  2.5708
 9493SOL     OW29377   4.865   3.528   1.794 -0.2743  0.2778 -0.2359
 9493SOL    HW129378   4.864   3.551   1.891  1.7275  0.0537 -0.1219
 9493SOL    HW229379   4.818   3.441   1.780  0.0781 -0.0624  0.6332
 9494SOL     OW29380   3.029   4.363   5.968 -0.6304  0.2899 -0.1796
 9494SOL    HW129381   2.961   4.301   6.009  1.1947 -2.0208 -0.4167
 9494SOL    HW229382   3.117   4.316   5.964  0.7531  2.8148 -0.8465
 9495SOL     OW29383   5.825   2.153   5.291  0.2499 -0.0714  0.3851
 9495SOL    HW129384   5.857   2.225   5.230 -0.9177 -0.2391 -0.4758
 9495SOL    HW229385   5.819   2.067   5.241  0.5055 -0.5055  1.0881
 9496SOL     OW29386   6.685   5.989   0.311 -0.5318 -0.1713  0.0303
 9496SOL    HW129387   6.655   5.955   0.222 -1.1190  1.3062 -0.3631
 9496SOL    HW229388   6.637   6.074   0.332  0.8433  0.4063  0.9931
 9497SOL     OW29389   0.636   6.366   4.866 -0.5307  0.1210  0.1264
 9497SOL    HW129390   0.732   6.376   4.841 -1.3558  3.3492 -2.3684
 9497SOL    HW229391   0.602   6.278   4.832  1.2544 -0.6129  0.1321
 9498SOL     OW29392   3.545   0.691   5.600  0.2641  0.4268 -0.2207
 9498SOL    HW129393   3.530   0.695   5.501 -1.7027 -0.8101 -0.0358
 9498SOL    HW229394   3.483   0.755   5.646  0.5543  0.3723  0.2605
 9499SOL     OW29395   5.282   5.461   4.860 -0.2773 -1.0118  0.1323
 9499SOL    HW129396   5.195   5.500   4.829 -0.8012 -1.6519  0.7833
 9499SOL    HW229397   5.357   5.506   4.811 -0.9511 -0.2767 -0.2590
 9500SOL     OW29398   3.907   0.538   0.428  0.2677  0.3896  0.5567
 9500SOL    HW129399   3.923   0.487   0.343  1.6338 -0.1639  1.1280
 9500SOL    HW229400   3.862   0.625   0.406 -1.3020 -0.6377 -0.5171
 9501SOL     OW29401   3.071   1.426   4.451 -0.0092  0.4875  0.5147
 9501SOL    HW129402   3.115   1.494   4.510  1.4085 -0.2495  0.3557
 9501SOL    HW229403   2.978   1.455   4.430  0.9190  2.9944 -0.5269
 9502SOL     OW29404   5.680   3.381   5.274 -0.0720 -0.2626 -0.1773
 9502SOL    HW129405   5.666   3.286   5.302  0.3863 -0.3127 -0.1047
 9502SOL    HW229406   5.660   3.442   5.351  1.8105 -0.4361  0.5112
 9503SOL     OW29407   1.908   1.847   0.778 -0.2440  0.2432  0.7493
 9503SOL    HW129408   1.907   1.930   0.834 -0.6911  1.7401 -1.3543
 9503SOL    HW229409   1.912   1.872   0.681  2.3918 -2.2271  0.0719
 9504SOL     OW29410   6.908   3.323   0.705  0.1952  0.0207 -0.0369
 9504SOL    HW129411   6.920   3.344   0.608  1.6651 -0.4372  0.0218
 9504SOL    HW229412   6.882   3.406   0.755 -3.2435 -0.2031 -1.1528
 9505SOL     OW29413   5.759   1.889   2.711  0.2262  0.3088 -0.2764
 9505SOL    HW129414   5.702   1.934   2.642  2.5061  1.8504 -1.2710
 9505SOL    HW229415   5.753   1.790   2.699 -1.3429  0.4554 -1.0524
 9506SOL     OW29416   6.724   2.329   0.446  0.3067  0.1857 -0.1467
 9506SOL    HW129417   6.775   2.267   0.506  1.0511  0.1821 -0.7769
 9506SOL    HW229418   6.648   2.370   0.498  0.4018 -0.4874  0.5483
 9507SOL     OW29419   1.412   4.017   5.514  0.1578 -0.0025  0.1477
 9507SOL    HW129420   1.427   4.049   5.421 -0.4265 -1.2833 -0.4129
 9507SOL    HW229421   1.420   4.094   5.578  2.2251  0.6091 -0.7585
 9508SOL     OW29422   4.684   2.343   4.913  0.1129 -0.5115  0.0850
 9508SOL    HW129423   4.643   2.304   4.995  1.6676 -0.4291  0.9511
 9508SOL    HW229424   4.706   2.270   4.849 -1.5619 -0.5324 -0.5113
 9509SOL     OW29425   3.369   6.746   5.473 -0.1389 -0.2619 -0.2238
 9509SOL    HW129426   3.444   6.811   5.486 -1.0217  0.6970  0.2742
 9509SOL    HW229427   3.334   6.718   5.563  2.1500 -3.8270 -0.2422
 9510SOL     OW29428   0.505   3.891   3.000 -0.6390  0.1111 -0.0771
 9510SOL    HW129429   0.519   3.799   2.964 -0.4366 -0.6198  1.7495
 9510SOL    HW229430   0.586   3.946   2.983 -0.8390  0.0294 -1.3616
 9511SOL     OW29431   3.239   0.851   1.394  0.2462  0.1993  1.2171
 9511SOL    HW129432   3.144   0.820   1.383  0.3597 -1.2665  3.6667
 9511SOL    HW229433   3.299   0.795   1.337 -0.3011  1.2370 -0.4705
 9512SOL     OW29434   1.785   3.401   3.900  0.2259  0.2899  0.1098
 9512SOL    HW129435   1.736   3.394   3.987  1.5514  0.8833  0.9283
 9512SOL    HW229436   1.860   3.466   3.909 -0.5189  1.5044 -1.9320
 9513SOL     OW29437   3.021   5.619   4.674 -0.4842  0.7540  0.1894
 9513SOL    HW129438   3.061   5.583   4.758  0.2018  1.4019  0.1446
 9513SOL    HW229439   3.043   5.557   4.598 -3.9345 -1.7004  0.9623
 9514SOL     OW29440   3.176   2.481   6.203 -0.4044 -0.1110  0.3767
 9514SOL    HW129441   3.087   2.473   6.158 -0.2042  1.4614 -0.3519
 9514SOL    HW229442   3.174   2.431   6.290 -1.4034 -1.6101 -0.4532
 9515SOL     OW29443   1.916   4.020   4.946 -0.1200  0.0029 -0.4120
 9515SOL    HW129444   1.864   4.100   4.978  0.2661 -0.1056  0.5328
 9515SOL    HW229445   1.975   3.988   5.020  0.7109 -0.3504 -1.2190
 9516SOL     OW29446   5.412   4.126   2.870 -0.0967 -0.0540 -0.5201
 9516SOL    HW129447   5.323   4.162   2.841  0.5073  1.1196 -0.9690
 9516SOL    HW229448   5.472   4.201   2.896  0.9420 -0.7924 -0.7153
 9517SOL     OW29449   6.317   6.367   1.913 -0.2390  0.3809 -0.2744
 9517SOL    HW129450   6.322   6.420   1.828  0.2099  0.3250 -0.2847
 9517SOL    HW229451   6.365   6.280   1.901 -1.1419 -0.1200 -0.3212
 9518SOL     OW29452   2.322   2.778   6.126 -0.0547  0.4998  0.3022
 9518SOL    HW129453   2.364   2.861   6.162  0.2956  0.5192 -0.1346
 9518SOL    HW229454   2.228   2.797   6.098 -0.1011  0.6527  0.5579
 9519SOL     OW29455   3.344   3.152   3.533  0.2312 -0.1610 -0.5606
 9519SOL    HW129456   3.254   3.150   3.576  0.4561  1.3274  0.0578
 9519SOL    HW229457   3.370   3.059   3.505 -0.4833 -1.0123  1.3774
 9520SOL     OW29458   2.813   1.396   5.198 -0.0017  0.2473 -0.0287
 9520SOL    HW129459   2.743   1.468   5.202 -0.6431 -0.3145 -0.9441
 9520SOL    HW229460   2.903   1.438   5.209 -0.4960  0.8720  2.1527
 9521SOL     OW29461   4.199   1.258   1.542  0.7099  0.0567  0.4824
 9521SOL    HW129462   4.155   1.252   1.632 -0.1148 -1.1596  0.0309
 9521SOL    HW229463   4.133   1.292   1.476  1.5987  1.8768  0.4962
 9522SOL     OW29464   2.716   5.658   0.144  0.0990 -0.8124 -0.2355
 9522SOL    HW129465   2.771   5.595   0.090  0.1284  0.1445 -1.3885
 9522SOL    HW229466   2.773   5.702   0.213  0.9282  0.3697 -1.5908
 9523SOL     OW29467   2.104   3.723   4.284  0.4923 -0.4790  0.5703
 9523SOL    HW129468   2.028   3.757   4.228  0.7027 -1.4697 -0.3419
 9523SOL    HW229469   2.189   3.730   4.231  0.9596  0.0856  1.3757
 9524SOL     OW29470   3.280   3.209   6.710 -0.1673 -0.1823  0.1069
 9524SOL    HW129471   3.313   3.119   6.682 -0.3903 -0.2701  0.1235
 9524SOL    HW229472   3.182   3.217   6.689 -0.0782  0.1714 -0.1823
 9525SOL     OW29473   2.467   2.255   4.094  0.1020  0.1227 -0.1166
 9525SOL    HW129474   2.423   2.330   4.045 -0.1291 -0.2554 -0.5041
 9525SOL    HW229475   2.439   2.257   4.190 -1.9477 -0.9400 -0.6311
 9526SOL     OW29476   6.296   2.082   0.089  0.4662 -0.5501  0.3770
 9526SOL    HW129477   6.252   2.006   0.137 -0.6448  0.4126  0.9371
 9526SOL    HW229478   6.378   2.109   0.140  0.9664 -1.4768  0.0770
 9527SOL     OW29479   4.385   5.629   5.134  0.6870  0.4679  0.3524
 9527SOL    HW129480   4.444   5.709   5.120 -0.6007  1.0601 -2.2263
 9527SOL    HW229481   4.439   5.546   5.125  1.5459  1.0201  0.2851
 9528SOL     OW29482   4.451   3.960   1.461  0.2091 -0.1262 -0.5985
 9528SOL    HW129483   4.432   4.054   1.486 -2.4339 -0.0316 -2.5045
 9528SOL    HW229484   4.410   3.898   1.528  0.5978  0.0662 -0.1783
 9529SOL     OW29485   5.763   0.791   1.930  0.2771 -0.6472 -0.2571
 9529SOL    HW129486   5.680   0.770   1.878 -0.1460 -0.9028  0.5081
 9529SOL    HW229487   5.738   0.833   2.017  0.9779 -0.2344 -0.2486
 9530SOL     OW29488   6.420   6.201   3.589 -1.1811 -0.4425  0.1547
 9530SOL    HW129489   6.510   6.237   3.564 -1.9408  1.4561  0.0093
 9530SOL    HW229490   6.363   6.195   3.507 -2.2258  1.5409  0.6750
 9531SOL     OW29491   2.678   0.031   2.088 -0.2616  0.1728 -0.5670
 9531SOL    HW129492   2.649   0.096   2.018 -1.0099  0.3323 -0.1169
 9531SOL    HW229493   2.693   0.079   2.174  0.3841 -0.0680 -0.5362
 9532SOL     OW29494   6.796   2.683   4.619  0.1621 -0.0850 -0.3427
 9532SOL    HW129495   6.891   2.713   4.630  0.2547 -0.1227 -1.0103
 9532SOL    HW229496   6.777   2.666   4.522 -0.7714  0.7598 -0.3307
 9533SOL     OW29497   0.387   4.144   2.467 -0.1535 -0.1046  0.1854
 9533SOL    HW129498   0.474   4.188   2.445 -0.7676  0.6047 -0.9342
 9533SOL    HW229499   0.358   4.088   2.390 -1.1514  0.4361  0.1519
 9534SOL     OW29500   4.256   5.354   4.671 -0.2312 -0.3595 -0.4172
 9534SOL    HW129501   4.310   5.426   4.715 -1.1522  0.6310 -0.8523
 9534SOL    HW229502   4.218   5.388   4.585 -0.7098 -1.3587 -0.6193
 9535SOL     OW29503   5.495   1.707   5.444  0.3318  0.0175 -0.0328
 9535SOL    HW129504   5.445   1.744   5.522  1.3809  3.9130 -0.9558
 9535SOL    HW229505   5.517   1.782   5.381 -0.1953 -2.8459 -3.9837
 9536SOL     OW29506   3.742   3.331   5.404 -0.4876 -0.0700  0.1080
 9536SOL    HW129507   3.768   3.413   5.352 -1.9720  1.3040  1.4208
 9536SOL    HW229508   3.794   3.253   5.371  0.9480  1.3817 -1.2396
 9537SOL     OW29509   6.777   6.526   3.291  0.4221  0.0003  0.0896
 9537SOL    HW129510   6.746   6.559   3.380 -0.4991  0.8499 -0.5344
 9537SOL    HW229511   6.831   6.597   3.246  1.1719 -0.5487  0.0881
 9538SOL     OW29512   6.979   0.632   6.072 -0.1925 -0.1843  0.5366
 9538SOL    HW129513   6.955   0.670   6.161 -0.2813 -2.9242  1.7920
 9538SOL    HW229514   7.078   0.639   6.057 -0.2165  0.5463  0.6897
 9539SOL     OW29515   3.850   3.337   1.401  0.0464 -0.2445 -0.1796
 9539SOL    HW129516   3.865   3.435   1.411 -1.2855 -0.0271 -0.2452
 9539SOL    HW229517   3.830   3.297   1.490  0.5394 -0.4678 -0.1603
 9540SOL     OW29518   6.870   4.966   3.087  0.7277 -0.0061  0.3128
 9540SOL    HW129519   6.850   4.872   3.116 -0.1920 -0.3996 -1.4634
 9540SOL    HW229520   6.788   5.006   3.046  1.9906  0.3626 -2.0373
 9541SOL     OW29521   2.563   4.083   5.674  0.5742 -0.0883 -0.5927
 9541SOL    HW129522   2.467   4.110   5.676  0.7006  0.3371 -0.2272
 9541SOL    HW229523   2.621   4.164   5.676  0.9494 -0.3586 -0.3765
 9542SOL     OW29524   5.503   3.290   3.957  0.3707 -0.0092 -0.4159
 9542SOL    HW129525   5.538   3.205   3.915  1.4330 -0.3423  1.0573
 9542SOL    HW229526   5.403   3.288   3.957  0.3013  0.1186 -3.0955
 9543SOL     OW29527   0.892   1.122   0.096  0.0255  0.1632  0.0088
 9543SOL    HW129528   0.889   1.221   0.111  1.4155  0.0368  1.3714
 9543SOL    HW229529   0.984   1.088   0.114 -0.9620 -1.7181  2.1094
 9544SOL     OW29530   0.232   3.698   4.325  0.0352 -0.4211 -0.6769
 9544SOL    HW129531   0.154   3.741   4.370 -0.5737 -0.2942 -1.8143
 9544SOL    HW229532   0.216   3.600   4.316  0.8581 -0.7109  0.7695
 9545SOL     OW29533   1.288   3.719   2.101  0.2082  0.1060 -0.0763
 9545SOL    HW129534   1.281   3.808   2.145 -0.2407  0.5369 -1.0057
 9545SOL    HW229535   1.320   3.730   2.007  0.3608 -0.7304 -0.1312
 9546SOL     OW29536   4.531   3.298   0.592  0.4046  0.3835 -0.3665
 9546SOL    HW129537   4.490   3.255   0.672 -0.2571  0.8350 -0.4538
 9546SOL    HW229538   4.520   3.238   0.513  1.0850 -0.0754 -0.1208
 9547SOL     OW29539   5.385   5.964   4.681  0.6323  0.4997  0.1542
 9547SOL    HW129540   5.330   5.928   4.606  0.2641  0.7484  0.2993
 9547SOL    HW229541   5.382   6.064   4.679  1.6987  0.5295 -0.2879
 9548SOL     OW29542   1.793   4.125   6.247  0.5882  0.1797  0.2122
 9548SOL    HW129543   1.842   4.210   6.266 -0.9608  0.8041  1.7393
 9548SOL    HW229544   1.708   4.145   6.198  1.1311 -0.7161 -1.1235
 9549SOL     OW29545   3.866   5.699   1.514 -0.3056 -0.0528  0.4926
 9549SOL    HW129546   3.800   5.764   1.478 -0.3729 -1.0608 -1.3377
 9549SOL    HW229547   3.824   5.608   1.521  0.7784 -0.6707 -0.5274
 9550SOL     OW29548   0.809   1.141   2.410  0.0903  0.0088 -0.1815
 9550SOL    HW129549   0.756   1.071   2.361  0.3325 -0.8303  0.7290
 9550SOL    HW229550   0.746   1.207   2.452 -0.3042 -1.3686  1.4796
 9551SOL     OW29551   6.546   3.351   6.229  0.0704 -0.2358  0.0388
 9551SOL    HW129552   6.564   3.446   6.255 -2.7986 -0.2280  2.4879
 9551SOL    HW229553   6.624   3.294   6.255  0.5936  1.0409  1.4203
 9552SOL     OW29554   3.573   6.164   0.669 -0.3028 -0.1640  0.0107
 9552SOL    HW129555   3.671   6.164   0.690 -0.1031  1.9239 -0.7400
 9552SOL    HW229556   3.521   6.189   0.750 -0.0146  1.0876 -0.1683
 9553SOL     OW29557   4.073   0.693   1.779  0.2622 -0.4125  0.1935
 9553SOL    HW129558   4.028   0.697   1.868 -0.1144 -1.1588  0.0464
 9553SOL    HW229559   4.012   0.651   1.712  0.4849  0.2769 -0.4626
 9554SOL     OW29560   3.609   0.313   3.801 -0.3136  0.0724 -0.3481
 9554SOL    HW129561   3.671   0.264   3.741 -2.8224 -3.0300 -0.7043
 9554SOL    HW229562   3.530   0.345   3.749 -1.5743 -0.9085  0.8678
 9555SOL     OW29563   1.230   6.106   0.605  0.1058 -0.4098 -0.0473
 9555SOL    HW129564   1.268   6.194   0.576 -1.1925 -0.0479 -0.7768
 9555SOL    HW229565   1.303   6.039   0.613  1.0604  0.6015  0.0220
 9556SOL     OW29566   3.031   2.028   6.445  0.2660  0.1917  0.2424
 9556SOL    HW129567   3.019   1.930   6.427 -0.7327  0.3171  0.2214
 9556SOL    HW229568   3.129   2.049   6.446  0.6218 -1.2429  2.5745
 9557SOL     OW29569   4.010   0.806   0.498 -0.5720 -0.5614 -0.2189
 9557SOL    HW129570   3.989   0.776   0.405  0.0536  1.2930 -1.0042
 9557SOL    HW229571   3.931   0.789   0.557 -0.6729 -2.5468 -0.8585
 9558SOL     OW29572   4.711   6.172   6.523  0.1488  0.1652 -0.2672
 9558SOL    HW129573   4.666   6.111   6.458  3.4463 -1.2790 -1.3882
 9558SOL    HW229574   4.727   6.124   6.609 -1.6551  1.1836  0.7215
 9559SOL     OW29575   3.787   4.876   1.435  0.1919  0.2465  0.4434
 9559SOL    HW129576   3.800   4.797   1.375 -1.6181  0.6752 -0.5846
 9559SOL    HW229577   3.713   4.858   1.500  0.7489  0.5735  1.1932
 9560SOL     OW29578   1.382   6.688   2.969  0.4185  0.0078 -0.1289
 9560SOL    HW129579   1.328   6.612   3.004  1.4424 -0.2458  0.9899
 9560SOL    HW229580   1.325   6.770   2.963 -0.2048 -0.3667  0.5564
 9561SOL     OW29581   6.482   1.558   5.911  0.0059  0.3662 -0.0294
 9561SOL    HW129582   6.425   1.641   5.911 -2.7461 -1.3945 -1.4226
 9561SOL    HW229583   6.486   1.522   6.004 -1.4494  0.3935  0.0756
 9562SOL     OW29584   0.716   4.833   2.594  0.1416  0.7842 -0.1314
 9562SOL    HW129585   0.772   4.887   2.531  0.6616  1.3683  0.8038
 9562SOL    HW229586   0.678   4.892   2.665  1.3917 -0.1407  1.4021
 9563SOL     OW29587   0.520   3.834   6.550  0.2372 -0.0397 -0.0222
 9563SOL    HW129588   0.481   3.765   6.490  0.6110 -0.3347  0.0689
 9563SOL    HW229589   0.447   3.884   6.596 -0.0317 -0.5039  0.0545
 9564SOL     OW29590   0.400   0.948   0.268 -0.4886  0.2788  0.4191
 9564SOL    HW129591   0.353   0.883   0.208 -1.1616  1.2613 -0.1452
 9564SOL    HW229592   0.489   0.972   0.228 -0.1821 -0.3830  0.6950
 9565SOL     OW29593   2.309   2.212   4.766 -0.5850 -0.0013 -0.3374
 9565SOL    HW129594   2.328   2.137   4.829  0.4559  0.4635 -0.0736
 9565SOL    HW229595   2.232   2.266   4.801  0.2204  0.4779  0.7452
 9566SOL     OW29596   3.338   6.533   1.212 -0.7374 -0.0825  0.0550
 9566SOL    HW129597   3.317   6.520   1.309 -1.3015 -0.9204 -0.1737
 9566SOL    HW229598   3.263   6.584   1.169 -0.3042  0.6361  0.1329
 9567SOL     OW29599   1.723   4.701   0.081 -0.0533 -0.0448  1.0615
 9567SOL    HW129600   1.638   4.750   0.101 -1.0719 -1.2103 -0.2014
 9567SOL    HW229601   1.768   4.743   0.002  0.7485  0.7856  1.9435
 9568SOL     OW29602   4.014   1.374   0.792 -0.3444  0.0012  0.0458
 9568SOL    HW129603   3.946   1.313   0.834  0.9057 -0.2538  1.8040
 9568SOL    HW229604   3.974   1.417   0.711 -1.8304 -1.8647 -0.3007
 9569SOL     OW29605   5.152   0.477   1.521 -0.0951  0.8305  0.7097
 9569SOL    HW129606   5.114   0.567   1.501 -0.6302  0.0865 -2.0375
 9569SOL    HW229607   5.093   0.429   1.586 -0.2178  2.1330  1.5949
 9570SOL     OW29608   2.842   5.123   6.930 -0.0353  0.6994 -0.7616
 9570SOL    HW129609   2.849   5.186   7.007  0.6592  0.1085 -0.3222
 9570SOL    HW229610   2.932   5.113   6.887 -0.2485  0.4127 -1.1463
 9571SOL     OW29611   3.244   6.449   0.530  0.5922  0.0603  0.1282
 9571SOL    HW129612   3.322   6.454   0.593  1.0378 -1.6283 -0.2289
 9571SOL    HW229613   3.275   6.468   0.437  0.4644 -0.0219  0.0686
 9572SOL     OW29614   2.193   5.417   5.042 -0.8208  0.1056  0.7950
 9572SOL    HW129615   2.238   5.502   5.017 -0.6802  0.0541  0.8745
 9572SOL    HW229616   2.261   5.345   5.054 -0.8017  0.3197  2.1099
 9573SOL     OW29617   6.182   6.401   3.354 -0.3530  0.5168 -0.7116
 9573SOL    HW129618   6.259   6.464   3.345  1.0674 -0.9473  0.6407
 9573SOL    HW229619   6.146   6.380   3.264 -0.1214  2.3153 -1.2769
 9574SOL     OW29620   3.347   2.531   0.718 -0.8591  0.2090 -0.2525
 9574SOL    HW129621   3.401   2.599   0.768 -1.9147  0.4013  0.6646
 9574SOL    HW229622   3.393   2.443   0.722 -0.2458  0.5261 -0.1196
 9575SOL     OW29623   4.071   0.466   2.471  0.5820  0.1589 -0.2243
 9575SOL    HW129624   4.044   0.388   2.528  0.7708 -0.5721 -1.1075
 9575SOL    HW229625   4.019   0.547   2.498 -1.6596 -0.9206 -1.0762
 9576SOL     OW29626   1.046   0.399   4.665  0.1154  0.5669  0.3777
 9576SOL    HW129627   1.122   0.374   4.725  0.2163  1.8938  0.8529
 9576SOL    HW229628   1.075   0.473   4.604 -0.0468 -0.6365 -1.2032
 9577SOL     OW29629   0.471   4.993   1.617 -0.1365  0.6549  0.4132
 9577SOL    HW129630   0.389   5.033   1.576  0.1178  0.6339 -0.1301
 9577SOL    HW229631   0.543   4.987   1.547 -0.1486 -0.6961  0.4953
 9578SOL     OW29632   1.501   4.254   2.927  0.3760  0.3149 -0.0481
 9578SOL    HW129633   1.571   4.231   2.860  1.5466  1.1204  0.8678
 9578SOL    HW229634   1.533   4.231   3.019 -0.6778  0.4280  0.3686
 9579SOL     OW29635   6.168   4.502   2.132  0.2812  0.7009  0.2591
 9579SOL    HW129636   6.119   4.529   2.214  0.9961 -0.2106  1.0107
 9579SOL    HW229637   6.103   4.481   2.059 -0.4554 -0.6135  1.2690
 9580SOL     OW29638   4.882   4.718   4.024  0.2584  0.2055  0.3158
 9580SOL    HW129639   4.936   4.797   4.051  2.1823 -0.5238 -1.1875
 9580SOL    HW229640   4.796   4.716   4.076  0.6605  2.6343  1.1534
 9581SOL     OW29641   5.280   3.299   6.161 -0.1002  0.3021 -0.5708
 9581SOL    HW129642   5.268   3.219   6.220 -2.5982  0.2703 -0.9863
 9581SOL    HW229643   5.240   3.379   6.205  2.5472  1.4659 -0.0737
 9582SOL     OW29644   5.633   4.084   3.819  0.3551 -0.6273  0.0699
 9582SOL    HW129645   5.569   4.026   3.870 -1.2619 -1.3257 -2.5731
 9582SOL    HW229646   5.697   4.027   3.768  1.2040  0.0395  0.3550
 9583SOL     OW29647   2.736   5.293   0.375  0.4762 -0.5245  0.7804
 9583SOL    HW129648   2.712   5.198   0.396 -1.2243 -0.5351 -0.9372
 9583SOL    HW229649   2.653   5.347   0.363  1.3708  0.6547 -0.5229
 9584SOL     OW29650   2.547   4.480   3.784  0.1985  0.2468 -0.6703
 9584SOL    HW129651   2.540   4.489   3.884  1.4727 -1.6775 -0.3645
 9584SOL    HW229652   2.489   4.404   3.754  1.0114 -0.1719 -1.1879
 9585SOL     OW29653   5.485   5.185   2.312 -0.3884 -0.0337  0.2431
 9585SOL    HW129654   5.517   5.093   2.337 -0.0041  0.1604  0.4653
 9585SOL    HW229655   5.390   5.197   2.342 -0.3319 -0.2413  0.5040
 9586SOL     OW29656   2.379   5.602   1.146 -0.9390  0.2939 -0.0623
 9586SOL    HW129657   2.425   5.612   1.235  1.0191 -1.7140 -0.7440
 9586SOL    HW229658   2.398   5.682   1.090 -0.3334  0.6069  0.5758
 9587SOL     OW29659   5.442   0.232   4.938  0.0423  0.2552  0.1034
 9587SOL    HW129660   5.399   0.267   4.855  0.4146  1.3604  0.3601
 9587SOL    HW229661   5.540   0.255   4.937  0.3602 -0.9722  0.1986
 9588SOL     OW29662   6.648   6.229   0.651 -0.6469  0.2900 -0.2349
 9588SOL    HW129663   6.585   6.242   0.575 -1.1872 -0.0682  0.1394
 9588SOL    HW229664   6.629   6.140   0.695  0.2538  0.0836 -0.2471
 9589SOL     OW29665   1.459   6.833   0.167  0.3997  0.4881  0.2868
 9589SOL    HW129666   1.477   6.753   0.223 -1.2302  0.6351  1.0756
 9589SOL    HW229667   1.408   6.806   0.085 -0.8860  0.7961  0.9633
 9590SOL     OW29668   5.559   0.134   6.690  0.1675  0.0028  0.1406
 9590SOL    HW129669   5.646   0.086   6.698 -0.6555 -1.6335 -0.2835
 9590SOL    HW229670   5.566   0.204   6.619  0.6331 -1.3522 -1.1928
 9591SOL     OW29671   4.124   2.379   0.760 -0.0004 -0.1786  0.1691
 9591SOL    HW129672   4.066   2.394   0.841 -0.1613 -0.7495  0.1617
 9591SOL    HW229673   4.099   2.446   0.689 -0.5409 -0.3154  0.2267
 9592SOL     OW29674   1.260   6.171   6.344  0.1977  0.3522  0.8037
 9592SOL    HW129675   1.314   6.235   6.290  0.6330  1.1507  2.1257
 9592SOL    HW229676   1.304   6.081   6.343  0.5002  0.5019  0.2997
 9593SOL     OW29677   4.735   2.767   2.259  0.4380 -0.5100  0.0035
 9593SOL    HW129678   4.748   2.827   2.338 -2.3505  0.5095 -0.2113
 9593SOL    HW229679   4.697   2.820   2.183 -1.0877 -2.3123 -0.5488
 9594SOL     OW29680   0.031   6.111   3.521  0.3590  0.7879  0.3421
 9594SOL    HW129681   0.123   6.149   3.531  0.1640  0.9800  1.5678
 9594SOL    HW229682  -0.027   6.176   3.474  0.7026  0.9040  0.0728
 9595SOL     OW29683   1.522   4.683   3.352  0.3567 -0.4110 -0.0365
 9595SOL    HW129684   1.466   4.691   3.434 -0.2072 -0.1401 -0.4439
 9595SOL    HW229685   1.608   4.636   3.375  0.7122  0.6754  0.9422
 9596SOL     OW29686   0.229   6.519   1.671 -0.1239  0.9199  0.1561
 9596SOL    HW129687   0.227   6.615   1.644 -1.9804  1.2832  1.3918
 9596SOL    HW229688   0.159   6.468   1.620 -0.7414  0.7281  1.1792
 9597SOL     OW29689   0.935   4.642   1.366 -0.7416 -0.3105 -0.2840
 9597SOL    HW129690   0.990   4.651   1.283 -1.9688 -1.6805 -1.2974
 9597SOL    HW229691   0.851   4.696   1.357 -0.5262  0.1569  0.4081
 9598SOL     OW29692   3.165   4.898   4.030  0.0421 -0.0673 -0.0749
 9598SOL    HW129693   3.252   4.941   4.054  0.1281 -0.5224  0.4510
 9598SOL    HW229694   3.136   4.837   4.105 -0.0826 -0.9036 -0.7907
 9599SOL     OW29695   6.418   0.073   6.386  0.4379 -0.5996 -0.5039
 9599SOL    HW129696   6.469   0.033   6.310  1.8385 -0.5785  0.4000
 9599SOL    HW229697   6.436   0.171   6.391  0.2739 -0.5818 -0.2192
 9600SOL     OW29698   4.495   1.166   6.837  0.4089 -0.2369 -0.1067
 9600SOL    HW129699   4.423   1.134   6.899  0.9788 -0.6897  0.3280
 9600SOL    HW229700   4.462   1.162   6.743  0.6910 -2.8327 -0.1678
 9601SOL     OW29701   0.596   1.728   6.881  0.2279 -0.4133  0.2566
 9601SOL    HW129702   0.663   1.714   6.808 -0.4444  0.9953 -0.6640
 9601SOL    HW229703   0.643   1.737   6.969  1.0826 -1.5969 -0.0576
 9602SOL     OW29704   4.960   4.864   5.806  0.3597  0.1312  0.3914
 9602SOL    HW129705   4.872   4.825   5.779  0.4007  0.2133  0.1350
 9602SOL    HW229706   4.973   4.853   5.904  0.1738 -0.1038  0.3901
 9603SOL     OW29707   4.887   5.198   4.534  0.1704  0.5196  0.1734
 9603SOL    HW129708   4.959   5.201   4.603  0.3426 -1.3709  0.1324
 9603SOL    HW229709   4.907   5.124   4.470 -0.3968  1.7201 -1.4642
 9604SOL     OW29710   4.686   1.432   1.870  0.2636 -0.3199 -0.5662
 9604SOL    HW129711   4.673   1.425   1.771 -1.2319 -0.5505 -0.3830
 9604SOL    HW229712   4.756   1.500   1.890  2.0021 -1.6628 -1.8247
 9605SOL     OW29713   6.895   5.398   2.933  0.2305  0.0721 -0.6623
 9605SOL    HW129714   6.833   5.380   2.857  0.3136 -0.3603 -0.6339
 9605SOL    HW229715   6.911   5.313   2.983 -1.5427  0.7340  1.1690
 9606SOL     OW29716   1.894   0.023   1.711 -0.1744 -0.6478 -0.3450
 9606SOL    HW129717   1.814   0.071   1.746 -0.3047 -1.2949  0.2750
 9606SOL    HW229718   1.873  -0.017   1.621  0.5136  1.9648 -1.7627
 9607SOL     OW29719   1.680   3.327   5.425  0.3466 -0.4819 -0.1267
 9607SOL    HW129720   1.692   3.374   5.337  0.5723 -0.9312 -0.3392
 9607SOL    HW229721   1.595   3.356   5.467 -0.1875 -0.9081 -0.8977
 9608SOL     OW29722   0.873   2.639   3.743 -0.4191 -0.0291  0.0517
 9608SOL    HW129723   0.967   2.623   3.773 -0.1558 -0.2949 -0.8823
 9608SOL    HW229724   0.832   2.553   3.714  0.1259  0.4935 -2.5180
 9609SOL     OW29725   5.001   2.719   1.218 -0.6688  0.3399 -0.5622
 9609SOL    HW129726   5.003   2.790   1.289 -1.1107 -1.5498  1.4473
 9609SOL    HW229727   4.908   2.684   1.209 -0.3753 -0.2945 -1.2103
 9610SOL     OW29728   0.933   6.711   3.602  0.0341  0.2973 -0.6258
 9610SOL    HW129729   0.860   6.778   3.617  0.9204  1.2504 -0.4260
 9610SOL    HW229730   0.968   6.680   3.690  0.1214  0.1338 -0.7191
 9611SOL     OW29731   2.661   0.148   0.383 -0.3058  0.7286  0.1217
 9611SOL    HW129732   2.621   0.235   0.412  0.6690  1.4279 -0.5750
 9611SOL    HW229733   2.659   0.083   0.460 -0.3266  1.6182  0.8900
 9612SOL     OW29734   5.764   0.132   1.910  0.4796 -0.5206 -0.4712
 9612SOL    HW129735   5.685   0.096   1.859  0.5803 -1.0305 -0.2757
 9612SOL    HW229736   5.848   0.111   1.860  0.3915  2.0532 -1.8904
 9613SOL     OW29737   5.999   4.933   4.395 -0.2095  0.7224 -0.1737
 9613SOL    HW129738   5.950   4.867   4.452 -2.6079  2.2014 -0.3523
 9613SOL    HW229739   5.989   4.907   4.299  0.1941  0.4992 -0.1548
 9614SOL     OW29740   3.173   1.246   3.916  0.2498  0.0930 -0.0414
 9614SOL    HW129741   3.099   1.187   3.949  0.5459 -0.0761  0.3226
 9614SOL    HW229742   3.162   1.338   3.954  0.8682 -0.2265  0.9477
 9615SOL     OW29743   1.725   2.681   1.676  0.1257 -0.4697 -0.2689
 9615SOL    HW129744   1.630   2.655   1.662 -0.6805  2.4758 -0.9309
 9615SOL    HW229745   1.730   2.778   1.702  2.9037 -0.7593  0.5961
 9616SOL     OW29746   4.134   4.426   6.995 -0.1160  0.4560 -0.9567
 9616SOL    HW129747   4.068   4.351   6.987  0.0106  0.1385  0.5284
 9616SOL    HW229748   4.086   4.513   7.004 -0.2942  0.4051 -1.4035
 9617SOL     OW29749   2.084   3.601   1.468 -0.3095  0.3534 -0.0131
 9617SOL    HW129750   2.167   3.624   1.417  0.7729 -0.6896  1.1971
 9617SOL    HW229751   2.098   3.620   1.565 -1.0112 -0.9866  0.3855
 9618SOL     OW29752   3.426   1.979   0.908 -0.1974 -0.0598  0.3584
 9618SOL    HW129753   3.514   2.017   0.879 -0.8962 -0.3120 -2.2769
 9618SOL    HW229754   3.409   1.894   0.859 -3.0555  1.3066 -1.2564
 9619SOL     OW29755   4.484   1.020   1.909  0.1525 -0.2975  0.0951
 9619SOL    HW129756   4.483   0.974   1.998 -1.1701 -0.3213  0.0813
 9619SOL    HW229757   4.442   0.961   1.840  0.8480 -0.1311 -0.4903
 9620SOL     OW29758   5.420   6.646   5.146  0.4028  0.6862 -0.3965
 9620SOL    HW129759   5.354   6.583   5.186 -0.0035  0.5434 -1.2551
 9620SOL    HW229760   5.373   6.727   5.112  0.9510  1.5811  0.8945
 9621SOL     OW29761   1.051   4.832   3.978  0.3855 -0.0656  0.5639
 9621SOL    HW129762   1.026   4.927   3.996 -1.6983 -0.6950  1.3704
 9621SOL    HW229763   1.142   4.813   4.015  1.7890  2.1074 -1.4786
 9622SOL     OW29764   4.903   1.209   0.360  0.1899  0.4019 -0.5485
 9622SOL    HW129765   4.945   1.300   0.361  2.3317 -0.5084  0.6474
 9622SOL    HW229766   4.952   1.151   0.295  1.8366 -1.0534  1.7903
 9623SOL     OW29767   0.391   2.408   5.289  0.6657 -0.3501  0.3312
 9623SOL    HW129768   0.303   2.402   5.337  0.6335  0.5060  0.3857
 9623SOL    HW229769   0.461   2.361   5.343  0.6112  0.5183  1.1886
 9624SOL     OW29770   6.382   2.825   5.411 -0.1975 -0.5146 -0.3588
 9624SOL    HW129771   6.324   2.775   5.347  1.2433 -3.8076  0.6851
 9624SOL    HW229772   6.332   2.840   5.496 -1.0648  1.0788 -1.1083
 9625SOL     OW29773   0.701   6.057   1.771 -0.4769  0.0388 -0.0931
 9625SOL    HW129774   0.754   6.050   1.856 -2.7014  0.6948  1.4102
 9625SOL    HW229775   0.759   6.096   1.700  1.2534  0.1367  1.2858
 9626SOL     OW29776   4.280   2.155   1.335  0.6234 -0.3537  0.2265
 9626SOL    HW129777   4.272   2.243   1.381 -1.0839 -0.1095 -0.4862
 9626SOL    HW229778   4.377   2.130   1.328  1.4563  2.9953 -2.4225
 9627SOL     OW29779   5.573   1.139   0.608  0.4508  0.3620 -0.6082
 9627SOL    HW129780   5.575   1.040   0.616  1.4364  0.3900 -0.3439
 9627SOL    HW229781   5.480   1.169   0.587 -0.2689 -0.4814  1.1487
 9628SOL     OW29782   3.283   5.554   0.478 -0.8145 -0.0681  0.3578
 9628SOL    HW129783   3.283   5.487   0.404 -1.5165  0.6833 -0.3433
 9628SOL    HW229784   3.262   5.645   0.440  0.4001  0.6023  1.2358
 9629SOL     OW29785   2.773   6.341   1.849  0.0732 -0.0724 -0.4165
 9629SOL    HW129786   2.801   6.271   1.784  0.4654 -1.5193  1.2289
 9629SOL    HW229787   2.840   6.347   1.923 -1.1620  0.3359  0.7184
 9630SOL     OW29788   0.977   2.713   6.441 -0.4326  0.2398  0.0935
 9630SOL    HW129789   0.972   2.732   6.539  1.5304 -1.2423  0.5356
 9630SOL    HW229790   0.900   2.656   6.414  0.3662 -1.5021  1.3434
 9631SOL     OW29791   5.480   5.582   0.305 -0.3229 -0.1536 -0.1210
 9631SOL    HW129792   5.460   5.584   0.207  0.8560 -0.4795 -0.3803
 9631SOL    HW229793   5.531   5.664   0.331  2.1082 -1.4944 -0.4280
 9632SOL     OW29794   2.135   4.905   3.135 -0.1477  0.5027 -0.2346
 9632SOL    HW129795   2.207   4.965   3.101 -0.4182  0.5605 -0.7034
 9632SOL    HW229796   2.095   4.854   3.059 -1.3043  1.2226 -0.1161
 9633SOL     OW29797   1.593   5.627   5.869 -0.4974  0.3751  0.1583
 9633SOL    HW129798   1.610   5.562   5.795  0.0257  0.5382  0.1239
 9633SOL    HW229799   1.601   5.720   5.833  2.8771  0.5459  0.9693
 9634SOL     OW29800   5.215   6.869   5.908  0.1838  0.2117 -0.7702
 9634SOL    HW129801   5.246   6.943   5.847 -0.7528  1.0181 -0.2968
 9634SOL    HW229802   5.289   6.803   5.919  0.9945  0.9822 -1.3559
 9635SOL     OW29803   0.165   0.124   6.211  0.5653  0.0849  0.0305
 9635SOL    HW129804   0.148   0.189   6.285  0.3939  0.0175  0.0511
 9635SOL    HW229805   0.094   0.053   6.212  0.2227  0.4147 -0.5737
 9636SOL     OW29806   4.879   0.575   1.206  0.1514 -0.5732  0.4754
 9636SOL    HW129807   4.941   0.639   1.251 -0.9071  2.2600 -1.8096
 9636SOL    HW229808   4.804   0.625   1.163  0.5358 -2.9805 -3.5840
 9637SOL     OW29809   0.648   1.046   0.161 -0.2795 -0.1521  0.0806
 9637SOL    HW129810   0.587   1.125   0.163  0.2974  0.2788  1.2355
 9637SOL    HW229811   0.742   1.076   0.145 -0.0950 -0.6189  0.2623
 9638SOL     OW29812   1.430   3.645   6.253  0.0914  0.2810  0.5149
 9638SOL    HW129813   1.391   3.597   6.332 -1.1615  0.2871 -0.0876
 9638SOL    HW229814   1.508   3.592   6.218  0.2672 -0.0462  1.3481
 9639SOL     OW29815   3.629   1.217   2.976  0.3343 -0.3928 -0.0697
 9639SOL    HW129816   3.530   1.225   2.987  0.3400 -2.1756  2.1691
 9639SOL    HW229817   3.658   1.124   3.001  2.5707  0.0490 -0.7724
 9640SOL     OW29818   1.543   0.805   2.575 -0.1027 -0.1553 -0.1884
 9640SOL    HW129819   1.626   0.768   2.616  0.2172  0.7241 -0.0209
 9640SOL    HW229820   1.480   0.730   2.555  1.6975 -1.1701 -2.6115
 9641SOL     OW29821   4.751   5.413   6.662 -0.1236 -0.1815 -0.3941
 9641SOL    HW129822   4.721   5.417   6.758  1.0698 -0.4296  0.0012
 9641SOL    HW229823   4.759   5.317   6.634 -0.3872 -0.1096 -0.7323
 9642SOL     OW29824   3.367   5.194   2.446  0.0897  0.0005  0.1608
 9642SOL    HW129825   3.416   5.203   2.533 -1.1168 -1.8957  1.1054
 9642SOL    HW229826   3.359   5.097   2.423 -0.0553  0.4555 -1.8309
 9643SOL     OW29827   3.796   5.168   2.258  0.2027 -0.0800  0.0830
 9643SOL    HW129828   3.746   5.086   2.229  0.5803 -0.3073  0.0714
 9643SOL    HW229829   3.763   5.196   2.348  0.2576 -0.4054  0.2083
 9644SOL     OW29830   2.658   0.221   0.701 -0.3720  0.2068 -0.1115
 9644SOL    HW129831   2.661   0.317   0.726  0.3640  0.0146  0.5420
 9644SOL    HW229832   2.565   0.198   0.669  0.0793  1.7440 -2.8455
 9645SOL     OW29833   4.283   6.205   5.544  0.3541  0.2319  0.4453
 9645SOL    HW129834   4.217   6.207   5.469 -0.6243 -0.3843  1.2683
 9645SOL    HW229835   4.335   6.119   5.541  1.3898  0.8534 -0.3954
 9646SOL     OW29836   4.441   4.531   3.320 -0.2802 -0.1580  0.6417
 9646SOL    HW129837   4.459   4.617   3.368  1.3844 -0.8583  1.3487
 9646SOL    HW229838   4.486   4.456   3.369  1.6836 -0.9057 -2.0629
 9647SOL     OW29839   0.213   1.784   5.597  0.0634  0.1735 -0.1746
 9647SOL    HW129840   0.180   1.879   5.599  0.6035  0.3874  2.5775
 9647SOL    HW229841   0.312   1.784   5.582 -0.2227 -0.1405 -2.3921
 9648SOL     OW29842   3.797   3.831   2.916  0.3428  0.2682  0.2453
 9648SOL    HW129843   3.772   3.925   2.893  0.0195  0.1928  0.2775
 9648SOL    HW229844   3.748   3.768   2.856 -0.4324  0.0720  1.0659
 9649SOL     OW29845   2.091   2.875   1.514 -0.1419  0.2108 -0.0019
 9649SOL    HW129846   2.168   2.822   1.552 -0.4486 -0.4761 -0.3213
 9649SOL    HW229847   2.097   2.875   1.414  0.3874  1.6015  0.0148
 9650SOL     OW29848   3.605   0.594   1.381 -0.3762 -0.1595 -0.3774
 9650SOL    HW129849   3.639   0.500   1.375 -0.1923 -0.3838  2.5189
 9650SOL    HW229850   3.645   0.639   1.461 -1.0831  2.1423 -1.2281
 9651SOL     OW29851   2.213   1.785   6.548  0.0708 -0.3632  0.3692
 9651SOL    HW129852   2.206   1.798   6.647  0.3287  1.2277  0.2032
 9651SOL    HW229853   2.147   1.715   6.519  1.6130 -2.6077  1.9406
 9652SOL     OW29854   2.029   4.666   0.021  0.5829  0.8723 -0.5308
 9652SOL    HW129855   1.967   4.641  -0.053  0.5210 -2.4284  0.4853
 9652SOL    HW229856   2.122   4.676  -0.015  0.4726 -0.2172 -1.1527
 9653SOL     OW29857   3.617   6.369   5.273 -0.0199 -0.3818  0.1688
 9653SOL    HW129858   3.658   6.441   5.329 -0.2664  0.0199 -0.1540
 9653SOL    HW229859   3.564   6.412   5.199  0.2404 -0.8993 -0.3200
 9654SOL     OW29860   2.153   3.842   1.742 -1.0475 -0.5999 -0.2529
 9654SOL    HW129861   2.073   3.885   1.784 -0.4243  0.9603 -0.6033
 9654SOL    HW229862   2.217   3.913   1.712  0.5157 -1.8156  0.1024
 9655SOL     OW29863   6.698   3.069   6.866 -0.2592 -0.1891 -0.3230
 9655SOL    HW129864   6.761   3.006   6.911  0.5078  0.9716  0.2861
 9655SOL    HW229865   6.705   3.059   6.767  0.2507 -0.6619 -0.2417
 9656SOL     OW29866   1.145   1.907   3.577 -0.0192 -0.0586 -0.3072
 9656SOL    HW129867   1.058   1.860   3.558 -0.1838 -0.0328  0.3660
 9656SOL    HW229868   1.186   1.936   3.490 -0.5538 -0.2977 -0.6502
 9657SOL     OW29869   5.757   6.689   3.717  0.0167 -0.3720 -0.0110
 9657SOL    HW129870   5.848   6.660   3.746  0.1062  0.3423  0.4736
 9657SOL    HW229871   5.709   6.731   3.794  0.4391  2.0356 -0.9704
 9658SOL     OW29872   5.357   2.709   1.386  0.2140  0.0286  0.5749
 9658SOL    HW129873   5.273   2.722   1.439  0.5009 -0.3055  1.1226
 9658SOL    HW229874   5.428   2.672   1.445  0.0631 -1.9747 -0.4329
 9659SOL     OW29875   1.588   0.314   5.084 -0.0367 -0.3881  0.3373
 9659SOL    HW129876   1.549   0.246   5.147 -1.4865  0.1460  0.0620
 9659SOL    HW229877   1.687   0.304   5.082  0.1179 -0.2340  2.9658
 9660SOL     OW29878   2.106   3.831   5.885 -0.0307 -0.8618 -0.2498
 9660SOL    HW129879   2.087   3.858   5.791 -1.6259  2.4142  0.8600
 9660SOL    HW229880   2.048   3.754   5.910 -0.6583 -0.8211 -1.4947
 9661SOL     OW29881   4.042   1.419   1.886 -0.0909  0.2149  0.0621
 9661SOL    HW129882   3.975   1.444   1.816 -0.8829 -0.0784  0.7077
 9661SOL    HW229883   4.043   1.490   1.957 -0.2011 -0.1216  0.3977
 9662SOL     OW29884   6.564   3.354   5.938 -0.3238 -0.1797  0.2846
 9662SOL    HW129885   6.546   3.446   5.904  1.0435  0.0302  0.0498
 9662SOL    HW229886   6.547   3.351   6.037  0.1521  0.4983  0.4016
 9663SOL     OW29887   3.441   4.763   1.351  0.1196  0.3702  0.0747
 9663SOL    HW129888   3.368   4.695   1.357  0.1754  0.2769 -0.2851
 9663SOL    HW229889   3.488   4.769   1.440  0.1334 -0.0801  0.1004
 9664SOL     OW29890   2.651   0.878   0.980 -0.3173 -0.0908  0.1672
 9664SOL    HW129891   2.746   0.899   0.955  0.3019 -1.0906  1.5834
 9664SOL    HW229892   2.605   0.963   1.007 -0.0459  0.5034 -1.1323
 9665SOL     OW29893   4.735   2.671   1.237 -0.1384  0.2132 -0.2012
 9665SOL    HW129894   4.677   2.641   1.161  0.1187 -0.5769 -0.0974
 9665SOL    HW229895   4.730   2.604   1.311  0.0974  0.6669  0.2336
 9666SOL     OW29896   5.635   4.752   4.290 -0.3835 -0.2477  0.5349
 9666SOL    HW129897   5.649   4.844   4.253 -0.8790 -0.7736 -1.0394
 9666SOL    HW229898   5.539   4.740   4.316 -0.3174 -0.3225  0.7501
 9667SOL     OW29899   3.104   3.502   1.817  0.3496 -0.0356 -0.0369
 9667SOL    HW129900   3.040   3.528   1.745  0.6860 -1.4571 -0.8889
 9667SOL    HW229901   3.055   3.456   1.891  0.2813 -0.5104 -0.3726
 9668SOL     OW29902   6.348   6.917   3.210 -0.3743 -0.1553 -0.0632
 9668SOL    HW129903   6.248   6.923   3.215 -0.5326 -0.9438 -1.5888
 9668SOL    HW229904   6.385   7.003   3.177 -0.6594 -0.1817 -0.4707
 9669SOL     OW29905   1.954   6.073   0.100  0.0771 -0.2631 -0.1883
 9669SOL    HW129906   2.024   6.039   0.163  0.5094  1.5908  0.3753
 9669SOL    HW229907   1.910   6.153   0.139  0.0246  0.6507 -2.0242
 9670SOL     OW29908   5.309   4.951   6.471  0.2020  0.2650 -0.1058
 9670SOL    HW129909   5.233   4.958   6.535  1.3993  2.1049  1.2270
 9670SOL    HW229910   5.364   5.035   6.476  1.6978 -0.5554 -1.8175
 9671SOL     OW29911   0.286   2.284   5.948  0.7911 -0.3924 -0.0403
 9671SOL    HW129912   0.306   2.362   6.007  0.1313  0.9218 -1.4983
 9671SOL    HW229913   0.223   2.222   5.995  3.4405 -1.5637  2.2528
 9672SOL     OW29914   0.338   6.965   4.594  0.3581  0.1157  0.0318
 9672SOL    HW129915   0.339   6.920   4.504  0.3211 -1.0818  0.6144
 9672SOL    HW229916   0.283   6.911   4.658 -0.9922  1.8096  0.3702
 9673SOL     OW29917   2.536   2.006   5.527 -0.2749 -0.6640 -0.0571
 9673SOL    HW129918   2.444   2.044   5.518 -0.2403 -1.0019 -2.3952
 9673SOL    HW229919   2.530   1.915   5.568 -1.1009 -1.0295 -0.9412
 9674SOL     OW29920   2.721   5.795   1.875 -0.1736  0.0109 -0.2133
 9674SOL    HW129921   2.790   5.737   1.832  0.7872  1.5636 -0.8658
 9674SOL    HW229922   2.760   5.839   1.956 -1.2156 -1.0081  0.8846
 9675SOL     OW29923   6.222   1.385   0.088 -0.2981 -0.8251  0.3408
 9675SOL    HW129924   6.264   1.312   0.035 -1.1368 -0.8919 -0.2509
 9675SOL    HW229925   6.189   1.456   0.026  0.1098 -0.1415  0.8806
 9676SOL     OW29926   1.210   2.297   1.760 -0.0881  0.0309 -0.8479
 9676SOL    HW129927   1.170   2.372   1.812 -0.8779  0.1106 -1.5427
 9676SOL    HW229928   1.280   2.332   1.698  0.0287  0.0966 -0.6786
 9677SOL     OW29929   2.055   4.544   6.064  0.1853 -0.0997  0.0802
 9677SOL    HW129930   1.979   4.554   6.000  1.6126  3.0160 -1.3599
 9677SOL    HW229931   2.122   4.481   6.026  0.4411  0.7663 -0.9475
 9678SOL     OW29932   3.741   3.836   4.147 -0.4289  0.3839 -0.1190
 9678SOL    HW129933   3.730   3.739   4.125 -1.3161  0.5276 -0.3674
 9678SOL    HW229934   3.690   3.858   4.230  0.0736  0.5680  0.1476
 9679SOL     OW29935   5.887   3.301   3.761  0.3030 -0.2723 -0.1779
 9679SOL    HW129936   5.896   3.226   3.695 -0.1711 -0.4385 -0.0637
 9679SOL    HW229937   5.791   3.327   3.768  0.2464 -0.7073  0.9308
 9680SOL     OW29938   6.141   5.082   1.528 -0.0268  0.3081  0.4316
 9680SOL    HW129939   6.183   4.998   1.494  0.2859  1.3295 -1.8804
 9680SOL    HW229940   6.043   5.080   1.511 -0.2601 -0.1507  1.6909
 9681SOL     OW29941   6.359   0.028   2.060  0.0155 -0.1438  0.2706
 9681SOL    HW129942   6.457   0.015   2.044 -0.4223 -0.7063 -2.2034
 9681SOL    HW229943   6.343   0.123   2.087  1.0643  0.4173 -0.9847
 9682SOL     OW29944   1.177   3.095   3.938 -0.0843 -0.1062  0.4338
 9682SOL    HW129945   1.095   3.123   3.987  0.4288  0.3852  1.0240
 9682SOL    HW229946   1.226   3.176   3.905  0.2514 -0.3856  0.2341
 9683SOL     OW29947   4.452   5.879   3.027  0.0227  0.2062  0.0581
 9683SOL    HW129948   4.451   5.941   3.105  1.3105 -1.7863  1.7462
 9683SOL    HW229949   4.441   5.784   3.058  2.8749 -0.9207 -1.8547
 9684SOL     OW29950   1.638   4.137   1.882 -0.0142 -0.0180  0.2001
 9684SOL    HW129951   1.568   4.154   1.814  0.2796  0.3991 -0.0029
 9684SOL    HW229952   1.596   4.103   1.966 -0.7364  2.3469  0.8741
 9685SOL     OW29953   2.827   1.404   6.634  0.1869  0.3952 -0.1112
 9685SOL    HW129954   2.810   1.308   6.614  0.5042  0.1816  0.6123
 9685SOL    HW229955   2.750   1.459   6.602 -0.9406 -0.3160  1.2553
 9686SOL     OW29956   5.646   0.901   2.151  0.2620 -0.2381 -0.6203
 9686SOL    HW129957   5.616   0.989   2.187  1.3031  1.2229 -3.0722
 9686SOL    HW229958   5.683   0.845   2.226 -0.9508  1.1423  1.0851
 9687SOL     OW29959   2.667   0.187   5.490 -0.0892  0.2142  0.0512
 9687SOL    HW129960   2.705   0.224   5.405  1.9520  1.2208  1.3302
 9687SOL    HW229961   2.580   0.232   5.510  0.0464  0.8897 -0.8401
 9688SOL     OW29962   6.364   0.893   3.705 -0.0494  0.1748  0.7292
 9688SOL    HW129963   6.390   0.917   3.798  0.3136  0.7218  0.4905
 9688SOL    HW229964   6.340   0.796   3.701  0.2426  0.0770  1.3224
 9689SOL     OW29965   1.905   6.710   6.481 -0.2953 -0.1543 -0.2013
 9689SOL    HW129966   1.986   6.693   6.537  2.0893  2.9796 -2.3015
 9689SOL    HW229967   1.834   6.752   6.537  0.6772 -0.2464  1.1313
 9690SOL     OW29968   0.557   4.607   6.869 -0.2722 -0.2837  0.2336
 9690SOL    HW129969   0.599   4.558   6.945 -0.4744 -0.6881  0.0858
 9690SOL    HW229970   0.545   4.703   6.894 -0.1617 -0.3725  0.6389
 9691SOL     OW29971   0.120   4.998   0.006  0.0674 -0.1898  0.0452
 9691SOL    HW129972   0.069   4.912   0.011 -0.1663 -0.0120  1.0335
 9691SOL    HW229973   0.085   5.053  -0.070 -0.1758 -0.7190 -0.2303
 9692SOL     OW29974   4.375   0.180   0.330  0.4847 -0.8691  0.3019
 9692SOL    HW129975   4.422   0.238   0.264  0.9381 -0.6050  0.8521
 9692SOL    HW229976   4.339   0.236   0.404  0.5292 -1.2344  0.6060
 9693SOL     OW29977   5.723   6.416   1.049  0.1124 -0.3499  0.1999
 9693SOL    HW129978   5.777   6.433   1.132 -0.8732  0.2211  0.7481
 9693SOL    HW229979   5.768   6.346   0.994  1.4164  0.1207  0.6246
 9694SOL     OW29980   1.470   0.901   0.402  1.0837 -0.7400 -0.7462
 9694SOL    HW129981   1.480   0.805   0.375  1.2025 -0.4924 -1.6069
 9694SOL    HW229982   1.376   0.931   0.384  0.8384 -0.9014  0.2224
 9695SOL     OW29983   5.441   3.705   6.701 -0.4908  0.0391 -0.0691
 9695SOL    HW129984   5.392   3.626   6.663 -2.0000  0.8011  0.2045
 9695SOL    HW229985   5.382   3.786   6.697  1.0320  1.1826 -0.3829
 9696SOL     OW29986   3.192   4.046   5.805 -0.3974 -0.1756  0.0629
 9696SOL    HW129987   3.192   4.084   5.712  1.3339  1.1250  0.5498
 9696SOL    HW229988   3.278   4.068   5.850 -2.5470  2.4857  3.3360
 9697SOL     OW29989   6.541   6.005   0.754 -0.0467 -0.6275  0.4223
 9697SOL    HW129990   6.492   5.955   0.683 -1.4673 -1.8924  2.2039
 9697SOL    HW229991   6.565   5.943   0.829  2.0908  0.4911  0.7630
 9698SOL     OW29992   4.206   0.652   4.834 -0.0702  0.3198  0.1768
 9698SOL    HW129993   4.120   0.703   4.835 -0.3256 -0.1058  0.0390
 9698SOL    HW229994   4.264   0.686   4.761  0.7709  2.0615  1.5681
 9699SOL     OW29995   2.425   6.910   0.307  0.7617  0.4464  0.5694
 9699SOL    HW129996   2.457   6.925   0.213  0.4107 -0.8902  0.2128
 9699SOL    HW229997   2.503   6.891   0.366  0.8755  0.0285  0.2875
 9700SOL     OW29998   2.973   3.590   3.237 -0.0174  0.1327  0.1046
 9700SOL    HW129999   2.932   3.627   3.153  1.3547  1.2331 -0.1207
 9700SOL    HW230000   3.044   3.525   3.212 -0.2628 -0.2695  0.4510
 9701SOL     OW30001   4.133   5.933   2.657 -0.0813 -0.0337 -0.4650
 9701SOL    HW130002   4.224   5.946   2.696 -0.8753  0.6828  1.2661
 9701SOL    HW230003   4.099   6.021   2.622 -0.8004  0.1183  0.5597
 9702SOL     OW30004   4.527   0.056   6.404 -0.2116 -0.2789  0.0002
 9702SOL    HW130005   4.595   0.040   6.332  2.4377 -0.0223  2.3187
 9702SOL    HW230006   4.441   0.010   6.379  1.1721 -1.7361 -2.4328
 9703SOL     OW30007   1.507   0.525   3.726 -0.0236  0.2681 -0.0837
 9703SOL    HW130008   1.519   0.459   3.651 -0.7024  0.3813 -0.2992
 9703SOL    HW230009   1.430   0.497   3.782  0.3748  0.2810  0.4803
 9704SOL     OW30010   2.776   1.187   3.964  0.4315  0.7271  0.1754
 9704SOL    HW130011   2.757   1.138   3.879  0.7497  1.0940 -0.1109
 9704SOL    HW230012   2.843   1.136   4.018  0.0691  0.3883  0.3036
 9705SOL     OW30013   2.262   3.899   6.163 -0.4127 -0.1544  0.0550
 9705SOL    HW130014   2.262   3.846   6.248 -1.7057  0.9376  0.7660
 9705SOL    HW230015   2.232   3.841   6.088  0.7377 -1.1342  0.3034
 9706SOL     OW30016   0.026   1.868   4.393  0.2126 -0.3987  0.1011
 9706SOL    HW130017  -0.066   1.839   4.367 -0.5565  0.5841  1.5774
 9706SOL    HW230018   0.046   1.838   4.486  1.7893 -1.4244 -0.5288
 9707SOL     OW30019   3.793   4.613   0.587 -0.0654  0.0049  0.4933
 9707SOL    HW130020   3.865   4.572   0.644  0.1965  1.1195  0.9831
 9707SOL    HW230021   3.834   4.656   0.507 -0.2918 -0.1981  0.2649
 9708SOL     OW30022   0.071   3.907   1.183 -1.0288 -0.4016 -0.1677
 9708SOL    HW130023  -0.007   3.928   1.241 -0.8998 -1.8258  0.5782
 9708SOL    HW230024   0.135   3.849   1.234  0.9238  1.3608 -0.4680
 9709SOL     OW30025   1.172   0.765   4.467  0.3734  0.0438 -0.0313
 9709SOL    HW130026   1.154   0.816   4.551 -1.8039 -0.0102 -0.4107
 9709SOL    HW230027   1.166   0.826   4.389  3.1577  0.2592 -0.1875
 9710SOL     OW30028   1.709   5.493   5.029 -0.1880 -0.3170 -0.5047
 9710SOL    HW130029   1.736   5.493   4.932 -0.3281  0.4558 -0.5488
 9710SOL    HW230030   1.686   5.400   5.057 -0.1479 -0.5473 -1.2152
 9711SOL     OW30031   2.303   2.515   6.206 -0.1420 -0.0582 -0.0674
 9711SOL    HW130032   2.319   2.613   6.194  0.5013  0.2490  2.6580
 9711SOL    HW230033   2.205   2.497   6.211 -0.2564  0.4995 -0.2648
 9712SOL     OW30034   5.011   4.690   4.483 -0.1389 -0.4853  0.6630
 9712SOL    HW130035   5.078   4.685   4.556  1.4128 -0.4491 -0.7156
 9712SOL    HW230036   4.993   4.598   4.448 -1.5142 -0.6080  1.5972
 9713SOL     OW30037   0.952   6.566   4.911  0.1307 -0.4113 -0.2568
 9713SOL    HW130038   0.994   6.627   4.843 -0.6680  0.7150  0.2199
 9713SOL    HW230039   0.909   6.489   4.864 -0.9721  0.6814 -1.1239
 9714SOL     OW30040   1.476   2.087   2.363 -0.2030  0.7546 -0.1755
 9714SOL    HW130041   1.419   2.169   2.350 -1.4042 -0.1031 -0.4747
 9714SOL    HW230042   1.494   2.045   2.274 -0.6723  0.0050  0.0672
 9715SOL     OW30043   5.010   6.063   4.206  0.0766  0.2537  0.2772
 9715SOL    HW130044   4.972   6.151   4.233 -0.5203 -0.1008  0.6071
 9715SOL    HW230045   5.101   6.077   4.166 -0.8579  1.2280 -1.6395
 9716SOL     OW30046   3.837   6.824   6.721  0.1686  0.7036  0.0794
 9716SOL    HW130047   3.758   6.884   6.708  1.0969  2.2637  1.2842
 9716SOL    HW230048   3.912   6.876   6.763  1.0378 -1.2840  1.1425
 9717SOL     OW30049   6.052   4.950   3.520  0.9625 -0.2548 -0.1743
 9717SOL    HW130050   6.006   5.008   3.452  0.7353 -0.2283  0.0018
 9717SOL    HW230051   6.119   4.892   3.474  2.2057  1.1357 -0.1905
 9718SOL     OW30052   0.693   1.030   3.205 -0.0524  0.4481  0.7684
 9718SOL    HW130053   0.704   1.083   3.289 -0.3223  0.9857  0.4693
 9718SOL    HW230054   0.727   1.082   3.127  1.4949 -0.6061  0.7048
 9719SOL     OW30055   0.060   3.053   1.200  0.1070  0.0192  0.0433
 9719SOL    HW130056   0.064   3.148   1.170 -1.3072 -0.0331 -0.3591
 9719SOL    HW230057  -0.029   3.034   1.242  0.1442 -1.2779 -0.4005
 9720SOL     OW30058   1.122   0.607   0.727 -0.1885  0.3284  0.2389
 9720SOL    HW130059   1.126   0.674   0.653 -0.2544  0.1021  0.0275
 9720SOL    HW230060   1.062   0.531   0.700  0.9251 -0.4708 -0.0678
 9721SOL     OW30061   0.009   1.564   5.225 -0.1181 -0.3605  0.5448
 9721SOL    HW130062   0.011   1.484   5.285  0.1085 -0.9925 -0.2885
 9721SOL    HW230063   0.101   1.584   5.192 -0.0112  0.8452  1.5061
 9722SOL     OW30064   0.056   6.720   3.953  0.1379  0.4037 -0.0611
 9722SOL    HW130065  -0.017   6.697   4.018  0.1989  1.0715  0.2479
 9722SOL    HW230066   0.022   6.786   3.887  1.2347  3.0645  1.8383
 9723SOL     OW30067   6.083   1.114   0.677  0.1979  0.6517  0.0457
 9723SOL    HW130068   6.056   1.072   0.763 -0.0322  1.5918  0.4442
 9723SOL    HW230069   6.182   1.130   0.677  0.1704  0.8202  0.2107
 9724SOL     OW30070   5.484   0.684   1.004 -0.9019  0.2350 -0.3859
 9724SOL    HW130071   5.482   0.782   0.984 -1.2867  0.7018  1.7144
 9724SOL    HW230072   5.392   0.646   0.991 -0.6056 -0.0364 -1.8872
 9725SOL     OW30073   5.546   3.383   6.094  0.2301 -0.3845  0.6272
 9725SOL    HW130074   5.573   3.435   6.013 -0.1184  0.1865  0.8752
 9725SOL    HW230075   5.450   3.399   6.115  0.3784 -0.3218  1.3068
 9726SOL     OW30076   5.068   5.260   4.727 -0.1497  0.1591 -0.2631
 9726SOL    HW130077   5.095   5.356   4.716 -0.5158  0.5967  2.2410
 9726SOL    HW230078   5.144   5.208   4.765 -1.4955  0.6977  3.6026
 9727SOL     OW30079   0.163   1.002   5.598 -0.2931  0.0926  0.3589
 9727SOL    HW130080   0.216   0.917   5.611 -0.5951 -0.2263 -0.4237
 9727SOL    HW230081   0.068   0.979   5.579 -0.1486  0.5408 -1.0719
 9728SOL     OW30082   1.233   0.429   5.689 -0.5162  0.2094  0.1880
 9728SOL    HW130083   1.256   0.362   5.618 -0.9634 -1.1454  1.2803
 9728SOL    HW230084   1.134   0.444   5.691 -0.5548 -0.0960  0.8048
 9729SOL     OW30085   0.960   5.970   2.996  0.5139  0.3569 -0.2562
 9729SOL    HW130086   0.962   5.928   3.087 -2.0350  0.6238  0.0243
 9729SOL    HW230087   1.015   5.917   2.932  0.4049 -1.2225  0.9103
 9730SOL     OW30088   5.555   5.290   2.683  0.8543  0.7052  0.2204
 9730SOL    HW130089   5.601   5.217   2.734 -0.8069 -0.6138 -0.1085
 9730SOL    HW230090   5.572   5.278   2.585 -0.7081 -0.1850  0.0443
 9731SOL     OW30091   5.930   4.176   1.647 -0.3354  0.1554 -0.0786
 9731SOL    HW130092   5.969   4.144   1.560  1.3497 -0.4417  0.8375
 9731SOL    HW230093   5.996   4.159   1.720 -1.3574  1.4581  1.1886
 9732SOL     OW30094   4.038   0.065   5.269  0.5177 -0.3954  0.5703
 9732SOL    HW130095   4.016   0.058   5.171  1.2870 -0.7235  0.4157
 9732SOL    HW230096   3.972   0.012   5.321  0.7043 -1.0606  0.1433
 9733SOL     OW30097   5.260   5.333   2.791  0.0886 -0.6851  0.1299
 9733SOL    HW130098   5.320   5.268   2.744 -0.0515 -1.3393  0.8398
 9733SOL    HW230099   5.313   5.385   2.857  0.4528  0.7985 -1.2570
 9734SOL     OW30100   5.585   1.889   5.228 -0.0392 -0.5158 -0.2542
 9734SOL    HW130101   5.519   1.964   5.229 -2.3743 -2.4393 -0.7490
 9734SOL    HW230102   5.670   1.921   5.186 -1.2746  1.5825 -1.3688
 9735SOL     OW30103   4.920   5.185   2.611  0.3393 -0.4447 -0.4019
 9735SOL    HW130104   4.978   5.265   2.621  0.0291 -0.4444  1.9891
 9735SOL    HW230105   4.928   5.149   2.518  2.6701  0.6572 -0.6842
 9736SOL     OW30106   4.683   1.346   6.887 -0.1829  0.3230 -0.4220
 9736SOL    HW130107   4.772   1.344   6.843  0.3840  0.1619  0.6961
 9736SOL    HW230108   4.632   1.263   6.864  0.7854 -0.5738  0.5717
 9737SOL     OW30109   4.598   0.676   5.854 -0.2989 -0.4209 -0.3714
 9737SOL    HW130110   4.636   0.587   5.827 -0.0151 -1.0147  1.8094
 9737SOL    HW230111   4.517   0.662   5.911  0.0914  0.6750  0.4961
 9738SOL     OW30112   3.963   0.478   6.960  0.3116 -0.2092  0.2909
 9738SOL    HW130113   3.959   0.565   7.008  3.2258  0.5538 -0.6644
 9738SOL    HW230114   4.044   0.475   6.902 -0.3262 -3.1186 -0.6350
 9739SOL     OW30115   5.467   3.832   1.626  0.0271  0.7079  0.6565
 9739SOL    HW130116   5.535   3.880   1.680  1.6502  0.2898 -0.9132
 9739SOL    HW230117   5.513   3.775   1.557 -1.8488 -1.5679  1.1434
 9740SOL     OW30118   0.355   2.860   3.114  0.1043  0.1895 -0.2136
 9740SOL    HW130119   0.452   2.843   3.130  0.4137  0.7174 -1.3800
 9740SOL    HW230120   0.305   2.774   3.116  0.4620 -0.0082  1.1523
 9741SOL     OW30121   4.626   2.720   3.896  0.5123  0.0674  0.4442
 9741SOL    HW130122   4.615   2.732   3.797 -0.0077  0.6514  0.5634
 9741SOL    HW230123   4.556   2.658   3.930  0.0883  0.6105  0.5835
 9742SOL     OW30124   3.117   0.762   2.387  0.2475  0.1695  0.1817
 9742SOL    HW130125   3.172   0.720   2.315 -0.6578 -0.9251  0.1087
 9742SOL    HW230126   3.128   0.862   2.383  1.3012  0.0423 -0.5608
 9743SOL     OW30127   2.090   2.410   5.655 -0.1749 -0.6787 -0.3005
 9743SOL    HW130128   2.105   2.499   5.697 -0.2436 -0.7879 -0.0373
 9743SOL    HW230129   2.142   2.404   5.570 -0.8652 -0.0661 -0.7699
 9744SOL     OW30130   3.041   0.650   0.876  0.4197 -0.3511 -0.0365
 9744SOL    HW130131   3.125   0.666   0.928  1.5927 -1.9774 -1.3210
 9744SOL    HW230132   3.049   0.693   0.786 -1.0302  1.2651  0.5457
 9745SOL     OW30133   1.091   1.686   5.060 -0.7494  0.1700 -0.0894
 9745SOL    HW130134   1.031   1.731   4.994 -0.5393  0.6465  0.0368
 9745SOL    HW230135   1.162   1.635   5.012 -0.2197  1.0245 -0.2409
 9746SOL     OW30136   0.969   0.417   5.139 -0.0726 -0.1939 -0.2653
 9746SOL    HW130137   0.932   0.510   5.143  1.1853  0.3896 -1.4646
 9746SOL    HW230138   0.938   0.373   5.055  2.7625  0.7208 -1.9000
 9747SOL     OW30139   6.495   2.749   0.262  0.5373  0.0588  0.1473
 9747SOL    HW130140   6.588   2.763   0.297  0.4586  2.2806 -0.4040
 9747SOL    HW230141   6.474   2.651   0.262  1.8846 -0.3142  2.7319
 9748SOL     OW30142   7.010   3.219   4.626  0.7734 -0.5075 -0.2894
 9748SOL    HW130143   6.972   3.205   4.535  0.9593  0.7367 -0.5683
 9748SOL    HW230144   6.992   3.312   4.657 -0.3846 -1.2605  1.4845
 9749SOL     OW30145   0.280   6.532   4.411  0.1069 -0.1484 -0.0090
 9749SOL    HW130146   0.273   6.526   4.312  1.8081 -0.8137 -0.1169
 9749SOL    HW230147   0.228   6.457   4.453  3.0659 -2.7724 -0.6190
 9750SOL     OW30148   2.439   6.667   1.765 -0.6955  0.2508 -0.5076
 9750SOL    HW130149   2.493   6.738   1.809 -0.8988  0.5644 -0.7561
 9750SOL    HW230150   2.500   6.602   1.719 -0.5155  0.3812 -0.4541
 9751SOL     OW30151   1.917   0.255   1.103 -0.6904 -0.0861 -0.2610
 9751SOL    HW130152   1.914   0.235   1.201 -0.2085  0.8453 -0.0412
 9751SOL    HW230153   1.860   0.334   1.083  1.3905  1.5317 -0.2233
 9752SOL     OW30154   4.658   0.218   6.816  0.0014 -0.0532  0.6059
 9752SOL    HW130155   4.583   0.164   6.855 -0.1979 -0.8505 -0.8185
 9752SOL    HW230156   4.711   0.259   6.890 -0.6729 -1.0667  1.6946
 9753SOL     OW30157   0.297   1.011   5.342 -0.3809  0.3355  0.3078
 9753SOL    HW130158   0.256   1.013   5.433 -1.0452 -0.8020  0.0479
 9753SOL    HW230159   0.243   1.069   5.280 -0.9909 -0.3230  0.2169
 9754SOL     OW30160   1.006   3.412   6.482  0.3949 -0.2224  0.0262
 9754SOL    HW130161   1.063   3.461   6.416  0.0662  0.3163  0.1455
 9754SOL    HW230162   1.058   3.334   6.518  0.0500 -1.4753 -2.0167
 9755SOL     OW30163   3.084   5.517   4.373 -0.5032 -0.3540  0.6084
 9755SOL    HW130164   3.099   5.418   4.372 -0.0231 -0.4809 -4.5111
 9755SOL    HW230165   3.172   5.564   4.378 -0.5815 -0.2196  0.7481
 9756SOL     OW30166   3.989   1.685   6.922 -0.0605 -0.4443 -0.2873
 9756SOL    HW130167   4.010   1.783   6.918  0.0560 -0.3697  1.4036
 9756SOL    HW230168   4.040   1.643   6.997 -2.6101 -1.0998  1.2226
 9757SOL     OW30169   5.667   5.536   3.320 -0.2099 -0.2847  0.2064
 9757SOL    HW130170   5.715   5.623   3.323  1.1670 -0.9137 -1.6678
 9757SOL    HW230171   5.568   5.552   3.322  0.0176  1.2166  0.9539
 9758SOL     OW30172   2.483   0.533   2.468 -0.4577 -0.3271 -0.0732
 9758SOL    HW130173   2.568   0.531   2.521 -1.3509  1.3924  1.5728
 9758SOL    HW230174   2.498   0.584   2.384  0.0722  0.3059  0.3887
 9759SOL     OW30175   4.299   5.709   0.540  0.5707 -0.1030 -0.0933
 9759SOL    HW130176   4.310   5.760   0.455 -1.5003 -1.1078 -1.0398
 9759SOL    HW230177   4.378   5.650   0.555  0.7197 -0.3267 -1.6185
 9760SOL     OW30178   5.713   3.275   5.582 -0.3411 -0.2077  0.1643
 9760SOL    HW130179   5.641   3.206   5.594 -0.2508 -0.4783 -0.7831
 9760SOL    HW230180   5.673   3.357   5.542 -0.1423 -0.3121 -0.2460
 9761SOL     OW30181   5.348   6.124   3.408 -0.1844 -0.3422  0.3742
 9761SOL    HW130182   5.393   6.138   3.497 -1.7403  0.5163  1.0650
 9761SOL    HW230183   5.266   6.181   3.403  1.4180  2.0163 -2.8226
 9762SOL     OW30184   2.619   1.414   2.496  0.1145 -0.3060 -0.4413
 9762SOL    HW130185   2.646   1.508   2.474  2.7619 -0.8299  0.2298
 9762SOL    HW230186   2.539   1.416   2.556  0.2942  1.5419 -0.1908
 9763SOL     OW30187   1.641   1.396   3.033  0.3002  0.3167 -0.7535
 9763SOL    HW130188   1.658   1.298   3.023 -2.6068 -0.3035 -0.3665
 9763SOL    HW230189   1.637   1.438   2.943  2.6909  0.3884 -0.9038
 9764SOL     OW30190   2.194   3.072   4.015  0.2350 -0.3045  0.5234
 9764SOL    HW130191   2.198   3.170   3.995  0.9286 -0.0183  1.9567
 9764SOL    HW230192   2.192   3.058   4.114 -0.5780 -1.7286  0.3342
 9765SOL     OW30193   5.936   2.295   3.683 -0.3485 -0.1702  0.3139
 9765SOL    HW130194   5.859   2.296   3.619  0.4757 -1.3480 -0.7521
 9765SOL    HW230195   5.997   2.219   3.660  1.8182  1.4835  0.3066
 9766SOL     OW30196   2.094   6.189   3.124 -0.0128 -0.6867  0.0094
 9766SOL    HW130197   2.190   6.214   3.131  0.4243 -2.2109 -0.1505
 9766SOL    HW230198   2.037   6.270   3.137  1.2873  0.2653 -0.0612
 9767SOL     OW30199   3.520   1.557   4.449 -0.1320 -0.0829 -0.0450
 9767SOL    HW130200   3.557   1.642   4.486  0.8262 -0.3741 -0.3041
 9767SOL    HW230201   3.578   1.525   4.374 -0.8831 -0.5937 -0.4234
 9768SOL     OW30202   4.458   1.913   1.943 -0.4888 -0.0538 -0.2034
 9768SOL    HW130203   4.364   1.941   1.923 -0.6257  0.0153  0.5133
 9768SOL    HW230204   4.457   1.821   1.983 -0.6299  1.2999  3.2484
 9769SOL     OW30205   0.564   3.514   6.655  0.6862 -0.0767  0.1957
 9769SOL    HW130206   0.523   3.576   6.721  1.1529 -1.2429  1.6368
 9769SOL    HW230207   0.655   3.548   6.630  0.1937  0.7828 -0.4880
 9770SOL     OW30208   0.117   4.713   4.767 -0.3468 -0.2543  0.1004
 9770SOL    HW130209   0.028   4.759   4.764 -0.3348 -0.1868  0.7732
 9770SOL    HW230210   0.188   4.781   4.787 -0.1187 -0.2788 -0.5967
 9771SOL     OW30211   1.277   6.426   3.047  0.4552  0.0444 -0.6334
 9771SOL    HW130212   1.351   6.376   3.001 -0.4564 -1.8150 -0.1653
 9771SOL    HW230213   1.195   6.368   3.051  0.0234  0.7084  1.9276
 9772SOL     OW30214   5.411   4.418   1.684  0.5380 -0.1861 -0.3174
 9772SOL    HW130215   5.332   4.459   1.730  0.9653  1.3539 -0.8810
 9772SOL    HW230216   5.381   4.342   1.627 -0.0867 -1.7608  1.9672
 9773SOL     OW30217   6.644   3.600   3.790  0.2768  0.7693  0.0292
 9773SOL    HW130218   6.562   3.641   3.830 -0.8777 -0.8263 -0.6340
 9773SOL    HW230219   6.645   3.616   3.691  0.1048 -0.2807 -0.1512
 9774SOL     OW30220   5.941   5.206   3.623 -0.0760 -0.1468 -0.3770
 9774SOL    HW130221   6.002   5.138   3.664 -0.0469 -0.3513 -0.7507
 9774SOL    HW230222   5.985   5.296   3.623  0.5604 -0.4395 -1.3614
 9775SOL     OW30223   1.064   1.185   4.642  0.0185 -0.2655  0.3375
 9775SOL    HW130224   1.143   1.177   4.580  1.1222 -0.9844  1.7532
 9775SOL    HW230225   0.980   1.183   4.589  0.8703 -2.0823 -1.0742
 9776SOL     OW30226   1.346   4.504   4.618  0.2080 -0.1949  0.3948
 9776SOL    HW130227   1.442   4.487   4.597  0.0174 -1.2290  0.3202
 9776SOL    HW230228   1.300   4.418   4.639 -1.5167 -0.2390 -2.9429
 9777SOL     OW30229   2.916   6.262   6.062 -0.3301  0.1496 -0.1195
 9777SOL    HW130230   2.937   6.356   6.036  1.6304 -0.1947  0.0418
 9777SOL    HW230231   2.817   6.251   6.074 -0.7257  1.8046 -1.5520
 9778SOL     OW30232   1.217   6.231   3.831  0.1907 -0.3840  0.6763
 9778SOL    HW130233   1.147   6.280   3.779 -1.1002 -0.6399  2.0899
 9778SOL    HW230234   1.174   6.157   3.883  2.1841 -4.2403 -2.5751
 9779SOL     OW30235   3.833   2.575   1.684 -0.3588 -0.3013 -0.0808
 9779SOL    HW130236   3.863   2.492   1.732 -1.8422 -0.5038  0.5684
 9779SOL    HW230237   3.758   2.617   1.736 -1.5949 -0.1708 -1.8923
 9780SOL     OW30238   1.493   3.052   6.616 -0.8360 -0.2715 -0.1488
 9780SOL    HW130239   1.489   3.133   6.674  3.2784 -0.0327  0.0814
 9780SOL    HW230240   1.489   3.079   6.520  1.9262  0.5556 -0.1290
 9781SOL     OW30241   6.068   1.387   5.829 -0.0230  0.5277  0.2735
 9781SOL    HW130242   6.035   1.295   5.853  0.8134  0.3373  0.7256
 9781SOL    HW230243   6.112   1.428   5.908 -0.0191  1.1524 -0.0515
 9782SOL     OW30244   4.942   1.043   5.430  0.4931 -0.3702  0.4138
 9782SOL    HW130245   4.930   1.044   5.330  1.2095  1.6567  0.3087
 9782SOL    HW230246   4.888   0.969   5.469 -0.6450 -0.5451 -1.3852
 9783SOL     OW30247   6.088   0.710   2.940  0.7117  0.1341  0.0797
 9783SOL    HW130248   6.129   0.781   2.997  0.0744 -0.9038  1.9056
 9783SOL    HW230249   6.154   0.680   2.872  1.3304  1.7311 -0.0786
 9784SOL     OW30250   4.573   6.789   4.698 -0.1160  0.1734 -0.2163
 9784SOL    HW130251   4.481   6.754   4.717 -0.5831  0.9079 -1.0061
 9784SOL    HW230252   4.624   6.722   4.644 -0.7140  0.3547 -1.0297
 9785SOL     OW30253   2.021   0.340   6.726  0.1724 -0.7502 -0.2251
 9785SOL    HW130254   2.003   0.291   6.811 -2.9329 -1.2711 -1.0694
 9785SOL    HW230255   2.047   0.435   6.747 -1.8977 -0.4582  1.3408
 9786SOL     OW30256   0.636   6.209   2.655 -0.4817 -0.3160 -0.3726
 9786SOL    HW130257   0.630   6.294   2.707  0.3754 -1.5625  1.8895
 9786SOL    HW230258   0.557   6.201   2.594 -1.8768  0.9180  1.1975
 9787SOL     OW30259   5.301   3.128   1.023 -0.3078  0.0827 -0.0981
 9787SOL    HW130260   5.377   3.139   1.086  0.0325 -1.0966 -0.2762
 9787SOL    HW230261   5.323   3.057   0.956 -2.1020 -1.3286  0.7144
 9788SOL     OW30262   6.057   6.279   4.410  0.0891  0.2277 -0.2030
 9788SOL    HW130263   5.966   6.293   4.448  0.2214 -0.1632  0.2629
 9788SOL    HW230264   6.050   6.268   4.311 -0.1928  1.9124 -0.4122
 9789SOL     OW30265   2.941   5.116   4.212 -0.3057  0.2137  0.2176
 9789SOL    HW130266   2.863   5.166   4.249 -0.7566 -0.4203  0.1407
 9789SOL    HW230267   2.931   5.108   4.113 -0.4131 -0.3138  0.2662
 9790SOL     OW30268   0.305   6.967   2.804  0.5144  0.4271  0.2831
 9790SOL    HW130269   0.258   6.991   2.889 -1.5744  0.6742 -0.8803
 9790SOL    HW230270   0.328   6.870   2.805 -1.9717 -0.2251  0.0641
 9791SOL     OW30271   1.943   3.947   1.444 -0.0647  0.5955 -0.0019
 9791SOL    HW130272   2.001   3.872   1.474  0.7623  1.3245  0.2340
 9791SOL    HW230273   1.902   3.992   1.523  0.4266  1.1785 -0.0807
 9792SOL     OW30274   5.028   5.837   5.118 -0.1911 -0.1089 -0.3940
 9792SOL    HW130275   5.077   5.767   5.169  1.5562  0.5283 -1.1113
 9792SOL    HW230276   5.077   5.858   5.034  0.2354  3.0584  0.5085
 9793SOL     OW30277   5.123   5.702   1.410  0.0449  0.6131  0.1260
 9793SOL    HW130278   5.118   5.637   1.486 -2.2400  1.8466  1.1416
 9793SOL    HW230279   5.087   5.660   1.327  0.8283 -0.1514  0.1604
 9794SOL     OW30280   3.386   5.721   0.175  0.0551  0.4483 -0.0868
 9794SOL    HW130281   3.389   5.635   0.124 -1.2674 -0.7503  1.7625
 9794SOL    HW230282   3.465   5.726   0.237 -0.3893  0.0907  0.5152
 9795SOL     OW30283   0.710   5.570   2.959  0.7515 -0.1614 -0.2621
 9795SOL    HW130284   0.795   5.609   2.994  0.7578 -0.7748  0.4193
 9795SOL    HW230285   0.726   5.475   2.932  0.1359 -0.4861  0.4749
 9796SOL     OW30286   3.375   4.860   5.695  0.1359 -0.2354 -0.3493
 9796SOL    HW130287   3.449   4.793   5.695  1.1746  0.8234 -1.9861
 9796SOL    HW230288   3.396   4.932   5.628 -2.1856  0.3206 -0.5562
 9797SOL     OW30289   5.978   3.085   4.713 -0.3226 -0.5013  0.2372
 9797SOL    HW130290   5.892   3.080   4.764 -0.0673  0.3156  0.7645
 9797SOL    HW230291   6.051   3.116   4.774  0.2852 -0.8886 -0.2825
 9798SOL     OW30292   3.088   1.624   3.083 -0.1033  0.4011 -0.1788
 9798SOL    HW130293   3.110   1.540   3.133  0.5497 -0.2362 -1.4832
 9798SOL    HW230294   3.158   1.693   3.100  0.4281 -0.0130 -0.6357
 9799SOL     OW30295   2.945   3.849   3.342  0.4521  0.0909 -0.1255
 9799SOL    HW130296   2.912   3.762   3.305 -0.0530  0.9795 -1.8838
 9799SOL    HW230297   3.008   3.890   3.276 -0.1444  1.5486  0.1914
 9800SOL     OW30298   6.901   0.010   5.188 -0.0089 -0.0555  0.2762
 9800SOL    HW130299   6.950   0.067   5.122 -1.6574  0.6724 -0.3638
 9800SOL    HW230300   6.922   0.041   5.281  1.9520 -0.7786  0.1225
 9801SOL     OW30301   5.059   5.109   1.508  0.1620  0.3001  0.2985
 9801SOL    HW130302   5.144   5.155   1.532 -0.0221  0.4878  0.5951
 9801SOL    HW230303   5.041   5.121   1.410  0.7230 -0.1536  0.1372
 9802SOL     OW30304   1.583   6.789   2.294  0.3878  0.1490 -0.1344
 9802SOL    HW130305   1.499   6.838   2.271  0.3043  0.6878  1.2294
 9802SOL    HW230306   1.655   6.855   2.316  1.2360 -0.3018 -1.4428
 9803SOL     OW30307   4.790   6.151   0.551  0.0306 -0.0670 -0.1719
 9803SOL    HW130308   4.837   6.198   0.477 -3.0247  1.7413 -1.1419
 9803SOL    HW230309   4.736   6.075   0.513  0.0824 -0.4488  0.5072
 9804SOL     OW30310   5.759   5.710   2.833 -0.0513  0.5781 -0.3138
 9804SOL    HW130311   5.696   5.646   2.788 -0.1565  0.1141  0.4856
 9804SOL    HW230312   5.708   5.769   2.895  0.6205 -2.2332  3.2310
 9805SOL     OW30313   3.695   5.112   5.741 -0.2068  0.4439 -0.3814
 9805SOL    HW130314   3.769   5.160   5.788 -0.5887  1.4930 -0.8276
 9805SOL    HW230315   3.696   5.016   5.768 -0.2725  0.9543  1.6294
 9806SOL     OW30316   0.549   1.555   2.675 -0.4356  0.1663 -0.2978
 9806SOL    HW130317   0.551   1.559   2.774  0.1980 -0.0372 -0.2980
 9806SOL    HW230318   0.456   1.534   2.644 -0.3833 -1.0507  0.3062
 9807SOL     OW30319   4.068   3.722   5.924 -0.0360 -0.0458 -0.3322
 9807SOL    HW130320   4.106   3.757   6.009  0.5029 -0.1548 -0.5212
 9807SOL    HW230321   4.106   3.631   5.905 -1.3217 -0.6958  0.0912
 9808SOL     OW30322   2.711   2.228   2.263  0.1829 -0.1411 -0.1900
 9808SOL    HW130323   2.631   2.197   2.212 -1.1123  3.4464 -0.6085
 9808SOL    HW230324   2.780   2.262   2.200 -0.0073  1.1682  0.2740
 9809SOL     OW30325   1.223   6.870   3.860 -0.5909 -0.4741 -0.2268
 9809SOL    HW130326   1.274   6.837   3.781  2.7239  1.7762  0.7779
 9809SOL    HW230327   1.277   6.857   3.943 -2.1881  0.9498  1.1277
 9810SOL     OW30328   4.204   0.918   3.004 -0.6772  0.1014  0.0866
 9810SOL    HW130329   4.237   0.848   3.068 -1.7127 -1.5941 -1.1337
 9810SOL    HW230330   4.265   0.922   2.925 -2.3109 -1.8326 -1.3761
 9811SOL     OW30331   6.912   0.699   1.495  0.6001  0.6279 -0.1749
 9811SOL    HW130332   6.878   0.793   1.493  0.9242  0.8355  1.7472
 9811SOL    HW230333   6.866   0.649   1.569  0.2743 -0.8055 -1.3115
 9812SOL     OW30334   0.889   5.369   0.133 -0.1398  0.4453 -0.1580
 9812SOL    HW130335   0.893   5.280   0.179 -0.3054  0.2895 -0.4440
 9812SOL    HW230336   0.801   5.412   0.152 -0.6744 -0.1255 -1.2535
 9813SOL     OW30337   6.902   6.733   6.031  0.1412  0.3995 -0.4624
 9813SOL    HW130338   6.804   6.749   6.043 -0.2583 -1.3801 -1.0641
 9813SOL    HW230339   6.935   6.670   6.102  0.6160  0.1456 -0.9001
 9814SOL     OW30340   6.261   2.964   6.362  0.0955  0.8277 -0.0713
 9814SOL    HW130341   6.298   2.929   6.448 -1.1079  1.6987  0.8533
 9814SOL    HW230342   6.335   2.983   6.298  1.0762  0.7981  1.0283
 9815SOL     OW30343   0.326   5.581   1.666 -0.4548 -0.1105 -0.7185
 9815SOL    HW130344   0.386   5.659   1.648  0.1315 -0.7778 -1.7912
 9815SOL    HW230345   0.269   5.600   1.746  1.7892  0.2161  0.9104
 9816SOL     OW30346   0.677   2.504   5.561 -0.0702  0.4332 -0.2145
 9816SOL    HW130347   0.693   2.601   5.542  0.6012  0.6066  1.1592
 9816SOL    HW230348   0.733   2.475   5.638  0.2396 -1.2320 -1.0310
 9817SOL     OW30349   2.187   6.990   6.598 -0.0505  0.4893 -0.9595
 9817SOL    HW130350   2.109   6.952   6.648 -0.8247  3.6873  0.5765
 9817SOL    HW230351   2.268   6.988   6.657  0.2367  0.0061 -1.3695
 9818SOL     OW30352   0.293   0.439   2.233  0.0051 -0.8580 -0.3709
 9818SOL    HW130353   0.286   0.488   2.320 -1.3494  2.0380 -1.9808
 9818SOL    HW230354   0.213   0.378   2.224 -1.3224  0.8512 -0.6731
 9819SOL     OW30355   5.674   2.108   4.113 -0.3710 -0.9345 -0.5636
 9819SOL    HW130356   5.650   2.015   4.088 -0.7595 -1.4564  1.5187
 9819SOL    HW230357   5.716   2.108   4.204 -0.7744  0.9482 -0.3328
 9820SOL     OW30358   4.467   2.845   0.050 -0.4709 -0.2155  0.3818
 9820SOL    HW130359   4.543   2.891   0.095  0.6375  0.3482 -1.9127
 9820SOL    HW230360   4.449   2.758   0.097  2.6589 -1.1331  0.1266
 9821SOL     OW30361   3.911   4.050   0.207 -0.3372  0.8381 -0.0162
 9821SOL    HW130362   3.875   4.001   0.286  0.3552 -1.3319 -0.9785
 9821SOL    HW230363   3.862   4.022   0.124 -0.1159  2.0211 -0.5751
 9822SOL     OW30364   2.686   0.720   4.814  0.2399  0.1706 -0.1731
 9822SOL    HW130365   2.597   0.716   4.860  0.4697  1.0768  0.3766
 9822SOL    HW230366   2.686   0.795   4.748  0.1851 -0.6238 -1.0954
 9823SOL     OW30367   5.178   5.881   2.484 -0.2041  0.0997  0.1274
 9823SOL    HW130368   5.144   5.823   2.409 -0.3542  0.6021 -0.1955
 9823SOL    HW230369   5.102   5.902   2.546 -0.2287  0.2367  0.0526
 9824SOL     OW30370   0.908   0.517   6.307 -0.2371  0.0844 -0.9447
 9824SOL    HW130371   0.952   0.529   6.396 -2.1858 -0.3150  0.1184
 9824SOL    HW230372   0.965   0.559   6.236  1.3748  0.3813  0.4570
 9825SOL     OW30373   6.433   6.218   5.923 -0.0828 -0.8065  0.0751
 9825SOL    HW130374   6.383   6.301   5.902  0.3181 -0.1514  1.5648
 9825SOL    HW230375   6.495   6.196   5.848 -0.0052  0.3889 -0.2226
 9826SOL     OW30376   2.481   5.433   2.744  0.0401 -0.1878  0.1202
 9826SOL    HW130377   2.572   5.391   2.744  0.0324 -0.2460 -1.2836
 9826SOL    HW230378   2.487   5.526   2.779  0.5922 -0.2937  0.3226
 9827SOL     OW30379   1.533   3.911   0.399 -0.4257 -0.9009 -0.3592
 9827SOL    HW130380   1.495   4.003   0.389 -0.5207 -1.0134 -1.1079
 9827SOL    HW230381   1.561   3.877   0.309  3.2483 -0.0570  0.2863
 9828SOL     OW30382   4.743   1.894   3.605  0.2992  0.1652 -0.3131
 9828SOL    HW130383   4.799   1.942   3.538  0.7500 -0.6057 -0.4906
 9828SOL    HW230384   4.659   1.862   3.561  0.1872  0.4270 -0.2928
 9829SOL     OW30385   6.735   3.642   5.480  0.6905  0.4207 -0.6403
 9829SOL    HW130386   6.769   3.552   5.451 -1.1737 -0.2268 -1.0114
 9829SOL    HW230387   6.697   3.690   5.401 -1.7281 -0.0957  0.1326
 9830SOL     OW30388   0.951   0.335   1.478  0.0659 -0.4353 -0.0944
 9830SOL    HW130389   0.975   0.241   1.503  1.7052 -0.4854 -1.6110
 9830SOL    HW230390   1.034   0.384   1.453 -0.9299  0.9905 -0.7211
 9831SOL     OW30391   0.363   3.859   1.891 -0.4377 -0.0474 -0.5908
 9831SOL    HW130392   0.455   3.897   1.904 -1.1121  2.5748 -2.6508
 9831SOL    HW230393   0.320   3.845   1.981  1.6237 -0.5271  0.3766
 9832SOL     OW30394   6.103   4.721   6.768 -0.1174  0.2273  0.5547
 9832SOL    HW130395   6.069   4.779   6.694  1.6697 -1.4669 -1.7339
 9832SOL    HW230396   6.031   4.659   6.798 -0.7694  0.6802 -0.0494
 9833SOL     OW30397   3.351   2.884   3.372  0.2773 -0.3366  0.0115
 9833SOL    HW130398   3.253   2.900   3.370  0.0586 -1.4835  0.6645
 9833SOL    HW230399   3.382   2.857   3.281 -0.2005 -0.9486  0.0223
 9834SOL     OW30400   1.425   6.402   6.482  0.6596 -0.4321 -0.4595
 9834SOL    HW130401   1.484   6.468   6.529 -0.7946 -0.1026  0.9981
 9834SOL    HW230402   1.422   6.317   6.535 -2.0483  0.3972  0.9017
 9835SOL     OW30403   3.408   3.598   2.189  0.1343 -0.1988  0.1767
 9835SOL    HW130404   3.312   3.622   2.176 -0.2062 -0.7932  1.3642
 9835SOL    HW230405   3.456   3.598   2.101 -0.1874  3.1834 -0.1256
 9836SOL     OW30406   5.458   4.763   6.160  0.4435 -0.2484 -0.2102
 9836SOL    HW130407   5.387   4.752   6.230  0.8621  0.4411  0.3287
 9836SOL    HW230408   5.456   4.684   6.099 -1.4590  0.1977 -0.8211
 9837SOL     OW30409   1.905   6.757   4.006  0.4849  0.1215  0.6909
 9837SOL    HW130410   1.913   6.846   3.961  1.9143 -0.4838 -0.3098
 9837SOL    HW230411   1.900   6.685   3.937 -0.0738 -0.6230  1.4954
 9838SOL     OW30412   5.703   4.564   1.866  0.0744  0.4573 -0.3198
 9838SOL    HW130413   5.637   4.544   1.939 -1.2817 -0.3645 -1.7018
 9838SOL    HW230414   5.654   4.598   1.786  1.3206 -0.3231 -1.4514
 9839SOL     OW30415   4.147   5.776   3.604 -1.1651 -0.2282  0.2842
 9839SOL    HW130416   4.215   5.740   3.668 -0.1388 -0.6088 -1.0007
 9839SOL    HW230417   4.128   5.709   3.533 -2.2195  0.2282  0.1141
 9840SOL     OW30418   6.746   2.767   5.012 -0.6052  0.1802 -0.0632
 9840SOL    HW130419   6.770   2.700   4.942  0.0170 -0.7114  0.9750
 9840SOL    HW230420   6.827   2.821   5.035 -1.2000  1.6440 -1.2146
 9841SOL     OW30421   1.342   5.202   2.709  0.3463  0.6013  0.2828
 9841SOL    HW130422   1.405   5.267   2.751  1.0508  0.5268 -0.6357
 9841SOL    HW230423   1.366   5.188   2.613  1.6402 -2.6978  0.9339
 9842SOL     OW30424   4.156   0.340   2.213  0.6129 -0.1121  0.2523
 9842SOL    HW130425   4.068   0.300   2.187 -0.1051  1.1890  0.6250
 9842SOL    HW230426   4.155   0.361   2.311  2.1246 -2.0108  0.7414
 9843SOL     OW30427   6.095   0.939   0.885  0.5089 -0.4573  0.0671
 9843SOL    HW130428   6.103   0.843   0.912  1.1753 -1.0347 -2.0484
 9843SOL    HW230429   6.180   0.987   0.905  1.5871 -1.2598 -2.2252
 9844SOL     OW30430   5.555   6.365   4.119 -0.7457 -0.0377  0.0922
 9844SOL    HW130431   5.609   6.424   4.179 -1.5086 -0.8454  1.6211
 9844SOL    HW230432   5.486   6.316   4.173 -1.4155 -0.8503 -1.4400
 9845SOL     OW30433   2.158   4.354   1.544 -0.3918 -0.1345  0.6081
 9845SOL    HW130434   2.139   4.451   1.530  1.7929  0.0485 -1.6866
 9845SOL    HW230435   2.117   4.301   1.469  0.8672 -0.6246  0.2405
 9846SOL     OW30436   4.910   1.665   2.772  0.9924  0.1007 -0.7787
 9846SOL    HW130437   4.923   1.576   2.815 -0.0858 -0.5850 -1.7867
 9846SOL    HW230438   4.951   1.665   2.680  0.5413  0.4616 -0.9889
 9847SOL     OW30439   3.796   4.537   1.660 -0.2365  0.0326 -0.2258
 9847SOL    HW130440   3.714   4.549   1.715 -1.3759  1.0409 -2.0487
 9847SOL    HW230441   3.839   4.626   1.644  0.0082 -0.2287 -1.0573
 9848SOL     OW30442   2.049   2.421   0.364 -0.1494  0.1429 -0.3557
 9848SOL    HW130443   2.053   2.468   0.452  3.0350  1.0570 -0.8848
 9848SOL    HW230444   2.028   2.325   0.378  0.8472  0.1630  1.4534
 9849SOL     OW30445   2.304   2.618   2.246 -0.7122  0.4403  0.2755
 9849SOL    HW130446   2.276   2.578   2.334 -0.3966 -0.7803 -0.1606
 9849SOL    HW230447   2.284   2.553   2.172  2.5988 -0.2744 -0.1491
 9850SOL     OW30448   2.266   1.372   4.634 -0.0620 -0.7265 -0.6459
 9850SOL    HW130449   2.291   1.452   4.689 -2.9673 -0.3068  0.2578
 9850SOL    HW230450   2.349   1.327   4.601  1.7060  1.7693  0.0589
 9851SOL     OW30451   3.222   5.685   1.683  0.2704  0.4810  0.1003
 9851SOL    HW130452   3.295   5.677   1.615 -0.2214  0.9817 -0.5003
 9851SOL    HW230453   3.202   5.595   1.721  1.6264  0.4344  0.7301
 9852SOL     OW30454   0.167   0.103   0.277 -0.4924 -0.1457 -0.0250
 9852SOL    HW130455   0.226   0.111   0.358 -0.0769 -0.9547 -0.2325
 9852SOL    HW230456   0.107   0.023   0.287 -1.9194  0.9419  0.3973
 9853SOL     OW30457   6.028   4.371   4.733 -0.3233 -0.5798  0.0761
 9853SOL    HW130458   6.096   4.429   4.689 -0.1240 -0.3319  0.7033
 9853SOL    HW230459   5.943   4.423   4.746  0.4035  0.1909  2.2405
 9854SOL     OW30460   0.465   5.349   1.019 -0.1039  0.0911  0.0206
 9854SOL    HW130461   0.471   5.427   0.957  0.2185 -0.6427 -0.8923
 9854SOL    HW230462   0.554   5.333   1.061 -0.4127  0.8195  0.9822
 9855SOL     OW30463   0.383   6.066   0.870  0.5409 -0.1091  0.3927
 9855SOL    HW130464   0.378   6.139   0.802 -1.2897 -1.7736 -1.3904
 9855SOL    HW230465   0.302   6.069   0.928  0.3663 -0.8174  0.1927
 9856SOL     OW30466   4.554   4.482   4.444 -0.6880  0.3934  0.1520
 9856SOL    HW130467   4.629   4.427   4.478  0.0931  0.3236 -1.5939
 9856SOL    HW230468   4.557   4.573   4.487  1.3091  0.9007 -0.9438
 9857SOL     OW30469   4.699   6.764   4.968 -0.0655  0.6057 -0.1288
 9857SOL    HW130470   4.648   6.680   4.988  1.2199 -0.4986 -1.2008
 9857SOL    HW230471   4.687   6.789   4.872 -0.1010  1.4182  0.0801
 9858SOL     OW30472   6.281   5.294   3.515  0.2128 -0.1317 -0.3810
 9858SOL    HW130473   6.247   5.244   3.595  0.6205  0.7249  0.3380
 9858SOL    HW230474   6.368   5.337   3.537  1.1567 -1.2048 -1.7944
 9859SOL     OW30475   6.652   6.607   3.528 -0.1724  0.2928 -0.0098
 9859SOL    HW130476   6.685   6.643   3.616 -0.0299 -1.4522  0.6931
 9859SOL    HW230477   6.591   6.674   3.486  2.2316  2.5868 -0.1558
 9860SOL     OW30478   1.569   3.439   4.882  0.3644 -0.4281 -0.7835
 9860SOL    HW130479   1.637   3.372   4.851 -1.7248 -2.1262 -1.9371
 9860SOL    HW230480   1.495   3.445   4.815 -1.6611 -0.1683  1.3595
 9861SOL     OW30481   5.926   2.348   5.151 -1.2298 -0.4920 -0.0510
 9861SOL    HW130482   5.869   2.426   5.125  0.8816  0.4990 -1.9566
 9861SOL    HW230483   5.990   2.326   5.078  0.7307 -1.6763  1.8714
 9862SOL     OW30484   1.419   3.471   5.452  0.9888 -0.7024  0.9688
 9862SOL    HW130485   1.441   3.474   5.549 -0.6144  0.3907  1.3214
 9862SOL    HW230486   1.331   3.427   5.438  0.1163  1.1768  0.2446
 9863SOL     OW30487   1.515   6.355   0.996  0.3884  0.0288  0.4945
 9863SOL    HW130488   1.481   6.286   0.933 -1.2397 -0.2172  1.5662
 9863SOL    HW230489   1.495   6.446   0.960  1.5296 -0.0530 -0.3912
 9864SOL     OW30490   3.412   4.966   5.276 -0.3690  0.3617 -0.1725
 9864SOL    HW130491   3.360   4.990   5.358 -0.2413  0.7396 -0.1991
 9864SOL    HW230492   3.367   5.004   5.195  1.3039  3.0581  0.0073
 9865SOL     OW30493   1.648   0.029   5.617  0.2874 -0.0398 -0.2849
 9865SOL    HW130494   1.644   0.108   5.555  3.1882  0.7890  0.4238
 9865SOL    HW230495   1.601   0.051   5.702 -0.7111  0.1186 -0.8598
 9866SOL     OW30496   0.618   6.057   4.832  0.3733 -0.8109 -0.2419
 9866SOL    HW130497   0.612   6.066   4.932 -0.7506 -0.8490 -0.2921
 9866SOL    HW230498   0.674   5.977   4.809  2.1434  0.2082  0.3137
 9867SOL     OW30499   5.344   0.604   2.372  0.8083 -1.0091 -0.0960
 9867SOL    HW130500   5.253   0.562   2.372  1.1876 -1.8594 -0.0969
 9867SOL    HW230501   5.348   0.675   2.301  0.4929 -1.7601 -0.8900
 9868SOL     OW30502   0.724   4.798   3.958 -0.2575  0.1099  0.4094
 9868SOL    HW130503   0.811   4.837   3.991 -0.7063  2.3431 -0.8237
 9868SOL    HW230504   0.729   4.783   3.860 -0.6689 -1.5433  0.6207
 9869SOL     OW30505   6.239   3.181   1.780  0.0692 -0.5277  0.1530
 9869SOL    HW130506   6.222   3.083   1.771 -0.9534 -0.3516  0.0545
 9869SOL    HW230507   6.158   3.226   1.817  0.4207  0.3257 -0.0836
 9870SOL     OW30508   1.893   3.260   0.726 -0.2424  0.1985  0.1534
 9870SOL    HW130509   1.844   3.319   0.661  0.7116  1.0422  0.1831
 9870SOL    HW230510   1.965   3.211   0.678 -1.9694 -2.1725 -0.1987
 9871SOL     OW30511   6.316   4.816   1.712 -0.3887 -0.8440 -0.1888
 9871SOL    HW130512   6.290   4.834   1.617 -0.0359 -0.3086 -0.1877
 9871SOL    HW230513   6.389   4.747   1.714 -1.3322 -1.8708 -0.2260
 9872SOL     OW30514   6.413   6.737   5.386 -0.1440  0.2660 -0.3067
 9872SOL    HW130515   6.380   6.643   5.389  0.9441 -0.1518  3.3706
 9872SOL    HW230516   6.341   6.797   5.350 -2.1237 -1.5278  0.4931
 9873SOL     OW30517   6.461   1.540   3.785 -0.2219  0.2395 -0.3144
 9873SOL    HW130518   6.548   1.567   3.826  0.0738  1.1359 -1.4517
 9873SOL    HW230519   6.475   1.461   3.725 -0.2571  0.1778 -0.2413
 9874SOL     OW30520   0.394   3.397   4.842 -0.0318  0.1577 -0.3994
 9874SOL    HW130521   0.464   3.463   4.868  0.9349 -1.0994  0.2836
 9874SOL    HW230522   0.367   3.412   4.747  1.3150  0.5434 -0.7417
 9875SOL     OW30523   2.910   5.972   0.175 -0.3270 -0.2555  0.4736
 9875SOL    HW130524   2.855   6.052   0.151 -0.4445 -0.6088 -0.5168
 9875SOL    HW230525   3.005   5.999   0.191  0.0520 -0.1289 -1.7111
 9876SOL     OW30526   0.778   6.783   1.712 -0.3571  0.2841  0.5311
 9876SOL    HW130527   0.743   6.742   1.796 -1.3133 -0.7959 -0.3594
 9876SOL    HW230528   0.841   6.719   1.668 -2.4453 -0.6616 -1.2628
 9877SOL     OW30529   1.378   4.631   5.017 -0.5531  0.2749 -0.8400
 9877SOL    HW130530   1.322   4.593   4.944 -0.9079  0.5086 -0.6893
 9877SOL    HW230531   1.325   4.635   5.102  0.0980 -0.7181 -0.3707
 9878SOL     OW30532   3.298   2.174   6.327 -0.6049 -0.5136  0.3286
 9878SOL    HW130533   3.259   2.139   6.242  1.2642  2.1630 -1.7876
 9878SOL    HW230534   3.251   2.258   6.353  0.9665  0.4529  0.0907
 9879SOL     OW30535   5.263   5.507   5.138  0.0129 -0.4620 -0.1740
 9879SOL    HW130536   5.285   5.421   5.184  1.4236 -0.0423 -0.0112
 9879SOL    HW230537   5.262   5.491   5.039 -1.9812 -1.1321 -0.0902
 9880SOL     OW30538   3.150   2.040   6.118 -0.1143 -0.1705 -0.1548
 9880SOL    HW130539   3.052   2.049   6.136 -0.7903 -2.1311 -2.3384
 9880SOL    HW230540   3.169   2.067   6.023  1.4849  0.2446  0.2595
 9881SOL     OW30541   4.584   5.421   1.476 -0.1492  0.0335 -0.7559
 9881SOL    HW130542   4.681   5.441   1.468 -0.0630 -0.4193 -0.8438
 9881SOL    HW230543   4.540   5.491   1.534  0.6551 -1.0158  1.2280
 9882SOL     OW30544   2.289   4.578   5.374 -0.4107 -0.3686  0.1142
 9882SOL    HW130545   2.322   4.628   5.294 -0.3006  1.4286  1.2317
 9882SOL    HW230546   2.202   4.535   5.353  0.1115 -0.8101 -1.2745
 9883SOL     OW30547   0.986   4.366   2.615  0.1322  0.1393 -0.1343
 9883SOL    HW130548   0.927   4.297   2.573  0.8534 -0.5819  0.0078
 9883SOL    HW230549   0.998   4.344   2.712 -1.5469  1.8056  0.5131
 9884SOL     OW30550   4.332   3.988   5.445  0.2611 -0.2468 -0.4107
 9884SOL    HW130551   4.246   4.016   5.403  0.2790 -0.7774 -0.8109
 9884SOL    HW230552   4.331   4.011   5.542  0.2530  1.0800 -0.7020
 9885SOL     OW30553   4.615   2.794   5.191 -0.0243  0.2821 -0.3593
 9885SOL    HW130554   4.559   2.718   5.224  1.0690 -0.4682 -0.1561
 9885SOL    HW230555   4.619   2.792   5.091 -0.3657  0.3577 -0.3764
 9886SOL     OW30556   2.165   6.605   6.930 -0.0854 -0.6550 -0.7161
 9886SOL    HW130557   2.141   6.574   7.022 -2.8425  0.4018 -0.9758
 9886SOL    HW230558   2.258   6.641   6.930 -0.7769  1.5620  2.3355
 9887SOL     OW30559   5.313   0.944   0.065 -0.2791  0.0786 -0.2061
 9887SOL    HW130560   5.395   0.925   0.118 -1.1270 -0.5352  0.9210
 9887SOL    HW230561   5.269   0.858   0.039 -1.0578  0.4131 -0.0145
 9888SOL     OW30562   0.118   6.897   5.263  0.1869  0.2220 -0.2273
 9888SOL    HW130563   0.190   6.951   5.219  0.8049  0.0120  0.5125
 9888SOL    HW230564   0.038   6.892   5.202  0.3540  1.4277 -0.5696
 9889SOL     OW30565   6.033   5.631   2.147 -0.2247  0.4776 -0.1802
 9889SOL    HW130566   6.108   5.569   2.170 -0.0061  0.7408 -0.1781
 9889SOL    HW230567   5.970   5.637   2.224  0.3706  1.1594  0.2681
 9890SOL     OW30568   2.172   3.105   5.166 -0.0595 -0.5354 -0.9183
 9890SOL    HW130569   2.196   3.183   5.223 -0.6379 -0.9619 -0.0664
 9890SOL    HW230570   2.254   3.053   5.143  0.2349 -0.0939 -0.8695
 9891SOL     OW30571   2.944   0.708   6.806 -0.1968 -0.6951 -0.4211
 9891SOL    HW130572   3.030   0.694   6.855 -0.2014 -2.3976 -0.8433
 9891SOL    HW230573   2.878   0.640   6.835 -1.8692  1.3287  0.8012
 9892SOL     OW30574   2.890   0.523   4.760  0.0787 -0.4642  0.4244
 9892SOL    HW130575   2.796   0.551   4.738  0.1489 -0.1692  0.5020
 9892SOL    HW230576   2.942   0.603   4.791  0.2483 -0.7030  0.7527
 9893SOL     OW30577   5.923   3.822   3.786  0.1255  0.3773 -0.5743
 9893SOL    HW130578   5.847   3.812   3.722  1.0064 -0.1277 -1.5790
 9893SOL    HW230579   5.996   3.875   3.743  1.3333 -1.2164 -0.5619
 9894SOL     OW30580   6.434   2.619   6.177  0.2965  0.2320 -0.1195
 9894SOL    HW130581   6.340   2.588   6.161 -0.2810  1.6905  0.2489
 9894SOL    HW230582   6.450   2.628   6.275  0.1437  1.8571 -0.2124
 9895SOL     OW30583   4.880   2.576   5.726 -0.2311  0.8266  0.1926
 9895SOL    HW130584   4.870   2.565   5.627 -0.7440 -2.6577  0.5011
 9895SOL    HW230585   4.794   2.610   5.765 -0.3506  1.2612 -0.4341
 9896SOL     OW30586   3.332   2.829   5.898 -0.3834 -0.7000 -0.5417
 9896SOL    HW130587   3.430   2.809   5.895 -0.5184 -1.2826 -1.3823
 9896SOL    HW230588   3.314   2.912   5.845 -0.4608 -1.1292 -1.2002
 9897SOL     OW30589   1.461   1.445   4.278  0.1881  0.1503 -0.3995
 9897SOL    HW130590   1.459   1.448   4.178  0.9492 -1.3926 -0.5029
 9897SOL    HW230591   1.448   1.350   4.308 -0.6575  0.6925  0.9973
 9898SOL     OW30592   1.000   5.798   6.392  0.4711 -0.2177 -0.5174
 9898SOL    HW130593   0.977   5.701   6.387  0.8615 -0.3770  0.5806
 9898SOL    HW230594   0.951   5.848   6.320 -0.1636 -1.1386 -0.7319
 9899SOL     OW30595   3.689   3.944   0.074  0.1855  0.5245 -0.1330
 9899SOL    HW130596   3.592   3.961   0.061 -0.5255 -1.7765  1.5143
 9899SOL    HW230597   3.723   3.887  -0.001 -0.1297  0.0627  0.0698
 9900SOL     OW30598   3.155   5.095   3.427 -0.1227  0.7622  0.0692
 9900SOL    HW130599   3.185   5.010   3.469 -0.1961 -0.6542 -2.5235
 9900SOL    HW230600   3.055   5.101   3.433 -0.4283 -0.7984 -2.0605
 9901SOL     OW30601   4.280   1.621   6.909 -0.0460 -0.0437 -0.2695
 9901SOL    HW130602   4.370   1.578   6.919 -0.0364  0.1099  0.3852
 9901SOL    HW230603   4.247   1.609   6.816 -1.0183 -3.3334  0.3936
 9902SOL     OW30604   2.777   4.977   4.644 -0.3632  0.2149 -0.1497
 9902SOL    HW130605   2.776   5.067   4.602 -1.8889  0.1714 -0.2773
 9902SOL    HW230606   2.686   4.957   4.682  0.5838 -0.2915  2.0028
 9903SOL     OW30607   2.926   2.686   0.469 -0.0408  0.6540 -0.4535
 9903SOL    HW130608   2.998   2.639   0.520  1.0457  1.3779 -1.2916
 9903SOL    HW230609   2.852   2.622   0.449  1.1488 -0.5533 -1.0862
 9904SOL     OW30610   5.602   0.565   2.281 -0.3056 -0.1897 -0.3185
 9904SOL    HW130611   5.518   0.538   2.327 -0.1858  0.2542  0.1719
 9904SOL    HW230612   5.646   0.484   2.241 -0.9525 -0.4244 -0.5679
 9905SOL     OW30613   0.238   6.863   6.670 -0.3172  0.1752  0.2234
 9905SOL    HW130614   0.304   6.925   6.710 -0.4130  0.6562 -0.3507
 9905SOL    HW230615   0.280   6.773   6.656  0.1645  0.4333  0.0055
 9906SOL     OW30616   1.826   2.634   5.826  0.7085  0.0560  0.7350
 9906SOL    HW130617   1.799   2.730   5.823  1.6551  0.3320  0.8834
 9906SOL    HW230618   1.815   2.593   5.736 -0.3338  0.1109  0.8171
 9907SOL     OW30619   0.271   0.702   3.974  0.1294  0.3312 -0.0776
 9907SOL    HW130620   0.271   0.723   3.876  1.8070 -0.4626 -0.2908
 9907SOL    HW230621   0.362   0.719   4.011  0.2312 -1.7769  0.7793
 9908SOL     OW30622   6.799   4.569   0.316 -0.2224  0.1266 -0.1698
 9908SOL    HW130623   6.761   4.498   0.256 -0.5999 -0.3826  0.6598
 9908SOL    HW230624   6.897   4.555   0.326 -0.3188 -0.3714  0.1046
 9909SOL     OW30625   2.321   4.873   2.675 -0.4844 -0.3269  1.0329
 9909SOL    HW130626   2.225   4.891   2.693 -0.2270 -0.7438  3.0651
 9909SOL    HW230627   2.360   4.948   2.622 -1.2478  1.3133  2.6940
 9910SOL     OW30628   0.825   5.198   1.777  0.2846 -0.2424 -0.6664
 9910SOL    HW130629   0.734   5.162   1.799  0.4113  0.7157  1.7832
 9910SOL    HW230630   0.895   5.141   1.820  0.6180  1.1871  0.7571
 9911SOL     OW30631   2.787   4.482   1.602  0.2827  0.1154  0.3328
 9911SOL    HW130632   2.834   4.454   1.685  2.0143  0.3013 -0.5378
 9911SOL    HW230633   2.805   4.579   1.585  0.6411 -0.1145 -0.6739
 9912SOL     OW30634   5.378   6.979   1.559  0.2406  0.1987  0.0481
 9912SOL    HW130635   5.325   7.062   1.574 -0.7893 -0.5206  0.5261
 9912SOL    HW230636   5.346   6.933   1.477  2.0851  1.2056 -1.3273
 9913SOL     OW30637   0.294   3.850   6.867  0.0713  0.0790 -0.6581
 9913SOL    HW130638   0.331   3.920   6.805  1.2370 -0.9680 -1.1836
 9913SOL    HW230639   0.301   3.882   6.961  0.8956  0.5627 -0.8667
 9914SOL     OW30640   2.088   5.703   3.911 -0.4562  0.3454 -0.2459
 9914SOL    HW130641   2.033   5.651   3.846 -0.0309 -0.5721  0.1087
 9914SOL    HW230642   2.076   5.664   4.003 -0.4495  1.1382  0.0998
 9915SOL     OW30643   6.047   4.614   3.308  0.1628 -0.5085 -0.3795
 9915SOL    HW130644   6.043   4.514   3.310  0.6076 -0.5278  0.0238
 9915SOL    HW230645   6.004   4.651   3.390  0.5880 -0.4011 -0.1991
 9916SOL     OW30646   1.768   1.830   1.229 -0.0552  0.7361 -0.1022
 9916SOL    HW130647   1.756   1.761   1.300  2.8279  2.1150  1.9547
 9916SOL    HW230648   1.804   1.787   1.146 -0.4746 -0.5079  0.3345
 9917SOL     OW30649   1.718   4.028   4.566  0.2455 -0.2688 -0.2369
 9917SOL    HW130650   1.700   3.992   4.657 -0.6561  0.0192 -0.3015
 9917SOL    HW230651   1.791   3.974   4.523  1.3711  0.1931  1.0080
 9918SOL     OW30652   3.334   0.989   4.184  0.5404  0.3487 -0.8081
 9918SOL    HW130653   3.341   1.086   4.160  2.2518  0.5830  0.5408
 9918SOL    HW230654   3.271   0.979   4.261  1.6280  0.6037  0.1326
 9919SOL     OW30655   6.843   4.211   1.055  0.3612 -0.0913  0.1598
 9919SOL    HW130656   6.843   4.133   0.993 -0.5325 -1.2096  1.5113
 9919SOL    HW230657   6.929   4.213   1.107 -0.0967 -0.9031  0.9727
 9920SOL     OW30658   3.894   1.815   4.329 -0.1942 -0.6561 -0.3358
 9920SOL    HW130659   3.857   1.900   4.291  0.2321 -0.7759 -1.0501
 9920SOL    HW230660   3.994   1.820   4.330 -0.1701 -1.1085 -0.2960
 9921SOL     OW30661   3.740   5.987   6.790  0.1068  0.1113 -0.3811
 9921SOL    HW130662   3.719   5.978   6.692 -0.0678 -1.3842 -0.2366
 9921SOL    HW230663   3.657   5.973   6.843  0.3284  0.2692  0.0078
 9922SOL     OW30664   5.969   1.012   2.171 -0.3732 -0.1515 -0.0571
 9922SOL    HW130665   6.002   0.918   2.183 -2.9295 -1.1985 -0.4358
 9922SOL    HW230666   5.930   1.044   2.258 -1.9389 -0.5222 -0.5910
 9923SOL     OW30667   6.527   0.192   5.984  0.2177 -0.6850  0.0432
 9923SOL    HW130668   6.614   0.204   6.032 -0.4128  0.2350  1.0046
 9923SOL    HW230669   6.462   0.261   6.015 -0.6111 -0.8497 -1.2638
 9924SOL     OW30670   4.811   6.958   3.995  0.0561  0.0011 -0.3045
 9924SOL    HW130671   4.739   6.982   4.059 -0.4932  1.0170 -1.2677
 9924SOL    HW230672   4.900   6.977   4.036 -0.2988  1.1841 -0.0489
 9925SOL     OW30673   3.162   2.985   4.403  0.5034  0.0136  0.3287
 9925SOL    HW130674   3.155   2.977   4.502  0.0228 -0.5422  0.2603
 9925SOL    HW230675   3.221   3.062   4.379 -0.2552  0.8374  1.0409
 9926SOL     OW30676   1.391   0.020   6.642 -0.3416 -0.0364 -0.6882
 9926SOL    HW130677   1.393   0.019   6.542  1.8539 -0.9476 -0.6921
 9926SOL    HW230678   1.477   0.059   6.677 -0.5450 -0.8769  0.8377
 9927SOL     OW30679   1.577   4.590   4.210  0.1534  0.0184 -0.1553
 9927SOL    HW130680   1.534   4.500   4.208  0.2709 -0.0691  0.7827
 9927SOL    HW230681   1.561   4.637   4.123 -0.1727 -0.7815 -0.5335
 9928SOL     OW30682   1.738   3.209   1.912 -0.1152 -0.1342 -0.3081
 9928SOL    HW130683   1.801   3.243   1.843 -0.5323 -0.7499 -0.9992
 9928SOL    HW230684   1.646   3.242   1.893 -0.0621  0.5341  0.5415
 9929SOL     OW30685   0.710   5.115   4.598 -0.0538  0.3635  0.1739
 9929SOL    HW130686   0.774   5.112   4.522  0.7798  1.3476  0.8203
 9929SOL    HW230687   0.625   5.158   4.569 -0.6697 -1.3995 -0.8290
 9930SOL     OW30688   5.123   0.743   5.031  0.6458  0.3558  0.1727
 9930SOL    HW130689   5.159   0.793   4.952 -0.9682  0.6435 -0.4049
 9930SOL    HW230690   5.172   0.773   5.113  1.4088  1.0593 -0.5144
 9931SOL     OW30691   0.034   4.419   0.032 -0.1412 -0.2856  0.0875
 9931SOL    HW130692   0.115   4.386  -0.016  0.0530  0.3604 -0.0348
 9931SOL    HW230693   0.043   4.517   0.049 -0.4452 -0.4034  0.9703
 9932SOL     OW30694   0.717   1.026   1.661 -0.1535  0.4498 -0.1494
 9932SOL    HW130695   0.692   0.947   1.717 -0.0694 -0.5727 -1.4899
 9932SOL    HW230696   0.685   1.109   1.705 -0.6956 -0.3655  1.0609
 9933SOL     OW30697   1.531   3.129   3.270  0.2169 -0.1168  0.5118
 9933SOL    HW130698   1.513   3.112   3.173 -0.5610  1.0131  0.4370
 9933SOL    HW230699   1.613   3.186   3.279 -0.2320  0.5546  0.4489
 9934SOL     OW30700   6.118   1.378   6.763  0.0575 -0.1352  0.2293
 9934SOL    HW130701   6.067   1.292   6.752 -0.6996  0.4368 -0.8077
 9934SOL    HW230702   6.209   1.368   6.722 -1.0954  0.4810 -2.7421
 9935SOL     OW30703   2.445   2.849   6.485 -0.2078  0.2617  0.1121
 9935SOL    HW130704   2.411   2.887   6.571  0.6051 -0.5322  0.8128
 9935SOL    HW230705   2.375   2.791   6.444 -0.9735  1.4393 -0.3040
 9936SOL     OW30706   4.454   5.886   1.335 -0.2029  0.1389 -0.4144
 9936SOL    HW130707   4.378   5.828   1.306 -0.1472 -0.3945  0.4818
 9936SOL    HW230708   4.418   5.964   1.387 -0.3631  1.4628 -2.4007
 9937SOL     OW30709   0.761   0.130   4.639  0.3041  0.2528  0.3525
 9937SOL    HW130710   0.762   0.229   4.654  1.1101  0.4376 -0.7481
 9937SOL    HW230711   0.783   0.111   4.544  0.6581 -1.0104  0.6672
 9938SOL     OW30712   1.322   1.797   6.092 -0.2545 -0.2291  0.7041
 9938SOL    HW130713   1.411   1.773   6.054 -0.5329  0.2456 -0.2559
 9938SOL    HW230714   1.255   1.729   6.065  0.0068 -1.1956  2.3308
 9939SOL     OW30715   3.916   2.422   0.275  0.5525  0.2566  0.1667
 9939SOL    HW130716   3.867   2.502   0.309 -2.0321 -0.2989 -1.9370
 9939SOL    HW230717   3.940   2.436   0.179 -0.3346 -1.6050 -0.3776
 9940SOL     OW30718   5.998   3.212   5.599 -0.1728 -0.1924 -0.4010
 9940SOL    HW130719   6.049   3.295   5.626  0.5192 -0.8368  0.3237
 9940SOL    HW230720   5.900   3.231   5.602 -0.1491 -0.1047  2.3408
 9941SOL     OW30721   6.556   3.588   6.595  0.2970 -0.5829 -0.2389
 9941SOL    HW130722   6.457   3.577   6.585  0.3889 -0.8857 -0.9180
 9941SOL    HW230723   6.580   3.596   6.691 -0.2971 -1.5116 -0.0012
 9942SOL     OW30724   4.953   4.713   1.411  0.1247  0.0186  0.0829
 9942SOL    HW130725   4.992   4.754   1.329  1.0504 -1.4402 -0.2538
 9942SOL    HW230726   4.978   4.767   1.491  0.8909  0.3708 -0.3843
 9943SOL     OW30727   2.163   3.418   4.921  0.6241 -0.1067  0.3572
 9943SOL    HW130728   2.253   3.393   4.957  0.7148 -0.4908 -0.1346
 9943SOL    HW230729   2.095   3.409   4.994  0.4924 -2.6951  0.0041
 9944SOL     OW30730   2.787   4.909   5.003  0.7282 -0.0706 -0.6350
 9944SOL    HW130731   2.712   4.937   5.063  0.3725 -0.4242 -0.9080
 9944SOL    HW230732   2.798   4.810   5.008  1.7251  0.0548  0.0312
 9945SOL     OW30733   6.305   4.312   6.863 -0.1147 -0.4135  0.3733
 9945SOL    HW130734   6.314   4.412   6.859 -0.4286 -0.3687  0.7953
 9945SOL    HW230735   6.385   4.274   6.909  1.3909 -0.5923 -2.1896
 9946SOL     OW30736   5.654   4.076   0.788  0.7142  0.1259 -0.4776
 9946SOL    HW130737   5.676   4.026   0.704 -1.0069  1.0843 -1.5583
 9946SOL    HW230738   5.700   4.165   0.787 -0.0310  0.5151 -0.8634
 9947SOL     OW30739   0.434   2.669   2.318  0.8381  0.1556  0.1505
 9947SOL    HW130740   0.521   2.716   2.331  1.6868 -1.4543  0.5061
 9947SOL    HW230741   0.449   2.571   2.311 -0.9790 -0.1871  0.4251
 9948SOL     OW30742   3.944   1.545   5.800  0.1979  0.2883 -0.1185
 9948SOL    HW130743   4.024   1.556   5.859  0.0145 -0.4489  0.2859
 9948SOL    HW230744   3.915   1.634   5.766 -1.7310  1.2705  3.5651
 9949SOL     OW30745   7.006   2.562   2.518 -0.4120  0.2002  0.0133
 9949SOL    HW130746   7.105   2.572   2.504 -0.2083  0.2748  1.4081
 9949SOL    HW230747   6.971   2.491   2.456  0.0958  1.6660 -2.0503
 9950SOL     OW30748   4.675   5.194   6.478  0.5456 -0.6320  0.0117
 9950SOL    HW130749   4.683   5.110   6.532 -1.5293 -0.9084 -0.0172
 9950SOL    HW230750   4.639   5.172   6.388  0.1468  0.2798 -0.0597
 9951SOL     OW30751   6.205   2.664   3.565 -0.2138  0.8346 -0.4532
 9951SOL    HW130752   6.245   2.599   3.629  2.2490  0.8155 -1.8799
 9951SOL    HW230753   6.113   2.688   3.595  0.0550 -0.7424  1.9082
 9952SOL     OW30754   2.938   3.512   0.392  0.0587 -0.2181  0.0813
 9952SOL    HW130755   3.033   3.487   0.410 -0.2877 -0.4939  1.6802
 9952SOL    HW230756   2.921   3.605   0.424 -0.1494 -0.0864 -0.4098
 9953SOL     OW30757   5.309   4.668   4.323  0.1693  0.6569  0.1273
 9953SOL    HW130758   5.270   4.592   4.376  0.6520  1.5230  1.7941
 9953SOL    HW230759   5.262   4.674   4.235 -0.0270 -1.4239  0.0434
 9954SOL     OW30760   6.860   2.790   3.696  0.0352 -0.5197  0.2868
 9954SOL    HW130761   6.867   2.712   3.758  2.8077 -1.1037 -0.5966
 9954SOL    HW230762   6.933   2.785   3.627 -1.1177  1.6454 -1.2337
 9955SOL     OW30763   1.459   6.616   0.877  0.1633  0.7837 -0.6310
 9955SOL    HW130764   1.553   6.613   0.844  0.0108  0.4370 -1.0425
 9955SOL    HW230765   1.451   6.684   0.950  1.1295 -0.4023  0.6283
 9956SOL     OW30766   2.695   5.047   3.570  0.3323  0.4551  0.2916
 9956SOL    HW130767   2.626   5.020   3.637 -0.1409 -0.7341 -0.6311
 9956SOL    HW230768   2.770   4.981   3.572 -0.1456 -0.1691 -0.9859
 9957SOL     OW30769   4.652   0.533   0.181 -0.2816 -0.1418  0.0588
 9957SOL    HW130770   4.612   0.607   0.127 -0.2964 -1.4241 -1.7523
 9957SOL    HW230771   4.593   0.453   0.177 -1.4188  0.3082  3.8190
 9958SOL     OW30772   5.010   6.989   6.442 -0.4093  0.1886 -0.2279
 9958SOL    HW130773   4.966   7.003   6.353  2.0843 -0.3346 -1.6457
 9958SOL    HW230774   5.008   6.891   6.465  2.9572 -0.4900 -2.1187
 9959SOL     OW30775   5.735   5.957   6.577  0.8880 -0.7315 -0.1473
 9959SOL    HW130776   5.758   5.874   6.628 -0.0638  0.0568  1.6662
 9959SOL    HW230777   5.666   5.935   6.508 -1.1488 -1.1295  1.8772
 9960SOL     OW30778   5.333   2.974   0.009  0.8969  0.1340  0.4078
 9960SOL    HW130779   5.310   3.055  -0.044  2.2819  0.3925  0.1749
 9960SOL    HW230780   5.432   2.968   0.021  0.7801 -1.2086  0.9250
 9961SOL     OW30781   4.211   5.780   1.242  0.2284  0.0815 -0.8819
 9961SOL    HW130782   4.186   5.684   1.227  0.9572 -0.2579 -0.0137
 9961SOL    HW230783   4.129   5.836   1.238 -0.1925 -0.5480 -1.5603
 9962SOL     OW30784   5.285   1.561   2.062 -0.1357  0.4214 -0.0922
 9962SOL    HW130785   5.224   1.558   1.983 -1.4963 -1.5433  0.9338
 9962SOL    HW230786   5.323   1.469   2.078  2.7207  1.4646 -0.3677
 9963SOL     OW30787   1.016   0.890   6.378  0.0662  0.2618  0.0141
 9963SOL    HW130788   0.917   0.905   6.370  0.1365  1.6315  1.3270
 9963SOL    HW230789   1.048   0.836   6.299 -1.4628  1.0641 -1.2085
 9964SOL     OW30790   5.355   5.990   3.962 -0.0255  0.3347  0.4713
 9964SOL    HW130791   5.337   5.975   3.865 -0.4829  0.8447  0.4735
 9964SOL    HW230792   5.346   6.088   3.983  2.0901  0.5285  0.6198
 9965SOL     OW30793   6.826   5.069   5.467 -0.2830  0.6046  0.1930
 9965SOL    HW130794   6.876   5.098   5.549  0.6136 -0.7997  0.1743
 9965SOL    HW230795   6.744   5.019   5.495  0.1989 -0.1751  0.2798
 9966SOL     OW30796   3.122   3.620   0.146 -0.0712  0.3639 -0.1281
 9966SOL    HW130797   3.212   3.599   0.184  0.2608 -0.2337 -1.2009
 9966SOL    HW230798   3.103   3.557   0.070 -0.8607  1.2809 -0.7080
 9967SOL     OW30799   0.258   1.931   1.390 -0.1054 -0.3415  0.2166
 9967SOL    HW130800   0.225   1.859   1.328  0.8327  0.0312 -0.7539
 9967SOL    HW230801   0.181   1.971   1.439 -0.6377 -2.0862  0.8749
 9968SOL     OW30802   4.711   0.733   6.273 -0.2873  0.3622  0.7683
 9968SOL    HW130803   4.759   0.777   6.198 -1.1370  0.0132  0.0067
 9968SOL    HW230804   4.775   0.676   6.325  0.0663 -0.3187 -0.3943
 9969SOL     OW30805   6.534   0.912   3.425 -0.0050 -0.2705  0.1524
 9969SOL    HW130806   6.473   0.991   3.434  0.5367  0.1159  0.4613
 9969SOL    HW230807   6.618   0.939   3.378  0.1076 -0.7050  0.0963
 9970SOL     OW30808   1.797   2.599   0.479  0.2596 -0.2579 -0.1102
 9970SOL    HW130809   1.891   2.600   0.515  0.1141  2.5479  0.4308
 9970SOL    HW230810   1.763   2.693   0.473 -2.0376 -1.1046 -1.6562
 9971SOL     OW30811   6.791   0.125   6.906  0.5416  0.5040 -0.4707
 9971SOL    HW130812   6.888   0.100   6.904  0.3594 -0.3818  0.8084
 9971SOL    HW230813   6.756   0.114   6.998 -0.8177  0.7287 -0.9435
 9972SOL     OW30814   1.664   4.658   4.476  1.1215  0.2992 -0.1699
 9972SOL    HW130815   1.643   4.674   4.379  0.0765 -0.2751 -0.0528
 9972SOL    HW230816   1.613   4.724   4.532  0.8014 -0.1317  0.0467
 9973SOL     OW30817   4.159   2.022   3.076 -0.5452  0.2542  0.0247
 9973SOL    HW130818   4.145   1.924   3.070 -2.2246  0.5430 -2.5641
 9973SOL    HW230819   4.077   2.070   3.045  0.5520  2.4575  0.2936
 9974SOL     OW30820   6.386   6.174   4.041  0.2141 -0.1053  0.0018
 9974SOL    HW130821   6.348   6.158   4.132  0.7612 -0.1844  0.2224
 9974SOL    HW230822   6.475   6.128   4.033 -0.6430 -1.6619 -1.1981
 9975SOL     OW30823   0.200   4.960   0.283 -0.3762  0.3331  0.5822
 9975SOL    HW130824   0.177   4.943   0.187 -0.1089 -1.1284  0.7573
 9975SOL    HW230825   0.198   4.874   0.333 -0.8607  1.1251  1.9802
 9976SOL     OW30826   4.994   3.257   5.073  0.0202  0.4081  0.4261
 9976SOL    HW130827   4.972   3.329   5.140  2.1659  1.2754  0.2680
 9976SOL    HW230828   4.968   3.168   5.111 -1.5750  1.1317  1.1299
 9977SOL     OW30829   3.915   0.131   0.334 -0.1900  0.2520 -0.0437
 9977SOL    HW130830   3.875   0.067   0.268  2.1960 -0.5385 -0.8359
 9977SOL    HW230831   3.950   0.079   0.412  1.7560  0.5431 -0.6848
 9978SOL     OW30832   0.435   3.426   0.230 -0.4602  0.4184  0.4670
 9978SOL    HW130833   0.427   3.415   0.329  2.0986 -2.1860  0.5168
 9978SOL    HW230834   0.529   3.449   0.206 -1.3240  2.3543 -1.3361
 9979SOL     OW30835   3.121   3.904   4.016 -0.7119  0.0882  0.7030
 9979SOL    HW130836   3.145   3.981   4.074 -1.4388  2.0305 -1.3905
 9979SOL    HW230837   3.187   3.830   4.028  0.1227  1.0915  2.6433
 9980SOL     OW30838   0.243   5.193   0.972 -0.1410  0.1265  0.6092
 9980SOL    HW130839   0.222   5.197   0.875 -0.6649 -0.2660  0.7016
 9980SOL    HW230840   0.330   5.239   0.990  0.6885 -1.0696 -0.2515
 9981SOL     OW30841   5.012   1.664   6.461  0.4348 -0.2096  0.2472
 9981SOL    HW130842   5.095   1.632   6.415  0.8818 -1.0657  1.5993
 9981SOL    HW230843   5.037   1.712   6.545 -0.3334  1.9554 -0.6842
 9982SOL     OW30844   3.674   0.494   4.586  0.0678 -0.2306  0.1445
 9982SOL    HW130845   3.742   0.439   4.537  0.9862  1.4182 -0.5033
 9982SOL    HW230846   3.583   0.473   4.551  0.4767 -0.7769 -0.6220
 9983SOL     OW30847   0.022   3.447   1.526 -0.6834  0.0246 -0.0141
 9983SOL    HW130848   0.056   3.496   1.605  0.4525  0.1852 -0.5891
 9983SOL    HW230849  -0.068   3.483   1.501  0.0493  1.7303 -0.3374
 9984SOL     OW30850   1.216   4.715   1.950  0.0000 -0.0515 -0.2528
 9984SOL    HW130851   1.279   4.786   1.981 -0.7923  0.9652 -0.9105
 9984SOL    HW230852   1.122   4.740   1.975 -0.2232 -1.2849  0.2418
 9985SOL     OW30853   4.715   4.238   0.594  0.1454 -0.2655  0.6138
 9985SOL    HW130854   4.743   4.154   0.641  1.6551 -0.4336 -0.5123
 9985SOL    HW230855   4.673   4.215   0.506  0.7189  0.1422  0.2232
 9986SOL     OW30856   5.197   3.884   0.928 -0.0856  0.6985 -0.3550
 9986SOL    HW130857   5.141   3.904   0.847 -0.6343  1.8756  0.2808
 9986SOL    HW230858   5.280   3.837   0.900 -0.6604  0.3296 -1.5057
 9987SOL     OW30859   4.126   2.762   6.870  0.1887 -0.3754 -0.0666
 9987SOL    HW130860   4.049   2.697   6.871  0.0751 -0.2858 -1.3452
 9987SOL    HW230861   4.196   2.729   6.807  0.4552  0.3725 -0.1700
 9988SOL     OW30862   6.577   0.831   5.430 -0.2608  0.0974  0.0845
 9988SOL    HW130863   6.578   0.931   5.440 -1.2426  0.1586 -0.3048
 9988SOL    HW230864   6.669   0.799   5.410 -0.0405  0.9939 -0.3950
 9989SOL     OW30865   0.031   5.150   6.802 -0.2554 -0.6393  0.0114
 9989SOL    HW130866  -0.065   5.171   6.819 -0.6222 -1.7548 -0.6328
 9989SOL    HW230867   0.039   5.066   6.749  1.1198 -1.0987  0.8904
 9990SOL     OW30868   0.175   5.316   4.320 -0.3040 -0.5811  0.4437
 9990SOL    HW130869   0.266   5.275   4.313 -0.4646 -0.9656  0.5790
 9990SOL    HW230870   0.108   5.257   4.274 -0.6253 -0.7486  1.1191
 9991SOL     OW30871   1.424   1.838   0.999  0.0711 -0.0422 -0.0204
 9991SOL    HW130872   1.470   1.924   0.978  0.6813 -0.3914 -0.1410
 9991SOL    HW230873   1.452   1.768   0.933  1.5943 -1.0224  1.5579
 9992SOL     OW30874   1.003   3.782   6.752 -0.3141 -0.0247  0.0500
 9992SOL    HW130875   0.988   3.772   6.851  2.4430 -0.2214  0.5139
 9992SOL    HW230876   0.972   3.873   6.723  0.3640  0.6763  1.4417
 9993SOL     OW30877   5.444   5.505   1.701  0.2980 -0.2321  0.4370
 9993SOL    HW130878   5.456   5.584   1.760 -2.4861  0.6962 -0.1010
 9993SOL    HW230879   5.380   5.441   1.743 -0.7226 -0.1667 -0.9480
 9994SOL     OW30880   0.200   5.211   4.981 -0.3907 -0.1543 -0.2890
 9994SOL    HW130881   0.183   5.200   5.079 -2.2626  0.0986 -0.5475
 9994SOL    HW230882   0.188   5.307   4.956 -2.6336 -0.6268 -1.2010
 9995SOL     OW30883   4.169   3.203   0.141 -0.1093 -0.1375  0.1204
 9995SOL    HW130884   4.209   3.212   0.232 -2.2515 -2.0672  1.3640
 9995SOL    HW230885   4.174   3.108   0.111  0.5873  0.4657 -1.8357
 9996SOL     OW30886   3.666   5.140   0.046 -0.4101 -0.2418 -0.0828
 9996SOL    HW130887   3.646   5.171   0.139 -2.0561 -0.5371 -0.3195
 9996SOL    HW230888   3.763   5.116   0.040  0.3491  2.3168  0.8064
 9997SOL     OW30889   5.183   4.119   4.050  0.0929  0.4195  0.3445
 9997SOL    HW130890   5.225   4.209   4.061  1.3893 -0.3835  2.8233
 9997SOL    HW230891   5.119   4.104   4.125  1.0354 -1.2616  0.8628
 9998SOL     OW30892   4.116   1.719   4.623  0.1065  0.1348  0.0050
 9998SOL    HW130893   4.189   1.720   4.691  1.6691  0.6197 -1.6000
 9998SOL    HW230894   4.109   1.628   4.583  0.2449  0.2330 -0.2477
 9999SOL     OW30895   6.455   0.469   3.066 -0.0448  0.1563 -0.1105
 9999SOL    HW130896   6.510   0.446   3.146 -0.5485  1.5352  0.6600
 9999SOL    HW230897   6.360   0.442   3.082  0.3808 -2.6512 -1.6216
10000SOL     OW30898   2.585   2.690   0.844  0.6214 -0.1033  0.5150
10000SOL    HW130899   2.636   2.739   0.916  0.4513  0.2246  0.4164
10000SOL    HW230900   2.627   2.602   0.828 -0.1133 -0.7668  1.9723
10001SOL     OW30901   5.165   6.895   1.769 -0.1309 -0.6631 -0.1432
10001SOL    HW130902   5.248   6.916   1.717  0.2817  2.1858  1.4366
10001SOL    HW230903   5.085   6.929   1.718 -0.0055 -0.4534 -0.2028
10002SOL     OW30904   2.477   0.470   5.045 -0.1085 -0.2825 -0.1997
10002SOL    HW130905   2.517   0.404   4.981  1.0363 -0.9168  1.1206
10002SOL    HW230906   2.454   0.554   4.995  2.7673  0.0830 -1.1033
10003SOL     OW30907   1.579   2.038   2.113 -0.1570 -0.3882  0.0022
10003SOL    HW130908   1.579   1.971   2.039  1.0425 -0.9556  0.4909
10003SOL    HW230909   1.624   2.122   2.083 -1.7557  0.2934 -0.6458
10004SOL     OW30910   0.671   3.357   3.064 -0.0875  0.2291 -0.2017
10004SOL    HW130911   0.605   3.296   3.020 -0.9316  1.4375 -0.6621
10004SOL    HW230912   0.629   3.401   3.142  0.2451  0.8370 -0.3613
10005SOL     OW30913   0.897   6.400   1.474 -0.1566  0.5192  0.2729
10005SOL    HW130914   0.896   6.438   1.382 -0.3995  1.5913  0.6999
10005SOL    HW230915   0.899   6.474   1.541 -0.0920 -0.2366  1.1369
10006SOL     OW30916   5.435   2.347   5.742  0.0277 -0.6918 -0.7120
10006SOL    HW130917   5.368   2.405   5.697  0.7468  2.0028  1.3591
10006SOL    HW230918   5.524   2.358   5.697 -0.1341 -1.3373 -1.1950
10007SOL     OW30919   6.523   5.391   1.700 -0.3500  0.4110  0.5554
10007SOL    HW130920   6.557   5.405   1.607 -0.2051 -0.2990  0.4990
10007SOL    HW230921   6.451   5.322   1.699 -0.6400  0.7081  0.9134
10008SOL     OW30922   2.625   0.492   0.148  0.3401 -0.1173  0.1600
10008SOL    HW130923   2.570   0.457   0.223 -0.3199 -2.2480 -1.2411
10008SOL    HW230924   2.566   0.509   0.069  1.4946 -1.4471 -1.0445
10009SOL     OW30925   6.572   4.689   0.755 -0.1324 -0.5049  0.0480
10009SOL    HW130926   6.581   4.774   0.703  0.5166  0.4283  1.6089
10009SOL    HW230927   6.494   4.696   0.817 -2.3521 -2.4901 -2.2755
10010SOL     OW30928   3.290   4.642   6.201 -0.4426  0.7569  0.3497
10010SOL    HW130929   3.245   4.607   6.284  0.8914 -1.5992  0.1794
10010SOL    HW230930   3.221   4.678   6.139 -1.6826  0.7256  1.6516
10011SOL     OW30931   3.055   4.879   5.433 -0.1249 -0.0278 -0.7592
10011SOL    HW130932   2.986   4.946   5.406  0.1931  1.2954  1.4795
10011SOL    HW230933   3.142   4.925   5.447 -0.1573 -0.6587  1.9143
10012SOL     OW30934   6.214   1.520   2.519  0.0588  1.1137 -0.2212
10012SOL    HW130935   6.231   1.426   2.492 -0.5772  0.8368  0.2998
10012SOL    HW230936   6.225   1.581   2.440 -1.4715  0.3731 -1.0554
10013SOL     OW30937   1.034   5.906   5.965  0.1632 -0.7384  0.1613
10013SOL    HW130938   1.103   5.840   5.933  0.3929 -1.2617  1.6400
10013SOL    HW230939   0.958   5.908   5.900  2.6888  1.9130 -3.0546
10014SOL     OW30940   1.314   2.415   4.605 -0.0246 -0.4908 -0.0574
10014SOL    HW130941   1.307   2.327   4.558  1.5673 -1.3439  1.1855
10014SOL    HW230942   1.281   2.406   4.699  0.9446 -0.0203  0.3486
10015SOL     OW30943   3.183   6.201   0.021 -0.2942  0.0896  0.2887
10015SOL    HW130944   3.166   6.127  -0.044  3.3842 -0.9996  0.3738
10015SOL    HW230945   3.154   6.171   0.113 -1.5561 -0.0139 -0.1168
10016SOL     OW30946   4.475   0.669   6.716 -0.3413  0.2272 -0.2002
10016SOL    HW130947   4.460   0.587   6.661  0.5931 -0.0656 -0.0450
10016SOL    HW230948   4.440   0.749   6.667 -0.2751 -0.1321 -0.8450
10017SOL     OW30949   2.241   1.176   2.446 -0.3188 -0.1901 -0.1184
10017SOL    HW130950   2.149   1.175   2.487 -0.7917  1.7056 -1.0328
10017SOL    HW230951   2.297   1.243   2.494 -0.6099  1.4133 -1.9313
10018SOL     OW30952   6.650   5.510   4.767 -0.4178  0.3531 -0.6414
10018SOL    HW130953   6.735   5.459   4.755  0.4031  1.2749  0.9616
10018SOL    HW230954   6.576   5.447   4.790  0.0383 -0.3428 -1.0539
10019SOL     OW30955   0.273   1.425   0.488  0.1047 -0.0828  0.1910
10019SOL    HW130956   0.291   1.432   0.586 -1.6155 -0.0504  0.5336
10019SOL    HW230957   0.261   1.329   0.463  0.1445 -0.0613  0.0871
10020SOL     OW30958   6.110   0.666   0.932  0.2803 -0.1215  0.6608
10020SOL    HW130959   6.022   0.631   0.900  1.1679 -1.1251 -0.8077
10020SOL    HW230960   6.175   0.590   0.940  1.4397  0.8000  0.2480
10021SOL     OW30961   1.923   4.196   0.621  0.2322  0.0395  0.0375
10021SOL    HW130962   1.878   4.197   0.532 -0.0372 -0.8714  0.1552
10021SOL    HW230963   1.905   4.282   0.668 -1.9256 -0.5232  0.3394
10022SOL     OW30964   2.621   6.368   5.873 -0.7502  0.4984  0.6003
10022SOL    HW130965   2.573   6.302   5.814 -0.0602 -0.6408  1.2847
10022SOL    HW230966   2.668   6.435   5.816 -2.2529  1.0165 -0.1012
10023SOL     OW30967   3.217   1.216   5.258  0.2436 -0.3105  0.1328
10023SOL    HW130968   3.192   1.232   5.163 -0.1332  0.7147  0.3888
10023SOL    HW230969   3.196   1.298   5.312  3.2629  0.3022  0.5565
10024SOL     OW30970   1.854   2.507   3.088  0.0317 -0.9922  0.3768
10024SOL    HW130971   1.947   2.471   3.085 -0.1851 -1.8207  2.2213
10024SOL    HW230972   1.835   2.560   3.005  2.4432 -0.0305  0.3725
10025SOL     OW30973   1.220   1.594   0.288  0.3060  0.2342  0.3625
10025SOL    HW130974   1.260   1.670   0.340  1.0794  0.8355 -1.0591
10025SOL    HW230975   1.258   1.508   0.321  0.8848  0.6098  0.7053
10026SOL     OW30976   5.729   0.834   5.873 -0.1455  0.2939  0.1558
10026SOL    HW130977   5.688   0.897   5.806  0.3868 -1.1311 -1.5995
10026SOL    HW230978   5.701   0.741   5.852  2.7431 -0.5897 -0.2459
10027SOL     OW30979   4.460   1.031   5.305  0.4238 -0.4341 -0.2791
10027SOL    HW130980   4.367   1.004   5.281  0.5256  0.1160 -1.3817
10027SOL    HW230981   4.513   0.950   5.331 -0.4435 -0.7072  0.7044
10028SOL     OW30982   4.103   5.709   2.464  0.0484 -0.6092  0.4879
10028SOL    HW130983   4.102   5.777   2.537  1.7708 -0.3385  0.2865
10028SOL    HW230984   4.076   5.620   2.502 -0.0257 -0.2838  1.2315
10029SOL     OW30985   0.399   5.796   5.457  0.1895 -1.1617 -0.0975
10029SOL    HW130986   0.377   5.847   5.541 -0.4178 -0.3238 -0.7563
10029SOL    HW230987   0.329   5.727   5.440  0.2882 -1.3006  0.0487
10030SOL     OW30988   2.758   6.537   5.689 -0.0175  0.6347  0.3149
10030SOL    HW130989   2.707   6.622   5.702 -1.0047 -0.2180  2.1900
10030SOL    HW230990   2.754   6.511   5.592 -0.7683  2.0213 -0.0595
10031SOL     OW30991   0.503   5.728   4.943 -0.0080 -0.0842  0.2165
10031SOL    HW130992   0.451   5.785   4.879 -0.0901 -0.2780  0.1096
10031SOL    HW230993   0.471   5.747   5.036  0.5471  0.6576  0.2653
10032SOL     OW30994   0.858   6.790   5.868 -0.2524 -0.3227 -0.3082
10032SOL    HW130995   0.940   6.843   5.886 -0.4579 -0.1538  0.1387
10032SOL    HW230996   0.777   6.841   5.899 -0.3467 -1.5821  1.6982
10033SOL     OW30997   0.482   1.791   5.582 -0.7954 -0.1027 -0.7480
10033SOL    HW130998   0.557   1.755   5.637 -1.0811 -0.3590 -0.5206
10033SOL    HW230999   0.465   1.887   5.608 -1.0390 -0.2713 -0.2623
10034SOL     OW31000   2.997   6.387   2.015 -0.3487 -0.4193 -0.0248
10034SOL    HW131001   3.001   6.377   2.114 -1.0798 -0.1865  0.0293
10034SOL    HW231002   2.991   6.484   1.991  0.4539 -0.4305 -0.3287
10035SOL     OW31003   6.778   2.322   1.291 -0.4367 -0.5081 -0.0462
10035SOL    HW131004   6.790   2.359   1.383 -1.9000 -0.8422  0.2951
10035SOL    HW231005   6.848   2.361   1.230  1.0242 -0.8647  1.3474
10036SOL     OW31006   1.426   0.061   0.692  0.1912  0.0278  0.0620
10036SOL    HW131007   1.458   0.153   0.715 -0.0398  0.2368 -0.4274
10036SOL    HW231008   1.421   0.006   0.775  1.2105  0.1757  0.2310
10037SOL     OW31009   0.684   2.945   0.911  0.3243  0.2047 -0.5286
10037SOL    HW131010   0.703   3.043   0.912  2.6299 -0.1610 -1.1338
10037SOL    HW231011   0.700   2.907   1.002 -0.0441  0.3124 -0.4200
10038SOL     OW31012   3.905   6.941   1.778 -0.3232 -0.3980 -0.2495
10038SOL    HW131013   3.982   6.990   1.820  0.7909 -1.5442 -0.8737
10038SOL    HW231014   3.863   6.882   1.847  0.0385 -0.5658 -0.1670
10039SOL     OW31015   1.516   4.152   0.709  0.2173 -0.2680 -0.2859
10039SOL    HW131016   1.441   4.213   0.682 -0.3046 -1.6413 -2.1169
10039SOL    HW231017   1.600   4.181   0.664  0.6501  0.7930  1.1403
10040SOL     OW31018   3.412   0.684   1.227  0.0817  0.1381  0.5360
10040SOL    HW131019   3.365   0.608   1.183 -0.6092 -0.0831  1.5993
10040SOL    HW231020   3.479   0.649   1.292 -0.5832  0.4041  1.3885
10041SOL     OW31021   5.264   5.107   6.033 -0.1000 -0.2274 -0.7408
10041SOL    HW131022   5.217   5.021   6.010 -0.5039  0.0057 -0.8107
10041SOL    HW231023   5.342   5.088   6.092 -0.6729 -0.5660 -0.0803
10042SOL     OW31024   5.789   1.449   4.699 -0.0265  0.3373  0.5392
10042SOL    HW131025   5.729   1.386   4.748 -0.2752  0.3926  0.3074
10042SOL    HW231026   5.794   1.422   4.603 -0.0107  0.5800  0.4724
10043SOL     OW31027   6.415   0.458   3.780 -0.5545 -0.1621 -0.3151
10043SOL    HW131028   6.360   0.376   3.795 -0.1084 -0.4562 -0.2668
10043SOL    HW231029   6.442   0.497   3.868 -0.2802 -0.2980 -0.3365
10044SOL     OW31030   3.186   1.371   0.392  0.1520 -0.4937  0.3854
10044SOL    HW131031   3.122   1.421   0.451 -0.8594  1.6684 -2.2914
10044SOL    HW231032   3.140   1.348   0.306  2.2315 -1.2941 -0.5741
10045SOL     OW31033   3.450   6.522   5.104 -0.2332 -0.6174  0.0873
10045SOL    HW131034   3.470   6.619   5.089 -3.5643  0.1102 -0.4198
10045SOL    HW231035   3.433   6.477   5.017 -0.1798 -1.3249  0.4268
10046SOL     OW31036   6.646   1.426   5.540 -0.3032  0.0359  0.0393
10046SOL    HW131037   6.558   1.472   5.551  0.1175  0.5690  1.3968
10046SOL    HW231038   6.718   1.495   5.525  0.1935 -0.2174  1.1407
10047SOL     OW31039   1.607   2.512   4.190 -0.2021  0.4421  0.0230
10047SOL    HW131040   1.556   2.532   4.107  0.7188  2.2392 -0.1504
10047SOL    HW231041   1.654   2.424   4.180  0.6503  1.0445 -1.7627
10048SOL     OW31042   3.757   3.608   3.123  0.1237  0.0173  0.1802
10048SOL    HW131043   3.729   3.527   3.071 -0.0161 -1.3663  2.2782
10048SOL    HW231044   3.811   3.668   3.064  1.7414 -2.4500 -1.0351
10049SOL     OW31045   6.636   4.903   2.432  0.9208 -0.1030 -0.0647
10049SOL    HW131046   6.567   4.890   2.361  0.9144 -0.2768 -0.0275
10049SOL    HW231047   6.609   4.853   2.515  0.8998  0.1455  0.0784
10050SOL     OW31048   0.022   2.152   4.474 -0.6833 -0.1528 -0.1363
10050SOL    HW131049  -0.046   2.085   4.502  0.2817 -1.0472  0.1610
10050SOL    HW231050   0.106   2.137   4.527  1.2904 -2.0202 -3.4716
10051SOL     OW31051   5.687   3.153   0.805  0.0232  0.0878 -0.2542
10051SOL    HW131052   5.591   3.167   0.780 -0.3339  0.6302  1.3253
10051SOL    HW231053   5.745   3.181   0.728 -0.9812  3.0003 -0.0806
10052SOL     OW31054   1.563   5.480   6.094 -0.5781  0.0230 -0.1140
10052SOL    HW131055   1.588   5.383   6.092 -0.3637  0.0646  0.5816
10052SOL    HW231056   1.579   5.520   6.004 -2.4220 -1.0283 -0.9720
10053SOL     OW31057   3.669   5.799   4.140  0.7797  0.0886 -0.5861
10053SOL    HW131058   3.627   5.816   4.050  0.2530  2.4214  0.0241
10053SOL    HW231059   3.768   5.797   4.131  0.8646  2.6881 -0.9617
10054SOL     OW31060   5.267   3.925   2.471 -0.1889  0.8743  0.0421
10054SOL    HW131061   5.297   3.838   2.509 -0.5670 -1.5179 -4.4299
10054SOL    HW231062   5.346   3.984   2.456  0.4336  0.2210  0.6685
10055SOL     OW31063   6.460   2.938   0.516  0.1267  0.4507 -0.2460
10055SOL    HW131064   6.506   2.888   0.588 -0.1229 -1.5877 -1.4299
10055SOL    HW231065   6.361   2.942   0.535  0.1852  0.7920  0.0007
10056SOL     OW31066   5.460   4.017   3.284 -0.4947  0.1503  0.0102
10056SOL    HW131067   5.478   3.991   3.189  2.3076 -0.1385  0.5361
10056SOL    HW231068   5.492   3.945   3.345 -0.7024  1.0626  1.2248
10057SOL     OW31069   6.653   2.556   1.518  0.2557 -0.5106 -0.3147
10057SOL    HW131070   6.615   2.591   1.604  1.1303 -1.2772  0.4096
10057SOL    HW231071   6.743   2.516   1.535  0.7308 -0.0947 -1.7206
10058SOL     OW31072   0.580   5.644   3.253  0.6223 -0.0535  0.6251
10058SOL    HW131073   0.554   5.584   3.177  0.2561  1.1177 -0.2018
10058SOL    HW231074   0.678   5.634   3.271  0.9008  0.3359 -0.6225
10059SOL     OW31075   3.107   5.622   1.345 -0.4616  0.1546  0.1172
10059SOL    HW131076   3.027   5.678   1.365  0.5127  1.5623  0.2680
10059SOL    HW231077   3.187   5.659   1.393  0.5480 -0.4065 -1.0572
10060SOL     OW31078   2.268   2.855   3.037 -0.8019 -0.1899  0.1386
10060SOL    HW131079   2.297   2.946   3.068 -0.9920 -0.3820  0.9020
10060SOL    HW231080   2.171   2.843   3.059 -0.0444 -1.8287  3.1496
10061SOL     OW31081   0.547   2.696   5.069  0.6557 -0.0461 -0.1454
10061SOL    HW131082   0.642   2.664   5.070  1.1693  1.3395 -1.2526
10061SOL    HW231083   0.545   2.794   5.049 -0.8833  0.5715  2.5728
10062SOL     OW31084   6.665   5.084   3.380  0.4003  0.4390  0.2313
10062SOL    HW131085   6.762   5.070   3.399  0.6829 -0.5856 -1.6360
10062SOL    HW231086   6.655   5.144   3.300 -0.4225 -0.5831 -0.4663
10063SOL     OW31087   0.606   1.846   2.788  0.4676 -0.3309 -0.7631
10063SOL    HW131088   0.543   1.769   2.796  0.5312 -0.2890  0.2690
10063SOL    HW231089   0.598   1.904   2.868  0.7208  0.5251 -1.3419
10064SOL     OW31090   3.425   5.649   6.403  0.2885 -0.2088 -0.4744
10064SOL    HW131091   3.364   5.725   6.378  1.4587  1.2672  0.9611
10064SOL    HW231092   3.520   5.676   6.388  0.7156 -1.5772 -0.3426
10065SOL     OW31093   6.496   6.811   4.337 -0.6121  0.4907  0.5078
10065SOL    HW131094   6.442   6.827   4.420 -0.2499 -0.1913  0.8767
10065SOL    HW231095   6.488   6.891   4.277 -2.3864  0.2357  0.3465
10066SOL     OW31096   0.657   6.567   5.427  0.1341  0.0791  0.1729
10066SOL    HW131097   0.725   6.539   5.360 -1.1660 -1.4544 -0.5610
10066SOL    HW231098   0.669   6.514   5.511  0.4859  0.5596  0.4326
10067SOL     OW31099   3.288   6.063   2.292 -0.2707 -0.3297  0.3533
10067SOL    HW131100   3.295   5.992   2.363 -0.5182  1.1795  1.9389
10067SOL    HW231101   3.287   6.019   2.202  0.9510 -2.2657  1.2079
10068SOL     OW31102   5.364   5.296   4.323  0.2113  0.2022 -0.6468
10068SOL    HW131103   5.394   5.334   4.410 -0.6875  3.0541 -1.4819
10068SOL    HW231104   5.429   5.321   4.252 -0.0579 -0.4491 -1.1314
10069SOL     OW31105   4.622   2.568   4.777 -0.0536 -0.6136  0.0212
10069SOL    HW131106   4.656   2.496   4.837 -1.6161 -1.2601  0.1732
10069SOL    HW231107   4.549   2.532   4.719 -0.3868  0.6750 -0.3976
10070SOL     OW31108   0.372   0.771   3.024 -0.4141 -0.3320 -0.1340
10070SOL    HW131109   0.397   0.676   3.004  1.6698  0.5591 -2.1831
10070SOL    HW231110   0.274   0.783   3.004 -0.3229 -1.6408 -1.6436
10071SOL     OW31111   4.740   4.495   4.251  0.1181  0.8250  0.1498
10071SOL    HW131112   4.658   4.491   4.308  0.0641 -0.8364 -0.0167
10071SOL    HW231113   4.743   4.416   4.191  1.8279  0.8823  0.1132
10072SOL     OW31114   0.855   4.393   4.043 -0.4770 -0.1279 -0.3607
10072SOL    HW131115   0.895   4.467   3.989 -2.8424  1.7028  0.1983
10072SOL    HW231116   0.904   4.384   4.129  0.6568 -0.1604 -0.9820
10073SOL     OW31117   1.111   0.539   6.511 -0.1863  0.4390  0.4321
10073SOL    HW131118   1.166   0.542   6.428  0.7113  2.0171  1.0498
10073SOL    HW231119   1.143   0.466   6.571  0.6235  0.7363  0.3651
10074SOL     OW31120   2.079   3.823   5.598  0.0265  0.3479  0.8600
10074SOL    HW131121   2.166   3.870   5.582 -1.4885  2.4332 -2.3417
10074SOL    HW231122   2.083   3.732   5.556 -0.1430  1.5312 -1.9410
10075SOL     OW31123   1.149   3.333   4.591 -0.1660 -0.2462  0.8011
10075SOL    HW131124   1.245   3.311   4.605 -0.3109 -1.5296 -0.0400
10075SOL    HW231125   1.142   3.418   4.538  0.6257 -1.6371 -1.7138
10076SOL     OW31126   6.040   0.488   1.204 -0.1562 -0.2341  0.1881
10076SOL    HW131127   6.041   0.586   1.184 -0.2629  0.1592  1.9970
10076SOL    HW231128   6.026   0.437   1.119  3.0641  1.1477 -1.3253
10077SOL     OW31129   4.168   1.140   0.361 -0.6253  0.2957 -0.4246
10077SOL    HW131130   4.081   1.153   0.408  1.0369  3.0206  2.2847
10077SOL    HW231131   4.205   1.229   0.334  3.1263 -0.1961  2.2903
10078SOL     OW31132   4.201   5.175   6.260 -0.5083 -0.3056  0.5128
10078SOL    HW131133   4.246   5.088   6.281 -0.8488 -0.5608  0.1947
10078SOL    HW231134   4.162   5.213   6.343 -0.8556 -0.7433  0.5543
10079SOL     OW31135   6.258   2.837   5.645  0.1493  0.4605  0.0308
10079SOL    HW131136   6.266   2.766   5.716  2.7630 -1.7845 -2.3013
10079SOL    HW231137   6.162   2.864   5.637 -0.4206 -0.0512  3.5219
10080SOL     OW31138   1.754   2.458   5.596 -0.4740  0.3283  0.0717
10080SOL    HW131139   1.797   2.367   5.600 -2.9848 -0.9034  1.8157
10080SOL    HW231140   1.816   2.522   5.551  2.0941 -1.8415  0.2471
10081SOL     OW31141   0.323   0.360   0.907 -0.2960  0.0364 -0.2049
10081SOL    HW131142   0.232   0.330   0.878 -0.9904  1.3797  0.4655
10081SOL    HW231143   0.315   0.448   0.954  1.2126 -0.4241  0.9687
10082SOL     OW31144   0.143   1.308   0.056  0.3118 -0.3544 -0.2098
10082SOL    HW131145   0.072   1.321  -0.013  0.9210 -0.6869 -0.9123
10082SOL    HW231146   0.223   1.363   0.032 -0.0372  0.7750  1.0871
10083SOL     OW31147   4.769   1.444   6.149 -0.2119  0.4123  0.2388
10083SOL    HW131148   4.796   1.358   6.106 -3.4493 -0.9448  0.6084
10083SOL    HW231149   4.713   1.496   6.084 -0.7357  0.8360  1.0250
10084SOL     OW31150   1.355   1.288   5.115 -0.5465  0.1270  0.5512
10084SOL    HW131151   1.407   1.358   5.067  1.3071 -1.6269 -0.1148
10084SOL    HW231152   1.305   1.232   5.049 -0.5815 -0.2956  0.9303
10085SOL     OW31153   1.950   4.561   3.186  0.0526 -0.0179  0.2576
10085SOL    HW131154   1.974   4.474   3.229 -0.5470 -0.2653  0.1096
10085SOL    HW231155   1.922   4.627   3.256 -0.6656 -0.3349  0.2783
10086SOL     OW31156   4.558   0.905   3.128  0.0307  0.2544 -0.1569
10086SOL    HW131157   4.490   0.957   3.180 -0.3941  0.3108 -0.7538
10086SOL    HW231158   4.640   0.892   3.183 -0.5170  0.0666  0.6286
10087SOL     OW31159   0.853   0.532   3.766 -0.2022 -0.2173 -0.1065
10087SOL    HW131160   0.771   0.479   3.784  1.8716 -3.8228 -0.2957
10087SOL    HW231161   0.859   0.552   3.668 -1.4221  1.2364  0.0859
10088SOL     OW31162   0.345   5.857   4.761 -0.4794 -0.5982 -0.4035
10088SOL    HW131163   0.266   5.896   4.809 -0.2763 -0.8924  0.1834
10088SOL    HW231164   0.390   5.928   4.707 -0.4501 -0.1411  0.2040
10089SOL     OW31165   0.862   2.822   1.732  0.2499  0.0477 -0.5105
10089SOL    HW131166   0.779   2.780   1.695  1.1760 -2.6613  0.2123
10089SOL    HW231167   0.851   2.837   1.830  0.5156 -0.0227 -0.4709
10090SOL     OW31168   0.074   6.363   1.526 -0.3397  0.3504  0.5143
10090SOL    HW131169   0.124   6.283   1.491  0.0614  0.9861 -0.4259
10090SOL    HW231170   0.014   6.335   1.601  0.2235 -0.7252  0.5853
10091SOL     OW31171   0.348   1.451   3.045 -0.1008  0.2544 -0.3502
10091SOL    HW131172   0.447   1.453   3.056  0.0888  0.5707 -1.8900
10091SOL    HW231173   0.305   1.501   3.120  0.9668  1.1091 -0.2833
10092SOL     OW31174   3.095   2.272   0.444 -0.0444  0.0216  0.3375
10092SOL    HW131175   3.163   2.205   0.473  0.2345 -1.1636 -2.6926
10092SOL    HW231176   3.004   2.229   0.443 -0.4217  0.7298  1.5306
10093SOL     OW31177   6.264   6.448   5.770 -0.2573  0.3831 -0.2908
10093SOL    HW131178   6.352   6.474   5.731  0.3394 -0.8971  0.1353
10093SOL    HW231179   6.230   6.523   5.827  0.6795  0.7988 -0.2531
10094SOL     OW31180   1.798   0.594   1.310  0.9456 -0.0310  0.2282
10094SOL    HW131181   1.711   0.635   1.336  0.8685  0.0886 -0.2007
10094SOL    HW231182   1.783   0.531   1.233  1.2989  0.3158 -0.1349
10095SOL     OW31183   0.696   2.817   3.832  0.0018 -0.4795  0.3992
10095SOL    HW131184   0.776   2.786   3.781 -0.1779 -0.4538  0.1007
10095SOL    HW231185   0.702   2.783   3.927  0.8612  0.3770  0.6630
10096SOL     OW31186   0.164   4.319   3.554 -0.3020 -0.0169 -0.3196
10096SOL    HW131187   0.154   4.361   3.644  0.7153  0.3287 -0.3563
10096SOL    HW231188   0.195   4.388   3.488  0.4062 -0.5955 -0.6009
10097SOL     OW31189   0.117   2.919   4.163  0.4341 -0.1239  0.4025
10097SOL    HW131190   0.148   2.825   4.178  1.4718 -0.1938 -1.7651
10097SOL    HW231191   0.018   2.924   4.179  0.1001 -1.9162 -0.7101
10098SOL     OW31192   3.731   6.065   6.510  0.0444  0.5973 -0.3357
10098SOL    HW131193   3.738   6.163   6.528 -1.0722  0.5798  0.2817
10098SOL    HW231194   3.818   6.032   6.473  0.7235  1.6528  0.2472
10099SOL     OW31195   0.343   1.854   5.030  0.2833 -0.7153  0.2452
10099SOL    HW131196   0.337   1.756   5.051  1.7078 -0.8686  0.0402
10099SOL    HW231197   0.397   1.900   5.101  0.4078 -0.2374 -0.1578
10100SOL     OW31198   5.296   5.837   1.259 -0.6179 -0.3944  0.0218
10100SOL    HW131199   5.249   5.795   1.336 -0.6576  0.8945  0.7138
10100SOL    HW231200   5.395   5.827   1.271 -0.6459 -1.3882 -0.4605
10101SOL     OW31201   0.739   6.983   3.313  0.5493  0.4494 -0.4827
10101SOL    HW131202   0.798   6.991   3.393  0.2249 -0.7169 -0.1171
10101SOL    HW231203   0.650   6.945   3.340 -0.1395  1.5275 -1.1387
10102SOL     OW31204   3.596   0.996   4.303 -0.3056  0.2056 -0.1790
10102SOL    HW131205   3.507   0.960   4.273 -0.6321 -0.0889  1.1116
10102SOL    HW231206   3.640   1.041   4.225 -1.5283  0.2609 -0.8783
10103SOL     OW31207   1.388   2.638   0.998 -0.0482  0.1956 -0.3972
10103SOL    HW131208   1.302   2.653   0.948 -0.0748 -2.2227 -1.1988
10103SOL    HW231209   1.420   2.725   1.035 -2.5289  1.2718 -0.5714
10104SOL     OW31210   3.034   3.763   6.259  0.5344 -0.2249  0.0590
10104SOL    HW131211   3.008   3.686   6.318  0.1399  0.8817  1.3796
10104SOL    HW231212   2.955   3.790   6.203  0.4025 -0.2214  0.2446
10105SOL     OW31213   4.895   0.045   2.036 -0.1109 -0.0301 -0.8605
10105SOL    HW131214   4.858   0.092   1.956 -0.5015  0.3894 -0.4418
10105SOL    HW231215   4.983   0.085   2.060 -1.2802  1.8499  0.6327
10106SOL     OW31216   5.425   0.642   0.112  0.2394  0.2547  0.3553
10106SOL    HW131217   5.334   0.654   0.151  0.1002 -2.1364  0.8655
10106SOL    HW231218   5.461   0.552   0.136  2.1435  0.5725 -1.0638
10107SOL     OW31219   6.037   3.790   6.295 -0.8672 -0.2439  0.5350
10107SOL    HW131220   6.005   3.699   6.321 -1.2643 -0.2755 -0.0366
10107SOL    HW231221   5.983   3.860   6.343  0.3276 -0.2916  2.0262
10108SOL     OW31222   3.488   5.028   1.266  0.1585 -0.5112 -0.6173
10108SOL    HW131223   3.524   5.070   1.350 -1.5582 -0.8260  0.3190
10108SOL    HW231224   3.455   4.936   1.287 -2.3713  0.2253 -1.0885
10109SOL     OW31225   5.096   0.693   4.128  0.6609  0.2591 -0.2438
10109SOL    HW131226   5.052   0.778   4.098  0.4363  0.3829  0.4223
10109SOL    HW231227   5.042   0.652   4.202 -0.5493 -1.7128 -2.1100
10110SOL     OW31228   3.579   3.415   0.527  0.6721  0.3920 -0.0936
10110SOL    HW131229   3.502   3.354   0.547 -0.2959  1.7362  0.4213
10110SOL    HW231230   3.644   3.368   0.467  0.0105 -1.1589  0.3512
10111SOL     OW31231   6.119   5.387   6.943  0.3189  0.1923 -0.1110
10111SOL    HW131232   6.132   5.424   7.035 -1.4755 -3.0520  1.6320
10111SOL    HW231233   6.193   5.322   6.923  0.6281  0.7859 -0.9333
10112SOL     OW31234   5.046   4.104   4.308 -0.4521  0.3036  0.1197
10112SOL    HW131235   4.966   4.149   4.269 -0.8710 -0.4580  0.0615
10112SOL    HW231236   5.031   4.087   4.405  0.4045  1.7914  0.5408
10113SOL     OW31237   2.333   0.052   1.906 -0.4984 -0.5398 -0.1588
10113SOL    HW131238   2.248   0.089   1.943 -0.6832  0.3136 -1.3921
10113SOL    HW231239   2.351   0.091   1.816  0.0128 -2.4291 -0.9290
10114SOL     OW31240   3.536   1.393   3.273 -0.0765  0.3369  0.8490
10114SOL    HW131241   3.634   1.390   3.254 -0.4277 -0.5041 -1.0668
10114SOL    HW231242   3.508   1.488   3.289  0.6929  0.8653 -0.7685
10115SOL     OW31243   6.676   0.402   4.186  0.2416  0.4282  0.1013
10115SOL    HW131244   6.585   0.417   4.148  0.7093  1.9276 -0.5255
10115SOL    HW231245   6.740   0.380   4.112  0.6895  0.9487  0.3272
10116SOL     OW31246   6.592   2.086   6.736 -0.2485 -0.0274  0.3266
10116SOL    HW131247   6.636   2.167   6.697 -0.0189 -0.0453  0.5440
10116SOL    HW231248   6.505   2.112   6.778  0.8591  0.5574  2.4489
10117SOL     OW31249   3.964   6.864   5.745 -0.1377  0.0548 -0.8546
10117SOL    HW131250   3.928   6.839   5.835  0.6773  0.5693 -0.3733
10117SOL    HW231251   3.992   6.781   5.696 -1.6677 -0.3409 -1.1385
10118SOL     OW31252   6.459   5.627   0.586 -0.7135 -0.0517  0.1753
10118SOL    HW131253   6.371   5.617   0.633 -0.8281  1.4611  0.3343
10118SOL    HW231254   6.534   5.615   0.651 -0.8319  0.0921  0.3385
10119SOL     OW31255   2.408   0.771   0.058  0.3262  0.3031 -0.0121
10119SOL    HW131256   2.355   0.758  -0.025 -1.7480  3.4272  0.6645
10119SOL    HW231257   2.505   0.783   0.034  0.1706 -1.2519 -1.6569
10120SOL     OW31258   6.318   3.452   5.513 -0.1147 -0.9418 -0.1769
10120SOL    HW131259   6.290   3.469   5.419  1.4223  0.1501 -0.4769
10120SOL    HW231260   6.385   3.378   5.515 -0.8650 -1.6245  0.1909
10121SOL     OW31261   4.495   6.131   4.563  0.1405 -0.2769  0.1507
10121SOL    HW131262   4.567   6.111   4.496 -0.7649  1.2181 -1.3473
10121SOL    HW231263   4.532   6.121   4.655  1.9591 -0.6034 -0.5674
10122SOL     OW31264   5.883   3.447   1.250  0.5989  0.3276 -0.1838
10122SOL    HW131265   5.930   3.488   1.172  0.2396 -0.0276 -0.5868
10122SOL    HW231266   5.837   3.363   1.221  2.2035 -0.9771  0.8247
10123SOL     OW31267   5.908   6.936   0.652 -0.2124 -0.1221  0.1570
10123SOL    HW131268   5.910   6.889   0.741 -1.3718 -1.8074 -0.6461
10123SOL    HW231269   5.891   6.869   0.580 -1.7987  1.5209 -1.0930
10124SOL     OW31270   3.383   2.871   6.513  0.2674 -0.1019  0.2959
10124SOL    HW131271   3.386   2.777   6.477  1.2164  0.0274  0.0286
10124SOL    HW231272   3.424   2.933   6.447 -1.2075  0.6514  0.0607
10125SOL     OW31273   2.022   0.858   0.343  0.0608  0.1293  0.3353
10125SOL    HW131274   2.069   0.851   0.431  1.0020  1.0699 -0.0728
10125SOL    HW231275   1.925   0.877   0.358  0.2295  0.3609  1.1640
10126SOL     OW31276   5.563   4.347   4.903  0.4073 -0.3020 -0.1474
10126SOL    HW131277   5.511   4.266   4.874 -1.9630  0.7211  0.9214
10126SOL    HW231278   5.594   4.334   4.997  0.9424 -0.3694 -0.3309
10127SOL     OW31279   3.460   5.884   5.812 -0.0607  0.3310 -0.8538
10127SOL    HW131280   3.386   5.920   5.869  0.0325 -0.3200 -0.3155
10127SOL    HW231281   3.511   5.815   5.863  0.3102  0.0656 -1.5705
10128SOL     OW31282   2.283   1.736   1.055  0.0039 -0.3211  0.3303
10128SOL    HW131283   2.286   1.781   1.145 -0.2287 -1.6813  1.0349
10128SOL    HW231284   2.188   1.714   1.033  0.2275 -1.4950  0.5185
10129SOL     OW31285   5.224   0.891   2.424 -0.3943 -0.2024  0.0883
10129SOL    HW131286   5.262   0.957   2.489 -1.7664  1.2820 -0.5478
10129SOL    HW231287   5.143   0.848   2.463 -1.6212  1.1907 -0.8387
10130SOL     OW31288   0.536   4.804   2.284  0.6619  0.0388  0.5669
10130SOL    HW131289   0.608   4.787   2.216 -1.0320 -1.0612 -1.0534
10130SOL    HW231290   0.491   4.718   2.308 -0.7640  0.8113  0.7833
10131SOL     OW31291   5.121   0.468   6.450 -0.4804 -0.1008  0.0374
10131SOL    HW131292   5.162   0.500   6.536 -2.6071  1.3021  0.5954
10131SOL    HW231293   5.136   0.370   6.440 -0.1360 -0.2771  1.9795
10132SOL     OW31294   3.043   0.984   2.706  0.1003  0.5444 -0.0620
10132SOL    HW131295   2.984   1.059   2.735 -1.6586 -0.7026 -0.1964
10132SOL    HW231296   3.105   1.015   2.634  0.0855  2.0830  0.5617
10133SOL     OW31297   6.056   4.020   2.083 -0.2632  0.2031 -0.0159
10133SOL    HW131298   6.048   3.921   2.087  1.9183 -0.0397 -0.5084
10133SOL    HW231299   5.968   4.060   2.060 -1.1929 -1.6016  0.2570
10134SOL     OW31300   6.854   1.655   6.617  0.0227  0.2825 -0.0563
10134SOL    HW131301   6.819   1.747   6.601 -0.0095  0.1247 -0.9460
10134SOL    HW231302   6.874   1.643   6.715  0.5565  1.4058 -0.0156
10135SOL     OW31303   2.818   4.900   0.824  0.1794 -0.0075  0.2931
10135SOL    HW131304   2.754   4.971   0.795  0.7544  0.1624 -0.5945
10135SOL    HW231305   2.793   4.868   0.915 -2.4428 -1.4298 -0.8095
10136SOL     OW31306   4.957   5.925   2.700  0.5775 -0.1790 -0.4185
10136SOL    HW131307   4.926   5.974   2.619  0.6600  0.7291  0.0860
10136SOL    HW231308   5.016   5.984   2.755  1.0587 -1.0030 -0.0223
10137SOL     OW31309   6.789   3.521   2.413 -0.0747 -0.1534  0.2864
10137SOL    HW131310   6.711   3.496   2.470  0.8292 -1.4618  1.0022
10137SOL    HW231311   6.866   3.549   2.471  0.6070 -0.7443 -0.3035
10138SOL     OW31312   0.168   4.134   0.431 -0.1156  0.3209  0.0771
10138SOL    HW131313   0.122   4.074   0.496  1.7507 -2.1541 -0.7109
10138SOL    HW231314   0.263   4.146   0.459  0.7447 -0.8042 -2.0670
10139SOL     OW31315   3.142   2.912   0.885  0.0354 -0.2602 -0.2305
10139SOL    HW131316   3.047   2.893   0.911  0.1507 -1.4449 -0.6166
10139SOL    HW231317   3.203   2.852   0.937  0.3962 -1.3133 -1.7998
10140SOL     OW31318   2.268   4.154   3.024 -0.0265  0.0390 -0.0814
10140SOL    HW131319   2.328   4.231   3.046 -0.0085 -0.5896  2.3367
10140SOL    HW231320   2.224   4.122   3.108 -1.1219 -1.6880 -1.2734
10141SOL     OW31321   1.121   0.869   4.700  0.6169  0.5805  0.6322
10141SOL    HW131322   1.026   0.900   4.686  1.1276  1.8587 -0.1764
10141SOL    HW231323   1.120   0.781   4.748 -1.0252 -0.2217 -0.7452
10142SOL     OW31324   5.824   5.363   4.957 -0.1948  0.2411 -0.1022
10142SOL    HW131325   5.741   5.345   5.009 -0.6151  1.0377 -0.4838
10142SOL    HW231326   5.897   5.303   4.989 -0.7700 -0.0965  0.5946
10143SOL     OW31327   3.466   4.450   1.193 -0.0592 -0.1351 -0.4509
10143SOL    HW131328   3.385   4.506   1.208  1.0973  1.7831 -1.0128
10143SOL    HW231329   3.526   4.494   1.126  0.2352 -2.8238 -2.1164
10144SOL     OW31330   1.991   4.915   2.554 -0.6769  0.3107  0.1500
10144SOL    HW131331   2.040   4.831   2.576 -0.2571  0.5931  0.3017
10144SOL    HW231332   1.971   4.917   2.456 -1.2028 -0.2355  0.2392
10145SOL     OW31333   1.325   0.978   6.736 -0.7700 -0.1714  0.3175
10145SOL    HW131334   1.313   0.947   6.641  2.4024 -0.7088 -0.0413
10145SOL    HW231335   1.419   1.009   6.748 -1.6500  1.8066  2.8317
10146SOL     OW31336   5.768   2.937   3.400 -0.1620 -0.1812 -0.2077
10146SOL    HW131337   5.701   2.869   3.430 -0.8573 -0.4155 -2.1683
10146SOL    HW231338   5.843   2.890   3.353 -0.6367  0.3553 -1.5535
10147SOL     OW31339   6.013   5.685   5.301  0.1282 -0.0029  0.1925
10147SOL    HW131340   5.973   5.686   5.209  1.4628 -2.1903 -0.4831
10147SOL    HW231341   5.941   5.670   5.369 -0.5281 -1.4379 -0.7772
10148SOL     OW31342   1.194   0.904   0.884 -0.6952 -0.1744  0.1188
10148SOL    HW131343   1.158   0.832   0.943 -0.6691  1.5398  2.3638
10148SOL    HW231344   1.288   0.924   0.910 -0.4072  0.0755 -1.0819
10149SOL     OW31345   4.510   2.844   0.699 -0.2320  0.6751  0.1627
10149SOL    HW131346   4.439   2.874   0.762 -1.1018  0.2629 -0.6010
10149SOL    HW231347   4.550   2.758   0.732 -0.9797  0.2343 -0.0534
10150SOL     OW31348   5.860   4.487   0.460  0.1281 -0.2042  0.3911
10150SOL    HW131349   5.802   4.484   0.542  0.6593  0.4801  0.7991
10150SOL    HW231350   5.956   4.491   0.487  0.4587 -2.2429 -0.2748
10151SOL     OW31351   1.105   5.891   4.997 -0.0337 -0.8179 -0.5006
10151SOL    HW131352   1.028   5.881   5.061 -0.6786  0.6092 -1.0245
10151SOL    HW231353   1.191   5.876   5.046 -0.4886  0.5309  0.7911
10152SOL     OW31354   6.313   2.220   3.762  0.1515  0.7595 -0.0290
10152SOL    HW131355   6.246   2.185   3.827  0.8930  1.8027  1.3485
10152SOL    HW231356   6.305   2.320   3.757  0.4081  0.7347 -1.2297
10153SOL     OW31357   5.284   5.751   5.321 -0.3129  0.6428 -0.1012
10153SOL    HW131358   5.288   5.672   5.382  0.7969  1.2976  0.7154
10153SOL    HW231359   5.342   5.734   5.241 -0.1622  0.5915  0.0185
10154SOL     OW31360   5.928   6.488   5.354  0.1682  0.4656  0.5069
10154SOL    HW131361   5.865   6.458   5.282  1.5539 -0.6064 -0.3136
10154SOL    HW231362   5.884   6.477   5.443 -0.3739 -1.5053  0.0450
10155SOL     OW31363   4.572   1.401   0.505  0.0449  0.0196  0.5797
10155SOL    HW131364   4.543   1.312   0.539  0.7935  0.0714  1.4123
10155SOL    HW231365   4.546   1.411   0.409  1.3676 -1.7552 -0.0095
10156SOL     OW31366   4.603   1.219   1.479  0.2247  0.1087  0.3420
10156SOL    HW131367   4.505   1.206   1.492 -0.1540  0.9677 -1.3598
10156SOL    HW231368   4.637   1.288   1.543 -0.0769 -0.8028  1.5216
10157SOL     OW31369   5.339   6.651   3.995  0.3944 -0.7653  0.1367
10157SOL    HW131370   5.411   6.683   4.057  0.9908  0.2502 -1.0474
10157SOL    HW231371   5.367   6.665   3.900 -1.7055  0.4896 -0.3711
10158SOL     OW31372   5.846   3.298   6.730 -0.6359  0.2261  0.1289
10158SOL    HW131373   5.781   3.238   6.682 -0.8769  1.5763 -1.3049
10158SOL    HW231374   5.830   3.393   6.703  0.7249  0.7899  1.2007
10159SOL     OW31375   1.804   6.135   6.862  0.5796 -0.5871 -0.3699
10159SOL    HW131376   1.767   6.207   6.921 -4.4706 -1.3405 -2.0772
10159SOL    HW231377   1.855   6.070   6.918 -0.3554  0.8949  2.4162
10160SOL     OW31378   2.031   0.874   4.333  0.3532 -0.2692  0.7754
10160SOL    HW131379   1.979   0.793   4.361 -0.1776 -0.0117  0.5615
10160SOL    HW231380   1.981   0.921   4.259  1.7403 -0.9566 -0.6521
10161SOL     OW31381   3.116   0.599   6.503  0.0841  0.7325 -0.8021
10161SOL    HW131382   3.026   0.559   6.524  1.0339 -0.3327  1.6966
10161SOL    HW231383   3.128   0.684   6.554  1.2476 -0.2416  0.6501
10162SOL     OW31384   3.585   2.094   6.334 -0.2455 -0.1917 -0.6796
10162SOL    HW131385   3.505   2.154   6.343  0.6672  1.0233 -0.3518
10162SOL    HW231386   3.557   1.999   6.346 -1.6170  0.2209 -0.4428
10163SOL     OW31387   6.613   4.745   4.699  0.3201 -0.1353  0.3237
10163SOL    HW131388   6.686   4.677   4.690  0.2070 -0.0939 -1.2719
10163SOL    HW231389   6.524   4.700   4.688  0.2063  0.1303  0.1357
10164SOL     OW31390   1.189   2.875   6.400  0.3255  0.7816 -0.7945
10164SOL    HW131391   1.110   2.818   6.420  0.2020  0.9947 -0.6760
10164SOL    HW231392   1.273   2.824   6.420  0.2393  0.2753 -1.6535
10165SOL     OW31393   6.231   0.179   4.323  0.4034  0.4217 -0.1413
10165SOL    HW131394   6.220   0.228   4.237 -1.5287 -0.5542 -0.5102
10165SOL    HW231395   6.328   0.164   4.341  0.8390  0.1278 -2.4638
10166SOL     OW31396   5.835   0.155   1.267 -0.1473 -0.0885  0.3686
10166SOL    HW131397   5.850   0.196   1.357  2.9614 -0.3760  0.0745
10166SOL    HW231398   5.737   0.158   1.245 -0.6846  2.2542  2.6293
10167SOL     OW31399   3.659   1.269   1.168  0.0519  0.1864 -0.1179
10167SOL    HW131400   3.634   1.212   1.090 -1.3765  0.6835 -0.0582
10167SOL    HW231401   3.725   1.339   1.139 -0.4710  0.3687 -0.8915
10168SOL     OW31402   0.065   2.616   5.263 -0.3737 -0.1067  0.4208
10168SOL    HW131403   0.154   2.654   5.237 -1.0992  1.8475  0.6174
10168SOL    HW231404  -0.006   2.684   5.248 -2.0744 -2.0698 -1.0319
10169SOL     OW31405   6.659   5.779   4.808 -0.0047  0.2638  0.1086
10169SOL    HW131406   6.645   5.680   4.805  1.0315  0.1042 -0.1194
10169SOL    HW231407   6.675   5.812   4.715  1.3410  0.3626  0.3589
10170SOL     OW31408   2.711   4.684   4.739 -0.6093 -0.1525  0.0209
10170SOL    HW131409   2.763   4.769   4.729 -0.3204 -0.2826  0.4137
10170SOL    HW231410   2.728   4.644   4.829 -2.8365  0.7511  0.8936
10171SOL     OW31411   0.240   2.629   6.669 -0.2184 -0.2940 -0.5481
10171SOL    HW131412   0.309   2.616   6.740 -1.8678  1.7894  1.5952
10171SOL    HW231413   0.281   2.612   6.580  2.9381  0.4268  0.6315
10172SOL     OW31414   5.080   0.287   5.164 -0.1179 -0.1798  0.3252
10172SOL    HW131415   5.029   0.362   5.123  1.0188  0.9768  0.9801
10172SOL    HW231416   5.027   0.247   5.239  0.1481  1.3924  1.3965
10173SOL     OW31417   1.765   3.489   2.868  0.1937  0.1832 -0.0630
10173SOL    HW131418   1.800   3.482   2.774 -1.8376  0.7517 -0.9296
10173SOL    HW231419   1.801   3.573   2.910  1.4917 -0.3129 -0.1251
10174SOL     OW31420   6.685   5.816   2.120 -0.2712  0.2561 -0.0853
10174SOL    HW131421   6.776   5.775   2.106 -0.7071 -0.8881  0.2685
10174SOL    HW231422   6.694   5.915   2.125  0.9329  0.1817 -0.2692
10175SOL     OW31423   4.648   2.156   5.735 -0.2455  0.0947 -0.3285
10175SOL    HW131424   4.736   2.157   5.784 -0.4157  0.4240 -0.0222
10175SOL    HW231425   4.655   2.214   5.654  0.2093 -0.8894 -1.0169
10176SOL     OW31426   4.814   6.932   0.768 -0.1524 -0.2723 -0.2299
10176SOL    HW131427   4.719   6.920   0.798  0.3296 -1.3044  0.9440
10176SOL    HW231428   4.814   6.958   0.671 -1.6639  0.9324  0.0378
10177SOL     OW31429   0.400   0.859   5.590 -0.2399  0.2716  0.0187
10177SOL    HW131430   0.411   0.886   5.685 -1.0456  1.6481 -0.2604
10177SOL    HW231431   0.376   0.762   5.585 -0.6438  0.3035  1.2264
10178SOL     OW31432   5.354   2.413   3.617  0.0120  0.5999 -0.3816
10178SOL    HW131433   5.368   2.323   3.575  0.7791  0.1352  0.8118
10178SOL    HW231434   5.256   2.432   3.625 -0.2872  1.5676 -4.0696
10179SOL     OW31435   4.023   3.479   0.105 -0.6917  0.3243 -0.7770
10179SOL    HW131436   4.041   3.382   0.124 -0.1271  0.6113  0.2829
10179SOL    HW231437   4.043   3.499   0.009  0.8186 -0.2646 -0.6130
10180SOL     OW31438   1.660   5.980   6.412 -0.1687  0.4268  0.0079
10180SOL    HW131439   1.650   6.011   6.507 -2.0447 -0.8730  0.2920
10180SOL    HW231440   1.569   5.968   6.371  0.5227 -1.7924 -1.0284
10181SOL     OW31441   6.043   1.946   2.864  0.3567 -0.1374  0.5125
10181SOL    HW131442   6.032   2.041   2.836 -1.0532  0.5631  3.1166
10181SOL    HW231443   6.011   1.885   2.791  1.0323  1.3405 -1.0849
10182SOL     OW31444   2.941   1.735   3.461  0.0009 -0.2401  0.0351
10182SOL    HW131445   2.889   1.716   3.545 -0.0690 -0.0194  0.0423
10182SOL    HW231446   3.011   1.803   3.480 -0.3785  0.2334 -0.2115
10183SOL     OW31447   3.878   0.346   5.629  0.4720  0.2864 -0.8735
10183SOL    HW131448   3.876   0.253   5.664 -0.7891  0.4465 -0.4640
10183SOL    HW231449   3.853   0.410   5.703  0.4651  0.8645 -1.3691
10184SOL     OW31450   3.899   0.743   1.978  0.0609 -0.6579 -0.2832
10184SOL    HW131451   3.899   0.843   1.971  2.2161 -0.6100 -0.2390
10184SOL    HW231452   3.808   0.708   1.958 -0.3078  1.1987 -2.1763
10185SOL     OW31453   2.843   6.947   3.028 -0.1900  0.0681  0.2036
10185SOL    HW131454   2.801   6.914   2.943  1.8230 -2.6695  0.1141
10185SOL    HW231455   2.782   7.013   3.072 -2.4395 -0.3093 -2.0777
10186SOL     OW31456   4.643   1.637   2.838 -0.6320 -0.9397 -0.0282
10186SOL    HW131457   4.579   1.696   2.790 -0.2238 -0.8870 -0.5217
10186SOL    HW231458   4.737   1.662   2.812 -0.2923  0.3225  2.1912
10187SOL     OW31459   0.331   4.569   2.128  0.2633  0.5574 -0.0813
10187SOL    HW131460   0.338   4.562   2.227 -0.6951  0.1037 -0.0317
10187SOL    HW231461   0.420   4.593   2.089  0.7747  0.1618  0.8344
10188SOL     OW31462   2.865   0.064   0.217 -0.1631  0.0692  0.1227
10188SOL    HW131463   2.795   0.100   0.280  1.0522 -1.4533  2.4869
10188SOL    HW231464   2.953   0.060   0.265  0.5754 -2.3053 -1.2974
10189SOL     OW31465   0.774   6.779   4.226 -0.2774 -0.1034 -0.2452
10189SOL    HW131466   0.868   6.803   4.250  0.1803 -0.9343 -1.1436
10189SOL    HW231467   0.723   6.754   4.309 -0.0765  1.5455  0.4007
10190SOL     OW31468   4.989   4.390   2.169 -0.1979 -0.6521 -0.4629
10190SOL    HW131469   5.078   4.363   2.131  1.9468 -0.3204  3.7209
10190SOL    HW231470   4.966   4.483   2.139  0.4804 -0.9707 -2.0903
10191SOL     OW31471   0.515   5.048   0.910  0.5610  0.7204  0.6820
10191SOL    HW131472   0.546   5.063   0.816  1.7442  0.2765  0.9799
10191SOL    HW231473   0.474   5.132   0.945  0.5995  1.0550 -0.0501
10192SOL     OW31474   5.643   1.391   1.060 -0.3141  0.2795 -0.0933
10192SOL    HW131475   5.664   1.338   0.978 -1.9468  0.2006 -0.4909
10192SOL    HW231476   5.645   1.489   1.038 -1.4708  0.2375 -0.4261
10193SOL     OW31477   4.910   4.467   1.491 -0.3199  0.2845  0.1593
10193SOL    HW131478   4.931   4.557   1.453 -0.6442  0.7213  0.9679
10193SOL    HW231479   4.945   4.396   1.431  0.3394  0.9552 -0.2687
10194SOL     OW31480   4.517   2.540   5.155  0.2999 -0.4712 -0.0944
10194SOL    HW131481   4.426   2.524   5.115 -0.5491 -4.6302  2.9037
10194SOL    HW231482   4.573   2.458   5.146  3.1392  1.3195 -0.0557
10195SOL     OW31483   5.421   3.705   2.885  0.2250 -0.1460 -0.1488
10195SOL    HW131484   5.422   3.623   2.942 -1.5995 -0.6257 -0.7527
10195SOL    HW231485   5.353   3.770   2.919 -1.1516 -0.5895 -1.9005
10196SOL     OW31486   6.488   0.950   2.930  0.8768  0.0158  0.2965
10196SOL    HW131487   6.541   1.030   2.958  1.4176  0.0323 -0.7303
10196SOL    HW231488   6.467   0.957   2.833 -1.3028  0.1613  0.7352
10197SOL     OW31489   5.043   6.896   0.186  0.1918  0.5689 -0.2218
10197SOL    HW131490   5.056   6.976   0.244  1.1288  0.4255 -0.2152
10197SOL    HW231491   5.118   6.831   0.202 -1.4691 -1.1229  1.0648
10198SOL     OW31492   4.278   5.938   3.413  0.1792 -0.2181 -0.8288
10198SOL    HW131493   4.226   5.899   3.336  0.1991 -0.5356 -0.6866
10198SOL    HW231494   4.238   5.905   3.499  0.9086 -0.8631 -0.7219
10199SOL     OW31495   0.203   3.061   5.506 -0.8021 -0.3812 -0.4966
10199SOL    HW131496   0.203   3.116   5.422 -0.5971 -1.4811 -1.2387
10199SOL    HW231497   0.269   3.100   5.571 -0.2660 -0.0559 -1.2211
10200SOL     OW31498   4.967   2.123   3.131 -0.1254 -0.3597  0.3026
10200SOL    HW131499   4.959   2.025   3.112 -0.0866 -0.3640  0.3080
10200SOL    HW231500   4.924   2.175   3.058 -1.9007 -0.4192  1.2598
10201SOL     OW31501   3.676   3.166   1.954  0.2776  0.3164 -0.6416
10201SOL    HW131502   3.753   3.128   2.006 -0.2380 -0.2728 -0.2898
10201SOL    HW231503   3.653   3.104   1.878  0.3901  0.6770 -0.9719
10202SOL     OW31504   4.677   5.195   3.748 -0.0574  0.0961  0.7662
10202SOL    HW131505   4.716   5.109   3.781 -0.3410 -0.2331  0.2659
10202SOL    HW231506   4.662   5.189   3.649 -1.8526  0.0061  1.0159
10203SOL     OW31507   0.117   3.925   5.061 -0.6222  0.6221  0.6436
10203SOL    HW131508   0.200   3.870   5.058  0.3609  2.0338  1.1430
10203SOL    HW231509   0.140   4.021   5.075 -2.3372  1.0783  0.6434
10204SOL     OW31510   4.620   4.608   6.641  0.2321 -0.5166 -0.1415
10204SOL    HW131511   4.660   4.517   6.652  0.6952 -0.3080 -0.0809
10204SOL    HW231512   4.604   4.648   6.731  1.4512  0.0744 -0.1740
10205SOL     OW31513   5.655   0.851   6.988 -0.4441  0.6111  0.0714
10205SOL    HW131514   5.589   0.794   7.037  0.8079 -0.0707  1.0566
10205SOL    HW231515   5.748   0.824   7.015  0.2264  2.0009 -0.7317
10206SOL     OW31516   2.757   0.779   4.484  0.1861 -0.0229 -0.2281
10206SOL    HW131517   2.765   0.878   4.497  0.1437 -0.1377  0.7590
10206SOL    HW231518   2.848   0.739   4.475  0.1749  0.1875 -1.3213
10207SOL     OW31519   3.254   1.606   0.764  0.1093 -0.4452 -0.3898
10207SOL    HW131520   3.283   1.536   0.829  0.9456 -0.6668 -0.9801
10207SOL    HW231521   3.334   1.658   0.733 -0.5474  1.0635  0.3495
10208SOL     OW31522   0.156   0.299   5.990  0.3016  0.2988  0.1315
10208SOL    HW131523   0.074   0.267   5.941 -1.3232  2.0265  1.5734
10208SOL    HW231524   0.171   0.240   6.069  0.1262  0.3024  0.1688
10209SOL     OW31525   0.996   0.718   6.676 -0.1875 -0.4144 -0.4147
10209SOL    HW131526   1.064   0.716   6.750  0.8140 -0.3625 -1.3026
10209SOL    HW231527   1.034   0.672   6.596 -1.5332 -1.1168 -0.6839
10210SOL     OW31528   3.724   6.618   2.408  0.1620 -0.4254  0.6546
10210SOL    HW131529   3.625   6.628   2.413  0.1789  1.1201 -1.1510
10210SOL    HW231530   3.748   6.521   2.406 -1.1824 -0.8438  2.5390
10211SOL     OW31531   6.478   4.309   0.336  0.2503 -0.2225 -0.6462
10211SOL    HW131532   6.499   4.357   0.421 -0.8075 -0.9733  0.0668
10211SOL    HW231533   6.540   4.340   0.264  0.3293  1.3634  0.0658
10212SOL     OW31534   1.824   0.092   0.515 -0.5517 -0.2020 -0.4840
10212SOL    HW131535   1.772   0.177   0.513  0.9537  0.7691  0.0454
10212SOL    HW231536   1.761   0.014   0.514 -1.9543  0.9037 -0.9199
10213SOL     OW31537   0.277   2.735   1.337  0.4418 -0.0528  0.6303
10213SOL    HW131538   0.286   2.791   1.255  0.7368 -1.1113 -0.0799
10213SOL    HW231539   0.368   2.710   1.370  0.3043 -0.8623  0.4091
10214SOL     OW31540   1.871   1.224   1.274 -0.2379 -0.0334 -0.5896
10214SOL    HW131541   1.888   1.323   1.273 -1.8409  0.2635 -0.9210
10214SOL    HW231542   1.848   1.196   1.367  2.0589 -0.4692 -0.1019
10215SOL     OW31543   4.124   3.551   3.230 -0.1532  0.5273 -0.3556
10215SOL    HW131544   4.085   3.512   3.313 -0.8196  1.0724 -0.4006
10215SOL    HW231545   4.146   3.478   3.165  0.9906  0.0403  0.5442
10216SOL     OW31546   0.672   6.311   1.981 -0.0516 -0.5929 -0.6726
10216SOL    HW131547   0.695   6.215   1.966  1.7419 -0.7740  2.2911
10216SOL    HW231548   0.597   6.317   2.047 -1.8487  0.1016 -2.6900
10217SOL     OW31549   4.227   0.416   3.214 -0.1560 -0.1040  1.0832
10217SOL    HW131550   4.225   0.322   3.178 -0.7380 -0.3743  1.8068
10217SOL    HW231551   4.269   0.476   3.146 -2.4981 -0.3319 -0.7169
10218SOL     OW31552   6.688   1.862   0.639 -0.7176  0.3060  0.6054
10218SOL    HW131553   6.609   1.862   0.578 -0.2416 -2.8401 -0.1517
10218SOL    HW231554   6.662   1.822   0.727  0.1129 -1.1963  0.1833
10219SOL     OW31555   6.512   6.184   2.321 -0.2924 -0.3535 -0.6807
10219SOL    HW131556   6.586   6.237   2.280  0.4573 -1.6798 -1.1352
10219SOL    HW231557   6.520   6.186   2.420 -0.5579  0.7594 -0.6786
10220SOL     OW31558   3.928   3.192   0.612 -0.0442 -0.3552  0.1249
10220SOL    HW131559   3.956   3.220   0.704  2.4441  0.6991 -0.8615
10220SOL    HW231560   3.942   3.094   0.601 -1.2269 -0.6609  1.1197
10221SOL     OW31561   6.905   6.319   3.380 -0.0074  0.1347 -0.1796
10221SOL    HW131562   6.844   6.359   3.311 -1.4194  0.2921  1.1270
10221SOL    HW231563   6.996   6.362   3.372 -0.1540  0.2289 -1.8384
10222SOL     OW31564   3.614   4.137   4.285 -0.0933 -0.8708 -0.1341
10222SOL    HW131565   3.595   4.113   4.190 -1.4021 -1.0438  0.1519
10222SOL    HW231566   3.690   4.081   4.319  0.3340 -0.8615 -1.0450
10223SOL     OW31567   3.001   0.481   5.214  0.6059  0.3230  0.1542
10223SOL    HW131568   2.967   0.498   5.121 -1.0659 -1.1438  0.4363
10223SOL    HW231569   3.020   0.384   5.225 -2.2638 -0.1435  2.2057
10224SOL     OW31570   6.907   1.815   1.593 -0.0616 -0.1636 -0.0502
10224SOL    HW131571   6.830   1.846   1.648 -0.9657 -2.4577  0.0899
10224SOL    HW231572   6.979   1.781   1.653 -0.4138 -1.2435 -0.2117
10225SOL     OW31573   3.360   5.931   4.921  0.5559  0.3690  0.4439
10225SOL    HW131574   3.289   5.967   4.982  0.0376 -0.3612  0.2851
10225SOL    HW231575   3.338   5.837   4.896  0.6528  0.7197 -1.0411
10226SOL     OW31576   4.989   0.245   5.434  0.0974 -0.8818  0.6170
10226SOL    HW131577   5.061   0.176   5.427 -0.0819 -1.1399  1.2372
10226SOL    HW231578   5.031   0.336   5.441  0.4437 -1.1338  2.4357
10227SOL     OW31579   4.704   3.486   1.011 -0.5053 -0.1601 -0.1354
10227SOL    HW131580   4.764   3.406   1.015 -2.0397 -1.3409 -0.2482
10227SOL    HW231581   4.675   3.502   0.917 -0.0203  0.6957 -0.1530
10228SOL     OW31582   4.527   1.076   6.568 -0.6257  0.7165  0.1902
10228SOL    HW131583   4.543   1.166   6.526 -0.2169  0.2133 -0.7597
10228SOL    HW231584   4.605   1.016   6.550 -1.4849 -0.2599 -0.3655
10229SOL     OW31585   1.570   1.897   4.115  0.2041 -0.5954 -0.4286
10229SOL    HW131586   1.536   1.826   4.176 -4.0054  0.7180 -0.9211
10229SOL    HW231587   1.577   1.984   4.165 -0.6029 -0.0949 -1.1647
10230SOL     OW31588   6.742   4.825   1.350 -0.1745 -0.3910  0.1795
10230SOL    HW131589   6.764   4.822   1.447  0.9678  0.8693 -0.0144
10230SOL    HW231590   6.805   4.766   1.300 -2.3341 -3.0802  0.4015
10231SOL     OW31591   0.901   3.427   2.962  0.8238 -0.1380 -0.2224
10231SOL    HW131592   0.907   3.517   2.917  0.4158 -0.0198 -0.0516
10231SOL    HW231593   0.808   3.413   2.995  1.0928 -0.2608  0.5095
10232SOL     OW31594   5.310   3.405   1.388 -0.0027  0.5067  0.3400
10232SOL    HW131595   5.243   3.373   1.322 -1.2866  2.5613  0.5586
10232SOL    HW231596   5.264   3.451   1.464  1.6226  2.7260  0.0824
10233SOL     OW31597   3.787   3.713   5.895  0.2933  0.9355 -0.0285
10233SOL    HW131598   3.764   3.626   5.851  0.6038  0.6029  0.4615
10233SOL    HW231599   3.883   3.712   5.922  0.0353  1.0090  0.9417
10234SOL     OW31600   1.418   0.021   0.949 -0.4823  0.7714 -0.8421
10234SOL    HW131601   1.340   0.084   0.956 -0.6624  0.3528  2.8540
10234SOL    HW231602   1.495   0.058   1.000  0.5649 -0.5088 -1.4247
10235SOL     OW31603   1.002   6.651   0.514 -0.2518 -0.2475 -0.4206
10235SOL    HW131604   1.090   6.618   0.480 -0.6152 -1.1492 -0.5211
10235SOL    HW231605   1.015   6.736   0.565  1.0326 -1.5440  1.5373
10236SOL     OW31606   0.522   6.247   1.705 -1.0092  0.0615  0.4803
10236SOL    HW131607   0.603   6.197   1.736 -0.4794  0.9667  0.5779
10236SOL    HW231608   0.528   6.342   1.735 -2.8688 -0.2089  1.8398
10237SOL     OW31609   6.595   4.529   4.467  0.2096 -0.3767  0.5478
10237SOL    HW131610   6.508   4.564   4.501  0.1125  1.0457 -1.0574
10237SOL    HW231611   6.579   4.446   4.414 -0.1624 -0.1365  0.2831
10238SOL     OW31612   2.102   6.539   0.585 -0.5281 -0.1650  0.6076
10238SOL    HW131613   2.165   6.481   0.637 -1.8590 -1.0119  1.3404
10238SOL    HW231614   2.043   6.589   0.648 -1.4535 -0.3866 -0.0686
10239SOL     OW31615   0.217   0.808   5.812 -0.1164  0.1248 -0.2304
10239SOL    HW131616   0.232   0.740   5.884 -0.5770  0.7456  0.4668
10239SOL    HW231617   0.164   0.884   5.849 -2.6980 -0.7486 -1.9068
10240SOL     OW31618   1.537   5.236   1.981  0.8541 -0.1852 -0.1689
10240SOL    HW131619   1.615   5.180   2.011  1.3002  1.1871  1.3942
10240SOL    HW231620   1.567   5.303   1.914  0.7038 -0.6035 -0.6583
10241SOL     OW31621   3.565   3.375   1.653 -0.0492 -0.4465 -0.2255
10241SOL    HW131622   3.572   3.473   1.632  0.2790 -0.5869 -0.8096
10241SOL    HW231623   3.475   3.355   1.690  0.1983  0.2299  0.7664
10242SOL     OW31624   0.314   3.977   2.277  0.5176 -0.2930  0.2776
10242SOL    HW131625   0.406   3.977   2.240 -0.0586 -0.7424 -1.2227
10242SOL    HW231626   0.248   3.960   2.204 -0.8301  0.9521  1.1348
10243SOL     OW31627   2.774   6.050   6.906  0.2137 -0.2587 -0.2685
10243SOL    HW131628   2.727   5.969   6.871  0.6562  0.4733 -2.7743
10243SOL    HW231629   2.870   6.045   6.881  0.6360  0.1800  1.2191
10244SOL     OW31630   1.780   6.918   1.485  0.2956  0.1227  0.1692
10244SOL    HW131631   1.794   6.822   1.458  0.3863 -0.5081  2.3059
10244SOL    HW231632   1.690   6.927   1.528  0.5134  0.8794  0.4729
10245SOL     OW31633   5.635   3.830   0.885 -0.2556  0.2500 -0.6372
10245SOL    HW131634   5.549   3.783   0.864 -1.0611 -0.9881  4.1637
10245SOL    HW231635   5.626   3.927   0.866 -2.2513 -0.0593 -1.5114
10246SOL     OW31636   3.714   2.873   3.240  0.0606 -0.1888  0.0525
10246SOL    HW131637   3.740   2.951   3.296  0.5126  0.6896 -1.3395
10246SOL    HW231638   3.648   2.817   3.290 -2.5888  2.6372 -0.0092
10247SOL     OW31639   6.236   6.751   5.017  0.0082  0.0302 -0.1230
10247SOL    HW131640   6.220   6.679   5.085  0.9664  0.5091  0.6280
10247SOL    HW231641   6.211   6.717   4.926  0.2259 -1.1778  0.2538
10248SOL     OW31642   2.048   1.101   3.057  0.6011 -0.3292  0.3581
10248SOL    HW131643   2.097   1.018   3.083 -0.6529 -1.8097 -1.6972
10248SOL    HW231644   2.063   1.172   3.126  2.6237 -1.8722  1.6058
10249SOL     OW31645   3.605   4.975   6.117 -0.5528 -0.0361 -0.0111
10249SOL    HW131646   3.702   4.962   6.139 -0.5552 -0.2662 -0.1376
10249SOL    HW231647   3.587   5.073   6.105 -0.5157  0.0803  0.8364
10250SOL     OW31648   2.782   2.415   1.164 -0.1720  0.8040 -0.0261
10250SOL    HW131649   2.831   2.480   1.106 -1.2160 -0.0777 -1.9969
10250SOL    HW231650   2.742   2.464   1.242  0.1980  2.2629 -0.7197
10251SOL     OW31651   1.489   0.788   4.915 -0.2131 -0.1073 -0.1241
10251SOL    HW131652   1.571   0.843   4.900 -0.2717  0.1245  0.3803
10251SOL    HW231653   1.461   0.796   5.010 -0.9320 -0.0275 -0.3351
10252SOL     OW31654   6.532   4.989   0.586 -0.5114  0.4664 -0.0228
10252SOL    HW131655   6.571   4.913   0.535 -1.2907 -1.2712  1.8288
10252SOL    HW231656   6.605   5.053   0.612  1.0421 -2.0708  2.3452
10253SOL     OW31657   4.288   4.464   0.874  0.2789  0.2528 -0.1122
10253SOL    HW131658   4.275   4.376   0.919 -0.3859  1.1384  1.5019
10253SOL    HW231659   4.360   4.456   0.805  1.1382 -1.2216  0.9080
10254SOL     OW31660   6.227   1.993   0.487  0.9922 -0.0594  0.4687
10254SOL    HW131661   6.238   1.976   0.585  0.6699  0.6387  0.6262
10254SOL    HW231662   6.298   2.055   0.455 -0.2731  1.6229  0.7662
10255SOL     OW31663   4.083   4.877   2.772 -0.6858 -0.1734 -0.4240
10255SOL    HW131664   4.062   4.887   2.674 -0.0102 -1.7311 -0.7534
10255SOL    HW231665   3.999   4.890   2.825 -1.0661  0.6827 -1.2021
10256SOL     OW31666   1.482   0.371   5.860  0.4686 -0.5366 -0.1301
10256SOL    HW131667   1.525   0.281   5.851 -0.1304 -1.0088  1.2865
10256SOL    HW231668   1.487   0.419   5.773  1.2686 -1.7281 -0.7830
10257SOL     OW31669   4.120   5.337   3.227  0.5609 -0.0857  0.3980
10257SOL    HW131670   4.028   5.301   3.212  1.0240 -1.1150 -0.1177
10257SOL    HW231671   4.118   5.437   3.227 -1.0170 -0.0281  3.3494
10258SOL     OW31672   2.887   1.198   2.829  0.1852  0.3392 -0.0199
10258SOL    HW131673   2.911   1.295   2.826 -2.0313  0.9464  0.4294
10258SOL    HW231674   2.905   1.163   2.921 -1.7987  1.1572  0.7398
10259SOL     OW31675   2.249   4.835   4.117 -0.1767  0.6236  0.1398
10259SOL    HW131676   2.155   4.869   4.124 -0.0225  1.1542 -0.2421
10259SOL    HW231677   2.305   4.903   4.069  0.1760 -0.1302 -0.5372
10260SOL     OW31678   1.153   0.725   5.222  0.8208 -0.3985  0.4115
10260SOL    HW131679   1.170   0.808   5.169  2.5479 -2.0765 -1.8840
10260SOL    HW231680   1.059   0.696   5.209  0.8646 -0.0721 -0.7199
10261SOL     OW31681   1.041   2.887   1.549 -0.5005 -0.7601 -0.0863
10261SOL    HW131682   1.011   2.842   1.465 -3.2560 -0.1113  0.4693
10261SOL    HW231683   0.989   2.852   1.626 -1.4947  2.0651  0.6277
10262SOL     OW31684   4.847   0.767   0.558  0.2837 -0.0206  0.0130
10262SOL    HW131685   4.912   0.786   0.484  0.0958 -1.9434 -0.7228
10262SOL    HW231686   4.892   0.708   0.626  0.0669  0.7142  0.7979
10263SOL     OW31687   5.737   0.890   1.440 -0.3468  0.7790  0.3977
10263SOL    HW131688   5.726   0.947   1.358 -0.0343 -0.1917 -0.3398
10263SOL    HW231689   5.655   0.899   1.497 -0.8442  0.9880 -0.3247
10264SOL     OW31690   6.563   0.967   0.094 -0.1989  0.4491  0.6196
10264SOL    HW131691   6.500   0.907   0.045  0.4015 -2.1509  2.7858
10264SOL    HW231692   6.531   1.062   0.088 -3.6531 -0.5742  0.5926
10265SOL     OW31693   1.021   0.367   3.928 -0.4143  0.1891 -0.3457
10265SOL    HW131694   1.074   0.403   4.004  0.2028  0.6936 -1.0021
10265SOL    HW231695   0.947   0.431   3.906 -0.3050  0.2692 -0.4770
10266SOL     OW31696   2.724   4.558   0.338 -0.0844 -0.2960  0.3281
10266SOL    HW131697   2.726   4.491   0.412  2.4052  0.9800  1.5604
10266SOL    HW231698   2.727   4.511   0.250  2.0981 -1.8572  1.1554
10267SOL     OW31699   6.997   1.375   6.834 -0.1462 -0.4501  0.2874
10267SOL    HW131700   6.902   1.344   6.825  0.1434 -1.4341  0.4529
10267SOL    HW231701   7.031   1.405   6.744 -0.9653  1.0369  0.4410
10268SOL     OW31702   3.986   4.742   1.685  0.0662 -0.3178 -0.2832
10268SOL    HW131703   4.048   4.816   1.661  0.3806 -0.2189  0.7989
10268SOL    HW231704   3.914   4.776   1.745 -2.6811  0.1953 -3.5434
10269SOL     OW31705   2.148   1.031   5.762 -0.1236 -0.2188  0.6966
10269SOL    HW131706   2.236   1.032   5.712  0.1734 -0.2785  1.2147
10269SOL    HW231707   2.119   1.125   5.779  0.0462 -0.1995  0.8833
10270SOL     OW31708   3.227   1.682   4.271  0.3395 -0.3049  0.5039
10270SOL    HW131709   3.190   1.744   4.340 -0.8796 -0.0999 -0.2934
10270SOL    HW231710   3.316   1.648   4.300  0.9934  1.7313  1.0193
10271SOL     OW31711   2.291   1.422   1.214 -0.1959 -0.0391  0.1512
10271SOL    HW131712   2.212   1.466   1.255  0.4300  1.6197 -0.3295
10271SOL    HW231713   2.300   1.329   1.250 -1.5857  0.1935  1.1861
10272SOL     OW31714   5.448   6.158   3.681  0.3579 -0.2687 -0.3093
10272SOL    HW131715   5.452   6.246   3.729 -0.2404  0.0525 -0.8291
10272SOL    HW231716   5.363   6.111   3.707  1.2132 -1.2283  0.8573
10273SOL     OW31717   1.689   0.724   3.270 -0.1814  0.3072 -0.0327
10273SOL    HW131718   1.605   0.768   3.237 -0.5038 -1.2319 -1.3782
10273SOL    HW231719   1.768   0.774   3.236 -0.5144  1.6975  1.1398
10274SOL     OW31720   6.794   4.667   4.238 -0.2603  0.7965 -0.0359
10274SOL    HW131721   6.714   4.620   4.275 -0.1713  0.0521 -0.7709
10274SOL    HW231722   6.877   4.622   4.271 -0.1210  1.7112  0.9168
10275SOL     OW31723   6.287   2.848   1.148  0.2172  0.2088 -0.1398
10275SOL    HW131724   6.343   2.784   1.096 -0.3555 -1.4384  1.1748
10275SOL    HW231725   6.326   2.940   1.143  1.5321 -0.3980 -1.3953
10276SOL     OW31726   3.318   4.897   4.313  0.1663  0.4334 -0.1838
10276SOL    HW131727   3.292   4.990   4.340  0.9376  0.9450 -1.1263
10276SOL    HW231728   3.235   4.842   4.300 -0.3073  1.0467  0.1719
10277SOL     OW31729   6.941   5.782   3.839 -0.1397  0.1062 -0.3199
10277SOL    HW131730   7.035   5.807   3.817 -0.4405  0.9793 -0.6684
10277SOL    HW231731   6.882   5.802   3.761 -0.6575 -0.1977 -0.0144
10278SOL     OW31732   6.150   1.532   4.433 -0.1868  0.4085 -0.1304
10278SOL    HW131733   6.163   1.451   4.491 -0.0741 -1.5980 -2.7632
10278SOL    HW231734   6.065   1.577   4.458 -1.4644 -1.9002 -0.0425
10279SOL     OW31735   6.954   4.929   2.809 -0.7560 -0.4838  0.0807
10279SOL    HW131736   6.922   4.963   2.898  1.3556  2.1788 -0.0201
10279SOL    HW231737   7.045   4.889   2.821  0.2107  1.2656 -1.0259
10280SOL     OW31738   6.825   0.962   6.996 -0.2026  0.3280  0.3047
10280SOL    HW131739   6.776   1.014   7.067 -2.9099 -1.4588 -0.1260
10280SOL    HW231740   6.759   0.915   6.938  2.0259 -3.9502  0.9039
10281SOL     OW31741   3.749   0.516   3.891 -0.1807 -0.9220  0.2133
10281SOL    HW131742   3.704   0.427   3.889 -1.0657 -0.4778 -1.1002
10281SOL    HW231743   3.695   0.582   3.837  1.6482 -0.1667 -0.7797
10282SOL     OW31744   5.161   2.050   5.020 -0.4202  0.5513 -0.9240
10282SOL    HW131745   5.245   2.061   4.968  1.1415  0.5899  1.4299
10282SOL    HW231746   5.135   1.953   5.020 -0.7061  0.6220 -2.1242
10283SOL     OW31747   0.184   1.643   6.812  0.4462  0.1114  0.1247
10283SOL    HW131748   0.193   1.672   6.907 -0.4288 -0.3172  0.3503
10283SOL    HW231749   0.229   1.554   6.800  0.6279  0.2040  0.1150
10284SOL     OW31750   0.796   6.474   4.383  0.5419  0.7097 -0.0889
10284SOL    HW131751   0.875   6.415   4.404 -0.1190 -0.1504  0.0222
10284SOL    HW231752   0.770   6.462   4.287 -0.5348 -0.3625  0.3045
10285SOL     OW31753   1.207   0.158   6.263  0.6796 -0.0938  0.0791
10285SOL    HW131754   1.156   0.170   6.178  0.1697  2.0648  0.6344
10285SOL    HW231755   1.145   0.135   6.337  0.8296  0.1781  0.2909
10286SOL     OW31756   2.280   5.690   1.799  0.4357 -0.5845 -0.4242
10286SOL    HW131757   2.222   5.744   1.860 -0.1701 -1.4880 -0.1803
10286SOL    HW231758   2.229   5.610   1.767  1.9614 -2.1714  0.9193
10287SOL     OW31759   0.227   5.574   2.091 -0.6313  0.2439 -0.2651
10287SOL    HW131760   0.252   5.528   2.177 -0.0298  2.1692  0.6548
10287SOL    HW231761   0.308   5.579   2.032 -0.9419 -0.7163 -0.7823
10288SOL     OW31762   3.665   0.276   3.073 -0.5183  0.2363 -0.7595
10288SOL    HW131763   3.636   0.293   2.978  2.0166  0.7626 -1.5412
10288SOL    HW231764   3.727   0.349   3.101 -1.9916  0.6340  1.7342
10289SOL     OW31765   3.455   4.965   0.640  0.2602 -0.1095  0.3293
10289SOL    HW131766   3.477   4.872   0.609 -0.5880 -0.4821  0.8199
10289SOL    HW231767   3.539   5.012   0.664  0.8457 -0.2442 -1.2896
10290SOL     OW31768   3.706   2.939   4.184  0.1451  0.3673 -0.4410
10290SOL    HW131769   3.662   2.872   4.243  0.3919  0.8922  0.3475
10290SOL    HW231770   3.646   3.019   4.174  0.1033  0.2821 -0.9111
10291SOL     OW31771   3.158   1.835   3.270  0.7893 -0.3433  0.4663
10291SOL    HW131772   3.117   1.926   3.276  1.4577  0.1462 -1.7243
10291SOL    HW231773   3.164   1.796   3.362 -0.1544  1.5228  1.3792
10292SOL     OW31774   6.331   1.185   6.218 -0.0242  0.1302  0.4511
10292SOL    HW131775   6.242   1.228   6.232  0.0700  0.7637 -0.8083
10292SOL    HW231776   6.323   1.112   6.151  0.7854  1.6668 -1.4118
10293SOL     OW31777   1.910   4.488   2.497 -0.0677  0.2175  0.0868
10293SOL    HW131778   1.910   4.411   2.561 -0.8755 -0.7651 -1.0304
10293SOL    HW231779   1.975   4.468   2.423  0.4935  1.1072  0.3281
10294SOL     OW31780   3.269   1.480   1.550  0.0968 -0.4440 -0.2760
10294SOL    HW131781   3.187   1.537   1.550  0.8899  0.8014  1.9630
10294SOL    HW231782   3.252   1.396   1.602 -0.0175 -0.6425 -0.6259
10295SOL     OW31783   2.895   0.454   0.965 -0.5976  0.1349  0.3889
10295SOL    HW131784   2.956   0.516   0.916 -0.1023 -2.1026 -2.0480
10295SOL    HW231785   2.905   0.468   1.064  2.1198  1.4614  0.0037
10296SOL     OW31786   0.746   3.997   3.948 -0.2300  0.2880  0.1016
10296SOL    HW131787   0.769   3.993   4.045 -1.4240 -1.0128  0.3571
10296SOL    HW231788   0.654   4.034   3.937  0.7869  2.7845 -0.7275
10297SOL     OW31789   3.569   1.632   2.163  0.3301  0.5451  0.3708
10297SOL    HW131790   3.662   1.608   2.191  0.5997  0.6404 -0.4395
10297SOL    HW231791   3.509   1.633   2.244  0.8302 -0.4071  0.7611
10298SOL     OW31792   1.287   1.314   2.279  0.1581 -0.3851  0.1629
10298SOL    HW131793   1.250   1.279   2.193 -0.9396 -0.8555  0.8009
10298SOL    HW231794   1.260   1.409   2.290 -1.4915 -0.9058  0.9268
10299SOL     OW31795   5.409   6.041   2.382  0.1616 -0.0162  0.2421
10299SOL    HW131796   5.324   6.008   2.424 -0.6749  1.8315  0.1362
10299SOL    HW231797   5.394   6.134   2.347  1.7897 -0.2483 -1.2097
10300SOL     OW31798   6.160   4.082   0.083 -0.0204  0.7392  0.1095
10300SOL    HW131799   6.169   4.175   0.120 -1.6001  1.1337 -0.4244
10300SOL    HW231800   6.216   4.074  -0.000  1.9622  0.4559  1.3978
10301SOL     OW31801   5.459   0.756   6.790  0.0978  0.3268 -0.1038
10301SOL    HW131802   5.515   0.830   6.752 -1.1716  0.8735 -1.0309
10301SOL    HW231803   5.377   0.746   6.734 -0.3342 -0.9893  0.7311
10302SOL     OW31804   1.600   5.182   6.157  0.5771  0.1911  0.1173
10302SOL    HW131805   1.540   5.160   6.234 -1.2433  1.3750 -0.8697
10302SOL    HW231806   1.692   5.200   6.190 -0.2019  0.8788  2.0363
10303SOL     OW31807   1.873   3.493   5.577  0.0252  0.4713  0.3121
10303SOL    HW131808   1.964   3.480   5.539  0.3954 -1.8655  1.7778
10303SOL    HW231809   1.805   3.449   5.519 -0.1045  1.4638 -0.3212
10304SOL     OW31810   3.693   5.702   6.669  0.2909  0.1763 -0.6735
10304SOL    HW131811   3.750   5.744   6.740 -0.2024  2.7306 -1.6800
10304SOL    HW231812   3.599   5.693   6.703  0.1738  0.8724 -0.8142
10305SOL     OW31813   4.904   2.459   5.467  0.1798  1.0117 -0.6705
10305SOL    HW131814   4.989   2.411   5.489 -0.5348  0.0965  0.1533
10305SOL    HW231815   4.878   2.439   5.373 -1.1514 -1.9436  0.2111
10306SOL     OW31816   3.943   1.163   1.155 -0.3666 -0.5577  0.2553
10306SOL    HW131817   3.972   1.069   1.139 -1.4811 -1.0514  1.0261
10306SOL    HW231818   3.881   1.191   1.082  0.0980 -0.3469 -0.0669
10307SOL     OW31819   0.897   5.026   3.610 -0.6872 -0.2983 -0.1672
10307SOL    HW131820   0.911   5.115   3.653 -2.0544 -1.1403  2.2048
10307SOL    HW231821   0.871   5.039   3.515  3.1051  1.6472 -1.1471
10308SOL     OW31822   3.132   6.124   0.284  0.1260 -0.1251 -0.3730
10308SOL    HW131823   3.063   6.120   0.356 -0.6609 -0.1807 -1.1026
10308SOL    HW231824   3.223   6.133   0.324 -0.2008 -1.1471  0.6576
10309SOL     OW31825   6.189   1.290   4.565 -0.3296  0.5692 -0.0303
10309SOL    HW131826   6.242   1.206   4.573  0.7488  1.3917  2.3096
10309SOL    HW231827   6.112   1.288   4.628 -1.4042  0.6120 -1.2960
10310SOL     OW31828   2.813   6.554   6.167 -0.1791 -0.2026 -0.0172
10310SOL    HW131829   2.863   6.550   6.080 -1.5750 -2.8545 -0.7780
10310SOL    HW231830   2.729   6.607   6.154  0.5540  1.0699  0.2774
10311SOL     OW31831   5.314   4.054   1.229  0.4089  0.1947 -0.5868
10311SOL    HW131832   5.382   4.107   1.178  0.2260  2.4953  1.4094
10311SOL    HW231833   5.228   4.054   1.178  1.8263 -3.2260 -3.4330
10312SOL     OW31834   3.634   1.444   1.405 -0.3270  0.3965 -0.4034
10312SOL    HW131835   3.633   1.362   1.348  0.5879 -0.5025  0.8196
10312SOL    HW231836   3.548   1.494   1.394 -0.4546 -0.1421 -1.9870
10313SOL     OW31837   5.918   5.917   4.097 -0.3291  0.1351  0.0389
10313SOL    HW131838   5.983   5.928   4.022  0.5646 -2.6815  0.2838
10313SOL    HW231839   5.831   5.959   4.073  0.2970  0.3276 -2.0439
10314SOL     OW31840   6.430   6.304   6.185 -0.6734 -0.5445 -0.0141
10314SOL    HW131841   6.451   6.249   6.104 -0.6157 -2.1494  1.0546
10314SOL    HW231842   6.330   6.310   6.196 -0.6945  0.1552 -0.4952
10315SOL     OW31843   6.720   3.608   3.518 -0.4764 -0.4271  0.0481
10315SOL    HW131844   6.638   3.614   3.460 -0.1222  1.9161 -0.3156
10315SOL    HW231845   6.788   3.551   3.473  0.1394  2.0486 -2.4107
10316SOL     OW31846   0.903   3.039   6.458 -0.4084 -0.5587 -0.2972
10316SOL    HW131847   0.861   3.129   6.456  0.8729  0.0537 -0.5353
10316SOL    HW231848   0.930   3.013   6.365 -0.0477 -0.8348 -0.1172
10317SOL     OW31849   2.996   5.979   2.820 -0.4501  0.3903  0.0329
10317SOL    HW131850   2.906   6.002   2.856 -0.1804  1.8986 -0.1731
10317SOL    HW231851   3.058   5.958   2.896 -0.7963  0.0356  0.2190
10318SOL     OW31852   5.254   1.407   1.001  0.0602  0.1051  0.4325
10318SOL    HW131853   5.245   1.501   0.969 -0.5145  0.5268  1.7802
10318SOL    HW231854   5.228   1.402   1.098 -0.7448 -1.5843  0.1595
10319SOL     OW31855   7.003   5.239   3.927 -0.5547  0.7426 -0.4131
10319SOL    HW131856   6.956   5.292   3.856  0.1919  0.9406 -0.7719
10319SOL    HW231857   6.959   5.255   4.015 -2.1096 -0.2664 -0.9771
10320SOL     OW31858   6.031   2.124   4.633 -0.2651  0.2708 -0.2185
10320SOL    HW131859   5.991   2.145   4.544  0.9074 -0.4423 -0.9403
10320SOL    HW231860   6.120   2.169   4.641  0.4103 -1.0401 -0.1251
10321SOL     OW31861   5.439   1.644   3.250  0.3176 -0.3079  0.3292
10321SOL    HW131862   5.462   1.706   3.174 -0.7987 -1.7841 -1.2887
10321SOL    HW231863   5.465   1.687   3.336  2.1281  1.2362 -0.8868
10322SOL     OW31864   5.578   4.959   4.885 -0.2829 -0.1068 -0.5633
10322SOL    HW131865   5.628   4.901   4.821  0.8328 -0.3303  0.4683
10322SOL    HW231866   5.487   4.920   4.901  0.0119 -0.9105 -0.8034
10323SOL     OW31867   0.958   5.177   0.324 -0.7213 -0.0460 -0.1837
10323SOL    HW131868   1.038   5.203   0.270  0.2580 -2.5432 -0.0746
10323SOL    HW231869   0.965   5.217   0.415  0.1411  0.1994 -0.3502
10324SOL     OW31870   3.616   2.927   2.420 -0.0306  0.1003 -0.2344
10324SOL    HW131871   3.517   2.935   2.423 -0.0505  0.1438 -1.0370
10324SOL    HW231872   3.647   2.913   2.326  0.6109 -1.4547  0.1788
10325SOL     OW31873   0.471   6.756   4.367  0.2602  0.1342 -0.2679
10325SOL    HW131874   0.547   6.729   4.427  0.1174  0.5128  0.0976
10325SOL    HW231875   0.407   6.680   4.357  0.0785  0.1916  0.3969
10326SOL     OW31876   5.184   5.648   6.793  0.1628 -0.0188  0.2172
10326SOL    HW131877   5.111   5.591   6.757  0.2191 -0.9640  1.5069
10326SOL    HW231878   5.155   5.688   6.880  0.6394  0.8120  0.0095
10327SOL     OW31879   2.295   6.398   0.715  0.7200 -0.1483 -0.4597
10327SOL    HW131880   2.320   6.478   0.769 -0.1019  0.1293 -0.4779
10327SOL    HW231881   2.377   6.359   0.674  1.1065  0.8024 -0.6222
10328SOL     OW31882   0.289   3.670   3.236 -0.0453 -0.0841  0.3870
10328SOL    HW131883   0.241   3.594   3.192 -0.7132  0.7537 -0.3707
10328SOL    HW231884   0.387   3.660   3.223 -0.1254 -0.8057  0.2918
10329SOL     OW31885   3.217   1.971   2.873  0.2147 -0.1304  0.7773
10329SOL    HW131886   3.225   2.046   2.807  1.2940 -0.4544  0.5258
10329SOL    HW231887   3.210   2.008   2.966  1.0195  0.2768  0.6766
10330SOL     OW31888   6.573   5.053   1.835  0.3717  0.4879 -0.0889
10330SOL    HW131889   6.521   4.972   1.864 -0.9776  1.2075 -0.4134
10330SOL    HW231890   6.529   5.094   1.755  1.4798  1.1150 -0.3990
10331SOL     OW31891   5.006   6.840   4.678 -0.5842  0.5266  0.5758
10331SOL    HW131892   5.089   6.786   4.689 -1.0632 -0.7399 -1.5060
10331SOL    HW231893   4.968   6.825   4.587 -1.0189  4.0713  0.0288
10332SOL     OW31894   2.584   2.059   1.227 -0.2910  0.3020  0.2503
10332SOL    HW131895   2.676   2.080   1.193 -0.1431  2.4145  1.7421
10332SOL    HW231896   2.522   2.045   1.150  0.7458  1.3818 -0.8347
10333SOL     OW31897   1.651   4.219   3.626  0.0128 -1.1353 -0.5181
10333SOL    HW131898   1.713   4.159   3.677 -0.0754 -0.6489  0.1744
10333SOL    HW231899   1.704   4.294   3.586  0.2533 -2.0848 -2.0684
10334SOL     OW31900   4.139   2.010   5.120 -0.4698  0.2809 -0.3717
10334SOL    HW131901   4.049   1.984   5.086 -0.5035  1.8480 -1.5778
10334SOL    HW231902   4.169   1.943   5.188 -1.4303 -1.6827 -1.7728
10335SOL     OW31903   1.202   3.345   3.744  0.9300  0.1550 -0.1163
10335SOL    HW131904   1.297   3.317   3.730  0.6073 -1.1205  0.1571
10335SOL    HW231905   1.154   3.346   3.656  0.4451 -2.1322  0.0511
10336SOL     OW31906   6.939   6.802   2.720 -0.4028  0.1965  0.1040
10336SOL    HW131907   6.857   6.763   2.680 -0.5642 -0.3445  0.9212
10336SOL    HW231908   6.973   6.876   2.663 -0.6857 -0.4689 -0.9412
10337SOL     OW31909   5.362   5.743   5.934  0.5432  0.3562  0.4830
10337SOL    HW131910   5.448   5.699   5.961  0.7058 -0.2692 -1.0017
10337SOL    HW231911   5.298   5.740   6.011  0.4257 -2.7715  0.3703
10338SOL     OW31912   6.521   4.654   1.725 -0.0695 -0.1417 -0.0422
10338SOL    HW131913   6.588   4.642   1.798  1.0674 -0.6176 -1.1437
10338SOL    HW231914   6.558   4.620   1.639 -0.9972  1.3352 -1.0663
10339SOL     OW31915   5.784   2.828   6.193 -0.0003  0.1763 -0.2904
10339SOL    HW131916   5.751   2.751   6.139 -1.6575  1.0564 -0.6219
10339SOL    HW231917   5.878   2.850   6.167 -0.1595 -0.5447 -1.5354
10340SOL     OW31918   2.949   3.386   3.836 -0.3361  0.1446  0.4153
10340SOL    HW131919   3.017   3.366   3.907 -0.8549  0.7401  1.0999
10340SOL    HW231920   2.934   3.485   3.832 -0.5076  0.0921 -0.3569
10341SOL     OW31921   4.986   4.646   3.450  0.1804 -0.8687 -0.2714
10341SOL    HW131922   4.965   4.647   3.548 -1.6375 -0.9079 -0.6218
10341SOL    HW231923   4.985   4.552   3.416  2.4295 -1.0175 -0.0464
10342SOL     OW31924   0.801   1.146   4.832  0.5458 -0.4456  0.1101
10342SOL    HW131925   0.789   1.052   4.863  1.0308  0.1510  2.2478
10342SOL    HW231926   0.893   1.177   4.855 -0.1245  1.0607  0.9076
10343SOL     OW31927   3.610   6.916   1.400  0.0855 -0.0071  0.2766
10343SOL    HW131928   3.675   6.907   1.325 -0.8401  0.0218 -0.5529
10343SOL    HW231929   3.522   6.876   1.372 -0.5749  0.9508  0.9514
10344SOL     OW31930   3.418   5.556   6.009  0.1779  0.1500  0.0686
10344SOL    HW131931   3.502   5.526   5.965 -0.6671 -0.7959 -0.9558
10344SOL    HW231932   3.424   5.654   6.029  0.9212  0.4296 -1.4135
10345SOL     OW31933   6.414   2.917   3.994 -0.4070  0.2264  0.1028
10345SOL    HW131934   6.327   2.868   4.005 -0.7229  0.6466 -0.5003
10345SOL    HW231935   6.428   2.940   3.898  0.4956 -0.0522  0.1523
10346SOL     OW31936   1.903   5.826   1.008 -0.2983  0.2785  0.2939
10346SOL    HW131937   1.857   5.791   1.090 -0.4261 -2.8388 -0.9562
10346SOL    HW231938   1.967   5.757   0.974  0.6366  1.9712 -1.5671
10347SOL     OW31939   0.770   2.261   0.647 -0.1873  0.1357 -0.6708
10347SOL    HW131940   0.755   2.357   0.670  1.1424  0.0529  0.7005
10347SOL    HW231941   0.752   2.204   0.727  1.2935 -0.5129 -0.7687
10348SOL     OW31942   0.546   5.265   6.782 -0.2204  0.2202 -0.1295
10348SOL    HW131943   0.613   5.293   6.851 -0.1143  1.3532 -0.6667
10348SOL    HW231944   0.495   5.185   6.815  0.6021  0.0512  0.7697
10349SOL     OW31945   6.709   1.235   6.819 -0.6551 -0.2982  0.9624
10349SOL    HW131946   6.705   1.252   6.917  1.5138  0.9395  0.9116
10349SOL    HW231947   6.749   1.144   6.802  1.2938  0.4439  1.2860
10350SOL     OW31948   5.128   0.948   6.787 -0.0967 -0.4066 -0.0081
10350SOL    HW131949   5.140   0.863   6.837 -0.4400 -0.9265 -0.7904
10350SOL    HW231950   5.218   0.991   6.772 -0.0337  0.0147  1.4649
10351SOL     OW31951   4.388   5.848   5.866 -0.9662  0.0925  0.6097
10351SOL    HW131952   4.320   5.798   5.918 -1.1131 -1.9240 -1.3598
10351SOL    HW231953   4.445   5.784   5.815  1.3903  1.7939  0.9195
10352SOL     OW31954   3.972   4.926   5.926 -0.0592 -0.2787  0.0428
10352SOL    HW131955   3.878   4.916   5.891 -0.1845  1.1081 -0.0765
10352SOL    HW231956   4.031   4.959   5.852 -0.1530  1.8611  0.8473
10353SOL     OW31957   6.990   4.534   4.632 -0.0839 -0.1035  0.1208
10353SOL    HW131958   7.029   4.613   4.680 -1.1497 -0.3974  1.5341
10353SOL    HW231959   6.999   4.548   4.533  0.6760  1.2948  0.3517
10354SOL     OW31960   4.570   2.617   1.021  0.3507  0.4979 -0.0804
10354SOL    HW131961   4.580   2.530   0.973  1.3712 -0.5082  1.8242
10354SOL    HW231962   4.477   2.626   1.056 -0.0845  0.7332 -1.2641
10355SOL     OW31963   6.614   3.198   2.658 -0.7620 -0.6975  0.0292
10355SOL    HW131964   6.559   3.266   2.609 -0.4453 -0.4055  0.0780
10355SOL    HW231965   6.681   3.158   2.596  0.4227  0.5129  0.4998
10356SOL     OW31966   2.304   4.270   5.140 -0.1088  0.5578  0.6459
10356SOL    HW131967   2.303   4.204   5.065 -0.5418  1.6142 -0.3195
10356SOL    HW231968   2.363   4.237   5.213  1.9762  0.4013 -1.0144
10357SOL     OW31969   3.941   4.061   5.793 -0.7607 -0.5168 -0.0351
10357SOL    HW131970   3.898   4.069   5.704 -2.8115 -0.9438  0.8699
10357SOL    HW231971   3.990   3.974   5.799 -0.8010 -0.5844 -0.6466
10358SOL     OW31972   1.523   1.495   2.311  0.0037  1.1412 -0.6835
10358SOL    HW131973   1.504   1.534   2.401 -0.3589  0.1946 -0.3323
10358SOL    HW231974   1.476   1.407   2.302  0.7155  0.8231 -1.4758
10359SOL     OW31975   2.441   2.745   0.469 -0.4000  0.1116  0.6144
10359SOL    HW131976   2.370   2.804   0.431 -1.0749 -0.0482  1.5740
10359SOL    HW231977   2.475   2.785   0.555 -2.0416 -1.6094  2.1774
10360SOL     OW31978   0.527   3.917   3.277 -0.4632  0.1662 -0.2060
10360SOL    HW131979   0.564   4.010   3.278 -1.8607  0.7632  1.0829
10360SOL    HW231980   0.460   3.909   3.203 -0.5964  0.2892 -0.0983
10361SOL     OW31981   2.666   5.009   5.708  0.3193 -0.0253 -0.1590
10361SOL    HW131982   2.737   4.943   5.730  0.9864 -0.1040 -2.2528
10361SOL    HW231983   2.708   5.097   5.686 -0.1239 -0.2288 -1.9899
10362SOL     OW31984   0.995   6.065   5.334  0.2889  0.1036 -0.1455
10362SOL    HW131985   1.074   6.029   5.383  1.1346 -0.7417 -2.0602
10362SOL    HW231986   0.952   5.993   5.281 -1.5209  0.6624  0.4675
10363SOL     OW31987   4.563   1.076   4.879 -0.2821 -0.5440 -0.0330
10363SOL    HW131988   4.523   1.033   4.798  1.3871 -0.1937 -1.0877
10363SOL    HW231989   4.546   1.175   4.876  1.6505 -0.2032 -1.1483
10364SOL     OW31990   2.443   4.202   0.602  0.3815 -0.8101 -0.4253
10364SOL    HW131991   2.409   4.270   0.667 -0.9230 -1.2471 -0.6103
10364SOL    HW231992   2.506   4.140   0.649  0.1702 -0.5707  0.1902
10365SOL     OW31993   6.824   5.239   7.010 -0.0762 -0.1522  0.4178
10365SOL    HW131994   6.758   5.254   7.083  0.0140  4.4813 -0.1065
10365SOL    HW231995   6.778   5.243   6.921  0.5928  1.5797  0.0988
10366SOL     OW31996   6.891   6.648   5.572 -0.4154 -0.1594  0.6215
10366SOL    HW131997   6.807   6.696   5.544 -1.4172 -1.8002  0.6820
10366SOL    HW231998   6.966   6.714   5.579 -1.7198  1.3812  0.6946
10367SOL     OW31999   4.750   1.432   4.714  0.0196 -0.3013 -0.3799
10367SOL    HW132000   4.828   1.369   4.724 -0.0772 -0.5114 -0.9078
10367SOL    HW232001   4.674   1.401   4.771 -0.0512 -0.7014 -0.6928
10368SOL     OW32002   3.451   4.786   6.665 -0.1114  0.0008  0.2654
10368SOL    HW132003   3.445   4.695   6.623 -0.3801  0.0771  0.1370
10368SOL    HW232004   3.546   4.817   6.663 -0.3681  0.8466 -2.0691
10369SOL     OW32005   4.148   3.272   6.582  0.1021 -0.0282 -0.0365
10369SOL    HW132006   4.058   3.268   6.623  1.1346 -0.9994  2.2960
10369SOL    HW232007   4.151   3.211   6.503 -0.4779 -2.3826  1.6612
10370SOL     OW32008   3.676   6.837   5.415 -0.2782 -0.1395 -0.4296
10370SOL    HW132009   3.699   6.742   5.436  0.3062 -0.1178 -0.9466
10370SOL    HW232010   3.624   6.876   5.491 -0.5912 -0.8934 -0.2413
10371SOL     OW32011   4.687   0.464   4.988  0.1104 -0.0311 -0.6522
10371SOL    HW132012   4.588   0.480   4.981 -0.3931 -0.8324  2.7909
10371SOL    HW232013   4.703   0.369   5.015  1.5036  0.8944  2.2265
10372SOL     OW32014   5.993   6.311   3.674  0.1944  0.0372 -0.3252
10372SOL    HW132015   6.044   6.396   3.658  1.8891 -0.8882 -0.1057
10372SOL    HW232016   6.057   6.234   3.679 -1.3740 -1.5111 -2.0480
10373SOL     OW32017   3.572   6.155   3.501  0.0139  0.1082 -0.0935
10373SOL    HW132018   3.577   6.077   3.564 -1.4616 -1.4209 -1.7626
10373SOL    HW232019   3.476   6.178   3.486  0.1386 -1.0831 -3.4722
10374SOL     OW32020   4.823   1.224   0.627 -0.0838 -0.0529  0.0278
10374SOL    HW132021   4.723   1.229   0.629 -0.1245  0.2434 -1.3782
10374SOL    HW232022   4.854   1.214   0.532  1.2145 -0.5018  0.4688
10375SOL     OW32023   0.955   4.070   0.363  0.3234  0.5125 -0.3765
10375SOL    HW132024   0.906   4.019   0.292 -1.1402 -0.9080  1.5272
10375SOL    HW232025   0.890   4.127   0.414  1.1311  0.6324  0.5439
10376SOL     OW32026   0.593   6.645   3.583  0.2567 -0.4704  0.6161
10376SOL    HW132027   0.637   6.724   3.625 -0.1239 -0.4231  0.9279
10376SOL    HW232028   0.583   6.572   3.650  1.8960 -1.3422 -0.0100
10377SOL     OW32029   0.826   6.961   2.163  0.9196 -0.5240  0.1698
10377SOL    HW132030   0.831   7.034   2.094 -0.6787 -1.8385 -1.4080
10377SOL    HW232031   0.801   7.001   2.251 -1.9879  0.6961 -1.0675
10378SOL     OW32032   0.555   6.945   6.418  0.2551 -0.2203  0.1522
10378SOL    HW132033   0.625   6.914   6.355 -0.0205  2.8757 -1.9013
10378SOL    HW232034   0.465   6.928   6.379  0.0308  0.2229  0.4568
10379SOL     OW32035   4.462   2.075   4.860 -0.4719 -0.1600 -0.3562
10379SOL    HW132036   4.426   2.162   4.828 -2.0474  0.1898  2.1167
10379SOL    HW232037   4.403   2.001   4.828 -0.7543 -0.0444 -0.0994
10380SOL     OW32038   3.326   0.295   5.390  0.1805 -0.0200 -0.1339
10380SOL    HW132039   3.421   0.265   5.385 -0.3605 -1.6315 -3.2182
10380SOL    HW232040   3.271   0.224   5.435  0.1101 -0.0788 -0.3115
10381SOL     OW32041   3.100   5.287   4.638 -0.8272 -0.4338 -0.0581
10381SOL    HW132042   3.157   5.268   4.558  0.5395  4.5906 -0.5975
10381SOL    HW232043   3.155   5.278   4.721 -0.7125 -0.5379 -0.1445
10382SOL     OW32044   5.221   4.530   1.903 -0.1712  0.3684  0.1179
10382SOL    HW132045   5.235   4.444   1.953  0.2250  0.8556  0.8540
10382SOL    HW232046   5.125   4.538   1.877 -0.4425  0.2294  1.0450
10383SOL     OW32047   5.528   3.506   1.773 -0.4158 -0.7017 -0.4102
10383SOL    HW132048   5.591   3.432   1.793 -0.1589 -0.3993 -0.0866
10383SOL    HW232049   5.533   3.529   1.676  1.3899  0.6028 -0.0567
10384SOL     OW32050   4.799   0.496   0.674 -0.2471  0.2264 -0.1803
10384SOL    HW132051   4.854   0.464   0.597  0.3928  0.0997  0.3169
10384SOL    HW232052   4.744   0.420   0.709 -0.9494  0.4169 -0.8403
10385SOL     OW32053   0.139   3.166   0.562 -0.0785 -0.1915 -0.5762
10385SOL    HW132054   0.045   3.134   0.554 -0.7803  1.3791  0.6199
10385SOL    HW232055   0.151   3.212   0.651  1.8613 -0.4798 -0.6381
10386SOL     OW32056   6.982   1.333   5.715  0.5672  0.1655  0.1767
10386SOL    HW132057   7.060   1.325   5.653 -1.3528 -0.7409 -2.2698
10386SOL    HW232058   6.991   1.417   5.769  3.4250 -0.1712  0.3657
10387SOL     OW32059   1.523   4.972   3.995 -0.1182 -0.4793  0.0840
10387SOL    HW132060   1.545   4.978   4.093  0.4167 -1.4101  0.0346
10387SOL    HW232061   1.581   5.036   3.944 -0.1676 -0.2294  0.3370
10388SOL     OW32062   0.950   4.775   3.322  0.6952 -0.0264 -0.2704
10388SOL    HW132063   0.986   4.693   3.278  1.5516  1.6150 -2.9165
10388SOL    HW232064   1.022   4.819   3.375  0.5293 -0.4176  0.2883
10389SOL     OW32065   1.691   4.653   2.528  0.1131  0.6217  0.2153
10389SOL    HW132066   1.720   4.727   2.587  0.6926 -1.5754  2.8920
10389SOL    HW232067   1.769   4.594   2.507 -0.5522  0.0817 -0.8217
10390SOL     OW32068   2.702   4.376   0.557  0.5955 -0.2546 -0.0795
10390SOL    HW132069   2.789   4.417   0.584  0.5425  0.7445 -1.3123
10390SOL    HW232070   2.627   4.423   0.604  0.6347 -0.0598 -0.2097
10391SOL     OW32071   3.367   5.643   2.580  0.2702  0.4882 -0.1421
10391SOL    HW132072   3.316   5.573   2.630 -1.0192 -1.0328 -3.3016
10391SOL    HW232073   3.462   5.614   2.569 -0.0242 -0.3399 -0.5935
10392SOL     OW32074   0.874   5.835   0.659 -0.0599 -0.0689 -0.1617
10392SOL    HW132075   0.957   5.842   0.604 -0.6011 -0.5859 -1.0513
10392SOL    HW232076   0.899   5.823   0.755  0.9116 -1.3167 -0.5506
10393SOL     OW32077   1.216   2.169   3.070 -0.5981  0.1158 -0.1034
10393SOL    HW132078   1.237   2.261   3.037 -0.4016  0.4677  0.9650
10393SOL    HW232079   1.294   2.133   3.122  1.1642 -2.4141 -3.9880
10394SOL     OW32080   3.942   6.729   0.711 -0.5361  0.5870  0.0688
10394SOL    HW132081   3.886   6.763   0.635 -0.0059  1.6506  0.1325
10394SOL    HW232082   4.030   6.777   0.711 -0.1522 -0.0947  0.7806
10395SOL     OW32083   1.591   6.675   3.147 -0.5506  0.3145 -0.0074
10395SOL    HW132084   1.507   6.685   3.093  0.0845  0.1022 -1.0566
10395SOL    HW232085   1.619   6.579   3.149  1.5567  0.7646 -2.6581
10396SOL     OW32086   5.883   1.337   4.135 -0.1120  0.2373 -0.4055
10396SOL    HW132087   5.902   1.241   4.116 -1.4269 -0.3654  1.0059
10396SOL    HW232088   5.817   1.372   4.068 -0.5934 -0.2399 -0.1940
10397SOL     OW32089   4.303   0.740   3.178 -0.1321 -0.2622  0.3423
10397SOL    HW132090   4.245   0.711   3.254  0.8350  0.2372  1.2996
10397SOL    HW232091   4.378   0.797   3.212  0.3318 -0.0225 -0.9880
10398SOL     OW32092   1.143   2.583   1.621  0.1518  0.2366  0.1717
10398SOL    HW132093   1.168   2.658   1.559 -0.1500 -0.7012 -1.1329
10398SOL    HW232094   1.058   2.541   1.588  1.3368 -1.9232 -0.2766
10399SOL     OW32095   6.553   1.882   6.052  0.2372  0.1471  0.0665
10399SOL    HW132096   6.506   1.952   5.998  1.9303  1.9370  0.7646
10399SOL    HW232097   6.627   1.843   5.997 -0.2175 -0.5611 -0.0547
10400SOL     OW32098   1.280   5.598   3.400  0.0458  0.2204 -0.2945
10400SOL    HW132099   1.318   5.533   3.333 -1.2780  0.7996 -1.6476
10400SOL    HW232100   1.256   5.683   3.354 -1.6024  0.3710  0.7631
10401SOL     OW32101   1.418   5.573   0.935  0.1355 -0.0340 -0.6091
10401SOL    HW132102   1.513   5.606   0.928 -0.3086  1.8042  1.1291
10401SOL    HW232103   1.359   5.629   0.877 -0.3038  0.7776  0.6084
10402SOL     OW32104   0.251   1.405   3.633  0.5282  0.1568  0.2482
10402SOL    HW132105   0.172   1.432   3.688 -0.1339 -0.0189 -0.5943
10402SOL    HW232106   0.306   1.485   3.611  0.8657  0.2129  1.2469
10403SOL     OW32107   5.581   0.240   2.228 -0.1066  0.1415  0.4488
10403SOL    HW132108   5.549   0.230   2.322  0.4102  0.3338  0.6469
10403SOL    HW232109   5.630   0.157   2.200 -2.4758 -1.0208 -0.5463
10404SOL     OW32110   6.087   0.369   4.803 -0.3968 -0.4249 -0.3561
10404SOL    HW132111   6.163   0.428   4.834  0.8891 -1.5041 -1.3715
10404SOL    HW232112   6.042   0.412   4.725 -0.3779 -0.1274 -0.2081
10405SOL     OW32113   3.456   1.334   6.902  0.2506 -0.0351  0.3802
10405SOL    HW132114   3.523   1.363   6.970 -0.8425 -0.5510  1.7166
10405SOL    HW232115   3.407   1.414   6.867  0.3914  0.1738  0.6573
10406SOL     OW32116   1.248   5.371   6.394  0.4778  0.1932  0.7057
10406SOL    HW132117   1.164   5.346   6.346 -0.4100  2.0487  1.2323
10406SOL    HW232118   1.294   5.446   6.346  0.4205  0.9885  1.8537
10407SOL     OW32119   4.037   0.740   0.057 -0.3427 -0.2950 -0.1636
10407SOL    HW132120   4.067   0.725  -0.037  0.5785 -0.2733  0.1173
10407SOL    HW232121   4.066   0.830   0.088 -0.2152 -0.4886  0.2971
10408SOL     OW32122   3.106   0.340   2.582 -0.2760  0.0217 -0.0694
10408SOL    HW132123   3.080   0.427   2.624 -0.0834  0.1858 -0.2801
10408SOL    HW232124   3.106   0.350   2.482  1.7828  0.4075 -0.0831
10409SOL     OW32125   1.085   5.036   1.165 -0.6693 -0.0654 -0.3311
10409SOL    HW132126   0.995   5.018   1.126 -0.8123 -1.9491  0.7758
10409SOL    HW232127   1.075   5.074   1.257 -0.3185  0.5630 -0.5443
10410SOL     OW32128   6.782   6.780   6.347  0.0727  0.5238  0.2898
10410SOL    HW132129   6.704   6.735   6.306 -0.6770  0.9995  1.1581
10410SOL    HW232130   6.866   6.731   6.323 -0.6530 -1.0068  0.7683
10411SOL     OW32131   1.468   5.465   0.539 -0.2924 -0.2544  0.3690
10411SOL    HW132132   1.517   5.421   0.463 -0.2611 -0.8382  0.7279
10411SOL    HW232133   1.466   5.564   0.523 -1.4957 -0.4702 -1.1014
10412SOL     OW32134   6.376   5.055   5.083  0.3019 -0.2496 -0.1104
10412SOL    HW132135   6.392   4.966   5.124 -1.7030  0.1393  1.6659
10412SOL    HW232136   6.279   5.065   5.061  0.3761  1.7070  0.2867
10413SOL     OW32137   6.685   1.847   4.766  0.1836 -0.4107 -0.0780
10413SOL    HW132138   6.598   1.891   4.788 -1.2840 -3.3232  0.4031
10413SOL    HW232139   6.751   1.865   4.840  0.6003  2.9483 -1.0705
10414SOL     OW32140   3.674   3.811   5.453  0.0608  0.4864  0.8107
10414SOL    HW132141   3.627   3.855   5.529 -1.2944  0.7045 -0.1198
10414SOL    HW232142   3.729   3.879   5.404 -0.6363  0.7964  0.4335
10415SOL     OW32143   4.696   3.834   1.743  0.2840 -0.5739  0.0403
10415SOL    HW132144   4.728   3.925   1.771 -0.2048 -0.0355 -1.1056
10415SOL    HW232145   4.601   3.839   1.713  0.7979 -1.0629 -1.8367
10416SOL     OW32146   5.495   0.938   0.917 -0.3407  0.0206 -0.2467
10416SOL    HW132147   5.455   1.030   0.920 -1.7567 -0.4968 -1.8725
10416SOL    HW232148   5.553   0.929   0.836  2.2479  0.3524  1.4302
10417SOL     OW32149   5.133   4.905   4.690 -0.4379  0.3253 -0.1017
10417SOL    HW132150   5.069   4.962   4.638  1.0725  2.9794  0.7122
10417SOL    HW232151   5.226   4.921   4.656  0.3046  0.3107  1.8066
10418SOL     OW32152   0.431   4.224   0.494 -0.0510 -0.1453 -0.0400
10418SOL    HW132153   0.485   4.253   0.415 -0.5888  1.9680  0.3042
10418SOL    HW232154   0.477   4.251   0.578 -0.7253 -0.0203  0.2974
10419SOL     OW32155   1.650   0.320   4.424 -0.2949  0.6438  0.3620
10419SOL    HW132156   1.589   0.392   4.456 -0.4780  0.7894 -0.3065
10419SOL    HW232157   1.623   0.233   4.464  0.2997  1.0290  1.6638
10420SOL     OW32158   5.257   3.894   4.643 -0.1322 -0.0886 -0.1319
10420SOL    HW132159   5.275   3.820   4.708 -0.7627 -1.2189 -1.1994
10420SOL    HW232160   5.227   3.855   4.556 -0.6367  1.4452 -0.6753
10421SOL     OW32161   1.709   2.116   3.687  0.7495 -0.7777  0.2530
10421SOL    HW132162   1.780   2.057   3.650  1.6787  0.8777 -0.6925
10421SOL    HW232163   1.676   2.178   3.616 -0.7192 -0.6265  1.0232
10422SOL     OW32164   5.227   4.110   6.069 -0.2078 -0.2855 -0.1734
10422SOL    HW132165   5.168   4.134   5.991 -1.2313 -1.2969  0.2715
10422SOL    HW232166   5.317   4.085   6.035  0.1036  1.5768 -0.8489
10423SOL     OW32167   3.096   5.365   4.010 -0.3605 -0.1767  0.8042
10423SOL    HW132168   3.022   5.389   4.073 -1.4583 -2.3568  0.4520
10423SOL    HW232169   3.180   5.347   4.062 -0.9375 -0.7672  1.5553
10424SOL     OW32170   5.964   0.115   2.989 -0.0954  0.2049  0.2025
10424SOL    HW132171   6.041   0.122   2.925 -1.2283  0.7618 -1.1400
10424SOL    HW232172   5.879   0.135   2.941 -1.1310 -0.7137  1.5889
10425SOL     OW32173   4.720   5.007   0.139 -1.1471 -0.8658  0.1787
10425SOL    HW132174   4.682   5.011   0.232  0.9452 -1.7027  1.1298
10425SOL    HW232175   4.815   5.037   0.141 -1.1535 -0.5906 -1.7891
10426SOL     OW32176   0.751   4.381   6.156 -0.3077 -0.2012  0.0728
10426SOL    HW132177   0.760   4.360   6.253 -1.3270  0.3712  0.3059
10426SOL    HW232178   0.823   4.335   6.105 -0.9288 -2.1142  0.8475
10427SOL     OW32179   6.738   6.546   3.795  1.2440  0.5852  0.2804
10427SOL    HW132180   6.824   6.497   3.812  1.4565  1.0947  0.7166
10427SOL    HW232181   6.664   6.501   3.846  1.5023  0.9112  0.9595
10428SOL     OW32182   1.198   0.435   5.284 -0.2526  0.0202 -0.6355
10428SOL    HW132183   1.210   0.533   5.267 -0.6796  0.2327  0.2630
10428SOL    HW232184   1.131   0.398   5.219  1.7735 -0.2397 -2.6969
10429SOL     OW32185   1.566   5.601   6.613  0.7168  0.5928 -0.0072
10429SOL    HW132186   1.622   5.558   6.542 -0.2414 -2.3850  0.9227
10429SOL    HW232187   1.501   5.664   6.571  0.3399 -0.9158 -1.7985
10430SOL     OW32188   3.010   1.412   4.918  0.1741 -0.0012 -0.5710
10430SOL    HW132189   2.945   1.336   4.926 -0.9603  0.7380 -2.3213
10430SOL    HW232190   2.994   1.478   4.992 -0.1716 -0.4561 -0.2329
10431SOL     OW32191   4.694   1.674   5.114  0.0059  0.5557  0.3612
10431SOL    HW132192   4.760   1.712   5.179  0.0367 -0.4450  0.9267
10431SOL    HW232193   4.647   1.749   5.067  0.4991  1.2847  1.0089
10432SOL     OW32194   2.461   5.088   6.825  0.3800 -0.2816  0.4123
10432SOL    HW132195   2.397   5.013   6.811  1.5586 -1.3684  0.6840
10432SOL    HW232196   2.544   5.071   6.772  0.8726  0.5705  0.8891
10433SOL     OW32197   2.892   6.531   4.030  0.1210  0.3453  0.7123
10433SOL    HW132198   2.800   6.560   4.057 -0.2025  0.9668 -0.9109
10433SOL    HW232199   2.897   6.432   4.028 -0.9058  0.2993 -0.3607
10434SOL     OW32200   4.323   2.218   0.854  0.1419 -0.0810 -0.1046
10434SOL    HW132201   4.248   2.269   0.811 -1.1527 -1.3785  0.5495
10434SOL    HW232202   4.375   2.170   0.783 -0.4973 -0.2850 -0.4437
10435SOL     OW32203   3.391   6.973   0.582 -0.0931  0.1737 -0.7233
10435SOL    HW132204   3.434   6.975   0.492 -0.8176 -2.6005 -1.2577
10435SOL    HW232205   3.291   6.965   0.571 -0.1411 -1.0281  0.2426
10436SOL     OW32206   0.191   5.798   4.471 -0.2361 -0.4960 -0.2651
10436SOL    HW132207   0.240   5.796   4.558  0.0794 -1.3318 -0.4563
10436SOL    HW232208   0.113   5.735   4.475 -1.9308  1.5165  0.3817
10437SOL     OW32209   0.117   2.242   3.896  0.2055  0.3737 -0.0963
10437SOL    HW132210   0.168   2.267   3.978  1.8114 -0.0187 -0.9247
10437SOL    HW232211   0.120   2.317   3.830 -0.5486  0.4506 -0.0518
10438SOL     OW32212   6.688   6.801   5.495  0.2181 -0.0261  0.0402
10438SOL    HW132213   6.589   6.790   5.500 -0.0454  1.7648 -0.6810
10438SOL    HW232214   6.714   6.889   5.534  1.5993 -0.6682  0.6441
10439SOL     OW32215   0.197   5.891   3.273  0.2729 -0.0496 -0.1409
10439SOL    HW132216   0.141   5.819   3.232 -0.1599  1.3983 -2.3065
10439SOL    HW232217   0.213   5.871   3.369 -2.7395 -1.2921  0.2178
10440SOL     OW32218   6.318   2.622   1.791 -0.4370 -0.4357 -0.1538
10440SOL    HW132219   6.270   2.709   1.790 -1.0327 -0.7327  0.8104
10440SOL    HW232220   6.255   2.549   1.816  0.7566 -0.6191  2.7935
10441SOL     OW32221   0.071   0.851   0.045 -0.2311  0.4414 -0.0128
10441SOL    HW132222   0.124   0.868  -0.038 -0.4065  1.2020  0.0284
10441SOL    HW232223  -0.024   0.879   0.030 -0.8008 -1.5111 -0.3098
10442SOL     OW32224   2.366   0.611   6.676 -0.2751  0.8789 -0.4346
10442SOL    HW132225   2.354   0.520   6.636  0.7260  0.4856  0.1159
10442SOL    HW232226   2.401   0.673   6.606  2.1368  0.0227 -0.0781
10443SOL     OW32227   2.281   0.927   1.656 -0.5358  0.3517  0.3951
10443SOL    HW132228   2.342   1.004   1.638  0.0986 -0.4214 -0.8989
10443SOL    HW232229   2.270   0.916   1.755 -1.2658  2.5629  0.6259
10444SOL     OW32230   5.704   6.341   3.664 -0.0442 -0.6881  0.0973
10444SOL    HW132231   5.801   6.322   3.650  0.0333  0.8569 -1.9215
10444SOL    HW232232   5.660   6.359   3.576 -1.8564  0.0823  1.0924
10445SOL     OW32233   0.485   2.159   4.148  0.2508  0.5686 -0.5117
10445SOL    HW132234   0.398   2.168   4.197 -1.3651 -0.2814 -3.0584
10445SOL    HW232235   0.509   2.246   4.105 -0.6833  0.1641 -1.8846
10446SOL     OW32236   3.571   4.197   5.435  0.8843  0.3844 -0.4690
10446SOL    HW132237   3.534   4.142   5.360 -0.1201 -0.7981  0.8395
10446SOL    HW232238   3.589   4.290   5.402  2.5099 -0.6293 -2.7143
10447SOL     OW32239   2.413   2.641   2.618  0.2078 -0.3121  0.5350
10447SOL    HW132240   2.481   2.648   2.546 -0.8058 -0.8673 -0.5046
10447SOL    HW232241   2.354   2.722   2.617  0.8003  0.1490  1.4039
10448SOL     OW32242   0.397   5.471   6.458  0.0315 -0.1050  0.3648
10448SOL    HW132243   0.391   5.484   6.557  1.5700 -0.1597  0.4800
10448SOL    HW232244   0.306   5.486   6.417 -0.6091 -0.0332  1.7599
10449SOL     OW32245   3.071   5.343   3.757  0.4222  0.0941  0.5781
10449SOL    HW132246   3.099   5.338   3.853  1.6414  1.6318  0.3443
10449SOL    HW232247   3.147   5.318   3.698  0.1287  0.5415 -0.0054
10450SOL     OW32248   2.953   2.328   5.327 -0.0784  0.3676  0.4019
10450SOL    HW132249   2.952   2.251   5.390  0.8980  0.7789  0.9391
10450SOL    HW232250   3.026   2.316   5.260 -1.0543 -0.0271 -0.6326
10451SOL     OW32251   1.461   1.484   4.011  0.3107 -0.1690 -0.0729
10451SOL    HW132252   1.396   1.484   3.935 -0.0529 -0.4052  0.2336
10451SOL    HW232253   1.535   1.549   3.992 -0.0222  0.1125 -0.4141
10452SOL     OW32254   0.123   1.769   3.560 -0.5870  0.0532 -0.3225
10452SOL    HW132255   0.163   1.742   3.648  0.4550  0.0745 -0.7725
10452SOL    HW232256   0.073   1.692   3.521 -0.8887 -0.0176  0.1952
10453SOL     OW32257   2.287   4.651   3.887 -0.5116  0.5725 -0.3322
10453SOL    HW132258   2.274   4.701   3.973 -0.9164 -0.9641  0.5459
10453SOL    HW232259   2.381   4.664   3.855  0.1166 -0.0260  1.1745
10454SOL     OW32260   1.400   4.815   6.569  0.2181  0.0078 -0.3887
10454SOL    HW132261   1.483   4.767   6.598 -0.2493 -0.4148  0.2755
10454SOL    HW232262   1.348   4.844   6.649  0.2685  1.2601 -0.7841
10455SOL     OW32263   1.424   5.343   2.229 -0.3390 -0.1635  0.2766
10455SOL    HW132264   1.324   5.340   2.234 -0.3989  1.9619  1.6716
10455SOL    HW232265   1.455   5.296   2.146 -2.4841 -0.7564 -0.2471
10456SOL     OW32266   2.473   6.514   6.109  0.4123  0.0581 -0.2522
10456SOL    HW132267   2.440   6.457   6.184 -0.8149  0.8677 -0.1404
10456SOL    HW232268   2.494   6.457   6.030  0.9004 -0.7105  0.4121
10457SOL     OW32269   2.911   1.479   2.926  0.0327  0.2233 -0.6960
10457SOL    HW132270   2.978   1.546   2.958  0.8269 -0.7145 -0.3056
10457SOL    HW232271   2.839   1.524   2.875  0.8727  1.2913 -0.9597
10458SOL     OW32272   1.619   0.585   5.974 -0.6828  0.2405  0.4951
10458SOL    HW132273   1.576   0.501   5.941  0.6662  0.2961 -1.5937
10458SOL    HW232274   1.568   0.620   6.053 -1.4525 -2.3484  1.2438
10459SOL     OW32275   5.373   6.961   0.652  0.2800  0.2747  0.0061
10459SOL    HW132276   5.441   6.938   0.583 -0.8105  0.7598 -1.2911
10459SOL    HW232277   5.410   6.945   0.743  1.2054 -1.9388 -0.7013
10460SOL     OW32278   6.417   2.154   0.401  0.1247 -0.7564  0.1698
10460SOL    HW132279   6.380   2.236   0.445  0.0688 -0.3770 -0.5684
10460SOL    HW232280   6.514   2.147   0.421  0.1661 -0.4141  0.1066
10461SOL     OW32281   5.043   3.674   6.505 -0.0126 -0.0671  0.1515
10461SOL    HW132282   5.092   3.761   6.504 -1.0225  0.5090 -0.2740
10461SOL    HW232283   4.945   3.690   6.495 -0.0661 -1.3644 -2.1331
10462SOL     OW32284   3.832   2.875   0.721  0.0794 -0.0660 -0.2532
10462SOL    HW132285   3.749   2.835   0.682  0.1429 -1.2153  0.7288
10462SOL    HW232286   3.900   2.890   0.649 -0.1926 -1.1332 -0.7400
10463SOL     OW32287   2.962   2.946   5.322  0.1324 -0.2351  0.1188
10463SOL    HW132288   3.015   3.030   5.313 -0.5160  0.3592  1.5444
10463SOL    HW232289   2.866   2.968   5.339 -0.2747 -1.2812 -0.7351
10464SOL     OW32290   5.492   5.762   0.658  0.4773  0.1203  0.3127
10464SOL    HW132291   5.479   5.787   0.754 -1.0178 -0.1001  0.1906
10464SOL    HW232292   5.406   5.730   0.620  0.8847  0.8294 -1.2966
10465SOL     OW32293   3.771   3.210   0.397  1.1780 -0.5085  0.0196
10465SOL    HW132294   3.723   3.123   0.391 -0.9943  0.6040 -0.0901
10465SOL    HW232295   3.843   3.205   0.465 -0.3587 -1.7735  1.6469
10466SOL     OW32296   6.475   3.616   4.898 -0.2303  0.0599  0.4958
10466SOL    HW132297   6.470   3.685   4.970 -0.5336  2.3226 -1.5299
10466SOL    HW232298   6.389   3.616   4.846  0.7585  0.1614 -1.2271
10467SOL     OW32299   0.056   0.001   0.948  0.4710  0.3212 -0.4458
10467SOL    HW132300  -0.021  -0.019   0.887  0.5766  0.8717 -0.7633
10467SOL    HW232301   0.087  -0.084   0.991 -1.8525  0.3782  1.5626
10468SOL     OW32302   2.440   4.464   4.998  0.3409 -0.4511  0.1350
10468SOL    HW132303   2.501   4.517   5.058 -0.7003  1.4146 -0.3697
10468SOL    HW232304   2.378   4.409   5.054  0.1841  0.3319  0.7609
10469SOL     OW32305   2.937   0.815   4.117  0.2304  0.2068  0.1194
10469SOL    HW132306   2.839   0.806   4.135  0.1731  0.6303  0.0423
10469SOL    HW232307   2.988   0.773   4.193  0.0247 -2.1405 -0.9581
10470SOL     OW32308   2.266   3.906   7.013  0.4373 -0.1747 -0.5277
10470SOL    HW132309   2.277   3.902   7.112 -0.2626 -0.2675 -0.4431
10470SOL    HW232310   2.355   3.908   6.969  0.7518  0.7217  0.1347
10471SOL     OW32311   2.084   3.980   5.178  0.2914 -0.3731 -0.4768
10471SOL    HW132312   2.043   4.047   5.240 -1.1125 -2.4718  1.0076
10471SOL    HW232313   2.166   4.019   5.137  0.6255  1.5685  1.7887
10472SOL     OW32314   4.692   5.796   6.565 -0.0860  0.0954  0.9067
10472SOL    HW132315   4.769   5.745   6.604  0.1220 -0.7550 -0.5257
10472SOL    HW232316   4.615   5.734   6.552  0.3573 -0.0698 -1.3957
10473SOL     OW32317   5.808   4.409   6.744  0.2738  0.4669 -0.1085
10473SOL    HW132318   5.736   4.412   6.675  0.0174 -2.0159 -0.0277
10473SOL    HW232319   5.768   4.400   6.835  0.6336 -0.5588 -0.0318
10474SOL     OW32320   5.383   6.363   5.601  0.7804 -0.5586  0.2114
10474SOL    HW132321   5.395   6.326   5.693 -1.1146 -1.6171  0.0915
10474SOL    HW232322   5.448   6.322   5.538  1.6846 -0.2782  0.9511
10475SOL     OW32323   0.281   5.325   2.228  1.0290 -0.7210 -0.1436
10475SOL    HW132324   0.204   5.277   2.269  2.6682 -2.2514  1.3539
10475SOL    HW232325   0.286   5.304   2.130 -0.2375 -0.8299 -0.1964
10476SOL     OW32326   4.559   6.351   1.132  0.6119 -0.5290 -0.3890
10476SOL    HW132327   4.643   6.390   1.170 -0.4334  0.2931  1.1738
10476SOL    HW232328   4.570   6.253   1.119  2.3592 -0.2039 -1.8164
10477SOL     OW32329   0.270   0.763   3.699 -0.0815  0.0731  0.3624
10477SOL    HW132330   0.315   0.852   3.692 -1.9622  0.9944 -0.6386
10477SOL    HW232331   0.261   0.722   3.608 -3.4453  1.1082  0.1081
10478SOL     OW32332   1.167   1.541   6.059 -0.3352 -0.4432 -0.4110
10478SOL    HW132333   1.160   1.444   6.078 -1.5345 -0.5112 -1.0999
10478SOL    HW232334   1.176   1.555   5.960  0.9833  0.1028 -0.2366
10479SOL     OW32335   6.478   5.642   4.013 -0.5389 -0.1784  0.2931
10479SOL    HW132336   6.474   5.545   3.988 -0.9099 -0.3169  0.8725
10479SOL    HW232337   6.481   5.697   3.930 -0.1038 -0.6918 -0.0453
10480SOL     OW32338   3.176   2.183   3.761  0.0023 -0.2330 -0.1297
10480SOL    HW132339   3.231   2.189   3.677  0.5449  0.8988  0.2882
10480SOL    HW232340   3.085   2.220   3.743 -0.3707 -1.3347 -0.5963
10481SOL     OW32341   0.091   0.827   3.035 -0.4353 -0.3538  0.2405
10481SOL    HW132342  -0.006   0.815   3.012 -0.9104  1.9395  0.7312
10481SOL    HW232343   0.101   0.826   3.135 -0.2256  0.8140  0.2508
10482SOL     OW32344   4.643   4.296   3.128  0.4401  0.0321 -0.6178
10482SOL    HW132345   4.677   4.220   3.073  0.1757  0.0168 -0.7612
10482SOL    HW232346   4.657   4.276   3.225  3.0130  1.0203 -0.6946
10483SOL     OW32347   5.504   1.749   6.725  0.4977  0.4742  0.4783
10483SOL    HW132348   5.476   1.686   6.797  1.3355  0.4017  0.7520
10483SOL    HW232349   5.423   1.784   6.678  0.0297 -3.0699 -1.6997
10484SOL     OW32350   5.413   0.921   1.952  0.4033  0.0115 -0.5746
10484SOL    HW132351   5.430   0.854   2.024 -0.0207 -0.8367 -1.2498
10484SOL    HW232352   5.329   0.971   1.973 -0.4110 -1.1010 -1.0872
10485SOL     OW32353   6.763   2.683   5.624  0.5600 -0.3992  0.1667
10485SOL    HW132354   6.859   2.655   5.623  0.6030 -0.2490  0.0027
10485SOL    HW232355   6.750   2.758   5.560 -0.1859 -2.0862 -1.7573
10486SOL     OW32356   1.072   2.870   3.124 -0.6229  0.1258 -0.0051
10486SOL    HW132357   0.978   2.881   3.094 -0.1442 -0.0053 -1.6779
10486SOL    HW232358   1.087   2.923   3.207 -1.4042  2.7398 -1.3893
10487SOL     OW32359   4.217   0.027   1.842  0.4712 -0.7819 -0.0389
10487SOL    HW132360   4.287   0.027   1.771  0.7437  4.2944 -0.1290
10487SOL    HW232361   4.260   0.018   1.932  0.9999 -0.2029 -0.2258
10488SOL     OW32362   5.375   3.214   6.634 -0.5993  0.2613 -0.4578
10488SOL    HW132363   5.320   3.249   6.558  0.6862 -0.6376 -1.8699
10488SOL    HW232364   5.416   3.126   6.607 -0.5101 -0.3375  1.4813
10489SOL     OW32365   0.043   5.661   4.078 -0.3184  0.4779 -0.2454
10489SOL    HW132366   0.001   5.688   3.991 -0.4654 -0.6014 -0.5304
10489SOL    HW232367  -0.009   5.585   4.117 -0.0985  0.7832  0.6664
10490SOL     OW32368   6.238   0.637   3.718  0.2651 -0.0019  0.0245
10490SOL    HW132369   6.319   0.581   3.700  0.1641 -0.5016  1.0689
10490SOL    HW232370   6.162   0.578   3.745 -0.3079  0.5128 -0.4342
10491SOL     OW32371   6.474   5.048   2.764 -0.1831 -0.3013 -0.0109
10491SOL    HW132372   6.543   5.091   2.705  0.2517  0.1731  0.8277
10491SOL    HW232373   6.440   4.965   2.720  0.8348 -0.4825 -0.4925
10492SOL     OW32374   4.089   4.995   6.806 -0.5111 -0.0833 -0.1089
10492SOL    HW132375   4.105   4.916   6.747 -2.6623 -1.3322  0.8616
10492SOL    HW232376   4.117   5.079   6.759  1.1956 -1.3216 -1.4333
10493SOL     OW32377   3.643   0.323   1.309  0.2922 -0.2134 -0.4016
10493SOL    HW132378   3.600   0.279   1.387 -0.8733 -0.0512 -0.9298
10493SOL    HW232379   3.701   0.257   1.261 -0.4197 -0.8254 -0.4400
10494SOL     OW32380   5.413   1.171   4.509  0.1547 -0.5815  0.4366
10494SOL    HW132381   5.350   1.190   4.584 -0.7796  0.4001 -0.5652
10494SOL    HW232382   5.446   1.076   4.517  0.6808 -0.2844  2.4747
10495SOL     OW32383   1.741   6.946   0.773 -0.1112 -0.0116 -0.0059
10495SOL    HW132384   1.691   7.028   0.747 -0.8376  0.2902  2.0970
10495SOL    HW232385   1.839   6.965   0.772 -0.0684 -0.0719 -2.4361
10496SOL     OW32386   1.897   0.882   6.650 -0.2725  0.5271 -0.0243
10496SOL    HW132387   1.881   0.925   6.738  1.7365 -0.5240  0.9101
10496SOL    HW232388   1.982   0.916   6.610 -0.4816  0.0260 -0.9406
10497SOL     OW32389   3.216   1.810   6.571 -0.6402  0.0720  0.3148
10497SOL    HW132390   3.231   1.889   6.631  1.7680 -0.8043  1.0067
10497SOL    HW232391   3.237   1.836   6.477  1.8151 -0.0519  0.7485
10498SOL     OW32392   1.498   6.746   4.232 -0.5461 -0.6258 -0.2691
10498SOL    HW132393   1.582   6.779   4.275 -0.9314 -0.1265  0.1084
10498SOL    HW232394   1.496   6.646   4.235  0.8018 -0.7426 -1.7515
10499SOL     OW32395   4.255   5.498   1.248 -0.2191 -0.1828  0.2186
10499SOL    HW132396   4.353   5.513   1.253 -0.0013 -1.1589 -0.5937
10499SOL    HW232397   4.234   5.444   1.166 -1.3090 -0.8675  0.9206
10500SOL     OW32398   2.092   1.048   4.843  0.1561  0.6791  0.6398
10500SOL    HW132399   2.065   0.963   4.797 -1.0565  2.1993 -1.6249
10500SOL    HW232400   2.191   1.059   4.838  0.2032 -0.0004 -0.1009
10501SOL     OW32401   2.610   4.540   6.911 -0.2580 -0.0021  1.0312
10501SOL    HW132402   2.627   4.480   6.833  0.7794 -0.5917  1.6924
10501SOL    HW232403   2.651   4.630   6.894  1.2514 -0.5799  1.4818
10502SOL     OW32404   4.229   6.819   3.920  0.2066  0.2354 -0.1472
10502SOL    HW132405   4.269   6.895   3.972  0.4053  0.1140 -0.1240
10502SOL    HW232406   4.299   6.777   3.863  0.5600 -1.1429  1.2390
10503SOL     OW32407   2.969   2.980   5.823  0.2916 -0.3705 -0.2899
10503SOL    HW132408   2.872   2.967   5.845 -0.0615 -0.6623 -1.9433
10503SOL    HW232409   2.988   3.078   5.815 -0.1052 -0.3465 -0.9648
10504SOL     OW32410   1.741   3.345   6.998 -0.4811 -0.2487  0.4766
10504SOL    HW132411   1.816   3.369   7.060  0.6028 -3.4349  0.5675
10504SOL    HW232412   1.778   3.313   6.911 -1.6292 -2.6061  0.7786
10505SOL     OW32413   1.684   2.921   5.540  0.2286  0.3952  0.2851
10505SOL    HW132414   1.687   2.966   5.450  0.4791  1.0167  0.5999
10505SOL    HW232415   1.588   2.903   5.564  0.2141 -2.2503 -1.2936
10506SOL     OW32416   0.932   4.903   0.289  0.3130  0.2136 -0.0083
10506SOL    HW132417   0.923   4.881   0.192 -1.7081 -1.0116  0.4061
10506SOL    HW232418   0.939   5.002   0.300 -0.6650  0.4542 -1.3262
10507SOL     OW32419   2.587   1.242   4.365 -0.0517 -0.4138 -0.5591
10507SOL    HW132420   2.537   1.224   4.280 -0.4513 -0.3241 -0.3408
10507SOL    HW232421   2.650   1.166   4.383 -1.8908 -1.7624  0.4884
10508SOL     OW32422   5.002   6.811   2.119 -0.3935 -0.2872  0.0852
10508SOL    HW132423   4.944   6.879   2.074 -0.1071  1.0317  1.6219
10508SOL    HW232424   5.075   6.783   2.056 -0.4489  0.9155 -0.5504
10509SOL     OW32425   2.500   1.180   6.488  0.5121  0.2393 -0.3230
10509SOL    HW132426   2.433   1.218   6.552 -0.2642 -0.6791 -0.5805
10509SOL    HW232427   2.580   1.148   6.539 -0.0349 -0.3433  0.1898
10510SOL     OW32428   5.950   2.888   7.009 -0.7115 -0.3854 -0.5320
10510SOL    HW132429   6.010   2.808   7.019 -0.0818  0.0355 -0.8682
10510SOL    HW232430   6.006   2.971   7.005 -1.3596  0.0744 -0.2011
10511SOL     OW32431   6.964   1.644   1.340 -0.5417 -0.0206  0.5687
10511SOL    HW132432   6.879   1.640   1.287  0.1486 -0.0830 -0.5723
10511SOL    HW232433   6.956   1.715   1.411 -1.3165  0.4111  0.0615
10512SOL     OW32434   1.539   0.741   1.087  0.0483  0.2804  0.5632
10512SOL    HW132435   1.496   0.828   1.061 -0.7794 -0.4108 -0.4518
10512SOL    HW232436   1.469   0.671   1.100  0.5947  0.0383  2.6624
10513SOL     OW32437   6.082   4.062   1.455  0.3006 -0.2176 -0.3238
10513SOL    HW132438   6.089   4.043   1.357 -1.1659 -0.0553 -0.4799
10513SOL    HW232439   6.119   3.984   1.506 -0.2940 -0.9548 -0.9933
10514SOL     OW32440   1.809   1.823   1.809  0.0172 -0.0102  0.0128
10514SOL    HW132441   1.846   1.908   1.770  0.0563  0.2855  0.6848
10514SOL    HW232442   1.709   1.826   1.806  0.0208 -0.0570 -0.2010
10515SOL     OW32443   6.096   2.318   4.063 -0.3913 -0.1692 -0.0360
10515SOL    HW132444   6.100   2.230   4.014  0.5475  1.2915 -2.7855
10515SOL    HW232445   6.184   2.334   4.108 -0.6021 -0.6604  0.5679
10516SOL     OW32446   2.934   6.502   5.918 -0.1170  0.0378 -0.3323
10516SOL    HW132447   3.002   6.572   5.938  0.0110 -0.0588 -0.4330
10516SOL    HW232448   2.891   6.521   5.830 -0.5801  0.3821 -0.0409
10517SOL     OW32449   1.294   1.258   2.988  0.2394 -0.6265 -0.4638
10517SOL    HW132450   1.264   1.312   2.909  1.5768  2.0453  0.7266
10517SOL    HW232451   1.367   1.196   2.960  1.1794  0.7839 -1.2430
10518SOL     OW32452   6.211   1.397   5.020  0.0521  0.1797 -0.0230
10518SOL    HW132453   6.282   1.385   4.951 -1.7823 -2.3369 -1.6630
10518SOL    HW232454   6.226   1.332   5.094 -0.5305 -0.3902 -0.3967
10519SOL     OW32455   4.299   2.263   6.041  0.4412  0.2990 -0.3728
10519SOL    HW132456   4.311   2.284   5.944 -0.0045 -1.4818 -0.8302
10519SOL    HW232457   4.227   2.195   6.053  0.7257  0.2255  1.1802
10520SOL     OW32458   3.339   5.154   6.987  0.3053 -0.5138 -0.9293
10520SOL    HW132459   3.420   5.111   7.028  0.0754 -0.9475 -0.9330
10520SOL    HW232460   3.353   5.253   6.985  0.4907 -0.5178 -0.1745
10521SOL     OW32461   5.823   5.411   6.901 -0.1659  0.1805 -0.3699
10521SOL    HW132462   5.916   5.397   6.868 -0.2740  0.3385 -0.7497
10521SOL    HW232463   5.823   5.415   7.001  0.6093  2.6105 -0.4002
10522SOL     OW32464   5.265   6.555   2.251 -0.0492  0.5002 -0.4189
10522SOL    HW132465   5.317   6.588   2.172  0.1251  1.1865 -0.0223
10522SOL    HW232466   5.298   6.599   2.334  0.3644 -0.8658  0.1727
10523SOL     OW32467   5.951   0.049   5.970  0.4095 -0.8431 -0.6863
10523SOL    HW132468   6.004   0.127   5.938  0.4959 -0.8461 -0.5509
10523SOL    HW232469   5.989   0.015   6.056  0.2298 -0.8875 -0.6219
10524SOL     OW32470   6.616   3.901   6.200  0.1190  0.1787 -0.1691
10524SOL    HW132471   6.661   3.987   6.223  0.3207  0.1004 -0.2686
10524SOL    HW232472   6.528   3.919   6.155  0.0749  0.3311 -0.0214
10525SOL     OW32473   0.421   0.002   5.203 -0.1321 -0.5343 -0.3411
10525SOL    HW132474   0.451  -0.071   5.264 -0.9676  0.0032  0.7440
10525SOL    HW232475   0.460   0.089   5.233  1.5561 -0.5892 -2.1206
10526SOL     OW32476   3.551   5.119   1.538  0.2653  0.4398 -0.6272
10526SOL    HW132477   3.469   5.160   1.578  0.8090  1.5841 -0.6428
10526SOL    HW232478   3.628   5.133   1.600  0.9633  1.5918 -1.7052
10527SOL     OW32479   4.310   1.212   6.241 -0.5005  0.1708  0.1276
10527SOL    HW132480   4.361   1.161   6.172 -1.0723  0.3356 -0.4280
10527SOL    HW232481   4.229   1.253   6.199 -0.8710  0.2565  0.9045
10528SOL     OW32482   0.560   4.254   0.282  0.1954 -0.0847  0.2676
10528SOL    HW132483   0.589   4.283   0.191 -1.1541  1.3858  0.2744
10528SOL    HW232484   0.587   4.159   0.296  4.1111  0.8038 -0.0621
10529SOL     OW32485   6.139   5.615   6.176  0.5091 -0.0091  0.3595
10529SOL    HW132486   6.076   5.664   6.117  1.5519  0.1293 -0.6703
10529SOL    HW232487   6.171   5.532   6.130  1.0252 -0.1137  0.8841
10530SOL     OW32488   6.379   1.754   3.543 -0.5709  0.1285 -0.3770
10530SOL    HW132489   6.310   1.682   3.538 -0.1547 -0.2165 -1.7130
10530SOL    HW232490   6.450   1.727   3.609 -1.5540  0.3758  0.8110
10531SOL     OW32491   4.211   1.509   3.750  0.5024 -0.3183 -0.1988
10531SOL    HW132492   4.309   1.523   3.765  0.5159 -0.9062  0.2933
10531SOL    HW232493   4.159   1.566   3.813  0.5339 -0.3019 -0.1876
10532SOL     OW32494   3.866   3.247   4.267 -0.1942  0.4272  0.3748
10532SOL    HW132495   3.823   3.275   4.181  1.7584  2.6157  0.0065
10532SOL    HW232496   3.885   3.328   4.323  2.7028 -0.4320  0.8042
10533SOL     OW32497   4.511   1.305   0.127 -0.2551  0.0894 -0.1900
10533SOL    HW132498   4.588   1.291   0.064 -0.1593 -0.0258 -0.0484
10533SOL    HW232499   4.430   1.258   0.091 -1.6285  3.9298 -2.7868
10534SOL     OW32500   5.628   3.959   2.231 -0.2152  0.1331 -0.3082
10534SOL    HW132501   5.723   3.965   2.201 -0.0997  1.0112  0.2139
10534SOL    HW232502   5.596   3.865   2.221  0.1291  0.1719 -2.2077
10535SOL     OW32503   4.526   1.162   0.894  0.1127 -0.4699 -0.4324
10535SOL    HW132504   4.434   1.177   0.931 -0.0281 -0.7886 -0.6466
10535SOL    HW232505   4.520   1.150   0.795  0.6139  1.6714 -0.7879
10536SOL     OW32506   0.134   5.039   4.443 -0.0504  0.0287  0.1525
10536SOL    HW132507   0.181   5.055   4.530 -2.1208  2.3321  0.9648
10536SOL    HW232508   0.042   5.005   4.462  0.0630 -1.1335 -1.2553
10537SOL     OW32509   5.333   4.205   0.778  0.3681  0.3306  0.7448
10537SOL    HW132510   5.407   4.154   0.733  0.2745  0.0555  0.8968
10537SOL    HW232511   5.366   4.296   0.803 -0.2863  1.4384 -2.0322
10538SOL     OW32512   5.662   4.083   6.902 -0.3566  0.1716 -0.5222
10538SOL    HW132513   5.624   4.174   6.918 -1.0006 -0.2876  0.6988
10538SOL    HW232514   5.623   4.018   6.968 -0.4829 -1.1544 -1.8382
10539SOL     OW32515   6.585   1.844   4.010  0.0927 -0.4022 -0.0520
10539SOL    HW132516   6.525   1.785   4.065  0.9249 -2.2857 -1.0408
10539SOL    HW232517   6.532   1.888   3.938 -0.4423 -0.5014  0.2793
10540SOL     OW32518   2.542   1.963   0.648  0.1404 -0.3141 -0.3265
10540SOL    HW132519   2.638   1.946   0.669  1.0175  0.5608 -3.2095
10540SOL    HW232520   2.508   2.038   0.705  1.6857  0.5032 -0.4351
10541SOL     OW32521   3.370   2.822   1.685 -0.1411 -0.0629 -0.5043
10541SOL    HW132522   3.440   2.784   1.624  0.0395 -0.1345 -0.2504
10541SOL    HW232523   3.370   2.772   1.771 -1.1671 -0.7133 -0.8576
10542SOL     OW32524   3.003   3.195   6.994 -0.1409  0.1563  0.6753
10542SOL    HW132525   2.985   3.275   6.937  1.5308  1.9264  2.5271
10542SOL    HW232526   2.920   3.172   7.045 -0.5692  0.8078  0.2955
10543SOL     OW32527   4.018   2.021   5.742  0.3695  0.0765  0.2259
10543SOL    HW132528   4.064   2.024   5.830  0.9977  0.0715 -0.0956
10543SOL    HW232529   3.995   2.114   5.714 -0.8375 -0.0017  0.9035
10544SOL     OW32530   1.154   3.370   1.840 -0.1582 -0.4597 -0.2569
10544SOL    HW132531   1.151   3.428   1.759 -0.7546 -1.5234 -1.0110
10544SOL    HW232532   1.181   3.426   1.919  1.7085  0.3381 -1.3881
10545SOL     OW32533   3.058   6.671   1.970  0.3157  0.2839 -0.0478
10545SOL    HW132534   3.104   6.720   1.896  0.7506  0.3624  0.2670
10545SOL    HW232535   3.121   6.663   2.048 -0.0451 -0.0290  0.2128
10546SOL     OW32536   4.155   1.800   4.336 -0.1985  0.0200 -0.3525
10546SOL    HW132537   4.208   1.721   4.304 -0.6994  0.0072 -1.1929
10546SOL    HW232538   4.166   1.810   4.435  0.2397 -0.8250 -0.3051
10547SOL     OW32539   3.527   5.305   1.062  0.5097 -0.0192 -0.3561
10547SOL    HW132540   3.444   5.266   1.103  0.9627 -0.9694 -0.3274
10547SOL    HW232541   3.597   5.235   1.055  0.8710  0.4443 -1.6161
10548SOL     OW32542   4.353   4.680   5.654  0.0249  0.5495 -0.2422
10548SOL    HW132543   4.406   4.738   5.592  0.0774  1.0990  0.3139
10548SOL    HW232544   4.372   4.706   5.749 -2.2679  1.7490 -0.0328
10549SOL     OW32545   6.987   0.503   2.043  0.4261  0.0631  0.3829
10549SOL    HW132546   7.067   0.528   1.989  0.6019  0.5199  0.8500
10549SOL    HW232547   7.015   0.453   2.124  0.2120 -0.0897  0.3637
10550SOL     OW32548   4.272   6.260   4.557  0.0961  0.3946 -0.5322
10550SOL    HW132549   4.364   6.222   4.539 -0.7190 -2.9569  1.4277
10550SOL    HW232550   4.208   6.222   4.491 -0.1370  1.6065 -1.0135
10551SOL     OW32551   1.854   2.046   5.956 -0.1850  0.7226 -0.2559
10551SOL    HW132552   1.914   2.093   6.020  1.2661  0.0861 -1.0877
10551SOL    HW232553   1.904   2.029   5.871 -0.7545 -1.9841 -0.1295
10552SOL     OW32554   4.596   0.846   0.557  0.2261 -0.1358 -0.0610
10552SOL    HW132555   4.691   0.819   0.569  0.3022 -0.4175 -1.1799
10552SOL    HW232556   4.536   0.779   0.600  0.5077 -0.3955 -0.0780
10553SOL     OW32557   3.456   6.962   6.990  0.0778  0.0710 -0.3014
10553SOL    HW132558   3.521   7.017   6.937  0.3627 -0.5438 -0.6044
10553SOL    HW232559   3.371   6.953   6.939 -0.1488  0.6386 -0.0315
10554SOL     OW32560   0.159   2.988   5.831  0.7314  0.3642 -0.5821
10554SOL    HW132561   0.074   2.985   5.884  0.9873 -2.0545 -0.1790
10554SOL    HW232562   0.173   3.080   5.796 -1.1946  1.2296  0.7213
10555SOL     OW32563   3.847   1.170   0.895 -0.0337  0.5009 -0.7459
10555SOL    HW132564   3.886   1.078   0.894 -0.7405  0.0026  3.0414
10555SOL    HW232565   3.776   1.177   0.825 -0.0142 -1.8558 -1.0677
10556SOL     OW32566   3.114   4.926   1.977  0.2570 -0.3178 -0.2284
10556SOL    HW132567   3.065   4.864   1.917 -0.2471  0.0999 -0.2608
10556SOL    HW232568   3.208   4.895   1.989  0.1957 -0.7151 -0.7684
10557SOL     OW32569   5.153   1.314   3.348  0.9103  0.4106 -0.4225
10557SOL    HW132570   5.156   1.410   3.322 -2.0898  0.1753 -2.1633
10557SOL    HW232571   5.121   1.259   3.271 -0.7202 -1.5090  1.4598
10558SOL     OW32572   5.323   5.679   5.638  0.4391 -0.2601  0.5933
10558SOL    HW132573   5.420   5.703   5.648  0.8254 -2.5389  3.6713
10558SOL    HW232574   5.268   5.739   5.697 -0.1162  1.1446 -1.2798
10559SOL     OW32575   4.891   2.887   0.384 -0.9932 -0.0461 -0.2609
10559SOL    HW132576   4.962   2.941   0.429 -1.2056  0.2120 -0.2345
10559SOL    HW232577   4.933   2.825   0.317 -0.5586 -1.1894  1.0160
10560SOL     OW32578   5.587   1.642   2.505  0.1648 -0.0361 -0.7197
10560SOL    HW132579   5.544   1.614   2.419 -0.0481  0.9539 -0.9515
10560SOL    HW232580   5.528   1.708   2.552  0.2269 -0.6494  0.2488
10561SOL     OW32581   2.510   5.485   6.640  0.5549  0.5803 -0.7955
10561SOL    HW132582   2.602   5.447   6.654  0.3965  0.7151  0.8568
10561SOL    HW232583   2.486   5.479   6.544  0.4391 -3.7040 -0.6647
10562SOL     OW32584   4.322   4.638   6.393  0.0915  0.9422  0.2203
10562SOL    HW132585   4.285   4.571   6.458  2.2297 -0.3079  0.2520
10562SOL    HW232586   4.280   4.727   6.410 -3.5101 -0.4492 -0.3718
10563SOL     OW32587   2.593   2.062   3.233 -0.2306  1.0831  0.0444
10563SOL    HW132588   2.640   1.981   3.267 -1.1586  0.5096 -0.0023
10563SOL    HW232589   2.660   2.132   3.210  0.5006  0.9152  1.5687
10564SOL     OW32590   0.880   2.212   1.443  0.1925  0.7919 -0.3878
10564SOL    HW132591   0.964   2.158   1.446  0.2222  0.8483 -0.2148
10564SOL    HW232592   0.801   2.150   1.446  0.2050  0.6244 -2.1832
10565SOL     OW32593   6.529   1.668   6.676  0.2053  0.4141  0.0490
10565SOL    HW132594   6.525   1.601   6.751 -0.4545  1.1227  0.6594
10565SOL    HW232595   6.606   1.730   6.690  0.2031  0.4220  0.0270
10566SOL     OW32596   4.547   5.140   5.918 -0.4083  0.1456 -0.0541
10566SOL    HW132597   4.506   5.231   5.919 -0.4326  0.2967 -3.2531
10566SOL    HW232598   4.509   5.088   5.841  1.4896 -1.6434  0.1402
10567SOL     OW32599   0.801   5.278   4.865 -0.1008  0.5523  0.5512
10567SOL    HW132600   0.764   5.281   4.771  0.2463 -1.1381  0.3351
10567SOL    HW232601   0.725   5.276   4.930 -0.3514  1.0092  0.2808
10568SOL     OW32602   4.700   6.947   3.559  0.0266  0.6456  0.0624
10568SOL    HW132603   4.650   6.957   3.473  0.5600 -2.3829 -0.7204
10568SOL    HW232604   4.793   6.916   3.541  0.2054  0.1050  1.7203
10569SOL     OW32605   5.190   1.158   5.185 -0.1661 -0.2440  0.2089
10569SOL    HW132606   5.235   1.157   5.095  0.2858  0.8144  0.4125
10569SOL    HW232607   5.091   1.149   5.173 -0.0581 -0.7831 -0.3497
10570SOL     OW32608   1.736   3.939   1.242 -0.0839  0.1332  0.0977
10570SOL    HW132609   1.818   3.947   1.298  0.5963  1.9453 -1.0724
10570SOL    HW232610   1.702   4.031   1.219 -1.2846 -0.5672 -1.0746
10571SOL     OW32611   6.093   0.747   4.266 -0.0167 -0.2186  0.0747
10571SOL    HW132612   6.035   0.829   4.267  1.4245  0.8203  1.2342
10571SOL    HW232613   6.121   0.728   4.172  0.6025  1.3390 -0.0806
10572SOL     OW32614   1.832   3.023   3.103  0.2128  0.3612 -0.7560
10572SOL    HW132615   1.770   3.038   3.181  1.4416  1.3217  0.0701
10572SOL    HW232616   1.822   3.098   3.038 -0.6154 -0.3009 -1.4093
10573SOL     OW32617   6.613   6.117   6.734 -0.3660 -0.0924 -0.2851
10573SOL    HW132618   6.660   6.074   6.811  0.6650 -4.1447 -2.8352
10573SOL    HW232619   6.514   6.112   6.748 -0.2148 -1.5894  0.4462
10574SOL     OW32620   1.159   1.611   3.223  0.4670 -0.1255 -0.2630
10574SOL    HW132621   1.114   1.584   3.309  0.1572 -2.6708 -1.1148
10574SOL    HW232622   1.248   1.566   3.218  0.8023  0.6182 -0.9469
10575SOL     OW32623   0.177   0.992   4.944  0.0499 -0.6742  0.5977
10575SOL    HW132624   0.095   1.025   4.896  0.3361  0.6146  0.9454
10575SOL    HW232625   0.232   0.936   4.882 -0.6311 -0.7686  0.0727
10576SOL     OW32626   6.261   6.113   3.377  0.3896 -0.5223  0.1028
10576SOL    HW132627   6.232   6.205   3.350  2.5789  0.5463  1.0880
10576SOL    HW232628   6.320   6.074   3.306 -1.2123 -1.5959 -0.7116
10577SOL     OW32629   0.371   4.511   0.170  0.3259  0.0052 -0.6240
10577SOL    HW132630   0.370   4.507   0.070  2.0821 -1.4366 -0.6295
10577SOL    HW232631   0.411   4.428   0.207 -1.2063  0.0673  1.3618
10578SOL     OW32632   6.568   0.893   6.035 -0.9033  0.1403  0.7892
10578SOL    HW132633   6.650   0.906   6.091 -0.6934 -1.8517  1.0097
10578SOL    HW232634   6.591   0.911   5.939 -0.1389 -0.5853  0.8236
10579SOL     OW32635   5.258   1.425   6.691 -0.7360 -0.1273  0.6271
10579SOL    HW132636   5.239   1.510   6.642  0.4262  0.1187  0.5763
10579SOL    HW232637   5.309   1.445   6.774 -0.0769 -0.8081  0.4010
10580SOL     OW32638   6.920   4.083   1.782 -0.3424 -0.0579 -0.0067
10580SOL    HW132639   7.009   4.056   1.746 -0.8549 -0.2587 -1.1562
10580SOL    HW232640   6.885   4.010   1.841 -0.6768 -0.9285 -1.2424
10581SOL     OW32641   4.735   1.149   3.392  0.0489  0.1248  0.1517
10581SOL    HW132642   4.780   1.061   3.379  0.5713  0.5215 -0.8174
10581SOL    HW232643   4.701   1.182   3.304 -0.0961  0.9141  0.4968
10582SOL     OW32644   3.820   4.305   6.698  0.2892 -0.4796 -0.6822
10582SOL    HW132645   3.764   4.360   6.761  0.8896  0.0789 -0.6187
10582SOL    HW232646   3.861   4.229   6.748 -0.0442 -0.6290 -0.6295
10583SOL     OW32647   3.992   0.958   1.599  0.5936 -0.3458 -0.1811
10583SOL    HW132648   3.952   1.020   1.531 -0.3010 -0.8854 -0.1627
10583SOL    HW232649   4.012   1.009   1.683  2.7079  0.5626 -1.1720
10584SOL     OW32650   5.387   1.294   2.051  0.3160  0.2846 -0.2826
10584SOL    HW132651   5.430   1.206   2.072  1.4297  0.0613 -3.0255
10584SOL    HW232652   5.322   1.282   1.976 -2.8638  1.0928  2.1621
10585SOL     OW32653   2.980   4.841   6.311 -0.0021  0.3553 -0.0364
10585SOL    HW132654   2.911   4.773   6.290  0.4180  0.1723 -0.8639
10585SOL    HW232655   3.056   4.834   6.246  0.0634  1.5851 -0.1178
10586SOL     OW32656   2.968   1.276   3.601  0.3541  0.3269  0.2000
10586SOL    HW132657   2.958   1.360   3.654 -1.4702 -0.4534  1.1745
10586SOL    HW232658   2.888   1.265   3.541  0.5675 -0.7178  0.0966
10587SOL     OW32659   1.896   3.795   2.061  0.5140  0.2524 -0.0866
10587SOL    HW132660   1.985   3.757   2.087 -1.1450 -2.7842  1.7019
10587SOL    HW232661   1.838   3.803   2.142 -1.0056  1.8296 -1.2486
10588SOL     OW32662   0.085   5.778   2.494 -0.3247 -0.2005  0.4682
10588SOL    HW132663   0.180   5.750   2.507 -0.8563 -1.8028  1.1669
10588SOL    HW232664   0.083   5.871   2.458  1.5342 -0.6146 -0.8906
10589SOL     OW32665   6.566   0.631   6.957  0.9114  0.0681  0.3863
10589SOL    HW132666   6.598   0.579   7.037  1.0437  0.7993  0.8161
10589SOL    HW232667   6.521   0.569   6.893  0.0550 -0.3999  1.4165
10590SOL     OW32668   6.250   6.752   2.977 -0.3253  0.5932  0.5961
10590SOL    HW132669   6.195   6.674   3.004 -0.8605  1.1037  1.0101
10590SOL    HW232670   6.301   6.786   3.056  0.7386  0.0236  0.1867
10591SOL     OW32671   1.435   0.514   2.560 -0.3559  0.1498  0.4302
10591SOL    HW132672   1.461   0.467   2.476 -2.0605 -1.1371  0.5647
10591SOL    HW232673   1.346   0.558   2.548  0.1062  1.3250  1.0884
10592SOL     OW32674   5.968   1.860   4.311  0.0796  0.8354  0.6727
10592SOL    HW132675   6.065   1.881   4.313  0.4573 -0.6251 -0.3644
10592SOL    HW232676   5.949   1.780   4.367 -0.1539 -0.0891 -0.6632
10593SOL     OW32677   1.046   3.081   2.572 -0.0392 -0.2225  0.6379
10593SOL    HW132678   1.057   3.175   2.542 -0.2128 -0.9220 -1.8361
10593SOL    HW232679   1.078   3.018   2.501 -1.1678 -2.0481  1.6362
10594SOL     OW32680   0.221   0.429   2.514 -0.2534  0.1559  0.0086
10594SOL    HW132681   0.276   0.350   2.541  0.3430  1.1273  1.8406
10594SOL    HW232682   0.126   0.400   2.498 -0.3270 -0.7672  1.8419
10595SOL     OW32683   2.259   5.701   5.274 -0.4472 -0.0453 -0.2728
10595SOL    HW132684   2.333   5.657   5.224  1.9299  0.4437  2.5503
10595SOL    HW232685   2.181   5.715   5.213  1.6528 -0.7722 -3.3450
10596SOL     OW32686   3.225   1.603   6.217 -0.3454  0.0257  0.0180
10596SOL    HW132687   3.188   1.593   6.309  1.2899  1.7284  0.9384
10596SOL    HW232688   3.275   1.520   6.192  2.2074  0.7639  2.1958
10597SOL     OW32689   1.947   6.567   3.680 -0.7103 -0.4225  0.4118
10597SOL    HW132690   1.879   6.544   3.610 -1.0057  0.9363  0.2246
10597SOL    HW232691   1.907   6.556   3.771 -1.7120  1.7211  0.2978
10598SOL     OW32692   1.460   1.530   0.047 -0.1350  0.1047  0.2562
10598SOL    HW132693   1.432   1.536   0.142  0.9608 -1.7770  0.7588
10598SOL    HW232694   1.447   1.436   0.015 -0.0515  0.6028 -1.3178
10599SOL     OW32695   4.923   4.593   5.340  0.1241 -0.0191  0.5409
10599SOL    HW132696   4.981   4.513   5.324 -1.7833 -1.8396  2.0086
10599SOL    HW232697   4.896   4.595   5.437 -0.1266  2.2709  0.4704
10600SOL     OW32698   2.154   1.813   4.983 -0.1416  0.3620 -0.1763
10600SOL    HW132699   2.142   1.746   5.057  1.4477 -0.0843 -0.2886
10600SOL    HW232700   2.064   1.845   4.952 -0.9255 -1.3814  0.1762
10601SOL     OW32701   3.188   5.566   4.974 -0.2063 -0.4030  0.2266
10601SOL    HW132702   3.265   5.614   4.930 -0.9401  0.2671 -0.3534
10601SOL    HW232703   3.187   5.588   5.072  0.4349 -0.5516  0.2734
10602SOL     OW32704   3.723   0.639   2.774  0.5299 -0.6043  0.1272
10602SOL    HW132705   3.821   0.639   2.791  0.5735  0.6562 -0.0651
10602SOL    HW232706   3.683   0.725   2.805 -0.2189 -0.3373 -1.4705
10603SOL     OW32707   5.929   5.225   2.847  0.3149  0.4462 -0.1685
10603SOL    HW132708   6.006   5.217   2.783  0.2922  1.0450 -0.2835
10603SOL    HW232709   5.956   5.192   2.937  0.5159  0.0907 -0.3587
10604SOL     OW32710   6.565   5.346   6.218  0.6036  0.2828 -0.4890
10604SOL    HW132711   6.561   5.435   6.264  3.6250  0.6187 -0.6496
10604SOL    HW232712   6.597   5.360   6.123  1.4263 -0.9623 -0.4110
10605SOL     OW32713   0.588   5.115   0.636 -0.3479 -0.3689  0.2485
10605SOL    HW132714   0.580   5.069   0.547 -1.9822  0.7289 -0.2070
10605SOL    HW232715   0.684   5.138   0.653 -0.0689 -0.1949 -1.4343
10606SOL     OW32716   6.442   1.538   1.152  0.0862  0.4012  0.1857
10606SOL    HW132717   6.407   1.554   1.245 -0.5461 -1.8472  0.3930
10606SOL    HW232718   6.431   1.441   1.129  0.0218  0.9539 -2.3381
10607SOL     OW32719   3.383   4.539   6.581 -0.7188  0.1700  0.2090
10607SOL    HW132720   3.340   4.484   6.653 -2.2969  0.3554 -0.5555
10607SOL    HW232721   3.471   4.499   6.557 -1.6955 -1.9140 -0.1490
10608SOL     OW32722   5.669   5.997   2.458  0.6418  0.7090  0.2647
10608SOL    HW132723   5.723   5.959   2.383 -0.4939  1.2370 -0.8779
10608SOL    HW232724   5.574   6.008   2.427 -0.3590 -1.0291  2.4785
10609SOL     OW32725   3.089   6.579   2.930 -0.0466 -0.0687 -0.0865
10609SOL    HW132726   3.080   6.633   2.846 -0.3865  0.1950  0.1157
10609SOL    HW232727   3.106   6.483   2.906 -1.8255 -0.3235 -0.5054
10610SOL     OW32728   1.450   5.713   3.875  0.1123  0.2269 -0.3045
10610SOL    HW132729   1.395   5.712   3.792  1.4321 -2.3497 -1.2731
10610SOL    HW232730   1.453   5.806   3.912 -2.6197  0.9618 -1.6528
10611SOL     OW32731   4.658   2.517   6.118  0.4427  0.2615  0.1855
10611SOL    HW132732   4.689   2.590   6.178  0.6700  0.7836 -0.5550
10611SOL    HW232733   4.577   2.474   6.157 -1.2337  2.5499 -0.5546
10612SOL     OW32734   1.453   6.551   2.224 -0.2052  0.7393 -0.3953
10612SOL    HW132735   1.489   6.639   2.255  2.0965 -0.5125  0.7138
10612SOL    HW232736   1.521   6.479   2.240 -1.8851 -1.2215 -1.5453
10613SOL     OW32737   0.859   4.022   6.735  0.0325 -0.4560  0.9753
10613SOL    HW132738   0.784   4.053   6.677  1.9905  0.6655 -1.1022
10613SOL    HW232739   0.887   4.095   6.797 -0.1647 -0.6827  1.3428
10614SOL     OW32740   1.136   0.793   2.072  0.1192 -0.7242  0.4424
10614SOL    HW132741   1.204   0.851   2.026 -0.3821  0.2387  0.8854
10614SOL    HW232742   1.066   0.765   2.006 -1.8869  2.5502  0.9493
10615SOL     OW32743   6.351   5.717   5.570 -0.1123  0.5678 -0.5740
10615SOL    HW132744   6.281   5.645   5.566  0.7550 -0.4085  0.9352
10615SOL    HW232745   6.345   5.772   5.487 -0.0896 -1.9552 -2.3970
10616SOL     OW32746   2.905   4.542   6.509  0.0327 -0.5576  0.7685
10616SOL    HW132747   2.999   4.530   6.475 -0.3630  0.5536 -0.8209
10616SOL    HW232748   2.860   4.615   6.458 -1.3372 -0.2690  2.3045
10617SOL     OW32749   6.126   1.968   4.962 -0.2954 -0.1685 -0.5409
10617SOL    HW132750   6.078   2.013   5.037 -1.7278  0.4567 -1.8012
10617SOL    HW232751   6.186   2.034   4.916 -0.1321 -0.3148 -0.5415
10618SOL     OW32752   5.948   6.049   5.970 -0.7955 -0.1634  0.0722
10618SOL    HW132753   5.999   6.055   6.056 -1.4042 -1.0172  0.5076
10618SOL    HW232754   5.933   5.953   5.947  0.1188  0.0276 -1.4619
10619SOL     OW32755   6.367   3.294   3.823  0.1725 -0.3205 -0.6883
10619SOL    HW132756   6.279   3.249   3.837  0.2801 -0.2543  0.3434
10619SOL    HW232757   6.354   3.393   3.819  0.3730 -0.1138  1.7457
10620SOL     OW32758   0.026   6.116   3.850 -0.3966 -0.3911  0.0583
10620SOL    HW132759   0.107   6.071   3.888 -1.8121 -1.3871  2.0924
10620SOL    HW232760   0.021   6.098   3.752  0.8442 -1.9073  0.2300
10621SOL     OW32761   3.579   2.198   0.471 -0.1134  0.3703 -0.8582
10621SOL    HW132762   3.628   2.136   0.533 -0.7834  1.7151  1.1094
10621SOL    HW232763   3.626   2.200   0.383  2.9413  0.9231  0.6287
10622SOL     OW32764   3.319   3.296   1.775  0.3844 -0.8640 -0.0110
10622SOL    HW132765   3.231   3.342   1.774 -0.0101 -1.6166 -0.9576
10622SOL    HW232766   3.307   3.200   1.799  0.7524 -1.3071 -1.4954
10623SOL     OW32767   5.844   0.344   3.632 -0.0111 -0.4338 -0.1453
10623SOL    HW132768   5.754   0.323   3.593 -1.1027 -0.2773  2.1202
10623SOL    HW232769   5.845   0.439   3.663  1.2938 -0.1550 -0.9738
10624SOL     OW32770   2.328   1.979   4.465 -0.0784  0.3512  0.1428
10624SOL    HW132771   2.339   1.897   4.410 -0.1924  0.6392 -0.3129
10624SOL    HW232772   2.366   1.963   4.556 -0.3021 -0.2816  0.1347
10625SOL     OW32773   1.360   1.230   1.942  0.5124 -0.5977  0.0669
10625SOL    HW132774   1.430   1.190   2.002  4.1389  3.7740 -0.7533
10625SOL    HW232775   1.377   1.202   1.848  1.9355  1.1910 -0.2626
10626SOL     OW32776   5.447   0.317   4.422 -0.1813 -0.2112  0.2309
10626SOL    HW132777   5.349   0.301   4.406 -0.1384  0.2181 -0.5571
10626SOL    HW232778   5.472   0.407   4.384  0.3497  0.0408  1.1647
10627SOL     OW32779   1.812   4.889   4.393 -0.3709 -0.5044 -0.0706
10627SOL    HW132780   1.826   4.791   4.380 -2.0428 -0.6550 -1.0396
10627SOL    HW232781   1.890   4.928   4.442  1.0432 -2.0171 -1.0311
10628SOL     OW32782   1.065   0.958   4.258 -0.0849  0.0317 -0.3399
10628SOL    HW132783   0.967   0.968   4.240 -0.2120 -0.3786  0.0967
10628SOL    HW232784   1.107   0.907   4.182 -0.0349  0.9768 -0.9633
10629SOL     OW32785   5.092   3.394   0.395 -0.2459  0.2828  0.2372
10629SOL    HW132786   5.057   3.406   0.488  0.0311 -0.7773  0.4906
10629SOL    HW232787   5.179   3.345   0.398 -0.1695  0.3535 -0.5810
10630SOL     OW32788   3.448   1.920   2.480  0.2845  0.1483 -0.1780
10630SOL    HW132789   3.465   1.968   2.566  0.8425  1.1760 -0.8418
10630SOL    HW232790   3.392   1.977   2.420  0.5635 -0.2213 -0.8027
10631SOL     OW32791   1.273   6.033   4.101 -0.3579 -0.1892  0.0781
10631SOL    HW132792   1.226   5.945   4.089 -1.0351 -0.2642  2.8021
10631SOL    HW232793   1.207   6.107   4.098 -0.0682  0.0660 -0.0959
10632SOL     OW32794   6.921   0.735   6.580 -0.3445  0.1250  0.6730
10632SOL    HW132795   6.837   0.705   6.625 -1.0732 -1.4690 -1.5364
10632SOL    HW232796   6.951   0.822   6.619 -2.2238  0.0392  2.4701
10633SOL     OW32797   3.393   2.904   6.786 -0.3090 -0.2533  0.5245
10633SOL    HW132798   3.394   2.811   6.823  0.6465  0.1753  1.6399
10633SOL    HW232799   3.406   2.900   6.687  0.3821 -1.2826  0.6386
10634SOL     OW32800   2.876   5.632   2.876  0.1355  0.0563  0.8283
10634SOL    HW132801   2.816   5.669   2.805  0.0487  0.1309  0.9417
10634SOL    HW232802   2.873   5.532   2.873 -1.3738  0.0449  2.0027
10635SOL     OW32803   2.098   1.460   0.013 -0.1070  0.0794 -0.1946
10635SOL    HW132804   2.178   1.479   0.070  0.1581  0.5773 -0.7302
10635SOL    HW232805   2.022   1.433   0.072  0.4220 -0.3210  0.3288
10636SOL     OW32806   5.322   1.972   1.229  0.1566  0.2965  0.0766
10636SOL    HW132807   5.363   1.954   1.319 -0.2005  0.0494  0.1889
10636SOL    HW232808   5.336   2.068   1.206  1.9412 -0.0483 -0.4610
10637SOL     OW32809   3.923   3.587   0.440 -0.1920 -0.5725 -0.3398
10637SOL    HW132810   3.976   3.650   0.383  1.1602  0.2382  1.6641
10637SOL    HW232811   3.836   3.630   0.466  0.0270 -0.1593 -0.2727
10638SOL     OW32812   5.273   0.123   5.764  0.2078 -0.3754  0.7787
10638SOL    HW132813   5.347   0.089   5.706 -1.6337 -0.3343 -1.7471
10638SOL    HW232814   5.286   0.221   5.780  0.4329 -0.2649 -0.0635
10639SOL     OW32815   2.038   1.289   3.261 -0.2002  0.0958  0.3753
10639SOL    HW132816   2.110   1.266   3.325  0.1136 -0.3423 -0.1202
10639SOL    HW232817   2.022   1.388   3.261  0.5219  0.2157  0.3585
10640SOL     OW32818   5.235   6.674   1.273  0.1577  0.5491  0.4481
10640SOL    HW132819   5.316   6.661   1.216 -0.8063 -0.6777 -0.7024
10640SOL    HW232820   5.152   6.664   1.218 -0.8216 -0.3968  1.9790
10641SOL     OW32821   5.557   6.755   5.362 -0.0738  0.1953  0.3468
10641SOL    HW132822   5.553   6.708   5.274  1.4730  1.0314 -0.2320
10641SOL    HW232823   5.652   6.782   5.380 -0.4795  0.6519  1.9529
10642SOL     OW32824   2.066   3.934   3.520 -0.5039 -0.5216 -0.3290
10642SOL    HW132825   2.015   3.853   3.549  1.3665 -1.5405  0.2736
10642SOL    HW232826   2.162   3.910   3.510  0.1391  1.7107  0.1250
10643SOL     OW32827   4.301   4.906   6.548  0.2645 -0.2288  0.4150
10643SOL    HW132828   4.201   4.907   6.541  0.2617 -1.7386 -0.1197
10643SOL    HW232829   4.341   4.927   6.459  0.4376  0.2866  0.6079
10644SOL     OW32830   0.447   3.325   3.305  0.0036 -0.7837  0.0261
10644SOL    HW132831   0.351   3.312   3.282 -0.1666 -1.5176  1.1035
10644SOL    HW232832   0.455   3.354   3.400  0.7891  0.5328 -0.4127
10645SOL     OW32833   2.362   2.112   3.112 -0.2246 -0.3556 -0.2650
10645SOL    HW132834   2.293   2.106   3.185  0.1428  0.0417  0.1214
10645SOL    HW232835   2.452   2.122   3.153 -0.0490  0.2129 -0.7857
10646SOL     OW32836   4.941   3.727   1.539  0.4116  0.4797 -0.2659
10646SOL    HW132837   4.931   3.793   1.465 -1.1008  1.3397  0.6376
10646SOL    HW232838   5.021   3.750   1.594  0.4454  1.0007 -0.5261
10647SOL     OW32839   0.039   5.717   1.453  0.5053 -0.1306  0.5187
10647SOL    HW132840   0.079   5.792   1.505  1.3821 -0.6487  0.6181
10647SOL    HW232841   0.110   5.650   1.431 -0.2892 -1.0403  0.6251
10648SOL     OW32842   4.794   4.767   5.170  0.2839 -0.7118 -0.3021
10648SOL    HW132843   4.861   4.825   5.123  0.0561 -0.5312 -0.4084
10648SOL    HW232844   4.841   4.707   5.235  0.3154  1.6177  1.9843
10649SOL     OW32845   6.682   4.939   6.748 -0.1955 -0.0889 -0.5614
10649SOL    HW132846   6.588   4.908   6.732  0.0623 -0.4686 -1.4240
10649SOL    HW232847   6.698   4.946   6.846 -1.1480  0.0661 -0.4017
10650SOL     OW32848   2.310   6.126   3.911 -0.1002 -0.1857 -0.0958
10650SOL    HW132849   2.362   6.093   3.832 -0.0170 -0.4959  0.0885
10650SOL    HW232850   2.344   6.083   3.994 -0.2989  0.0137  0.0915
10651SOL     OW32851   1.459   6.409   3.867 -0.6739  0.3748 -0.2777
10651SOL    HW132852   1.398   6.332   3.884  0.8834 -0.7500  0.3862
10651SOL    HW232853   1.453   6.473   3.944 -0.2276 -0.2837  0.3203
10652SOL     OW32854   5.205   0.506   6.729  0.0712  0.2952  0.0746
10652SOL    HW132855   5.183   0.411   6.754 -1.9452  0.2463 -1.6088
10652SOL    HW232856   5.302   0.513   6.705  0.2335 -1.3421  0.1628
10653SOL     OW32857   6.404   3.800   4.026 -0.2631  0.1283 -0.2419
10653SOL    HW132858   6.498   3.803   4.060 -0.1902 -0.8550 -0.3185
10653SOL    HW232859   6.359   3.717   4.061 -0.7542  0.0298 -1.0861
10654SOL     OW32860   4.595   0.023   2.122  0.1885  0.3772  0.1631
10654SOL    HW132861   4.542   0.107   2.125 -1.0205 -0.3862  2.3832
10654SOL    HW232862   4.681   0.036   2.173 -0.8218 -0.1874  2.1045
10655SOL     OW32863   4.346   0.687   5.279 -0.2746 -0.5624 -0.2969
10655SOL    HW132864   4.315   0.595   5.255 -1.1120 -0.1689 -0.7650
10655SOL    HW232865   4.402   0.724   5.205  1.2011 -1.1903  0.4583
10656SOL     OW32866   0.640   3.791   5.609  0.1851  0.4509 -0.4755
10656SOL    HW132867   0.554   3.838   5.627  1.0092  1.3611  1.3372
10656SOL    HW232868   0.642   3.703   5.658  1.0170  1.3199  1.1344
10657SOL     OW32869   4.888   1.697   1.330  0.1430 -0.2532  0.2194
10657SOL    HW132870   4.863   1.631   1.260 -2.6150 -0.4123  1.2415
10657SOL    HW232871   4.973   1.743   1.304  0.7092 -2.2790 -1.7925
10658SOL     OW32872   0.551   6.503   5.819 -0.0957 -0.5970 -0.4203
10658SOL    HW132873   0.643   6.479   5.789  1.0068  0.2913  1.9712
10658SOL    HW232874   0.511   6.425   5.868 -0.0791 -0.5503 -0.3315
10659SOL     OW32875   4.622   1.894   2.579 -0.2813  0.3224  0.1743
10659SOL    HW132876   4.541   1.857   2.624 -0.2700  1.0238  0.7811
10659SOL    HW232877   4.695   1.907   2.646  0.0111  0.6026 -0.1924
10660SOL     OW32878   4.835   5.361   5.314 -0.1979 -0.0550  0.5621
10660SOL    HW132879   4.903   5.396   5.249 -1.3469  0.4075 -0.4478
10660SOL    HW232880   4.789   5.438   5.358 -1.3422 -0.2856 -0.1704
10661SOL     OW32881   0.010   1.954   0.637  0.4557 -0.5676  0.5872
10661SOL    HW132882  -0.038   1.882   0.586  0.6214 -0.5129  0.3543
10661SOL    HW232883   0.014   1.928   0.734 -0.4128 -0.3790  0.6869
10662SOL     OW32884   2.226   3.192   1.215 -0.0707  0.5793 -0.2838
10662SOL    HW132885   2.229   3.218   1.312 -1.6935 -2.6003  0.7663
10662SOL    HW232886   2.261   3.099   1.205  1.2318  1.2737 -3.0249
10663SOL     OW32887   0.099   2.517   3.746  0.5474  0.8709 -0.0785
10663SOL    HW132888   0.027   2.534   3.813  0.1727 -0.6278 -0.0647
10663SOL    HW232889   0.134   2.604   3.711 -0.1321  1.6480  1.1152
10664SOL     OW32890   1.816   4.894   5.088 -0.2642  0.1704 -0.2134
10664SOL    HW132891   1.755   4.949   5.032 -2.4351  0.0837  1.8887
10664SOL    HW232892   1.780   4.888   5.181  2.6376 -0.5081  0.9892
10665SOL     OW32893   0.057   2.573   6.019  0.3378 -0.2156 -0.1001
10665SOL    HW132894   0.025   2.486   5.981  1.9018 -1.0601  0.4636
10665SOL    HW232895   0.069   2.565   6.118 -0.9426  1.1251  0.2138
10666SOL     OW32896   2.335   5.647   0.874 -0.4995  0.0576 -0.7977
10666SOL    HW132897   2.425   5.691   0.881 -0.7365  0.8744 -2.3421
10666SOL    HW232898   2.344   5.550   0.896  0.6176  0.2626 -0.2504
10667SOL     OW32899   3.933   2.540   6.575 -0.2063 -0.4562  0.1927
10667SOL    HW132900   3.908   2.535   6.478 -1.1328  0.8156  0.3397
10667SOL    HW232901   4.006   2.474   6.594  0.4047 -0.3245 -1.5016
10668SOL     OW32902   0.761   5.198   5.898 -0.3765  0.5129  0.4261
10668SOL    HW132903   0.681   5.198   5.957 -1.8005 -0.0477 -1.3913
10668SOL    HW232904   0.781   5.104   5.870  0.8924  0.6562  0.7766
10669SOL     OW32905   2.590   6.871   0.084  0.3389 -0.3402 -0.4212
10669SOL    HW132906   2.685   6.845   0.072  0.8015  0.5727  1.0295
10669SOL    HW232907   2.531   6.804   0.039  1.6423 -1.0888 -1.0602
10670SOL     OW32908   5.992   3.938   5.312  0.0496  0.1184 -0.8873
10670SOL    HW132909   6.076   3.923   5.364 -0.9732 -2.2426  0.2607
10670SOL    HW232910   5.924   3.984   5.369 -0.0913  0.1936 -1.1135
10671SOL     OW32911   3.537   2.081   3.430 -0.4162 -0.3608  0.0044
10671SOL    HW132912   3.546   1.987   3.464  0.7171  0.3693  1.8800
10671SOL    HW232913   3.608   2.138   3.472 -0.6306  1.2009 -1.6527
10672SOL     OW32914   1.319   3.116   0.939  0.1649  0.2039  0.1511
10672SOL    HW132915   1.238   3.156   0.980  0.4007 -0.6459  1.5104
10672SOL    HW232916   1.395   3.182   0.944  0.1196  0.2071  0.8440
10673SOL     OW32917   3.877   3.944   4.692 -0.3929 -0.2219 -0.6108
10673SOL    HW132918   3.917   3.853   4.683 -1.6086 -0.9456  0.9080
10673SOL    HW232919   3.926   3.996   4.761 -3.4355 -2.0937  3.3785
10674SOL     OW32920   4.347   1.514   2.375  0.1723  0.6899  0.1395
10674SOL    HW132921   4.446   1.525   2.377  0.4513 -1.2038  2.9252
10674SOL    HW232922   4.304   1.597   2.412  0.7604  1.2081 -0.3173
10675SOL     OW32923   0.513   3.569   3.776 -0.1374  0.5991  0.4805
10675SOL    HW132924   0.463   3.577   3.690 -4.6396  0.0834  2.7556
10675SOL    HW232925   0.544   3.475   3.788 -0.9305  0.2768  0.0800
10676SOL     OW32926   5.148   6.952   6.180 -0.4011  0.2813  0.1230
10676SOL    HW132927   5.184   6.929   6.089 -0.2679 -0.0939  0.2716
10676SOL    HW232928   5.071   7.015   6.170 -0.5638  0.0227 -0.2656
10677SOL     OW32929   3.862   1.203   0.365 -0.3084  0.0049  0.0560
10677SOL    HW132930   3.853   1.137   0.440  0.8594 -0.9249 -0.6033
10677SOL    HW232931   3.825   1.163   0.281 -0.6913  0.6621 -0.0931
10678SOL     OW32932   1.553   5.530   5.460 -0.5064  0.3190 -0.4821
10678SOL    HW132933   1.614   5.564   5.389 -0.7333  1.0285 -0.3474
10678SOL    HW232934   1.607   5.498   5.538 -0.3140  2.1895  0.1917
10679SOL     OW32935   5.320   3.122   4.783 -0.2861  0.5779 -0.3914
10679SOL    HW132936   5.316   3.111   4.684  1.6437  1.1063 -0.5565
10679SOL    HW232937   5.344   3.217   4.806 -2.1222  0.8502  0.6499
10680SOL     OW32938   6.564   1.442   2.609 -0.6139 -0.1939  0.1826
10680SOL    HW132939   6.625   1.517   2.585  0.2088 -1.0066 -0.2886
10680SOL    HW232940   6.486   1.478   2.661  1.0570  0.6465  2.2228
10681SOL     OW32941   2.041   1.268   6.826  0.0069 -0.5294 -0.2245
10681SOL    HW132942   2.064   1.257   6.729 -0.1643  0.5976 -0.4093
10681SOL    HW232943   2.077   1.355   6.859 -1.5181 -0.0315  0.2297
10682SOL     OW32944   6.261   1.956   3.405  0.0401  0.1206  0.4317
10682SOL    HW132945   6.297   2.046   3.430  1.2137 -0.0423 -0.5636
10682SOL    HW232946   6.318   1.885   3.446  0.4590 -0.1506 -0.5941
10683SOL     OW32947   2.024   1.020   3.923 -0.1986  0.0149  0.4056
10683SOL    HW132948   1.977   0.954   3.864 -1.1699  0.5766  0.5236
10683SOL    HW232949   1.968   1.039   4.003 -0.6560  2.0926 -0.3472
10684SOL     OW32950   4.597   6.161   1.464  0.1740  0.1770 -0.8647
10684SOL    HW132951   4.597   6.084   1.528 -1.4081 -0.7301 -1.8981
10684SOL    HW232952   4.677   6.154   1.404  0.3951 -0.3009 -0.5168
10685SOL     OW32953   6.675   2.222   4.434 -0.3448  0.1226  0.1740
10685SOL    HW132954   6.662   2.197   4.338 -1.6158  0.1071  0.3444
10685SOL    HW232955   6.697   2.139   4.486  3.4789  0.4945 -0.5522
10686SOL     OW32956   4.479   3.277   1.579 -0.4642 -0.2147  0.0059
10686SOL    HW132957   4.554   3.227   1.622 -0.2882  0.9113  1.0618
10686SOL    HW232958   4.499   3.289   1.482  1.6171  1.5151  0.5473
10687SOL     OW32959   1.324   4.686   6.838  0.4039 -0.1005  0.1385
10687SOL    HW132960   1.314   4.614   6.907 -1.5888 -0.7071 -0.7221
10687SOL    HW232961   1.369   4.765   6.880  0.2411 -0.8445  1.8270
10688SOL     OW32962   6.775   6.670   6.691  0.3107 -0.3020 -0.2021
10688SOL    HW132963   6.782   6.764   6.658 -0.0392 -0.1905  0.0311
10688SOL    HW232964   6.735   6.670   6.783 -0.0095 -0.6972 -0.3368
10689SOL     OW32965   6.758   6.332   1.189  0.0512  0.2535  0.2885
10689SOL    HW132966   6.817   6.338   1.109 -0.0471  1.8995  0.3179
10689SOL    HW232967   6.768   6.241   1.231  2.9019  0.5958  0.5446
10690SOL     OW32968   4.602   1.043   2.889  0.5219  0.5026 -0.4659
10690SOL    HW132969   4.591   1.004   2.980  0.0635 -1.2388 -1.2170
10690SOL    HW232970   4.514   1.038   2.840  0.8230  1.1798 -1.1029
10691SOL     OW32971   6.080   2.041   3.630 -1.0937  0.2553 -0.3731
10691SOL    HW132972   6.163   2.006   3.585 -0.3831  0.6655  0.6056
10691SOL    HW232973   6.002   1.987   3.599 -0.8608  1.2837 -3.0777
10692SOL     OW32974   4.653   6.650   3.655 -0.8343 -0.1932  0.5052
10692SOL    HW132975   4.672   6.748   3.668 -1.1606 -0.0708  0.1002
10692SOL    HW232976   4.647   6.605   3.744  0.2122 -0.0245  0.6798
10693SOL     OW32977   4.471   1.068   6.067 -0.2956 -0.1585  0.5986
10693SOL    HW132978   4.467   0.975   6.101  2.7715  0.4481  3.0799
10693SOL    HW232979   4.490   1.068   5.969 -0.3094 -2.1411  0.5755
10694SOL     OW32980   2.967   6.548   6.741  0.4236 -0.2874  0.2666
10694SOL    HW132981   3.042   6.588   6.688  0.4924  0.7904  1.1521
10694SOL    HW232982   2.887   6.536   6.681  1.0115 -0.6195 -0.4663
10695SOL     OW32983   5.860   2.994   5.280  0.2961 -0.4897 -0.5369
10695SOL    HW132984   5.766   3.028   5.276  0.5159  0.5925  1.7605
10695SOL    HW232985   5.865   2.919   5.347  1.1212 -0.3286 -0.4075
10696SOL     OW32986   0.565   1.446   1.579 -0.0364 -0.0313  0.1540
10696SOL    HW132987   0.577   1.375   1.649  0.5656 -0.1169 -0.0308
10696SOL    HW232988   0.518   1.406   1.500 -0.8041  0.0897  0.5386
10697SOL     OW32989   2.747   4.817   1.081 -0.4791 -0.2387  0.0722
10697SOL    HW132990   2.690   4.839   1.161  0.3814  0.2308  0.5629
10697SOL    HW232991   2.831   4.772   1.111  0.9496  2.0055 -0.3070
10698SOL     OW32992   4.644   5.728   2.625  0.1359 -0.3048  0.2181
10698SOL    HW132993   4.605   5.641   2.654  0.5358 -0.0523  1.5606
10698SOL    HW232994   4.670   5.782   2.705  0.7431  0.6650 -0.6055
10699SOL     OW32995   6.546   2.757   2.166 -0.2876  0.7906 -0.3053
10699SOL    HW132996   6.556   2.813   2.083  1.8811 -0.4224 -0.9262
10699SOL    HW232997   6.610   2.790   2.236 -2.5876  2.2557  1.2464
10700SOL     OW32998   0.857   3.007   4.083  0.1659 -0.1940  0.2089
10700SOL    HW132999   0.863   2.992   3.984  0.5302 -1.0691  0.3530
10700SOL    HW233000   0.919   3.082   4.109  1.3638 -1.0807 -0.0053
10701SOL     OW33001   1.644   5.896   0.434 -0.5157  0.9342  0.1877
10701SOL    HW133002   1.726   5.845   0.461 -1.4134 -0.8526 -0.2896
10701SOL    HW233003   1.670   5.973   0.376  0.8312  0.3075 -0.0752
10702SOL     OW33004   4.279   3.412   0.900 -0.9705 -0.0523 -0.2995
10702SOL    HW133005   4.239   3.457   0.820  2.8080  0.4824 -2.1032
10702SOL    HW233006   4.302   3.318   0.878  1.1476  0.4206 -0.3563
10703SOL     OW33007   2.169   3.374   5.790 -0.2629  0.0038 -0.2544
10703SOL    HW133008   2.092   3.311   5.784 -0.4533  0.3907 -2.5819
10703SOL    HW233009   2.226   3.366   5.708  2.1800 -0.2130  1.3453
10704SOL     OW33010   6.043   5.412   3.298  0.5974 -0.0347  0.0878
10704SOL    HW133011   5.960   5.360   3.318  0.2316  0.6335  0.3522
10704SOL    HW233012   6.099   5.419   3.381  0.3242  0.5459  0.2313
10705SOL     OW33013   0.579   2.883   0.350 -0.1501 -0.3885  0.1587
10705SOL    HW133014   0.601   2.796   0.307  1.0457  0.6890 -1.5660
10705SOL    HW233015   0.646   2.902   0.422 -0.7198 -1.1102  0.8884
10706SOL     OW33016   2.076   5.029   0.448 -0.2694  0.5200 -0.2249
10706SOL    HW133017   2.064   5.113   0.395  0.4431  0.1999 -0.9260
10706SOL    HW233018   2.169   5.027   0.486 -0.2598  0.0204 -0.2682
10707SOL     OW33019   3.628   0.822   5.135 -0.8833  0.2241  0.0214
10707SOL    HW133020   3.669   0.909   5.163  0.2207 -0.6830  1.4048
10707SOL    HW233021   3.529   0.830   5.136 -0.8660  0.8731  2.3288
10708SOL     OW33022   4.883   3.936   2.418 -0.5664 -0.3637  0.1404
10708SOL    HW133023   4.826   3.998   2.472 -0.4859 -0.3489  0.2107
10708SOL    HW233024   4.898   3.975   2.327  0.1243  0.0955  0.4434
10709SOL     OW33025   5.072   0.845   4.796  0.0526  0.0235  0.2483
10709SOL    HW133026   5.042   0.848   4.701  0.4864  0.1300  0.1083
10709SOL    HW233027   4.993   0.848   4.857 -0.2048  0.5131 -0.1038
10710SOL     OW33028   5.878   6.960   3.605  0.1227  0.7461 -0.0291
10710SOL    HW133029   5.855   6.867   3.633  2.9516  0.4375  1.6006
10710SOL    HW233030   5.901   7.015   3.685  1.0615  2.1016 -1.1812
10711SOL     OW33031   1.486   3.460   5.700  0.1478  0.4621 -0.8992
10711SOL    HW133032   1.425   3.516   5.756 -0.0567 -1.1179  0.5409
10711SOL    HW233033   1.580   3.475   5.728  0.0841  0.0098 -0.4393
10712SOL     OW33034   5.545   0.987   6.407 -0.3564  0.4087 -0.7053
10712SOL    HW133035   5.572   0.961   6.314 -0.3584  0.5254 -0.7390
10712SOL    HW233036   5.627   1.000   6.462 -0.1062  4.2024 -1.7235
10713SOL     OW33037   1.606   6.621   0.409 -0.2928 -0.3832  0.0012
10713SOL    HW133038   1.510   6.646   0.423 -0.3897 -0.5989 -0.2588
10713SOL    HW233039   1.617   6.522   0.417  0.0129 -0.3066  0.5987
10714SOL     OW33040   6.598   4.646   3.542  0.2246  0.3819 -0.2432
10714SOL    HW133041   6.557   4.736   3.529  1.2952  0.8938 -0.0745
10714SOL    HW233042   6.532   4.576   3.511 -0.5172  1.2111 -0.6045
10715SOL     OW33043   4.882   6.011   2.434 -0.2648  0.3660 -0.0574
10715SOL    HW133044   4.845   5.929   2.391  1.1416 -0.5006  0.2937
10715SOL    HW233045   4.955   6.049   2.376  0.6990 -0.0151  0.8682
10716SOL     OW33046   5.728   1.259   2.930  0.6429 -0.9178  0.4918
10716SOL    HW133047   5.699   1.171   2.891 -0.8528 -0.1183 -0.3207
10716SOL    HW233048   5.684   1.272   3.019  0.4133 -0.7560  0.3563
10717SOL     OW33049   5.652   6.707   1.541  0.6933  0.3076  0.5656
10717SOL    HW133050   5.567   6.655   1.529  0.2410  1.3252 -0.9946
10717SOL    HW233051   5.654   6.746   1.632 -0.8709  0.8452  0.4095
10718SOL     OW33052   0.233   2.737   5.716 -0.0449 -0.4525 -0.4851
10718SOL    HW133053   0.215   2.828   5.752  0.0454  0.3472 -2.3521
10718SOL    HW233054   0.147   2.694   5.689 -0.0742 -0.8954  0.2707
10719SOL     OW33055   4.885   6.128   1.891 -0.0963 -0.3988  0.0889
10719SOL    HW133056   4.927   6.215   1.916 -0.1836  0.0274 -1.1723
10719SOL    HW233057   4.795   6.121   1.935 -0.4494  0.5361 -0.4517
10720SOL     OW33058   2.724   3.077   0.654 -0.0962  0.4815 -0.0045
10720SOL    HW133059   2.729   3.157   0.595 -1.7193  0.0994 -0.7268
10720SOL    HW233060   2.815   3.040   0.669  0.5321  1.6943 -0.7178
10721SOL     OW33061   5.651   0.516   4.978  0.2577  0.7755  0.0206
10721SOL    HW133062   5.660   0.512   4.879 -0.1399 -0.2151  0.0138
10721SOL    HW233063   5.694   0.600   5.012 -0.5358  1.6480 -1.0776
10722SOL     OW33064   1.287   3.383   2.780  0.5601  0.6457  0.2655
10722SOL    HW133065   1.384   3.374   2.755  0.0244  0.2823 -1.9482
10722SOL    HW233066   1.279   3.395   2.879  2.8040 -0.2094  0.6200
10723SOL     OW33067   5.964   5.407   5.858  0.2259 -0.0052 -0.1219
10723SOL    HW133068   5.899   5.421   5.783 -0.1525 -2.1233 -0.2613
10723SOL    HW233069   5.931   5.334   5.918  2.0965 -0.6030  0.2621
10724SOL     OW33070   5.556   5.605   5.400  0.2971 -0.1025 -0.1609
10724SOL    HW133071   5.566   5.660   5.483  2.7132 -0.3760 -0.2034
10724SOL    HW233072   5.539   5.510   5.426  2.4051 -0.4454  0.1190
10725SOL     OW33073   5.819   0.065   3.380 -0.6742  0.0105 -0.6224
10725SOL    HW133074   5.902   0.116   3.360 -0.6401  0.8064  1.3051
10725SOL    HW233075   5.831   0.013   3.465 -2.4805  1.0421  0.3329
10726SOL     OW33076   1.779   0.272   3.170  0.4697 -0.2842 -0.2791
10726SOL    HW133077   1.805   0.345   3.233 -0.2492 -1.1023  1.0157
10726SOL    HW233078   1.860   0.220   3.144  0.7021 -0.3140  0.4712
10727SOL     OW33079   4.734   6.019   3.206 -0.1558  0.3636  0.1487
10727SOL    HW133080   4.749   6.022   3.107 -1.1319 -0.6408 -0.0480
10727SOL    HW233081   4.636   6.015   3.225  0.0371  0.1729  1.1471
10728SOL     OW33082   5.630   5.547   6.209  0.1322 -0.1689  0.0896
10728SOL    HW133083   5.607   5.571   6.303 -1.4016  1.7032 -0.6956
10728SOL    HW233084   5.713   5.596   6.181  0.3452 -0.3905  0.3314
10729SOL     OW33085   1.226   3.720   3.134  0.5831 -0.2853  0.0030
10729SOL    HW133086   1.259   3.767   3.216  1.8484 -1.2511  0.0788
10729SOL    HW233087   1.303   3.694   3.076  0.0960 -3.0753  0.4212
10730SOL     OW33088   1.464   0.241   6.291  0.1834  0.0681 -0.3643
10730SOL    HW133089   1.380   0.212   6.244 -0.1977 -1.7753  1.2907
10730SOL    HW233090   1.521   0.161   6.307  1.3940  1.0216  0.2021
10731SOL     OW33091   5.159   4.484   5.671 -0.0020 -0.3653  0.1618
10731SOL    HW133092   5.223   4.551   5.633 -0.7563 -0.2368 -0.9289
10731SOL    HW233093   5.065   4.513   5.652 -0.3582 -1.3087  0.4210
10732SOL     OW33094   6.286   4.585   1.517  0.3643  0.1090 -0.1164
10732SOL    HW133095   6.192   4.551   1.519  0.3222  0.2491  0.2368
10732SOL    HW233096   6.287   4.678   1.479  0.5355 -0.4520 -1.5393
10733SOL     OW33097   4.178   1.097   5.621 -0.5419  0.5988  0.5249
10733SOL    HW133098   4.219   1.008   5.641 -0.1658  0.5546 -0.4292
10733SOL    HW233099   4.078   1.089   5.623 -0.5103  0.0644  0.0628
10734SOL     OW33100   5.666   1.339   2.402 -0.0188 -0.0150 -0.0116
10734SOL    HW133101   5.693   1.332   2.498  1.3085  0.1894 -0.3517
10734SOL    HW233102   5.679   1.250   2.357 -0.1228  0.0303 -0.1331
10735SOL     OW33103   2.139   6.793   0.437  0.4117  0.2426 -0.6530
10735SOL    HW133104   2.114   6.783   0.340 -1.0241  0.7400 -0.3680
10735SOL    HW233105   2.147   6.703   0.479 -0.4381  0.0413 -0.8972
10736SOL     OW33106   6.697   5.263   6.453 -0.2152  0.0314  0.2718
10736SOL    HW133107   6.629   5.297   6.519 -0.0798  0.7825  0.0201
10736SOL    HW233108   6.664   5.278   6.360 -0.0198 -0.2604  0.1530
10737SOL     OW33109   5.158   2.489   0.032  0.3584  0.2207  0.0767
10737SOL    HW133110   5.242   2.435   0.036  0.7623  0.5917 -2.2389
10737SOL    HW233111   5.114   2.478  -0.057 -1.0169  1.5805  0.5298
10738SOL     OW33112   6.722   0.597   2.065 -0.0190  0.1896  0.0332
10738SOL    HW133113   6.665   0.546   2.000  0.6590 -1.2088  0.4931
10738SOL    HW233114   6.816   0.565   2.058  0.4025  1.2921  0.4672
10739SOL     OW33115   6.415   2.615   3.994  0.4381  0.2991  0.1963
10739SOL    HW133116   6.482   2.686   3.973  0.7200  0.3266  1.1216
10739SOL    HW233117   6.463   2.529   4.011  0.2054  0.2142  0.4280
10740SOL     OW33118   3.400   6.260   6.647 -0.3757 -0.1878  0.0182
10740SOL    HW133119   3.413   6.305   6.735  1.6911  0.4919 -0.5757
10740SOL    HW233120   3.360   6.324   6.582 -2.1033 -0.7520  0.4692
10741SOL     OW33121   2.062   3.005   2.843 -0.7822  0.4396  0.2860
10741SOL    HW133122   2.123   2.926   2.833 -0.8255  0.6286 -2.3105
10741SOL    HW233123   1.968   2.977   2.824 -0.8956  0.9760  0.0499
10742SOL     OW33124   6.990   0.036   2.563 -0.3611 -0.4321  0.0071
10742SOL    HW133125   7.074   0.081   2.592 -0.1849 -0.5876 -0.2662
10742SOL    HW233126   6.967   0.065   2.470 -0.2962 -0.8411 -0.1359
10743SOL     OW33127   4.920   3.969   6.456  0.0928 -0.2392 -0.0720
10743SOL    HW133128   4.851   3.918   6.507  0.2754 -1.2958 -0.8434
10743SOL    HW233129   4.927   4.062   6.492 -1.2263 -0.3366  0.4811
10744SOL     OW33130   1.433   1.003   1.017  0.2255 -0.0506 -0.3511
10744SOL    HW133131   1.376   0.974   1.094  2.9339 -1.3911  1.3030
10744SOL    HW233132   1.482   1.087   1.042  0.1566  0.2371 -1.1454
10745SOL     OW33133   3.389   6.338   2.866 -0.5475  0.0276 -0.1148
10745SOL    HW133134   3.331   6.317   2.788  0.4599  0.4927 -1.0145
10745SOL    HW233135   3.336   6.329   2.951 -1.7587 -0.1023 -0.8656
10746SOL     OW33136   1.197   5.186   5.175  0.7228  0.2226  0.6006
10746SOL    HW133137   1.272   5.252   5.178 -0.6179  2.0400 -2.1027
10746SOL    HW233138   1.230   5.098   5.143  2.1777  0.0748  2.3513
10747SOL     OW33139   0.808   7.002   6.268  0.3464 -0.5248 -0.4970
10747SOL    HW133140   0.789   7.084   6.322 -0.2002 -0.3869 -0.8988
10747SOL    HW233141   0.853   6.934   6.327  0.1118 -0.2299  0.0350
10748SOL     OW33142   2.484   5.862   1.782 -0.4666 -0.2730 -0.1843
10748SOL    HW133143   2.429   5.780   1.777 -0.0943 -0.5760  0.5086
10748SOL    HW233144   2.572   5.841   1.825 -0.0872  0.3382 -0.6441
10749SOL     OW33145   4.993   1.400   2.878  0.3001 -0.5221 -0.3023
10749SOL    HW133146   5.085   1.395   2.916  0.7318 -1.0335 -1.3849
10749SOL    HW233147   4.984   1.336   2.802 -0.7755 -0.0689 -0.5850
10750SOL     OW33148   3.390   1.658   3.203 -0.1592  0.2819  0.4518
10750SOL    HW133149   3.385   1.718   3.282 -0.7380  0.1099  0.5542
10750SOL    HW233150   3.317   1.589   3.208 -1.7220  1.6799 -1.3921
10751SOL     OW33151   6.096   4.558   3.769  0.5013 -0.3033 -0.3188
10751SOL    HW133152   6.049   4.608   3.696 -0.2577  0.6213  0.7688
10751SOL    HW233153   6.194   4.574   3.762  0.3578  0.5075 -0.6106
10752SOL     OW33154   5.425   6.966   5.545  0.1182 -0.8545 -0.0201
10752SOL    HW133155   5.399   6.901   5.473 -0.5745  0.4890 -1.0173
10752SOL    HW233156   5.521   6.992   5.533 -0.6422  1.3724 -2.1745
10753SOL     OW33157   4.240   1.230   3.956 -0.1595  0.3306  0.2517
10753SOL    HW133158   4.239   1.258   4.052  1.5718  0.2761  0.3040
10753SOL    HW233159   4.200   1.303   3.900  0.9780  1.3936  0.7750
10754SOL     OW33160   0.103   3.415   2.517 -0.3293 -1.1596 -0.2419
10754SOL    HW133161   0.053   3.490   2.558 -0.8121 -0.5048 -1.9408
10754SOL    HW233162   0.197   3.413   2.553 -0.4946 -0.1333  0.2653
10755SOL     OW33163   6.354   1.128   0.714  0.9097 -0.5440  0.2219
10755SOL    HW133164   6.399   1.183   0.643  0.5698 -0.7634 -0.1696
10755SOL    HW233165   6.415   1.119   0.793  1.1254  0.0657  0.1320
10756SOL     OW33166   0.681   0.649   6.693 -0.1152  0.4031 -0.5511
10756SOL    HW133167   0.777   0.654   6.719 -0.1464  0.7990 -0.5163
10756SOL    HW233168   0.654   0.553   6.685 -0.3471  0.2412  1.7562
10757SOL     OW33169   0.548   2.285   1.666 -0.1332 -0.2297 -0.0104
10757SOL    HW133170   0.643   2.305   1.690 -0.3533 -0.2388  0.9445
10757SOL    HW233171   0.520   2.200   1.712 -1.4110  1.1861  2.0297
10758SOL     OW33172   5.133   6.890   1.423  0.3234 -0.0776  0.1425
10758SOL    HW133173   5.159   6.811   1.368 -0.6578 -1.9668  2.2736
10758SOL    HW233174   5.050   6.931   1.384  1.0079  0.1501 -1.1535
10759SOL     OW33175   4.184   6.747   3.049 -0.6497 -0.1346 -0.1899
10759SOL    HW133176   4.147   6.817   3.110  0.7719 -2.0261  3.1849
10759SOL    HW233177   4.109   6.693   3.011 -1.6377 -0.4707  2.0524
10760SOL     OW33178   1.639   4.884   2.014  0.0790  0.3794 -0.1390
10760SOL    HW133179   1.667   4.792   2.043  1.5808  0.5311 -1.0076
10760SOL    HW233180   1.639   4.889   1.914 -0.3455  1.2227 -0.1039
10761SOL     OW33181   0.312   1.082   6.287 -0.0874 -0.4179 -0.0374
10761SOL    HW133182   0.361   1.118   6.367  0.8936  2.5851 -1.8112
10761SOL    HW233183   0.372   1.023   6.235  0.3709  0.1755 -0.1921
10762SOL     OW33184   2.069   5.546   6.060 -0.1635  0.1455 -0.5963
10762SOL    HW133185   1.997   5.611   6.033 -0.8334  0.5625  1.9326
10762SOL    HW233186   2.038   5.453   6.041  0.4757  0.4492 -3.5184
10763SOL     OW33187   5.613   2.379   1.909 -0.3860  0.2282 -0.2764
10763SOL    HW133188   5.690   2.394   1.846  0.5122 -0.5528  0.5921
10763SOL    HW233189   5.531   2.423   1.873  0.9238  2.8716 -0.2530
10764SOL     OW33190   4.328   5.612   3.786 -0.0367 -0.0982  0.2551
10764SOL    HW133191   4.399   5.544   3.767  0.7590  1.1025 -1.2905
10764SOL    HW233192   4.364   5.680   3.850 -0.1207 -0.0233  0.2230
10765SOL     OW33193   1.000   3.840   1.461  0.1320  0.3586 -0.2382
10765SOL    HW133194   1.023   3.927   1.416  1.3142 -0.5824 -1.5454
10765SOL    HW233195   1.077   3.777   1.453 -0.7152 -0.8437  0.6601
10766SOL     OW33196   3.172   5.219   4.369  0.3512  0.0315  0.2709
10766SOL    HW133197   3.230   5.218   4.288  0.2191 -2.8769  0.0897
10766SOL    HW233198   3.082   5.183   4.345  0.0052  0.0546  1.4994
10767SOL     OW33199   3.074   0.365   6.724  0.0131  0.0082 -0.4964
10767SOL    HW133200   3.095   0.272   6.697 -1.5263  0.1608 -2.4376
10767SOL    HW233201   3.154   0.423   6.710  1.5505 -1.2400  2.3409
10768SOL     OW33202   6.085   5.767   0.993  0.6205 -0.1689  0.2971
10768SOL    HW133203   6.133   5.852   0.973  0.8602 -0.2311  0.5908
10768SOL    HW233204   5.991   5.772   0.959  1.5044 -0.9740 -2.4917
10769SOL     OW33205   3.784   3.164   3.734 -0.0635  0.5588  0.4346
10769SOL    HW133206   3.858   3.123   3.681  1.4867  1.2026  1.9746
10769SOL    HW233207   3.716   3.094   3.757 -0.4606  0.1516 -1.7921
10770SOL     OW33208   3.013   0.397   0.070  0.0582 -0.1975 -0.1870
10770SOL    HW133209   2.941   0.447   0.118  0.1151  2.1920 -2.3651
10770SOL    HW233210   3.100   0.444   0.082  0.4070 -0.5826 -1.1369
10771SOL     OW33211   5.158   0.003   4.831  0.2386 -0.1561 -0.3449
10771SOL    HW133212   5.071  -0.041   4.811 -0.6897  0.9720  0.9923
10771SOL    HW233213   5.233  -0.049   4.789 -1.0746 -1.0319 -1.6857
10772SOL     OW33214   0.933   3.719   4.389 -0.1554 -0.5008 -0.9912
10772SOL    HW133215   0.985   3.657   4.449 -0.8249 -0.9425 -0.8456
10772SOL    HW233216   0.849   3.673   4.360 -0.6946  0.3731 -0.8362
10773SOL     OW33217   6.608   5.394   0.552  0.4161 -0.2991 -0.4010
10773SOL    HW133218   6.524   5.443   0.574  0.1309 -1.0491  0.2434
10773SOL    HW233219   6.613   5.310   0.606  2.4834  0.6308  0.9736
10774SOL     OW33220   1.718   2.565   2.279  0.5214 -0.0392 -0.4289
10774SOL    HW133221   1.693   2.612   2.194  2.7358  1.8261 -0.1652
10774SOL    HW233222   1.778   2.488   2.259  1.8842  1.0225 -0.5523
10775SOL     OW33223   1.426   5.625   5.069 -0.6755 -0.5839  0.0525
10775SOL    HW133224   1.516   5.643   5.031 -1.1679  0.1342 -0.8232
10775SOL    HW233225   1.425   5.535   5.113  0.0087 -1.3043 -1.3582
10776SOL     OW33226   6.850   2.447   5.040 -0.0668  0.3154  0.0422
10776SOL    HW133227   6.916   2.439   4.965  0.4602  1.2962  0.3787
10776SOL    HW233228   6.880   2.391   5.117 -1.3554 -1.8697 -0.9364
10777SOL     OW33229   0.425   6.823   2.025 -0.2028  0.3328 -0.3929
10777SOL    HW133230   0.485   6.790   2.097 -1.1108  1.2748  0.8429
10777SOL    HW233231   0.390   6.746   1.972  0.6523 -0.3536  0.0363
10778SOL     OW33232   5.100   0.210   2.160  0.0055 -0.2000  0.4363
10778SOL    HW133233   5.199   0.204   2.170  0.2535  1.5714 -0.5431
10778SOL    HW233234   5.060   0.242   2.246  0.5925  1.5480  0.0953
10779SOL     OW33235   6.490   2.766   4.959  0.4466 -0.0124 -0.0571
10779SOL    HW133236   6.585   2.775   4.987 -0.0344  0.7146  1.4415
10779SOL    HW233237   6.435   2.732   5.036 -0.8392  1.5546 -0.2218
10780SOL     OW33238   0.977   4.224   5.353  0.4724  0.6272  0.0270
10780SOL    HW133239   0.877   4.231   5.344  0.2913 -0.6107  0.7933
10780SOL    HW233240   1.001   4.130   5.378  1.6743  1.3276  1.6492
10781SOL     OW33241   0.782   3.562   5.807  0.0549  0.2345 -0.3948
10781SOL    HW133242   0.831   3.567   5.894  0.2016  1.3773 -0.5371
10781SOL    HW233243   0.728   3.478   5.804 -0.0281  0.2383  0.8397
10782SOL     OW33244   2.654   2.358   6.227 -0.4014  0.6929  0.0625
10782SOL    HW133245   2.651   2.310   6.315 -1.8029 -1.5437 -1.1359
10782SOL    HW233246   2.562   2.376   6.195  0.0796  0.8751 -1.2805
10783SOL     OW33247   2.395   3.853   5.551  0.2926  0.3117  0.5377
10783SOL    HW133248   2.448   3.936   5.567 -0.1131  0.5223  0.8106
10783SOL    HW233249   2.371   3.848   5.454  1.3437 -0.1161  0.2842
10784SOL     OW33250   3.240   5.319   4.877 -0.4508  0.3147  0.1687
10784SOL    HW133251   3.313   5.293   4.940 -1.2584 -0.4028  0.8313
10784SOL    HW233252   3.204   5.409   4.903 -1.0290 -0.1349  0.9968
10785SOL     OW33253   1.787   5.438   6.840 -0.3076  0.6243 -0.1916
10785SOL    HW133254   1.787   5.536   6.855  0.6424  0.8672 -1.5897
10785SOL    HW233255   1.862   5.396   6.891 -0.2869  0.7252 -0.1395
10786SOL     OW33256   5.734   6.399   2.632  0.0749 -1.0222  0.4739
10786SOL    HW133257   5.716   6.496   2.648  0.7079 -1.1555  2.2428
10786SOL    HW233258   5.778   6.387   2.543 -1.0399  0.1684 -0.2691
10787SOL     OW33259   3.126   0.270   4.716 -0.2901 -0.3390 -0.2919
10787SOL    HW133260   3.124   0.213   4.634 -0.4528 -1.1497  0.2657
10787SOL    HW233261   3.034   0.281   4.752 -0.1428 -0.5587  0.1659
10788SOL     OW33262   0.711   2.614   6.965 -0.1227  0.5420 -0.5322
10788SOL    HW133263   0.616   2.581   6.966 -0.3504  1.1179 -1.6721
10788SOL    HW233264   0.712   2.713   6.975  0.0789  1.0126 -4.0753
10789SOL     OW33265   1.863   2.084   1.262 -0.2691 -0.2657 -0.1941
10789SOL    HW133266   1.931   2.082   1.335  0.1591  1.4181 -0.5125
10789SOL    HW233267   1.819   1.994   1.254  0.9715 -0.9880  0.8970
10790SOL     OW33268   0.526   3.079   5.830 -0.6762 -0.2358 -0.1291
10790SOL    HW133269   0.477   3.042   5.909 -1.0401 -0.1725 -0.3233
10790SOL    HW233270   0.590   3.010   5.797 -1.2556 -0.6522 -0.4058
10791SOL     OW33271   1.131   0.958   3.288  0.0782  0.1258  0.0952
10791SOL    HW133272   1.080   0.874   3.304 -1.7042  1.3283  1.2012
10791SOL    HW233273   1.220   0.953   3.333  0.8230 -1.8504 -1.4773
10792SOL     OW33274   3.940   6.409   1.134  0.4028  0.1714 -0.2092
10792SOL    HW133275   3.937   6.477   1.060 -0.8852  0.8615  0.4468
10792SOL    HW233276   3.983   6.450   1.214 -1.5072  0.6792  0.6023
10793SOL     OW33277   3.437   1.072   5.167  0.4593  0.2054  0.3684
10793SOL    HW133278   3.413   1.064   5.070  0.5220  0.0525  0.3658
10793SOL    HW233279   3.362   1.115   5.217  0.6575  0.8262  0.1459
10794SOL     OW33280   0.914   3.058   0.788 -0.3223  0.4749  0.2654
10794SOL    HW133281   0.946   3.106   0.870  0.1013 -0.7227  0.8282
10794SOL    HW233282   0.884   2.966   0.813 -0.4092  0.1732 -0.8930
10795SOL     OW33283   5.993   2.459   5.754  0.0453 -0.2282  0.1215
10795SOL    HW133284   5.996   2.396   5.832  0.6252 -0.7628 -0.3124
10795SOL    HW233285   5.904   2.452   5.709 -0.7643  0.9939  1.4373
10796SOL     OW33286   6.176   2.470   6.853 -0.3246 -0.5253 -0.3039
10796SOL    HW133287   6.142   2.397   6.912 -2.3149 -1.1759 -2.1611
10796SOL    HW233288   6.141   2.458   6.760  0.7756  1.7921 -1.0980
10797SOL     OW33289   6.035   4.887   0.002  0.1969 -0.2875  0.2109
10797SOL    HW133290   6.084   4.811  -0.041 -0.1142 -0.9455  1.0144
10797SOL    HW233291   5.958   4.853   0.054 -0.1457  0.6146  0.3152
10798SOL     OW33292   1.821   0.057   5.960 -0.1080 -0.1620  0.0826
10798SOL    HW133293   1.835  -0.042   5.963 -2.2707 -0.5700 -1.2388
10798SOL    HW233294   1.789   0.089   6.049  0.1533 -0.7198  0.3857
10799SOL     OW33295   3.090   1.774   4.038  0.2046 -0.5359 -0.1426
10799SOL    HW133296   3.155   1.707   4.072  0.0912 -0.5562  0.0371
10799SOL    HW233297   3.093   1.856   4.095  1.6049  0.3397 -1.3844
10800SOL     OW33298   6.864   2.082   6.028 -0.0930 -0.1239  0.0946
10800SOL    HW133299   6.766   2.067   6.044 -0.3339  0.7125 -0.4837
10800SOL    HW233300   6.888   2.045   5.938 -0.1361  0.6489 -0.2451
10801SOL     OW33301   1.885   5.932   4.965 -0.5319 -0.7524 -0.1874
10801SOL    HW133302   1.903   5.886   4.878 -1.8378  0.6488 -1.2671
10801SOL    HW233303   1.790   5.915   4.991 -1.4718  2.1662 -1.2679
10802SOL     OW33304   2.942   4.814   3.869 -0.0786  0.4917 -0.7487
10802SOL    HW133305   3.017   4.841   3.929 -3.0611  0.6097  3.3971
10802SOL    HW233306   2.876   4.759   3.921 -3.0859  0.7765 -3.9174
10803SOL     OW33307   0.685   4.082   4.414  0.8324  0.1840 -0.1163
10803SOL    HW133308   0.671   4.153   4.344  0.5259  3.5319  3.0691
10803SOL    HW233309   0.602   4.027   4.422  0.1301  1.0861 -0.9831
10804SOL     OW33310   4.320   6.794   6.547 -0.0019  0.4482 -0.5731
10804SOL    HW133311   4.228   6.755   6.535  0.2498 -0.6193  0.6603
10804SOL    HW233312   4.317   6.862   6.620  0.3385 -0.2783  0.1414
10805SOL     OW33313   4.744   5.560   6.375 -0.3720  0.1413 -0.5186
10805SOL    HW133314   4.786   5.650   6.378 -1.1232  0.4881  1.7169
10805SOL    HW233315   4.743   5.521   6.468 -0.1966 -2.1102 -1.4016
10806SOL     OW33316   0.040   2.922   2.658 -0.4664  0.7692  0.0119
10806SOL    HW133317  -0.002   2.872   2.582  0.9346  0.3748 -0.5366
10806SOL    HW233318   0.068   3.013   2.626  2.9148 -0.4478 -0.9380
10807SOL     OW33319   4.256   2.107   6.591 -0.2871 -0.1962  0.4573
10807SOL    HW133320   4.346   2.151   6.600 -0.6881  0.8404 -0.5044
10807SOL    HW233321   4.269   2.009   6.574  0.6779  0.0215 -0.1518
10808SOL     OW33322   6.173   3.381   2.620  0.7867 -0.4935  0.1379
10808SOL    HW133323   6.142   3.327   2.698  0.4545 -1.4509 -0.6394
10808SOL    HW233324   6.095   3.406   2.562  1.1360 -0.6609 -0.4202
10809SOL     OW33325   0.620   0.773   3.442 -0.7680 -0.0527 -0.1954
10809SOL    HW133326   0.564   0.813   3.369 -1.2736  1.3519  0.9156
10809SOL    HW233327   0.646   0.844   3.507  2.1854 -0.7006 -0.5561
10810SOL     OW33328   2.601   0.880   6.731 -0.3949  0.2563  0.7951
10810SOL    HW133329   2.591   0.786   6.699 -0.4639 -0.1804  2.0381
10810SOL    HW233330   2.604   0.881   6.831 -1.7025  1.6991  0.8485
10811SOL     OW33331   2.009   5.418   5.251 -0.4787 -0.0486 -0.0505
10811SOL    HW133332   2.051   5.445   5.338  0.4020 -2.0205  0.1920
10811SOL    HW233333   2.079   5.415   5.180 -0.6612 -0.9985 -0.2047
10812SOL     OW33334   0.027   2.026   1.513  0.3048 -0.4517 -0.0583
10812SOL    HW133335  -0.012   2.085   1.442 -1.8789  0.4459  1.7442
10812SOL    HW233336  -0.026   1.941   1.519  1.7569 -1.4451 -0.8324
10813SOL     OW33337   1.599   5.384   3.791 -0.5269  0.0956 -0.3004
10813SOL    HW133338   1.529   5.396   3.861 -1.0295 -0.1739 -0.7506
10813SOL    HW233339   1.643   5.295   3.803 -0.6696  0.0148 -0.3796
10814SOL     OW33340   1.742   5.979   3.990  0.1564  0.1655 -0.0652
10814SOL    HW133341   1.656   6.000   3.944  0.5587 -0.4432 -1.1156
10814SOL    HW233342   1.815   5.968   3.922  0.6291 -1.4070  0.6498
10815SOL     OW33343   0.909   3.606   6.284 -0.3056  0.0499  0.5820
10815SOL    HW133344   0.974   3.681   6.274 -1.8818  1.1839 -1.7541
10815SOL    HW233345   0.891   3.591   6.381  2.6671  0.2981  1.2754
10816SOL     OW33346   2.117   2.927   6.662 -0.0739  0.1581  0.7285
10816SOL    HW133347   2.196   2.906   6.720  0.1019  0.6491  0.6748
10816SOL    HW233348   2.038   2.948   6.718 -0.4776 -1.4101  0.7896
10817SOL     OW33349   4.073   1.460   2.338 -0.0193 -0.3419 -0.4822
10817SOL    HW133350   4.170   1.486   2.342 -0.4051  1.1086  0.2142
10817SOL    HW233351   4.043   1.431   2.429 -0.6851  0.9656 -0.2736
10818SOL     OW33352   4.474   5.623   5.564 -0.1007  0.1599  0.0532
10818SOL    HW133353   4.389   5.675   5.569 -0.9565 -0.9135 -1.9849
10818SOL    HW233354   4.482   5.582   5.473  0.9037 -2.5970  1.2923
10819SOL     OW33355   0.846   4.188   3.618 -0.1904 -0.1858 -0.0543
10819SOL    HW133356   0.873   4.215   3.710 -1.0436  0.7831 -0.0770
10819SOL    HW233357   0.911   4.120   3.583  2.2657  1.9903 -0.0884
10820SOL     OW33358   0.793   6.837   5.133 -0.5080  0.3406  0.5836
10820SOL    HW133359   0.752   6.838   5.042 -0.1427  0.8507  0.4198
10820SOL    HW233360   0.834   6.748   5.150 -1.8152 -0.2423  0.8213
10821SOL     OW33361   6.831   0.738   6.273 -0.0341 -0.2614 -0.4584
10821SOL    HW133362   6.828   0.831   6.236 -1.6641 -0.1940 -0.2137
10821SOL    HW233363   6.739   0.710   6.301  0.8493 -0.9358  2.0166
10822SOL     OW33364   1.004   6.425   6.550  0.2625 -0.1208  0.4099
10822SOL    HW133365   0.980   6.416   6.453  0.6021  1.2809  0.1639
10822SOL    HW233366   1.047   6.514   6.565  0.8995 -0.6224  1.7249
10823SOL     OW33367   2.817   1.828   2.072 -0.2961 -0.0423  0.2062
10823SOL    HW133368   2.724   1.792   2.062  0.0601 -0.5026 -1.8622
10823SOL    HW233369   2.817   1.925   2.050 -0.1548 -0.2307 -0.6498
10824SOL     OW33370   0.036   2.736   4.684  0.1869 -0.5286  0.8544
10824SOL    HW133371   0.085   2.665   4.634  0.7945  0.2159  0.3820
10824SOL    HW233372   0.098   2.811   4.706 -0.5217  0.0132  1.0561
10825SOL     OW33373   5.871   2.950   3.845  0.1056 -0.0761  0.3379
10825SOL    HW133374   5.848   2.998   3.930 -1.3707 -0.8833  0.4348
10825SOL    HW233375   5.817   2.866   3.839 -0.0045  0.0940 -1.5258
10826SOL     OW33376   6.342   0.494   0.951  0.6922 -0.4189 -0.0774
10826SOL    HW133377   6.364   0.435   1.029  0.0825 -1.4050 -0.6386
10826SOL    HW233378   6.421   0.552   0.930  0.4931  0.7028  1.9881
10827SOL     OW33379   6.952   3.430   3.533 -0.2590  0.1308  0.2964
10827SOL    HW133380   7.052   3.426   3.530 -0.1118  2.5526 -0.1695
10827SOL    HW233381   6.923   3.496   3.602 -1.5577 -0.5947  0.4723
10828SOL     OW33382   3.302   4.973   6.562 -0.7841  0.4965  0.3181
10828SOL    HW133383   3.336   4.953   6.470 -0.9406  0.9059  0.1645
10828SOL    HW233384   3.335   4.904   6.626 -0.4507  0.3582  0.0029
10829SOL     OW33385   2.746   4.695   2.958  0.7085 -0.5816  0.2538
10829SOL    HW133386   2.732   4.719   2.862 -1.0248 -2.0615  0.0886
10829SOL    HW233387   2.673   4.635   2.989  0.1622  1.3170  3.0815
10830SOL     OW33388   5.035   6.385   4.749 -0.1834 -0.4464  0.0183
10830SOL    HW133389   4.968   6.428   4.810 -1.3319 -1.3593 -0.5708
10830SOL    HW233390   5.125   6.385   4.794 -0.1885  2.2375  0.1742
10831SOL     OW33391   4.154   2.232   2.471  0.0941 -0.1116  0.5396
10831SOL    HW133392   4.143   2.232   2.371  1.3291  0.9235  0.3817
10831SOL    HW233393   4.247   2.205   2.494  0.0890  0.5562  1.3659
10832SOL     OW33394   1.111   2.700   1.962 -0.0912  0.4770  0.0869
10832SOL    HW133395   1.044   2.629   1.941 -0.5737  0.7256  0.7659
10832SOL    HW233396   1.184   2.698   1.894 -0.0254 -0.7572  0.1797
10833SOL     OW33397   4.203   2.296   5.526 -0.1869 -0.0441 -0.9064
10833SOL    HW133398   4.211   2.380   5.473  1.3002  0.0657 -0.5707
10833SOL    HW233399   4.248   2.221   5.477 -0.6454 -0.4208 -0.7565
10834SOL     OW33400   6.785   2.080   5.552  0.5311  0.1744  0.0674
10834SOL    HW133401   6.796   2.065   5.454 -0.4894  0.1095 -0.0455
10834SOL    HW233402   6.716   2.018   5.588 -1.6121  2.4509  0.1467
10835SOL     OW33403   2.168   0.873   0.577 -0.1735 -0.4759 -0.3937
10835SOL    HW133404   2.229   0.933   0.524 -0.0927 -0.6990 -0.5615
10835SOL    HW233405   2.170   0.899   0.673  0.7155 -0.8979 -0.2836
10836SOL     OW33406   6.395   1.051   1.691 -0.2667 -0.3959 -0.2892
10836SOL    HW133407   6.317   1.095   1.647  0.1289  0.0596 -0.5445
10836SOL    HW233408   6.436   1.113   1.757  1.3843  0.3406 -1.9276
10837SOL     OW33409   1.632   5.040   6.669 -0.1894  0.4914 -0.3231
10837SOL    HW133410   1.673   5.131   6.660 -1.9048  1.3111 -0.2592
10837SOL    HW233411   1.546   5.047   6.719 -2.1181 -0.5911 -3.1934
10838SOL     OW33412   0.025   0.227   0.095 -0.2253 -0.6239  0.5251
10838SOL    HW133413   0.068   0.178   0.171  0.6518 -1.9306 -0.7674
10838SOL    HW233414   0.006   0.164   0.020  0.8235  0.9496 -1.1691
10839SOL     OW33415   3.429   0.414   6.966  0.0309 -0.3471 -0.0020
10839SOL    HW133416   3.387   0.396   6.877  1.1621  2.5539 -1.2534
10839SOL    HW233417   3.528   0.404   6.959  0.3747  2.2133  0.1633
10840SOL     OW33418   1.506   1.668   5.105 -0.2415 -0.0333 -0.5426
10840SOL    HW133419   1.566   1.746   5.086 -1.0217  0.6685 -0.1857
10840SOL    HW233420   1.442   1.656   5.030  1.1809 -1.6531 -1.5999
10841SOL     OW33421   4.006   5.990   6.912 -0.0154 -0.1017 -0.5150
10841SOL    HW133422   3.921   6.021   6.869  1.3800  3.4732 -1.1181
10841SOL    HW233423   4.001   6.008   7.011 -0.0364  0.0043 -0.5346
10842SOL     OW33424   1.128   3.097   1.868  0.0275  0.5437 -0.6196
10842SOL    HW133425   1.182   3.048   1.799 -0.9947 -1.0368 -0.3615
10842SOL    HW233426   1.128   3.194   1.847  1.6071  0.3833 -1.5482
10843SOL     OW33427   0.858   2.139   2.510 -0.0749 -0.6883 -0.3933
10843SOL    HW133428   0.863   2.234   2.543  1.8587 -0.2617 -1.7706
10843SOL    HW233429   0.772   2.098   2.541 -1.4005  1.7905 -0.5039
10844SOL     OW33430   4.898   3.793   3.490 -0.7604  0.1314  0.1335
10844SOL    HW133431   4.893   3.693   3.491 -1.8904  0.1713  0.5699
10844SOL    HW233432   4.812   3.830   3.455 -0.8322  0.9605  1.1338
10845SOL     OW33433   1.627   3.533   0.759  0.6372  0.0492 -0.0095
10845SOL    HW133434   1.660   3.477   0.683 -0.2657  0.9763 -1.1355
10845SOL    HW233435   1.701   3.593   0.791  1.7328 -1.9703  1.4802
10846SOL     OW33436   2.479   1.131   3.326  0.2034 -0.8824  0.6018
10846SOL    HW133437   2.390   1.167   3.352  0.0906 -1.3110  0.8051
10846SOL    HW233438   2.498   1.155   3.231 -0.5119 -1.5549  0.2813
10847SOL     OW33439   4.627   1.395   4.125 -0.5538 -0.6166  0.0479
10847SOL    HW133440   4.618   1.481   4.176 -0.0703 -0.4395 -0.1557
10847SOL    HW233441   4.697   1.406   4.055  0.0389 -1.4021  0.4981
10848SOL     OW33442   2.173   0.972   0.824  0.2261 -0.1504  0.0715
10848SOL    HW133443   2.260   1.020   0.830  0.4743 -0.6287  0.3498
10848SOL    HW233444   2.098   1.036   0.844  0.2158  1.1417 -3.3847
10849SOL     OW33445   1.639   6.199   5.778  0.5064  0.1380 -0.0577
10849SOL    HW133446   1.564   6.178   5.841  1.7494  0.8074  1.7219
10849SOL    HW233447   1.706   6.124   5.780  0.8704  0.4614 -0.0951
10850SOL     OW33448   5.768   0.205   4.791 -0.0151  0.0564 -0.3309
10850SOL    HW133449   5.840   0.164   4.846 -1.5719 -2.5385 -0.0546
10850SOL    HW233450   5.798   0.213   4.696  1.4746  1.4002  0.2034
10851SOL     OW33451   4.329   2.868   1.326  0.3841 -0.3961  0.7686
10851SOL    HW133452   4.296   2.780   1.361  3.2404 -1.6037  0.6343
10851SOL    HW233453   4.429   2.870   1.327  0.4570  2.1159 -1.1196
10852SOL     OW33454   6.780   3.175   6.186  0.2318 -0.4968  0.2284
10852SOL    HW133455   6.754   3.218   6.100 -0.5998  0.3214  0.8842
10852SOL    HW233456   6.840   3.236   6.238  1.2870 -1.2590 -0.0435
10853SOL     OW33457   0.123   5.167   5.459  0.0571  0.5983 -0.0122
10853SOL    HW133458   0.183   5.089   5.437  0.2067  0.8275 -0.4304
10853SOL    HW233459   0.067   5.189   5.379 -0.6353  0.3499  0.3928
10854SOL     OW33460   5.252   0.320   0.375  0.0456  0.3268 -0.4655
10854SOL    HW133461   5.316   0.379   0.424  0.7241  0.9942 -2.0810
10854SOL    HW233462   5.291   0.295   0.287 -1.2626 -0.5865 -0.8140
10855SOL     OW33463   1.723   4.759   6.103  0.0659  0.0227  0.1799
10855SOL    HW133464   1.701   4.707   6.186 -2.2686 -0.9004 -0.9365
10855SOL    HW233465   1.641   4.808   6.073  1.2341  1.3642 -0.8916
10856SOL     OW33466   4.356   0.470   6.137  0.4781  0.7358 -0.5980
10856SOL    HW133467   4.418   0.416   6.081 -1.5954 -0.6550 -1.6792
10856SOL    HW233468   4.337   0.557   6.091 -0.2779  0.1050 -1.5149
10857SOL     OW33469   5.933   5.877   6.297  0.1322  0.2024  0.2720
10857SOL    HW133470   5.973   5.839   6.381  0.2804 -0.9075 -0.2809
10857SOL    HW233471   5.997   5.942   6.256  0.3598  0.2128  0.6381
10858SOL     OW33472   1.022   3.176   0.993 -0.4400  0.3526 -0.0628
10858SOL    HW133473   1.015   3.272   0.966  1.1666  0.7117  0.6539
10858SOL    HW233474   0.985   3.165   1.086 -1.8741 -0.0151 -0.6513
10859SOL     OW33475   3.164   6.418   3.244  0.3678  0.3339 -0.3321
10859SOL    HW133476   3.133   6.395   3.336  2.1478  1.1803  0.5267
10859SOL    HW233477   3.148   6.340   3.183  0.9482 -1.0069  1.1575
10860SOL     OW33478   4.810   6.377   1.556 -0.0268  0.6193  0.3264
10860SOL    HW133479   4.745   6.303   1.571 -0.4889  1.1440  0.9950
10860SOL    HW233480   4.808   6.405   1.460  1.1979 -1.1685 -0.2907
10861SOL     OW33481   1.079   4.077   2.669  0.3814  0.1721  0.1521
10861SOL    HW133482   1.150   4.144   2.652  0.9092 -0.2788  0.5496
10861SOL    HW233483   0.999   4.098   2.612  0.3867  1.3546  0.5484
10862SOL     OW33484   3.433   5.805   4.604  0.0217  0.1215  0.1339
10862SOL    HW133485   3.489   5.825   4.523  0.6434  0.9727  0.7617
10862SOL    HW233486   3.344   5.850   4.595 -0.6131 -1.2424 -0.8718
10863SOL     OW33487   1.177   0.778   4.081  0.5435 -0.4769  0.1151
10863SOL    HW133488   1.202   0.798   3.986 -2.3368 -2.2289 -1.1592
10863SOL    HW233489   1.179   0.679   4.095 -0.5668 -0.3457  1.4128
10864SOL     OW33490   2.502   2.579   1.229 -0.0896  0.2491 -0.2061
10864SOL    HW133491   2.423   2.611   1.177 -1.9640 -0.9779  1.7232
10864SOL    HW233492   2.506   2.479   1.226  2.9692  0.2868 -2.3518
10865SOL     OW33493   4.730   0.971   4.182 -0.8249  0.3543  0.4318
10865SOL    HW133494   4.745   1.032   4.260  0.9464 -0.6705  0.9483
10865SOL    HW233495   4.747   1.021   4.097 -0.9475  0.9904  0.7720
10866SOL     OW33496   0.390   5.546   5.820 -0.4940  0.6177 -0.0555
10866SOL    HW133497   0.384   5.644   5.799 -0.6277  0.2025 -2.1728
10866SOL    HW233498   0.460   5.504   5.762 -0.3812 -0.5574  0.8884
10867SOL     OW33499   0.345   3.602   1.019  0.0093 -0.2504  0.4317
10867SOL    HW133500   0.383   3.510   1.021  0.1503 -0.1875  1.5835
10867SOL    HW233501   0.406   3.663   0.968 -1.5346 -1.3611 -3.0299
10868SOL     OW33502   6.350   0.870   4.203  0.2159  0.2270  0.4982
10868SOL    HW133503   6.314   0.800   4.265  0.0417  0.4246  0.6175
10868SOL    HW233504   6.448   0.853   4.187  0.6294  1.0518  2.0232
10869NA      NA33505   0.070   2.152   6.916  0.8045 -0.4438 -0.0702
10870NA      NA33506   4.047   5.022   4.561  0.2184  0.1947 -0.2711
10871NA      NA33507   0.662   5.249   3.342  0.0833  0.1207  0.1173
10872NA      NA33508   0.237   4.113   3.458  0.0337  0.0679  0.2085
10873NA      NA33509   2.850   2.768   5.472 -0.5784 -0.0467 -0.1939
10874NA      NA33510   3.645   3.228   5.596  0.3831 -0.2090  0.2762
10875NA      NA33511   2.049   4.568   0.227  0.5256 -0.0820 -0.1355
10876NA      NA33512   4.333   4.517   1.881 -0.5140  0.3764 -0.3504
10877NA      NA33513   4.737   3.648   1.611 -0.3078  0.1403  0.2170
10878NA      NA33514   4.253   2.516   1.555  0.1189  0.1902 -0.0870
10879NA      NA33515   5.816   5.918   1.577  0.7013  0.2524  0.3929
10880NA      NA33516   3.198   6.646   3.151 -0.5462  0.8463  0.3965
10881NA      NA33517   2.643   5.750   2.305 -0.0983  0.0294 -0.3637
10882NA      NA33518   4.585   4.710   5.266  0.0445 -0.3645  0.1428
   7.01456   7.01456   7.01456
